Title
81392
    1CHL1    C3    1   1.948   6.065  10.165  0.3382  0.3254 -0.1214
    1CHL1    H3    2   1.996   6.165  10.159 -1.4755  1.3371  1.3064
    1CHL1    O3    3   1.966   6.049  10.310 -0.7254 -0.0645  0.4789
    1CHL1   H3'    4   1.908   5.977  10.334 -2.3017  1.6316  2.0810
    1CHL1    C4    5   1.803   6.071  10.123  0.2458  0.0468 -0.2091
    1CHL1   H4A    6   1.745   5.986  10.165  0.2260  0.2910  0.2672
    1CHL1   H4B    7   1.760   6.161  10.172  0.7345  0.6306 -0.8468
    1CHL1    C5    8   1.783   6.080   9.974  0.0115 -0.1626 -0.5093
    1CHL1    C6    9   1.715   6.178   9.923 -0.6493  0.4551  0.4880
    1CHL1    H6   10   1.664   6.254   9.985  0.6561  0.6368  1.3800
    1CHL1    C7   11   1.706   6.199   9.770 -0.1342  0.4448 -0.0230
    1CHL1   H7A   12   1.608   6.233   9.730 -0.1078 -0.1860 -0.6403
    1CHL1   H7B   13   1.779   6.278   9.742  0.9748 -0.8147 -0.8362
    1CHL1    C8   14   1.745   6.077   9.690 -0.9494 -0.2352  0.6061
    1CHL1    H8   15   1.663   6.003   9.703  0.1286 -1.2716  1.7701
    1CHL1   C14   16   1.785   6.117   9.545 -0.1785 -0.2133  0.1632
    1CHL1   H14   17   1.879   6.174   9.536 -0.8240  0.7407 -0.9301
    1CHL1   C15   18   1.688   6.219   9.467 -0.6205 -0.1194 -0.6535
    1CHL1  H15A   19   1.584   6.183   9.481 -0.9641  0.7618 -0.8843
    1CHL1  H15B   20   1.678   6.323   9.505 -4.4705 -1.0504  1.3594
    1CHL1   C16   21   1.725   6.203   9.325  0.2596 -0.2382  0.6465
    1CHL1  H16A   22   1.650   6.169   9.251  2.1035  1.1061 -2.0016
    1CHL1  H16B   23   1.764   6.299   9.285 -3.1635  0.7252 -0.7410
    1CHL1   C17   24   1.835   6.087   9.319 -0.3885 -0.3658 -0.3325
    1CHL1   H17   25   1.935   6.136   9.318  0.1244 -1.3557 -1.9162
    1CHL1   C13   26   1.815   6.003   9.453  0.5172  0.3651  0.1505
    1CHL1   C18   27   1.692   5.912   9.430 -0.6678 -0.2577  0.2425
    1CHL1  H18A   28   1.669   5.857   9.525 -2.5830 -0.6821 -0.4114
    1CHL1  H18B   29   1.612   5.971   9.382  0.4927  0.8632 -0.3403
    1CHL1  H18C   30   1.724   5.838   9.354 -3.1486 -0.0148 -1.1572
    1CHL1   C12   31   1.926   5.919   9.506 -0.3340  0.8602 -0.3994
    1CHL1  H12A   32   1.923   5.821   9.453 -2.8271  0.1873  0.8201
    1CHL1  H12B   33   2.020   5.975   9.488 -0.3686  1.2335  0.5675
    1CHL1   C11   34   1.901   5.879   9.654 -0.7928  0.2914 -0.8971
    1CHL1  H11A   35   1.819   5.804   9.658 -0.3340 -0.1556  0.9342
    1CHL1  H11B   36   1.986   5.823   9.699 -1.5149  0.5004  0.8046
    1CHL1    C9   37   1.875   6.007   9.745  0.4610 -0.0671  0.1453
    1CHL1    H9   38   1.952   6.083   9.722 -0.2003  0.4334 -0.4656
    1CHL1   C10   39   1.862   5.973   9.903 -0.3974 -0.8004 -0.4767
    1CHL1   C19   40   1.788   5.838   9.927 -0.2991  0.2154  0.0457
    1CHL1  H19A   41   1.686   5.845   9.883 -0.8042 -1.8350  0.8035
    1CHL1  H19B   42   1.836   5.756   9.870 -1.2073 -0.4561  0.2207
    1CHL1  H19C   43   1.786   5.825  10.037  0.7291  0.7267  0.1363
    1CHL1    C1   44   2.011   5.966   9.949 -0.3654  0.0687 -0.9222
    1CHL1   H1A   45   2.064   5.877   9.908  1.8218  0.8018  0.1429
    1CHL1   H1B   46   2.057   6.061   9.914  1.0235 -1.0344 -2.1985
    1CHL1    C2   47   2.026   5.953  10.104 -0.2846  0.3241 -0.4358
    1CHL1   H2A   48   2.135   5.953  10.124  0.3738  2.2607 -3.4220
    1CHL1   H2B   49   1.988   5.857  10.144  3.6434 -1.4971 -0.5882
    1CHL1   C20   50   1.833   6.011   9.185  0.2299  0.0176 -0.3524
    1CHL1   H20   51   1.738   5.956   9.171 -0.1884  0.4187  0.7831
    1CHL1   C21   52   1.950   5.914   9.177 -0.0154 -0.2102  0.6625
    1CHL1  H21A   53   2.045   5.953   9.219  0.5352  0.0232 -0.7321
    1CHL1  H21B   54   1.969   5.885   9.071  0.8717 -0.3992  0.8651
    1CHL1  H21C   55   1.932   5.822   9.236 -0.0882  1.0091  2.6388
    1CHL1   C22   56   1.840   6.116   9.063 -0.0763  0.3115 -0.4916
    1CHL1  H22A   57   1.763   6.194   9.085 -2.0175 -1.2015 -1.5442
    1CHL1  H22B   58   1.932   6.178   9.061  1.2278 -1.5366 -0.1935
    1CHL1   C23   59   1.816   6.058   8.921 -0.2693  0.3299  0.5969
    1CHL1  H23A   60   1.907   5.998   8.899 -1.4648 -1.0063 -0.9215
    1CHL1  H23B   61   1.723   5.997   8.917 -0.9528  1.4116 -1.5449
    1CHL1   C24   62   1.802   6.162   8.814 -0.8783 -0.7172 -0.4568
    1CHL1  H24A   63   1.715   6.227   8.837 -0.3661 -0.1158 -0.1858
    1CHL1  H24B   64   1.881   6.240   8.815 -1.0717 -0.4976  1.2778
    1CHL1   C25   65   1.784   6.117   8.666  0.1815 -0.0643  0.3226
    1CHL1   H25   66   1.687   6.063   8.664 -0.4232  0.9614 -2.8310
    1CHL1   C26   67   1.775   6.230   8.569  0.1983 -0.0045  0.5558
    1CHL1  H26A   68   1.717   6.320   8.600  1.1051  1.0779 -0.7754
    1CHL1  H26B   69   1.876   6.276   8.562  0.5066 -0.7450  0.0183
    1CHL1  H26C   70   1.753   6.209   8.462  0.1213  2.2606  0.0697
    1CHL1   C27   71   1.885   6.006   8.618  0.1452 -0.1132 -0.0163
    1CHL1  H27A   72   1.906   5.925   8.690  2.3691 -0.9395 -1.4960
    1CHL1  H27B   73   1.854   5.968   8.518  0.5696 -0.6718  0.0581
    1CHL1  H27C   74   1.984   6.054   8.604  0.2609 -0.3800 -0.1072
    2CHL1    C3   75   3.056   5.367  10.257  0.0393  0.2401 -0.3340
    2CHL1    H3   76   3.010   5.267  10.274 -0.2626  0.7221  1.9774
    2CHL1    O3   77   3.134   5.380  10.377 -0.6752 -0.1531  0.0303
    2CHL1   H3'   78   3.069   5.369  10.446 -0.7301 -0.5812 -0.0850
    2CHL1    C4   79   3.147   5.367  10.136 -0.0917 -0.0477 -0.4660
    2CHL1   H4A   80   3.207   5.459  10.128  0.3751  0.0195  2.5969
    2CHL1   H4B   81   3.225   5.287  10.136 -0.0315  0.0105 -0.3210
    2CHL1    C5   82   3.062   5.347  10.009  0.9865 -0.5908 -0.2600
    2CHL1    C6   83   3.082   5.257   9.910  0.2021  0.2287 -0.2081
    2CHL1    H6   84   3.162   5.182   9.917  1.6036  1.6361 -0.6427
    2CHL1    C7   85   3.011   5.238   9.779 -0.2428 -0.3349 -1.2860
    2CHL1   H7A   86   3.080   5.212   9.696  0.2499 -2.4204 -0.2875
    2CHL1   H7B   87   2.939   5.156   9.795  0.6519 -0.6919  1.3756
    2CHL1    C8   88   2.925   5.361   9.745 -0.6746  0.1134 -0.2933
    2CHL1    H8   89   2.993   5.446   9.724  1.3119 -0.9685  1.3172
    2CHL1   C14   90   2.843   5.335   9.625  0.2798  0.1971 -0.2639
    2CHL1   H14   91   2.782   5.246   9.653 -0.0340  1.1727  2.4194
    2CHL1   C15   92   2.903   5.301   9.494 -0.4585 -0.1232 -0.1916
    2CHL1  H15A   93   2.990   5.364   9.466  0.8381 -1.3527  0.9226
    2CHL1  H15B   94   2.933   5.194   9.493 -1.1572 -0.3671  1.4529
    2CHL1   C16   95   2.782   5.316   9.396  0.0073 -0.2504 -0.1565
    2CHL1  H16A   96   2.824   5.379   9.315  1.5076  0.5249  1.1635
    2CHL1  H16B   97   2.749   5.219   9.353  1.2719  0.3452 -2.6596
    2CHL1   C17   98   2.664   5.378   9.472 -0.3033 -0.3178 -0.0471
    2CHL1   H17   99   2.604   5.297   9.519  0.0817  0.5484  2.0762
    2CHL1   C13  100   2.735   5.450   9.592  0.3725 -0.2760  0.0495
    2CHL1   C18  101   2.812   5.579   9.553 -0.6293  0.2623  0.3194
    2CHL1  H18A  102   2.759   5.664   9.504  2.0840  0.8983 -1.7693
    2CHL1  H18B  103   2.873   5.608   9.641  1.4202 -2.4270 -0.1062
    2CHL1  H18C  104   2.891   5.563   9.476  0.8713  3.7041  0.9292
    2CHL1   C12  105   2.644   5.461   9.717 -0.6918 -0.4622 -0.5485
    2CHL1  H12A  106   2.568   5.537   9.689  1.7134  2.2640 -0.1827
    2CHL1  H12B  107   2.590   5.367   9.740 -1.5620  0.4861  1.6039
    2CHL1   C11  108   2.729   5.493   9.844  0.0791 -0.5425 -0.0840
    2CHL1  H11A  109   2.762   5.598   9.838  1.0032 -0.8679 -1.1139
    2CHL1  H11B  110   2.656   5.496   9.928  1.1341  2.0390  0.8165
    2CHL1    C9  111   2.846   5.393   9.871  0.1927  0.0848 -0.8404
    2CHL1    H9  112   2.797   5.299   9.904 -1.0461  0.8165 -0.5308
    2CHL1   C10  113   2.934   5.435   9.996  0.0043  0.1275  0.3696
    2CHL1   C19  114   2.977   5.584   9.974  0.3070  0.1879  0.2643
    2CHL1  H19A  115   2.888   5.647   9.994  1.0949  1.8971 -1.2510
    2CHL1  H19B  116   3.065   5.608  10.037  0.3991 -2.7013  1.3720
    2CHL1  H19C  117   3.007   5.599   9.868  0.8631 -0.2576  0.3548
    2CHL1    C1  118   2.855   5.426  10.124  0.7403 -0.2540 -0.3665
    2CHL1   H1A  119   2.765   5.492  10.115  0.3911 -0.2461  2.2097
    2CHL1   H1B  120   2.815   5.323  10.135 -0.9387  0.3493 -0.5070
    2CHL1    C2  121   2.944   5.472  10.244  0.3631 -0.0432  0.6697
    2CHL1   H2A  122   2.878   5.459  10.332 -0.2438  1.8478  0.5413
    2CHL1   H2B  123   2.991   5.572  10.252  3.8163 -1.6528  2.8633
    2CHL1   C20  124   2.574   5.462   9.380 -0.2687  0.1438 -0.3721
    2CHL1   H20  125   2.632   5.544   9.331  1.2405 -2.3520 -3.0674
    2CHL1   C21  126   2.452   5.522   9.457  0.1703 -1.4376 -0.1970
    2CHL1  H21A  127   2.492   5.608   9.514 -1.3996  0.6118 -2.0072
    2CHL1  H21B  128   2.405   5.445   9.523 -1.9255 -0.3885 -0.3684
    2CHL1  H21C  129   2.388   5.572   9.380  0.2380 -1.7733 -0.4749
    2CHL1   C22  130   2.523   5.379   9.259  0.2412  0.2614  0.1452
    2CHL1  H22A  131   2.604   5.320   9.211  1.2188  1.3647  0.3657
    2CHL1  H22B  132   2.443   5.312   9.296  0.6312  0.0155  0.5508
    2CHL1   C23  133   2.500   5.470   9.138  0.3822 -0.1328 -0.6833
    2CHL1  H23A  134   2.402   5.517   9.164  0.4183 -0.6272  0.3777
    2CHL1  H23B  135   2.568   5.558   9.133 -1.8160  1.8268  1.3482
    2CHL1   C24  136   2.484   5.398   9.008  0.0303  0.2042  0.9248
    2CHL1  H24A  137   2.578   5.345   8.984  0.6366  1.3335  0.7451
    2CHL1  H24B  138   2.407   5.318   9.014 -0.7460  0.8374 -0.1752
    2CHL1   C25  139   2.454   5.490   8.892  0.6817 -0.3835  0.5707
    2CHL1   H25  140   2.347   5.519   8.893  1.0342  0.9790  0.6173
    2CHL1   C26  141   2.534   5.626   8.880  0.4366  0.2462 -0.0726
    2CHL1  H26A  142   2.537   5.690   8.971  1.2949  0.6037 -0.3446
    2CHL1  H26B  143   2.643   5.608   8.871  0.0337 -1.3183 -3.2095
    2CHL1  H26C  144   2.506   5.690   8.794  1.7390  0.6539 -0.2103
    2CHL1   C27  145   2.473   5.413   8.757 -0.1422  0.1785  0.8522
    2CHL1  H27A  146   2.575   5.370   8.753 -0.6939 -1.1174  0.0886
    2CHL1  H27B  147   2.399   5.332   8.738  1.8332 -1.6935  0.7027
    2CHL1  H27C  148   2.461   5.487   8.675 -1.6116  1.6008  2.2653
    3CHL1    C3  149   2.884   2.463  10.257  0.4483 -0.0193  0.4730
    3CHL1    H3  150   2.891   2.352  10.258  2.3339  0.0645 -0.4056
    3CHL1    O3  151   2.878   2.519  10.385 -0.5509 -0.2757 -0.1902
    3CHL1   H3'  152   2.963   2.501  10.425  0.5611  2.5162 -1.0527
    3CHL1    C4  153   3.008   2.525  10.189 -0.5637 -0.7482  1.1686
    3CHL1   H4A  154   3.010   2.636  10.187  0.9699 -0.7744 -0.5232
    3CHL1   H4B  155   3.106   2.500  10.234  0.4245  2.4904  1.0939
    3CHL1    C5  156   3.009   2.496  10.043 -0.8145  0.5404 -0.0249
    3CHL1    C6  157   3.106   2.426   9.986  0.7715 -0.0742  0.3624
    3CHL1    H6  158   3.188   2.389  10.050 -0.0206 -1.0857  0.8216
    3CHL1    C7  159   3.115   2.396   9.840 -0.5013  0.4257 -0.1909
    3CHL1   H7A  160   3.219   2.410   9.804 -0.5380  1.5867  0.1247
    3CHL1   H7B  161   3.088   2.291   9.814 -0.0626  0.2593  0.0079
    3CHL1    C8  162   3.016   2.483   9.754  0.1124  0.0504 -0.0437
    3CHL1    H8  163   3.054   2.587   9.747  0.7453 -0.2667 -2.1963
    3CHL1   C14  164   3.004   2.437   9.615  0.0790  0.0834 -0.1189
    3CHL1   H14  165   2.968   2.333   9.629  1.2998 -0.3437 -0.0449
    3CHL1   C15  166   3.132   2.440   9.536  0.3786 -0.1471 -0.3271
    3CHL1  H15A  167   3.182   2.535   9.564  3.0879 -1.6250  0.1415
    3CHL1  H15B  168   3.202   2.363   9.575 -0.0428  0.1507  1.0804
    3CHL1   C16  169   3.086   2.439   9.395  0.0384  0.2707  0.3690
    3CHL1  H16A  170   3.125   2.528   9.342  0.2293  0.0593  0.1513
    3CHL1  H16B  171   3.118   2.343   9.349 -1.2562 -0.7435  1.5105
    3CHL1   C17  172   2.935   2.437   9.397 -1.4991  0.0848  0.6755
    3CHL1   H17  173   2.913   2.329   9.414  2.4250 -0.9147  0.3638
    3CHL1   C13  174   2.894   2.503   9.530 -0.5103 -0.6500  0.6696
    3CHL1   C18  175   2.913   2.652   9.512 -0.3282  0.3097  0.2376
    3CHL1  H18A  176   2.916   2.715   9.603  1.3594  2.9840 -1.5201
    3CHL1  H18B  177   3.013   2.672   9.468  0.4184 -0.9556  1.2956
    3CHL1  H18C  178   2.837   2.695   9.442  0.5170  0.3140 -0.7022
    3CHL1   C12  179   2.761   2.466   9.596 -0.1458  0.7230  0.1988
    3CHL1  H12A  180   2.677   2.506   9.535 -0.7560 -0.8298 -0.0086
    3CHL1  H12B  181   2.744   2.357   9.594  0.6431  0.6084 -1.4824
    3CHL1   C11  182   2.757   2.515   9.739  0.3872 -0.2981 -0.1372
    3CHL1  H11A  183   2.760   2.625   9.721 -0.1765 -0.1198  0.7500
    3CHL1  H11B  184   2.660   2.493   9.789 -0.9960 -0.2986 -2.6966
    3CHL1    C9  185   2.880   2.475   9.828 -0.4019 -0.2858 -0.0553
    3CHL1    H9  186   2.867   2.365   9.835  0.0699 -0.5283 -2.2029
    3CHL1   C10  187   2.882   2.534   9.971  0.1242  0.2458 -0.4459
    3CHL1   C19  188   2.884   2.689   9.962 -0.1756 -0.0004  0.0772
    3CHL1  H19A  189   2.794   2.728   9.911  0.5940 -0.6946 -1.9444
    3CHL1  H19B  190   2.886   2.743  10.058  1.9050  1.1751 -0.5608
    3CHL1  H19C  191   2.974   2.728   9.909  0.1463 -1.2219 -0.3204
    3CHL1    C1  192   2.750   2.480  10.047 -0.3082 -0.0413 -0.3853
    3CHL1   H1A  193   2.658   2.519   9.997 -0.6916  0.4268  0.6590
    3CHL1   H1B  194   2.754   2.372  10.022  0.1215  0.0704 -0.8178
    3CHL1    C2  195   2.754   2.502  10.193  0.7500 -0.3697  0.0403
    3CHL1   H2A  196   2.663   2.453  10.234  0.3596 -1.3844 -1.8920
    3CHL1   H2B  197   2.753   2.611  10.211  3.1392 -0.4625  1.0255
    3CHL1   C20  198   2.878   2.482   9.259  0.2129 -0.4773  0.3928
    3CHL1   H20  199   2.918   2.584   9.240  1.6139 -1.1050 -0.1392
    3CHL1   C21  200   2.719   2.492   9.267  0.0863 -0.2828  0.1617
    3CHL1  H21A  201   2.684   2.562   9.347 -0.1411  0.0075 -0.1917
    3CHL1  H21B  202   2.669   2.392   9.274 -0.2227 -0.1962 -0.7914
    3CHL1  H21C  203   2.688   2.526   9.166 -0.1046 -1.4997 -0.2056
    3CHL1   C22  204   2.939   2.400   9.141  0.0683  0.9056  0.3762
    3CHL1  H22A  205   3.050   2.389   9.141 -0.0685 -1.3073 -1.6076
    3CHL1  H22B  206   2.897   2.297   9.143  1.0211  0.5090  2.3236
    3CHL1   C23  207   2.907   2.461   9.003  0.0688  0.4303  0.5391
    3CHL1  H23A  208   2.800   2.485   8.989  0.0705 -0.4561 -1.1485
    3CHL1  H23B  209   2.951   2.563   8.995 -2.6784  1.5987 -1.1898
    3CHL1   C24  210   2.942   2.384   8.878  0.0899  0.6134 -0.2464
    3CHL1  H24A  211   3.042   2.338   8.885 -1.0140 -2.1299 -1.3187
    3CHL1  H24B  212   2.871   2.299   8.875  2.2561 -1.2658 -0.3182
    3CHL1   C25  213   2.925   2.458   8.745 -0.4516 -0.3183  0.2610
    3CHL1   H25  214   3.008   2.532   8.737 -0.7149 -0.1321 -0.9476
    3CHL1   C26  215   2.960   2.354   8.638  0.7684 -0.4292 -0.2241
    3CHL1  H26A  216   2.965   2.397   8.536 -0.0542  2.4244  0.8361
    3CHL1  H26B  217   3.062   2.312   8.653  1.2150 -0.1922 -2.2738
    3CHL1  H26C  218   2.885   2.272   8.627 -0.2918  0.4997 -0.0852
    3CHL1   C27  219   2.790   2.530   8.722 -0.0084  0.7182 -0.3152
    3CHL1  H27A  220   2.782   2.624   8.782  0.8611  0.0983  0.8146
    3CHL1  H27B  221   2.794   2.563   8.617  0.5597  2.7491  0.3040
    3CHL1  H27C  222   2.706   2.458   8.731  1.5464 -1.8456 -4.1986
    4CHL1    C3  223   2.166   0.610  10.516 -0.1691  0.2355  0.2192
    4CHL1    H3  224   2.058   0.601  10.537 -0.1220 -0.3666  0.2252
    4CHL1    O3  225   2.226   0.634  10.643 -0.6955 -0.0242  0.6539
    4CHL1   H3'  226   2.319   0.613  10.629 -1.0905 -0.4313 -1.9679
    4CHL1    C4  227   2.227   0.476  10.461 -0.1548  1.1921 -0.5928
    4CHL1   H4A  228   2.338   0.478  10.460 -0.1030 -0.4241 -1.8191
    4CHL1   H4B  229   2.192   0.397  10.531  0.7344  0.3723 -1.0433
    4CHL1    C5  230   2.170   0.453  10.326 -0.5540 -0.1710  0.2251
    4CHL1    C6  231   2.112   0.330  10.304 -0.0714  0.1170 -0.3715
    4CHL1    H6  232   2.102   0.254  10.383  1.2479  1.3097  1.0036
    4CHL1    C7  233   2.045   0.292  10.179 -0.8903 -0.0439  0.9837
    4CHL1   H7A  234   2.083   0.195  10.141  0.7121  1.0554 -0.3567
    4CHL1   H7B  235   1.935   0.287  10.195 -1.1906 -1.0444 -1.0784
    4CHL1    C8  236   2.066   0.394  10.061  0.6784 -0.0007  0.2457
    4CHL1    H8  237   2.172   0.374  10.033  1.3123  2.4842  0.6551
    4CHL1   C14  238   1.976   0.374   9.943  0.8660  0.1476 -0.3002
    4CHL1   H14  239   1.875   0.387   9.987  0.8868 -0.6977  0.0167
    4CHL1   C15  240   1.979   0.232   9.876 -0.9877  0.1966 -0.1981
    4CHL1  H15A  241   2.082   0.193   9.862 -1.1012 -0.1955  0.0289
    4CHL1  H15B  242   1.927   0.158   9.941 -0.8506 -1.3646 -1.7748
    4CHL1   C16  243   1.907   0.253   9.738  0.3589  0.0006  0.2769
    4CHL1  H16A  244   1.969   0.201   9.661 -0.8873  0.1922 -0.9017
    4CHL1  H16B  245   1.810   0.200   9.732  0.8098 -0.6958 -2.0356
    4CHL1   C17  246   1.898   0.405   9.716  0.0886 -0.0092 -0.1612
    4CHL1   H17  247   1.803   0.445   9.756  0.5265 -0.7209  1.7034
    4CHL1   C13  248   1.998   0.467   9.820  0.4527  0.0469 -0.3101
    4CHL1   C18  249   2.138   0.452   9.759 -0.1009 -0.1687 -0.4015
    4CHL1  H18A  250   2.147   0.530   9.680  0.5209  3.1708  2.7215
    4CHL1  H18B  251   2.229   0.449   9.822 -1.3607  0.6860  1.5430
    4CHL1  H18C  252   2.155   0.352   9.714  2.8457 -0.8832  1.9883
    4CHL1   C12  253   1.979   0.608   9.863  0.6525  0.5678  0.1102
    4CHL1  H12A  254   1.999   0.684   9.785 -0.2062 -1.3882 -2.1175
    4CHL1  H12B  255   1.876   0.638   9.894 -0.3648  1.1518 -3.4160
    4CHL1   C11  256   2.076   0.640   9.980  0.2270 -0.4757 -0.7812
    4CHL1  H11A  257   2.179   0.648   9.938 -0.0975 -0.8715 -1.6947
    4CHL1  H11B  258   2.064   0.742  10.022  1.5343 -0.7450  0.3189
    4CHL1    C9  259   2.070   0.540  10.106  0.0567 -0.2257  0.4699
    4CHL1    H9  260   1.972   0.555  10.157  0.7467 -0.7724  2.0430
    4CHL1   C10  261   2.176   0.567  10.221 -0.2495  0.2986  0.4017
    4CHL1   C19  262   2.317   0.585  10.159 -0.0510  0.7029 -0.2886
    4CHL1  H19A  263   2.350   0.490  10.111 -0.9902  0.4245 -0.3950
    4CHL1  H19B  264   2.324   0.672  10.090  2.1837  0.5585 -0.3116
    4CHL1  H19C  265   2.391   0.607  10.239 -0.6698  1.0850  0.1817
    4CHL1    C1  266   2.147   0.707  10.290 -0.4542  0.3296  0.1090
    4CHL1   H1A  267   2.176   0.789  10.220 -1.2242  1.2020  0.7852
    4CHL1   H1B  268   2.037   0.720  10.295 -0.9022 -2.6026 -0.3298
    4CHL1    C2  269   2.210   0.726  10.424  0.4078 -1.2587  0.4881
    4CHL1   H2A  270   2.179   0.824  10.468  1.9769 -0.4686 -0.0929
    4CHL1   H2B  271   2.320   0.720  10.410  0.7552  3.5099 -0.7562
    4CHL1   C20  272   1.901   0.443   9.561 -0.0001  0.0220  0.3475
    4CHL1   H20  273   2.004   0.419   9.527  0.6367  2.0389  0.7155
    4CHL1   C21  274   1.889   0.593   9.546  0.2914 -0.0816 -0.0001
    4CHL1  H21A  275   1.823   0.650   9.615  1.9976  2.5337 -0.4022
    4CHL1  H21B  276   1.861   0.629   9.444  0.0516 -1.2506 -0.3641
    4CHL1  H21C  277   1.990   0.632   9.570  1.1882 -3.1351  1.5671
    4CHL1   C22  278   1.796   0.363   9.477 -0.6724 -0.8350 -0.0840
    4CHL1  H22A  279   1.801   0.392   9.370  0.6786  2.9015  0.8315
    4CHL1  H22B  280   1.830   0.259   9.494 -0.9509 -0.8826  0.1834
    4CHL1   C23  281   1.655   0.389   9.533 -0.6138  0.2299  0.4656
    4CHL1  H23A  282   1.643   0.367   9.641 -2.9148 -2.2984 -0.1949
    4CHL1  H23B  283   1.627   0.496   9.523  3.4378  1.4344  0.2044
    4CHL1   C24  284   1.542   0.321   9.457  0.4083  0.0372  0.7877
    4CHL1  H24A  285   1.450   0.366   9.502  0.6798 -1.0158  2.4972
    4CHL1  H24B  286   1.544   0.326   9.346 -2.6706 -3.8822  0.3234
    4CHL1   C25  287   1.541   0.162   9.479  0.0391  0.9411 -0.3877
    4CHL1   H25  288   1.639   0.112   9.463 -0.6144 -0.3891 -0.3838
    4CHL1   C26  289   1.491   0.133   9.614 -0.4107 -0.0924 -0.1848
    4CHL1  H26A  290   1.575   0.152   9.684 -0.5350  0.4634 -0.1833
    4CHL1  H26B  291   1.397   0.186   9.639 -0.9320 -1.5888  1.2202
    4CHL1  H26C  292   1.467   0.026   9.632  3.0287 -1.5015 -2.7391
    4CHL1   C27  293   1.448   0.089   9.375  0.2209  0.1452 -0.1005
    4CHL1  H27A  294   1.351   0.139   9.356 -0.8477 -2.5296 -2.3313
    4CHL1  H27B  295   1.504   0.080   9.280  0.1445  1.4004 -0.2803
    4CHL1  H27C  296   1.433  -0.016   9.409 -2.8905 -0.5551 -3.0855
    5CHL1    C3  297   4.504   2.109  10.178 -0.2570 -0.7972  0.1384
    5CHL1    H3  298   4.602   2.161  10.179 -0.4921 -0.3300 -0.4439
    5CHL1    O3  299   4.480   2.075  10.313  0.2150  0.4750 -0.3716
    5CHL1   H3'  300   4.386   2.096  10.318 -0.5357 -2.4109 -0.0920
    5CHL1    C4  301   4.404   2.220  10.126  0.3299 -0.0753 -0.4736
    5CHL1   H4A  302   4.308   2.166  10.142  1.4612 -1.5317  2.0254
    5CHL1   H4B  303   4.401   2.300  10.203  0.3872 -1.4403  1.0156
    5CHL1    C5  304   4.446   2.263   9.983  0.7751 -0.1936  0.3897
    5CHL1    C6  305   4.476   2.395   9.949  0.8138  0.6991 -0.2110
    5CHL1    H6  306   4.460   2.477  10.021  1.4509  1.5531 -1.0177
    5CHL1    C7  307   4.502   2.434   9.807 -0.1229  0.9379  0.0035
    5CHL1   H7A  308   4.446   2.528   9.789 -0.4170  0.7457 -0.0839
    5CHL1   H7B  309   4.604   2.477   9.798 -0.6387  2.2439  0.1054
    5CHL1    C8  310   4.472   2.324   9.704  0.4382 -0.0425 -0.4627
    5CHL1    H8  311   4.363   2.327   9.682  0.8334  0.9386 -2.5874
    5CHL1   C14  312   4.539   2.365   9.573  0.3560  0.6712  0.5713
    5CHL1   H14  313   4.648   2.368   9.594  0.3646 -2.6407  1.5573
    5CHL1   C15  314   4.512   2.502   9.522 -0.3732 -0.0493  0.0554
    5CHL1  H15A  315   4.402   2.516   9.525 -0.2971  0.7315 -0.5228
    5CHL1  H15B  316   4.561   2.583   9.581  0.2997 -0.7794  0.5248
    5CHL1   C16  317   4.570   2.499   9.381 -0.2236 -0.5839 -0.6157
    5CHL1  H16A  318   4.498   2.535   9.304  1.0791  1.1493 -1.0628
    5CHL1  H16B  319   4.667   2.553   9.380 -1.0554  1.0746  1.3240
    5CHL1   C17  320   4.597   2.345   9.350 -1.0025 -0.2555  0.9022
    5CHL1   H17  321   4.707   2.338   9.364 -1.2454 -1.6278  2.4884
    5CHL1   C13  322   4.531   2.263   9.458  0.7303 -0.0602 -0.1252
    5CHL1   C18  323   4.379   2.241   9.422 -0.0152 -0.7546  0.4157
    5CHL1  H18A  324   4.334   2.339   9.395  1.0647  0.1244  1.6435
    5CHL1  H18B  325   4.368   2.189   9.325 -1.7206  1.6833 -0.8080
    5CHL1  H18C  326   4.322   2.193   9.504  0.2636 -1.2841  0.3020
    5CHL1   C12  327   4.594   2.129   9.496 -0.0521 -0.7011 -0.4178
    5CHL1  H12A  328   4.567   2.046   9.427 -2.2525 -1.3759  1.1400
    5CHL1  H12B  329   4.701   2.149   9.518 -0.0328 -1.3874  0.1652
    5CHL1   C11  330   4.535   2.082   9.635  0.4562 -0.1488  0.4973
    5CHL1  H11A  331   4.436   2.034   9.619  0.4522 -1.0975  2.8378
    5CHL1  H11B  332   4.602   2.000   9.670  2.0775  0.4804 -1.0001
    5CHL1    C9  333   4.529   2.191   9.753  0.1641  0.6163  0.0137
    5CHL1    H9  334   4.638   2.210   9.763  0.2644  0.5448 -0.8808
    5CHL1   C10  335   4.466   2.148   9.889 -0.2764 -0.2008  0.1740
    5CHL1   C19  336   4.329   2.098   9.852 -0.1928  0.7904  0.0353
    5CHL1  H19A  337   4.279   2.055   9.942  1.1227 -1.3810 -0.1973
    5CHL1  H19B  338   4.267   2.174   9.799  0.2239  0.8583 -0.3584
    5CHL1  H19C  339   4.335   2.000   9.800  0.8946 -0.1534  1.8239
    5CHL1    C1  340   4.551   2.033   9.947  0.1462 -0.7699 -0.0552
    5CHL1   H1A  341   4.565   1.943   9.884 -1.3921 -2.4550  1.8546
    5CHL1   H1B  342   4.650   2.082   9.958  0.9304 -1.9055 -1.7380
    5CHL1    C2  343   4.507   1.982  10.083  0.5968  0.4710  0.6869
    5CHL1   H2A  344   4.582   1.908  10.117  2.4418  2.4057  1.0780
    5CHL1   H2B  345   4.409   1.931  10.087 -0.8037  2.9822  0.5633
    5CHL1   C20  346   4.582   2.303   9.194  0.2663 -0.1174  0.2858
    5CHL1   H20  347   4.474   2.287   9.171  0.7420 -1.7214 -0.9646
    5CHL1   C21  348   4.646   2.167   9.171 -0.3204 -0.0169  0.8607
    5CHL1  H21A  349   4.656   2.137   9.064 -2.1768 -1.0019  0.9398
    5CHL1  H21B  350   4.587   2.089   9.223 -0.3294  0.6681  1.9162
    5CHL1  H21C  351   4.749   2.156   9.211 -0.4186  1.6362  1.6528
    5CHL1   C22  352   4.647   2.411   9.099  0.1546 -0.1606 -0.3031
    5CHL1  H22A  353   4.608   2.511   9.127  0.3405 -0.0212 -0.5316
    5CHL1  H22B  354   4.758   2.418   9.101  0.1342  2.2472  3.7421
    5CHL1   C23  355   4.616   2.391   8.947 -0.5805  0.3361 -0.2975
    5CHL1  H23A  356   4.688   2.314   8.910  0.9175  1.6861 -0.2937
    5CHL1  H23B  357   4.510   2.360   8.945 -0.8541  0.9645  1.7632
    5CHL1   C24  358   4.648   2.500   8.852 -0.2730  0.2387 -0.4287
    5CHL1  H24A  359   4.572   2.577   8.878 -2.1432 -1.3316 -0.9993
    5CHL1  H24B  360   4.753   2.528   8.877  0.9521 -1.9488 -2.6533
    5CHL1   C25  361   4.640   2.459   8.700  0.4700 -0.1436 -0.6062
    5CHL1   H25  362   4.683   2.357   8.689 -5.0409 -3.0072  0.3351
    5CHL1   C26  363   4.504   2.455   8.646 -0.3055  0.1262 -0.6469
    5CHL1  H26A  364   4.439   2.385   8.703  2.3254 -2.7486 -0.8764
    5CHL1  H26B  365   4.453   2.554   8.647 -0.3317  0.1115 -0.5582
    5CHL1  H26C  366   4.510   2.410   8.544  0.8941 -2.6354  0.5430
    5CHL1   C27  367   4.735   2.554   8.616  0.3899  0.5749 -0.4292
    5CHL1  H27A  368   4.831   2.558   8.672 -0.5063  2.3058  1.0863
    5CHL1  H27B  369   4.749   2.513   8.514 -1.9363 -0.6467 -0.3306
    5CHL1  H27C  370   4.688   2.655   8.623 -3.1244 -0.9954  1.3615
    6CHL1    C3  371   1.023   0.919  10.236 -0.6144 -0.2170 -0.0533
    6CHL1    H3  372   0.984   1.022  10.245  2.1308  0.8226  0.7534
    6CHL1    O3  373   1.088   0.877  10.350  0.1946  0.2060 -0.0252
    6CHL1   H3'  374   1.083   0.781  10.346  0.4321  0.2168 -2.5506
    6CHL1    C4  375   0.902   0.825  10.212 -0.3471  0.0565  0.6302
    6CHL1   H4A  376   0.935   0.721  10.229  1.4446 -0.3892 -4.0625
    6CHL1   H4B  377   0.833   0.852  10.294 -0.0926 -0.1069  0.8988
    6CHL1    C5  378   0.840   0.841  10.076  0.7141 -0.6681 -0.2256
    6CHL1    C6  379   0.711   0.865  10.062 -0.2287  0.1824  0.3140
    6CHL1    H6  380   0.644   0.873  10.149 -2.6244 -1.1364 -1.2993
    6CHL1    C7  381   0.641   0.876   9.931 -0.8213 -0.0138 -0.6061
    6CHL1   H7A  382   0.560   0.800   9.936 -0.8186  0.0181 -0.0537
    6CHL1   H7B  383   0.603   0.978   9.910  2.7879  1.7776  0.6127
    6CHL1    C8  384   0.726   0.827   9.812 -0.1274 -0.2523  0.7936
    6CHL1    H8  385   0.728   0.716   9.812  0.9414 -0.2861 -1.3368
    6CHL1   C14  386   0.668   0.876   9.680  1.1510  0.6403  0.4281
    6CHL1   H14  387   0.665   0.987   9.676 -0.0393  0.6152 -2.6947
    6CHL1   C15  388   0.521   0.838   9.656  0.0925  0.3224 -0.6090
    6CHL1  H15A  389   0.493   0.733   9.681  0.5549  0.0406 -1.2502
    6CHL1  H15B  390   0.453   0.903   9.715 -2.0597 -1.2367 -1.2174
    6CHL1   C16  391   0.498   0.855   9.507 -0.0587 -0.0517 -0.1961
    6CHL1  H16A  392   0.463   0.759   9.464 -0.8995  0.2190 -0.1251
    6CHL1  H16B  393   0.422   0.931   9.480  1.6310  2.5637  1.9067
    6CHL1   C17  394   0.638   0.899   9.446  0.6775 -0.6534  0.5220
    6CHL1   H17  395   0.649   1.009   9.456  1.7983 -0.5471 -1.4659
    6CHL1   C13  396   0.736   0.844   9.550 -0.4791 -0.6119  0.3153
    6CHL1   C18  397   0.744   0.692   9.536  0.4068  0.6074  0.0344
    6CHL1  H18A  398   0.649   0.645   9.504  0.7924  0.9250 -1.6633
    6CHL1  H18B  399   0.827   0.676   9.463 -0.7122  2.0208 -1.6006
    6CHL1  H18C  400   0.779   0.643   9.630  1.2931  0.3591 -0.4147
    6CHL1   C12  401   0.871   0.919   9.563  0.3010  0.1223  0.4225
    6CHL1  H12A  402   0.936   0.903   9.475 -1.1203  1.8101 -1.0206
    6CHL1  H12B  403   0.848   1.028   9.560  0.4802  0.1612  0.4965
    6CHL1   C11  404   0.951   0.869   9.689  0.3467  0.4438  0.0965
    6CHL1  H11A  405   0.980   0.763   9.672  1.2143  0.9797 -2.1271
    6CHL1  H11B  406   1.046   0.926   9.692 -0.8449  2.6041 -0.7241
    6CHL1    C9  407   0.870   0.889   9.817  0.5625  0.2188 -0.4403
    6CHL1    H9  408   0.857   0.999   9.817 -1.2658  0.0536 -1.9360
    6CHL1   C10  409   0.941   0.838   9.954 -0.1053 -0.2471  0.3042
    6CHL1   C19  410   1.002   0.696   9.937  0.1156 -0.6317  0.2142
    6CHL1  H19A  411   1.060   0.659  10.024  0.7802 -0.1903 -0.0341
    6CHL1  H19B  412   0.924   0.622   9.912 -0.7989  0.0037  1.1041
    6CHL1  H19C  413   1.077   0.684   9.856 -0.5116 -2.8011 -0.0944
    6CHL1    C1  414   1.060   0.936   9.989  0.1278  0.8459  0.2453
    6CHL1   H1A  415   1.134   0.930   9.907  0.8295 -1.6246  0.9913
    6CHL1   H1B  416   1.008   1.034   9.992  0.5440  1.0809 -0.1815
    6CHL1    C2  417   1.128   0.906  10.126 -0.7314 -0.4661  0.2480
    6CHL1   H2A  418   1.200   0.986  10.153 -1.6988  0.0134  1.4892
    6CHL1   H2B  419   1.174   0.805  10.133  2.6217  0.8503 -0.8094
    6CHL1   C20  420   0.664   0.859   9.302  0.0691 -0.3146  0.4168
    6CHL1   H20  421   0.645   0.751   9.291  0.4674 -0.2960 -0.5772
    6CHL1   C21  422   0.803   0.885   9.240 -0.5035  0.1777  0.1786
    6CHL1  H21A  423   0.834   0.988   9.267  0.5407  0.1748 -0.9717
    6CHL1  H21B  424   0.804   0.888   9.129  1.8626 -0.1536  0.1509
    6CHL1  H21C  425   0.874   0.805   9.269 -0.3837  0.6561  1.2766
    6CHL1   C22  426   0.564   0.931   9.209  0.6853 -0.5516  0.2110
    6CHL1  H22A  427   0.465   0.930   9.260  0.1458  1.1856 -0.7055
    6CHL1  H22B  428   0.607   1.032   9.196 -1.5707  0.5028  0.4821
    6CHL1   C23  429   0.542   0.866   9.070 -0.0428 -0.0604  0.1233
    6CHL1  H23A  430   0.625   0.872   8.997  0.0803 -2.8975 -0.0903
    6CHL1  H23B  431   0.525   0.757   9.085 -1.9580  0.2434  0.4282
    6CHL1   C24  432   0.422   0.916   8.995  0.1942  0.6533 -0.2962
    6CHL1  H24A  433   0.330   0.889   9.051  0.8513 -1.3127 -0.0712
    6CHL1  H24B  434   0.434   1.024   8.972 -2.4274  1.3152  0.9994
    6CHL1   C25  435   0.397   0.837   8.861 -0.1304  0.4472  0.1421
    6CHL1   H25  436   0.474   0.873   8.789 -1.3042  0.8201 -0.9568
    6CHL1   C26  437   0.410   0.681   8.862  0.4905 -0.2313 -0.1899
    6CHL1  H26A  438   0.360   0.648   8.955  4.7887  0.1076  2.4767
    6CHL1  H26B  439   0.369   0.630   8.772  1.8496 -2.1835  0.2452
    6CHL1  H26C  440   0.512   0.638   8.859  0.3985 -0.4451 -0.2586
    6CHL1   C27  441   0.255   0.876   8.812 -0.1736  0.1361 -0.1325
    6CHL1  H27A  442   0.227   0.840   8.711  0.9606 -0.1161 -0.3775
    6CHL1  H27B  443   0.184   0.841   8.891 -0.6133 -2.7902 -1.6935
    6CHL1  H27C  444   0.240   0.986   8.804 -1.1856 -0.0092 -0.3230
    7CHL1    C3  445   3.911   4.112  10.416  0.0913 -0.5407  0.1311
    7CHL1    H3  446   4.022   4.104  10.410  0.1162  0.2924 -0.9570
    7CHL1    O3  447   3.895   4.071  10.555 -0.0956  0.4463 -0.2058
    7CHL1   H3'  448   3.926   3.980  10.555  0.0438  0.4132 -2.8664
    7CHL1    C4  449   3.848   4.252  10.396  0.4212  0.0193 -0.9446
    7CHL1   H4A  450   3.746   4.237  10.436  1.1620 -2.3395  0.2370
    7CHL1   H4B  451   3.897   4.323  10.466 -0.6968 -0.5605  0.4810
    7CHL1    C5  452   3.857   4.305  10.256  0.9640 -0.5552 -0.0209
    7CHL1    C6  453   3.919   4.413  10.220 -0.6028  0.0635 -0.1969
    7CHL1    H6  454   3.964   4.485  10.290 -1.1522 -0.1218  0.3617
    7CHL1    C7  455   3.931   4.464  10.081 -0.6792  0.2349 -0.2445
    7CHL1   H7A  456   3.902   4.571  10.083  0.4433  0.5553  1.5714
    7CHL1   H7B  457   4.037   4.453  10.050  0.4116  2.3131  2.3758
    7CHL1    C8  458   3.822   4.399   9.994 -0.4697  0.4126  0.0298
    7CHL1    H8  459   3.721   4.436  10.022  0.5636  2.0688  1.7887
    7CHL1   C14  460   3.849   4.425   9.845 -0.6983 -0.4277 -0.0521
    7CHL1   H14  461   3.939   4.364   9.825 -0.1305  0.9651 -2.1399
    7CHL1   C15  462   3.881   4.572   9.809  0.0382  0.1588  0.1467
    7CHL1  H15A  463   3.805   4.640   9.853  0.3450  2.6088 -2.8334
    7CHL1  H15B  464   3.984   4.599   9.843  1.0030 -0.9151 -1.7275
    7CHL1   C16  465   3.873   4.576   9.654  0.5308 -0.4236  0.1477
    7CHL1  H16A  466   3.796   4.653   9.629  0.9963  0.9438  2.5642
    7CHL1  H16B  467   3.970   4.588   9.602 -0.3937 -0.5740 -1.6941
    7CHL1   C17  468   3.815   4.434   9.620 -0.3703 -0.0740  0.3427
    7CHL1   H17  469   3.904   4.373   9.597  1.8081  2.8249  0.4879
    7CHL1   C13  470   3.749   4.375   9.740 -0.4665 -0.3251 -0.2272
    7CHL1   C18  471   3.611   4.439   9.757  0.0351  0.2109 -0.1771
    7CHL1  H18A  472   3.567   4.396   9.849 -1.4400  0.1901 -0.8536
    7CHL1  H18B  473   3.617   4.549   9.769 -1.3711  0.4694 -1.5090
    7CHL1  H18C  474   3.533   4.412   9.682  1.1198  0.7168 -1.5492
    7CHL1   C12  475   3.747   4.219   9.762 -0.6127 -0.0042  0.0301
    7CHL1  H12A  476   3.674   4.159   9.703  0.2438 -1.2596  0.2042
    7CHL1  H12B  477   3.850   4.188   9.735 -0.3226  0.2763  0.7981
    7CHL1   C11  478   3.720   4.183   9.911 -0.1788 -0.5963  0.4413
    7CHL1  H11A  479   3.615   4.219   9.916  0.2018  0.5798  0.2767
    7CHL1  H11B  480   3.719   4.072   9.918 -3.5522 -0.5952  2.0803
    7CHL1    C9  481   3.809   4.246  10.010  0.1776  0.5179  0.0204
    7CHL1    H9  482   3.912   4.209   9.994 -0.6524 -1.6029 -0.8495
    7CHL1   C10  483   3.794   4.209  10.160  0.8723 -0.0211  1.1978
    7CHL1   C19  484   3.633   4.210  10.181 -0.2502 -0.7628 -0.5136
    7CHL1  H19A  485   3.574   4.142  10.116  0.3266 -0.8511 -0.9544
    7CHL1  H19B  486   3.611   4.188  10.287 -1.6626 -0.8048 -0.8032
    7CHL1  H19C  487   3.597   4.313  10.160  0.5174 -0.1708  0.9836
    7CHL1    C1  488   3.842   4.062  10.180 -0.0444  0.5439 -1.1554
    7CHL1   H1A  489   3.773   3.989  10.132  0.1437  0.3596 -1.1501
    7CHL1   H1B  490   3.943   4.047  10.136 -0.2939 -0.2437 -1.4890
    7CHL1    C2  491   3.842   4.011  10.332  0.6314 -0.0360  0.7041
    7CHL1   H2A  492   3.889   3.911  10.346 -1.2927 -0.9156  1.1254
    7CHL1   H2B  493   3.739   4.010  10.372 -0.1028 -1.7194 -1.0468
    7CHL1   C20  494   3.732   4.439   9.486  0.2577  0.6208  0.4995
    7CHL1   H20  495   3.632   4.481   9.510  0.3158  1.6816 -1.0054
    7CHL1   C21  496   3.719   4.278   9.460  0.5286 -0.5858  0.7391
    7CHL1  H21A  497   3.800   4.216   9.503  2.8073  1.5190 -0.2316
    7CHL1  H21B  498   3.728   4.271   9.350 -0.1693  0.0003  0.6317
    7CHL1  H21C  499   3.618   4.237   9.481 -0.6437  0.7108 -1.8490
    7CHL1   C22  500   3.795   4.519   9.369  0.6172 -0.7012 -0.6153
    7CHL1  H22A  501   3.804   4.625   9.399  1.0954 -1.2102  1.1762
    7CHL1  H22B  502   3.895   4.477   9.344  1.4438  0.6677  0.2517
    7CHL1   C23  503   3.703   4.516   9.246 -0.5558 -0.4325 -0.4191
    7CHL1  H23A  504   3.684   4.412   9.211 -0.4450 -0.8570  0.7223
    7CHL1  H23B  505   3.605   4.562   9.272 -0.1201 -0.5712  1.6437
    7CHL1   C24  506   3.766   4.597   9.123  0.0761  0.8996 -0.6060
    7CHL1  H24A  507   3.762   4.700   9.166  0.9387  0.2773  1.0693
    7CHL1  H24B  508   3.871   4.568   9.099 -0.3294  0.3733 -1.8104
    7CHL1   C25  509   3.696   4.592   8.985  0.6439 -0.6759 -0.7977
    7CHL1   H25  510   3.587   4.590   9.006  0.5293  0.5957 -1.2230
    7CHL1   C26  511   3.733   4.717   8.895  0.0239 -0.1249  0.4344
    7CHL1  H26A  512   3.843   4.721   8.883 -0.1779  0.4405 -1.4532
    7CHL1  H26B  513   3.679   4.703   8.799  1.6074  1.2412 -0.7217
    7CHL1  H26C  514   3.699   4.810   8.947 -1.1403 -1.0105  1.3124
    7CHL1   C27  515   3.726   4.457   8.923  0.0096  0.0763 -0.2158
    7CHL1  H27A  516   3.674   4.439   8.827 -0.1060 -0.5753 -0.0353
    7CHL1  H27B  517   3.833   4.444   8.896  0.4313  0.3569  1.2548
    7CHL1  H27C  518   3.695   4.382   8.998 -0.5865 -0.6547 -1.1685
    8CHL1    C3  519   4.106   5.448  10.388  0.5594 -0.5640  0.2471
    8CHL1    H3  520   4.007   5.449  10.438  0.2589  1.2463 -0.3339
    8CHL1    O3  521   4.197   5.406  10.492  0.5807 -0.0763  0.5783
    8CHL1   H3'  522   4.194   5.484  10.548  0.9773 -1.1173  2.1378
    8CHL1    C4  523   4.114   5.341  10.282  0.5848 -0.2483 -0.6494
    8CHL1   H4A  524   4.224   5.331  10.269  0.7020  1.8784 -1.6235
    8CHL1   H4B  525   4.076   5.242  10.317  0.5426 -0.1718 -0.4782
    8CHL1    C5  526   4.049   5.382  10.148 -0.4961 -0.2439 -0.1868
    8CHL1    C6  527   3.954   5.310  10.094 -0.3550  0.3827  0.5989
    8CHL1    H6  528   3.936   5.211  10.138 -0.0936 -0.6919 -1.6004
    8CHL1    C7  529   3.895   5.337   9.959  0.1873  0.5567  0.0657
    8CHL1   H7A  530   3.886   5.251   9.890  1.0897  0.2976  0.2600
    8CHL1   H7B  531   3.792   5.377   9.974 -0.0717  0.0400 -0.2885
    8CHL1    C8  532   3.970   5.447   9.883 -0.5930  0.8221 -0.0866
    8CHL1    H8  533   4.058   5.403   9.833 -1.4466  0.0833 -0.9790
    8CHL1   C14  534   3.886   5.501   9.777 -0.0765 -0.9179  0.3701
    8CHL1   H14  535   3.809   5.550   9.841  0.4070 -1.1381  1.1352
    8CHL1   C15  536   3.813   5.401   9.692 -0.1491  0.2899 -0.6081
    8CHL1  H15A  537   3.884   5.329   9.646 -0.4264 -0.4552  0.1079
    8CHL1  H15B  538   3.732   5.348   9.745  1.8652 -1.3243  1.0219
    8CHL1   C16  539   3.756   5.493   9.581  0.1932 -0.0759  0.5747
    8CHL1  H16A  540   3.778   5.443   9.485  2.2160 -0.6266  1.2699
    8CHL1  H16B  541   3.646   5.506   9.591  0.0495 -0.0605 -0.8950
    8CHL1   C17  542   3.826   5.634   9.592  0.3971  0.4626 -0.6457
    8CHL1   H17  543   3.759   5.694   9.658  1.2943  1.0313 -0.2312
    8CHL1   C13  544   3.945   5.604   9.687  0.1530 -0.8916 -0.8178
    8CHL1   C18  545   4.059   5.552   9.606 -0.0142  0.6715 -0.3180
    8CHL1  H18A  546   4.125   5.632   9.565  0.1872  0.5721 -0.1903
    8CHL1  H18B  547   4.131   5.490   9.663  0.2406  1.1985 -0.0524
    8CHL1  H18C  548   4.021   5.494   9.520  1.6197 -0.8061 -0.0768
    8CHL1   C12  549   3.978   5.717   9.782 -0.2277  0.2673 -0.4451
    8CHL1  H12A  550   4.033   5.797   9.728  0.5375 -0.2907 -0.4955
    8CHL1  H12B  551   3.879   5.760   9.809 -0.3577 -0.2883 -0.0274
    8CHL1   C11  552   4.069   5.676   9.900  0.9182  0.0517 -0.1860
    8CHL1  H11A  553   4.167   5.639   9.863  1.2238 -0.3641  1.0062
    8CHL1  H11B  554   4.080   5.774   9.951  1.8038 -0.7629  1.2233
    8CHL1    C9  555   4.014   5.555   9.979  0.1554  0.1204  0.1219
    8CHL1    H9  556   3.915   5.581  10.023 -0.8854 -0.6022 -1.6649
    8CHL1   C10  557   4.098   5.509  10.101 -0.0097  0.0038 -0.1423
    8CHL1   C19  558   4.246   5.482  10.051 -0.3926  0.1887 -0.3585
    8CHL1  H19A  559   4.316   5.415  10.106  1.5461 -0.5423 -3.4710
    8CHL1  H19B  560   4.232   5.426   9.956 -1.3276 -0.9203  0.4011
    8CHL1  H19C  561   4.305   5.573  10.029 -0.0755 -0.3660 -1.9346
    8CHL1    C1  562   4.088   5.622  10.212  0.4494 -0.9569 -0.7930
    8CHL1   H1A  563   4.116   5.723  10.176 -1.4815 -0.4806 -1.1012
    8CHL1   H1B  564   3.978   5.631  10.223  0.3572 -3.3735  1.4219
    8CHL1    C2  565   4.150   5.583  10.348  0.4980 -0.1544  0.2671
    8CHL1   H2A  566   4.116   5.658  10.423  0.9843 -1.0687  1.4472
    8CHL1   H2B  567   4.260   5.594  10.334  0.2459  2.3650 -0.1907
    8CHL1   C20  568   3.844   5.703   9.457  0.0355 -0.1884  0.7786
    8CHL1   H20  569   3.913   5.641   9.396 -1.3506  0.2166 -1.2708
    8CHL1   C21  570   3.902   5.847   9.486 -0.0302 -0.0932  0.6215
    8CHL1  H21A  571   4.009   5.849   9.517  0.0733  0.7459  0.2122
    8CHL1  H21B  572   3.848   5.910   9.560 -2.7310  0.1714 -1.4511
    8CHL1  H21C  573   3.887   5.902   9.391  0.3050 -0.4150  0.3750
    8CHL1   C22  574   3.718   5.710   9.369 -0.1759  0.1688  0.0243
    8CHL1  H22A  575   3.746   5.770   9.279 -1.4376 -1.2634 -1.4011
    8CHL1  H22B  576   3.713   5.605   9.331  0.8959  0.1882 -0.2061
    8CHL1   C23  577   3.593   5.773   9.422 -0.2008  0.2648 -0.4274
    8CHL1  H23A  578   3.552   5.723   9.513  0.5844 -1.7600 -1.1405
    8CHL1  H23B  579   3.626   5.872   9.461 -0.0281 -0.4445  1.3320
    8CHL1   C24  580   3.489   5.794   9.316  0.0694 -0.2744  0.6333
    8CHL1  H24A  581   3.531   5.860   9.237 -1.2787 -2.5434 -2.1687
    8CHL1  H24B  582   3.474   5.695   9.268  4.1498 -0.7749  0.0001
    8CHL1   C25  583   3.354   5.860   9.350 -0.5928 -0.3705 -0.0238
    8CHL1   H25  584   3.369   5.961   9.393 -1.7691 -0.0881 -0.2280
    8CHL1   C26  585   3.258   5.869   9.233  0.1898 -0.1375 -0.2875
    8CHL1  H26A  586   3.171   5.931   9.262  0.6909  0.5130 -0.1366
    8CHL1  H26B  587   3.301   5.906   9.137  1.3463 -1.5979 -0.3750
    8CHL1  H26C  588   3.219   5.765   9.224 -2.9638  0.9111  0.0847
    8CHL1   C27  589   3.280   5.784   9.455  0.0276 -0.6151  0.2277
    8CHL1  H27A  590   3.327   5.796   9.555  0.5226  1.6586 -0.2150
    8CHL1  H27B  591   3.176   5.820   9.471  0.8489  3.1769 -1.6141
    8CHL1  H27C  592   3.266   5.680   9.418 -0.7267  0.0812 -1.5883
    9CHL1    C3  593   3.414   2.667  10.249 -0.7985 -0.4557 -0.1089
    9CHL1    H3  594   3.383   2.567  10.211  0.1204 -0.2696 -1.4285
    9CHL1    O3  595   3.428   2.661  10.393  0.2777  0.1875  0.3262
    9CHL1   H3'  596   3.429   2.750  10.429  2.2246 -0.1276  1.1787
    9CHL1    C4  597   3.548   2.699  10.180  0.3388 -0.1233 -0.4892
    9CHL1   H4A  598   3.586   2.794  10.223 -1.5793  0.6081 -0.3357
    9CHL1   H4B  599   3.624   2.625  10.212 -0.9693 -1.9168 -1.3832
    9CHL1    C5  600   3.531   2.700  10.032 -0.1998  0.2209  0.0474
    9CHL1    C6  601   3.597   2.630   9.938 -1.3520  0.5376  0.6717
    9CHL1    H6  602   3.674   2.561   9.977 -1.7514 -0.7138 -0.6766
    9CHL1    C7  603   3.582   2.649   9.789  0.6825  0.4881 -0.1307
    9CHL1   H7A  604   3.685   2.644   9.747  0.5625  0.4475 -0.4285
    9CHL1   H7B  605   3.531   2.564   9.738 -3.0718  2.3484  0.1644
    9CHL1    C8  606   3.502   2.779   9.747  0.2715 -0.2026 -0.2947
    9CHL1    H8  607   3.566   2.869   9.765 -0.3691  0.0105  1.0413
    9CHL1   C14  608   3.454   2.765   9.599 -0.7475  0.3428 -0.3881
    9CHL1   H14  609   3.404   2.666   9.591 -0.6488  0.2692 -0.0957
    9CHL1   C15  610   3.561   2.750   9.485 -0.2384 -0.3185  0.0189
    9CHL1  H15A  611   3.640   2.828   9.485  0.1481 -0.6952  0.7431
    9CHL1  H15B  612   3.603   2.648   9.471  0.0437  0.0933 -2.8161
    9CHL1   C16  613   3.485   2.782   9.357  0.0447  0.4250  0.2625
    9CHL1  H16A  614   3.542   2.858   9.299 -0.9751  2.2259  1.5283
    9CHL1  H16B  615   3.482   2.683   9.308  1.1621  0.6656 -0.3334
    9CHL1   C17  616   3.345   2.837   9.400  0.0806  0.1151 -0.8149
    9CHL1   H17  617   3.264   2.762   9.405 -0.4082  0.7197  1.7301
    9CHL1   C13  618   3.363   2.877   9.552  0.5038  0.1302  0.4984
    9CHL1   C18  619   3.422   3.018   9.558 -0.4497 -0.3139  0.2907
    9CHL1  H18A  620   3.345   3.097   9.546  0.0060 -0.1420 -1.9512
    9CHL1  H18B  621   3.472   3.041   9.655 -0.6746  0.2772  0.2707
    9CHL1  H18C  622   3.490   3.026   9.471  0.4175 -0.4728  0.9361
    9CHL1   C12  623   3.236   2.873   9.643 -0.6572  0.4389  0.4546
    9CHL1  H12A  624   3.158   2.952   9.629 -0.7053  0.1005 -1.4475
    9CHL1  H12B  625   3.184   2.775   9.650  0.2246 -0.0747 -0.0586
    9CHL1   C11  626   3.283   2.890   9.783 -0.0392  0.5258  0.0030
    9CHL1  H11A  627   3.323   2.992   9.800  0.6039  0.2959 -0.1307
    9CHL1  H11B  628   3.190   2.880   9.843  1.4255 -1.6193  2.0541
    9CHL1    C9  629   3.381   2.790   9.835 -0.5548 -0.8507 -0.3325
    9CHL1    H9  630   3.337   2.689   9.819 -1.8450  0.0060 -2.7198
    9CHL1   C10  631   3.420   2.800   9.986 -0.6121 -0.4300 -0.1118
    9CHL1   C19  632   3.471   2.942  10.013 -0.1774 -0.2336 -0.5848
    9CHL1  H19A  633   3.486   2.955  10.122  0.0178 -3.1420 -0.1889
    9CHL1  H19B  634   3.553   2.981   9.950  1.2862 -1.7326  0.3171
    9CHL1  H19C  635   3.378   3.002   9.998 -0.0182  0.1383 -0.1419
    9CHL1    C1  636   3.286   2.781  10.068 -0.2615  0.6209  0.0774
    9CHL1   H1A  637   3.231   2.877  10.059  1.5052  1.6428 -0.3031
    9CHL1   H1B  638   3.227   2.690  10.042  0.7915 -0.7461  2.2209
    9CHL1    C2  639   3.306   2.768  10.220  0.5192  0.4819 -0.5782
    9CHL1   H2A  640   3.212   2.729  10.264  1.6950 -1.0137  0.6974
    9CHL1   H2B  641   3.347   2.860  10.267 -0.1698  0.0561  0.9240
    9CHL1   C20  642   3.288   2.947   9.307  0.5629 -0.0794 -0.7932
    9CHL1   H20  643   3.355   3.036   9.304 -2.2354  2.1410 -1.8291
    9CHL1   C21  644   3.145   2.982   9.351  0.4879 -0.3538 -0.8686
    9CHL1  H21A  645   3.088   3.042   9.277 -0.4413 -0.5469 -0.3315
    9CHL1  H21B  646   3.153   3.039   9.447  0.5313 -1.7147 -0.0362
    9CHL1  H21C  647   3.086   2.891   9.375  1.7322 -1.0904 -0.4628
    9CHL1   C22  648   3.296   2.903   9.160  0.3238  0.7623 -1.0657
    9CHL1  H22A  649   3.402   2.887   9.131  0.0135 -0.0159 -1.8162
    9CHL1  H22B  650   3.237   2.809   9.147  0.1943  0.8043 -0.7739
    9CHL1   C23  651   3.254   3.012   9.064 -0.2091  0.6173 -0.4777
    9CHL1  H23A  652   3.154   3.058   9.076 -1.0115 -1.2941  0.6522
    9CHL1  H23B  653   3.329   3.092   9.084  1.6291 -0.7783 -1.4281
    9CHL1   C24  654   3.250   2.959   8.922  0.1137 -0.4148 -0.1862
    9CHL1  H24A  655   3.335   2.889   8.907 -0.1047 -1.5898  3.2652
    9CHL1  H24B  656   3.157   2.899   8.925 -0.2110  0.1204  1.6994
    9CHL1   C25  657   3.210   3.066   8.818  0.2918 -0.1624 -0.5173
    9CHL1   H25  658   3.141   3.135   8.870  1.9091  1.0042  0.1522
    9CHL1   C26  659   3.340   3.139   8.770  1.1239 -0.4849  0.6168
    9CHL1  H26A  660   3.326   3.203   8.680 -1.7787 -3.0980 -0.9843
    9CHL1  H26B  661   3.370   3.186   8.866 -0.8112 -0.6711  1.3462
    9CHL1  H26C  662   3.400   3.049   8.744 -1.7566 -2.3948  0.1310
    9CHL1   C27  663   3.125   3.008   8.699  0.4813 -0.1996  0.0908
    9CHL1  H27A  664   3.043   2.945   8.742 -0.6354  0.5769 -0.8530
    9CHL1  H27B  665   3.093   3.089   8.631  0.6268  1.5552  2.0114
    9CHL1  H27C  666   3.178   2.929   8.642  1.1895  0.1180  0.2935
   10CHL1    C3  667   6.417   5.395  10.189 -0.2761  0.4745 -0.5071
   10CHL1    H3  668   6.317   5.370  10.148  0.6070 -1.3073 -1.7178
   10CHL1    O3  669   6.433   5.315  10.305 -0.4083 -0.3654  0.1136
   10CHL1   H3'  670   6.372   5.353  10.368 -1.0684  0.0329 -0.7511
   10CHL1    C4  671   6.536   5.365  10.100  0.2139  0.2516  0.4268
   10CHL1   H4A  672   6.626   5.394  10.158 -0.9723 -1.7870  3.6001
   10CHL1   H4B  673   6.547   5.256  10.080 -1.8875  0.2131 -0.7861
   10CHL1    C5  674   6.512   5.450   9.974 -0.2281 -0.5835  0.8088
   10CHL1    C6  675   6.488   5.384   9.855 -0.1771 -0.4847 -0.1807
   10CHL1    H6  676   6.501   5.276   9.847  0.6154 -0.4794  0.9197
   10CHL1    C7  677   6.461   5.457   9.727 -0.7109  0.4424 -0.1277
   10CHL1   H7A  678   6.500   5.403   9.639  1.0809  1.1782  0.1726
   10CHL1   H7B  679   6.351   5.462   9.715 -0.5798 -0.1106 -1.8270
   10CHL1    C8  680   6.529   5.597   9.737 -0.5938  0.0816 -0.0479
   10CHL1    H8  681   6.639   5.580   9.744 -0.6283 -0.8504 -1.4345
   10CHL1   C14  682   6.509   5.675   9.613 -0.2781 -0.1766  0.0024
   10CHL1   H14  683   6.399   5.683   9.595 -0.1674 -0.8852 -1.0543
   10CHL1   C15  684   6.558   5.605   9.493 -1.1762 -0.7777  0.0689
   10CHL1  H15A  685   6.660   5.561   9.500  0.0112  1.7723 -0.0974
   10CHL1  H15B  686   6.487   5.528   9.456 -1.1538 -1.0266  0.5427
   10CHL1   C16  687   6.573   5.722   9.381  0.3007  0.3909  0.1248
   10CHL1  H16A  688   6.679   5.737   9.352 -0.3331  3.7263 -0.8817
   10CHL1  H16B  689   6.508   5.689   9.296  0.0108  0.3475  0.3617
   10CHL1   C17  690   6.522   5.850   9.456 -0.3199 -0.0862  0.1128
   10CHL1   H17  691   6.412   5.837   9.458 -0.3517  0.1832  0.1084
   10CHL1   C13  692   6.558   5.824   9.603 -1.5188  0.1794  0.1838
   10CHL1   C18  693   6.710   5.831   9.625  0.0291  0.5885  0.6257
   10CHL1  H18A  694   6.738   5.782   9.720  2.8780  3.6267  1.5382
   10CHL1  H18B  695   6.770   5.797   9.537  2.1467 -2.3022  2.9692
   10CHL1  H18C  696   6.739   5.934   9.654 -0.0286  0.7715  0.0586
   10CHL1   C12  697   6.468   5.895   9.717  0.4975  0.3049  0.2087
   10CHL1  H12A  698   6.499   6.002   9.718 -2.8658  1.4268 -1.4296
   10CHL1  H12B  699   6.365   5.894   9.676  0.8472  0.0759 -0.7132
   10CHL1   C11  700   6.494   5.829   9.857  0.2808  0.5005 -0.3976
   10CHL1  H11A  701   6.597   5.851   9.891  0.7167 -3.0642  1.0105
   10CHL1  H11B  702   6.429   5.868   9.938  0.0640  0.2229 -0.4332
   10CHL1    C9  703   6.478   5.673   9.860 -0.2789  0.4400 -0.6713
   10CHL1    H9  704   6.368   5.656   9.856 -0.2553 -0.7530  1.7410
   10CHL1   C10  705   6.511   5.601   9.992 -1.1079 -0.1818  0.6504
   10CHL1   C19  706   6.657   5.645  10.038 -0.1620 -0.4933 -0.3973
   10CHL1  H19A  707   6.657   5.754  10.060 -1.0642 -0.7520  1.0392
   10CHL1  H19B  708   6.687   5.589  10.130 -1.1528  1.1188  0.9677
   10CHL1  H19C  709   6.743   5.637   9.968  3.4949  3.0158  3.1363
   10CHL1    C1  710   6.416   5.634  10.103 -0.3555 -0.2329 -0.0110
   10CHL1   H1A  711   6.444   5.736  10.137  2.9192 -0.2902 -2.1564
   10CHL1   H1B  712   6.311   5.643  10.067  0.2092  1.8965 -1.2930
   10CHL1    C2  713   6.423   5.544  10.231 -0.2145 -0.7608 -0.1144
   10CHL1   H2A  714   6.336   5.563  10.297  0.0124 -0.6060  0.1397
   10CHL1   H2B  715   6.522   5.567  10.277  0.3619 -0.6869 -1.3418
   10CHL1   C20  716   6.573   5.975   9.386  0.8465  1.0981  0.3574
   10CHL1   H20  717   6.683   5.970   9.382  0.8822  0.5132  1.6818
   10CHL1   C21  718   6.533   6.099   9.478  0.2999  0.2217 -0.0727
   10CHL1  H21A  719   6.570   6.180   9.411 -0.2187 -0.1417 -0.8115
   10CHL1  H21B  720   6.605   6.090   9.562  0.9370 -2.1597 -0.8065
   10CHL1  H21C  721   6.423   6.096   9.496  0.4291 -1.3706  0.6017
   10CHL1   C22  722   6.532   5.991   9.239  0.2399 -0.2697 -0.1878
   10CHL1  H22A  723   6.560   6.092   9.201  1.2654 -0.3167  0.4110
   10CHL1  H22B  724   6.588   5.913   9.183  3.2456 -0.9640  3.3961
   10CHL1   C23  725   6.374   5.967   9.215 -0.2903  0.1749 -0.4885
   10CHL1  H23A  726   6.335   5.874   9.261  0.5100 -0.9712 -2.0059
   10CHL1  H23B  727   6.333   6.055   9.268 -0.1460  1.0674 -1.8057
   10CHL1   C24  728   6.342   5.995   9.069 -0.1203  0.5090  0.2394
   10CHL1  H24A  729   6.234   6.022   9.070  0.3258  2.5087 -0.4635
   10CHL1  H24B  730   6.395   6.088   9.041  2.2685 -0.4776  1.2431
   10CHL1   C25  731   6.368   5.890   8.961  0.6762  1.0200  0.0011
   10CHL1   H25  732   6.472   5.854   8.971  0.5080  0.8986  1.4837
   10CHL1   C26  733   6.280   5.763   8.972 -0.2236 -0.3436  0.7757
   10CHL1  H26A  734   6.279   5.702   8.879 -0.5653 -0.7558  1.0462
   10CHL1  H26B  735   6.323   5.700   9.053  2.4391 -0.2952 -0.4823
   10CHL1  H26C  736   6.173   5.786   8.989 -0.4445  0.5049 -1.4279
   10CHL1   C27  737   6.346   5.947   8.827 -1.3063 -0.6190  0.2370
   10CHL1  H27A  738   6.412   6.034   8.809 -0.4558 -1.6359 -1.9358
   10CHL1  H27B  739   6.380   5.881   8.744 -0.7636  1.0262 -0.8993
   10CHL1  H27C  740   6.244   5.973   8.792 -1.3403  0.4890  1.0934
   11CHL1    C3  741   5.604   2.836  10.204  0.3734 -0.5406 -0.0781
   11CHL1    H3  742   5.558   2.936  10.193  0.4469 -0.2454  1.8388
   11CHL1    O3  743   5.621   2.818  10.341  0.0256  0.0520 -0.2902
   11CHL1   H3'  744   5.530   2.817  10.371  0.2039  0.0206  0.2718
   11CHL1    C4  745   5.521   2.713  10.168  0.0020 -0.0743 -0.0678
   11CHL1   H4A  746   5.561   2.616  10.205  1.8774 -0.7234 -3.3243
   11CHL1   H4B  747   5.424   2.730  10.219 -0.6285 -3.1442 -0.0323
   11CHL1    C5  748   5.499   2.706  10.023  0.0696 -0.9033  0.6600
   11CHL1    C6  749   5.374   2.712   9.976 -0.2130  0.6291 -0.3079
   11CHL1    H6  750   5.293   2.711  10.051  0.4630  0.9815  0.4455
   11CHL1    C7  751   5.336   2.706   9.833 -0.0693  0.0087  0.6889
   11CHL1   H7A  752   5.257   2.630   9.814  1.2216 -0.8342 -1.7443
   11CHL1   H7B  753   5.297   2.806   9.804 -0.9143  0.0631  1.9037
   11CHL1    C8  754   5.455   2.667   9.739 -0.1936 -0.0262  0.3624
   11CHL1    H8  755   5.480   2.559   9.745  0.2906 -0.0137 -1.0468
   11CHL1   C14  756   5.423   2.694   9.586 -0.0063 -0.3138  0.8808
   11CHL1   H14  757   5.401   2.803   9.579 -0.8565 -0.5158  0.2344
   11CHL1   C15  758   5.293   2.635   9.529  0.4127 -0.4640 -0.0270
   11CHL1  H15A  759   5.265   2.536   9.570 -2.6575 -1.2939 -3.6269
   11CHL1  H15B  760   5.216   2.710   9.557 -0.6209 -1.4575 -0.1774
   11CHL1   C16  761   5.314   2.632   9.382  0.0627 -0.1949  0.7434
   11CHL1  H16A  762   5.292   2.525   9.362  0.6467 -0.6240  2.2797
   11CHL1  H16B  763   5.249   2.707   9.332  1.9369  1.2438  0.3091
   11CHL1   C17  764   5.469   2.666   9.353 -0.6075 -0.6054 -0.0447
   11CHL1   H17  765   5.468   2.775   9.332 -1.6176 -0.6143 -0.1314
   11CHL1   C13  766   5.531   2.654   9.489 -0.0248  0.1791  0.6458
   11CHL1   C18  767   5.572   2.498   9.506  0.2455  0.1108 -0.5367
   11CHL1  H18A  768   5.637   2.471   9.420 -0.2731 -0.5517 -0.7211
   11CHL1  H18B  769   5.610   2.481   9.609 -0.8725 -1.7373 -0.3989
   11CHL1  H18C  770   5.485   2.430   9.505  0.9184 -0.9527  2.2933
   11CHL1   C12  771   5.650   2.745   9.527  0.2650 -0.1620 -0.1938
   11CHL1  H12A  772   5.747   2.731   9.474  0.6783 -1.2651  0.8236
   11CHL1  H12B  773   5.623   2.851   9.509  1.2206  0.1044 -0.1097
   11CHL1   C11  774   5.696   2.737   9.675  0.3174 -0.1623  0.0505
   11CHL1  H11A  775   5.760   2.648   9.695  3.2922  1.6556 -0.8284
   11CHL1  H11B  776   5.761   2.825   9.689 -0.0021  0.8642 -3.7304
   11CHL1    C9  777   5.582   2.744   9.779  0.3275 -0.2220  0.2315
   11CHL1    H9  778   5.554   2.851   9.771  3.0795  0.4856 -1.0182
   11CHL1   C10  779   5.619   2.717   9.927 -0.3005  0.1735 -0.7400
   11CHL1   C19  780   5.695   2.580   9.942  0.2827 -0.1609  0.8438
   11CHL1  H19A  781   5.728   2.577  10.048 -1.5337  0.9111  1.4934
   11CHL1  H19B  782   5.631   2.492   9.922 -0.1682  0.5973 -1.3705
   11CHL1  H19C  783   5.784   2.581   9.875 -0.9833 -0.5384 -0.9378
   11CHL1    C1  784   5.705   2.837   9.969  0.0194 -0.3726  0.1507
   11CHL1   H1A  785   5.798   2.848   9.909 -1.0250 -1.7526 -1.8006
   11CHL1   H1B  786   5.645   2.929   9.950 -1.4460 -0.4656  3.5011
   11CHL1    C2  787   5.737   2.849  10.128  0.7709  0.5868 -0.1159
   11CHL1   H2A  788   5.783   2.945  10.160 -1.1965  1.5115  0.0868
   11CHL1   H2B  789   5.811   2.768  10.143  0.4991  0.1634 -0.9979
   11CHL1   C20  790   5.523   2.594   9.224 -0.1038  0.5382 -0.3202
   11CHL1   H20  791   5.514   2.484   9.238 -1.4065  0.7132  0.4445
   11CHL1   C21  792   5.671   2.622   9.192 -0.7849 -0.0768  0.0649
   11CHL1  H21A  793   5.685   2.730   9.169 -4.2855  1.4190  3.7560
   11CHL1  H21B  794   5.709   2.565   9.105 -0.1703  0.7298 -0.2113
   11CHL1  H21C  795   5.734   2.601   9.282 -2.5714 -0.9521  1.1592
   11CHL1   C22  796   5.442   2.624   9.097 -0.0504 -0.6180 -0.1218
   11CHL1  H22A  797   5.335   2.609   9.124 -0.7114  2.1921 -0.8404
   11CHL1  H22B  798   5.465   2.730   9.071 -2.8971  0.6577  1.9102
   11CHL1   C23  799   5.480   2.538   8.975 -0.2166 -0.3504 -0.2355
   11CHL1  H23A  800   5.579   2.565   8.933 -1.0477  0.5695 -1.7058
   11CHL1  H23B  801   5.468   2.430   8.998  0.2965 -0.2373  0.5813
   11CHL1   C24  802   5.379   2.568   8.863 -0.0458  0.4843 -0.6925
   11CHL1  H24A  803   5.285   2.589   8.919  2.1063  0.2871  3.2927
   11CHL1  H24B  804   5.397   2.668   8.818 -1.9442  0.8931 -0.6260
   11CHL1   C25  805   5.367   2.472   8.737 -0.7555 -1.2548 -0.7469
   11CHL1   H25  806   5.337   2.371   8.771  0.4960 -1.5443 -0.4367
   11CHL1   C26  807   5.278   2.521   8.628  0.2791 -0.0691  0.0091
   11CHL1  H26A  808   5.183   2.563   8.669  0.8529  1.2730  0.0054
   11CHL1  H26B  809   5.331   2.595   8.563  0.6801 -1.3947 -1.2152
   11CHL1  H26C  810   5.253   2.438   8.559 -2.1458  0.0270  0.6663
   11CHL1   C27  811   5.512   2.452   8.674 -0.6715 -0.4375  0.4749
   11CHL1  H27A  812   5.562   2.360   8.712  0.3072 -0.5206 -0.9281
   11CHL1  H27B  813   5.500   2.441   8.564  0.0615 -2.2352  0.5385
   11CHL1  H27C  814   5.587   2.528   8.706 -1.4214 -0.3615  2.1930
   12CHL1    C3  815   4.928   5.213  10.405 -0.3502  0.4865 -0.0683
   12CHL1    H3  816   5.004   5.141  10.368  0.9622  0.5674  2.2519
   12CHL1    O3  817   4.906   5.199  10.547  0.2054  1.0688  0.0612
   12CHL1   H3'  818   4.834   5.258  10.571  0.6806  1.0602  1.6379
   12CHL1    C4  819   4.971   5.359  10.380 -0.4151 -0.3282 -0.1667
   12CHL1   H4A  820   4.899   5.423  10.436 -2.7576 -1.9991 -1.0980
   12CHL1   H4B  821   5.064   5.376  10.439  0.5086 -0.8776 -1.4347
   12CHL1    C5  822   4.983   5.398  10.237 -0.2660  0.0321 -0.5067
   12CHL1    C6  823   5.106   5.443  10.183  0.4872 -0.3140  0.6932
   12CHL1    H6  824   5.194   5.466  10.245 -0.6719 -1.3218  2.8411
   12CHL1    C7  825   5.118   5.477  10.041 -0.0157 -0.5352  0.2225
   12CHL1   H7A  826   5.163   5.578  10.035  0.5098 -0.7965 -0.4638
   12CHL1   H7B  827   5.190   5.414   9.984  0.2088 -0.0025 -0.0842
   12CHL1    C8  828   4.988   5.482   9.959 -0.1207  0.3540  0.8924
   12CHL1    H8  829   4.930   5.576   9.968  0.9914  1.4021 -1.8421
   12CHL1   C14  830   5.022   5.474   9.809 -0.1630 -1.2729  0.1922
   12CHL1   H14  831   5.067   5.373   9.797  0.4762 -1.2907  2.2660
   12CHL1   C15  832   5.127   5.574   9.748 -0.6026  0.5311 -0.1532
   12CHL1  H15A  833   5.094   5.677   9.774 -3.1072 -0.4280  0.7129
   12CHL1  H15B  834   5.232   5.557   9.780 -0.9344  0.4016  0.8799
   12CHL1   C16  835   5.107   5.553   9.594  0.1674  0.6772 -0.1407
   12CHL1  H16A  836   5.099   5.659   9.560 -0.2605  0.9673  0.8104
   12CHL1  H16B  837   5.194   5.507   9.544  0.2186  0.4851  0.1230
   12CHL1   C17  838   4.971   5.478   9.576 -0.3121  0.0961 -0.1095
   12CHL1   H17  839   5.002   5.372   9.564  0.2865  0.0187  1.7302
   12CHL1   C13  840   4.902   5.473   9.711  0.0456 -0.2951  0.3019
   12CHL1   C18  841   4.808   5.600   9.710 -0.0601 -0.0728 -0.0746
   12CHL1  H18A  842   4.781   5.622   9.815 -1.0967 -1.2414 -0.0783
   12CHL1  H18B  843   4.854   5.689   9.663 -0.9951 -0.1976 -1.2511
   12CHL1  H18C  844   4.711   5.591   9.657 -1.0028  3.1261  0.8965
   12CHL1   C12  845   4.818   5.342   9.747 -0.4494 -0.0335 -0.4621
   12CHL1  H12A  846   4.723   5.333   9.690 -1.2551 -2.2149  1.0689
   12CHL1  H12B  847   4.876   5.249   9.731  0.6481  0.7630 -1.1799
   12CHL1   C11  848   4.780   5.345   9.899  0.1243  0.4322 -0.7346
   12CHL1  H11A  849   4.706   5.428   9.903  0.8493  1.1083 -1.0659
   12CHL1  H11B  850   4.727   5.251   9.925 -2.4294  1.5125 -1.7825
   12CHL1    C9  851   4.904   5.366  10.000  0.7046  0.0028 -0.2474
   12CHL1    H9  852   4.954   5.267   9.996  0.2345 -0.2714  0.3108
   12CHL1   C10  853   4.863   5.362  10.149  0.3168  0.3736 -0.6665
   12CHL1   C19  854   4.751   5.463  10.168  0.3657 -0.5593 -0.1502
   12CHL1  H19A  855   4.723   5.485  10.274 -0.9907 -2.6585 -0.0141
   12CHL1  H19B  856   4.783   5.559  10.124  2.7409 -0.8096  0.8342
   12CHL1  H19C  857   4.662   5.417  10.121  0.5882 -0.3206 -0.8207
   12CHL1    C1  858   4.812   5.219  10.189  0.1646 -0.0065  0.2564
   12CHL1   H1A  859   4.710   5.203  10.149 -0.2923 -0.6886  1.6232
   12CHL1   H1B  860   4.877   5.140  10.145 -2.7051 -1.7295 -1.1748
   12CHL1    C2  861   4.793   5.191  10.339 -0.2431  0.3923  0.2137
   12CHL1   H2A  862   4.761   5.086  10.355  1.0907 -0.2947 -1.2735
   12CHL1   H2B  863   4.714   5.248  10.392 -1.9374 -2.2078  0.6293
   12CHL1   C20  864   4.903   5.510   9.444  0.4866 -0.1097 -0.1404
   12CHL1   H20  865   4.853   5.610   9.438 -0.4629 -0.2986  2.8265
   12CHL1   C21  866   4.781   5.413   9.422  0.0345 -0.1896  0.2307
   12CHL1  H21A  867   4.808   5.309   9.450 -1.2572 -0.2825  1.2298
   12CHL1  H21B  868   4.751   5.399   9.315 -1.5203 -1.5439  0.8001
   12CHL1  H21C  869   4.695   5.444   9.485  0.1864 -1.2624  0.9885
   12CHL1   C22  870   4.998   5.501   9.325 -0.3060  0.2661  0.1406
   12CHL1  H22A  871   5.081   5.574   9.332 -0.4463  0.3257  1.2084
   12CHL1  H22B  872   5.043   5.399   9.324  3.3319  1.7323  0.2236
   12CHL1   C23  873   4.939   5.532   9.184 -0.0321 -0.1064  0.2030
   12CHL1  H23A  874   4.880   5.440   9.162  0.0973  0.0652 -0.8961
   12CHL1  H23B  875   4.880   5.627   9.186  0.8413  0.4408  0.3483
   12CHL1   C24  876   5.046   5.524   9.072 -0.3201  0.3502 -0.0904
   12CHL1  H24A  877   5.121   5.606   9.080 -0.5732  0.4830  1.0560
   12CHL1  H24B  878   5.106   5.432   9.084 -1.7559 -0.4063  1.6811
   12CHL1   C25  879   4.990   5.515   8.926 -0.9852 -0.5462 -0.3625
   12CHL1   H25  880   4.909   5.590   8.912  1.0987  1.5401 -2.2080
   12CHL1   C26  881   5.091   5.553   8.823 -0.1176  0.0522 -0.2637
   12CHL1  H26A  882   5.185   5.494   8.825  0.0861  0.3751 -0.3557
   12CHL1  H26B  883   5.046   5.556   8.721 -0.6202 -0.6937 -0.0749
   12CHL1  H26C  884   5.126   5.654   8.852 -0.2433 -0.1146  0.5111
   12CHL1   C27  885   4.942   5.377   8.891 -0.6101  0.5778 -0.2228
   12CHL1  H27A  886   5.025   5.326   8.837  0.3563  1.2204  0.6289
   12CHL1  H27B  887   4.916   5.320   8.983 -0.6060  2.2880  0.8691
   12CHL1  H27C  888   4.849   5.383   8.829 -0.1808 -2.5274 -1.3573
   13CHL1    C3  889   5.221   0.614  10.324 -0.0137  0.5040 -0.3172
   13CHL1    H3  890   5.311   0.549  10.318  0.7537  1.4785  0.2868
   13CHL1    O3  891   5.223   0.684  10.445 -0.7111 -0.1852  0.1201
   13CHL1   H3'  892   5.149   0.744  10.431 -1.2746 -1.1433 -1.1226
   13CHL1    C4  893   5.221   0.714  10.206  0.4345  0.7891  0.3173
   13CHL1   H4A  894   5.137   0.785  10.222 -2.8841 -2.5832 -0.6466
   13CHL1   H4B  895   5.323   0.757  10.210  1.0704 -0.5989 -0.2280
   13CHL1    C5  896   5.195   0.641  10.077 -0.6215  0.1612  0.4956
   13CHL1    C6  897   5.289   0.640   9.984  0.3692 -0.7599  0.2186
   13CHL1    H6  898   5.383   0.692  10.009 -0.5991 -0.2457  3.1683
   13CHL1    C7  899   5.275   0.567   9.853  0.3834 -1.4487  0.1851
   13CHL1   H7A  900   5.313   0.622   9.764  1.8692 -0.1894  1.5311
   13CHL1   H7B  901   5.320   0.465   9.860 -3.6223 -3.4908 -0.6485
   13CHL1    C8  902   5.132   0.527   9.815 -0.1527  0.6326  0.2553
   13CHL1    H8  903   5.074   0.621   9.799 -0.4563 -0.0098 -3.2214
   13CHL1   C14  904   5.125   0.428   9.693 -0.3021  1.2414  0.2013
   13CHL1   H14  905   5.174   0.334   9.726 -3.9524  0.0405  2.8424
   13CHL1   C15  906   5.178   0.471   9.553  0.1036 -1.4920  0.2018
   13CHL1  H15A  907   5.136   0.574   9.548 -0.4503 -1.5923  2.0046
   13CHL1  H15B  908   5.288   0.462   9.541  0.2882 -1.8645  1.8623
   13CHL1   C16  909   5.092   0.382   9.455 -0.2519 -0.3895 -0.1564
   13CHL1  H16A  910   5.036   0.455   9.394  0.3267  1.5330  1.5202
   13CHL1  H16B  911   5.156   0.315   9.392 -0.0731 -2.5539  2.1298
   13CHL1   C17  912   4.993   0.308   9.539  0.1258 -0.4273 -0.2516
   13CHL1   H17  913   5.026   0.206   9.568 -0.7661 -0.7041 -0.1665
   13CHL1   C13  914   4.981   0.379   9.672  0.3964 -0.1040 -0.3115
   13CHL1   C18  915   4.880   0.495   9.649 -1.2238 -0.4617 -0.8292
   13CHL1  H18A  916   4.873   0.556   9.741 -0.3181 -1.3583 -0.1410
   13CHL1  H18B  917   4.911   0.558   9.563  0.6632 -0.5814 -0.2742
   13CHL1  H18C  918   4.777   0.454   9.643 -2.1428  0.4976  3.9088
   13CHL1   C12  919   4.939   0.294   9.796 -0.4461 -0.0408 -0.1315
   13CHL1  H12A  920   4.841   0.242   9.794 -0.4699  0.0320 -2.3251
   13CHL1  H12B  921   4.993   0.199   9.820 -0.8916  0.0006  1.1105
   13CHL1   C11  922   4.936   0.377   9.923 -0.4253 -0.5919 -0.0654
   13CHL1  H11A  923   4.855   0.452   9.914  0.1989  0.0047 -0.8810
   13CHL1  H11B  924   4.913   0.307  10.006 -0.1602 -1.9333 -1.0871
   13CHL1    C9  925   5.069   0.457   9.944 -0.1837 -0.3694 -0.7191
   13CHL1    H9  926   5.147   0.380   9.959  0.3409  0.0366 -1.2942
   13CHL1   C10  927   5.068   0.552  10.067  0.0788  0.4684 -0.1243
   13CHL1   C19  928   4.952   0.649  10.049  0.3013 -0.7539  0.4833
   13CHL1  H19A  929   4.848   0.610  10.041  0.0446  0.2718 -2.1528
   13CHL1  H19B  930   4.941   0.721  10.133  1.5193  0.8207 -0.6306
   13CHL1  H19C  931   4.979   0.708   9.959  0.2563 -0.6734  0.5220
   13CHL1    C1  932   5.065   0.462  10.198  0.9898 -0.6441  0.8415
   13CHL1   H1A  933   4.967   0.410  10.206  0.6520 -0.3639 -0.9099
   13CHL1   H1B  934   5.143   0.384  10.183  3.8532  1.7072  2.4357
   13CHL1    C2  935   5.097   0.531  10.334  0.4296 -0.9978  0.0487
   13CHL1   H2A  936   5.103   0.455  10.415 -1.5411 -1.4293 -0.1637
   13CHL1   H2B  937   5.002   0.584  10.355 -0.0189 -2.2503  1.3517
   13CHL1   C20  938   4.873   0.263   9.447 -1.1453 -0.7477  0.1310
   13CHL1   H20  939   4.828   0.362   9.421 -0.0705  0.1081  1.3637
   13CHL1   C21  940   4.780   0.160   9.515 -0.0768 -0.3181 -0.1124
   13CHL1  H21A  941   4.747   0.191   9.617  0.9138 -0.9109  0.4052
   13CHL1  H21B  942   4.828   0.060   9.521  0.4996 -0.0333  0.1073
   13CHL1  H21C  943   4.685   0.152   9.458  0.6962 -0.6303 -1.3957
   13CHL1   C22  944   4.914   0.197   9.310 -0.1131 -1.0155  0.2301
   13CHL1  H22A  945   4.984   0.262   9.252 -1.2114  0.0877  0.0898
   13CHL1  H22B  946   4.971   0.103   9.325  1.2444 -0.6966 -2.2562
   13CHL1   C23  947   4.800   0.183   9.208 -0.1957 -0.1124  0.1097
   13CHL1  H23A  948   4.710   0.141   9.257  0.0107  2.1438  2.7460
   13CHL1  H23B  949   4.769   0.285   9.177 -2.1183 -0.4602  0.7401
   13CHL1   C24  950   4.832   0.111   9.086 -0.0747  1.0070 -0.1646
   13CHL1  H24A  951   4.922   0.147   9.033  0.8892 -0.1943  0.5975
   13CHL1  H24B  952   4.855   0.004   9.106  0.8085  1.1873 -0.1865
   13CHL1   C25  953   4.714   0.131   8.981 -0.2359  0.1353  0.1546
   13CHL1   H25  954   4.689   0.239   8.979  1.3064  0.5143 -1.2641
   13CHL1   C26  955   4.765   0.098   8.836  0.1129 -0.4674 -0.9882
   13CHL1  H26A  956   4.775  -0.011   8.816  2.6767 -0.3084 -0.9233
   13CHL1  H26B  957   4.697   0.144   8.760 -1.4044 -1.4290 -0.2604
   13CHL1  H26C  958   4.865   0.147   8.835 -0.3520  0.6209  1.0147
   13CHL1   C27  959   4.585   0.046   9.005  0.2954  0.2876 -0.2382
   13CHL1  H27A  960   4.534   0.078   9.098  2.1523  0.8960  0.6276
   13CHL1  H27B  961   4.519   0.060   8.917 -0.2423 -0.5590  0.0283
   13CHL1  H27C  962   4.612  -0.061   9.006  1.3910  0.5464  0.6224
   14CHL1    C3  963   5.725   4.679  10.250 -0.1840  0.7225 -0.3168
   14CHL1    H3  964   5.615   4.667  10.235 -0.8029  3.4824  1.4198
   14CHL1    O3  965   5.753   4.656  10.387 -0.1471 -0.2196  0.0829
   14CHL1   H3'  966   5.688   4.592  10.415 -0.0972  0.7058  2.4811
   14CHL1    C4  967   5.809   4.578  10.165 -0.4541  0.5608  0.4169
   14CHL1   H4A  968   5.913   4.596  10.201  0.4629 -3.4268  0.1795
   14CHL1   H4B  969   5.791   4.470  10.182 -1.2846  0.5710 -0.3382
   14CHL1    C5  970   5.802   4.615  10.013 -0.1307  0.4050  0.3170
   14CHL1    C6  971   5.784   4.520   9.920 -1.1711  0.0197 -0.3665
   14CHL1    H6  972   5.776   4.418   9.960  0.1142  0.3636  0.8361
   14CHL1    C7  973   5.797   4.546   9.771 -0.0969 -0.2894  0.0490
   14CHL1   H7A  974   5.856   4.465   9.722  0.5484  0.0054  0.3239
   14CHL1   H7B  975   5.692   4.544   9.736  0.3257  0.8503 -1.4012
   14CHL1    C8  976   5.855   4.687   9.735 -0.0608  0.8363 -0.3456
   14CHL1    H8  977   5.965   4.683   9.749 -0.1285 -0.9040 -0.1013
   14CHL1   C14  978   5.812   4.715   9.595 -0.2208  0.0032 -0.2825
   14CHL1   H14  979   5.701   4.726   9.597 -0.1878  0.1975  0.7625
   14CHL1   C15  980   5.826   4.610   9.486  0.7590 -0.6222 -0.1559
   14CHL1  H15A  981   5.927   4.565   9.488  1.3550  0.5218 -2.0769
   14CHL1  H15B  982   5.748   4.530   9.490 -1.0606  0.8394 -2.8751
   14CHL1   C16  983   5.806   4.682   9.355  0.2162  0.1343  1.2997
   14CHL1  H16A  984   5.886   4.661   9.281 -2.2554 -0.2501 -1.4666
   14CHL1  H16B  985   5.721   4.646   9.293  0.9933  1.0718 -0.3911
   14CHL1   C17  986   5.798   4.829   9.390  1.0303  0.1442  1.0560
   14CHL1   H17  987   5.691   4.856   9.403  0.1562 -1.7034 -1.5967
   14CHL1   C13  988   5.859   4.844   9.534  0.5957  0.6719 -0.1372
   14CHL1   C18  989   6.004   4.836   9.524 -0.0991  0.4563 -0.7321
   14CHL1  H18A  990   6.039   4.743   9.474 -1.3318  0.0242 -0.8226
   14CHL1  H18B  991   6.050   4.917   9.465  3.3857 -0.9548 -0.1892
   14CHL1  H18C  992   6.052   4.846   9.624 -1.0403  0.2000 -0.2386
   14CHL1   C12  993   5.804   4.958   9.618 -0.3704  0.1749 -0.8775
   14CHL1  H12A  994   5.838   5.061   9.595 -1.0949  0.3714 -1.0693
   14CHL1  H12B  995   5.693   4.962   9.620 -0.3493  2.5271 -1.5101
   14CHL1   C11  996   5.841   4.934   9.767 -0.2673 -0.3753 -0.3967
   14CHL1  H11A  997   5.952   4.940   9.766 -0.2470 -0.6349 -2.0986
   14CHL1  H11B  998   5.788   5.010   9.828 -0.6371  0.9349 -2.2669
   14CHL1    C9  999   5.792   4.795   9.824  0.5510  0.5724 -0.0228
   14CHL1    H9 1000   5.683   4.787   9.806 -0.0509 -4.3038  3.7668
   14CHL1   C10 1001   5.818   4.768   9.981 -0.1162  0.4413  0.2299
   14CHL1   C19 1002   5.969   4.807  10.009 -0.1218 -0.4301 -0.7171
   14CHL1  H19A 1003   6.033   4.745   9.943  0.4671  0.1542 -0.7021
   14CHL1  H19B 1004   5.982   4.916   9.991  0.0333 -0.0741  1.2799
   14CHL1  H19C 1005   6.004   4.790  10.113 -0.1979 -3.0808 -1.0431
   14CHL1    C1 1006   5.722   4.844  10.071  0.1511 -0.2259  0.0233
   14CHL1   H1A 1007   5.742   4.951  10.046 -0.0212  0.0611  1.0886
   14CHL1   H1B 1008   5.613   4.824  10.066  0.1094  0.0278 -0.1398
   14CHL1    C2 1009   5.756   4.828  10.220  0.6912  0.3231 -0.0288
   14CHL1   H2A 1010   5.693   4.887  10.289  1.5288  1.2993 -0.0719
   14CHL1   H2B 1011   5.863   4.847  10.245  1.1952 -2.8818  0.7344
   14CHL1   C20 1012   5.849   4.927   9.286  0.0374 -0.9745  0.1092
   14CHL1   H20 1013   5.955   4.904   9.261  0.9605  1.7471  1.1704
   14CHL1   C21 1014   5.840   5.075   9.331 -0.0201  0.0683  0.1415
   14CHL1  H21A 1015   5.870   5.131   9.240 -1.2592 -1.6870 -1.4264
   14CHL1  H21B 1016   5.921   5.102   9.403  2.9196 -1.5334 -2.3138
   14CHL1  H21C 1017   5.740   5.113   9.360  0.7786  2.2486  0.2087
   14CHL1   C22 1018   5.770   4.912   9.153  0.7705  0.1675  0.3892
   14CHL1  H22A 1019   5.764   4.803   9.138  0.7271  0.2601 -0.2667
   14CHL1  H22B 1020   5.674   4.966   9.165  0.9242  0.0438  2.6769
   14CHL1   C23 1021   5.832   4.980   9.030 -0.2194  0.4381  0.5387
   14CHL1  H23A 1022   5.849   5.089   9.043  0.1303  0.7612 -2.0829
   14CHL1  H23B 1023   5.935   4.940   9.015 -0.4863  0.1057 -0.4443
   14CHL1   C24 1024   5.765   4.948   8.901 -0.2044 -0.1392  0.6784
   14CHL1  H24A 1025   5.777   4.842   8.873  1.1726  0.2430 -0.3102
   14CHL1  H24B 1026   5.656   4.966   8.914 -0.2719 -1.1738  1.6812
   14CHL1   C25 1027   5.814   5.039   8.789 -0.0203 -0.1560 -0.3798
   14CHL1   H25 1028   5.851   5.131   8.839  2.3357 -0.7200 -0.9732
   14CHL1   C26 1029   5.938   4.977   8.727 -0.2486 -0.3974  0.0412
   14CHL1  H26A 1030   6.018   4.967   8.804  0.1233 -0.1323 -0.3085
   14CHL1  H26B 1031   5.911   4.878   8.684  0.1655 -1.1501  1.4445
   14CHL1  H26C 1032   5.974   5.045   8.647  2.2495 -1.1973  0.4013
   14CHL1   C27 1033   5.699   5.064   8.685 -0.6744 -1.3876 -0.0474
   14CHL1  H27A 1034   5.617   5.105   8.748 -1.5931 -1.3615 -1.2365
   14CHL1  H27B 1035   5.723   5.147   8.615 -2.3494 -0.8024  0.0424
   14CHL1  H27C 1036   5.657   4.973   8.638 -1.4060 -1.2703  0.3588
   15CHL1    C3 1037   5.450   3.312  10.098  0.4331  0.0082 -0.2153
   15CHL1    H3 1038   5.347   3.350  10.116  0.3846 -0.1469 -0.1703
   15CHL1    O3 1039   5.514   3.293  10.222 -0.5376 -0.0440  0.3644
   15CHL1   H3' 1040   5.605   3.271  10.200 -0.6585 -0.6090  0.4203
   15CHL1    C4 1041   5.443   3.180  10.036  0.1484  0.0137 -0.0928
   15CHL1   H4A 1042   5.543   3.132  10.042  0.2242  0.3600  1.8266
   15CHL1   H4B 1043   5.379   3.121  10.104  0.9926 -0.0255  0.6793
   15CHL1    C5 1044   5.396   3.185   9.895 -0.1610  0.7251 -0.4165
   15CHL1    C6 1045   5.293   3.109   9.856  0.2430 -0.3279 -0.0630
   15CHL1    H6 1046   5.264   3.033   9.930 -1.6076  1.0902  0.7529
   15CHL1    C7 1047   5.242   3.097   9.720 -0.4004  0.1366 -0.0369
   15CHL1   H7A 1048   5.217   2.989   9.712 -0.7249 -0.0018  2.1184
   15CHL1   H7B 1049   5.152   3.160   9.708  0.8389  1.7082 -1.7139
   15CHL1    C8 1050   5.354   3.145   9.616  0.9470 -0.9316  0.0759
   15CHL1    H8 1051   5.430   3.065   9.629  1.7939 -0.1031  0.3616
   15CHL1   C14 1052   5.306   3.152   9.469  0.2297  0.0252 -0.4305
   15CHL1   H14 1053   5.223   3.226   9.468  0.1932 -0.0055  0.0345
   15CHL1   C15 1054   5.245   3.023   9.404  0.3462 -0.1674 -0.1339
   15CHL1  H15A 1055   5.310   2.939   9.435 -2.2643 -1.9622  0.8407
   15CHL1  H15B 1056   5.149   2.996   9.454  0.7833  0.9062  1.3934
   15CHL1   C16 1057   5.256   3.052   9.255  0.3401  0.5422  0.3643
   15CHL1  H16A 1058   5.310   2.963   9.217 -0.6835 -0.9701  2.3095
   15CHL1  H16B 1059   5.153   3.067   9.216  1.4142  3.1866 -1.7753
   15CHL1   C17 1060   5.333   3.184   9.238  0.1156 -0.1676 -0.8545
   15CHL1   H17 1061   5.255   3.263   9.241 -0.3840 -0.6711  0.1506
   15CHL1   C13 1062   5.408   3.205   9.374  0.4028  0.5355  0.0632
   15CHL1   C18 1063   5.542   3.122   9.367 -0.1293 -0.7596  0.3161
   15CHL1  H18A 1064   5.601   3.104   9.460 -0.7960 -2.1550  0.4941
   15CHL1  H18B 1065   5.522   3.021   9.327  2.6006 -1.1619 -0.2217
   15CHL1  H18C 1066   5.616   3.165   9.296 -1.0610 -2.1046 -1.5380
   15CHL1   C12 1067   5.447   3.344   9.408 -0.0367 -0.5182 -0.3118
   15CHL1  H12A 1068   5.526   3.393   9.347 -0.7400  0.3859 -0.5282
   15CHL1  H12B 1069   5.356   3.407   9.395  0.3217  0.7521  2.6414
   15CHL1   C11 1070   5.498   3.353   9.551  0.7535 -0.4580  0.5484
   15CHL1  H11A 1071   5.603   3.316   9.541  0.6122 -0.7919  0.2822
   15CHL1  H11B 1072   5.489   3.460   9.580  1.0134 -0.9368  2.5698
   15CHL1    C9 1073   5.414   3.281   9.660  0.4088  0.1149  0.2060
   15CHL1    H9 1074   5.323   3.340   9.683 -1.3113 -3.1123  2.4018
   15CHL1   C10 1075   5.483   3.271   9.803  0.1398 -0.8866  0.8621
   15CHL1   C19 1076   5.622   3.202   9.791  0.3448  0.2927  0.9764
   15CHL1  H19A 1077   5.663   3.180   9.892  1.7366 -3.3382 -0.2039
   15CHL1  H19B 1078   5.606   3.103   9.742 -1.3406  0.2348  1.5856
   15CHL1  H19C 1079   5.695   3.268   9.739 -1.8731  1.0400 -1.4188
   15CHL1    C1 1080   5.498   3.411   9.872 -0.3669 -0.7898  0.0992
   15CHL1   H1A 1081   5.576   3.471   9.821  2.5568 -2.7352  1.9464
   15CHL1   H1B 1082   5.409   3.477   9.865  0.0202 -0.0154  1.8337
   15CHL1    C2 1083   5.538   3.408  10.017  0.6243 -0.1637 -0.0088
   15CHL1   H2A 1084   5.541   3.514  10.052  0.8894  0.0011 -0.5178
   15CHL1   H2B 1085   5.646   3.383  10.023  0.4815 -0.5930  0.9069
   15CHL1   C20 1086   5.409   3.181   9.106  0.6288 -0.5861  0.5805
   15CHL1   H20 1087   5.487   3.102   9.115  0.4898 -0.7262  0.5530
   15CHL1   C21 1088   5.479   3.322   9.087 -0.7719 -0.6009  0.1676
   15CHL1  H21A 1089   5.403   3.403   9.093 -0.8573 -0.7585  1.8199
   15CHL1  H21B 1090   5.529   3.317   8.988 -0.6816  1.2676  0.0811
   15CHL1  H21C 1091   5.554   3.332   9.169 -0.8814  0.2113  0.1813
   15CHL1   C22 1092   5.314   3.150   8.983 -0.4004 -0.1445 -0.1718
   15CHL1  H22A 1093   5.261   3.052   8.990  3.3469 -2.4109 -0.8496
   15CHL1  H22B 1094   5.244   3.236   8.971 -1.9131 -0.9065  2.3599
   15CHL1   C23 1095   5.386   3.130   8.844  0.0545 -0.4445 -0.7175
   15CHL1  H23A 1096   5.454   3.213   8.819  0.1631  1.1970  4.0684
   15CHL1  H23B 1097   5.446   3.036   8.843  2.0314  0.7405  0.6046
   15CHL1   C24 1098   5.283   3.112   8.733 -0.1836 -0.5401  0.2044
   15CHL1  H24A 1099   5.190   3.062   8.770  0.7932 -0.6637  2.7278
   15CHL1  H24B 1100   5.244   3.213   8.709 -0.7373 -0.9000 -0.4471
   15CHL1   C25 1101   5.351   3.050   8.606 -0.5554 -0.4874  0.3439
   15CHL1   H25 1102   5.459   3.078   8.609 -0.9757  1.2528  0.0872
   15CHL1   C26 1103   5.328   2.903   8.592  0.1657 -0.6893 -0.1106
   15CHL1  H26A 1104   5.221   2.872   8.585 -0.3586  1.3497 -2.5828
   15CHL1  H26B 1105   5.385   2.868   8.503  2.3822 -0.6200  1.2061
   15CHL1  H26C 1106   5.359   2.846   8.683  0.1432 -2.8976 -1.4078
   15CHL1   C27 1107   5.280   3.124   8.490  0.5381 -0.1024  0.1332
   15CHL1  H27A 1108   5.283   3.233   8.516 -1.8582 -0.4479  2.2764
   15CHL1  H27B 1109   5.326   3.102   8.391  0.3920  1.7463 -0.3962
   15CHL1  H27C 1110   5.173   3.098   8.485  0.7325 -0.8384 -0.2764
   16CHL1    C3 1111   0.289   2.850  10.441 -0.3718 -0.0634  0.4925
   16CHL1    H3 1112   0.301   2.960  10.435  2.0474 -0.2582  0.7481
   16CHL1    O3 1113   0.319   2.798  10.573  0.0882 -0.0843 -0.0313
   16CHL1   H3' 1114   0.414   2.808  10.585 -0.0780 -0.4451  1.9596
   16CHL1    C4 1115   0.148   2.810  10.399 -0.2025 -0.6943  0.3989
   16CHL1   H4A 1116   0.126   2.702  10.415 -0.6841 -0.8283 -0.9748
   16CHL1   H4B 1117   0.079   2.864  10.467 -0.5272 -0.5738 -0.0168
   16CHL1    C5 1118   0.116   2.840  10.260 -0.1606  0.0658  0.3517
   16CHL1    C6 1119   0.005   2.904  10.222  0.2009  0.1429  0.2568
   16CHL1    H6 1120  -0.075   2.941  10.288 -0.8832  1.2645 -1.6020
   16CHL1    C7 1121  -0.041   2.917  10.078  0.4332  0.5333 -0.6358
   16CHL1   H7A 1122  -0.143   2.875  10.073  0.2128  0.5023  2.2129
   16CHL1   H7B 1123  -0.046   3.022  10.044  0.0567  0.0374 -2.1795
   16CHL1    C8 1124   0.045   2.834   9.986 -0.0618 -0.4292  0.0580
   16CHL1    H8 1125   0.013   2.728   9.994  3.0766 -1.3293  3.0822
   16CHL1   C14 1126   0.027   2.878   9.836  0.3203 -1.0023 -1.5817
   16CHL1   H14 1127   0.057   2.984   9.826 -1.4325 -0.1178  1.2737
   16CHL1   C15 1128  -0.121   2.890   9.788 -0.1507 -0.1598 -0.5688
   16CHL1  H15A 1129  -0.171   2.801   9.832 -0.5814 -1.0755 -2.7924
   16CHL1  H15B 1130  -0.170   2.980   9.831 -3.0021 -0.8426 -2.1229
   16CHL1   C16 1131  -0.107   2.877   9.640  0.0149  0.3545  0.0043
   16CHL1  H16A 1132  -0.164   2.788   9.605  3.0659 -1.9351  0.4742
   16CHL1  H16B 1133  -0.150   2.963   9.586  0.2204  0.6586  0.3232
   16CHL1   C17 1134   0.040   2.853   9.600 -0.1295 -0.4185  0.2169
   16CHL1   H17 1135   0.100   2.945   9.586  1.2157 -1.0058  1.8132
   16CHL1   C13 1136   0.102   2.799   9.732  0.4440  0.7615  0.3690
   16CHL1   C18 1137   0.071   2.646   9.746  0.4538 -0.6182 -0.0227
   16CHL1  H18A 1138   0.080   2.605   9.848  0.5813 -0.2377  0.1177
   16CHL1  H18B 1139  -0.038   2.629   9.728  0.2413 -1.6787  1.9887
   16CHL1  H18C 1140   0.132   2.579   9.681  0.1271 -1.9332  0.9728
   16CHL1   C12 1141   0.256   2.823   9.760 -0.0397 -0.0540 -0.0807
   16CHL1  H12A 1142   0.311   2.755   9.691 -1.8490 -2.1427  0.4181
   16CHL1  H12B 1143   0.289   2.928   9.745  0.5975 -0.0119  1.4747
   16CHL1   C11 1144   0.292   2.778   9.906 -0.2323 -0.3732  0.3606
   16CHL1  H11A 1145   0.280   2.668   9.909  0.0812 -0.3897  1.5859
   16CHL1  H11B 1146   0.397   2.806   9.928  0.6425 -1.9780 -1.4608
   16CHL1    C9 1147   0.197   2.841  10.020  0.7200 -0.3242 -0.0630
   16CHL1    H9 1148   0.217   2.950  10.019  3.4469 -0.7112 -3.0778
   16CHL1   C10 1149   0.227   2.787  10.160 -0.3937  1.3542 -0.1633
   16CHL1   C19 1150   0.217   2.632  10.166  0.8269 -0.0935 -0.5604
   16CHL1  H19A 1151   0.288   2.571  10.107 -0.5512 -2.7458  0.3315
   16CHL1  H19B 1152   0.232   2.593  10.270 -1.8334  1.1259  0.3587
   16CHL1  H19C 1153   0.116   2.593  10.141  0.9897 -0.2450 -0.9893
   16CHL1    C1 1154   0.368   2.832  10.199  0.5825  0.5375  0.5637
   16CHL1   H1A 1155   0.430   2.767  10.134 -1.8866 -1.6894  0.2657
   16CHL1   H1B 1156   0.387   2.940  10.180  0.9746  0.1966 -1.2026
   16CHL1    C2 1157   0.402   2.798  10.347 -0.1524  0.8229  0.2634
   16CHL1   H2A 1158   0.504   2.837  10.366  0.1411  0.4740 -0.5278
   16CHL1   H2B 1159   0.400   2.687  10.357 -2.0759  0.8911  0.8993
   16CHL1   C20 1160   0.059   2.773   9.467  0.3677  0.4392 -0.0520
   16CHL1   H20 1161  -0.009   2.685   9.463  1.4355 -0.5008  1.4293
   16CHL1   C21 1162   0.204   2.714   9.444 -0.7231  0.2720 -0.0431
   16CHL1  H21A 1163   0.228   2.631   9.512 -1.0206  0.5268  0.3786
   16CHL1  H21B 1164   0.282   2.792   9.455 -1.0326  0.6054 -0.1637
   16CHL1  H21C 1165   0.198   2.670   9.342  1.1608 -0.1621 -0.0002
   16CHL1   C22 1166   0.024   2.857   9.344  0.0217  0.1907  0.5227
   16CHL1  H22A 1167  -0.055   2.929   9.376  0.9567  0.6256  1.9449
   16CHL1  H22B 1168   0.106   2.925   9.312 -0.8377  0.5452 -1.0878
   16CHL1   C23 1169  -0.028   2.784   9.218  1.2778 -1.0221 -0.1809
   16CHL1  H23A 1170   0.049   2.721   9.168  1.5560 -1.9044  1.2985
   16CHL1  H23B 1171  -0.096   2.707   9.260  1.9069 -0.9300  1.0498
   16CHL1   C24 1172  -0.100   2.871   9.108  0.2576  0.1296 -0.1875
   16CHL1  H24A 1173  -0.200   2.900   9.145  0.1993  0.0805 -0.3070
   16CHL1  H24B 1174  -0.037   2.962   9.096 -0.3787  0.6682  0.4542
   16CHL1   C25 1175  -0.124   2.798   8.974 -0.5334  0.7270 -0.6534
   16CHL1   H25 1176  -0.022   2.760   8.950  0.8233  2.3367  1.9588
   16CHL1   C26 1177  -0.219   2.676   8.984 -0.8047  0.4751  0.4244
   16CHL1  H26A 1178  -0.227   2.621   8.888 -2.3138  0.1084  0.7385
   16CHL1  H26B 1179  -0.182   2.610   9.065 -0.9852  1.3036  1.1989
   16CHL1  H26C 1180  -0.327   2.692   9.006 -1.3277 -0.9347 -0.9661
   16CHL1   C27 1181  -0.174   2.903   8.869 -0.0086  0.3091  0.2061
   16CHL1  H27A 1182  -0.274   2.947   8.889 -0.6654 -0.2214 -1.7457
   16CHL1  H27B 1183  -0.095   2.980   8.853 -0.5543  1.1516  1.4453
   16CHL1  H27C 1184  -0.171   2.841   8.777 -0.0427 -0.2498  0.5734
   17CHL1    C3 1185   1.671   1.480  10.472  0.0434  0.0447 -0.6134
   17CHL1    H3 1186   1.620   1.386  10.444 -0.4111  0.3856 -0.9472
   17CHL1    O3 1187   1.679   1.499  10.618 -0.2913  0.1370 -0.1587
   17CHL1   H3' 1188   1.760   1.549  10.633 -1.7167  2.3572  0.6542
   17CHL1    C4 1189   1.819   1.482  10.416 -0.4522  0.9616  0.3057
   17CHL1   H4A 1190   1.867   1.576  10.450 -0.7644  1.1077  0.3468
   17CHL1   H4B 1191   1.879   1.400  10.462 -1.1338  0.3434  0.1251
   17CHL1    C5 1192   1.820   1.481  10.266 -0.8394 -0.5659  0.3681
   17CHL1    C6 1193   1.899   1.387  10.205 -0.7149 -0.5902 -0.9312
   17CHL1    H6 1194   1.969   1.319  10.256  0.2615 -0.4235 -2.0194
   17CHL1    C7 1195   1.914   1.376  10.050  0.4804  0.2210 -0.1543
   17CHL1   H7A 1196   2.022   1.361  10.027  0.6499 -2.1534  1.7439
   17CHL1   H7B 1197   1.865   1.283  10.014 -0.1206  0.6917 -0.5849
   17CHL1    C8 1198   1.852   1.492   9.974 -0.1270 -0.8147 -0.0159
   17CHL1    H8 1199   1.928   1.573   9.981 -1.7218  0.6130  1.7654
   17CHL1   C14 1200   1.816   1.459   9.826  0.0287  0.2335 -0.3213
   17CHL1   H14 1201   1.726   1.394   9.833 -2.8465  3.7832 -1.2315
   17CHL1   C15 1202   1.924   1.379   9.748 -0.4704  0.2749  0.8748
   17CHL1  H15A 1203   2.022   1.414   9.786 -0.4816  0.0369  1.1285
   17CHL1  H15B 1204   1.916   1.269   9.763  0.5401  0.3811  2.4745
   17CHL1   C16 1205   1.909   1.424   9.605 -0.4908 -0.4756  0.9784
   17CHL1  H16A 1206   1.999   1.481   9.573 -0.1401  0.3384  3.2138
   17CHL1  H16B 1207   1.898   1.329   9.548 -0.5640 -1.7219  2.9533
   17CHL1   C17 1208   1.777   1.502   9.596  0.1988  0.2497  0.3464
   17CHL1   H17 1209   1.698   1.424   9.600  1.3457 -0.9595 -0.1307
   17CHL1   C13 1210   1.765   1.575   9.739 -0.6907  0.1790  0.5003
   17CHL1   C18 1211   1.876   1.689   9.745  0.6063 -0.7458 -0.0265
   17CHL1  H18A 1212   1.898   1.733   9.844  1.1473  1.0896 -0.9120
   17CHL1  H18B 1213   1.975   1.671   9.698  0.1081 -0.4285 -1.2569
   17CHL1  H18C 1214   1.834   1.777   9.691 -0.4496 -1.6478 -0.7168
   17CHL1   C12 1215   1.629   1.616   9.800  0.2811 -0.3543  0.0917
   17CHL1  H12A 1216   1.598   1.707   9.744  0.9545 -1.0520 -1.4895
   17CHL1  H12B 1217   1.555   1.534   9.784  0.8007 -0.8120 -0.0096
   17CHL1   C11 1218   1.636   1.639   9.954  0.4273 -0.0104 -1.0033
   17CHL1  H11A 1219   1.685   1.739   9.965 -0.6853  0.6540 -1.8781
   17CHL1  H11B 1220   1.533   1.650   9.994  1.7980  1.1710  2.7341
   17CHL1    C9 1221   1.716   1.536  10.042 -0.2781  0.1263  0.8328
   17CHL1    H9 1222   1.652   1.445  10.042 -0.1229 -0.0126 -0.5334
   17CHL1   C10 1223   1.728   1.576  10.189  0.1347  0.3793  0.2047
   17CHL1   C19 1224   1.787   1.716  10.201  0.0957 -0.4422  0.6836
   17CHL1  H19A 1225   1.724   1.800  10.165  1.9632  2.5064  3.7820
   17CHL1  H19B 1226   1.830   1.737  10.300 -0.4566 -0.8261  1.0136
   17CHL1  H19C 1227   1.876   1.712  10.135 -0.5682 -0.7077 -0.2189
   17CHL1    C1 1228   1.592   1.578  10.250  0.1445  0.8564 -0.5073
   17CHL1   H1A 1229   1.534   1.660  10.203  0.4761  1.3254 -0.1128
   17CHL1   H1B 1230   1.540   1.483  10.226  2.5413 -1.2826  2.0045
   17CHL1    C2 1231   1.593   1.595  10.402  0.1230  0.0454  0.2978
   17CHL1   H2A 1232   1.489   1.598  10.440 -0.0786  0.1853 -0.2627
   17CHL1   H2B 1233   1.622   1.699  10.432 -2.4405  0.9511 -0.1597
   17CHL1   C20 1234   1.765   1.587   9.467 -0.6887 -0.7152  0.0318
   17CHL1   H20 1235   1.843   1.665   9.479 -0.1085 -1.5423  2.0051
   17CHL1   C21 1236   1.631   1.657   9.444  0.2163 -0.5676  0.3696
   17CHL1  H21A 1237   1.542   1.599   9.473 -0.0833 -1.2455 -1.7364
   17CHL1  H21B 1238   1.615   1.673   9.335 -0.7361  1.1838  0.7349
   17CHL1  H21C 1239   1.616   1.743   9.513 -1.5379 -0.3656 -0.2114
   17CHL1   C22 1240   1.792   1.509   9.340 -0.3232 -0.2659 -0.0624
   17CHL1  H22A 1241   1.883   1.446   9.341 -0.5755 -0.6410 -0.3489
   17CHL1  H22B 1242   1.708   1.441   9.311  0.9498 -1.5289 -0.9039
   17CHL1   C23 1243   1.831   1.598   9.220  0.2349  0.7897  0.1941
   17CHL1  H23A 1244   1.742   1.651   9.179 -1.3587 -0.5732  1.7048
   17CHL1  H23B 1245   1.898   1.682   9.248 -0.5484  1.9117 -1.1293
   17CHL1   C24 1246   1.890   1.512   9.109 -0.9460 -0.0314  0.4698
   17CHL1  H24A 1247   1.982   1.459   9.143 -0.9886 -0.3164  0.1527
   17CHL1  H24B 1248   1.831   1.427   9.067  2.8955 -2.9529  0.3315
   17CHL1   C25 1249   1.952   1.590   8.986  0.5913 -0.3897 -0.3739
   17CHL1   H25 1250   2.020   1.666   9.030 -0.3435  0.2142  0.0922
   17CHL1   C26 1251   2.040   1.503   8.892 -0.5983  0.0695 -0.2070
   17CHL1  H26A 1252   2.139   1.492   8.940 -0.6464 -0.1925 -0.1674
   17CHL1  H26B 1253   1.996   1.404   8.868  2.2014 -2.3409  3.5150
   17CHL1  H26C 1254   2.054   1.545   8.790  0.2097 -0.8370 -0.4788
   17CHL1   C27 1255   1.841   1.658   8.912 -0.1628  0.6269  0.3159
   17CHL1  H27A 1256   1.788   1.721   8.987  0.1859 -0.5012  1.5332
   17CHL1  H27B 1257   1.876   1.721   8.827 -0.5428  0.3114 -0.0794
   17CHL1  H27C 1258   1.767   1.588   8.868  0.6727  0.2675 -0.5602
   18CHL1    C3 1259   0.346   5.346  10.199  0.1619 -0.8051  0.5269
   18CHL1    H3 1260   0.256   5.395  10.158 -0.6184 -1.6806  1.1625
   18CHL1    O3 1261   0.354   5.373  10.336  0.3638 -0.5594  0.3508
   18CHL1   H3' 1262   0.388   5.463  10.341 -0.4707 -0.2486  0.5661
   18CHL1    C4 1263   0.338   5.198  10.175  0.0276  0.4669  0.3252
   18CHL1   H4A 1264   0.433   5.159  10.218  0.1950 -0.3459 -0.7492
   18CHL1   H4B 1265   0.253   5.160  10.235 -0.9657  0.1182 -1.2307
   18CHL1    C5 1266   0.331   5.167  10.031  0.5852  0.3134  1.2608
   18CHL1    C6 1267   0.231   5.094   9.975 -0.4454 -0.3260  0.4276
   18CHL1    H6 1268   0.145   5.057  10.034  0.2787 -1.7917  0.5899
   18CHL1    C7 1269   0.230   5.052   9.825 -0.2923 -0.7003  0.0702
   18CHL1   H7A 1270   0.221   4.941   9.823  0.0947 -0.7597  1.0572
   18CHL1   H7B 1271   0.136   5.096   9.786 -2.5289 -2.6204  2.8367
   18CHL1    C8 1272   0.363   5.088   9.746  0.7166  0.4655 -0.1371
   18CHL1    H8 1273   0.435   5.006   9.765  2.3808  2.1851  1.4841
   18CHL1   C14 1274   0.341   5.109   9.588  0.5190  0.0594  0.3554
   18CHL1   H14 1275   0.292   5.208   9.579  0.5109  0.1385  1.1757
   18CHL1   C15 1276   0.246   5.013   9.514  0.4079  0.0147  0.6683
   18CHL1  H15A 1277   0.220   4.916   9.563 -0.8429 -0.9875 -1.8095
   18CHL1  H15B 1278   0.152   5.072   9.508  0.1765 -0.4497 -0.4904
   18CHL1   C16 1279   0.311   4.995   9.374 -0.4091  0.6518  0.7127
   18CHL1  H16A 1280   0.357   4.895   9.390 -0.0578  0.9230  1.4444
   18CHL1  H16B 1281   0.236   4.987   9.292 -2.1437 -0.7673  2.3199
   18CHL1   C17 1282   0.422   5.104   9.359  0.5956 -0.0905 -0.7469
   18CHL1   H17 1283   0.374   5.202   9.335 -1.0814  0.0770  2.5934
   18CHL1   C13 1284   0.466   5.126   9.508  0.1988  0.2370  0.7111
   18CHL1   C18 1285   0.574   5.020   9.539  0.2104  0.1189 -0.3082
   18CHL1  H18A 1286   0.610   5.015   9.644 -3.3235 -0.6649  1.0076
   18CHL1  H18B 1287   0.536   4.919   9.514  1.6076 -0.5031 -0.0417
   18CHL1  H18C 1288   0.666   5.040   9.479  0.3582  0.9119  0.1684
   18CHL1   C12 1289   0.517   5.262   9.545 -0.4745 -0.9002  0.6911
   18CHL1  H12A 1290   0.613   5.292   9.499  0.1248  1.8563  3.3526
   18CHL1  H12B 1291   0.448   5.344   9.513  0.3803 -0.0733  0.9256
   18CHL1   C11 1292   0.537   5.274   9.701 -0.2982 -0.1152  0.3025
   18CHL1  H11A 1293   0.628   5.215   9.724  1.1044  2.1230  0.8189
   18CHL1  H11B 1294   0.547   5.382   9.727 -1.5716  0.6206 -1.9675
   18CHL1    C9 1295   0.416   5.223   9.788 -0.2829  0.9960 -0.4018
   18CHL1    H9 1296   0.329   5.287   9.762 -1.2682 -0.4290 -0.7400
   18CHL1   C10 1297   0.442   5.233   9.946  0.2076  0.2220  0.8600
   18CHL1   C19 1298   0.560   5.144   9.977  0.5834 -0.2148  0.0429
   18CHL1  H19A 1299   0.549   5.035   9.960 -1.5537 -0.1977  0.9401
   18CHL1  H19B 1300   0.648   5.172   9.915 -0.1599 -0.9730 -1.4235
   18CHL1  H19C 1301   0.589   5.161  10.083  1.6697 -1.6548  0.0138
   18CHL1    C1 1302   0.472   5.379   9.979  0.7009  0.6898  0.1869
   18CHL1   H1A 1303   0.564   5.414   9.927  0.9257  1.8695  1.3223
   18CHL1   H1B 1304   0.385   5.437   9.942 -2.4270 -3.2997  0.6700
   18CHL1    C2 1305   0.469   5.409  10.131 -0.0575 -0.1845 -0.0068
   18CHL1   H2A 1306   0.468   5.519  10.148 -2.0848 -0.2899  0.8244
   18CHL1   H2B 1307   0.558   5.366  10.181  0.5618  2.5319  1.4147
   18CHL1   C20 1308   0.525   5.073   9.246  0.3691 -0.1462  0.0758
   18CHL1   H20 1309   0.592   4.996   9.289  1.7385  0.6107 -0.6227
   18CHL1   C21 1310   0.614   5.199   9.224  0.8201  0.1113  0.7311
   18CHL1  H21A 1311   0.662   5.189   9.124 -0.8725 -0.2782 -0.0801
   18CHL1  H21B 1312   0.681   5.211   9.312  0.3039  1.7086  0.9464
   18CHL1  H21C 1313   0.547   5.286   9.210 -0.0671 -0.5511  0.7521
   18CHL1   C22 1314   0.469   5.009   9.115 -0.3948  0.3925  0.0813
   18CHL1  H22A 1315   0.551   4.963   9.056 -1.5256 -0.2079 -1.0718
   18CHL1  H22B 1316   0.408   4.918   9.133  0.8385 -0.5989 -0.6455
   18CHL1   C23 1317   0.387   5.107   9.039 -0.4638  0.4664 -0.2913
   18CHL1  H23A 1318   0.290   5.120   9.092 -0.7220  2.2214 -1.1286
   18CHL1  H23B 1319   0.440   5.203   9.019  0.3786 -0.0997 -0.8295
   18CHL1   C24 1320   0.360   5.038   8.905  0.5402 -0.2851 -1.0899
   18CHL1  H24A 1321   0.439   5.062   8.830 -0.4542  1.1017 -1.7461
   18CHL1  H24B 1322   0.356   4.928   8.911 -0.5041 -0.1967  0.0936
   18CHL1   C25 1323   0.224   5.086   8.848  0.0076  0.1784  0.2292
   18CHL1   H25 1324   0.154   5.054   8.928 -1.1917 -0.4164 -1.0123
   18CHL1   C26 1325   0.218   5.233   8.820  0.6640 -0.6385  0.1645
   18CHL1  H26A 1326   0.217   5.283   8.919  1.1584 -0.3722  0.0419
   18CHL1  H26B 1327   0.307   5.277   8.769  0.7639 -0.5400  0.4209
   18CHL1  H26C 1328   0.124   5.265   8.770  1.0472  4.5034  2.0675
   18CHL1   C27 1329   0.186   5.009   8.724  0.0131  0.0438  0.4629
   18CHL1  H27A 1330   0.099   5.053   8.670  0.3000 -0.0557 -0.0858
   18CHL1  H27B 1331   0.277   4.998   8.661 -0.2901 -1.4803  0.2682
   18CHL1  H27C 1332   0.159   4.907   8.758 -1.8107  0.3936  0.1915
   19CHL1    C3 1333   5.425   4.347  10.184  0.0966 -0.0698  0.6973
   19CHL1    H3 1334   5.519   4.406  10.188  0.6959 -1.0398  1.7189
   19CHL1    O3 1335   5.382   4.327  10.313  0.0954  0.5715 -0.3819
   19CHL1   H3' 1336   5.297   4.287  10.296  0.4043 -0.2318 -0.0369
   19CHL1    C4 1337   5.318   4.425  10.110  0.4089  0.2465 -0.6417
   19CHL1   H4A 1338   5.214   4.386  10.118 -0.3312  2.1120 -0.6310
   19CHL1   H4B 1339   5.319   4.520  10.167  1.1792  0.3631 -0.8384
   19CHL1    C5 1340   5.349   4.445   9.966  0.1439 -0.4956  0.6552
   19CHL1    C6 1341   5.362   4.574   9.916  0.6514  0.4197 -0.2886
   19CHL1    H6 1342   5.357   4.656   9.989  2.4119 -0.8344  1.3415
   19CHL1    C7 1343   5.382   4.601   9.771  0.0297 -0.2001  0.0786
   19CHL1   H7A 1344   5.309   4.676   9.734 -0.9812 -2.4559 -2.9521
   19CHL1   H7B 1345   5.483   4.645   9.757  0.8225 -2.0316 -0.2953
   19CHL1    C8 1346   5.365   4.485   9.683  0.4421  0.4548 -0.0158
   19CHL1    H8 1347   5.259   4.454   9.671  0.8259 -0.5550 -0.9343
   19CHL1   C14 1348   5.430   4.507   9.546 -0.4003  0.8593 -0.1164
   19CHL1   H14 1349   5.535   4.527   9.577  0.3539  0.2146 -2.0679
   19CHL1   C15 1350   5.364   4.620   9.464  0.0858 -0.4660 -0.4509
   19CHL1  H15A 1351   5.255   4.622   9.489 -0.0385 -0.5333 -0.9832
   19CHL1  H15B 1352   5.395   4.718   9.507  0.7184 -0.7573 -0.2352
   19CHL1   C16 1353   5.397   4.588   9.314 -0.9035 -0.0968 -0.1998
   19CHL1  H16A 1354   5.306   4.570   9.252 -1.2229 -0.1094  0.2676
   19CHL1  H16B 1355   5.455   4.676   9.277  1.2192 -1.7067 -0.8895
   19CHL1   C17 1356   5.486   4.457   9.320 -0.4779 -0.2085  0.7507
   19CHL1   H17 1357   5.590   4.490   9.343 -0.5398  0.7071 -0.1945
   19CHL1   C13 1358   5.428   4.388   9.451 -0.4954  0.1854 -0.5334
   19CHL1   C18 1359   5.286   4.341   9.417 -0.3912 -0.1049  0.0430
   19CHL1  H18A 1360   5.227   4.298   9.501  0.5768  2.1821  2.0144
   19CHL1  H18B 1361   5.226   4.427   9.380  1.9548  0.8409 -1.8459
   19CHL1  H18C 1362   5.294   4.266   9.335  0.8619  0.7155 -0.6189
   19CHL1   C12 1363   5.511   4.275   9.514  0.1067  0.3645 -0.6803
   19CHL1  H12A 1364   5.505   4.181   9.454  0.1073 -0.2519  0.2654
   19CHL1  H12B 1365   5.609   4.323   9.536 -1.5489  2.9402  1.7972
   19CHL1   C11 1366   5.457   4.239   9.662  0.4912 -0.4019 -0.0702
   19CHL1  H11A 1367   5.367   4.175   9.652  0.9275 -1.1392  0.5387
   19CHL1  H11B 1368   5.529   4.161   9.694  0.6001 -0.0746  0.4906
   19CHL1    C9 1369   5.432   4.362   9.751 -0.2221 -0.0397  0.5648
   19CHL1    H9 1370   5.531   4.406   9.776 -1.3971  2.6746  0.7860
   19CHL1   C10 1371   5.369   4.317   9.886  0.3539 -0.1619 -0.5652
   19CHL1   C19 1372   5.237   4.234   9.871 -0.0451 -0.4179  0.1407
   19CHL1  H19A 1373   5.176   4.236   9.964 -3.1358 -0.2701 -1.7518
   19CHL1  H19B 1374   5.181   4.278   9.786 -1.2869 -3.2038 -0.6028
   19CHL1  H19C 1375   5.263   4.128   9.853  2.5468 -0.1024  1.5755
   19CHL1    C1 1376   5.470   4.226   9.953 -0.3272 -0.4097 -0.8342
   19CHL1   H1A 1377   5.472   4.125   9.906  2.9419 -0.4967 -0.7906
   19CHL1   H1B 1378   5.576   4.256   9.937  0.5734 -1.9288  1.6304
   19CHL1    C2 1379   5.440   4.212  10.109  0.2253  0.3752 -0.0883
   19CHL1   H2A 1380   5.523   4.154  10.153  0.0840 -0.5719 -1.0370
   19CHL1   H2B 1381   5.349   4.151  10.125  0.9646 -0.5979  0.4787
   19CHL1   C20 1382   5.484   4.391   9.180 -0.4236  0.7071 -0.0347
   19CHL1   H20 1383   5.387   4.340   9.165 -0.7827  1.1227  0.8526
   19CHL1   C21 1384   5.594   4.278   9.181  0.0154  0.8464  0.1935
   19CHL1  H21A 1385   5.583   4.206   9.265  0.6938  0.3805 -0.1105
   19CHL1  H21B 1386   5.696   4.321   9.196  0.5451 -0.1847 -0.3915
   19CHL1  H21C 1387   5.588   4.216   9.090 -1.6923  0.4113  0.5629
   19CHL1   C22 1388   5.519   4.493   9.069  0.7702 -0.0913  0.9099
   19CHL1  H22A 1389   5.427   4.547   9.039  1.3338  0.4766  0.1732
   19CHL1  H22B 1390   5.597   4.565   9.101 -1.1387  2.5984 -0.1195
   19CHL1   C23 1391   5.578   4.434   8.938 -0.0781 -0.1198 -0.5732
   19CHL1  H23A 1392   5.677   4.401   8.977 -0.3386  2.1868  2.4708
   19CHL1  H23B 1393   5.508   4.355   8.904 -0.6995  0.7721 -1.4041
   19CHL1   C24 1394   5.605   4.553   8.842  0.2384  0.0280  0.2527
   19CHL1  H24A 1395   5.507   4.594   8.812  0.2822 -1.1901 -1.7016
   19CHL1  H24B 1396   5.662   4.628   8.902  1.2868 -0.8419  0.3848
   19CHL1   C25 1397   5.685   4.523   8.707  0.8017  0.1642  0.3820
   19CHL1   H25 1398   5.661   4.604   8.635 -0.0140  0.5403  1.0572
   19CHL1   C26 1399   5.830   4.522   8.759 -0.0922 -0.6308 -0.1939
   19CHL1  H26A 1400   5.847   4.457   8.848  2.6921  0.8968  0.5074
   19CHL1  H26B 1401   5.898   4.474   8.686 -0.3963  0.1670 -1.0226
   19CHL1  H26C 1402   5.860   4.628   8.776 -0.9458 -0.7310  2.3606
   19CHL1   C27 1403   5.657   4.387   8.640  0.4977  0.1714  0.1267
   19CHL1  H27A 1404   5.709   4.388   8.541 -1.0968  0.2552 -0.7440
   19CHL1  H27B 1405   5.687   4.303   8.705  1.3726 -1.1366 -1.8598
   19CHL1  H27C 1406   5.547   4.386   8.623  0.5795 -0.9540 -0.4438
   20CHL1    C3 1407   1.503   2.620  10.420  0.2642  0.3607 -0.2669
   20CHL1    H3 1408   1.560   2.714  10.429 -0.1866  0.5805  0.3959
   20CHL1    O3 1409   1.460   2.570  10.538  0.6919  0.9175  0.5580
   20CHL1   H3' 1410   1.419   2.487  10.515  1.1684  0.6005  0.8273
   20CHL1    C4 1411   1.378   2.642  10.335  0.2818 -0.0938 -0.1230
   20CHL1   H4A 1412   1.317   2.549  10.329 -0.7235  0.6344 -2.5166
   20CHL1   H4B 1413   1.314   2.712  10.393 -1.1485 -1.3033 -0.1712
   20CHL1    C5 1414   1.410   2.682  10.192  0.1664  0.1112 -0.1299
   20CHL1    C6 1415   1.357   2.790  10.136 -0.7207  0.6214 -0.1718
   20CHL1    H6 1416   1.283   2.853  10.188 -1.3339 -1.1525  1.2235
   20CHL1    C7 1417   1.393   2.823   9.994 -0.6119  0.0766  0.2455
   20CHL1   H7A 1418   1.310   2.876   9.942  0.9138  1.4152 -0.9201
   20CHL1   H7B 1419   1.489   2.880   9.997  0.3668 -1.5488  0.7810
   20CHL1    C8 1420   1.431   2.704   9.914  0.0512  0.0914  0.6803
   20CHL1    H8 1421   1.339   2.642   9.912  0.8657 -1.1945  1.2349
   20CHL1   C14 1422   1.472   2.748   9.773  0.4570 -0.3874  0.2748
   20CHL1   H14 1423   1.556   2.818   9.790 -0.7281  1.3619 -0.7202
   20CHL1   C15 1424   1.376   2.845   9.703  0.0985 -0.0638 -0.5031
   20CHL1  H15A 1425   1.268   2.822   9.712 -0.2244  1.5592  0.0375
   20CHL1  H15B 1426   1.396   2.949   9.738 -1.4842 -0.2194  0.9853
   20CHL1   C16 1427   1.417   2.829   9.556 -0.3431  0.0624 -0.2024
   20CHL1  H16A 1428   1.327   2.805   9.495  0.0617  3.7299 -2.5847
   20CHL1  H16B 1429   1.459   2.922   9.512 -1.9202  0.6530 -0.5517
   20CHL1   C17 1430   1.535   2.717   9.546 -0.1196 -1.0461  0.8289
   20CHL1   H17 1431   1.625   2.782   9.561 -0.3829 -0.8219  1.4747
   20CHL1   C13 1432   1.516   2.636   9.678  0.7047 -0.0408 -0.1811
   20CHL1   C18 1433   1.409   2.534   9.648  0.6335  0.2474  0.8175
   20CHL1  H18A 1434   1.444   2.443   9.596  0.6178  1.3137 -1.1511
   20CHL1  H18B 1435   1.362   2.506   9.745  0.5744  0.6737  0.9137
   20CHL1  H18C 1436   1.330   2.572   9.579 -0.5030 -3.3970 -0.0967
   20CHL1   C12 1437   1.632   2.564   9.747 -0.5861 -0.4619 -0.0313
   20CHL1  H12A 1438   1.665   2.474   9.692  1.2522 -0.5667  1.1875
   20CHL1  H12B 1439   1.723   2.627   9.757 -1.1812  0.3498  0.4080
   20CHL1   C11 1440   1.601   2.523   9.886  0.3479  0.4395 -0.1392
   20CHL1  H11A 1441   1.534   2.435   9.888 -1.4310  1.7454  0.9953
   20CHL1  H11B 1442   1.699   2.495   9.930  0.4330 -0.0584 -0.6429
   20CHL1    C9 1443   1.544   2.630   9.979 -0.1067 -0.6493  0.0685
   20CHL1    H9 1444   1.617   2.712   9.994  0.4689 -0.7869 -1.7262
   20CHL1   C10 1445   1.502   2.589  10.113  0.3421 -0.1362  0.7121
   20CHL1   C19 1446   1.425   2.457  10.105  0.1823 -0.1999  0.7502
   20CHL1  H19A 1447   1.332   2.464  10.045  0.4170  0.5799  0.4617
   20CHL1  H19B 1448   1.483   2.370  10.067 -0.6100 -0.6851  0.6240
   20CHL1  H19C 1449   1.393   2.423  10.206  1.0153 -1.7652  0.5267
   20CHL1    C1 1450   1.625   2.578  10.215 -0.1690 -0.1204 -0.0673
   20CHL1   H1A 1451   1.698   2.509  10.167  0.3320 -0.4276  1.0764
   20CHL1   H1B 1452   1.667   2.679  10.230  0.4024 -0.5131  1.0977
   20CHL1    C2 1453   1.596   2.519  10.351 -0.3366  0.4930  0.3184
   20CHL1   H2A 1454   1.692   2.491  10.400 -1.6603 -0.9034  2.2501
   20CHL1   H2B 1455   1.543   2.422  10.344 -0.1002  0.3556  0.4092
   20CHL1   C20 1456   1.555   2.641   9.417  0.4237 -0.2452  0.0327
   20CHL1   H20 1457   1.492   2.550   9.413 -1.0110  0.7659 -2.5611
   20CHL1   C21 1458   1.708   2.614   9.405  0.3651  0.6814 -0.1570
   20CHL1  H21A 1459   1.721   2.542   9.322 -2.2975  0.9205 -0.8647
   20CHL1  H21B 1460   1.748   2.558   9.492 -2.0732 -1.4385 -0.2703
   20CHL1  H21C 1461   1.771   2.702   9.381  0.7782  0.1657 -0.9933
   20CHL1   C22 1462   1.513   2.718   9.285  0.2021 -0.0786 -0.6854
   20CHL1  H22A 1463   1.417   2.774   9.291 -0.0228 -0.1164 -2.8484
   20CHL1  H22B 1464   1.585   2.798   9.255  0.3696  0.6638  1.5116
   20CHL1   C23 1465   1.513   2.624   9.165 -0.0478  0.3028 -0.1993
   20CHL1  H23A 1466   1.604   2.560   9.158  0.0406  0.6090 -2.3199
   20CHL1  H23B 1467   1.428   2.553   9.178  1.8531 -2.5993 -2.2425
   20CHL1   C24 1468   1.495   2.697   9.034 -0.0344 -0.2593 -0.3898
   20CHL1  H24A 1469   1.393   2.741   9.030  0.1481  0.1394 -0.6327
   20CHL1  H24B 1470   1.571   2.778   9.032  0.3500 -0.5481  1.2149
   20CHL1   C25 1471   1.516   2.614   8.901 -0.0130 -0.0350  0.1774
   20CHL1   H25 1472   1.616   2.567   8.911 -0.3613 -1.0439 -0.8312
   20CHL1   C26 1473   1.402   2.509   8.889 -0.2472 -0.3901  0.7729
   20CHL1  H26A 1474   1.304   2.561   8.893 -0.5993 -0.6592 -2.0239
   20CHL1  H26B 1475   1.398   2.456   8.791 -0.2708  0.5600  0.2545
   20CHL1  H26C 1476   1.398   2.433   8.970 -1.2812 -0.8449  0.3157
   20CHL1   C27 1477   1.525   2.695   8.775 -0.1213  0.1364 -0.2304
   20CHL1  H27A 1478   1.604   2.772   8.760  0.2759 -0.5693 -1.9958
   20CHL1  H27B 1479   1.533   2.617   8.696 -0.4336 -0.5350  0.3852
   20CHL1  H27C 1480   1.434   2.757   8.764 -0.3492  0.2166  1.7385
   21CHL1    C3 1481   0.223   0.259  10.016 -0.2289  0.5923 -0.0600
   21CHL1    H3 1482   0.317   0.216   9.977 -0.2832 -3.1207  3.3003
   21CHL1    O3 1483   0.231   0.249  10.156 -0.1080 -0.0161 -0.0355
   21CHL1   H3' 1484   0.150   0.287  10.191  0.5434  2.0972 -0.6575
   21CHL1    C4 1485   0.186   0.405   9.978  0.8702 -0.5901 -0.3938
   21CHL1   H4A 1486   0.087   0.432  10.018  0.8464 -1.0254 -0.1555
   21CHL1   H4B 1487   0.264   0.472  10.021 -0.0152 -0.2893  0.7755
   21CHL1    C5 1488   0.182   0.415   9.832  0.1888 -0.2520  0.2313
   21CHL1    C6 1489   0.264   0.494   9.761  0.0779 -0.1646 -0.6539
   21CHL1    H6 1490   0.341   0.554   9.811  2.9803 -3.6233 -0.5868
   21CHL1    C7 1491   0.252   0.503   9.613  0.3336  0.5750  0.4326
   21CHL1   H7A 1492   0.252   0.609   9.579  0.5017  0.3299 -0.3517
   21CHL1   H7B 1493   0.344   0.466   9.563  0.3718  2.0371 -0.6434
   21CHL1    C8 1494   0.127   0.442   9.543 -0.0967  0.5770 -0.1556
   21CHL1    H8 1495   0.040   0.509   9.560 -2.2188 -1.9180 -0.4990
   21CHL1   C14 1496   0.142   0.415   9.391 -0.2152  0.0432  0.0732
   21CHL1   H14 1497   0.219   0.335   9.391  0.1781  0.3675 -2.1034
   21CHL1   C15 1498   0.208   0.519   9.292  0.3376  0.0247 -0.7754
   21CHL1  H15A 1499   0.153   0.614   9.305  0.8978  0.2795 -0.2122
   21CHL1  H15B 1500   0.316   0.542   9.304  0.3125  0.7112 -1.7354
   21CHL1   C16 1501   0.173   0.467   9.154  0.4406 -0.2984  0.2029
   21CHL1  H16A 1502   0.123   0.554   9.106  0.0510 -0.7514 -0.2180
   21CHL1  H16B 1503   0.259   0.435   9.091 -0.1921  0.7257 -1.2410
   21CHL1   C17 1504   0.079   0.340   9.162 -0.1855 -0.7922  0.0258
   21CHL1   H17 1505   0.147   0.252   9.160  1.2570  0.2835 -0.1713
   21CHL1   C13 1506   0.022   0.352   9.312 -0.6536  0.0564  0.2332
   21CHL1   C18 1507  -0.099   0.448   9.306 -0.6367  0.2492 -0.9661
   21CHL1  H18A 1508  -0.066   0.546   9.267  0.4733 -0.1086 -0.9741
   21CHL1  H18B 1509  -0.180   0.411   9.240 -0.0403  0.6023 -1.9215
   21CHL1  H18C 1510  -0.121   0.463   9.414  3.3212 -1.4531  0.2671
   21CHL1   C12 1511   0.006   0.215   9.380  0.2654  0.2140  0.0482
   21CHL1  H12A 1512  -0.085   0.164   9.339  0.2878 -3.2267  3.6217
   21CHL1  H12B 1513   0.098   0.155   9.366  0.4687  0.5126  0.1157
   21CHL1   C11 1514  -0.029   0.238   9.529  0.0046  0.1534  0.1720
   21CHL1  H11A 1515  -0.123   0.297   9.538  0.5347  0.8656  1.2633
   21CHL1  H11B 1516  -0.048   0.139   9.575 -0.1111 -0.1126 -0.4374
   21CHL1    C9 1517   0.086   0.311   9.606 -0.5031 -0.1283  0.5633
   21CHL1    H9 1518   0.175   0.248   9.587 -0.5187  0.5721 -2.1729
   21CHL1   C10 1519   0.077   0.314   9.766 -0.5199 -0.2005  0.4447
   21CHL1   C19 1520  -0.064   0.366   9.798 -0.1085  0.7439 -0.0217
   21CHL1  H19A 1521  -0.084   0.472   9.772  0.0864  0.5081 -1.2071
   21CHL1  H19B 1522  -0.139   0.302   9.746 -1.7205  1.0827  1.7809
   21CHL1  H19C 1523  -0.084   0.349   9.906 -0.1316  1.5658  0.1074
   21CHL1    C1 1524   0.102   0.171   9.824 -0.5544  0.0227 -0.1401
   21CHL1   H1A 1525   0.011   0.114   9.797 -1.8786  0.2720  3.2789
   21CHL1   H1B 1526   0.194   0.130   9.776 -2.4790 -4.6292 -0.3081
   21CHL1    C2 1527   0.111   0.165   9.977  0.6238  0.4588  0.6185
   21CHL1   H2A 1528   0.121   0.067  10.027  1.3519  0.8710  1.2967
   21CHL1   H2B 1529   0.020   0.211  10.020 -1.0263 -1.2707 -0.8406
   21CHL1   C20 1530  -0.011   0.323   9.040 -0.2937  0.2414 -0.2837
   21CHL1   H20 1531  -0.094   0.397   9.050 -0.4076  0.0466  0.2322
   21CHL1   C21 1532  -0.081   0.191   9.045  0.1533  0.0307 -0.2563
   21CHL1  H21A 1533  -0.158   0.175   8.967  0.7541  0.0168 -0.8471
   21CHL1  H21B 1534  -0.137   0.188   9.142 -2.8714  0.7579 -1.8556
   21CHL1  H21C 1535  -0.015   0.102   9.037 -1.0820 -0.9320 -0.2366
   21CHL1   C22 1536   0.065   0.340   8.898  0.6472  0.5315  0.0153
   21CHL1  H22A 1537   0.119   0.437   8.892  1.4676  0.3068  2.3927
   21CHL1  H22B 1538   0.133   0.254   8.880 -0.2380  0.3365 -2.7644
   21CHL1   C23 1539  -0.032   0.317   8.774 -0.2158  0.3554 -0.1348
   21CHL1  H23A 1540  -0.077   0.216   8.768 -1.9055  0.8766  2.3305
   21CHL1  H23B 1541  -0.127   0.373   8.790 -1.5310 -1.5975 -0.7768
   21CHL1   C24 1542   0.047   0.360   8.648  0.5785 -0.4954 -0.3766
   21CHL1  H24A 1543   0.081   0.465   8.656 -0.9615  0.1234 -1.3905
   21CHL1  H24B 1544   0.140   0.301   8.655  2.2296  2.0137  0.1502
   21CHL1   C25 1545  -0.024   0.330   8.515 -0.8113 -0.5480 -0.5268
   21CHL1   H25 1546   0.052   0.337   8.435 -0.8505  0.7692 -0.4847
   21CHL1   C26 1547  -0.092   0.198   8.499 -0.0553 -0.3436 -1.1573
   21CHL1  H26A 1548  -0.007   0.128   8.510  0.8917  1.0237  1.0038
   21CHL1  H26B 1549  -0.173   0.181   8.574 -0.9806 -0.8499 -2.2446
   21CHL1  H26C 1550  -0.139   0.166   8.404 -1.2343 -2.9095  0.1964
   21CHL1   C27 1551  -0.119   0.442   8.471  0.2665 -0.4565  0.7533
   21CHL1  H27A 1552  -0.216   0.436   8.525 -0.4152 -0.4808 -0.4449
   21CHL1  H27B 1553  -0.084   0.547   8.477 -0.8024 -0.0256 -0.1025
   21CHL1  H27C 1554  -0.148   0.444   8.364 -1.7998  3.5978  1.1646
   22CHL1    C3 1555   3.858   1.264  10.099  0.2064 -0.0710  0.4356
   22CHL1    H3 1556   3.829   1.157  10.084  0.3162  0.3378 -4.0137
   22CHL1    O3 1557   3.899   1.287  10.234  0.6253  0.1003  0.3210
   22CHL1   H3' 1558   3.941   1.372  10.221 -0.0570  0.1779 -1.7008
   22CHL1    C4 1559   3.981   1.290  10.005  0.3316 -0.1220 -0.6382
   22CHL1   H4A 1560   4.009   1.395  10.026  0.0200 -0.4864  1.9435
   22CHL1   H4B 1561   4.068   1.228  10.036  0.6888 -0.8439 -2.9374
   22CHL1    C5 1562   3.951   1.275   9.857  0.4204 -0.4897  0.1952
   22CHL1    C6 1563   4.029   1.190   9.781 -0.6699  0.3337  0.1126
   22CHL1    H6 1564   4.113   1.140   9.833 -0.7101  0.3569  0.1993
   22CHL1    C7 1565   4.012   1.175   9.629  0.2117 -0.0317 -0.4295
   22CHL1   H7A 1566   4.114   1.186   9.585  2.2451 -2.0231  3.2293
   22CHL1   H7B 1567   3.974   1.074   9.605  3.0300 -1.0697 -0.9725
   22CHL1    C8 1568   3.919   1.284   9.573 -0.0398  0.7177 -0.3106
   22CHL1    H8 1569   3.980   1.376   9.577  1.0806 -0.0028 -0.3735
   22CHL1   C14 1570   3.881   1.244   9.435 -0.3279  0.5172  0.8330
   22CHL1   H14 1571   3.828   1.146   9.433  1.1598 -0.3076 -0.8863
   22CHL1   C15 1572   4.005   1.226   9.340 -0.3178  0.9064  0.2517
   22CHL1  H15A 1573   4.087   1.301   9.351  1.4103 -0.1717 -3.5773
   22CHL1  H15B 1574   4.061   1.133   9.362 -0.3876  0.9339  0.5525
   22CHL1   C16 1575   3.939   1.233   9.199 -0.0017  0.6384 -0.1053
   22CHL1  H16A 1576   3.986   1.317   9.142 -2.0731  2.0994  0.2195
   22CHL1  H16B 1577   3.951   1.135   9.148 -2.7982  0.7335 -1.1554
   22CHL1   C17 1578   3.791   1.260   9.220 -0.3061 -0.2812  0.6161
   22CHL1   H17 1579   3.739   1.165   9.242 -1.1511  0.1850  0.6754
   22CHL1   C13 1580   3.793   1.336   9.357 -0.3146  0.0691 -0.5205
   22CHL1   C18 1581   3.859   1.475   9.346 -0.4120 -0.0591 -0.2470
   22CHL1  H18A 1582   3.952   1.477   9.285 -0.7713  2.6741 -0.8687
   22CHL1  H18B 1583   3.791   1.549   9.297  0.5127  0.1507 -1.2638
   22CHL1  H18C 1584   3.902   1.515   9.440  2.3107 -0.1426 -1.3807
   22CHL1   C12 1585   3.658   1.338   9.435  0.7142  0.0296  0.4453
   22CHL1  H12A 1586   3.594   1.405   9.374 -0.3285 -0.9264  0.4491
   22CHL1  H12B 1587   3.605   1.240   9.441 -1.3958  0.7911 -2.9200
   22CHL1   C11 1588   3.682   1.385   9.577 -0.2240 -0.7194 -0.8679
   22CHL1  H11A 1589   3.720   1.487   9.555  1.0546 -1.4195 -2.0393
   22CHL1  H11B 1590   3.588   1.391   9.636 -0.6695 -2.4727 -1.3330
   22CHL1    C9 1591   3.791   1.295   9.655 -0.5779 -0.4515  0.0249
   22CHL1    H9 1592   3.751   1.191   9.665 -1.4397 -0.1064  0.2412
   22CHL1   C10 1593   3.830   1.344   9.799 -0.1218  0.6307 -0.0059
   22CHL1   C19 1594   3.846   1.498   9.792  0.2353  0.0868 -0.1475
   22CHL1  H19A 1595   3.878   1.529   9.893 -0.8094  0.2974  0.1348
   22CHL1  H19B 1596   3.921   1.531   9.717  1.1965  1.9551  1.5583
   22CHL1  H19C 1597   3.752   1.558   9.790  0.7735  1.1224  2.1451
   22CHL1    C1 1598   3.712   1.310   9.903 -0.3470 -0.3268  0.5188
   22CHL1   H1A 1599   3.623   1.368   9.872 -0.0961 -0.9313 -1.5183
   22CHL1   H1B 1600   3.700   1.200   9.895 -1.7634 -0.1530  0.0846
   22CHL1    C2 1601   3.740   1.340  10.052 -0.3725  0.0175  0.1833
   22CHL1   H2A 1602   3.654   1.319  10.119  1.0213  2.6795  3.0494
   22CHL1   H2B 1603   3.761   1.448  10.070 -0.2670  0.5470 -2.6122
   22CHL1   C20 1604   3.720   1.347   9.112  0.2925 -0.0959 -0.1356
   22CHL1   H20 1605   3.640   1.405   9.163  1.0974  0.3404  0.6677
   22CHL1   C21 1606   3.652   1.235   9.023  0.0206  0.7454  0.0786
   22CHL1  H21A 1607   3.724   1.171   8.968 -0.6664  0.0214 -0.0017
   22CHL1  H21B 1608   3.568   1.270   8.959  1.9968  0.8899 -2.6133
   22CHL1  H21C 1609   3.609   1.155   9.087  1.1053 -1.2518 -1.5569
   22CHL1   C22 1610   3.800   1.446   9.023 -0.0938 -0.1343  0.1693
   22CHL1  H22A 1611   3.854   1.520   9.085  0.7615 -1.3178  0.8928
   22CHL1  H22B 1612   3.885   1.402   8.966  0.4662  1.1767 -0.0264
   22CHL1   C23 1613   3.718   1.515   8.912  0.0969  0.9565 -0.6053
   22CHL1  H23A 1614   3.680   1.439   8.841  0.5178 -0.3958  0.5730
   22CHL1  H23B 1615   3.637   1.567   8.968  0.9738  1.7879 -0.0651
   22CHL1   C24 1616   3.803   1.621   8.845  0.3118 -0.2172  0.1572
   22CHL1  H24A 1617   3.739   1.701   8.802  1.9911  0.1775 -1.7902
   22CHL1  H24B 1618   3.871   1.666   8.919  0.4428 -1.1716  0.6364
   22CHL1   C25 1619   3.882   1.568   8.727 -0.6992 -0.1258 -0.3360
   22CHL1   H25 1620   3.910   1.465   8.758  0.3390  0.5485  1.0754
   22CHL1   C26 1621   3.788   1.546   8.603 -0.2880  0.1431  0.2866
   22CHL1  H26A 1622   3.741   1.643   8.578  0.2597 -0.0495 -1.6598
   22CHL1  H26B 1623   3.853   1.525   8.516  0.8962  0.3306  1.1023
   22CHL1  H26C 1624   3.724   1.457   8.621 -0.5553 -0.0998 -1.6707
   22CHL1   C27 1625   3.993   1.659   8.688 -0.0099  0.3551 -0.5616
   22CHL1  H27A 1626   3.955   1.744   8.628 -2.1013 -0.3679 -0.3176
   22CHL1  H27B 1627   4.034   1.697   8.784 -3.7680  1.8195  0.6319
   22CHL1  H27C 1628   4.070   1.597   8.637  1.1390  0.9285  0.4137
   23CHL1    C3 1629   1.999   2.618  10.472 -0.5977 -0.0727 -0.6892
   23CHL1    H3 1630   1.989   2.525  10.411  0.0185  0.3340 -1.4233
   23CHL1    O3 1631   1.959   2.600  10.611 -0.7583 -0.6016 -0.2706
   23CHL1   H3' 1632   1.864   2.594  10.615 -0.6441 -2.7878  0.2218
   23CHL1    C4 1633   2.145   2.671  10.459  0.4433 -0.1155  0.4345
   23CHL1   H4A 1634   2.150   2.768  10.512  0.7307  0.4367 -0.5794
   23CHL1   H4B 1635   2.211   2.605  10.518 -0.1816 -3.4140 -2.2317
   23CHL1    C5 1636   2.195   2.670  10.317  0.7298 -0.6357 -0.8498
   23CHL1    C6 1637   2.306   2.605  10.269 -0.4891  0.5261  0.9606
   23CHL1    H6 1638   2.373   2.544  10.331  0.5053  2.7732  2.2222
   23CHL1    C7 1639   2.350   2.608  10.123  0.7609 -0.5384  0.0221
   23CHL1   H7A 1640   2.459   2.625  10.113  0.4057  2.2223  0.0180
   23CHL1   H7B 1641   2.328   2.507  10.083  1.2272 -0.3480 -0.7343
   23CHL1    C8 1642   2.276   2.719  10.038  0.1539 -0.0641  0.1964
   23CHL1    H8 1643   2.329   2.816  10.055 -0.0654  0.3248 -1.1711
   23CHL1   C14 1644   2.282   2.677   9.891 -0.0853  0.4455  0.5324
   23CHL1   H14 1645   2.239   2.574   9.885 -0.9839  0.8878 -1.3670
   23CHL1   C15 1646   2.428   2.652   9.828  0.2566  0.4042 -0.6350
   23CHL1  H15A 1647   2.488   2.741   9.858  0.5395  0.0131 -0.0235
   23CHL1  H15B 1648   2.472   2.571   9.891  0.5580  1.7182  0.8978
   23CHL1   C16 1649   2.398   2.636   9.680  0.0764  0.9230 -0.0753
   23CHL1  H16A 1650   2.467   2.696   9.617 -1.0319  1.6174 -0.6684
   23CHL1  H16B 1651   2.413   2.534   9.640  0.0058  0.6129  0.6835
   23CHL1   C17 1652   2.252   2.690   9.655 -0.8491  0.3994  0.0827
   23CHL1   H17 1653   2.190   2.598   9.664  1.8389 -1.5424 -0.0169
   23CHL1   C13 1654   2.213   2.769   9.786 -0.6040 -0.2467  0.7627
   23CHL1   C18 1655   2.285   2.909   9.777  0.6009 -0.3628 -0.0736
   23CHL1  H18A 1656   2.225   2.970   9.706  0.3729  0.0521  0.4696
   23CHL1  H18B 1657   2.286   2.955   9.878 -0.2193  0.7843 -0.5708
   23CHL1  H18C 1658   2.392   2.907   9.745  0.4196 -1.5094 -0.6780
   23CHL1   C12 1659   2.065   2.779   9.830 -0.3792 -0.1173  0.1415
   23CHL1  H12A 1660   2.001   2.841   9.764 -3.3721  0.0546  2.9388
   23CHL1  H12B 1661   2.018   2.679   9.819  2.3278 -1.4682  0.2325
   23CHL1   C11 1662   2.057   2.831   9.973 -0.0961  0.4497  0.2645
   23CHL1  H11A 1663   2.101   2.933   9.981 -0.1947  0.5581 -0.4650
   23CHL1  H11B 1664   1.950   2.839  10.002 -0.4387  1.6183 -1.1854
   23CHL1    C9 1665   2.126   2.732  10.076 -0.5082  0.0634 -0.2043
   23CHL1    H9 1666   2.087   2.629  10.064  1.2210 -0.4725 -1.6070
   23CHL1   C10 1667   2.098   2.761  10.227  0.0830  0.3373 -0.0482
   23CHL1   C19 1668   2.133   2.905  10.252  0.0648 -0.3317  0.0446
   23CHL1  H19A 1669   2.237   2.936  10.226 -0.6135  2.1312  0.0167
   23CHL1  H19B 1670   2.064   2.979  10.206  0.5973  0.5440  0.6065
   23CHL1  H19C 1671   2.118   2.940  10.357 -4.6734  2.2178 -1.2045
   23CHL1    C1 1672   1.946   2.737  10.260 -0.1963 -0.7812  0.1179
   23CHL1   H1A 1673   1.882   2.809  10.205  1.5004  0.9033  0.2408
   23CHL1   H1B 1674   1.921   2.635  10.226 -1.9889 -0.2391 -0.3358
   23CHL1    C2 1675   1.910   2.728  10.406 -0.4814 -0.5308 -0.3237
   23CHL1   H2A 1676   1.804   2.699  10.421 -0.4633 -0.1202  0.7162
   23CHL1   H2B 1677   1.927   2.829  10.449 -3.8839  1.6668 -3.4791
   23CHL1   C20 1678   2.232   2.759   9.516 -0.6566  0.4166 -0.2593
   23CHL1   H20 1679   2.308   2.840   9.513 -1.6189  1.3301 -0.6905
   23CHL1   C21 1680   2.088   2.814   9.506 -0.5816  0.1918 -0.5279
   23CHL1  H21A 1681   2.062   2.831   9.399  0.1998  1.4848 -0.5290
   23CHL1  H21B 1682   2.067   2.903   9.568 -1.4001 -1.5648  1.8876
   23CHL1  H21C 1683   2.014   2.735   9.533 -2.7663  1.2427 -2.9956
   23CHL1   C22 1684   2.268   2.657   9.398  0.2800 -0.0669  0.1385
   23CHL1  H22A 1685   2.267   2.721   9.307 -0.6260  0.4408  0.4987
   23CHL1  H22B 1686   2.373   2.624   9.413  0.5061  0.6021  0.0433
   23CHL1   C23 1687   2.173   2.534   9.381  0.2219  0.1186 -1.0772
   23CHL1  H23A 1688   2.139   2.505   9.482 -1.6979  1.2846 -1.3518
   23CHL1  H23B 1689   2.077   2.574   9.342 -1.8955 -1.8524  1.6876
   23CHL1   C24 1690   2.229   2.426   9.295 -0.8379 -0.4641 -0.3753
   23CHL1  H24A 1691   2.309   2.367   9.344 -0.2111 -1.3090 -2.3295
   23CHL1  H24B 1692   2.147   2.356   9.266 -1.0622 -0.2359 -0.2994
   23CHL1   C25 1693   2.297   2.475   9.165  0.5488 -0.1631  0.6287
   23CHL1   H25 1694   2.372   2.552   9.195  0.6120 -0.1855  0.5261
   23CHL1   C26 1695   2.367   2.365   9.086 -0.0704  0.6268 -0.6408
   23CHL1  H26A 1696   2.439   2.416   9.018  0.1076  1.5941  0.2492
   23CHL1  H26B 1697   2.427   2.295   9.148 -0.4644  0.9705  0.1411
   23CHL1  H26C 1698   2.302   2.302   9.022 -0.7678  1.4482 -0.7595
   23CHL1   C27 1699   2.207   2.551   9.074  0.2907  0.8272  1.1517
   23CHL1  H27A 1700   2.134   2.611   9.132 -1.3553  0.4041 -0.4064
   23CHL1  H27B 1701   2.257   2.623   9.004 -0.4735  2.4503  2.2050
   23CHL1  H27C 1702   2.149   2.488   9.004 -0.3645  1.8675  0.7289
   24CHL1    C3 1703   2.384   3.900  10.476  0.1087 -0.1063 -0.2521
   24CHL1    H3 1704   2.488   3.940  10.482 -0.1516  0.3397  2.2675
   24CHL1    O3 1705   2.334   3.879  10.612  0.0198 -0.0084 -0.2486
   24CHL1   H3' 1706   2.240   3.877  10.595 -0.7057 -0.0240  3.1280
   24CHL1    C4 1707   2.274   3.993  10.411  0.2024  0.1456  0.0603
   24CHL1   H4A 1708   2.174   3.951  10.435  1.5960 -2.9523  0.9529
   24CHL1   H4B 1709   2.277   4.095  10.454 -0.7404  0.0705  0.3196
   24CHL1    C5 1710   2.305   4.000  10.258  0.6121  0.3486 -0.3775
   24CHL1    C6 1711   2.323   4.121  10.203 -0.2526  0.0449  0.6900
   24CHL1    H6 1712   2.311   4.219  10.253  1.0358  0.1930  0.7484
   24CHL1    C7 1713   2.343   4.143  10.057 -0.0076  0.7529 -0.2632
   24CHL1   H7A 1714   2.281   4.230  10.026 -0.1534  0.5921 -0.4185
   24CHL1   H7B 1715   2.445   4.183  10.036  0.0572  0.7519  0.0340
   24CHL1    C8 1716   2.322   4.018   9.972  0.4440 -0.3095 -0.1857
   24CHL1    H8 1717   2.212   3.998   9.974  0.3316  0.3404  1.3544
   24CHL1   C14 1718   2.377   4.038   9.829  0.5616 -0.1859  0.5159
   24CHL1   H14 1719   2.485   4.048   9.852  0.3661 -0.6408  1.6933
   24CHL1   C15 1720   2.344   4.168   9.749  0.0521 -1.0454 -0.6140
   24CHL1  H15A 1721   2.238   4.196   9.763  0.7519  1.7761 -0.5056
   24CHL1  H15B 1722   2.396   4.257   9.789 -0.4144  0.2120 -2.6911
   24CHL1   C16 1723   2.387   4.141   9.608 -0.2494  0.2479 -0.0541
   24CHL1  H16A 1724   2.297   4.159   9.545  0.0018 -2.1072 -1.1867
   24CHL1  H16B 1725   2.472   4.201   9.569  0.5438 -0.6934  0.2066
   24CHL1   C17 1726   2.428   3.986   9.600  0.5998  0.4748  0.1756
   24CHL1   H17 1727   2.539   3.995   9.608  0.6221  0.0669  0.3198
   24CHL1   C13 1728   2.372   3.922   9.736 -0.0708 -0.8069  1.0947
   24CHL1   C18 1729   2.222   3.883   9.704 -0.6275 -0.0339 -0.0583
   24CHL1  H18A 1730   2.163   3.972   9.674 -2.2698 -0.4317  1.7138
   24CHL1  H18B 1731   2.210   3.800   9.631 -1.9301 -1.1589  1.3379
   24CHL1  H18C 1732   2.166   3.844   9.792  0.9296 -0.7502  0.6442
   24CHL1   C12 1733   2.457   3.815   9.807  1.2103  0.3117 -0.3925
   24CHL1  H12A 1734   2.454   3.719   9.752 -0.3936  0.1294 -0.0382
   24CHL1  H12B 1735   2.563   3.841   9.832  0.4627  0.4363  3.2573
   24CHL1   C11 1736   2.382   3.779   9.944  0.0092  0.1933  0.7719
   24CHL1  H11A 1737   2.278   3.750   9.918 -0.9430  2.3763  1.8246
   24CHL1  H11B 1738   2.433   3.688   9.981  0.8197  0.7590  1.0815
   24CHL1    C9 1739   2.378   3.894  10.041 -0.8190 -0.1173 -0.5529
   24CHL1    H9 1740   2.486   3.904  10.064 -1.0826 -0.8111  1.1403
   24CHL1   C10 1741   2.319   3.861  10.185  0.6123 -0.2520 -0.1104
   24CHL1   C19 1742   2.185   3.786  10.169 -0.2813  0.0941 -0.0134
   24CHL1  H19A 1743   2.201   3.686  10.123 -0.4282 -0.2072  0.5834
   24CHL1  H19B 1744   2.144   3.758  10.268  3.1551  0.5273  1.6645
   24CHL1  H19C 1745   2.110   3.852  10.120 -1.2255 -0.5719  0.5060
   24CHL1    C1 1746   2.419   3.768  10.263 -0.1913  0.1637  0.8972
   24CHL1   H1A 1747   2.413   3.665  10.222  1.7387  0.7595 -1.0724
   24CHL1   H1B 1748   2.520   3.806  10.236 -1.6002  3.0401 -0.8184
   24CHL1    C2 1749   2.396   3.759  10.412  0.8114 -0.2527 -0.0983
   24CHL1   H2A 1750   2.466   3.694  10.469  0.2950 -1.0416 -0.3585
   24CHL1   H2B 1751   2.294   3.721  10.433  1.2674 -2.7392 -1.9558
   24CHL1   C20 1752   2.396   3.921   9.467 -0.3446  0.0226  0.0105
   24CHL1   H20 1753   2.285   3.909   9.463 -0.2195 -1.6380  0.7397
   24CHL1   C21 1754   2.456   3.782   9.462 -0.1316  0.4045 -0.2128
   24CHL1  H21A 1755   2.567   3.787   9.471 -0.1320  0.9807 -0.5341
   24CHL1  H21B 1756   2.443   3.725   9.367  1.8746 -0.3648 -0.0920
   24CHL1  H21C 1757   2.424   3.719   9.548  1.4044 -0.6737 -0.3798
   24CHL1   C22 1758   2.452   3.999   9.348  0.1740 -0.8189 -0.0949
   24CHL1  H22A 1759   2.397   4.095   9.346  1.4398  0.0601  2.1584
   24CHL1  H22B 1760   2.561   4.018   9.363  0.3397  0.5343 -2.5378
   24CHL1   C23 1761   2.452   3.936   9.202  0.0462  0.2025  0.3843
   24CHL1  H23A 1762   2.542   3.872   9.210 -1.4690 -2.2314 -0.7938
   24CHL1  H23B 1763   2.362   3.874   9.181  1.4822 -2.4739  1.6586
   24CHL1   C24 1764   2.487   4.042   9.090  0.2116 -1.1396 -0.4081
   24CHL1  H24A 1765   2.405   4.118   9.094  2.2433  1.1554  0.5710
   24CHL1  H24B 1766   2.579   4.097   9.119 -0.8096  1.2990 -1.4983
   24CHL1   C25 1767   2.493   3.991   8.948 -0.3531 -0.4610  0.2195
   24CHL1   H25 1768   2.562   3.903   8.954 -0.1828 -0.2849  0.9363
   24CHL1   C26 1769   2.350   3.952   8.894  0.3270 -0.7495  0.5526
   24CHL1  H26A 1770   2.291   4.044   8.872  1.4331 -0.2603 -0.4991
   24CHL1  H26B 1771   2.375   3.905   8.797  2.6492  1.2420  0.0636
   24CHL1  H26C 1772   2.293   3.880   8.956 -1.0328 -1.3605 -1.3364
   24CHL1   C27 1773   2.561   4.096   8.851 -1.0256 -0.4485  0.0433
   24CHL1  H27A 1774   2.660   4.129   8.888 -0.7785 -0.3275 -0.7166
   24CHL1  H27B 1775   2.587   4.048   8.755  0.9835  1.3443 -0.3823
   24CHL1  H27C 1776   2.496   4.186   8.840 -0.0295  0.2589 -0.1405
   25CHL1    C3 1777   5.417   4.964  10.376 -0.1571  0.0446 -0.0370
   25CHL1    H3 1778   5.497   4.901  10.334 -2.0707 -2.7810  0.2814
   25CHL1    O3 1779   5.406   4.953  10.521 -0.3126 -0.4589  0.0858
   25CHL1   H3' 1780   5.354   5.027  10.555  0.0700 -2.1400  5.1843
   25CHL1    C4 1781   5.413   5.105  10.327 -0.5833 -0.4069 -0.2539
   25CHL1   H4A 1782   5.316   5.150  10.358 -0.3600  1.1369 -1.6673
   25CHL1   H4B 1783   5.487   5.164  10.386  0.1069  2.1518 -3.3675
   25CHL1    C5 1784   5.427   5.121  10.175 -0.5917 -0.2759 -0.2229
   25CHL1    C6 1785   5.527   5.189  10.122  0.9551 -1.0025 -0.3609
   25CHL1    H6 1786   5.600   5.245  10.184  0.5389  0.0789 -0.8170
   25CHL1    C7 1787   5.550   5.197   9.971 -0.2975  0.9533  0.1597
   25CHL1   H7A 1788   5.560   5.306   9.950  2.1150  0.9502  1.0339
   25CHL1   H7B 1789   5.646   5.153   9.938 -1.0720  1.7729 -3.6644
   25CHL1    C8 1790   5.428   5.142   9.892 -0.5392 -0.2128  0.0453
   25CHL1    H8 1791   5.354   5.225   9.899 -0.3918 -0.0881  0.1338
   25CHL1   C14 1792   5.467   5.135   9.745 -0.5295  0.2898 -0.2260
   25CHL1   H14 1793   5.535   5.048   9.734  0.7927  1.0839  1.2609
   25CHL1   C15 1794   5.534   5.248   9.672 -0.6298 -0.6357  0.0589
   25CHL1  H15A 1795   5.502   5.351   9.701 -0.3796  0.1800 -2.2808
   25CHL1  H15B 1796   5.642   5.232   9.688 -0.8221 -0.6175  1.5134
   25CHL1   C16 1797   5.499   5.234   9.524 -0.3875 -0.9109  0.3140
   25CHL1  H16A 1798   5.442   5.323   9.491  0.2058 -0.1764  1.1953
   25CHL1  H16B 1799   5.595   5.240   9.468 -0.9016 -0.9449 -0.5776
   25CHL1   C17 1800   5.422   5.095   9.512 -0.3340 -0.2759 -0.3018
   25CHL1   H17 1801   5.506   5.023   9.513  1.9201  2.1372  1.9515
   25CHL1   C13 1802   5.345   5.098   9.651 -0.0348  0.2122  0.3798
   25CHL1   C18 1803   5.245   5.214   9.639  0.1390  0.2324  0.0603
   25CHL1  H18A 1804   5.191   5.210   9.542 -0.7282 -0.9858  0.5784
   25CHL1  H18B 1805   5.161   5.219   9.711 -0.7126  2.9779 -0.9656
   25CHL1  H18C 1806   5.291   5.315   9.650  2.1894 -0.4714 -1.3855
   25CHL1   C12 1807   5.291   4.970   9.703  0.4252 -0.1561 -0.3104
   25CHL1  H12A 1808   5.199   4.941   9.649 -1.6089 -3.5639  4.2923
   25CHL1  H12B 1809   5.364   4.889   9.683  1.1686  0.4016  0.0820
   25CHL1   C11 1810   5.245   4.979   9.848 -0.0527 -0.0239 -0.7408
   25CHL1  H11A 1811   5.171   5.062   9.852 -0.7032 -0.5261 -1.7186
   25CHL1  H11B 1812   5.198   4.883   9.876  2.3070 -0.7008  1.2046
   25CHL1    C9 1813   5.362   5.017   9.950  0.7703 -0.6357  0.6178
   25CHL1    H9 1814   5.439   4.939   9.934  2.1848  1.0457 -1.5041
   25CHL1   C10 1815   5.325   5.034  10.100 -0.3990 -0.9660  0.1542
   25CHL1   C19 1816   5.187   5.097  10.110  0.1098  0.7709 -0.0585
   25CHL1  H19A 1817   5.164   5.115  10.217 -0.6958  0.0268 -0.0989
   25CHL1  H19B 1818   5.191   5.195  10.056  4.2810  0.4990 -0.6217
   25CHL1  H19C 1819   5.104   5.035  10.071  0.4383  0.2893  0.0061
   25CHL1    C1 1820   5.310   4.897  10.163 -0.8109 -0.0379 -0.3288
   25CHL1   H1A 1821   5.225   4.842  10.116 -0.4118 -0.0032 -1.1057
   25CHL1   H1B 1822   5.397   4.831  10.148 -0.3393  0.3557  0.5939
   25CHL1    C2 1823   5.292   4.893  10.318 -0.1251  0.4047 -0.1049
   25CHL1   H2A 1824   5.277   4.786  10.342  2.9811 -0.0479  0.2991
   25CHL1   H2B 1825   5.203   4.951  10.349 -0.6586 -0.1498 -0.5632
   25CHL1   C20 1826   5.343   5.082   9.385 -0.0140 -0.2783  0.2355
   25CHL1   H20 1827   5.247   5.137   9.385 -0.6121 -1.2913  0.6995
   25CHL1   C21 1828   5.309   4.934   9.365  0.0157  0.0708 -0.0318
   25CHL1  H21A 1829   5.397   4.871   9.338  0.7102  0.7362  0.6159
   25CHL1  H21B 1830   5.227   4.929   9.291  1.4974 -0.6402 -1.6887
   25CHL1  H21C 1831   5.262   4.897   9.459  0.1303 -2.3231 -0.8328
   25CHL1   C22 1832   5.435   5.133   9.261  0.4634 -0.4168  0.1094
   25CHL1  H22A 1833   5.466   5.238   9.278  0.6345  0.0855 -2.8882
   25CHL1  H22B 1834   5.533   5.080   9.270  1.0496  0.8461  1.7866
   25CHL1   C23 1835   5.365   5.117   9.129  0.2247 -1.1024  0.0676
   25CHL1  H23A 1836   5.355   5.016   9.085 -0.8222 -0.7942 -0.4289
   25CHL1  H23B 1837   5.271   5.176   9.136  1.0923  0.2393  1.0236
   25CHL1   C24 1838   5.445   5.192   9.016  0.8847  0.8617 -0.1881
   25CHL1  H24A 1839   5.503   5.277   9.058  2.0143  0.5918 -1.1511
   25CHL1  H24B 1840   5.527   5.126   8.981  0.6378  0.5110 -0.1174
   25CHL1   C25 1841   5.353   5.232   8.903  0.0171 -0.5699  0.2295
   25CHL1   H25 1842   5.261   5.284   8.939  0.6752 -1.3707  3.4102
   25CHL1   C26 1843   5.428   5.334   8.810  0.2457  0.2607  0.6736
   25CHL1  H26A 1844   5.360   5.386   8.740  1.8512 -0.8527 -1.8475
   25CHL1  H26B 1845   5.471   5.412   8.876  0.1131 -0.8247  2.1091
   25CHL1  H26C 1846   5.516   5.291   8.759  2.6621  0.9625  3.9159
   25CHL1   C27 1847   5.316   5.107   8.824  0.0101 -0.6617  0.1505
   25CHL1  H27A 1848   5.247   5.131   8.741 -0.8118  1.0313  1.2590
   25CHL1  H27B 1849   5.404   5.058   8.777 -0.2908 -1.0870  0.0251
   25CHL1  H27C 1850   5.259   5.036   8.888  0.1487  0.6988  1.8403
   26CHL1    C3 1851   5.765   0.451  10.232 -1.2166 -0.0099  0.1961
   26CHL1    H3 1852   5.704   0.359  10.237 -1.8514  0.3096 -1.3057
   26CHL1    O3 1853   5.811   0.481  10.363  0.8291 -0.5344  0.3748
   26CHL1   H3' 1854   5.754   0.428  10.419  0.8403  0.6671  1.5929
   26CHL1    C4 1855   5.889   0.437  10.144  0.6820  0.0310  0.9195
   26CHL1   H4A 1856   5.949   0.530  10.137 -2.2492  1.9453 -1.0762
   26CHL1   H4B 1857   5.961   0.361  10.180  2.1435 -0.3310 -2.3808
   26CHL1    C5 1858   5.856   0.403   9.996 -0.3881 -0.3145 -0.1981
   26CHL1    C6 1859   5.900   0.291   9.929 -0.3530 -0.3434 -0.4832
   26CHL1    H6 1860   5.969   0.217   9.973  1.5587 -0.3661 -3.2543
   26CHL1    C7 1861   5.853   0.261   9.789  0.8461 -0.3045  0.6855
   26CHL1   H7A 1862   5.928   0.203   9.731  0.1509 -1.7888  1.2013
   26CHL1   H7B 1863   5.762   0.197   9.794  1.2565 -1.0284 -0.4661
   26CHL1    C8 1864   5.805   0.382   9.707 -0.3975 -0.9363  0.4703
   26CHL1    H8 1865   5.898   0.435   9.679 -0.4890  0.5773  2.7433
   26CHL1   C14 1866   5.746   0.336   9.569  0.4596  0.0131 -0.5124
   26CHL1   H14 1867   5.660   0.271   9.598 -0.7752  1.3355 -1.0658
   26CHL1   C15 1868   5.831   0.252   9.469 -0.6519 -0.1347 -0.2991
   26CHL1  H15A 1869   5.930   0.302   9.464 -2.0412  2.8549 -0.3634
   26CHL1  H15B 1870   5.834   0.142   9.485 -0.0127 -0.0102  0.4757
   26CHL1   C16 1871   5.755   0.270   9.341 -0.1022  0.2309 -0.1029
   26CHL1  H16A 1872   5.815   0.295   9.251 -0.5970 -2.2201 -1.2192
   26CHL1  H16B 1873   5.717   0.170   9.309 -0.5065  0.6979 -1.1261
   26CHL1   C17 1874   5.640   0.369   9.363  0.2796 -0.7794 -0.1788
   26CHL1   H17 1875   5.552   0.309   9.394 -0.3503  0.0212 -0.3966
   26CHL1   C13 1876   5.685   0.448   9.487  0.3190 -0.0946 -0.7722
   26CHL1   C18 1877   5.801   0.548   9.456  0.2380  0.2637 -0.1556
   26CHL1  H18A 1878   5.846   0.599   9.543  0.4957  0.6979 -0.5395
   26CHL1  H18B 1879   5.891   0.495   9.417  0.1195 -0.5081  0.5786
   26CHL1  H18C 1880   5.752   0.622   9.390  0.4767  1.0623  0.5576
   26CHL1   C12 1881   5.579   0.516   9.569  0.3043 -0.3627  0.5054
   26CHL1  H12A 1882   5.542   0.603   9.511 -0.9620 -1.1462  0.0808
   26CHL1  H12B 1883   5.493   0.455   9.604 -1.2455  1.2091 -0.4019
   26CHL1   C11 1884   5.644   0.572   9.708 -0.5194  1.4105  0.0521
   26CHL1  H11A 1885   5.718   0.647   9.672  0.3377  1.1521  1.2126
   26CHL1  H11B 1886   5.574   0.630   9.771  0.6848  2.7566  0.2081
   26CHL1    C9 1887   5.711   0.461   9.796 -0.1335  0.0831  0.2564
   26CHL1    H9 1888   5.642   0.376   9.813  2.2627 -2.0281  0.0750
   26CHL1   C10 1889   5.763   0.506   9.936  0.9777 -0.6081 -0.0605
   26CHL1   C19 1890   5.835   0.642   9.921 -0.1318  0.6815 -0.0738
   26CHL1  H19A 1891   5.885   0.678  10.013 -0.1695 -1.0631  0.6676
   26CHL1  H19B 1892   5.917   0.632   9.848  0.5365  2.3521  0.3979
   26CHL1  H19C 1893   5.761   0.719   9.890 -1.2196 -0.6012 -0.7358
   26CHL1    C1 1894   5.637   0.529  10.030  0.1851  0.3727 -0.0517
   26CHL1   H1A 1895   5.576   0.617  10.000 -0.9883  0.6018  2.6947
   26CHL1   H1B 1896   5.571   0.439  10.030  1.2126 -0.4918 -2.7768
   26CHL1    C2 1897   5.679   0.565  10.180  0.8674  0.6262 -0.6188
   26CHL1   H2A 1898   5.589   0.577  10.244 -0.3239  0.6236 -2.2362
   26CHL1   H2B 1899   5.729   0.665  10.181 -1.6485  1.9887  1.1684
   26CHL1   C20 1900   5.576   0.452   9.244 -0.6717  0.3715 -0.0376
   26CHL1   H20 1901   5.542   0.543   9.297  0.9223  0.6639  0.5398
   26CHL1   C21 1902   5.454   0.380   9.185 -0.6848  0.3171  0.4319
   26CHL1  H21A 1903   5.498   0.294   9.130  0.5140  1.5792 -0.6714
   26CHL1  H21B 1904   5.404   0.440   9.106 -0.7019  0.1095  0.2854
   26CHL1  H21C 1905   5.376   0.356   9.260 -0.0130 -2.5510  0.3159
   26CHL1   C22 1906   5.675   0.488   9.138  0.3678 -0.2351  0.0318
   26CHL1  H22A 1907   5.752   0.551   9.188  0.8235 -0.8385  0.1066
   26CHL1  H22B 1908   5.727   0.402   9.090  1.9017  1.6975 -1.9595
   26CHL1   C23 1909   5.616   0.568   9.018 -0.0590  0.3471 -0.2289
   26CHL1  H23A 1910   5.548   0.507   8.955 -1.8223  0.1068  1.7888
   26CHL1  H23B 1911   5.567   0.662   9.053  0.4033  0.6300 -0.3426
   26CHL1   C24 1912   5.735   0.580   8.914 -0.0001 -0.3562  0.7444
   26CHL1  H24A 1913   5.809   0.652   8.956  1.8698 -2.3008  1.0032
   26CHL1  H24B 1914   5.798   0.488   8.920  1.3968  0.6160  1.7663
   26CHL1   C25 1915   5.709   0.615   8.767  0.5141  0.5365 -0.2521
   26CHL1   H25 1916   5.655   0.529   8.723  0.7601  1.3836 -2.3077
   26CHL1   C26 1917   5.632   0.743   8.736 -0.0698  0.3964 -0.2340
   26CHL1  H26A 1918   5.536   0.746   8.792 -0.9794 -1.0794 -1.6418
   26CHL1  H26B 1919   5.696   0.828   8.769  0.1490 -0.3163  1.2636
   26CHL1  H26C 1920   5.611   0.746   8.627 -0.0845  0.0487 -0.2395
   26CHL1   C27 1921   5.836   0.620   8.683 -0.8988 -0.4390  0.3310
   26CHL1  H27A 1922   5.888   0.717   8.691 -1.3985 -0.1631  0.2976
   26CHL1  H27B 1923   5.909   0.539   8.706  0.4691  0.7186  0.2063
   26CHL1  H27C 1924   5.807   0.610   8.576 -1.0359  0.0653  0.3202
   27CHL1    C3 1925   0.855   4.308  10.357 -0.1024  0.2001  0.6127
   27CHL1    H3 1926   0.912   4.403  10.347  2.6555 -1.1174  2.6150
   27CHL1    O3 1927   0.827   4.292  10.496 -0.0029  0.3110 -0.6034
   27CHL1   H3' 1928   0.909   4.321  10.538 -0.1431 -1.2025  0.8563
   27CHL1    C4 1929   0.729   4.292  10.275 -0.0678 -0.1805 -0.3469
   27CHL1   H4A 1930   0.672   4.198  10.292  1.2669 -1.1613 -1.1114
   27CHL1   H4B 1931   0.651   4.365  10.305 -1.6846 -1.1902 -1.9477
   27CHL1    C5 1932   0.761   4.284  10.130 -0.0012  0.0745 -0.0472
   27CHL1    C6 1933   0.698   4.366  10.047  0.0211  0.1951  0.2240
   27CHL1    H6 1934   0.621   4.430  10.092 -1.2209 -2.1660  1.6989
   27CHL1    C7 1935   0.696   4.354   9.902  0.5652 -0.1818  0.1574
   27CHL1   H7A 1936   0.591   4.360   9.866  0.5467  0.6793  0.3134
   27CHL1   H7B 1937   0.745   4.441   9.852 -1.7161  0.9415 -0.2767
   27CHL1    C8 1938   0.762   4.227   9.849  0.3237 -0.4181  0.1161
   27CHL1    H8 1939   0.698   4.137   9.865  1.2482 -1.1599 -0.2899
   27CHL1   C14 1940   0.795   4.234   9.700  0.2939 -0.2093  0.1043
   27CHL1   H14 1941   0.866   4.320   9.695 -0.9630  1.0027  1.9826
   27CHL1   C15 1942   0.681   4.266   9.602 -0.1483 -0.5166 -0.0906
   27CHL1  H15A 1943   0.598   4.203   9.642  0.1888  1.5822  4.5232
   27CHL1  H15B 1944   0.661   4.375   9.595  1.4589  0.1911  3.9250
   27CHL1   C16 1945   0.730   4.211   9.463 -0.4470 -0.4730  0.7885
   27CHL1  H16A 1946   0.671   4.122   9.432 -1.9299  1.5599 -2.9467
   27CHL1  H16B 1947   0.723   4.287   9.382 -0.5294  0.8718  2.0181
   27CHL1   C17 1948   0.875   4.171   9.479  0.2741 -0.1542 -0.4540
   27CHL1   H17 1949   0.929   4.267   9.484  2.1459 -1.2253  2.2948
   27CHL1   C13 1950   0.874   4.119   9.629  0.2711 -0.5350 -0.0718
   27CHL1   C18 1951   0.793   3.990   9.638 -0.2178 -0.5303 -0.3820
   27CHL1  H18A 1952   0.762   3.971   9.743 -1.0325  1.2492 -0.2789
   27CHL1  H18B 1953   0.697   3.990   9.582  0.5649 -1.7230 -1.8307
   27CHL1  H18C 1954   0.855   3.913   9.586 -1.5406  0.1778 -3.2475
   27CHL1   C12 1955   1.006   4.103   9.711  0.1872  0.0338  0.6028
   27CHL1  H12A 1956   1.067   4.015   9.679  1.6534  0.2894  2.4885
   27CHL1  H12B 1957   1.071   4.192   9.697  0.8040 -0.2593  1.4703
   27CHL1   C11 1958   0.972   4.090   9.863 -0.0036  0.2085  0.0483
   27CHL1  H11A 1959   0.920   3.993   9.876  1.2087 -1.0963 -3.6015
   27CHL1  H11B 1960   1.069   4.085   9.917  1.1512  0.6204 -1.8907
   27CHL1    C9 1961   0.891   4.201   9.930 -0.5928  0.5171  0.6073
   27CHL1    H9 1962   0.952   4.292   9.910 -0.7890  0.6250  0.4920
   27CHL1   C10 1963   0.859   4.178  10.080 -0.0162 -0.5212 -0.9702
   27CHL1   C19 1964   0.792   4.040  10.099 -0.1417  0.3852  0.2483
   27CHL1  H19A 1965   0.775   4.015  10.206 -1.8556 -0.5157 -0.1997
   27CHL1  H19B 1966   0.697   4.030  10.044  1.1016  2.8183 -2.5883
   27CHL1  H19C 1967   0.861   3.961  10.062  1.3971  1.6534  0.2933
   27CHL1    C1 1968   0.989   4.199  10.175  0.2112 -0.6217  0.6849
   27CHL1   H1A 1969   1.053   4.112  10.149 -0.1805 -0.6929 -0.0682
   27CHL1   H1B 1970   1.038   4.293  10.142 -2.1600  0.3375 -0.2619
   27CHL1    C2 1971   0.964   4.202  10.324 -0.0284  0.9256 -0.0150
   27CHL1   H2A 1972   1.061   4.209  10.378 -0.3178 -0.1947  0.6957
   27CHL1   H2B 1973   0.916   4.106  10.355 -0.0479 -0.2132 -3.2339
   27CHL1   C20 1974   0.930   4.085   9.367 -0.0918  0.3849 -0.2567
   27CHL1   H20 1975   0.901   3.979   9.384 -2.6884  1.1984  0.9576
   27CHL1   C21 1976   1.079   4.106   9.369  0.5471  0.0958 -0.0061
   27CHL1  H21A 1977   1.115   4.204   9.332  3.7664 -0.8367  0.3682
   27CHL1  H21B 1978   1.130   4.027   9.310  0.0840 -0.9666  0.9839
   27CHL1  H21C 1979   1.122   4.098   9.472 -0.4814  0.3306  0.4537
   27CHL1   C22 1980   0.869   4.120   9.224 -0.6361  0.5049 -0.4410
   27CHL1  H22A 1981   0.759   4.137   9.219 -0.7825 -0.7203 -1.9118
   27CHL1  H22B 1982   0.921   4.211   9.186 -0.1273 -0.9123 -3.3820
   27CHL1   C23 1983   0.904   4.011   9.118  0.3832 -0.6151 -0.3643
   27CHL1  H23A 1984   1.014   3.995   9.128  0.4894  0.4047  0.2859
   27CHL1  H23B 1985   0.845   3.920   9.141 -2.4028 -0.0481 -4.2794
   27CHL1   C24 1986   0.870   4.064   8.966 -0.4792  0.5777 -0.7841
   27CHL1  H24A 1987   0.760   4.079   8.960 -1.1900 -3.4473 -1.2578
   27CHL1  H24B 1988   0.929   4.154   8.941  2.4437 -1.4559 -1.7551
   27CHL1   C25 1989   0.889   3.950   8.863 -0.0826 -0.1393 -0.7354
   27CHL1   H25 1990   0.999   3.936   8.865  0.1158  1.0082 -1.9747
   27CHL1   C26 1991   0.811   3.825   8.903  1.1977 -0.7101 -0.5445
   27CHL1  H26A 1992   0.830   3.742   8.832  2.4760 -1.8741  1.0539
   27CHL1  H26B 1993   0.835   3.784   9.004 -0.8502 -2.2559 -0.6266
   27CHL1  H26C 1994   0.702   3.847   8.909  1.0405 -1.6857  0.8885
   27CHL1   C27 1995   0.860   4.000   8.719 -0.0281  0.1638  0.0004
   27CHL1  H27A 1996   0.751   4.007   8.700 -0.0947  0.6548  0.5428
   27CHL1  H27B 1997   0.918   4.092   8.695  2.5451 -1.4668 -0.4765
   27CHL1  H27C 1998   0.894   3.924   8.645 -3.2511 -0.7528 -0.6600
   28CHL1    C3 1999   6.194   3.090  10.132 -0.4771 -0.3259  0.6681
   28CHL1    H3 2000   6.202   3.196  10.100 -1.4045 -0.5802 -0.4592
   28CHL1    O3 2001   6.201   3.081  10.277 -0.0108 -0.3186 -0.0924
   28CHL1   H3' 2002   6.295   3.062  10.284  0.3248 -1.0709 -4.0019
   28CHL1    C4 2003   6.068   3.013  10.075  0.0921  0.7506  0.0887
   28CHL1   H4A 2004   6.066   2.903  10.093 -0.2073  0.8674  0.8087
   28CHL1   H4B 2005   5.980   3.056  10.128  0.8466 -0.3622  2.3873
   28CHL1    C5 2006   6.062   3.019   9.926 -0.3250  0.1228  0.4283
   28CHL1    C6 2007   5.960   3.073   9.863 -0.4262 -0.2484 -0.1058
   28CHL1    H6 2008   5.872   3.105   9.921 -0.3536  1.2491 -0.7801
   28CHL1    C7 2009   5.954   3.070   9.709  0.0673 -0.4477  0.4182
   28CHL1   H7A 2010   5.853   3.037   9.677  0.3809  0.4133 -1.6602
   28CHL1   H7B 2011   5.979   3.171   9.669  0.0523 -1.5180 -2.5870
   28CHL1    C8 2012   6.054   2.975   9.642  0.6394 -0.3755 -0.3259
   28CHL1    H8 2013   6.001   2.882   9.670  0.5019  0.4252  2.3936
   28CHL1   C14 2014   6.053   2.996   9.494  0.4300  0.4328  0.0509
   28CHL1   H14 2015   6.085   3.101   9.478  4.0128 -0.5096  0.2338
   28CHL1   C15 2016   5.910   2.991   9.421 -0.1598 -0.7130  0.0520
   28CHL1  H15A 2017   5.857   2.912   9.479 -1.2718  0.2186  0.3535
   28CHL1  H15B 2018   5.857   3.087   9.441  1.9223  0.1204  2.0474
   28CHL1   C16 2019   5.941   2.960   9.274 -0.2786  0.7027  0.2802
   28CHL1  H16A 2020   5.883   2.874   9.234  0.7876 -0.4487  1.1148
   28CHL1  H16B 2021   5.919   3.048   9.211  1.0189  0.2571 -0.8640
   28CHL1   C17 2022   6.103   2.938   9.263 -0.0429 -0.5168  0.3792
   28CHL1   H17 2023   6.143   3.041   9.246 -0.7122 -0.1242  1.1372
   28CHL1   C13 2024   6.137   2.902   9.409  0.3460  0.6462  0.0265
   28CHL1   C18 2025   6.096   2.755   9.434 -0.4872  0.1814  0.1880
   28CHL1  H18A 2026   5.990   2.738   9.406 -0.6421  2.7526 -1.0401
   28CHL1  H18B 2027   6.157   2.684   9.374 -0.9076 -0.3480  0.3743
   28CHL1  H18C 2028   6.120   2.725   9.539 -3.0125 -0.6626  0.6172
   28CHL1   C12 2029   6.278   2.936   9.455 -0.0696 -0.2389 -0.1862
   28CHL1  H12A 2030   6.363   2.881   9.408  0.8188  0.8247  0.1126
   28CHL1  H12B 2031   6.304   3.043   9.437 -1.0570 -0.1796 -1.3767
   28CHL1   C11 2032   6.290   2.909   9.608 -0.6458 -0.3874  0.2765
   28CHL1  H11A 2033   6.290   2.803   9.640 -1.9774  0.1221  2.1850
   28CHL1  H11B 2034   6.386   2.956   9.639 -0.9284  2.6948 -2.8836
   28CHL1    C9 2035   6.187   2.981   9.701  0.0246 -0.0885  0.4741
   28CHL1    H9 2036   6.213   3.089   9.699 -1.1503  0.2410  1.6550
   28CHL1   C10 2037   6.186   2.956   9.854 -0.7339  0.1307  0.0483
   28CHL1   C19 2038   6.179   2.797   9.874 -0.6163 -0.2009 -0.0434
   28CHL1  H19A 2039   6.249   2.740   9.809  0.3890  0.1666  0.6948
   28CHL1  H19B 2040   6.193   2.779   9.983 -0.7995  1.0087  0.1930
   28CHL1  H19C 2041   6.078   2.770   9.838 -1.2332  2.8103 -0.8336
   28CHL1    C1 2042   6.316   3.012   9.918 -0.2821  0.0059 -0.3789
   28CHL1   H1A 2043   6.395   2.939   9.893  0.5212  1.1280 -1.2344
   28CHL1   H1B 2044   6.349   3.108   9.872 -2.2364  1.3604  0.8549
   28CHL1    C2 2045   6.324   3.024  10.074  0.4211  0.0503 -0.7707
   28CHL1   H2A 2046   6.417   3.072  10.114  0.0597 -0.4913  0.7662
   28CHL1   H2B 2047   6.332   2.922  10.117 -0.7592  0.3685  0.2394
   28CHL1   C20 2048   6.160   2.843   9.148  0.0258  0.0413 -0.3095
   28CHL1   H20 2049   6.237   2.777   9.193 -0.4568 -1.8838 -2.1470
   28CHL1   C21 2050   6.222   2.930   9.045 -0.5748  0.2300  0.5602
   28CHL1  H21A 2051   6.142   2.997   9.007 -0.9253 -0.0774  0.7485
   28CHL1  H21B 2052   6.267   2.870   8.962  0.3493  2.6287 -0.7988
   28CHL1  H21C 2053   6.308   2.989   9.085  0.6500 -2.2066  1.6966
   28CHL1   C22 2054   6.061   2.733   9.088  0.5018  0.1722  0.2542
   28CHL1  H22A 2055   6.021   2.678   9.176 -1.5311  0.2222 -0.5869
   28CHL1  H22B 2056   5.973   2.788   9.047  0.7413  0.1074 -0.3460
   28CHL1   C23 2057   6.112   2.641   8.982 -0.3658  0.1498  0.0258
   28CHL1  H23A 2058   6.139   2.692   8.887 -1.1184 -0.2443 -0.4176
   28CHL1  H23B 2059   6.207   2.595   9.015  1.3106  4.4235  1.8642
   28CHL1   C24 2060   6.007   2.529   8.953  0.4218 -1.1223 -0.6082
   28CHL1  H24A 2061   6.001   2.458   9.038  0.7414  0.1959  0.5397
   28CHL1  H24B 2062   5.907   2.575   8.941  1.6189  1.8944 -0.0219
   28CHL1   C25 2063   6.034   2.454   8.829 -0.0038  0.6082  0.5119
   28CHL1   H25 2064   6.016   2.522   8.744  1.0908  0.7644  0.3827
   28CHL1   C26 2065   6.175   2.385   8.821  0.3866  0.2408  0.1175
   28CHL1  H26A 2066   6.187   2.306   8.899  0.2352 -1.5424 -1.5722
   28CHL1  H26B 2067   6.195   2.333   8.724  1.6348 -0.2645  0.6295
   28CHL1  H26C 2068   6.252   2.464   8.829  1.3575 -0.5892 -0.7317
   28CHL1   C27 2069   5.934   2.344   8.812  0.1537  0.3600  0.2350
   28CHL1  H27A 2070   5.968   2.287   8.723 -3.2947  0.5315 -1.3455
   28CHL1  H27B 2071   5.942   2.276   8.900  3.6407  0.5848  0.2336
   28CHL1  H27C 2072   5.834   2.387   8.791 -0.1896 -0.6461 -0.2726
   29CHL1    C3 2073   5.612   2.668   6.544  0.8160  0.2211 -0.3428
   29CHL1    H3 2074   5.595   2.559   6.557 -1.7479  0.0023 -3.9941
   29CHL1    O3 2075   5.635   2.698   6.414  1.0190  0.5258  0.5039
   29CHL1   H3' 2076   5.630   2.794   6.414  0.7645  0.5329  1.8011
   29CHL1    C4 2077   5.478   2.727   6.592 -0.3105  0.4983 -0.0401
   29CHL1   H4A 2078   5.480   2.833   6.559  3.1423  0.6203  0.1636
   29CHL1   H4B 2079   5.394   2.672   6.544  0.3847  0.6154 -1.4565
   29CHL1    C5 2080   5.461   2.722   6.742  0.2387  0.4848  0.4577
   29CHL1    C6 2081   5.344   2.677   6.798  0.2965  0.0018  0.5806
   29CHL1    H6 2082   5.260   2.635   6.741  0.1061  0.9980  0.1041
   29CHL1    C7 2083   5.322   2.690   6.944  0.1948 -0.2866  0.0752
   29CHL1   H7A 2084   5.219   2.712   6.980  0.5139 -1.1564  1.6056
   29CHL1   H7B 2085   5.344   2.595   6.996  1.2113  0.1067  0.3802
   29CHL1    C8 2086   5.418   2.785   7.016 -0.9453  0.9477  0.1535
   29CHL1    H8 2087   5.385   2.890   7.006  2.1529  2.0400  0.3232
   29CHL1   C14 2088   5.406   2.753   7.163 -0.3574 -0.3082 -0.3588
   29CHL1   H14 2089   5.447   2.651   7.174  2.5755  0.9091  1.3773
   29CHL1   C15 2090   5.263   2.750   7.218 -0.9816  0.5427  0.2634
   29CHL1  H15A 2091   5.210   2.833   7.167  1.0410  1.8334  0.1123
   29CHL1  H15B 2092   5.225   2.648   7.197 -1.0149  0.5419  0.3306
   29CHL1   C16 2093   5.291   2.769   7.372  0.4496  0.1433  0.4238
   29CHL1  H16A 2094   5.237   2.861   7.401 -1.2943 -0.2443 -1.3771
   29CHL1  H16B 2095   5.233   2.682   7.410  0.7464  1.1287  3.3597
   29CHL1   C17 2096   5.442   2.770   7.393 -0.5597 -0.4739  0.3756
   29CHL1   H17 2097   5.475   2.664   7.391 -1.6641 -0.8423 -1.5543
   29CHL1   C13 2098   5.490   2.837   7.259  0.1806 -0.8963  0.5336
   29CHL1   C18 2099   5.448   2.986   7.258 -0.0834 -0.1328 -0.1495
   29CHL1  H18A 2100   5.341   3.000   7.283 -0.3027 -0.3566 -0.9258
   29CHL1  H18B 2101   5.518   3.043   7.324  0.8129 -2.3263  0.9033
   29CHL1  H18C 2102   5.470   3.028   7.157 -1.3047 -0.9233 -0.7649
   29CHL1   C12 2103   5.634   2.812   7.219 -0.9179  0.0409 -0.2998
   29CHL1  H12A 2104   5.692   2.883   7.283 -1.6059 -0.0354  0.4167
   29CHL1  H12B 2105   5.666   2.708   7.240  1.0835  0.5501 -0.6240
   29CHL1   C11 2106   5.661   2.839   7.075  0.6342  0.7147  0.6525
   29CHL1  H11A 2107   5.658   2.947   7.051 -0.9206  0.2027 -1.7376
   29CHL1  H11B 2108   5.765   2.816   7.044  0.1201 -1.0478  0.1707
   29CHL1    C9 2109   5.567   2.762   6.974  0.1368 -0.8604 -0.0516
   29CHL1    H9 2110   5.577   2.652   6.988 -0.1647 -0.9075 -0.2064
   29CHL1   C10 2111   5.583   2.779   6.821 -0.6772  0.2169  0.0562
   29CHL1   C19 2112   5.575   2.936   6.799 -0.1015 -0.0830  0.6544
   29CHL1  H19A 2113   5.580   2.962   6.691  1.1222  0.9679  0.9433
   29CHL1  H19B 2114   5.489   2.976   6.857 -0.3380 -1.8585  1.6060
   29CHL1  H19C 2115   5.665   2.976   6.852  0.4938  1.5976 -1.4739
   29CHL1    C1 2116   5.713   2.710   6.770 -0.8405  0.0572  0.3598
   29CHL1   H1A 2117   5.801   2.758   6.819  0.8529  0.2439 -2.6560
   29CHL1   H1B 2118   5.727   2.607   6.809  0.4947 -0.4408 -1.3579
   29CHL1    C2 2119   5.734   2.713   6.617 -0.5071  0.8327  0.0885
   29CHL1   H2A 2120   5.813   2.641   6.586 -0.6079  0.3414  0.9258
   29CHL1   H2B 2121   5.773   2.816   6.606 -0.9033  0.9906  0.1221
   29CHL1   C20 2122   5.468   2.840   7.528  0.1174  0.0218  0.2180
   29CHL1   H20 2123   5.449   2.949   7.521  0.9393  0.1831  0.3780
   29CHL1   C21 2124   5.618   2.836   7.559  0.5356 -1.1203 -0.5144
   29CHL1  H21A 2125   5.670   2.738   7.557 -1.8522 -2.4579 -0.7814
   29CHL1  H21B 2126   5.630   2.877   7.662 -1.1018  1.5844 -1.2908
   29CHL1  H21C 2127   5.657   2.918   7.496  1.1989  0.0653  1.3527
   29CHL1   C22 2128   5.382   2.799   7.648  0.0267 -0.2379 -0.1275
   29CHL1  H22A 2129   5.276   2.795   7.615  0.0047 -1.8395  0.0427
   29CHL1  H22B 2130   5.405   2.698   7.689  1.6601 -0.7066 -2.0399
   29CHL1   C23 2131   5.392   2.911   7.760  0.5839  0.1560 -0.2373
   29CHL1  H23A 2132   5.426   3.005   7.712  0.9796 -1.2059 -2.8041
   29CHL1  H23B 2133   5.292   2.923   7.808  0.8835  2.3122 -0.0385
   29CHL1   C24 2134   5.489   2.886   7.880 -0.7583 -0.4263  0.2683
   29CHL1  H24A 2135   5.448   2.797   7.933 -0.2019 -1.7333 -1.4261
   29CHL1  H24B 2136   5.592   2.858   7.853 -0.7801  0.3089 -0.6012
   29CHL1   C25 2137   5.519   3.004   7.977  1.1560 -0.3396 -0.1057
   29CHL1   H25 2138   5.560   3.092   7.922 -1.5102  0.9050 -0.2916
   29CHL1   C26 2139   5.397   3.071   8.039  0.3206  0.2830  0.3907
   29CHL1  H26A 2140   5.451   3.150   8.095  2.3112  0.6379 -1.8569
   29CHL1  H26B 2141   5.334   3.121   7.962 -3.5755 -1.8548  1.8811
   29CHL1  H26C 2142   5.341   2.998   8.102 -2.9573  2.9651  0.8837
   29CHL1   C27 2143   5.632   2.967   8.076  0.0123 -0.8274 -0.4617
   29CHL1  H27A 2144   5.648   3.054   8.143 -1.3993 -0.0976 -1.0231
   29CHL1  H27B 2145   5.583   2.880   8.126  0.7643 -0.5244  0.8550
   29CHL1  H27C 2146   5.729   2.945   8.028  0.6656 -0.0112  0.4526
   30CHL1    C3 2147   1.130   1.838   7.175 -0.1260 -1.0959 -0.5255
   30CHL1    H3 2148   1.029   1.793   7.177 -0.4670 -0.3266  0.9457
   30CHL1    O3 2149   1.153   1.886   7.046 -0.2605 -0.1685 -0.4028
   30CHL1   H3' 2150   1.163   1.808   6.991 -0.6204 -0.4904 -0.0166
   30CHL1    C4 2151   1.149   1.955   7.273  0.2769 -0.2349 -0.0702
   30CHL1   H4A 2152   1.246   2.006   7.259  0.6889 -0.5353  1.4592
   30CHL1   H4B 2153   1.068   2.028   7.252  0.3713  0.3221  1.3442
   30CHL1    C5 2154   1.137   1.901   7.410  0.0699 -0.2025  0.0645
   30CHL1    C6 2155   1.032   1.941   7.492 -0.9095 -0.5933  0.0812
   30CHL1    H6 2156   0.956   2.011   7.454 -0.9256 -1.0262 -0.7034
   30CHL1    C7 2157   1.012   1.895   7.635 -0.3266 -0.2510  0.1149
   30CHL1   H7A 2158   0.992   1.987   7.693  1.6692  0.4495 -0.2451
   30CHL1   H7B 2159   0.927   1.824   7.641 -0.8714  0.4494  1.0151
   30CHL1    C8 2160   1.133   1.822   7.690 -0.6217  0.1214  0.3394
   30CHL1    H8 2161   1.213   1.897   7.705  0.1228 -0.2769 -1.3780
   30CHL1   C14 2162   1.095   1.751   7.817  0.7915 -0.2142 -0.0186
   30CHL1   H14 2163   1.019   1.679   7.781 -1.0654  1.3539  0.6282
   30CHL1   C15 2164   1.019   1.836   7.922 -0.0009 -0.1413 -0.2124
   30CHL1  H15A 2165   1.072   1.933   7.939 -0.1847 -0.1935  0.7125
   30CHL1  H15B 2166   0.910   1.852   7.911 -0.2516 -0.7042  1.1824
   30CHL1   C16 2167   1.040   1.760   8.052  0.3440 -0.1946  0.5626
   30CHL1  H16A 2168   1.097   1.828   8.119  0.9191  1.0088 -1.0857
   30CHL1  H16B 2169   0.938   1.733   8.087 -0.5611  2.2092 -0.0268
   30CHL1   C17 2170   1.126   1.638   8.013 -0.5879  0.3864 -0.2910
   30CHL1   H17 2171   1.057   1.560   7.976  2.8449 -1.6106 -3.1527
   30CHL1   C13 2172   1.205   1.670   7.886  0.0055 -0.9973 -0.0205
   30CHL1   C18 2173   1.331   1.765   7.921  0.5854  1.2253 -0.4642
   30CHL1  H18A 2174   1.365   1.825   7.833  1.6628  0.4584 -0.5852
   30CHL1  H18B 2175   1.310   1.839   8.001 -1.6363  0.1166  0.0506
   30CHL1  H18C 2176   1.420   1.710   7.956  1.5680  1.6606 -2.1739
   30CHL1   C12 2177   1.238   1.564   7.779  0.7718 -0.4628 -0.2223
   30CHL1  H12A 2178   1.318   1.493   7.809  1.5437  0.7423  0.5998
   30CHL1  H12B 2179   1.142   1.507   7.769  0.6953 -0.5389  0.8608
   30CHL1   C11 2180   1.284   1.619   7.648  0.1351  0.0578  0.0253
   30CHL1  H11A 2181   1.386   1.662   7.650  0.3898 -0.5153 -0.2584
   30CHL1  H11B 2182   1.300   1.534   7.578  1.0982 -0.4128  0.7928
   30CHL1    C9 2183   1.185   1.723   7.582 -0.0010 -0.3990  0.6909
   30CHL1    H9 2184   1.102   1.662   7.540  1.2540 -0.8614 -1.2403
   30CHL1   C10 2185   1.241   1.792   7.452 -0.1698  0.0965 -0.7578
   30CHL1   C19 2186   1.385   1.862   7.472  0.0942  0.5579  0.8112
   30CHL1  H19A 2187   1.466   1.789   7.451  1.1973  1.6985  0.9895
   30CHL1  H19B 2188   1.404   1.927   7.384 -0.0365 -0.3167  0.1250
   30CHL1  H19C 2189   1.405   1.927   7.560  1.0801  1.3881  0.0019
   30CHL1    C1 2190   1.241   1.677   7.344 -0.1194  0.1150  0.1402
   30CHL1   H1A 2191   1.333   1.615   7.349  0.2614  0.6967  0.3762
   30CHL1   H1B 2192   1.154   1.610   7.361  0.5240 -0.6647  0.4237
   30CHL1    C2 2193   1.234   1.730   7.198 -0.3097  0.3125 -0.1037
   30CHL1   H2A 2194   1.221   1.636   7.139 -1.4348  0.5312 -0.2183
   30CHL1   H2B 2195   1.336   1.772   7.183 -0.3374  0.2411 -0.5160
   30CHL1   C20 2196   1.213   1.596   8.136  0.5143 -0.4497  0.3551
   30CHL1   H20 2197   1.278   1.682   8.163 -0.5333  0.4105  0.2007
   30CHL1   C21 2198   1.321   1.487   8.106 -0.0583  0.0094 -0.2805
   30CHL1  H21A 2199   1.372   1.504   8.009  0.7520  0.2677  0.1825
   30CHL1  H21B 2200   1.259   1.395   8.112 -0.9134  0.6725  2.8061
   30CHL1  H21C 2201   1.396   1.492   8.188  0.4073  1.6733 -0.7813
   30CHL1   C22 2202   1.119   1.560   8.258  0.2587  0.0429 -0.1912
   30CHL1  H22A 2203   1.014   1.598   8.249 -0.2308 -1.0491  0.6812
   30CHL1  H22B 2204   1.095   1.452   8.251 -2.1914  0.5898 -1.7596
   30CHL1   C23 2205   1.170   1.605   8.395  0.3600 -0.3607 -0.3460
   30CHL1  H23A 2206   1.274   1.575   8.423  0.4028  0.1176  0.0295
   30CHL1  H23B 2207   1.152   1.714   8.398  0.7304 -0.1271 -3.4543
   30CHL1   C24 2208   1.076   1.552   8.506  0.0876 -0.4407  0.2663
   30CHL1  H24A 2209   0.974   1.596   8.510  1.4269  2.8871  1.6324
   30CHL1  H24B 2210   1.075   1.442   8.497 -0.1003 -0.5152  1.1144
   30CHL1   C25 2211   1.140   1.591   8.647  0.0729 -0.6861 -0.5972
   30CHL1   H25 2212   1.248   1.582   8.621  0.1183  0.1452 -0.7315
   30CHL1   C26 2213   1.122   1.740   8.686 -0.3535  0.2019  0.4783
   30CHL1  H26A 2214   1.015   1.749   8.714 -0.6906 -0.8016 -0.4248
   30CHL1  H26B 2215   1.197   1.778   8.759  1.6030  0.1781 -1.3829
   30CHL1  H26C 2216   1.132   1.803   8.594 -1.6109  2.9545  2.1118
   30CHL1   C27 2217   1.099   1.501   8.758  0.1359  0.1630  0.4293
   30CHL1  H27A 2218   1.091   1.393   8.733  0.5665 -0.3392  2.3439
   30CHL1  H27B 2219   1.160   1.506   8.850  1.3207 -0.4987 -0.2862
   30CHL1  H27C 2220   0.993   1.531   8.776 -0.0030  0.1910 -0.3929
   31CHL1    C3 2221   4.007   2.371   6.848 -0.1074 -0.5291  0.0966
   31CHL1    H3 2222   4.004   2.482   6.846  1.9969 -0.4272  0.5866
   31CHL1    O3 2223   3.946   2.321   6.733 -0.5951 -0.0607 -1.3724
   31CHL1   H3' 2224   3.929   2.228   6.748  2.0077 -0.9164 -3.1823
   31CHL1    C4 2225   4.152   2.318   6.860 -0.0326 -0.4238 -0.5237
   31CHL1   H4A 2226   4.156   2.207   6.852  1.0117 -0.4129 -0.3572
   31CHL1   H4B 2227   4.199   2.356   6.767 -3.3930  2.4352 -1.2475
   31CHL1    C5 2228   4.218   2.357   6.996  0.1754 -0.3350  0.1561
   31CHL1    C6 2229   4.337   2.423   7.000 -0.1601 -0.0416 -0.0802
   31CHL1    H6 2230   4.392   2.443   6.907  1.6802  2.1041  1.3559
   31CHL1    C7 2231   4.402   2.464   7.125  0.1678 -0.2658 -0.6510
   31CHL1   H7A 2232   4.510   2.440   7.121 -0.0747 -1.4939 -0.4586
   31CHL1   H7B 2233   4.380   2.570   7.148  0.0504 -0.0553 -1.7129
   31CHL1    C8 2234   4.348   2.373   7.241  0.0300  0.1991 -0.3355
   31CHL1    H8 2235   4.386   2.268   7.241 -1.0477 -0.2104  0.2977
   31CHL1   C14 2236   4.401   2.426   7.379  0.1472  0.2350  0.4557
   31CHL1   H14 2237   4.372   2.533   7.381  0.8610  0.4341  0.4949
   31CHL1   C15 2238   4.554   2.456   7.389  0.1395  0.7699  0.7423
   31CHL1  H15A 2239   4.621   2.379   7.346 -0.5951 -1.7992  3.8147
   31CHL1  H15B 2240   4.573   2.547   7.328  1.2027  0.1024  0.0607
   31CHL1   C16 2241   4.573   2.465   7.534  0.0137 -0.4195 -0.1420
   31CHL1  H16A 2242   4.646   2.385   7.560  0.2615  0.2564  1.3144
   31CHL1  H16B 2243   4.610   2.565   7.566 -0.8477 -0.8969  2.5414
   31CHL1   C17 2244   4.437   2.450   7.601  0.0778 -0.4806  0.0790
   31CHL1   H17 2245   4.392   2.552   7.605  1.2250  0.0332  0.1596
   31CHL1   C13 2246   4.350   2.368   7.509  0.1604 -0.2494  0.2796
   31CHL1   C18 2247   4.410   2.222   7.517 -0.1070  0.3942  0.0336
   31CHL1  H18A 2248   4.374   2.148   7.443  0.9145 -2.1614  1.9677
   31CHL1  H18B 2249   4.521   2.219   7.516 -0.1205 -0.0023 -0.1237
   31CHL1  H18C 2250   4.378   2.183   7.616 -0.0742  1.5936  0.5346
   31CHL1   C12 2251   4.200   2.374   7.513 -0.8122  0.1828 -0.0556
   31CHL1  H12A 2252   4.162   2.327   7.606 -0.2643  0.2212  0.1909
   31CHL1  H12B 2253   4.157   2.475   7.531  0.4078  0.6201  0.5085
   31CHL1   C11 2254   4.143   2.304   7.389 -0.3156 -0.7013  0.0875
   31CHL1  H11A 2255   4.168   2.197   7.377 -0.2012 -0.6839  0.1723
   31CHL1  H11B 2256   4.033   2.322   7.388  0.0114  1.7644 -1.2809
   31CHL1    C9 2257   4.199   2.370   7.251  0.6151 -0.6469 -0.0212
   31CHL1    H9 2258   4.165   2.476   7.259 -0.9157 -1.1957  1.3142
   31CHL1   C10 2259   4.140   2.313   7.118  0.1064 -0.5579  0.0896
   31CHL1   C19 2260   4.138   2.158   7.116 -0.1978  0.1634  0.2538
   31CHL1  H19A 2261   4.104   2.115   7.019  1.9630  1.3186 -1.0929
   31CHL1  H19B 2262   4.238   2.117   7.145 -1.0393 -2.2261  0.0460
   31CHL1  H19C 2263   4.077   2.119   7.200 -0.5502 -0.5052 -0.2982
   31CHL1    C1 2264   3.987   2.359   7.104  0.6835  0.2752 -0.0113
   31CHL1   H1A 2265   3.934   2.301   7.182 -0.9729 -0.5670 -1.6745
   31CHL1   H1B 2266   3.974   2.468   7.119 -1.3113  0.1566 -0.5041
   31CHL1    C2 2267   3.932   2.317   6.969  0.1281  0.2536  0.0473
   31CHL1   H2A 2268   3.827   2.353   6.966 -0.3331 -1.0349  0.1285
   31CHL1   H2B 2269   3.931   2.207   6.979 -0.1794  0.2652  0.1298
   31CHL1   C20 2270   4.439   2.402   7.755  0.4944 -0.5459  0.3137
   31CHL1   H20 2271   4.427   2.293   7.768  0.1108 -0.6642 -0.9109
   31CHL1   C21 2272   4.323   2.471   7.825  0.2260 -0.5568  0.5585
   31CHL1  H21A 2273   4.327   2.448   7.933 -0.3827  0.2473  0.7587
   31CHL1  H21B 2274   4.223   2.442   7.784  1.1203 -1.1667 -1.3203
   31CHL1  H21C 2275   4.335   2.581   7.814  0.2597 -0.6615 -0.5535
   31CHL1   C22 2276   4.563   2.450   7.828 -0.2422 -0.2076  0.1700
   31CHL1  H22A 2277   4.655   2.429   7.768 -0.0242  0.0310  0.4166
   31CHL1  H22B 2278   4.562   2.561   7.836  3.8703  0.0165 -0.0413
   31CHL1   C23 2279   4.593   2.397   7.967 -0.2293  0.1381 -0.6717
   31CHL1  H23A 2280   4.534   2.453   8.043 -0.3616  1.1043 -1.4614
   31CHL1  H23B 2281   4.561   2.291   7.970 -1.7342  0.5986  1.2696
   31CHL1   C24 2282   4.739   2.423   8.001  0.2748  0.1493  0.4550
   31CHL1  H24A 2283   4.799   2.383   7.916 -0.5975 -0.9867  0.3566
   31CHL1  H24B 2284   4.747   2.533   8.008 -1.6689  0.3868 -0.3616
   31CHL1   C25 2285   4.780   2.371   8.142 -0.4680 -0.5699 -0.0672
   31CHL1   H25 2286   4.807   2.264   8.129 -1.5954 -0.7306 -1.2176
   31CHL1   C26 2287   4.907   2.436   8.189 -0.1900  0.4192 -0.4243
   31CHL1  H26A 2288   4.900   2.546   8.178  0.9439  0.4453 -1.0928
   31CHL1  H26B 2289   4.930   2.417   8.296  0.4858 -0.0128 -0.6325
   31CHL1  H26C 2290   4.992   2.407   8.123 -0.8228 -0.4339 -0.8853
   31CHL1   C27 2291   4.673   2.397   8.248 -0.3236  0.0719  0.0206
   31CHL1  H27A 2292   4.699   2.365   8.351 -1.1383 -0.0095  0.2120
   31CHL1  H27B 2293   4.591   2.324   8.228 -0.4869 -0.0186  1.0065
   31CHL1  H27C 2294   4.644   2.503   8.263 -2.6714 -0.7918  2.3489
   32CHL1    C3 2295   6.105   5.226   6.910  0.2380  0.8195 -0.6279
   32CHL1    H3 2296   6.027   5.153   6.941  0.4527  0.3218 -1.2410
   32CHL1    O3 2297   6.109   5.241   6.768 -0.0401  0.2791 -0.2135
   32CHL1   H3' 2298   6.184   5.184   6.750 -0.8629 -0.5193 -1.2628
   32CHL1    C4 2299   6.093   5.361   6.979 -0.1043  0.6598  0.6275
   32CHL1   H4A 2300   6.171   5.423   6.931 -1.2973  0.9412 -1.0406
   32CHL1   H4B 2301   6.001   5.415   6.946 -0.1384  1.0905  1.4038
   32CHL1    C5 2302   6.104   5.352   7.128  0.0112 -0.5784 -0.0829
   32CHL1    C6 2303   6.007   5.408   7.207 -0.1094 -0.4064  0.0070
   32CHL1    H6 2304   5.916   5.439   7.154 -0.9057 -2.0773  0.3407
   32CHL1    C7 2305   6.012   5.419   7.356 -0.2930 -0.6786 -0.7970
   32CHL1   H7A 2306   5.984   5.521   7.389 -1.4511 -0.5938 -1.9605
   32CHL1   H7B 2307   5.942   5.351   7.408  0.9161 -1.2762  0.1126
   32CHL1    C8 2308   6.155   5.393   7.402 -0.1407  0.7280 -0.5247
   32CHL1    H8 2309   6.213   5.486   7.382  0.5277  0.4537  0.0734
   32CHL1   C14 2310   6.153   5.363   7.553  0.0454  0.4302  0.0791
   32CHL1   H14 2311   6.092   5.270   7.557  0.9051 -0.1588 -0.2139
   32CHL1   C15 2312   6.075   5.465   7.636  0.2018  0.6824 -0.0600
   32CHL1  H15A 2313   6.116   5.562   7.600  1.8788  0.1618  0.3483
   32CHL1  H15B 2314   5.966   5.464   7.613  0.3852  1.0221 -1.0135
   32CHL1   C16 2315   6.107   5.416   7.777  0.0123  0.1238 -0.3255
   32CHL1  H16A 2316   6.139   5.498   7.844 -0.0620 -1.1888  1.4094
   32CHL1  H16B 2317   6.018   5.369   7.824 -0.2996 -0.4851 -1.4758
   32CHL1   C17 2318   6.231   5.318   7.767  0.1194  0.1485  0.5660
   32CHL1   H17 2319   6.186   5.217   7.773 -2.2648  0.8900 -2.3418
   32CHL1   C13 2320   6.280   5.333   7.618 -0.6600  0.2095 -0.4996
   32CHL1   C18 2321   6.383   5.450   7.605  0.0812 -0.0377 -0.3396
   32CHL1  H18A 2322   6.339   5.543   7.645 -0.2206 -0.2643 -0.1432
   32CHL1  H18B 2323   6.475   5.422   7.661 -2.3941 -4.1645  2.2328
   32CHL1  H18C 2324   6.418   5.466   7.501  1.3384  0.9779  0.2146
   32CHL1   C12 2325   6.341   5.213   7.552  0.4880 -0.5432  0.2530
   32CHL1  H12A 2326   6.450   5.202   7.572  0.5079  1.6228  1.6330
   32CHL1  H12B 2327   6.282   5.126   7.587 -1.1914  0.6846  0.5814
   32CHL1   C11 2328   6.347   5.219   7.397  0.0294 -0.0390  0.2443
   32CHL1  H11A 2329   6.420   5.298   7.367 -1.3774  0.4225 -2.1612
   32CHL1  H11B 2330   6.376   5.120   7.356  2.0069  0.2998  0.7094
   32CHL1    C9 2331   6.214   5.266   7.334  0.5899 -0.3003  0.1284
   32CHL1    H9 2332   6.142   5.187   7.364 -1.1302  1.9727  2.5011
   32CHL1   C10 2333   6.228   5.287   7.179  0.5312  0.5754 -0.1187
   32CHL1   C19 2334   6.352   5.379   7.152  0.1035 -0.2231  0.1962
   32CHL1  H19A 2335   6.339   5.480   7.199 -0.2158  0.7618 -1.9122
   32CHL1  H19B 2336   6.452   5.339   7.178  0.7390 -0.0013 -1.8103
   32CHL1  H19C 2337   6.363   5.397   7.043  3.7222  0.3510  0.5499
   32CHL1    C1 2338   6.254   5.150   7.111 -0.1329 -0.0228  0.5098
   32CHL1   H1A 2339   6.357   5.109   7.119 -0.0820  0.1711  0.8994
   32CHL1   H1B 2340   6.178   5.078   7.148 -0.4075  0.2940  0.5743
   32CHL1    C2 2341   6.244   5.169   6.958  0.2988  0.0157  0.6597
   32CHL1   H2A 2342   6.263   5.078   6.897 -1.3138 -1.0860  1.7332
   32CHL1   H2B 2343   6.328   5.233   6.923  0.8962 -0.4261  1.2697
   32CHL1   C20 2344   6.330   5.323   7.880 -0.5592 -0.2651  0.4034
   32CHL1   H20 2345   6.379   5.422   7.883  2.9776 -1.8529 -0.0120
   32CHL1   C21 2346   6.432   5.210   7.866  0.2470 -0.5760 -0.3451
   32CHL1  H21A 2347   6.500   5.214   7.955 -0.6077  2.3027  0.2790
   32CHL1  H21B 2348   6.505   5.225   7.784 -0.5542 -1.5838 -1.2699
   32CHL1  H21C 2349   6.382   5.112   7.851  0.5031 -0.8231  0.3532
   32CHL1   C22 2350   6.256   5.302   8.007  0.6713  0.6921  0.5716
   32CHL1  H22A 2351   6.160   5.357   8.020 -0.8292 -0.8485 -2.8033
   32CHL1  H22B 2352   6.227   5.195   8.013  0.0414  0.8674  0.7436
   32CHL1   C23 2353   6.336   5.344   8.130  0.3888 -0.1985 -0.2454
   32CHL1  H23A 2354   6.422   5.277   8.151 -1.3983 -1.9148  2.1404
   32CHL1  H23B 2355   6.378   5.446   8.115  1.0120 -0.4900 -0.5146
   32CHL1   C24 2356   6.242   5.342   8.256 -0.4171 -0.5294  0.0522
   32CHL1  H24A 2357   6.158   5.410   8.228  0.0724 -0.3958 -1.1644
   32CHL1  H24B 2358   6.208   5.237   8.263 -1.1429 -0.2862  0.2997
   32CHL1   C25 2359   6.323   5.391   8.377 -0.1874  0.1819 -0.5749
   32CHL1   H25 2360   6.416   5.330   8.384 -0.3351  0.0458  0.3677
   32CHL1   C26 2361   6.356   5.542   8.368  0.1648  0.2678  0.1866
   32CHL1  H26A 2362   6.390   5.589   8.463 -1.8054  3.1942 -0.4288
   32CHL1  H26B 2363   6.429   5.560   8.287 -0.4364 -1.2901 -0.7497
   32CHL1  H26C 2364   6.266   5.598   8.335 -1.3260 -1.2936  1.4114
   32CHL1   C27 2365   6.252   5.369   8.509 -0.0905 -0.0848  0.2772
   32CHL1  H27A 2366   6.301   5.425   8.591  1.9116 -0.6847 -0.4479
   32CHL1  H27B 2367   6.146   5.399   8.499  0.4744  1.2447 -3.5579
   32CHL1  H27C 2368   6.244   5.262   8.537  2.5369 -0.2938  0.5129
   33CHL1    C3 2369   2.240   1.754   7.139 -0.0882 -0.0265 -0.3225
   33CHL1    H3 2370   2.293   1.851   7.130  0.9260 -0.5526 -0.1401
   33CHL1    O3 2371   2.217   1.728   7.007  0.2380 -0.3896  0.0927
   33CHL1   H3' 2372   2.185   1.637   7.005  1.0004 -0.6557 -0.9450
   33CHL1    C4 2373   2.333   1.647   7.194  0.5315  0.1409 -0.2276
   33CHL1   H4A 2374   2.294   1.545   7.176  0.7172  0.1096 -0.4684
   33CHL1   H4B 2375   2.427   1.648   7.134 -0.7204 -0.3091 -2.2997
   33CHL1    C5 2376   2.359   1.661   7.344 -0.7447  0.2696  0.3756
   33CHL1    C6 2377   2.484   1.674   7.386 -0.6872  0.2900 -0.3223
   33CHL1    H6 2378   2.568   1.665   7.315  0.5812  0.5188  1.1001
   33CHL1    C7 2379   2.529   1.687   7.528 -0.0944  0.1813 -0.0176
   33CHL1   H7A 2380   2.602   1.608   7.554 -0.7407 -0.9554 -1.5384
   33CHL1   H7B 2381   2.581   1.781   7.555  0.7987 -0.8922  2.2285
   33CHL1    C8 2382   2.409   1.655   7.622  0.2173  0.3463  0.1501
   33CHL1    H8 2383   2.394   1.545   7.623 -1.1981  0.5063  2.1727
   33CHL1   C14 2384   2.440   1.703   7.756 -0.2245  0.4450 -0.1092
   33CHL1   H14 2385   2.446   1.813   7.739 -0.3419  0.5540  0.5159
   33CHL1   C15 2386   2.576   1.668   7.828  0.2558 -0.3993 -0.5044
   33CHL1  H15A 2387   2.598   1.562   7.805 -1.1312 -0.5195 -1.3824
   33CHL1  H15B 2388   2.662   1.731   7.796  1.4890 -1.0821  1.2978
   33CHL1   C16 2389   2.550   1.688   7.983 -0.2901  0.4244  0.4856
   33CHL1  H16A 2390   2.559   1.588   8.031  1.3184  0.0315 -0.5780
   33CHL1  H16B 2391   2.612   1.764   8.035  0.2936 -1.9578  3.5835
   33CHL1   C17 2392   2.402   1.743   7.995  0.0893  0.0847  0.2438
   33CHL1   H17 2393   2.406   1.850   7.966 -1.9905 -0.6494 -3.3566
   33CHL1   C13 2394   2.333   1.687   7.862 -0.4949 -0.5722 -0.5863
   33CHL1   C18 2395   2.301   1.537   7.881  0.2048 -0.7115 -0.1187
   33CHL1  H18A 2396   2.380   1.486   7.940 -0.1680 -0.0624  0.9697
   33CHL1  H18B 2397   2.205   1.524   7.935 -1.1579  1.0847 -1.9596
   33CHL1  H18C 2398   2.297   1.488   7.782 -2.0548 -2.1103  0.5921
   33CHL1   C12 2399   2.209   1.761   7.817  0.0916  0.7514 -0.4027
   33CHL1  H12A 2400   2.121   1.747   7.883 -0.7221 -2.7841 -1.9995
   33CHL1  H12B 2401   2.221   1.871   7.808  0.9779  0.7888  0.9247
   33CHL1   C11 2402   2.171   1.713   7.679  0.9487 -0.0475  0.8339
   33CHL1  H11A 2403   2.142   1.606   7.691  0.1278  0.0071 -0.4433
   33CHL1  H11B 2404   2.091   1.784   7.647  1.4340  1.3792  2.6273
   33CHL1    C9 2405   2.280   1.728   7.569 -0.7803  0.1975 -0.2791
   33CHL1    H9 2406   2.301   1.837   7.561  0.2854  0.1646  1.4705
   33CHL1   C10 2407   2.242   1.684   7.429 -0.2868 -0.2797  0.2167
   33CHL1   C19 2408   2.177   1.546   7.442  0.8648 -0.0347 -1.3015
   33CHL1  H19A 2409   2.161   1.505   7.340 -0.4281 -0.7306 -0.8262
   33CHL1  H19B 2410   2.238   1.477   7.504  1.3700  0.0331 -1.7068
   33CHL1  H19C 2411   2.079   1.563   7.491  2.6483  0.5200  2.4071
   33CHL1    C1 2412   2.140   1.783   7.370 -0.2648 -0.5040 -0.4904
   33CHL1   H1A 2413   2.049   1.758   7.428 -0.5398  0.4059 -0.5182
   33CHL1   H1B 2414   2.177   1.888   7.375 -1.2876 -0.1840  1.0498
   33CHL1    C2 2415   2.115   1.761   7.218 -0.5515  0.3367 -0.1371
   33CHL1   H2A 2416   2.059   1.846   7.174 -1.2201  0.9665  1.7981
   33CHL1   H2B 2417   2.068   1.661   7.206  1.0570 -0.4163 -0.3893
   33CHL1   C20 2418   2.326   1.709   8.131 -0.6640  0.1564  0.7208
   33CHL1   H20 2419   2.220   1.733   8.108  0.2123  3.1479 -0.7755
   33CHL1   C21 2420   2.353   1.838   8.211  0.2692  0.2096 -0.3915
   33CHL1  H21A 2421   2.323   1.929   8.155 -1.7135 -0.6585 -0.8360
   33CHL1  H21B 2422   2.460   1.835   8.241  0.4348 -0.9519 -1.0629
   33CHL1  H21C 2423   2.295   1.848   8.305  0.8172  1.8057 -0.1865
   33CHL1   C22 2424   2.354   1.580   8.213  0.2664  0.2906  0.2765
   33CHL1  H22A 2425   2.336   1.489   8.153 -0.4753  0.7792 -0.2615
   33CHL1  H22B 2426   2.456   1.594   8.255  0.1038 -0.4642  0.9335
   33CHL1   C23 2427   2.269   1.574   8.341  0.0534 -0.7383  0.1798
   33CHL1  H23A 2428   2.299   1.649   8.417  0.3798 -0.8280  0.1434
   33CHL1  H23B 2429   2.164   1.596   8.313 -0.0035 -0.3356  0.7134
   33CHL1   C24 2430   2.267   1.440   8.402 -0.1733 -0.1413 -0.3354
   33CHL1  H24A 2431   2.240   1.356   8.333 -1.9502 -0.9794  1.2887
   33CHL1  H24B 2432   2.369   1.421   8.441 -0.2028 -2.5972 -1.2454
   33CHL1   C25 2433   2.166   1.450   8.520 -0.6391  0.5431 -0.0045
   33CHL1   H25 2434   2.200   1.544   8.568  1.1827  0.6043 -1.3094
   33CHL1   C26 2435   2.020   1.465   8.474 -0.3376  0.1372 -0.4044
   33CHL1  H26A 2436   1.995   1.385   8.401 -1.5295  0.5836 -0.5081
   33CHL1  H26B 2437   1.954   1.458   8.563  0.4436  0.7813  0.2448
   33CHL1  H26C 2438   1.985   1.555   8.419 -2.0344 -0.7154 -0.8011
   33CHL1   C27 2439   2.189   1.331   8.614 -0.7946 -0.5059 -0.6435
   33CHL1  H27A 2440   2.285   1.338   8.669 -0.8381 -0.9811 -0.5043
   33CHL1  H27B 2441   2.113   1.313   8.692  0.0543  1.6212  0.7820
   33CHL1  H27C 2442   2.198   1.245   8.545  2.5546  0.1243 -1.1956
   34CHL1    C3 2443   0.264   6.676   7.048 -0.3826  0.3664  0.5224
   34CHL1    H3 2444   0.168   6.730   7.062 -1.2816 -0.7266 -1.0860
   34CHL1    O3 2445   0.305   6.722   6.922 -0.2626 -0.6935  0.1008
   34CHL1   H3' 2446   0.399   6.700   6.921  0.0775  0.6160  0.7753
   34CHL1    C4 2447   0.373   6.712   7.152  0.8770 -0.4029 -1.0587
   34CHL1   H4A 2448   0.477   6.676   7.140  1.5604  1.0280  0.2584
   34CHL1   H4B 2449   0.377   6.823   7.146  0.2137 -0.3079  0.0434
   34CHL1    C5 2450   0.326   6.666   7.292  0.8233 -0.3040  0.0418
   34CHL1    C6 2451   0.300   6.755   7.393 -0.6612 -0.2549  0.1535
   34CHL1    H6 2452   0.315   6.864   7.383 -0.2417 -0.2892  0.3977
   34CHL1    C7 2453   0.262   6.712   7.524  0.0307 -0.1932 -0.5724
   34CHL1   H7A 2454   0.321   6.762   7.604  0.1278  0.9017 -1.2989
   34CHL1   H7B 2455   0.158   6.742   7.549  0.7268  2.0307 -0.0601
   34CHL1    C8 2456   0.285   6.564   7.558 -0.4556 -0.6072  0.3997
   34CHL1    H8 2457   0.393   6.547   7.578 -0.4604  0.4506  1.4760
   34CHL1   C14 2458   0.204   6.527   7.679  0.2657 -0.2113  0.3685
   34CHL1   H14 2459   0.098   6.543   7.649  0.4370 -1.8439 -1.3080
   34CHL1   C15 2460   0.226   6.618   7.803 -0.5229 -0.2433 -0.1940
   34CHL1  H15A 2461   0.334   6.636   7.822 -0.9622  1.3899  0.9817
   34CHL1  H15B 2462   0.169   6.713   7.792  0.3163  0.3387  0.3525
   34CHL1   C16 2463   0.168   6.535   7.923  0.5904  1.1083  0.2856
   34CHL1  H16A 2464   0.250   6.553   7.995  2.2099  0.5858 -1.3497
   34CHL1  H16B 2465   0.072   6.582   7.952  0.1884  0.8801 -0.6396
   34CHL1   C17 2466   0.145   6.392   7.859 -0.6485  0.1609 -0.2984
   34CHL1   H17 2467   0.044   6.410   7.816 -0.7605 -1.5692 -0.8441
   34CHL1   C13 2468   0.224   6.380   7.722  0.3962 -0.2552 -0.4903
   34CHL1   C18 2469   0.373   6.341   7.757  0.6095 -0.1028  0.1256
   34CHL1  H18A 2470   0.415   6.408   7.835  0.5660  2.2002 -1.7411
   34CHL1  H18B 2471   0.368   6.235   7.789 -0.7751 -0.3331 -0.7780
   34CHL1  H18C 2472   0.426   6.365   7.662 -1.5110  3.2065 -0.3777
   34CHL1   C12 2473   0.172   6.296   7.623  0.6634  0.3141  0.5135
   34CHL1  H12A 2474   0.161   6.192   7.659 -0.7775 -0.1856 -1.2141
   34CHL1  H12B 2475   0.068   6.328   7.602  0.7561  0.1183 -0.2827
   34CHL1   C11 2476   0.236   6.323   7.479 -0.4323 -0.3119 -0.0509
   34CHL1  H11A 2477   0.339   6.282   7.478  0.4244  1.7038  0.7722
   34CHL1  H11B 2478   0.174   6.273   7.401 -2.0607 -0.6038  1.3802
   34CHL1    C9 2479   0.240   6.478   7.441  0.9751  0.1745  0.0927
   34CHL1    H9 2480   0.133   6.505   7.435  0.6214 -1.0452  0.4968
   34CHL1   C10 2481   0.305   6.509   7.308  0.5419 -0.7818  0.9109
   34CHL1   C19 2482   0.451   6.450   7.296  0.2178  0.5322 -0.1366
   34CHL1  H19A 2483   0.518   6.483   7.378 -1.5909  0.8595  1.2645
   34CHL1  H19B 2484   0.438   6.340   7.308  0.9284  0.7061  3.3223
   34CHL1  H19C 2485   0.495   6.468   7.196  0.9534 -2.3419 -0.4300
   34CHL1    C1 2486   0.210   6.470   7.192 -0.1928 -0.3529  0.6791
   34CHL1   H1A 2487   0.228   6.361   7.179  1.2795 -0.1953  1.1879
   34CHL1   H1B 2488   0.103   6.499   7.202  0.1140  1.1238 -0.0468
   34CHL1    C2 2489   0.247   6.525   7.048  0.0412  0.0264 -0.9672
   34CHL1   H2A 2490   0.170   6.492   6.974 -1.2374  0.7446 -0.0121
   34CHL1   H2B 2491   0.345   6.483   7.020  0.8486 -0.3702  2.0513
   34CHL1   C20 2492   0.160   6.269   7.959  0.1899 -0.9389  0.0596
   34CHL1   H20 2493   0.182   6.174   7.905  2.2044 -0.8849  0.6873
   34CHL1   C21 2494   0.020   6.256   8.025 -0.5602  0.9946 -0.7851
   34CHL1  H21A 2495   0.021   6.173   8.099 -0.9015  0.8134 -0.9795
   34CHL1  H21B 2496  -0.063   6.227   7.957 -1.6701  0.2508  0.8375
   34CHL1  H21C 2497  -0.018   6.354   8.062  0.1776  1.6472 -1.6926
   34CHL1   C22 2498   0.260   6.294   8.076 -0.2607  0.2460 -0.3958
   34CHL1  H22A 2499   0.351   6.339   8.031  0.2430  0.2049  0.5802
   34CHL1  H22B 2500   0.218   6.375   8.139 -0.9743  0.0009 -0.5439
   34CHL1   C23 2501   0.295   6.168   8.157  1.1876 -0.3296 -0.1819
   34CHL1  H23A 2502   0.262   6.080   8.098 -0.7700  0.8756 -0.9776
   34CHL1  H23B 2503   0.405   6.154   8.164  1.2120 -0.1155 -0.1369
   34CHL1   C24 2504   0.240   6.169   8.301  0.0422  0.0435  0.1727
   34CHL1  H24A 2505   0.294   6.254   8.347 -0.0029  0.2959 -0.2370
   34CHL1  H24B 2506   0.133   6.197   8.302  0.3202  1.1547  1.2375
   34CHL1   C25 2507   0.279   6.039   8.385  1.3127 -0.7154 -0.5378
   34CHL1   H25 2508   0.228   5.962   8.323 -0.6177  3.0692 -4.1577
   34CHL1   C26 2509   0.435   6.018   8.403  0.7719  0.1896  0.2143
   34CHL1  H26A 2510   0.476   6.110   8.449  1.4823 -0.3471  0.6736
   34CHL1  H26B 2511   0.453   5.927   8.465  0.2155  0.0794  0.2252
   34CHL1  H26C 2512   0.487   6.002   8.307 -1.9834 -1.5176 -1.1465
   34CHL1   C27 2513   0.214   6.042   8.528 -0.2289 -0.0648  0.3227
   34CHL1  H27A 2514   0.104   6.053   8.529 -0.1255  1.0624  0.8668
   34CHL1  H27B 2515   0.235   5.947   8.582 -0.1835 -1.6700 -2.3577
   34CHL1  H27C 2516   0.267   6.126   8.580  0.5388 -0.9787  1.0620
   35CHL1    C3 2517   3.232   5.947   7.072 -0.3139  0.1139  0.4914
   35CHL1    H3 2518   3.140   6.008   7.082 -0.0398  0.3240  2.0389
   35CHL1    O3 2519   3.246   5.919   6.934 -0.0484  0.1324 -0.0459
   35CHL1   H3' 2520   3.331   5.874   6.926 -0.9843 -1.5473 -1.2601
   35CHL1    C4 2521   3.337   6.034   7.130  0.1681  0.1750  0.4932
   35CHL1   H4A 2522   3.432   5.978   7.122  0.4644  0.4284  1.9164
   35CHL1   H4B 2523   3.353   6.111   7.052 -0.5009 -2.0181 -1.9619
   35CHL1    C5 2524   3.322   6.065   7.277  0.3607  0.6040 -0.5929
   35CHL1    C6 2525   3.322   6.193   7.327 -0.1281  0.0620  0.4758
   35CHL1    H6 2526   3.342   6.273   7.254  0.7304 -0.1550  0.4624
   35CHL1    C7 2527   3.317   6.221   7.470 -0.0791 -0.3667 -0.4210
   35CHL1   H7A 2528   3.388   6.302   7.497  1.7005 -1.6154 -1.1586
   35CHL1   H7B 2529   3.216   6.267   7.482 -0.6588 -1.4736 -0.8705
   35CHL1    C8 2530   3.335   6.086   7.556  0.2846 -0.3902 -0.4460
   35CHL1    H8 2531   3.440   6.052   7.561  0.2529 -0.4034  0.1809
   35CHL1   C14 2532   3.286   6.125   7.692 -0.1128  0.2913  0.1034
   35CHL1   H14 2533   3.180   6.158   7.683 -0.1527 -0.2403 -1.7553
   35CHL1   C15 2534   3.364   6.241   7.749  0.6835  0.3114 -0.1928
   35CHL1  H15A 2535   3.472   6.225   7.732  0.2231  0.3634 -4.0707
   35CHL1  H15B 2536   3.325   6.341   7.721 -1.3179 -0.9778 -2.3427
   35CHL1   C16 2537   3.328   6.222   7.905 -0.4970 -0.5883  0.3608
   35CHL1  H16A 2538   3.424   6.222   7.961 -0.3683  3.1222  0.4125
   35CHL1  H16B 2539   3.267   6.308   7.941 -1.0954 -1.5632  1.7463
   35CHL1   C17 2540   3.243   6.096   7.909 -0.1461 -0.2305  0.7747
   35CHL1   H17 2541   3.137   6.123   7.890 -0.8842 -2.2922  1.6001
   35CHL1   C13 2542   3.287   6.009   7.792 -0.1378 -0.3523 -0.3811
   35CHL1   C18 2543   3.432   5.953   7.815 -0.2615 -0.2312  0.3454
   35CHL1  H18A 2544   3.489   5.950   7.720  0.0908  0.7521  0.5174
   35CHL1  H18B 2545   3.485   6.020   7.886  0.5113 -1.6673  1.1815
   35CHL1  H18C 2546   3.428   5.847   7.849  0.1762 -0.6033 -0.7134
   35CHL1   C12 2547   3.194   5.897   7.739  0.6058 -0.0763 -0.6438
   35CHL1  H12A 2548   3.210   5.808   7.804 -1.2913 -1.6602 -2.2012
   35CHL1  H12B 2549   3.089   5.930   7.750  1.4756  2.9584 -0.4984
   35CHL1   C11 2550   3.234   5.852   7.599 -0.8717  0.0866  0.4371
   35CHL1  H11A 2551   3.330   5.797   7.606 -0.4027  0.6900 -0.8602
   35CHL1  H11B 2552   3.156   5.787   7.553  0.5500 -0.6726 -0.9683
   35CHL1    C9 2553   3.250   5.974   7.504  0.1045 -0.2137 -0.7646
   35CHL1    H9 2554   3.150   6.021   7.491  0.9200  1.2430 -2.1680
   35CHL1   C10 2555   3.293   5.933   7.366 -0.7319 -0.2811  0.8750
   35CHL1   C19 2556   3.435   5.856   7.360 -0.0766  0.2824 -0.1179
   35CHL1  H19A 2557   3.412   5.759   7.409 -1.6576 -0.0276 -1.3909
   35CHL1  H19B 2558   3.466   5.843   7.254 -2.4914  0.2340 -0.8782
   35CHL1  H19C 2559   3.512   5.913   7.416 -0.5660  0.1805  0.6735
   35CHL1    C1 2560   3.177   5.847   7.304 -0.3632  0.7259  0.1585
   35CHL1   H1A 2561   3.178   5.748   7.355  0.1381  0.6995  0.1055
   35CHL1   H1B 2562   3.081   5.899   7.320 -1.7951 -1.3327 -1.2212
   35CHL1    C2 2563   3.205   5.825   7.154  0.0721 -0.4762 -0.3362
   35CHL1   H2A 2564   3.115   5.779   7.106  0.4401 -1.9732  0.3335
   35CHL1   H2B 2565   3.293   5.761   7.134  0.5660  0.4150 -1.0741
   35CHL1   C20 2566   3.246   6.022   8.046  0.3288  0.2219 -0.6185
   35CHL1   H20 2567   3.349   5.996   8.076 -0.0178  0.5017  0.8802
   35CHL1   C21 2568   3.160   5.895   8.050 -0.2338  0.3218  0.0063
   35CHL1  H21A 2569   3.080   5.895   7.973 -0.5921 -2.5146  0.2594
   35CHL1  H21B 2570   3.098   5.887   8.143 -1.6357 -0.7690 -0.9681
   35CHL1  H21C 2571   3.204   5.796   8.027 -2.5092 -0.6792 -0.3877
   35CHL1   C22 2572   3.193   6.123   8.156 -0.4727  0.4538 -0.1034
   35CHL1  H22A 2573   3.235   6.225   8.147 -2.8694  1.4953 -0.1503
   35CHL1  H22B 2574   3.089   6.138   8.121 -0.6332  1.5613  0.8073
   35CHL1   C23 2575   3.189   6.086   8.305  0.1975 -0.9065 -0.5922
   35CHL1  H23A 2576   3.145   5.985   8.318  0.9132 -0.9595  2.0157
   35CHL1  H23B 2577   3.293   6.086   8.344 -0.4130  2.5947  1.4102
   35CHL1   C24 2578   3.115   6.190   8.388  0.6863  0.5076 -0.1630
   35CHL1  H24A 2579   3.162   6.288   8.365 -0.3246  0.8813 -0.7308
   35CHL1  H24B 2580   3.012   6.196   8.347  0.6030  0.2157 -0.0017
   35CHL1   C25 2581   3.100   6.172   8.542  0.0900 -0.2977 -0.1316
   35CHL1   H25 2582   3.021   6.097   8.564 -0.2626  0.6515  2.1410
   35CHL1   C26 2583   3.226   6.136   8.613 -0.5404  0.3384  0.1688
   35CHL1  H26A 2584   3.310   6.204   8.587 -1.3407  1.4863  0.4720
   35CHL1  H26B 2585   3.206   6.131   8.722  0.8082  2.4623  0.5774
   35CHL1  H26C 2586   3.266   6.040   8.576 -0.4673 -0.0553  1.2567
   35CHL1   C27 2587   3.041   6.297   8.603  0.2250 -0.2838  0.2956
   35CHL1  H27A 2588   3.026   6.279   8.711 -0.3836  1.0946  0.4688
   35CHL1  H27B 2589   2.946   6.330   8.555 -0.7830 -2.0740  0.9510
   35CHL1  H27C 2590   3.106   6.387   8.600 -0.1915  0.0034 -1.0192
   36CHL1    C3 2591   3.465   0.130   7.356  0.3775  0.9411  0.1019
   36CHL1    H3 2592   3.362   0.146   7.396  0.4066 -3.2677  2.4522
   36CHL1    O3 2593   3.478   0.166   7.224 -0.2935 -0.3549 -0.0556
   36CHL1   H3' 2594   3.570   0.147   7.204 -0.9213 -0.6107 -3.2307
   36CHL1    C4 2595   3.573   0.184   7.440  0.7509 -0.7022  0.7274
   36CHL1   H4A 2596   3.677   0.161   7.408  0.7224  0.7949 -0.5471
   36CHL1   H4B 2597   3.562   0.294   7.428  0.5476 -0.6491  1.3424
   36CHL1    C5 2598   3.552   0.147   7.582  0.3632 -0.2806  0.1023
   36CHL1    C6 2599   3.520   0.236   7.680  0.2608 -0.2227  0.6777
   36CHL1    H6 2600   3.511   0.341   7.651  1.3721 -0.3636 -0.2778
   36CHL1    C7 2601   3.490   0.197   7.821  0.4456 -0.2916 -0.2969
   36CHL1   H7A 2602   3.533   0.267   7.895  0.2427  2.0277 -2.2534
   36CHL1   H7B 2603   3.380   0.191   7.839  0.6668 -0.0073  1.2382
   36CHL1    C8 2604   3.542   0.055   7.854  0.1906 -0.1650  0.2348
   36CHL1    H8 2605   3.653   0.063   7.864  0.0796 -0.3302  1.8476
   36CHL1   C14 2606   3.486   0.005   7.996  0.6905  0.9163 -0.3630
   36CHL1   H14 2607   3.378  -0.018   7.981  0.2352  1.6988  1.4337
   36CHL1   C15 2608   3.484   0.105   8.121  0.1125  0.2042  0.5942
   36CHL1  H15A 2609   3.578   0.164   8.115  0.0057  0.2504 -1.8763
   36CHL1  H15B 2610   3.399   0.176   8.120 -0.0238  0.0506 -0.8176
   36CHL1   C16 2611   3.471   0.012   8.244 -0.3149  0.3746  0.2264
   36CHL1  H16A 2612   3.547   0.028   8.323 -0.2219  0.9771  0.0179
   36CHL1  H16B 2613   3.368   0.028   8.284  0.0246  0.8281  0.9493
   36CHL1   C17 2614   3.479  -0.133   8.185  0.2416 -0.1698 -0.0740
   36CHL1   H17 2615   3.374  -0.164   8.169 -0.1147 -0.2121  2.0400
   36CHL1   C13 2616   3.550  -0.122   8.050  0.5342  0.6865  0.5564
   36CHL1   C18 2617   3.699  -0.094   8.062 -1.1373 -0.2089  0.2516
   36CHL1  H18A 2618   3.729  -0.005   8.122  0.2687 -1.5496  1.6463
   36CHL1  H18B 2619   3.739  -0.183   8.116  0.2602 -0.8024 -1.6549
   36CHL1  H18C 2620   3.754  -0.091   7.966  1.5751 -1.1763  1.6680
   36CHL1   C12 2621   3.514  -0.230   7.940 -0.5215 -0.8752  0.2805
   36CHL1  H12A 2622   3.556  -0.328   7.968  1.8389  0.2903  1.0562
   36CHL1  H12B 2623   3.406  -0.253   7.958 -0.6522 -0.5764 -0.0862
   36CHL1   C11 2624   3.547  -0.193   7.794 -0.0876  0.3928 -0.4129
   36CHL1  H11A 2625   3.658  -0.206   7.790 -0.0753 -0.1005  0.9382
   36CHL1  H11B 2626   3.500  -0.263   7.723  0.4709  0.8408 -1.2451
   36CHL1    C9 2627   3.503  -0.048   7.748 -0.3419  0.2889 -0.0147
   36CHL1    H9 2628   3.392  -0.050   7.746 -0.3518  1.1626 -1.5629
   36CHL1   C10 2629   3.548  -0.011   7.608  0.5349  0.0950  0.4828
   36CHL1   C19 2630   3.692  -0.053   7.595 -0.7436 -0.1293  0.5363
   36CHL1  H19A 2631   3.725  -0.045   7.490 -1.1367 -0.2253  0.4034
   36CHL1  H19B 2632   3.761   0.008   7.658 -0.7211 -0.3054  0.6842
   36CHL1  H19C 2633   3.714  -0.160   7.615  0.1061 -0.2532 -0.9515
   36CHL1    C1 2634   3.450  -0.070   7.503 -0.2761 -0.4160 -0.3780
   36CHL1   H1A 2635   3.465  -0.180   7.498 -2.3622 -0.7956  0.6118
   36CHL1   H1B 2636   3.346  -0.053   7.536 -0.5860 -0.8066 -1.1261
   36CHL1    C2 2637   3.476  -0.016   7.360  0.0365  0.3757  0.0162
   36CHL1   H2A 2638   3.391  -0.057   7.302  0.1937 -2.3539  1.5485
   36CHL1   H2B 2639   3.577  -0.046   7.325  1.3696  3.1087  1.1941
   36CHL1   C20 2640   3.537  -0.224   8.286 -0.0350  0.4994  0.3144
   36CHL1   H20 2641   3.646  -0.205   8.299  0.8420 -2.4691 -1.5900
   36CHL1   C21 2642   3.542  -0.376   8.244  0.5409 -0.0128 -0.2166
   36CHL1  H21A 2643   3.604  -0.394   8.154  0.6094 -0.4700 -0.0796
   36CHL1  H21B 2644   3.444  -0.420   8.214  0.9499 -0.8819 -0.2971
   36CHL1  H21C 2645   3.567  -0.448   8.325 -0.0137 -0.0037 -0.0302
   36CHL1   C22 2646   3.468  -0.213   8.431  0.1982 -0.0252 -0.6172
   36CHL1  H22A 2647   3.486  -0.113   8.478 -1.2399 -0.4660  1.0160
   36CHL1  H22B 2648   3.358  -0.218   8.419 -0.0116 -0.6262  1.2417
   36CHL1   C23 2649   3.508  -0.329   8.531  0.2288 -0.9538  0.1597
   36CHL1  H23A 2650   3.472  -0.431   8.506 -1.3151 -0.6617  1.0518
   36CHL1  H23B 2651   3.620  -0.328   8.531  0.2740  0.8352  1.9564
   36CHL1   C24 2652   3.455  -0.286   8.668  0.2676 -0.3450  0.7775
   36CHL1  H24A 2653   3.343  -0.285   8.668  0.2450 -0.5062  2.2251
   36CHL1  H24B 2654   3.476  -0.377   8.727 -0.2388 -0.5705  0.6207
   36CHL1   C25 2655   3.505  -0.159   8.743  0.1767 -0.0011  0.6026
   36CHL1   H25 2656   3.467  -0.075   8.682 -2.4852 -1.0573  0.6410
   36CHL1   C26 2657   3.437  -0.132   8.873 -0.4619 -0.4515  0.0716
   36CHL1  H26A 2658   3.326  -0.131   8.862 -0.3762 -2.9168 -1.8041
   36CHL1  H26B 2659   3.470  -0.204   8.951  1.0915  2.1159  1.9397
   36CHL1  H26C 2660   3.459  -0.033   8.920  0.7367 -0.2032 -0.9608
   36CHL1   C27 2661   3.657  -0.164   8.764  0.3255  0.4077 -0.5702
   36CHL1  H27A 2662   3.708  -0.175   8.666 -1.0444 -2.0586 -1.0979
   36CHL1  H27B 2663   3.686  -0.069   8.814 -1.0494 -1.4014  4.2440
   36CHL1  H27C 2664   3.692  -0.230   8.846 -0.4361  1.5509  0.7073
   37CHL1    C3 2665   2.400   4.549   6.889  0.1017  0.6362 -0.1284
   37CHL1    H3 2666   2.464   4.638   6.906 -0.4424  0.6575  2.1703
   37CHL1    O3 2667   2.371   4.513   6.755 -0.5247 -0.5566 -0.5836
   37CHL1   H3' 2668   2.284   4.472   6.759 -0.2569 -1.5188 -3.0156
   37CHL1    C4 2669   2.474   4.425   6.950 -0.1857  0.1838 -0.2318
   37CHL1   H4A 2670   2.436   4.329   6.909 -0.9081  0.6904 -0.7796
   37CHL1   H4B 2671   2.574   4.441   6.903 -0.6071 -0.4121 -1.3825
   37CHL1    C5 2672   2.489   4.426   7.099 -0.1593 -0.9326 -0.4010
   37CHL1    C6 2673   2.605   4.401   7.158  0.0366  0.1531 -0.3191
   37CHL1    H6 2674   2.683   4.379   7.084  0.9304 -0.6656  0.8343
   37CHL1    C7 2675   2.643   4.387   7.298 -0.6612 -0.2405 -0.0041
   37CHL1   H7A 2676   2.697   4.292   7.318 -0.3391  0.3412  2.0007
   37CHL1   H7B 2677   2.702   4.475   7.329 -2.2771 -0.3720  4.0517
   37CHL1    C8 2678   2.508   4.378   7.379 -0.3418 -0.6965  0.7229
   37CHL1    H8 2679   2.465   4.276   7.370  0.8508 -1.2093  0.5845
   37CHL1   C14 2680   2.539   4.401   7.523  0.1728  0.0430  0.1176
   37CHL1   H14 2681   2.569   4.507   7.540 -0.6258  0.4238 -0.7617
   37CHL1   C15 2682   2.651   4.319   7.588  0.3571  0.9020  0.0068
   37CHL1  H15A 2683   2.631   4.216   7.549 -0.1264  1.2006 -0.5468
   37CHL1  H15B 2684   2.752   4.349   7.554  0.7355 -1.4342 -1.1749
   37CHL1   C16 2685   2.628   4.336   7.734  0.1619 -0.6260  0.4296
   37CHL1  H16A 2686   2.609   4.240   7.787 -0.3267 -0.1544  1.1340
   37CHL1  H16B 2687   2.716   4.382   7.784 -0.7214  0.5347  0.9862
   37CHL1   C17 2688   2.490   4.420   7.754 -0.2386 -0.0777  0.0943
   37CHL1   H17 2689   2.516   4.528   7.758 -0.4314 -0.0096 -0.3641
   37CHL1   C13 2690   2.422   4.397   7.620  1.1200  0.3949 -0.1599
   37CHL1   C18 2691   2.355   4.254   7.623  0.2186 -0.5915 -0.0609
   37CHL1  H18A 2692   2.309   4.227   7.525  0.2803  0.3849 -0.3616
   37CHL1  H18B 2693   2.432   4.180   7.654 -0.2925  0.0813  3.1777
   37CHL1  H18C 2694   2.268   4.250   7.691 -0.0197 -0.4802 -0.3595
   37CHL1   C12 2695   2.319   4.498   7.576  0.0076 -0.1004  0.0106
   37CHL1  H12A 2696   2.233   4.471   7.642 -0.6650  0.5983 -0.5653
   37CHL1  H12B 2697   2.359   4.597   7.607 -0.2050  0.8132 -2.4242
   37CHL1   C11 2698   2.275   4.483   7.428 -0.1958  0.4682 -0.1688
   37CHL1  H11A 2699   2.218   4.391   7.404 -0.2808  1.0383 -2.3872
   37CHL1  H11B 2700   2.206   4.565   7.397 -0.8121  0.0779  0.1459
   37CHL1    C9 2701   2.396   4.482   7.332  0.0436  0.3952  0.4517
   37CHL1    H9 2702   2.439   4.584   7.339 -2.1914  1.4395  0.0946
   37CHL1   C10 2703   2.364   4.460   7.185 -0.8449 -0.0771  0.1474
   37CHL1   C19 2704   2.273   4.340   7.167  0.8229 -0.6294  0.3784
   37CHL1  H19A 2705   2.322   4.250   7.209 -0.5634 -1.0705  1.0835
   37CHL1  H19B 2706   2.174   4.355   7.214 -0.7796  1.5875 -3.2660
   37CHL1  H19C 2707   2.260   4.304   7.063  3.8767  2.0190 -1.1184
   37CHL1    C1 2708   2.297   4.589   7.123 -0.4973  0.7541  0.3283
   37CHL1   H1A 2709   2.204   4.612   7.179 -0.4042  0.7541  0.4839
   37CHL1   H1B 2710   2.370   4.672   7.133  2.3569 -1.6716  1.1864
   37CHL1    C2 2711   2.266   4.574   6.970 -0.6015  0.3100 -0.1189
   37CHL1   H2A 2712   2.212   4.662   6.929 -1.5103  0.0097  0.4104
   37CHL1   H2B 2713   2.202   4.485   6.957 -0.2534  0.1515 -0.8187
   37CHL1   C20 2714   2.432   4.382   7.898  0.1006 -0.5500 -0.5628
   37CHL1   H20 2715   2.441   4.272   7.904  0.7564 -0.4214  2.3553
   37CHL1   C21 2716   2.283   4.418   7.927  0.2939 -0.2008 -0.0367
   37CHL1  H21A 2717   2.257   4.507   7.866 -2.2896 -1.5962 -1.1164
   37CHL1  H21B 2718   2.262   4.429   8.036 -0.0916  1.3527 -0.2524
   37CHL1  H21C 2719   2.217   4.342   7.880  0.3181 -0.3686  0.1956
   37CHL1   C22 2720   2.519   4.436   8.009 -0.0455 -0.0063 -0.0122
   37CHL1  H22A 2721   2.615   4.473   7.967 -0.8903  1.7288 -0.5018
   37CHL1  H22B 2722   2.463   4.527   8.040 -1.8499 -0.6832 -1.1331
   37CHL1   C23 2723   2.537   4.342   8.134 -0.3517  0.1313 -0.2897
   37CHL1  H23A 2724   2.438   4.310   8.174  0.0067 -1.8040 -0.8289
   37CHL1  H23B 2725   2.576   4.248   8.090  0.4918 -0.3878  1.4811
   37CHL1   C24 2726   2.645   4.392   8.237  0.1471 -0.0183 -0.5423
   37CHL1  H24A 2727   2.739   4.421   8.184  1.2697 -0.4528  1.1475
   37CHL1  H24B 2728   2.597   4.468   8.303 -0.6348 -0.1794 -0.9140
   37CHL1   C25 2729   2.691   4.281   8.340 -0.4758  1.0251  0.2036
   37CHL1   H25 2730   2.732   4.191   8.290  0.7574  1.1419  0.9946
   37CHL1   C26 2731   2.816   4.320   8.419  0.2181 -0.1886  0.1498
   37CHL1  H26A 2732   2.844   4.231   8.479  3.5991  0.2848 -0.5270
   37CHL1  H26B 2733   2.901   4.339   8.350 -0.9859 -1.2912 -1.7218
   37CHL1  H26C 2734   2.793   4.400   8.493  1.7797  0.2365  0.2112
   37CHL1   C27 2735   2.586   4.238   8.446  0.4471 -0.5065 -0.3753
   37CHL1  H27A 2736   2.573   4.327   8.511  3.5047 -0.5152  0.4328
   37CHL1  H27B 2737   2.491   4.202   8.401 -1.2085  2.4670  0.4749
   37CHL1  H27C 2738   2.626   4.159   8.513  1.7419  0.2579 -0.2093
   38CHL1    C3 2739   5.035   3.545   6.857 -0.1022 -0.1134  0.1087
   38CHL1    H3 2740   5.038   3.444   6.904 -4.3174  0.7718  2.8471
   38CHL1    O3 2741   5.019   3.542   6.717  0.1878 -0.2135 -0.0703
   38CHL1   H3' 2742   5.013   3.634   6.689 -1.9176 -0.8123 -1.8646
   38CHL1    C4 2743   4.911   3.611   6.925 -1.0602 -0.0983 -0.2781
   38CHL1   H4A 2744   4.901   3.714   6.887  1.4249  1.0655  1.9544
   38CHL1   H4B 2745   4.823   3.555   6.885 -0.3692  0.1780 -2.2991
   38CHL1    C5 2746   4.934   3.615   7.072  0.6059 -0.5141 -0.5279
   38CHL1    C6 2747   4.843   3.562   7.155  0.7327  0.0936 -0.4051
   38CHL1    H6 2748   4.750   3.530   7.106  0.0079  1.3955  0.0764
   38CHL1    C7 2749   4.841   3.569   7.305  0.6136 -0.7448  0.2155
   38CHL1   H7A 2750   4.744   3.609   7.342  1.0771 -0.1758  0.8267
   38CHL1   H7B 2751   4.855   3.473   7.359  0.5494 -0.7103  0.2955
   38CHL1    C8 2752   4.940   3.673   7.357  0.5377  0.5453  0.8770
   38CHL1    H8 2753   4.905   3.775   7.334 -1.4532 -0.1326  0.7411
   38CHL1   C14 2754   4.956   3.651   7.506  0.1483 -0.2231 -0.7741
   38CHL1   H14 2755   4.984   3.546   7.528  2.2873  0.5168  0.2328
   38CHL1   C15 2756   4.833   3.672   7.595 -0.1400 -0.0165  0.1035
   38CHL1  H15A 2757   4.793   3.770   7.560  0.7539 -0.0280 -1.0046
   38CHL1  H15B 2758   4.759   3.589   7.598  1.0444 -1.3820 -3.4487
   38CHL1   C16 2759   4.893   3.688   7.734  0.0129 -1.1510 -0.2856
   38CHL1  H16A 2760   4.844   3.775   7.783 -0.5041 -1.1852 -0.7285
   38CHL1  H16B 2761   4.864   3.604   7.801 -1.0502 -0.9983 -0.5403
   38CHL1   C17 2762   5.056   3.708   7.713  0.6873 -0.1731 -0.0970
   38CHL1   H17 2763   5.091   3.603   7.720  0.4793 -0.1818  1.0630
   38CHL1   C13 2764   5.069   3.736   7.563 -0.2432 -0.4512  0.4518
   38CHL1   C18 2765   5.059   3.891   7.538  0.3635  0.0396 -0.3597
   38CHL1  H18A 2766   4.975   3.915   7.608  0.8027 -0.8554  0.4985
   38CHL1  H18B 2767   5.148   3.949   7.570 -0.2350  1.4722 -1.1589
   38CHL1  H18C 2768   5.024   3.920   7.437  2.0311 -1.4009 -1.3954
   38CHL1   C12 2769   5.194   3.686   7.496  0.2871 -0.4470 -0.0866
   38CHL1  H12A 2770   5.284   3.736   7.539  0.7817 -0.6921 -0.8164
   38CHL1  H12B 2771   5.202   3.575   7.500  1.0350 -0.4110 -0.4562
   38CHL1   C11 2772   5.196   3.720   7.348  0.3341  0.3439  0.0252
   38CHL1  H11A 2773   5.189   3.829   7.329 -0.6906  0.3997  0.6738
   38CHL1  H11B 2774   5.289   3.681   7.300  0.4755  0.6828  0.0215
   38CHL1    C9 2775   5.074   3.649   7.278  0.0209 -0.1343  0.7046
   38CHL1    H9 2776   5.100   3.541   7.282  1.2712  0.1198  0.0073
   38CHL1   C10 2777   5.063   3.683   7.123 -0.4339  0.7602  0.5848
   38CHL1   C19 2778   5.057   3.840   7.083  0.0103 -0.4381  0.1181
   38CHL1  H19A 2779   4.996   3.888   7.164  0.1854 -1.0664  0.6343
   38CHL1  H19B 2780   5.160   3.880   7.073 -0.3931  0.5921 -0.0090
   38CHL1  H19C 2781   5.015   3.855   6.982 -0.7367 -2.6328  0.0436
   38CHL1    C1 2782   5.181   3.620   7.052 -0.4949  0.3335 -0.4168
   38CHL1   H1A 2783   5.275   3.675   7.075 -0.7024  1.1658 -1.4821
   38CHL1   H1B 2784   5.181   3.513   7.082 -0.0460  0.8530  1.5997
   38CHL1    C2 2785   5.161   3.614   6.894 -0.1588  0.0303  0.2353
   38CHL1   H2A 2786   5.242   3.577   6.828 -0.2859  0.6100 -0.2525
   38CHL1   H2B 2787   5.153   3.719   6.858 -1.1595 -0.1434 -0.0740
   38CHL1   C20 2788   5.120   3.801   7.822  0.0873 -0.0660  0.0116
   38CHL1   H20 2789   5.085   3.907   7.815 -0.3189 -0.0423  1.8170
   38CHL1   C21 2790   5.274   3.793   7.800  0.3759 -0.0709  0.1239
   38CHL1  H21A 2791   5.312   3.851   7.714  2.1917 -0.8233  0.3674
   38CHL1  H21B 2792   5.297   3.685   7.786  1.2484  0.0245  0.7399
   38CHL1  H21C 2793   5.333   3.831   7.887  1.1662  2.6548 -1.4879
   38CHL1   C22 2794   5.085   3.765   7.968 -0.8180 -0.4087  0.2729
   38CHL1  H22A 2795   4.982   3.723   7.975 -1.2868  0.6759  0.0735
   38CHL1  H22B 2796   5.139   3.669   7.978  0.3034  0.2912  1.2554
   38CHL1   C23 2797   5.109   3.868   8.080 -0.0399  0.1636 -0.0994
   38CHL1  H23A 2798   5.193   3.937   8.055 -0.4521  0.0566 -1.9069
   38CHL1  H23B 2799   5.021   3.935   8.065 -0.6266 -0.7804 -0.9795
   38CHL1   C24 2800   5.126   3.808   8.221 -0.0059  0.1880 -0.4199
   38CHL1  H24A 2801   5.038   3.745   8.246  0.6503 -0.7273 -0.3544
   38CHL1  H24B 2802   5.210   3.736   8.215 -0.5243 -0.4379 -0.2612
   38CHL1   C25 2803   5.156   3.896   8.343 -0.2022  0.6960 -0.0046
   38CHL1   H25 2804   5.244   3.959   8.318  0.1933  0.4294  0.6787
   38CHL1   C26 2805   5.031   3.979   8.385  0.5416 -0.1278  0.2438
   38CHL1  H26A 2806   4.981   4.023   8.296  3.0560  0.6667 -0.8855
   38CHL1  H26B 2807   4.972   3.903   8.441 -0.2046  0.3517  0.1268
   38CHL1  H26C 2808   5.061   4.056   8.458  0.3560 -2.1891  2.6102
   38CHL1   C27 2809   5.198   3.801   8.464 -0.0723 -1.0769  0.2574
   38CHL1  H27A 2810   5.234   3.878   8.535 -3.4259  2.4369 -1.4503
   38CHL1  H27B 2811   5.120   3.735   8.508 -0.2015 -0.7800  0.4783
   38CHL1  H27C 2812   5.291   3.745   8.441 -0.5935 -2.4238  1.3533
   39CHL1    C3 2813   4.271   3.358   7.180 -0.0590  0.5282 -0.2223
   39CHL1    H3 2814   4.174   3.337   7.229  1.8135 -1.5815  3.0268
   39CHL1    O3 2815   4.279   3.344   7.035  0.2297 -0.4676  0.1996
   39CHL1   H3' 2816   4.360   3.387   7.009  0.7035 -1.3545  0.1594
   39CHL1    C4 2817   4.304   3.505   7.229  0.4472  0.2824  0.7261
   39CHL1   H4A 2818   4.402   3.534   7.185 -0.2632  1.6978 -0.0159
   39CHL1   H4B 2819   4.237   3.582   7.186  0.6346 -0.3348 -0.7528
   39CHL1    C5 2820   4.302   3.516   7.379  1.0535  0.5783 -0.9209
   39CHL1    C6 2821   4.219   3.602   7.446 -0.1034 -0.4662 -0.0166
   39CHL1    H6 2822   4.160   3.674   7.388  0.1533  0.7963  1.2540
   39CHL1    C7 2823   4.217   3.620   7.595  0.3328  0.1541  0.8369
   39CHL1   H7A 2824   4.214   3.727   7.624  1.1145  0.6352 -0.7419
   39CHL1   H7B 2825   4.122   3.574   7.628  0.9898 -4.2865 -2.5440
   39CHL1    C8 2826   4.334   3.558   7.667  0.2990  0.0435  0.7313
   39CHL1    H8 2827   4.429   3.612   7.647  1.1870 -2.0268 -1.1443
   39CHL1   C14 2828   4.317   3.546   7.814 -0.1060 -0.5220  0.2382
   39CHL1   H14 2829   4.235   3.471   7.819  1.2972 -2.0491  2.6656
   39CHL1   C15 2830   4.268   3.667   7.896 -0.0508  0.5138  0.6245
   39CHL1  H15A 2831   4.327   3.757   7.869  0.3454  0.2274  0.5196
   39CHL1  H15B 2832   4.159   3.667   7.874 -0.5498 -2.0664  2.5998
   39CHL1   C16 2833   4.286   3.628   8.036  0.5963 -0.6086  0.0586
   39CHL1  H16A 2834   4.342   3.704   8.094 -1.3556  1.2309 -0.3298
   39CHL1  H16B 2835   4.191   3.606   8.089 -0.4662  0.5112 -1.2873
   39CHL1   C17 2836   4.373   3.490   8.031  0.8248 -0.3224  0.0714
   39CHL1   H17 2837   4.293   3.413   8.045 -0.1184  0.6458  0.1102
   39CHL1   C13 2838   4.431   3.475   7.890  0.2940  0.0050 -0.0475
   39CHL1   C18 2839   4.563   3.554   7.877  0.0421 -0.0980  0.1048
   39CHL1  H18A 2840   4.539   3.658   7.907  0.1768 -0.3777  1.2005
   39CHL1  H18B 2841   4.647   3.510   7.935  1.9032  0.1732 -2.2400
   39CHL1  H18C 2842   4.596   3.553   7.771  1.1731  0.6580  0.4379
   39CHL1   C12 2843   4.441   3.330   7.841  0.2333  0.1389  0.6045
   39CHL1  H12A 2844   4.530   3.278   7.881 -0.4333  0.3173  2.4168
   39CHL1  H12B 2845   4.349   3.277   7.874  0.6508  0.7425  2.8283
   39CHL1   C11 2846   4.455   3.323   7.688  1.0046  0.2335  0.0588
   39CHL1  H11A 2847   4.554   3.372   7.672  1.5514 -0.5032  1.0453
   39CHL1  H11B 2848   4.460   3.218   7.651 -3.5972  0.4749 -1.8205
   39CHL1    C9 2849   4.358   3.413   7.602  0.2027  0.0677 -0.2241
   39CHL1    H9 2850   4.260   3.363   7.614  1.2576 -1.9760  0.2827
   39CHL1   C10 2851   4.389   3.415   7.450  0.1714 -0.1046  0.4036
   39CHL1   C19 2852   4.538   3.447   7.427 -0.2609 -0.1246  0.3291
   39CHL1  H19A 2853   4.558   3.455   7.318  1.8085 -0.3582  0.6632
   39CHL1  H19B 2854   4.566   3.542   7.477  0.3903 -0.8510  1.3821
   39CHL1  H19C 2855   4.604   3.365   7.460  0.7907  0.0694 -1.2153
   39CHL1    C1 2856   4.360   3.270   7.392 -0.3764 -0.1694  0.0003
   39CHL1   H1A 2857   4.424   3.193   7.441  0.4055  0.1641 -0.4840
   39CHL1   H1B 2858   4.254   3.243   7.410 -0.3794  0.4207  0.9401
   39CHL1    C2 2859   4.378   3.269   7.241 -0.0602 -0.1607  0.6044
   39CHL1   H2A 2860   4.376   3.165   7.201  0.3331 -1.0531  2.7526
   39CHL1   H2B 2861   4.473   3.305   7.196 -0.3743 -0.7697 -0.5794
   39CHL1   C20 2862   4.464   3.479   8.151  0.4220  0.1047 -0.5885
   39CHL1   H20 2863   4.527   3.569   8.157  1.0242 -0.2709 -1.1733
   39CHL1   C21 2864   4.539   3.346   8.154  0.0684 -0.0475  0.5226
   39CHL1  H21A 2865   4.634   3.355   8.098  1.2891 -1.3921  2.2517
   39CHL1  H21B 2866   4.466   3.266   8.127  1.3535 -1.1470  0.1936
   39CHL1  H21C 2867   4.580   3.319   8.254  5.5558  0.3506 -1.2914
   39CHL1   C22 2868   4.372   3.470   8.281  0.3844 -0.7210 -0.1807
   39CHL1  H22A 2869   4.281   3.532   8.268 -0.0918 -1.8626 -2.9705
   39CHL1  H22B 2870   4.334   3.365   8.286 -2.5792  0.2756 -0.1896
   39CHL1   C23 2871   4.450   3.517   8.413 -0.9408 -0.0223 -0.1753
   39CHL1  H23A 2872   4.399   3.457   8.491 -0.4993 -2.5237 -1.7086
   39CHL1  H23B 2873   4.555   3.482   8.407 -0.4842  0.8033  1.9797
   39CHL1   C24 2874   4.436   3.672   8.424 -0.3247  0.1551 -0.1534
   39CHL1  H24A 2875   4.491   3.713   8.336  0.8124 -0.5537  0.2021
   39CHL1  H24B 2876   4.329   3.700   8.416 -0.2993  0.5917  0.9093
   39CHL1   C25 2877   4.506   3.733   8.547  0.1185  0.4421 -0.6395
   39CHL1   H25 2878   4.473   3.839   8.544 -1.4262 -0.0136 -0.6056
   39CHL1   C26 2879   4.469   3.678   8.677 -0.0516  0.2495 -0.0766
   39CHL1  H26A 2880   4.512   3.577   8.692 -1.2992 -0.0554  1.8280
   39CHL1  H26B 2881   4.508   3.742   8.759 -0.0375  0.0923  0.0405
   39CHL1  H26C 2882   4.358   3.678   8.675 -0.0687 -1.2057 -0.7028
   39CHL1   C27 2883   4.659   3.726   8.523 -0.6143 -0.0310 -0.2174
   39CHL1  H27A 2884   4.694   3.622   8.540 -0.7051  0.3802  3.0760
   39CHL1  H27B 2885   4.695   3.771   8.428 -3.5989  0.6907 -1.0982
   39CHL1  H27C 2886   4.692   3.778   8.615 -1.1768  0.0893 -0.0841
   40CHL1    C3 2887   5.482   6.711   7.090  0.6382  0.2246  0.6774
   40CHL1    H3 2888   5.402   6.777   7.130 -1.3152  0.1263 -2.6953
   40CHL1    O3 2889   5.523   6.743   6.959  0.2063  0.6647  0.4064
   40CHL1   H3' 2890   5.579   6.669   6.933 -0.6406 -0.0340  0.5261
   40CHL1    C4 2891   5.604   6.709   7.184 -0.0747 -0.0511 -0.6423
   40CHL1   H4A 2892   5.679   6.648   7.131 -0.8825 -0.4008 -1.4113
   40CHL1   H4B 2893   5.623   6.819   7.180  0.1098 -0.0616 -0.1823
   40CHL1    C5 2894   5.566   6.656   7.328 -0.4784  0.0475  0.5299
   40CHL1    C6 2895   5.596   6.735   7.427  0.1665  1.1068 -0.0976
   40CHL1    H6 2896   5.664   6.821   7.415  2.7803 -0.4400  2.5084
   40CHL1    C7 2897   5.555   6.701   7.565  0.5766 -0.9367 -0.1867
   40CHL1   H7A 2898   5.643   6.706   7.633  0.7249  1.0801 -0.4566
   40CHL1   H7B 2899   5.480   6.779   7.589  0.7544 -0.2194 -1.8353
   40CHL1    C8 2900   5.511   6.550   7.590 -0.6820  0.4928 -0.5602
   40CHL1    H8 2901   5.601   6.485   7.591  0.4102  1.9328 -1.0272
   40CHL1   C14 2902   5.429   6.553   7.717  0.0946  0.0493 -0.8636
   40CHL1   H14 2903   5.343   6.621   7.700  0.8999  1.0932 -0.8746
   40CHL1   C15 2904   5.497   6.617   7.839 -0.1350 -0.0060  0.3702
   40CHL1  H15A 2905   5.606   6.598   7.830 -0.4441 -0.9250 -2.3039
   40CHL1  H15B 2906   5.492   6.727   7.851 -2.8111  0.1464 -1.2930
   40CHL1   C16 2907   5.420   6.554   7.957 -0.5288 -0.2010 -0.0707
   40CHL1  H16A 2908   5.481   6.492   8.025 -0.2500 -2.3017 -2.1247
   40CHL1  H16B 2909   5.353   6.619   8.018  1.1445 -0.7043  2.4552
   40CHL1   C17 2910   5.324   6.441   7.897  0.3954 -0.4761  0.4819
   40CHL1   H17 2911   5.227   6.491   7.881  1.0208 -0.2641 -3.5203
   40CHL1   C13 2912   5.390   6.411   7.765  0.3130 -0.1624  0.2707
   40CHL1   C18 2913   5.508   6.318   7.796  0.2694  0.8228 -0.0432
   40CHL1  H18A 2914   5.568   6.298   7.705 -0.3235 -1.6367  0.0182
   40CHL1  H18B 2915   5.571   6.354   7.879  1.1516 -2.0006  0.6320
   40CHL1  H18C 2916   5.472   6.220   7.835 -0.5650  1.2287  0.2260
   40CHL1   C12 2917   5.297   6.352   7.655 -0.2135  0.0549 -0.2870
   40CHL1  H12A 2918   5.260   6.249   7.678 -0.6959  0.7779  2.6536
   40CHL1  H12B 2919   5.201   6.408   7.655 -0.6454 -0.6192  1.4197
   40CHL1   C11 2920   5.362   6.358   7.509 -0.0294  0.1037 -0.5276
   40CHL1  H11A 2921   5.438   6.277   7.509 -0.2425 -0.1064  0.2219
   40CHL1  H11B 2922   5.280   6.337   7.436 -0.2131  0.8590 -0.5483
   40CHL1    C9 2923   5.417   6.501   7.479  0.3779  0.5465  0.4562
   40CHL1    H9 2924   5.324   6.562   7.472 -0.4434 -0.6731  0.4821
   40CHL1   C10 2925   5.484   6.526   7.337 -0.2873 -0.6025 -0.0934
   40CHL1   C19 2926   5.578   6.401   7.318  0.8834 -0.5446  0.1108
   40CHL1  H19A 2927   5.518   6.312   7.288 -0.0240 -0.1951  0.8739
   40CHL1  H19B 2928   5.651   6.422   7.236 -0.6833 -2.4290 -1.9040
   40CHL1  H19C 2929   5.635   6.378   7.410 -1.2930  2.9683  2.5662
   40CHL1    C1 2930   5.375   6.541   7.231 -0.1133  0.2640  0.0133
   40CHL1   H1A 2931   5.309   6.453   7.220  0.9386 -0.4566 -0.8001
   40CHL1   H1B 2932   5.311   6.624   7.268 -1.3773  0.1834 -1.8297
   40CHL1    C2 2933   5.417   6.575   7.088 -0.0700  0.4903  0.2624
   40CHL1   H2A 2934   5.329   6.571   7.021  0.4536 -3.4426 -0.4574
   40CHL1   H2B 2935   5.483   6.493   7.052 -0.5941  0.8136 -1.5576
   40CHL1   C20 2936   5.302   6.332   8.002 -0.2600 -0.2138 -0.4804
   40CHL1   H20 2937   5.403   6.292   8.024  0.1842  1.2425  0.2559
   40CHL1   C21 2938   5.219   6.207   7.965  0.3295  0.7096  0.4165
   40CHL1  H21A 2939   5.212   6.128   8.043 -2.3927 -1.3414 -1.6838
   40CHL1  H21B 2940   5.253   6.152   7.874  2.0258  0.3871  1.2079
   40CHL1  H21C 2941   5.113   6.234   7.950  0.1313 -0.7734 -1.1971
   40CHL1   C22 2942   5.237   6.389   8.131 -0.5615 -0.3645 -0.3388
   40CHL1  H22A 2943   5.190   6.487   8.106  1.3903  0.4846 -0.9239
   40CHL1  H22B 2944   5.162   6.315   8.164 -0.2625 -0.3304  0.4435
   40CHL1   C23 2945   5.330   6.406   8.247 -0.4196  0.4385  0.1665
   40CHL1  H23A 2946   5.373   6.311   8.283  0.2962  0.9923  0.8202
   40CHL1  H23B 2947   5.414   6.478   8.230  0.3945 -1.1493 -3.3823
   40CHL1   C24 2948   5.255   6.471   8.368 -0.1308  0.2980 -0.4031
   40CHL1  H24A 2949   5.251   6.579   8.341 -0.8760  0.3099 -0.2816
   40CHL1  H24B 2950   5.155   6.424   8.378  1.1151 -2.1116  1.7407
   40CHL1   C25 2951   5.321   6.458   8.505  0.1102  0.4758 -1.1946
   40CHL1   H25 2952   5.316   6.350   8.530  0.0316  0.2054 -2.3520
   40CHL1   C26 2953   5.466   6.500   8.517  0.4942  0.1874  0.0346
   40CHL1  H26A 2954   5.504   6.452   8.610  0.1833  0.8561  0.5150
   40CHL1  H26B 2955   5.534   6.459   8.439 -0.4076 -1.2540 -0.0170
   40CHL1  H26C 2956   5.477   6.611   8.518  1.7183  0.0938  1.3023
   40CHL1   C27 2957   5.243   6.538   8.611 -0.8109  0.1510 -0.0827
   40CHL1  H27A 2958   5.264   6.507   8.715  3.6205  1.7465 -0.2962
   40CHL1  H27B 2959   5.275   6.645   8.610  1.3862 -0.3484  2.8230
   40CHL1  H27C 2960   5.134   6.530   8.591 -1.5102 -2.5548  3.7644
   41CHL1    C3 2961   4.554   0.298   6.948 -0.1865  0.4830  0.1125
   41CHL1    H3 2962   4.448   0.265   6.942 -0.7417  2.1620  0.4064
   41CHL1    O3 2963   4.605   0.289   6.814 -0.0668 -0.0000 -0.4590
   41CHL1   H3' 2964   4.698   0.310   6.828  0.4858 -1.5996 -1.4990
   41CHL1    C4 2965   4.577   0.445   6.983  0.1096  0.0922  0.4247
   41CHL1   H4A 2966   4.683   0.480   6.978 -0.6938  2.8653  1.0056
   41CHL1   H4B 2967   4.528   0.511   6.909  0.4988 -1.2238 -1.0613
   41CHL1    C5 2968   4.528   0.463   7.125 -0.3132 -0.5303 -0.0753
   41CHL1    C6 2969   4.426   0.551   7.157 -0.2184 -0.1027  0.1458
   41CHL1    H6 2970   4.379   0.606   7.075  0.4757  0.7963  0.3381
   41CHL1    C7 2971   4.372   0.571   7.296 -0.5100  0.9816 -1.2456
   41CHL1   H7A 2972   4.354   0.680   7.311  1.3804  1.6558 -3.3287
   41CHL1   H7B 2973   4.285   0.504   7.310  0.0999  0.4141  0.1031
   41CHL1    C8 2974   4.475   0.524   7.405  0.4239  0.4718 -0.2919
   41CHL1    H8 2975   4.567   0.585   7.411  1.5331 -1.1185 -0.4055
   41CHL1   C14 2976   4.405   0.528   7.539 -0.1469  0.6034  0.5854
   41CHL1   H14 2977   4.329   0.450   7.520  0.4292  0.2511 -0.3536
   41CHL1   C15 2978   4.329   0.655   7.579  0.1269 -0.0250 -0.8034
   41CHL1  H15A 2979   4.383   0.751   7.563 -2.2524  1.4374 -0.5114
   41CHL1  H15B 2980   4.236   0.665   7.520  0.2168  0.9710 -0.8027
   41CHL1   C16 2981   4.313   0.628   7.729  0.0019 -0.5985  0.3403
   41CHL1  H16A 2982   4.372   0.709   7.778  2.7789 -1.8121 -0.8020
   41CHL1  H16B 2983   4.206   0.625   7.758  0.2835  0.2584  1.5942
   41CHL1   C17 2984   4.379   0.493   7.763 -0.1349  0.7036  0.1662
   41CHL1   H17 2985   4.310   0.410   7.735  0.0635  1.4130 -2.7008
   41CHL1   C13 2986   4.480   0.481   7.655  0.0716  0.4817  0.3146
   41CHL1   C18 2987   4.606   0.570   7.679 -0.1868  0.0180  0.6164
   41CHL1  H18A 2988   4.571   0.674   7.699 -1.3239  0.1696 -1.7705
   41CHL1  H18B 2989   4.662   0.541   7.770 -1.6926 -0.5470  1.4047
   41CHL1  H18C 2990   4.673   0.561   7.591 -1.6166 -1.6363 -0.3697
   41CHL1   C12 2991   4.513   0.326   7.626 -0.1371 -0.3984  0.5682
   41CHL1  H12A 2992   4.576   0.293   7.712  2.1491  1.7947 -0.1121
   41CHL1  H12B 2993   4.417   0.272   7.615 -2.1824  3.1604 -0.5885
   41CHL1   C11 2994   4.595   0.312   7.493 -0.0788  0.0860  0.7445
   41CHL1  H11A 2995   4.692   0.364   7.502  1.4649 -1.6913 -3.1942
   41CHL1  H11B 2996   4.597   0.201   7.483 -0.8804  0.1370 -0.1328
   41CHL1    C9 2997   4.528   0.375   7.368  0.9075  0.3695  0.3009
   41CHL1    H9 2998   4.438   0.310   7.359  0.2208  1.0061  2.0784
   41CHL1   C10 2999   4.599   0.376   7.231  0.0620  0.6339 -0.2399
   41CHL1   C19 3000   4.738   0.430   7.251 -0.2171 -0.1172  0.3839
   41CHL1  H19A 3001   4.798   0.369   7.321 -2.2460 -0.0754  2.2741
   41CHL1  H19B 3002   4.796   0.429   7.157 -2.4206  0.9965 -1.0896
   41CHL1  H19C 3003   4.737   0.531   7.298  0.9765 -0.2761  0.7711
   41CHL1    C1 3004   4.602   0.230   7.185 -0.1525 -0.1322 -0.3527
   41CHL1   H1A 3005   4.670   0.168   7.248 -0.7308 -2.8941 -2.2419
   41CHL1   H1B 3006   4.504   0.178   7.194 -1.8904  2.8480 -0.6453
   41CHL1    C2 3007   4.636   0.206   7.039  0.0102  0.2262 -0.4123
   41CHL1   H2A 3008   4.623   0.097   7.021 -1.3039 -0.1407  2.3247
   41CHL1   H2B 3009   4.743   0.236   7.032 -0.6521  3.5467  1.4675
   41CHL1   C20 3010   4.418   0.493   7.914  0.7696  0.1447 -0.3057
   41CHL1   H20 3011   4.480   0.585   7.915 -1.3018  1.6696 -1.8281
   41CHL1   C21 3012   4.506   0.370   7.955 -0.3312 -0.2649  0.0244
   41CHL1  H21A 3013   4.601   0.380   7.897  0.5014 -1.0034  1.2171
   41CHL1  H21B 3014   4.462   0.275   7.919 -0.7753  0.3736 -1.1730
   41CHL1  H21C 3015   4.520   0.370   8.065  2.1439 -0.6075 -0.2208
   41CHL1   C22 3016   4.300   0.522   8.012 -0.0093  0.7162  0.2479
   41CHL1  H22A 3017   4.332   0.528   8.119 -1.4755  1.0894  0.6907
   41CHL1  H22B 3018   4.270   0.626   7.990  2.8623  1.2427 -1.7243
   41CHL1   C23 3019   4.191   0.420   8.002  0.6300  0.0848  0.5029
   41CHL1  H23A 3020   4.148   0.406   7.901 -1.2401 -0.1613  1.3018
   41CHL1  H23B 3021   4.234   0.319   8.015  2.6212  0.5827 -1.4479
   41CHL1   C24 3022   4.072   0.443   8.091  0.0018 -0.9554  0.1261
   41CHL1  H24A 3023   4.093   0.445   8.200 -1.4433  1.0579  0.4351
   41CHL1  H24B 3024   4.034   0.545   8.070  1.8031  0.1159  1.6669
   41CHL1   C25 3025   3.966   0.330   8.080 -0.5326 -0.6457  0.2147
   41CHL1   H25 3026   4.028   0.238   8.070  0.9484  0.4114 -0.8322
   41CHL1   C26 3027   3.865   0.322   8.198 -1.0631  0.1590  0.1149
   41CHL1  H26A 3028   3.810   0.418   8.190 -1.6988 -0.2248 -0.1205
   41CHL1  H26B 3029   3.795   0.236   8.198 -0.5156 -0.2961 -0.6855
   41CHL1  H26C 3030   3.925   0.324   8.292  1.2425 -0.4062 -1.2566
   41CHL1   C27 3031   3.876   0.334   7.952 -0.4184 -0.3259  0.1665
   41CHL1  H27A 3032   3.946   0.305   7.871 -0.7709 -0.8057  0.0296
   41CHL1  H27B 3033   3.799   0.254   7.951  0.2650 -1.0012  0.4160
   41CHL1  H27C 3034   3.833   0.436   7.942  1.1269  0.3296 -0.1573
   42CHL1    C3 3035   0.303   4.555   7.088 -0.0110 -1.0341 -0.0473
   42CHL1    H3 3036   0.205   4.502   7.084 -1.4147  1.4563 -2.1772
   42CHL1    O3 3037   0.321   4.600   6.956  0.1901 -0.0456  0.0937
   42CHL1   H3' 3038   0.414   4.625   6.954  0.6405 -1.0723  2.8794
   42CHL1    C4 3039   0.295   4.676   7.174 -0.3564 -0.5771 -0.4795
   42CHL1   H4A 3040   0.392   4.727   7.160  0.7789 -2.2669  0.8653
   42CHL1   H4B 3041   0.209   4.739   7.141  0.8759  0.9649 -0.8652
   42CHL1    C5 3042   0.276   4.623   7.320 -0.4908 -0.5248  0.6071
   42CHL1    C6 3043   0.168   4.659   7.388 -0.1980 -0.1066  0.2735
   42CHL1    H6 3044   0.102   4.729   7.335  2.0440  0.9827 -1.2102
   42CHL1    C7 3045   0.139   4.624   7.523 -0.6241  0.0145 -0.0543
   42CHL1   H7A 3046   0.109   4.712   7.584  2.7310  1.8518 -0.8032
   42CHL1   H7B 3047   0.073   4.537   7.546  0.7354 -0.7963  0.9553
   42CHL1    C8 3048   0.272   4.576   7.591 -0.2912  0.6155 -0.4775
   42CHL1    H8 3049   0.341   4.663   7.597 -0.9760  1.3408 -2.4020
   42CHL1   C14 3050   0.247   4.524   7.727 -0.7163  0.0195  0.9004
   42CHL1   H14 3051   0.178   4.437   7.723 -0.6647 -0.0897  2.0291
   42CHL1   C15 3052   0.180   4.615   7.833  0.0938 -0.3069 -0.1971
   42CHL1  H15A 3053   0.222   4.718   7.839 -1.7542  0.4558  0.2093
   42CHL1  H15B 3054   0.074   4.631   7.807  0.2952 -1.7035 -2.1024
   42CHL1   C16 3055   0.209   4.552   7.967 -0.0434 -0.4467  0.1825
   42CHL1  H16A 3056   0.250   4.623   8.041 -0.8268 -0.2026  0.3887
   42CHL1  H16B 3057   0.120   4.498   8.007  0.3260 -1.0295  0.2272
   42CHL1   C17 3058   0.307   4.437   7.943 -0.1823 -0.6836 -0.1085
   42CHL1   H17 3059   0.252   4.342   7.924  0.7014 -1.6008  1.7153
   42CHL1   C13 3060   0.370   4.466   7.803  0.2875 -0.2302  0.4475
   42CHL1   C18 3061   0.478   4.577   7.813 -0.2183  0.5879  0.3674
   42CHL1  H18A 3062   0.444   4.656   7.884 -4.0448 -0.3843 -0.2122
   42CHL1  H18B 3063   0.573   4.534   7.852 -1.1382 -0.5611  1.3847
   42CHL1  H18C 3064   0.494   4.627   7.715  0.9966 -0.8708 -0.2156
   42CHL1   C12 3065   0.417   4.346   7.712 -0.6236  0.2257 -0.3730
   42CHL1  H12A 3066   0.502   4.300   7.768 -0.3093  0.6354 -0.5133
   42CHL1  H12B 3067   0.330   4.279   7.695 -1.3431  1.4362 -1.6449
   42CHL1   C11 3068   0.463   4.394   7.572 -0.0260 -0.0344 -0.5085
   42CHL1  H11A 3069   0.546   4.465   7.590  1.4520 -1.6480 -0.7607
   42CHL1  H11B 3070   0.490   4.307   7.509 -0.7924  0.7500 -1.9584
   42CHL1    C9 3071   0.346   4.469   7.501  0.5354 -0.1047 -0.3226
   42CHL1    H9 3072   0.263   4.397   7.484  0.2622  0.0356  0.3937
   42CHL1   C10 3073   0.388   4.529   7.367  0.7472 -0.0784  0.5339
   42CHL1   C19 3074   0.522   4.605   7.382 -0.0154 -0.3390  0.0187
   42CHL1  H19A 3075   0.534   4.692   7.314  2.0032 -0.8162 -0.2875
   42CHL1  H19B 3076   0.532   4.637   7.488  1.4190 -0.8780  0.0720
   42CHL1  H19C 3077   0.618   4.550   7.376  0.6561  0.8367 -0.4551
   42CHL1    C1 3078   0.406   4.412   7.266  0.6385  0.2725  0.3872
   42CHL1   H1A 3079   0.478   4.335   7.300 -2.5293 -1.9832  2.5733
   42CHL1   H1B 3080   0.307   4.362   7.270 -0.6264  2.6607  0.6957
   42CHL1    C2 3081   0.417   4.462   7.129  0.0259 -1.0088  0.0524
   42CHL1   H2A 3082   0.419   4.377   7.059 -3.2788  0.1117 -1.6108
   42CHL1   H2B 3083   0.515   4.512   7.113 -0.1173 -0.2624  1.3109
   42CHL1   C20 3084   0.393   4.398   8.065 -0.2351  0.0968 -0.0335
   42CHL1   H20 3085   0.450   4.488   8.096 -0.2287  0.2043 -0.3606
   42CHL1   C21 3086   0.490   4.277   8.035  0.1397 -0.0561 -0.2537
   42CHL1  H21A 3087   0.433   4.205   7.972  0.5252 -0.4484 -0.1640
   42CHL1  H21B 3088   0.539   4.227   8.121 -0.6025 -1.4764 -0.6263
   42CHL1  H21C 3089   0.575   4.309   7.970  0.3479  0.8751  0.4613
   42CHL1   C22 3090   0.304   4.356   8.180 -0.7408 -0.6178 -0.6101
   42CHL1  H22A 3091   0.233   4.439   8.203 -0.7590 -1.0372  1.0036
   42CHL1  H22B 3092   0.249   4.262   8.155 -2.0930  0.5562 -2.2429
   42CHL1   C23 3093   0.382   4.340   8.313  0.0694  0.1328  0.9310
   42CHL1  H23A 3094   0.406   4.232   8.308 -0.8847 -0.0593 -3.2095
   42CHL1  H23B 3095   0.481   4.391   8.317  0.9572 -1.4042 -0.3458
   42CHL1   C24 3096   0.289   4.370   8.429  0.1401  0.0873 -1.0709
   42CHL1  H24A 3097   0.279   4.478   8.450  0.9460 -0.3394  1.9293
   42CHL1  H24B 3098   0.187   4.330   8.412  0.0547 -0.4126  0.4632
   42CHL1   C25 3099   0.322   4.295   8.567  0.3131 -0.3027 -0.4884
   42CHL1   H25 3100   0.305   4.186   8.555  1.4214 -0.7743  1.8113
   42CHL1   C26 3101   0.462   4.330   8.612  0.2000 -0.3363  0.0418
   42CHL1  H26A 3102   0.478   4.440   8.613 -0.8713 -0.1659 -0.1414
   42CHL1  H26B 3103   0.479   4.301   8.718  0.2993  0.6678  0.3056
   42CHL1  H26C 3104   0.532   4.280   8.541  0.0393  1.1574 -1.2317
   42CHL1   C27 3105   0.222   4.352   8.680 -0.4202 -0.3212  0.1002
   42CHL1  H27A 3106   0.220   4.463   8.684 -1.5276 -0.2558 -1.3118
   42CHL1  H27B 3107   0.241   4.310   8.781  0.0066 -2.7762 -0.9295
   42CHL1  H27C 3108   0.120   4.316   8.652  0.2024 -2.1582  0.0294
   43CHL1    C3 3109   0.286   1.596   6.852  0.5832  0.0818 -0.2336
   43CHL1    H3 3110   0.307   1.489   6.872  0.9440 -0.2296 -2.0431
   43CHL1    O3 3111   0.301   1.611   6.711 -0.2184 -0.4592 -0.4677
   43CHL1   H3' 3112   0.285   1.705   6.698  1.9423 -0.1307 -1.1762
   43CHL1    C4 3113   0.139   1.632   6.892 -0.1292  0.8665  0.2006
   43CHL1   H4A 3114   0.115   1.738   6.868 -1.7304  0.1457 -1.7349
   43CHL1   H4B 3115   0.074   1.558   6.839  0.1744 -0.2687  1.3874
   43CHL1    C5 3116   0.117   1.638   7.044 -0.3409  0.0104 -0.2397
   43CHL1    C6 3117   0.006   1.580   7.095  0.3727 -0.4080 -0.1950
   43CHL1    H6 3118  -0.059   1.538   7.018  0.0558 -0.6396  0.1937
   43CHL1    C7 3119  -0.022   1.569   7.243 -0.4015  0.4715  0.2201
   43CHL1   H7A 3120  -0.126   1.594   7.271 -0.7319  1.1327 -1.5058
   43CHL1   H7B 3121  -0.006   1.470   7.291 -1.6287 -0.4710 -1.2094
   43CHL1    C8 3122   0.084   1.648   7.330 -0.1401  0.3372  0.0093
   43CHL1    H8 3123   0.055   1.754   7.346 -3.0942 -0.3951  0.1343
   43CHL1   C14 3124   0.090   1.594   7.469 -0.7984  0.5967  0.0951
   43CHL1   H14 3125   0.119   1.487   7.464 -1.0260  0.4982  0.7674
   43CHL1   C15 3126  -0.051   1.607   7.537  0.1734  0.4871  0.3783
   43CHL1  H15A 3127  -0.111   1.698   7.513  0.0976  0.4790  0.5414
   43CHL1  H15B 3128  -0.112   1.518   7.508  2.1391 -0.8015  0.0400
   43CHL1   C16 3129  -0.023   1.593   7.686  0.4988 -0.1004 -0.3225
   43CHL1  H16A 3130  -0.061   1.677   7.747 -1.8235 -1.9384  0.8999
   43CHL1  H16B 3131  -0.060   1.496   7.726 -1.1369  1.2146  1.5483
   43CHL1   C17 3132   0.135   1.590   7.700  0.1689  0.2479 -0.0025
   43CHL1   H17 3133   0.157   1.482   7.685 -1.8940 -0.5279  1.9071
   43CHL1   C13 3134   0.184   1.659   7.572  0.3360  0.3073 -0.8501
   43CHL1   C18 3135   0.165   1.806   7.591  0.8303 -0.2114  0.5477
   43CHL1  H18A 3136   0.156   1.851   7.490  1.3940 -1.4678 -0.0823
   43CHL1  H18B 3137   0.061   1.820   7.629  0.2505  1.8487 -1.5233
   43CHL1  H18C 3138   0.239   1.844   7.663 -0.1848 -0.7309  1.9111
   43CHL1   C12 3139   0.323   1.633   7.520  0.7939  0.5002 -0.1067
   43CHL1  H12A 3140   0.402   1.676   7.586  1.3306 -1.0679  0.3238
   43CHL1  H12B 3141   0.334   1.523   7.512 -1.1934  0.3287 -1.0851
   43CHL1   C11 3142   0.333   1.691   7.378  0.5903 -0.4361 -0.0874
   43CHL1  H11A 3143   0.330   1.799   7.402  0.7461 -0.7248  1.2979
   43CHL1  H11B 3144   0.436   1.676   7.338 -0.8622 -2.1307 -3.6128
   43CHL1    C9 3145   0.228   1.641   7.275  0.4100 -0.0528  0.9418
   43CHL1    H9 3146   0.255   1.534   7.268  0.4061 -0.1163  1.8046
   43CHL1   C10 3147   0.232   1.694   7.136 -0.3658  0.7174 -0.0592
   43CHL1   C19 3148   0.229   1.849   7.145  0.0423 -0.2691  0.0691
   43CHL1  H19A 3149   0.325   1.875   7.193 -1.1615 -1.0037  3.1262
   43CHL1  H19B 3150   0.214   1.898   7.046  0.8058 -1.3938 -0.6267
   43CHL1  H19C 3151   0.151   1.894   7.211  0.0848  0.4375 -0.3472
   43CHL1    C1 3152   0.371   1.656   7.081  0.2660 -0.2125  0.6473
   43CHL1   H1A 3153   0.447   1.711   7.140 -0.5661  1.6321  0.0801
   43CHL1   H1B 3154   0.394   1.549   7.099  1.3867 -0.7260 -3.0259
   43CHL1    C2 3155   0.375   1.689   6.929 -0.4871  0.4036 -0.3185
   43CHL1   H2A 3156   0.475   1.658   6.890 -0.1809 -0.6252  1.1957
   43CHL1   H2B 3157   0.351   1.792   6.895  2.0131  0.5491 -1.9281
   43CHL1   C20 3158   0.191   1.634   7.835  0.2910  0.5318  0.1331
   43CHL1   H20 3159   0.204   1.744   7.825 -1.3148  0.7036 -0.2836
   43CHL1   C21 3160   0.324   1.572   7.856 -0.3146 -0.6060 -0.1273
   43CHL1  H21A 3161   0.395   1.583   7.771 -0.8089 -2.2167 -0.7885
   43CHL1  H21B 3162   0.320   1.464   7.878  2.0956 -0.4428  1.4724
   43CHL1  H21C 3163   0.377   1.616   7.943 -0.0861 -0.3484 -0.3914
   43CHL1   C22 3164   0.103   1.603   7.958 -0.1961 -0.3409 -0.0826
   43CHL1  H22A 3165   0.001   1.641   7.936  0.4558 -0.3463 -3.7134
   43CHL1  H22B 3166   0.092   1.493   7.972  2.2657 -0.4569  1.5470
   43CHL1   C23 3167   0.153   1.669   8.094 -0.4817  0.6278  0.7731
   43CHL1  H23A 3168   0.240   1.604   8.116 -1.3696 -1.3310 -1.0928
   43CHL1  H23B 3169   0.192   1.772   8.079  1.5338  0.0627  1.7365
   43CHL1   C24 3170   0.053   1.678   8.202  0.0439  0.7364 -0.6760
   43CHL1  H24A 3171   0.084   1.753   8.278 -0.6173  0.3491 -0.0218
   43CHL1  H24B 3172  -0.036   1.707   8.142 -2.1766 -2.3857  0.8542
   43CHL1   C25 3173   0.021   1.542   8.268 -0.0294  0.0322 -0.7172
   43CHL1   H25 3174  -0.003   1.466   8.191  1.5246 -0.9571 -0.2827
   43CHL1   C26 3175   0.135   1.489   8.359 -0.5719 -0.2316  0.2903
   43CHL1  H26A 3176   0.224   1.456   8.301 -0.7861  1.5770 -1.1705
   43CHL1  H26B 3177   0.168   1.578   8.417  0.7780 -0.2106 -0.4641
   43CHL1  H26C 3178   0.100   1.420   8.438  2.0380 -1.1185  0.7677
   43CHL1   C27 3179  -0.094   1.566   8.367 -0.0694  0.1357  0.0920
   43CHL1  H27A 3180  -0.090   1.664   8.419 -0.2393 -0.8935  2.1351
   43CHL1  H27B 3181  -0.188   1.564   8.308 -0.9591  0.4115  1.4602
   43CHL1  H27C 3182  -0.101   1.484   8.441 -0.0665  0.4650  0.4622
   44CHL1    C3 3183   2.286   6.696   6.821  0.4061 -0.2839 -0.1425
   44CHL1    H3 3184   2.270   6.801   6.787 -0.3682 -0.4184 -0.2110
   44CHL1    O3 3185   2.327   6.613   6.711 -0.4959 -0.2735  0.3375
   44CHL1   H3' 3186   2.422   6.616   6.723 -0.4323 -0.5222 -0.0916
   44CHL1    C4 3187   2.398   6.695   6.929  0.2764 -0.5877  0.0287
   44CHL1   H4A 3188   2.403   6.590   6.965 -1.1964 -0.0696  1.8567
   44CHL1   H4B 3189   2.501   6.721   6.898  0.3058 -0.5110  0.1942
   44CHL1    C5 3190   2.361   6.780   7.046  0.4866 -0.8462 -0.5399
   44CHL1    C6 3191   2.439   6.883   7.091 -0.7392 -0.4108 -0.2609
   44CHL1    H6 3192   2.530   6.903   7.034 -2.1311  1.5151 -1.9597
   44CHL1    C7 3193   2.423   6.953   7.226  0.2608 -0.0881  0.0746
   44CHL1   H7A 3194   2.520   6.942   7.280 -1.5659 -0.6174  3.5457
   44CHL1   H7B 3195   2.388   7.057   7.207 -0.3322 -0.1825  0.5951
   44CHL1    C8 3196   2.325   6.874   7.312  0.1567 -0.2004 -0.2819
   44CHL1    H8 3197   2.380   6.784   7.348  2.0854  1.5734  1.5053
   44CHL1   C14 3198   2.286   6.958   7.429  0.3926 -0.4559 -0.3822
   44CHL1   H14 3199   2.242   7.053   7.393  0.3202  0.5825  2.2397
   44CHL1   C15 3200   2.406   7.010   7.526  0.8986 -0.0172  0.5194
   44CHL1  H15A 3201   2.479   6.927   7.536  1.0748  0.1052  0.2445
   44CHL1  H15B 3202   2.452   7.102   7.485  2.0570 -1.0787 -0.6659
   44CHL1   C16 3203   2.336   7.036   7.660 -0.6387  0.4996 -0.3028
   44CHL1  H16A 3204   2.372   6.969   7.741 -3.1610 -0.4372  0.1386
   44CHL1  H16B 3205   2.337   7.141   7.696 -0.9577  0.2588  0.4266
   44CHL1   C17 3206   2.192   6.990   7.641 -0.2303  0.1485  0.2814
   44CHL1   H17 3207   2.145   7.084   7.603  0.2622 -0.5195 -2.2004
   44CHL1   C13 3208   2.181   6.893   7.527 -0.5188 -0.5425  0.4777
   44CHL1   C18 3209   2.234   6.744   7.573  0.2439 -0.4964 -0.4570
   44CHL1  H18A 3210   2.156   6.692   7.631  0.0617  0.5997  0.3225
   44CHL1  H18B 3211   2.277   6.676   7.497  0.2285 -2.2373  1.0193
   44CHL1  H18C 3212   2.326   6.773   7.630 -0.8828  0.7777  0.7901
   44CHL1   C12 3213   2.045   6.883   7.449  0.6139  0.1708 -0.5334
   44CHL1  H12A 3214   1.965   6.839   7.512  1.8775  0.5161  1.3705
   44CHL1  H12B 3215   2.001   6.979   7.414 -1.1068  0.1942  1.4499
   44CHL1   C11 3216   2.060   6.797   7.321 -0.1309  0.0052  0.0290
   44CHL1  H11A 3217   2.071   6.692   7.355 -1.3757 -0.5729 -1.2583
   44CHL1  H11B 3218   1.963   6.805   7.267  0.9274  3.8057 -1.6950
   44CHL1    C9 3219   2.197   6.840   7.238  0.9915  0.5688 -0.1577
   44CHL1    H9 3220   2.156   6.926   7.181  1.2634  0.1299 -1.0396
   44CHL1   C10 3221   2.229   6.737   7.125 -0.7206 -0.9132 -0.7117
   44CHL1   C19 3222   2.250   6.601   7.194 -0.8748  0.0198 -0.1421
   44CHL1  H19A 3223   2.279   6.608   7.301  0.8861 -1.2452 -0.4807
   44CHL1  H19B 3224   2.159   6.537   7.185 -1.0545  0.4767 -2.2067
   44CHL1  H19C 3225   2.337   6.549   7.147  0.8886  0.1834  2.7122
   44CHL1    C1 3226   2.124   6.740   7.010  0.0660 -0.2344 -0.6210
   44CHL1   H1A 3227   2.029   6.702   7.051  0.4380 -1.3424 -0.7447
   44CHL1   H1B 3228   2.101   6.842   6.973 -2.3462 -0.9329 -1.1924
   44CHL1    C2 3229   2.154   6.653   6.887  0.2535  0.6155 -0.3814
   44CHL1   H2A 3230   2.067   6.650   6.819 -0.7293 -0.9844  0.8769
   44CHL1   H2B 3231   2.172   6.549   6.923  0.3537  0.9238  0.4577
   44CHL1   C20 3232   2.116   6.944   7.773 -0.3441 -0.5148  0.0451
   44CHL1   H20 3233   2.113   6.835   7.798 -1.6464  0.0454  2.6392
   44CHL1   C21 3234   1.962   6.976   7.753 -0.2016 -0.5232  0.9511
   44CHL1  H21A 3235   1.918   6.885   7.706  0.2358  0.4601 -1.5261
   44CHL1  H21B 3236   1.948   7.066   7.689 -0.1094 -0.8770  0.4208
   44CHL1  H21C 3237   1.918   6.997   7.852  0.5461  1.9404  0.8280
   44CHL1   C22 3238   2.169   7.009   7.899 -0.1982 -0.2715 -0.1228
   44CHL1  H22A 3239   2.278   6.993   7.913 -0.6190 -1.7491  1.9517
   44CHL1  H22B 3240   2.144   7.117   7.891 -1.1233 -0.4954 -0.4826
   44CHL1   C23 3241   2.098   6.960   8.032  0.0057  0.0580  0.4887
   44CHL1  H23A 3242   1.998   7.007   8.026  0.3981  0.7173 -2.8167
   44CHL1  H23B 3243   2.090   6.849   8.027  1.3307 -0.0028 -1.4608
   44CHL1   C24 3244   2.168   7.006   8.167 -0.2147  0.6973  0.3607
   44CHL1  H24A 3245   2.272   6.967   8.162 -0.9116 -1.1208 -2.9114
   44CHL1  H24B 3246   2.162   7.117   8.166 -0.0198  0.7247  1.2862
   44CHL1   C25 3247   2.113   6.959   8.299 -0.4057  0.3120 -0.3521
   44CHL1   H25 3248   2.122   6.848   8.306  0.9729  0.4443  0.4055
   44CHL1   C26 3249   2.188   7.021   8.417 -0.4919  0.7516  0.6396
   44CHL1  H26A 3250   2.151   6.999   8.519 -0.9407 -0.0619  0.3107
   44CHL1  H26B 3251   2.297   7.001   8.424 -0.7509 -1.2259 -0.3301
   44CHL1  H26C 3252   2.173   7.129   8.396 -0.3944  0.5269 -0.6716
   44CHL1   C27 3253   1.967   6.997   8.313 -0.0961  0.0053 -1.1073
   44CHL1  H27A 3254   1.932   7.097   8.281 -1.4955  0.7791  2.3968
   44CHL1  H27B 3255   1.902   6.933   8.248 -0.9739 -0.3292  0.0661
   44CHL1  H27C 3256   1.918   6.986   8.412  0.4298 -0.5613 -0.9008
   45CHL1    C3 3257   4.457   3.897   7.004 -0.1645 -0.2656  0.0040
   45CHL1    H3 3258   4.430   3.792   7.031  2.1361 -1.1328 -0.7770
   45CHL1    O3 3259   4.443   3.903   6.863  0.5092  0.3488 -0.1447
   45CHL1   H3' 3260   4.516   3.960   6.838  1.6405 -1.0649 -0.2372
   45CHL1    C4 3261   4.371   4.006   7.072 -0.4501  0.5026  0.4384
   45CHL1   H4A 3262   4.407   4.103   7.032 -1.9279  1.1135  0.5275
   45CHL1   H4B 3263   4.267   4.002   7.032 -1.0360  0.1667  1.9129
   45CHL1    C5 3264   4.374   4.009   7.221  0.3473  0.2348 -0.9430
   45CHL1    C6 3265   4.266   4.000   7.293  0.1349  0.0273 -0.4542
   45CHL1    H6 3266   4.169   3.994   7.243  0.1532 -0.2709 -0.4568
   45CHL1    C7 3267   4.270   4.004   7.442 -0.0077  0.0989  0.5882
   45CHL1   H7A 3268   4.190   4.076   7.471 -0.3856  0.4664 -1.2099
   45CHL1   H7B 3269   4.236   3.906   7.482 -1.1011  0.1213 -0.2379
   45CHL1    C8 3270   4.411   4.053   7.497  0.4866  0.5370 -0.5772
   45CHL1    H8 3271   4.407   4.164   7.488  1.4385  0.5762 -0.6033
   45CHL1   C14 3272   4.419   4.012   7.639 -0.4541 -0.5160 -0.2708
   45CHL1   H14 3273   4.429   3.902   7.646  0.8160 -0.5837 -2.2688
   45CHL1   C15 3274   4.299   4.035   7.730  0.5342 -0.3408 -0.1036
   45CHL1  H15A 3275   4.245   4.124   7.692 -1.6232 -1.9719 -1.0902
   45CHL1  H15B 3276   4.222   3.956   7.720 -3.2201  2.8957  0.6182
   45CHL1   C16 3277   4.358   4.052   7.872  0.3154 -0.1304 -0.1379
   45CHL1  H16A 3278   4.336   4.160   7.889  2.0882  0.3727 -0.8534
   45CHL1  H16B 3279   4.311   3.988   7.949 -2.3523  0.1919 -1.3599
   45CHL1   C17 3280   4.513   4.034   7.860 -0.5878 -0.9931  0.0806
   45CHL1   H17 3281   4.532   3.925   7.876  0.5308 -1.0351 -1.2945
   45CHL1   C13 3282   4.539   4.068   7.712 -0.5842 -0.2088 -0.2967
   45CHL1   C18 3283   4.558   4.223   7.697  0.7245 -0.0619 -0.3726
   45CHL1  H18A 3284   4.556   4.253   7.590  1.4729  1.0253 -0.1034
   45CHL1  H18B 3285   4.480   4.274   7.759 -0.0104 -3.2387  1.5357
   45CHL1  H18C 3286   4.655   4.260   7.736  0.6414  1.2789 -1.3599
   45CHL1   C12 3287   4.654   4.001   7.647  0.5990 -0.1975  0.3310
   45CHL1  H12A 3288   4.753   4.025   7.692  0.3862 -1.0811  1.3112
   45CHL1  H12B 3289   4.634   3.895   7.671 -0.6761 -0.0789 -0.1604
   45CHL1   C11 3290   4.660   4.026   7.495 -0.3202 -0.0649 -0.2570
   45CHL1  H11A 3291   4.687   4.133   7.480 -0.1335 -0.1179 -0.2971
   45CHL1  H11B 3292   4.746   3.974   7.448 -1.1539 -0.6740 -1.1565
   45CHL1    C9 3293   4.526   3.997   7.420  0.1074  0.3615 -0.2389
   45CHL1    H9 3294   4.518   3.887   7.434  1.1771  0.2929 -0.0659
   45CHL1   C10 3295   4.517   4.015   7.271 -0.2149  0.4289 -0.2455
   45CHL1   C19 3296   4.575   4.156   7.237  0.2393 -0.0967 -0.2074
   45CHL1  H19A 3297   4.682   4.163   7.265  0.7969  1.8284 -2.4966
   45CHL1  H19B 3298   4.570   4.177   7.128 -0.5980 -0.2477 -0.2077
   45CHL1  H19C 3299   4.529   4.246   7.284  1.4330  0.7759 -0.6580
   45CHL1    C1 3300   4.605   3.911   7.198 -0.1421  0.0251 -0.2856
   45CHL1   H1A 3301   4.704   3.944   7.238 -0.4059 -0.8371  1.1487
   45CHL1   H1B 3302   4.581   3.812   7.243  1.0069 -0.4467 -0.6534
   45CHL1    C2 3303   4.607   3.923   7.046  0.1929  0.0352 -0.2971
   45CHL1   H2A 3304   4.681   3.852   7.004  0.3086  0.2468 -0.4532
   45CHL1   H2B 3305   4.650   4.017   7.004 -0.6666  1.4272  1.7882
   45CHL1   C20 3306   4.603   4.092   7.971  0.3600 -0.0917  0.2195
   45CHL1   H20 3307   4.626   4.198   7.948  0.2434  0.0364  0.6845
   45CHL1   C21 3308   4.730   4.003   7.985 -0.2109  0.0883 -0.3961
   45CHL1  H21A 3309   4.808   4.051   8.048  0.7550  0.1562 -1.6082
   45CHL1  H21B 3310   4.777   3.972   7.889  0.3199 -0.4383  0.0282
   45CHL1  H21C 3311   4.704   3.909   8.038  1.6674 -0.2714 -0.0328
   45CHL1   C22 3312   4.523   4.112   8.104  0.2555 -0.1002 -0.1393
   45CHL1  H22A 3313   4.425   4.163   8.089  1.3880  3.0748  2.2755
   45CHL1  H22B 3314   4.500   4.008   8.137  0.0775  0.2304  0.7999
   45CHL1   C23 3315   4.601   4.188   8.207  0.1145 -0.6129  0.1920
   45CHL1  H23A 3316   4.696   4.134   8.227  0.7900  0.1189 -0.9480
   45CHL1  H23B 3317   4.634   4.287   8.170 -1.0222 -0.6540 -0.9677
   45CHL1   C24 3318   4.524   4.217   8.334  0.1808  0.0776  1.1435
   45CHL1  H24A 3319   4.450   4.293   8.304  2.1324  0.8207 -2.4264
   45CHL1  H24B 3320   4.470   4.125   8.364  0.3910 -0.7590 -0.8594
   45CHL1   C25 3321   4.606   4.260   8.454  0.1947 -0.1107  0.1721
   45CHL1   H25 3322   4.670   4.348   8.434  0.3695 -0.1792  0.4245
   45CHL1   C26 3323   4.512   4.296   8.568  0.2761  0.1805 -0.4755
   45CHL1  H26A 3324   4.558   4.337   8.661 -2.0774  0.4416  0.6656
   45CHL1  H26B 3325   4.432   4.366   8.536 -1.1392 -1.9067 -1.7998
   45CHL1  H26C 3326   4.465   4.201   8.601  0.7902  0.4833  1.2404
   45CHL1   C27 3327   4.700   4.151   8.501 -0.5582  0.7472 -0.0027
   45CHL1  H27A 3328   4.637   4.061   8.513 -0.7074  0.9218  0.5353
   45CHL1  H27B 3329   4.779   4.134   8.425 -0.8611 -0.5622 -0.0376
   45CHL1  H27C 3330   4.753   4.178   8.594 -0.6538 -1.7182  0.8364
   46CHL1    C3 3331   2.675   6.029   7.249 -0.9482  0.2802  0.3345
   46CHL1    H3 3332   2.606   6.115   7.266  1.1636  1.8146  1.6648
   46CHL1    O3 3333   2.693   6.010   7.111  0.0027 -0.0514  0.3478
   46CHL1   H3' 3334   2.752   5.936   7.098  0.9073  0.7331 -0.1738
   46CHL1    C4 3335   2.805   6.068   7.316 -0.4175 -0.2636 -0.3009
   46CHL1   H4A 3336   2.879   5.986   7.301  0.5917  0.4687  0.5021
   46CHL1   H4B 3337   2.850   6.152   7.259  1.4236 -1.0584 -0.1029
   46CHL1    C5 3338   2.787   6.102   7.461  0.3735  0.3041 -0.7730
   46CHL1    C6 3339   2.808   6.218   7.514 -0.3610  0.3907  0.3838
   46CHL1    H6 3340   2.836   6.302   7.449 -1.3551 -0.5311 -1.3080
   46CHL1    C7 3341   2.798   6.257   7.657 -0.2127  0.3029 -0.2337
   46CHL1   H7A 3342   2.880   6.327   7.681 -0.3425  0.7204 -0.9793
   46CHL1   H7B 3343   2.701   6.311   7.656 -0.4025 -0.0201  0.2834
   46CHL1    C8 3344   2.786   6.125   7.747 -0.5412 -0.2217 -0.4511
   46CHL1    H8 3345   2.888   6.081   7.751 -0.6669 -0.6114 -1.2817
   46CHL1   C14 3346   2.732   6.168   7.886  0.3815  0.2573  0.0588
   46CHL1   H14 3347   2.633   6.217   7.868 -0.7496 -2.0461 -0.3147
   46CHL1   C15 3348   2.825   6.267   7.962 -0.5134 -0.0819 -0.3974
   46CHL1  H15A 3349   2.931   6.238   7.954 -0.6315 -1.6081  2.3919
   46CHL1  H15B 3350   2.806   6.369   7.921 -1.1891  0.0477  0.2037
   46CHL1   C16 3351   2.791   6.245   8.112  0.5005  0.0507 -0.2458
   46CHL1  H16A 3352   2.877   6.208   8.171  0.6190  0.9033  0.1204
   46CHL1  H16B 3353   2.769   6.343   8.158  1.1131  0.2721 -0.4184
   46CHL1   C17 3354   2.678   6.136   8.118 -0.4953 -0.0863  0.1243
   46CHL1   H17 3355   2.588   6.194   8.089  1.3862  2.4017 -1.0400
   46CHL1   C13 3356   2.699   6.055   7.989  0.0096  0.0562  0.5050
   46CHL1   C18 3357   2.822   5.962   8.008  0.1184  0.0709 -0.3919
   46CHL1  H18A 3358   2.799   5.896   8.094 -1.7946  2.6643  1.2294
   46CHL1  H18B 3359   2.848   5.899   7.920 -0.9615 -0.5362 -0.2938
   46CHL1  H18C 3360   2.916   6.011   8.039  0.6257 -1.5515  0.7801
   46CHL1   C12 3361   2.589   5.976   7.923  0.6773  0.2199 -0.1723
   46CHL1  H12A 3362   2.568   5.891   7.991 -0.9956  1.0881  0.4632
   46CHL1  H12B 3363   2.497   6.038   7.920  0.6984  0.2320 -0.8347
   46CHL1   C11 3364   2.620   5.937   7.779  0.0620  0.7671  0.1018
   46CHL1  H11A 3365   2.689   5.851   7.794  0.8860  1.1038 -1.5957
   46CHL1  H11B 3366   2.536   5.879   7.737  0.8967 -0.5760  0.2225
   46CHL1    C9 3367   2.682   6.037   7.681 -0.6204 -0.1092  0.2049
   46CHL1    H9 3368   2.592   6.095   7.648 -0.2864  0.0530 -0.4423
   46CHL1   C10 3369   2.724   5.983   7.542 -0.6956  0.0271 -0.2792
   46CHL1   C19 3370   2.829   5.875   7.569  1.2655  0.6459 -0.5640
   46CHL1  H19A 3371   2.879   5.850   7.473  1.1044 -0.1690 -0.4450
   46CHL1  H19B 3372   2.904   5.913   7.642 -1.0157  0.0799  2.2571
   46CHL1  H19C 3373   2.779   5.779   7.595  1.7740 -0.4016 -3.1257
   46CHL1    C1 3374   2.597   5.928   7.468 -0.0000 -0.1280  0.2829
   46CHL1   H1A 3375   2.568   5.830   7.511 -1.8003  0.2192 -0.0638
   46CHL1   H1B 3376   2.512   5.999   7.480 -0.3368 -0.8609  2.8532
   46CHL1    C2 3377   2.628   5.904   7.309  0.5595 -0.4355 -0.7190
   46CHL1   H2A 3378   2.535   5.874   7.257  0.0275 -0.7171  0.3577
   46CHL1   H2B 3379   2.710   5.830   7.295  0.9610 -0.0962 -0.1725
   46CHL1   C20 3380   2.663   6.072   8.258  0.4062  0.1646  0.5458
   46CHL1   H20 3381   2.756   6.012   8.269 -0.1707 -0.6644  0.9901
   46CHL1   C21 3382   2.538   5.974   8.256 -0.4891  0.0041 -0.3271
   46CHL1  H21A 3383   2.534   5.906   8.344  0.2372 -0.7346 -0.8509
   46CHL1  H21B 3384   2.525   5.904   8.171  0.5293 -1.6016  0.7946
   46CHL1  H21C 3385   2.454   6.047   8.254  0.3351  1.2493  3.0117
   46CHL1   C22 3386   2.657   6.173   8.374  0.2671  0.7492 -0.2849
   46CHL1  H22A 3387   2.752   6.229   8.386  0.0408  0.8442  1.3213
   46CHL1  H22B 3388   2.574   6.243   8.352  0.4240  1.1568  0.4149
   46CHL1   C23 3389   2.632   6.107   8.510 -0.1228  0.1790  0.7092
   46CHL1  H23A 3390   2.531   6.060   8.504  0.1821 -0.4845  0.6861
   46CHL1  H23B 3391   2.698   6.018   8.515 -1.8066 -1.1428  0.5401
   46CHL1   C24 3392   2.639   6.206   8.629  0.4084 -0.1018 -0.2785
   46CHL1  H24A 3393   2.716   6.286   8.614 -0.1023  0.0814 -2.1283
   46CHL1  H24B 3394   2.546   6.267   8.631  1.0818  0.9603  0.0109
   46CHL1   C25 3395   2.657   6.127   8.762  0.2258  0.0730  1.0442
   46CHL1   H25 3396   2.593   6.036   8.760  1.8998 -1.1677  1.4104
   46CHL1   C26 3397   2.798   6.063   8.782  0.6042  0.2007  0.0395
   46CHL1  H26A 3398   2.877   6.141   8.771 -0.5672  1.3764 -0.3380
   46CHL1  H26B 3399   2.796   6.014   8.882 -0.3535 -0.6881 -0.4029
   46CHL1  H26C 3400   2.807   5.978   8.711 -1.1980 -1.3335  1.5393
   46CHL1   C27 3401   2.625   6.210   8.887 -0.7057  0.3524  0.0730
   46CHL1  H27A 3402   2.526   6.262   8.884 -1.9177 -1.8230  0.2469
   46CHL1  H27B 3403   2.616   6.165   8.988 -2.6048  0.8373  0.1662
   46CHL1  H27C 3404   2.706   6.286   8.886 -1.3336  1.2804 -4.8355
   47CHL1    C3 3405   1.823   6.331   6.998 -0.9197 -0.0510  0.0141
   47CHL1    H3 3406   1.929   6.309   7.022 -1.4526 -0.9004  1.8167
   47CHL1    O3 3407   1.813   6.310   6.856  0.4435  0.1819  0.7359
   47CHL1   H3' 3408   1.811   6.216   6.840  1.7992  0.4775 -1.6204
   47CHL1    C4 3409   1.747   6.236   7.084 -0.4209  0.8394  0.9625
   47CHL1   H4A 3410   1.636   6.240   7.072 -0.4958  0.4380  1.4670
   47CHL1   H4B 3411   1.772   6.133   7.051  0.6104  1.6884 -1.0914
   47CHL1    C5 3412   1.765   6.256   7.233 -0.1283  0.3830 -0.3469
   47CHL1    C6 3413   1.811   6.157   7.306  0.8293 -0.0307  0.0140
   47CHL1    H6 3414   1.844   6.071   7.246 -2.9905  0.4296 -3.1568
   47CHL1    C7 3415   1.831   6.168   7.458 -0.3473 -0.0818 -0.1141
   47CHL1   H7A 3416   1.769   6.084   7.497 -0.4076 -1.8815 -3.6390
   47CHL1   H7B 3417   1.937   6.152   7.486 -0.2575  0.1729 -0.3045
   47CHL1    C8 3418   1.777   6.308   7.508  0.0570  0.3517  0.1872
   47CHL1    H8 3419   1.667   6.294   7.524 -0.0345 -0.9430 -1.2867
   47CHL1   C14 3420   1.825   6.336   7.645  0.3477  0.9522 -0.2239
   47CHL1   H14 3421   1.936   6.344   7.640  0.6435 -2.0350 -0.3469
   47CHL1   C15 3422   1.800   6.222   7.750  0.1354  0.1254 -0.2023
   47CHL1  H15A 3423   1.701   6.179   7.725  1.0102 -1.3346 -1.3029
   47CHL1  H15B 3424   1.864   6.131   7.750  3.9296  2.5669  1.6231
   47CHL1   C16 3425   1.796   6.296   7.887 -0.3402  0.3272 -0.5318
   47CHL1  H16A 3426   1.698   6.291   7.941  0.2780 -1.1365  0.5249
   47CHL1  H16B 3427   1.875   6.256   7.954 -1.3978  0.9798  1.1862
   47CHL1   C17 3428   1.832   6.446   7.849  0.9014 -0.5046  0.0495
   47CHL1   H17 3429   1.943   6.444   7.843  0.9437  0.0209  0.5322
   47CHL1   C13 3430   1.778   6.465   7.707  0.6889 -1.2639  0.4279
   47CHL1   C18 3431   1.620   6.475   7.716  0.5418 -0.2033 -0.7487
   47CHL1  H18A 3432   1.581   6.387   7.771 -1.1462 -0.7245 -2.6928
   47CHL1  H18B 3433   1.593   6.567   7.771  0.9322  0.5447 -1.7738
   47CHL1  H18C 3434   1.574   6.475   7.615  0.8294 -0.5772 -0.8836
   47CHL1   C12 3435   1.832   6.577   7.622 -0.6780  0.0137  0.8017
   47CHL1  H12A 3436   1.794   6.680   7.641 -0.2886  0.3888 -0.3302
   47CHL1  H12B 3437   1.941   6.584   7.637 -0.7801 -1.6071  2.5855
   47CHL1   C11 3438   1.795   6.562   7.473 -0.2284  0.0866  0.2286
   47CHL1  H11A 3439   1.685   6.567   7.486 -0.2270  0.5092  0.0847
   47CHL1  H11B 3440   1.839   6.647   7.416  0.0835 -0.1162  0.1584
   47CHL1    C9 3441   1.817   6.427   7.418 -0.2344  0.2750  0.3366
   47CHL1    H9 3442   1.927   6.420   7.404 -0.5754 -2.1071 -1.7794
   47CHL1   C10 3443   1.748   6.401   7.277  0.2499  0.9506 -0.1707
   47CHL1   C19 3444   1.598   6.428   7.276 -0.4502  0.0193  0.3637
   47CHL1  H19A 3445   1.570   6.531   7.307 -0.7448  0.8849 -2.5041
   47CHL1  H19B 3446   1.552   6.419   7.175  1.5117 -0.2519 -0.5471
   47CHL1  H19C 3447   1.533   6.369   7.345 -2.4512 -0.2793 -1.6620
   47CHL1    C1 3448   1.818   6.503   7.179  0.1654  0.1667 -0.1018
   47CHL1   H1A 3449   1.770   6.600   7.203 -0.1694  0.1147 -0.5554
   47CHL1   H1B 3450   1.926   6.519   7.199  0.0133  2.0441 -0.5592
   47CHL1    C2 3451   1.795   6.478   7.028  0.3150  0.1540  0.1761
   47CHL1   H2A 3452   1.868   6.533   6.965 -1.3048  0.0182 -1.9698
   47CHL1   H2B 3453   1.694   6.511   6.995  0.8033  0.4290 -1.1260
   47CHL1   C20 3454   1.790   6.538   7.964  0.5228 -0.1117 -0.1991
   47CHL1   H20 3455   1.683   6.537   7.997  1.2559 -0.2158  2.4113
   47CHL1   C21 3456   1.844   6.684   7.919 -0.2147  0.5388 -0.2823
   47CHL1  H21A 3457   1.771   6.725   7.847  1.0721  0.2458 -1.8268
   47CHL1  H21B 3458   1.948   6.674   7.880  0.1808  0.7156  0.6867
   47CHL1  H21C 3459   1.846   6.761   7.999 -3.7760 -1.0256  1.5320
   47CHL1   C22 3460   1.855   6.496   8.101 -0.3200 -1.0244 -1.0002
   47CHL1  H22A 3461   1.813   6.395   8.122 -1.8931 -0.1693  0.2211
   47CHL1  H22B 3462   1.965   6.496   8.092 -0.0070  0.2125  1.7873
   47CHL1   C23 3463   1.810   6.592   8.218 -0.3535 -0.4490  0.5614
   47CHL1  H23A 3464   1.862   6.686   8.190  1.3015 -1.9153 -1.6040
   47CHL1  H23B 3465   1.699   6.597   8.218 -0.3358  0.4499 -0.8954
   47CHL1   C24 3466   1.869   6.555   8.361  0.0727  0.0713 -0.0973
   47CHL1  H24A 3467   1.836   6.452   8.383  0.1009 -0.1642 -1.0848
   47CHL1  H24B 3468   1.978   6.567   8.347  0.3457  2.2637  2.8542
   47CHL1   C25 3469   1.814   6.647   8.477  0.2283  0.7744  0.2376
   47CHL1   H25 3470   1.847   6.747   8.444  0.2417  1.5539  2.4327
   47CHL1   C26 3471   1.661   6.650   8.491 -0.4547 -0.3122  0.1583
   47CHL1  H26A 3472   1.629   6.545   8.507 -0.6809 -0.1811  0.5918
   47CHL1  H26B 3473   1.625   6.718   8.571 -0.7388 -2.0138  1.5549
   47CHL1  H26C 3474   1.612   6.684   8.397  0.6290  0.7438 -0.0394
   47CHL1   C27 3475   1.884   6.612   8.610  0.3051 -0.0776 -0.6564
   47CHL1  H27A 3476   1.878   6.506   8.642 -0.9600  1.3690  5.0789
   47CHL1  H27B 3477   1.990   6.643   8.609  0.1780  0.6341  1.6724
   47CHL1  H27C 3478   1.842   6.671   8.695  0.2688 -0.3030 -0.5173
   48CHL1    C3 3479   5.632   4.147   6.586 -0.0364 -0.1151 -0.1799
   48CHL1    H3 3480   5.694   4.237   6.605 -1.3264  0.8016 -0.1531
   48CHL1    O3 3481   5.639   4.127   6.445 -0.3083  0.2425  0.4079
   48CHL1   H3' 3482   5.595   4.044   6.429 -1.1770  0.6442  0.6291
   48CHL1    C4 3483   5.682   4.026   6.665 -0.6686  0.1556  0.4026
   48CHL1   H4A 3484   5.616   3.942   6.636  0.8442 -0.5655 -1.1768
   48CHL1   H4B 3485   5.779   3.997   6.618 -1.0531 -2.7062  1.1755
   48CHL1    C5 3486   5.682   4.030   6.816  0.7022 -0.5259  0.4015
   48CHL1    C6 3487   5.792   4.026   6.890  0.6248 -0.0803 -0.0736
   48CHL1    H6 3488   5.887   4.020   6.836  0.3663 -0.2073 -0.5200
   48CHL1    C7 3489   5.794   4.050   7.037 -0.1135 -0.1261 -0.1124
   48CHL1   H7A 3490   5.870   3.985   7.087  2.5286  1.7075 -1.5077
   48CHL1   H7B 3491   5.818   4.157   7.053 -0.4425 -0.0751  0.0387
   48CHL1    C8 3492   5.652   4.032   7.102  0.2935 -0.0765  0.7354
   48CHL1    H8 3493   5.623   3.925   7.088  2.3515 -0.4538 -1.5254
   48CHL1   C14 3494   5.658   4.078   7.246  0.3817 -0.6565 -0.3852
   48CHL1   H14 3495   5.679   4.187   7.242 -2.7091  0.0887  0.7233
   48CHL1   C15 3496   5.762   4.013   7.338 -0.4281 -0.2772 -0.3273
   48CHL1  H15A 3497   5.759   3.903   7.324  0.1736 -0.2582 -0.6392
   48CHL1  H15B 3498   5.864   4.046   7.308 -0.6697 -0.3282 -1.2371
   48CHL1   C16 3499   5.720   4.073   7.472 -0.0153  0.7128  0.5996
   48CHL1  H16A 3500   5.704   3.987   7.541 -0.0830 -0.3525 -0.7126
   48CHL1  H16B 3501   5.787   4.153   7.510  0.3997 -0.5458  2.6683
   48CHL1   C17 3502   5.575   4.137   7.448  0.2286  0.0981  0.6118
   48CHL1   H17 3503   5.587   4.246   7.430  1.5381 -0.2795 -1.0540
   48CHL1   C13 3504   5.524   4.076   7.320  0.5078  0.3954  0.5693
   48CHL1   C18 3505   5.481   3.930   7.347 -0.2032  0.3241 -0.0961
   48CHL1  H18A 3506   5.529   3.880   7.434 -2.5210  0.0538  1.0841
   48CHL1  H18B 3507   5.374   3.925   7.376 -0.1418 -3.9049  0.0110
   48CHL1  H18C 3508   5.495   3.880   7.249 -0.8316 -0.0437  0.0036
   48CHL1   C12 3509   5.417   4.159   7.245 -0.2971  0.3932  0.0846
   48CHL1  H12A 3510   5.321   4.143   7.298 -0.1757  0.7059  0.4104
   48CHL1  H12B 3511   5.448   4.265   7.252  0.8410  0.1409 -0.8949
   48CHL1   C11 3512   5.407   4.116   7.098 -0.0552  0.3555  0.5136
   48CHL1  H11A 3513   5.369   4.012   7.087 -0.2648  0.5794 -1.1149
   48CHL1  H11B 3514   5.339   4.186   7.045  0.4178  0.6877  0.3381
   48CHL1    C9 3515   5.550   4.112   7.026  0.5258 -0.6083 -0.5079
   48CHL1    H9 3516   5.595   4.213   7.026  3.3965 -1.7373  1.6948
   48CHL1   C10 3517   5.544   4.070   6.874 -0.0771 -0.0223 -0.3493
   48CHL1   C19 3518   5.440   3.957   6.867  0.0455 -0.6151  0.3048
   48CHL1  H19A 3519   5.335   3.992   6.878  0.3983 -0.2474  3.0564
   48CHL1  H19B 3520   5.443   3.901   6.771 -0.8633  0.0944 -0.1550
   48CHL1  H19C 3521   5.461   3.880   6.944 -0.6718 -0.0286  1.1054
   48CHL1    C1 3522   5.493   4.196   6.793 -0.1390 -0.0263 -0.2167
   48CHL1   H1A 3523   5.387   4.213   6.823  0.0808  0.0845  0.5055
   48CHL1   H1B 3524   5.554   4.285   6.820  0.0622 -0.0610 -0.5557
   48CHL1    C2 3525   5.495   4.176   6.633  0.6157 -0.6385  0.1616
   48CHL1   H2A 3526   5.449   4.263   6.581  3.5085  0.0727 -1.4613
   48CHL1   H2B 3527   5.442   4.081   6.616 -0.1439 -0.0931 -0.6024
   48CHL1   C20 3528   5.494   4.119   7.579 -0.8192  0.6763  0.1124
   48CHL1   H20 3529   5.477   4.011   7.595 -3.2855  1.1260  0.9623
   48CHL1   C21 3530   5.352   4.180   7.571  0.0092  0.3865 -0.1387
   48CHL1  H21A 3531   5.354   4.282   7.527  1.1233  0.0552 -0.8939
   48CHL1  H21B 3532   5.289   4.179   7.663 -1.7911 -2.0277 -1.2785
   48CHL1  H21C 3533   5.300   4.106   7.507  0.0906 -1.2255  1.5811
   48CHL1   C22 3534   5.579   4.169   7.707  0.1588  0.2014  0.5292
   48CHL1  H22A 3535   5.675   4.113   7.713 -0.3446 -0.6870  0.5416
   48CHL1  H22B 3536   5.604   4.276   7.688  1.2184 -0.4030 -1.9557
   48CHL1   C23 3537   5.505   4.150   7.842  0.0023 -0.0577 -0.2212
   48CHL1  H23A 3538   5.414   4.214   7.838 -0.2399 -0.3045  1.0532
   48CHL1  H23B 3539   5.464   4.047   7.857  1.1627 -0.9093 -2.3722
   48CHL1   C24 3540   5.588   4.175   7.967  0.0037 -0.7038  0.2776
   48CHL1  H24A 3541   5.676   4.107   7.962  0.3206 -0.3305  0.7280
   48CHL1  H24B 3542   5.625   4.279   7.974 -0.0454 -0.4380 -2.4352
   48CHL1   C25 3543   5.513   4.153   8.103  0.4443 -0.3300  0.6664
   48CHL1   H25 3544   5.496   4.044   8.097  0.4370 -0.3830  1.4990
   48CHL1   C26 3545   5.612   4.163   8.223 -0.1258 -0.6632 -0.5090
   48CHL1  H26A 3546   5.705   4.105   8.204 -0.9528 -1.9531 -0.6977
   48CHL1  H26B 3547   5.645   4.266   8.248 -0.4859 -0.4549 -0.8982
   48CHL1  H26C 3548   5.573   4.118   8.317 -0.2270  0.6799  0.1084
   48CHL1   C27 3549   5.380   4.228   8.122  0.8493 -0.3672 -0.1224
   48CHL1  H27A 3550   5.306   4.202   8.044  0.4823 -1.2013  0.4999
   48CHL1  H27B 3551   5.337   4.207   8.222 -1.7402 -1.4158 -1.3834
   48CHL1  H27C 3552   5.391   4.338   8.110  0.1822 -0.2933 -0.0506
   49CHL1    C3 3553   4.889   3.176   6.852 -0.9089  0.2225 -0.7931
   49CHL1    H3 3554   4.897   3.287   6.850  0.0139  0.3314  2.6827
   49CHL1    O3 3555   4.871   3.124   6.717 -0.5158  0.6115  0.1303
   49CHL1   H3' 3556   4.873   3.029   6.734  4.3123  0.6123  1.0048
   49CHL1    C4 3557   5.021   3.116   6.909 -0.2275  0.3453 -0.1240
   49CHL1   H4A 3558   5.022   3.010   6.878 -2.6993 -0.0535  0.9087
   49CHL1   H4B 3559   5.103   3.153   6.843 -0.4913  0.4603 -0.3955
   49CHL1    C5 3560   5.047   3.151   7.058 -0.0850  0.8084  0.6866
   49CHL1    C6 3561   5.161   3.209   7.095 -0.0333  0.1422  0.6672
   49CHL1    H6 3562   5.243   3.231   7.026 -1.4218 -1.6867 -1.7212
   49CHL1    C7 3563   5.187   3.238   7.238  0.5390 -0.3445 -0.2601
   49CHL1   H7A 3564   5.293   3.223   7.266  0.0031  1.3491  3.2067
   49CHL1   H7B 3565   5.177   3.345   7.266  0.9951 -0.6799  1.2702
   49CHL1    C8 3566   5.089   3.173   7.342 -0.1713  0.2769  0.4062
   49CHL1    H8 3567   5.119   3.066   7.349 -0.2126  0.0267 -2.2638
   49CHL1   C14 3568   5.090   3.247   7.481 -0.1384 -0.4709 -0.1727
   49CHL1   H14 3569   5.052   3.350   7.464  1.4043  0.0363 -0.7143
   49CHL1   C15 3570   5.233   3.263   7.541  0.3545  0.1309 -1.1912
   49CHL1  H15A 3571   5.300   3.178   7.519  1.4250  0.4081  0.7401
   49CHL1  H15B 3572   5.269   3.354   7.489 -2.0833  2.2312  0.5155
   49CHL1   C16 3573   5.204   3.277   7.692  0.4198 -0.1561 -0.3943
   49CHL1  H16A 3574   5.262   3.202   7.750 -2.1746 -1.8787  0.1220
   49CHL1  H16B 3575   5.216   3.382   7.729 -0.8731 -0.3050  0.5371
   49CHL1   C17 3576   5.052   3.246   7.707 -0.2088 -0.0183 -0.1094
   49CHL1   H17 3577   4.992   3.338   7.697 -0.3472 -0.0798  0.1449
   49CHL1   C13 3578   5.009   3.172   7.582  0.6890  0.1457 -0.0957
   49CHL1   C18 3579   5.054   3.018   7.600  0.0707 -0.2475 -0.3247
   49CHL1  H18A 3580   5.039   2.960   7.506  2.1429 -0.8024 -0.3630
   49CHL1  H18B 3581   5.163   3.014   7.622  0.5759  0.1380 -2.4652
   49CHL1  H18C 3582   5.007   2.968   7.687  1.1046 -1.3670 -0.3799
   49CHL1   C12 3583   4.861   3.184   7.532 -0.1522  0.3272  0.6235
   49CHL1  H12A 3584   4.793   3.128   7.600  1.2744  2.9810  4.5900
   49CHL1  H12B 3585   4.822   3.287   7.520  0.0214  0.3322  0.1215
   49CHL1   C11 3586   4.844   3.125   7.392 -0.1994 -0.4755 -0.2172
   49CHL1  H11A 3587   4.867   3.017   7.400 -0.2348 -0.3826  1.8270
   49CHL1  H11B 3588   4.741   3.148   7.356  0.4370  1.3502 -0.9769
   49CHL1    C9 3589   4.947   3.180   7.292 -0.5093 -0.4723  0.3532
   49CHL1    H9 3590   4.930   3.287   7.267  0.4997 -0.7702 -1.8515
   49CHL1   C10 3591   4.922   3.121   7.147 -0.2887 -0.0616 -0.3148
   49CHL1   C19 3592   4.901   2.963   7.161 -0.7086  0.1328  0.3325
   49CHL1  H19A 3593   4.803   2.936   7.206 -0.4713  0.6186  1.1776
   49CHL1  H19B 3594   4.913   2.922   7.058 -0.7147  3.9638 -1.3714
   49CHL1  H19C 3595   4.981   2.918   7.223 -1.3022  0.4399  1.3512
   49CHL1    C1 3596   4.793   3.185   7.087  0.1611 -0.1336  0.6145
   49CHL1   H1A 3597   4.716   3.137   7.151 -0.0315  0.3761  0.7675
   49CHL1   H1B 3598   4.787   3.296   7.091 -0.6541 -0.1307 -0.2769
   49CHL1    C2 3599   4.772   3.142   6.933 -0.3399 -0.4112 -0.6555
   49CHL1   H2A 3600   4.677   3.189   6.899 -0.4382 -0.7553 -0.8603
   49CHL1   H2B 3601   4.748   3.034   6.928 -0.7533 -0.3050 -0.9922
   49CHL1   C20 3602   5.020   3.194   7.851  0.2145  0.7098  0.2862
   49CHL1   H20 3603   5.080   3.102   7.863  1.6624  1.6785  0.7365
   49CHL1   C21 3604   4.875   3.156   7.864 -0.3762 -0.2887  0.2886
   49CHL1  H21A 3605   4.810   3.247   7.863 -3.3227 -2.2484 -0.0079
   49CHL1  H21B 3606   4.858   3.115   7.966 -2.2384  0.2230  0.2214
   49CHL1  H21C 3607   4.833   3.081   7.794 -1.2797  0.4683 -0.0045
   49CHL1   C22 3608   5.057   3.292   7.962  0.1448 -0.0236  0.1761
   49CHL1  H22A 3609   5.164   3.320   7.951  0.2302 -1.2093 -3.6879
   49CHL1  H22B 3610   4.995   3.382   7.944 -0.5323 -0.5404 -0.1126
   49CHL1   C23 3611   5.036   3.244   8.103  0.6076  0.1685 -0.5400
   49CHL1  H23A 3612   4.938   3.190   8.108  1.3491 -1.4164 -2.1253
   49CHL1  H23B 3613   5.106   3.166   8.141 -0.2224 -0.3203  0.0432
   49CHL1   C24 3614   5.041   3.362   8.203 -0.7344 -0.4232 -0.3131
   49CHL1  H24A 3615   5.140   3.412   8.192 -0.5348 -0.7571 -0.0722
   49CHL1  H24B 3616   4.966   3.432   8.160 -2.0756 -2.6599 -1.7583
   49CHL1   C25 3617   5.002   3.321   8.348  0.3573  0.8120  1.1303
   49CHL1   H25 3618   5.077   3.248   8.386  1.0133 -0.0933 -1.6534
   49CHL1   C26 3619   4.985   3.455   8.418  0.7851  0.1762  0.4634
   49CHL1  H26A 3620   4.907   3.517   8.369  1.3512  1.6423  1.3706
   49CHL1  H26B 3621   4.971   3.450   8.528  0.9514 -1.4198  0.4442
   49CHL1  H26C 3622   5.071   3.517   8.386 -0.4519  2.2865  1.0287
   49CHL1   C27 3623   4.876   3.231   8.347 -0.3596 -0.0745  0.4116
   49CHL1  H27A 3624   4.839   3.212   8.450  0.6064  1.5016  1.0740
   49CHL1  H27B 3625   4.798   3.295   8.300  1.5967  1.8746 -0.3624
   49CHL1  H27C 3626   4.886   3.136   8.290  2.3182  0.3741  0.0236
   50CHL1    C3 3627   5.622   4.895   6.851 -0.2810  0.4132  0.1647
   50CHL1    H3 3628   5.597   4.795   6.893 -0.0256  0.1753 -0.2431
   50CHL1    O3 3629   5.616   4.904   6.711 -0.3738  0.0046 -0.6403
   50CHL1   H3' 3630   5.652   4.991   6.692  2.3585 -0.9668 -0.4017
   50CHL1    C4 3631   5.528   4.999   6.918  0.2476  0.5217 -0.7506
   50CHL1   H4A 3632   5.537   5.099   6.871 -1.3097  0.3906 -1.3904
   50CHL1   H4B 3633   5.428   4.960   6.890  0.7044  0.9510 -3.2742
   50CHL1    C5 3634   5.550   5.005   7.071  0.3903 -0.1498  0.2089
   50CHL1    C6 3635   5.450   4.988   7.155  0.1844 -0.0699  0.2676
   50CHL1    H6 3636   5.348   4.982   7.114 -0.4087  3.2264  0.9425
   50CHL1    C7 3637   5.463   4.988   7.303  0.2273 -0.3836 -0.4912
   50CHL1   H7A 3638   5.385   5.054   7.347 -1.7921 -1.3673 -2.4055
   50CHL1   H7B 3639   5.446   4.892   7.356 -1.6762  0.7097  0.9779
   50CHL1    C8 3640   5.598   5.044   7.347 -0.0681  0.1004 -0.3445
   50CHL1    H8 3641   5.607   5.152   7.323  1.6305 -0.4927 -2.6969
   50CHL1   C14 3642   5.615   5.002   7.495 -0.3815  0.5035  0.0078
   50CHL1   H14 3643   5.610   4.891   7.489 -2.7002  0.6259 -2.8389
   50CHL1   C15 3644   5.503   5.038   7.594 -0.0048 -0.1719  0.1333
   50CHL1  H15A 3645   5.469   5.143   7.575  0.0330 -0.0685  0.6189
   50CHL1  H15B 3646   5.413   4.976   7.575 -0.5024  0.9354 -1.3612
   50CHL1   C16 3647   5.570   5.018   7.733  0.2659 -0.0852 -0.2574
   50CHL1  H16A 3648   5.549   5.104   7.800 -2.6039 -2.6024  2.3358
   50CHL1  H16B 3649   5.537   4.921   7.774 -1.2319  0.1787 -0.7682
   50CHL1   C17 3650   5.723   5.001   7.709  0.5945 -0.4219 -0.8943
   50CHL1   H17 3651   5.742   4.892   7.699 -3.3348 -1.3035 -0.4782
   50CHL1   C13 3652   5.743   5.054   7.562 -0.7209  0.1331 -0.0683
   50CHL1   C18 3653   5.752   5.206   7.564 -0.4128  0.0458 -0.3760
   50CHL1  H18A 3654   5.682   5.248   7.640  0.0314 -1.3764  0.8757
   50CHL1  H18B 3655   5.855   5.238   7.590  0.1453 -0.0309 -2.3364
   50CHL1  H18C 3656   5.731   5.244   7.462  0.9846 -1.0558 -1.0978
   50CHL1   C12 3657   5.866   5.002   7.480 -0.4164 -0.1160  0.6207
   50CHL1  H12A 3658   5.962   5.051   7.508  0.9050 -1.8330 -0.6300
   50CHL1  H12B 3659   5.869   4.891   7.494 -2.3850 -0.4051 -0.6989
   50CHL1   C11 3660   5.857   5.025   7.321 -0.6423  0.0531 -0.3809
   50CHL1  H11A 3661   5.871   5.135   7.319 -2.5247  0.4435  2.4333
   50CHL1  H11B 3662   5.931   4.969   7.259 -2.2502 -0.5954 -1.7943
   50CHL1    C9 3663   5.714   4.980   7.265  0.0176 -0.1408 -0.5241
   50CHL1    H9 3664   5.711   4.869   7.274 -0.7011  0.0256  2.6330
   50CHL1   C10 3665   5.698   5.010   7.116 -0.3280 -0.7650 -0.7905
   50CHL1   C19 3666   5.760   5.156   7.082 -0.2644  1.2841  0.1027
   50CHL1  H19A 3667   5.871   5.151   7.085 -0.3198 -1.6028 -0.0169
   50CHL1  H19B 3668   5.741   5.191   6.978  2.0910  0.6123 -0.6102
   50CHL1  H19C 3669   5.722   5.233   7.152  2.5709  3.4263 -0.5475
   50CHL1    C1 3670   5.784   4.901   7.043  0.9098 -0.1980  0.8596
   50CHL1   H1A 3671   5.893   4.902   7.068  1.0921  0.3641  0.0727
   50CHL1   H1B 3672   5.742   4.799   7.051 -1.2059  0.4753 -0.7390
   50CHL1    C2 3673   5.763   4.920   6.891  0.8373 -0.2593  0.6136
   50CHL1   H2A 3674   5.824   4.842   6.842 -0.9880 -2.1687  1.2608
   50CHL1   H2B 3675   5.805   5.015   6.851 -1.9912  0.9607  0.2974
   50CHL1   C20 3676   5.805   5.060   7.823  0.5752  0.4701  0.0572
   50CHL1   H20 3677   5.783   5.167   7.806  2.5694  0.5164 -3.1591
   50CHL1   C21 3678   5.957   5.052   7.809 -0.6688  0.6263  0.6552
   50CHL1  H21A 3679   5.991   4.949   7.831  1.1161  0.9270 -0.4938
   50CHL1  H21B 3680   5.999   5.120   7.886 -0.8818 -0.4553  1.7585
   50CHL1  H21C 3681   5.992   5.083   7.708 -0.7465 -1.7775 -0.1651
   50CHL1   C22 3682   5.766   5.005   7.966 -0.9417  0.4539  0.2170
   50CHL1  H22A 3683   5.655   5.001   7.976 -1.1649 -1.2622 -2.0332
   50CHL1  H22B 3684   5.797   4.899   7.978 -1.8419  0.2402  0.7537
   50CHL1   C23 3685   5.818   5.109   8.071 -0.0008 -1.2192  0.4052
   50CHL1  H23A 3686   5.926   5.104   8.094  0.2736  0.0674 -0.4615
   50CHL1  H23B 3687   5.805   5.211   8.028 -0.4931 -2.0735 -1.5745
   50CHL1   C24 3688   5.744   5.103   8.203  0.0088 -0.4908 -0.0883
   50CHL1  H24A 3689   5.635   5.114   8.184  0.1100  0.5866 -0.1163
   50CHL1  H24B 3690   5.748   5.006   8.257  0.5922  1.1941  3.1588
   50CHL1   C25 3691   5.787   5.206   8.316  0.8539 -1.0941  0.1187
   50CHL1   H25 3692   5.722   5.203   8.406 -0.1933 -0.8162 -0.6062
   50CHL1   C26 3693   5.924   5.158   8.372  0.0731  0.6110 -0.7865
   50CHL1  H26A 3694   5.914   5.057   8.418  3.4383  0.3571 -0.3384
   50CHL1  H26B 3695   6.005   5.164   8.297  3.0252 -0.6920  2.0549
   50CHL1  H26C 3696   5.946   5.234   8.451 -0.9882  1.3168 -1.1543
   50CHL1   C27 3697   5.800   5.350   8.264  0.2759  0.7743  1.2070
   50CHL1  H27A 3698   5.725   5.367   8.184  1.5856 -1.1255 -0.5291
   50CHL1  H27B 3699   5.782   5.428   8.341 -2.0783 -0.0656  1.5842
   50CHL1  H27C 3700   5.893   5.367   8.205 -0.9277 -1.2219 -1.5228
   51CHL1    C3 3701   3.710   4.807   7.028  0.1398 -0.2152 -0.4091
   51CHL1    H3 3702   3.634   4.886   7.011  0.4141 -0.0751 -1.0024
   51CHL1    O3 3703   3.778   4.783   6.905 -0.1606  0.5789  0.0602
   51CHL1   H3' 3704   3.705   4.754   6.849 -1.2314  1.9325  0.6929
   51CHL1    C4 3705   3.818   4.851   7.132  0.6782 -0.4206  0.0784
   51CHL1   H4A 3706   3.894   4.770   7.129  0.6373 -0.4609  0.1157
   51CHL1   H4B 3707   3.870   4.943   7.100 -1.4626  1.5417  1.8454
   51CHL1    C5 3708   3.759   4.883   7.267 -0.4029  0.0414  0.2760
   51CHL1    C6 3709   3.772   5.006   7.330  0.1427  1.2118  0.5330
   51CHL1    H6 3710   3.828   5.086   7.279  1.2748 -0.2748 -0.6224
   51CHL1    C7 3711   3.721   5.029   7.466  0.6200 -0.6312  0.0071
   51CHL1   H7A 3712   3.803   5.055   7.537  1.9803 -1.3763 -1.2252
   51CHL1   H7B 3713   3.648   5.113   7.469  2.7881  1.4122 -0.8851
   51CHL1    C8 3714   3.672   4.900   7.537  0.0030  0.1327  0.8111
   51CHL1    H8 3715   3.762   4.840   7.565 -0.8715 -1.2944  0.6536
   51CHL1   C14 3716   3.596   4.931   7.670  0.4646  0.3952 -0.9229
   51CHL1   H14 3717   3.511   4.998   7.646  1.7489  2.2002 -0.6059
   51CHL1   C15 3718   3.679   5.021   7.764 -0.0962 -1.0137 -0.2126
   51CHL1  H15A 3719   3.784   4.988   7.774  0.2359  0.1648  0.3871
   51CHL1  H15B 3720   3.691   5.130   7.744 -0.7710 -0.8861  0.0459
   51CHL1   C16 3721   3.597   5.007   7.893 -0.6079 -0.1009 -0.1797
   51CHL1  H16A 3722   3.663   4.994   7.982 -3.0853  1.1268  1.9677
   51CHL1  H16B 3723   3.546   5.102   7.922 -1.5452 -0.3796 -0.8549
   51CHL1   C17 3724   3.504   4.887   7.877  0.2975  0.1572  0.2764
   51CHL1   H17 3725   3.410   4.934   7.841  1.6280  0.6692 -2.8580
   51CHL1   C13 3726   3.551   4.814   7.745 -0.2174 -0.5792 -0.2822
   51CHL1   C18 3727   3.669   4.727   7.787  0.2773  0.2780 -0.0554
   51CHL1  H18A 3728   3.716   4.686   7.695  0.7729  3.9428 -1.5804
   51CHL1  H18B 3729   3.742   4.775   7.857  1.5814 -1.1411 -0.3816
   51CHL1  H18C 3730   3.631   4.640   7.846  0.7901  0.9603  1.3212
   51CHL1   C12 3731   3.453   4.743   7.650 -0.2551  0.1120 -0.1192
   51CHL1  H12A 3732   3.409   4.656   7.704 -0.7614 -0.6078 -1.6473
   51CHL1  H12B 3733   3.369   4.807   7.613  1.0297  1.2360 -1.1891
   51CHL1   C11 3734   3.519   4.695   7.524  0.2111 -0.3721 -0.4411
   51CHL1  H11A 3735   3.581   4.605   7.542  0.3512 -0.4734 -1.3729
   51CHL1  H11B 3736   3.438   4.655   7.460 -2.2294 -0.4859  2.5243
   51CHL1    C9 3737   3.590   4.815   7.447 -1.0204 -0.1242  0.1428
   51CHL1    H9 3738   3.513   4.882   7.404  0.6739  3.0787  1.7252
   51CHL1   C10 3739   3.674   4.769   7.320 -0.1771  0.4176 -0.3282
   51CHL1   C19 3740   3.769   4.649   7.363 -0.0228 -0.2418  0.4129
   51CHL1  H19A 3741   3.709   4.566   7.404 -0.0517 -0.3545  0.1459
   51CHL1  H19B 3742   3.832   4.610   7.280  1.6237 -0.6629  1.8065
   51CHL1  H19C 3743   3.838   4.685   7.443 -0.6846  4.5725 -0.8538
   51CHL1    C1 3744   3.570   4.711   7.212  0.3574  0.2120  0.8484
   51CHL1   H1A 3745   3.521   4.622   7.257 -3.0223  0.2965 -2.2377
   51CHL1   H1B 3746   3.490   4.785   7.196 -1.5429 -1.8098  0.4692
   51CHL1    C2 3747   3.635   4.686   7.077  0.2489  0.1589 -0.8561
   51CHL1   H2A 3748   3.562   4.644   7.004  2.3660  0.5821 -3.3501
   51CHL1   H2B 3749   3.711   4.605   7.080  1.4878  1.3103  2.0795
   51CHL1   C20 3750   3.467   4.818   8.000  0.8962 -0.2669 -0.5256
   51CHL1   H20 3751   3.552   4.750   8.018  0.6105 -0.7488 -0.9497
   51CHL1   C21 3752   3.335   4.735   7.978 -0.0959 -0.2787  0.0292
   51CHL1  H21A 3753   3.363   4.645   7.918  0.4094  0.3782 -0.7380
   51CHL1  H21B 3754   3.253   4.791   7.929  0.0489  1.6126  1.8114
   51CHL1  H21C 3755   3.293   4.694   8.072  1.9048  0.2470  1.2166
   51CHL1   C22 3756   3.449   4.906   8.116  0.4720 -0.6611 -0.1474
   51CHL1  H22A 3757   3.448   4.838   8.204 -0.2240  0.6927  0.9383
   51CHL1  H22B 3758   3.526   4.987   8.114  0.9087 -1.0587 -2.9728
   51CHL1   C23 3759   3.316   4.993   8.123 -0.8605  0.5137  0.2583
   51CHL1  H23A 3760   3.297   5.050   8.029 -0.0939 -0.3945 -0.4814
   51CHL1  H23B 3761   3.234   4.921   8.144 -0.4554  0.1723  0.7118
   51CHL1   C24 3762   3.329   5.087   8.249  0.5488  0.6254 -0.3996
   51CHL1  H24A 3763   3.374   5.021   8.327 -2.6181 -0.0670  0.9989
   51CHL1  H24B 3764   3.390   5.176   8.224 -0.6027  1.2877 -0.9347
   51CHL1   C25 3765   3.195   5.139   8.311 -0.3433 -1.1421  0.2978
   51CHL1   H25 3766   3.135   5.056   8.354 -0.5231 -1.8226 -1.1888
   51CHL1   C26 3767   3.211   5.234   8.424 -0.6233  0.1122 -0.7490
   51CHL1  H26A 3768   3.122   5.256   8.487 -0.3281 -1.4842  0.2836
   51CHL1  H26B 3769   3.293   5.219   8.498  0.1348  2.1690 -1.1076
   51CHL1  H26C 3770   3.245   5.328   8.375 -2.0113  1.9159  1.5290
   51CHL1   C27 3771   3.114   5.214   8.204  0.3913  0.7635 -0.2130
   51CHL1  H27A 3772   3.037   5.279   8.251  1.0052  2.5016 -1.4951
   51CHL1  H27B 3773   3.182   5.271   8.137  1.7595 -1.4459 -0.8219
   51CHL1  H27C 3774   3.068   5.136   8.139  2.9070 -1.6988  0.7644
   52CHL1    C3 3775   1.633   5.676   7.126 -0.0694  0.0591 -0.7149
   52CHL1    H3 3776   1.739   5.699   7.099  0.4489  1.0893  1.8734
   52CHL1    O3 3777   1.555   5.678   7.012 -0.4764  0.1428 -0.1033
   52CHL1   H3' 3778   1.475   5.626   7.016 -1.4968  1.6370 -0.2522
   52CHL1    C4 3779   1.630   5.547   7.199 -0.1726 -0.7932 -0.5720
   52CHL1   H4A 3780   1.522   5.525   7.195 -0.5615  0.5651  1.0874
   52CHL1   H4B 3781   1.690   5.472   7.143  3.6518  1.7661 -0.3450
   52CHL1    C5 3782   1.685   5.572   7.343 -1.2102 -0.6345  0.1968
   52CHL1    C6 3783   1.785   5.500   7.386 -0.0802  0.3369 -0.0225
   52CHL1    H6 3784   1.825   5.421   7.320 -0.5222  0.4110 -0.3873
   52CHL1    C7 3785   1.857   5.513   7.522 -0.5495  0.5290 -0.5281
   52CHL1   H7A 3786   1.891   5.419   7.569  0.2945  0.8122 -0.5487
   52CHL1   H7B 3787   1.949   5.574   7.507 -0.7247  1.0814  0.5537
   52CHL1    C8 3788   1.768   5.589   7.623  0.3666  0.6150  0.1754
   52CHL1    H8 3789   1.692   5.515   7.654  1.4958 -0.7221 -0.1788
   52CHL1   C14 3790   1.854   5.626   7.743 -0.1549 -0.5024  0.4120
   52CHL1   H14 3791   1.932   5.688   7.692 -0.7517 -1.2781 -1.5480
   52CHL1   C15 3792   1.942   5.512   7.810 -0.0033  0.2112 -0.6220
   52CHL1  H15A 3793   1.877   5.428   7.843 -0.8713  1.1996  0.2761
   52CHL1  H15B 3794   2.030   5.486   7.748 -1.1975 -2.4510 -1.3370
   52CHL1   C16 3795   1.968   5.586   7.945 -0.5843  0.5494 -0.1310
   52CHL1  H16A 3796   1.931   5.518   8.024 -1.4655 -1.3104 -2.0526
   52CHL1  H16B 3797   2.075   5.609   7.967 -1.5702  2.8032  2.9587
   52CHL1   C17 3798   1.890   5.716   7.956 -0.1142 -0.3999  0.1346
   52CHL1   H17 3799   1.957   5.793   7.912  0.1956 -1.6691 -1.7034
   52CHL1   C13 3800   1.779   5.703   7.848  1.1240 -0.3573 -0.8439
   52CHL1   C18 3801   1.664   5.622   7.910 -0.1746 -0.3968 -0.4638
   52CHL1  H18A 3802   1.591   5.620   7.827  0.6778 -1.6463 -1.2205
   52CHL1  H18B 3803   1.707   5.519   7.907 -0.2173 -0.3934 -1.4792
   52CHL1  H18C 3804   1.626   5.666   8.005 -2.1580  0.9106 -1.8012
   52CHL1   C12 3805   1.722   5.836   7.783  0.7427  0.1080  0.2561
   52CHL1  H12A 3806   1.657   5.891   7.854 -0.3764 -0.9426  0.0631
   52CHL1  H12B 3807   1.808   5.899   7.750  0.1687  0.6072 -0.3049
   52CHL1   C11 3808   1.630   5.808   7.660  0.0735 -0.4170  0.2817
   52CHL1  H11A 3809   1.535   5.767   7.700 -0.6195  0.7749 -0.1125
   52CHL1  H11B 3810   1.595   5.903   7.615 -0.4722 -0.6692  0.1577
   52CHL1    C9 3811   1.699   5.715   7.560  0.1155  0.0532  0.0804
   52CHL1    H9 3812   1.791   5.771   7.531 -1.8143  2.8508 -1.1442
   52CHL1   C10 3813   1.624   5.691   7.429 -0.1320 -1.4323  0.0003
   52CHL1   C19 3814   1.478   5.668   7.466 -0.4244  0.0528  0.5969
   52CHL1  H19A 3815   1.474   5.592   7.547 -1.4206 -1.5933 -0.9549
   52CHL1  H19B 3816   1.423   5.759   7.499 -1.2020 -0.5594  1.0226
   52CHL1  H19C 3817   1.419   5.632   7.380  1.7328  0.1137 -0.9919
   52CHL1    C1 3818   1.636   5.826   7.351 -0.0178  0.3981  0.6892
   52CHL1   H1A 3819   1.590   5.916   7.397  1.3738  2.1404 -1.2005
   52CHL1   H1B 3820   1.738   5.866   7.333  0.0538 -0.6574 -1.5454
   52CHL1    C2 3821   1.576   5.798   7.208 -0.0029  0.5391 -0.2285
   52CHL1   H2A 3822   1.588   5.889   7.144 -0.5839  1.5074  1.0032
   52CHL1   H2B 3823   1.467   5.787   7.224 -0.0223  1.4657  0.3459
   52CHL1   C20 3824   1.850   5.764   8.096 -0.0482 -0.5795  0.3433
   52CHL1   H20 3825   1.764   5.704   8.133 -0.5304 -0.4843 -0.5946
   52CHL1   C21 3826   1.778   5.908   8.080 -0.3810 -1.0212  0.5496
   52CHL1  H21A 3827   1.835   5.980   8.019  0.2264 -1.7064  0.2898
   52CHL1  H21B 3828   1.759   5.946   8.183  1.6555  1.2044  0.1813
   52CHL1  H21C 3829   1.675   5.897   8.039 -0.1497  0.4452 -0.4624
   52CHL1   C22 3830   1.960   5.767   8.200 -0.3453 -0.5026 -0.2714
   52CHL1  H22A 3831   1.915   5.804   8.295 -2.3426 -0.2407 -1.2585
   52CHL1  H22B 3832   1.981   5.658   8.210  0.7616 -0.2268  0.5763
   52CHL1   C23 3833   2.093   5.844   8.155 -0.5785 -0.3380 -0.3747
   52CHL1  H23A 3834   2.139   5.799   8.065  1.5301  1.0033 -0.0401
   52CHL1  H23B 3835   2.072   5.950   8.130  0.9924 -0.4068 -2.2723
   52CHL1   C24 3836   2.197   5.849   8.275 -0.4617 -0.9234  0.5867
   52CHL1  H24A 3837   2.270   5.923   8.236 -1.0419 -0.4077  0.4755
   52CHL1  H24B 3838   2.155   5.903   8.362  1.2982  0.1419  0.8157
   52CHL1   C25 3839   2.247   5.711   8.312  0.3483  0.0810 -0.2730
   52CHL1   H25 3840   2.152   5.653   8.317 -0.0814  0.8102  0.2195
   52CHL1   C26 3841   2.343   5.648   8.206 -0.2574 -0.1021  0.0087
   52CHL1  H26A 3842   2.296   5.636   8.106  0.0518  0.5437 -0.2149
   52CHL1  H26B 3843   2.433   5.712   8.196 -0.4117  0.3133  1.1395
   52CHL1  H26C 3844   2.389   5.553   8.241  1.5524 -0.1109 -2.1887
   52CHL1   C27 3845   2.312   5.717   8.456 -0.3442 -0.5867  0.8784
   52CHL1  H27A 3846   2.235   5.745   8.531  1.0393  0.1612  2.0717
   52CHL1  H27B 3847   2.349   5.615   8.479  1.8693 -0.2778 -0.9318
   52CHL1  H27C 3848   2.391   5.795   8.463  1.0143 -2.0164  2.4221
   53CHL1    C3 3849   0.927   1.514   7.168  0.4240 -0.2081 -0.1516
   53CHL1    H3 3850   1.027   1.553   7.194  0.0838  1.0040 -0.5788
   53CHL1    O3 3851   0.925   1.512   7.030  0.3609  0.3674  1.0988
   53CHL1   H3' 3852   0.994   1.452   6.999  2.0143  2.1992  0.9950
   53CHL1    C4 3853   0.907   1.370   7.234 -0.8480 -0.5180 -0.2798
   53CHL1   H4A 3854   0.816   1.337   7.181 -0.4671 -0.2827 -1.1039
   53CHL1   H4B 3855   0.989   1.301   7.205  0.8517  0.2873  2.2700
   53CHL1    C5 3856   0.898   1.381   7.386 -0.1817  0.3479  0.5896
   53CHL1    C6 3857   0.981   1.305   7.459  0.5807  0.8989  0.0990
   53CHL1    H6 3858   1.058   1.250   7.403 -1.5214 -1.3972 -0.7461
   53CHL1    C7 3859   0.969   1.285   7.606  0.6098  0.4043 -0.8038
   53CHL1   H7A 3860   0.973   1.177   7.633 -3.2301 -0.3373 -2.6141
   53CHL1   H7B 3861   1.059   1.345   7.634 -0.1873  2.0698 -1.6431
   53CHL1    C8 3862   0.840   1.345   7.662 -0.1924  0.3790  0.0041
   53CHL1    H8 3863   0.760   1.268   7.654 -1.7242  1.5575  2.6534
   53CHL1   C14 3864   0.852   1.364   7.814 -1.1926  0.3415  0.4296
   53CHL1   H14 3865   0.938   1.434   7.811 -0.2437 -0.8063 -1.8248
   53CHL1   C15 3866   0.912   1.250   7.897  0.6781 -0.1909 -0.6728
   53CHL1  H15A 3867   0.864   1.152   7.876  0.8113 -0.2831 -0.5523
   53CHL1  H15B 3868   1.022   1.235   7.892  0.7103  0.3371 -1.7007
   53CHL1   C16 3869   0.874   1.286   8.039  0.0307  0.0568 -0.0707
   53CHL1  H16A 3870   0.819   1.200   8.083 -0.9808  1.5641  1.7717
   53CHL1  H16B 3871   0.968   1.302   8.096 -0.8495  1.5007  1.0547
   53CHL1   C17 3872   0.792   1.415   8.035  0.3521 -0.0679 -0.3441
   53CHL1   H17 3873   0.861   1.503   8.041 -1.7883  1.6508  0.2795
   53CHL1   C13 3874   0.734   1.419   7.890 -0.2452 -0.9142 -0.0269
   53CHL1   C18 3875   0.613   1.331   7.877  0.0677  0.1169  0.2858
   53CHL1  H18A 3876   0.521   1.381   7.915 -0.2946  1.5575 -2.2404
   53CHL1  H18B 3877   0.589   1.324   7.768  2.6346  1.4777 -0.4634
   53CHL1  H18C 3878   0.623   1.232   7.927  3.4032  0.5856  0.8243
   53CHL1   C12 3879   0.708   1.560   7.820  0.1747 -0.0013  0.2645
   53CHL1  H12A 3880   0.615   1.606   7.859 -0.7035 -1.8839  0.4700
   53CHL1  H12B 3881   0.798   1.622   7.844  0.6971 -1.0374  1.0466
   53CHL1   C11 3882   0.698   1.561   7.670  0.1200  0.3969 -0.5130
   53CHL1  H11A 3883   0.597   1.522   7.643 -0.7010  2.5165 -0.7311
   53CHL1  H11B 3884   0.698   1.665   7.630 -0.1804  1.4035  1.9296
   53CHL1    C9 3885   0.808   1.478   7.599  0.2514 -0.0689  0.5243
   53CHL1    H9 3886   0.905   1.528   7.617  0.9628 -1.1576 -0.1903
   53CHL1   C10 3887   0.788   1.468   7.442  0.1035 -0.2137  0.5214
   53CHL1   C19 3888   0.651   1.411   7.407  0.8015 -0.0832  1.0516
   53CHL1  H19A 3889   0.650   1.382   7.300  0.3230  2.0983  0.4079
   53CHL1  H19B 3890   0.619   1.327   7.471  0.2894 -0.4375  0.3511
   53CHL1  H19C 3891   0.574   1.490   7.422 -1.3638 -2.2430  2.0520
   53CHL1    C1 3892   0.811   1.604   7.379 -0.2849 -0.6007  0.5021
   53CHL1   H1A 3893   0.726   1.669   7.411 -0.1076 -0.8025  1.4105
   53CHL1   H1B 3894   0.899   1.647   7.432 -0.8129  3.1971 -1.3460
   53CHL1    C2 3895   0.820   1.611   7.233 -0.2526 -0.2233  0.4498
   53CHL1   H2A 3896   0.838   1.715   7.198  1.9792 -0.8254 -0.3324
   53CHL1   H2B 3897   0.725   1.586   7.180  0.4926 -1.3396 -0.3959
   53CHL1   C20 3898   0.683   1.434   8.152 -0.2009  0.1198 -0.1010
   53CHL1   H20 3899   0.613   1.348   8.150  0.4963 -0.5060  1.2463
   53CHL1   C21 3900   0.596   1.560   8.134 -0.3111  0.7800  0.4787
   53CHL1  H21A 3901   0.540   1.545   8.040  2.4988 -2.0579 -0.9580
   53CHL1  H21B 3902   0.665   1.647   8.132 -0.8282  1.2950  2.4681
   53CHL1  H21C 3903   0.531   1.571   8.223 -1.9388 -0.0250 -0.5666
   53CHL1   C22 3904   0.751   1.440   8.288 -0.0095  0.7782 -0.2251
   53CHL1  H22A 3905   0.856   1.405   8.279  0.1483 -0.1531  3.6987
   53CHL1  H22B 3906   0.755   1.543   8.328  1.0796  0.0835  1.5739
   53CHL1   C23 3907   0.691   1.350   8.404  0.0754 -0.4700 -0.1034
   53CHL1  H23A 3908   0.701   1.241   8.381 -0.1836 -0.3537 -0.7873
   53CHL1  H23B 3909   0.755   1.365   8.493  1.2663 -1.0025 -0.8356
   53CHL1   C24 3910   0.543   1.374   8.439 -0.3148  0.7423  0.5320
   53CHL1  H24A 3911   0.536   1.485   8.442  0.5322  0.8984 -1.4020
   53CHL1  H24B 3912   0.473   1.353   8.355  1.6940  0.1267 -1.0978
   53CHL1   C25 3913   0.495   1.319   8.572 -0.6956 -0.2197 -0.4684
   53CHL1   H25 3914   0.578   1.336   8.644 -2.3980  0.3326  1.4577
   53CHL1   C26 3915   0.368   1.390   8.624 -0.0826  0.2551  0.6564
   53CHL1  H26A 3916   0.285   1.371   8.552 -0.5626  2.9712  0.3636
   53CHL1  H26B 3917   0.331   1.368   8.726 -0.9343  1.0734  0.5409
   53CHL1  H26C 3918   0.388   1.498   8.641  0.6314  0.4041 -0.9966
   53CHL1   C27 3919   0.472   1.166   8.570 -0.1008 -0.5761 -0.2397
   53CHL1  H27A 3920   0.552   1.091   8.590 -0.6930 -0.8548  1.2128
   53CHL1  H27B 3921   0.394   1.136   8.644 -1.5397 -0.4002 -1.6295
   53CHL1  H27C 3922   0.430   1.149   8.469  0.7743  2.7975 -1.2730
   54CHL1    C3 3923   2.494   2.233   7.075 -0.6809  0.0797  0.2470
   54CHL1    H3 3924   2.585   2.295   7.090  1.2179 -2.5621  0.1788
   54CHL1    O3 3925   2.481   2.194   6.935  0.2231 -0.1968  0.4237
   54CHL1   H3' 3926   2.392   2.160   6.931 -0.4837  1.6475 -0.4531
   54CHL1    C4 3927   2.511   2.101   7.150  0.2505 -0.9313  0.7218
   54CHL1   H4A 3928   2.424   2.033   7.135 -1.4469  1.0683  0.9856
   54CHL1   H4B 3929   2.603   2.053   7.110  1.1354  1.6289 -0.5252
   54CHL1    C5 3930   2.510   2.130   7.298 -0.7034  0.4276  0.0343
   54CHL1    C6 3931   2.622   2.086   7.366  1.1568 -0.2569  0.1147
   54CHL1    H6 3932   2.699   2.025   7.317 -1.7073 -2.4905 -2.0004
   54CHL1    C7 3933   2.636   2.115   7.511  0.4609  0.0831  0.3356
   54CHL1   H7A 3934   2.669   2.025   7.566 -1.7520 -0.5256  0.7720
   54CHL1   H7B 3935   2.702   2.202   7.533 -0.1940  0.6940 -0.0659
   54CHL1    C8 3936   2.495   2.153   7.576  0.3320  0.4296  0.2907
   54CHL1    H8 3937   2.433   2.063   7.558 -0.4255  0.7408  1.2199
   54CHL1   C14 3938   2.518   2.192   7.720  0.1019 -0.6992 -0.4914
   54CHL1   H14 3939   2.592   2.274   7.703 -0.7487 -0.0206 -0.9783
   54CHL1   C15 3940   2.595   2.091   7.808  0.4374  0.2375 -1.0158
   54CHL1  H15A 3941   2.539   1.995   7.815 -1.0520  1.1676  2.9236
   54CHL1  H15B 3942   2.703   2.086   7.785  0.5693  0.7068 -0.5190
   54CHL1   C16 3943   2.569   2.147   7.949  0.7371 -0.7753 -0.2291
   54CHL1  H16A 3944   2.525   2.075   8.021 -0.4212 -0.8337 -0.9587
   54CHL1  H16B 3945   2.664   2.190   7.986 -0.0966  1.6919 -0.7200
   54CHL1   C17 3946   2.469   2.276   7.937  0.2690 -0.6612 -0.3565
   54CHL1   H17 3947   2.531   2.368   7.924 -2.7894  1.5208 -0.4108
   54CHL1   C13 3948   2.411   2.253   7.805  0.2649  0.2670  0.6474
   54CHL1   C18 3949   2.303   2.139   7.812 -0.0539 -0.3127  0.1180
   54CHL1  H18A 3950   2.335   2.053   7.875 -1.7820 -0.3314  1.0410
   54CHL1  H18B 3951   2.212   2.189   7.852  1.2292  1.3979  1.0084
   54CHL1  H18C 3952   2.272   2.100   7.713 -0.3159 -1.2939  0.5643
   54CHL1   C12 3953   2.353   2.370   7.725 -0.2096 -0.0291  0.3556
   54CHL1  H12A 3954   2.262   2.413   7.772 -0.1384 -0.9923  1.4218
   54CHL1  H12B 3955   2.436   2.444   7.723  0.6885 -1.0131 -0.6444
   54CHL1   C11 3956   2.314   2.335   7.577  0.4241 -0.9924 -0.2015
   54CHL1  H11A 3957   2.228   2.265   7.571  0.3003 -0.8779  0.2095
   54CHL1  H11B 3958   2.274   2.428   7.532  1.2009 -0.3742  0.3472
   54CHL1    C9 3959   2.430   2.269   7.496  1.3645 -0.0029  0.2152
   54CHL1    H9 3960   2.511   2.346   7.500  1.1563  0.2852 -0.7831
   54CHL1   C10 3961   2.396   2.219   7.356 -0.2604 -0.3530  0.2388
   54CHL1   C19 3962   2.263   2.135   7.360  0.8155  0.0070 -1.0035
   54CHL1  H19A 3963   2.179   2.205   7.384  0.0318 -1.4024  0.5788
   54CHL1  H19B 3964   2.242   2.097   7.258 -1.6172  1.1920 -1.0243
   54CHL1  H19C 3965   2.265   2.063   7.445  0.0561  0.0144 -0.9722
   54CHL1    C1 3966   2.386   2.339   7.261  0.5400 -0.2112  0.5344
   54CHL1   H1A 3967   2.313   2.413   7.301 -0.7585  1.0993 -3.7115
   54CHL1   H1B 3968   2.477   2.402   7.276 -1.3273  2.5553  1.0239
   54CHL1    C2 3969   2.371   2.317   7.112  0.5427 -0.2684  0.4252
   54CHL1   H2A 3970   2.354   2.410   7.055 -0.5449 -0.3553  0.5833
   54CHL1   H2B 3971   2.274   2.266   7.092 -1.0673  3.5906 -3.0592
   54CHL1   C20 3972   2.387   2.284   8.064 -0.7056 -0.3205 -0.1569
   54CHL1   H20 3973   2.310   2.204   8.065 -0.4356 -0.6897  3.0171
   54CHL1   C21 3974   2.316   2.422   8.067  0.1311 -0.1493 -0.1609
   54CHL1  H21A 3975   2.256   2.449   8.157 -1.1010 -1.6013 -0.5148
   54CHL1  H21B 3976   2.240   2.420   7.987 -0.6078 -0.0763  0.5244
   54CHL1  H21C 3977   2.390   2.500   8.040 -0.7284  0.0867 -1.9521
   54CHL1   C22 3978   2.465   2.264   8.198  0.6331 -0.0151  0.5120
   54CHL1  H22A 3979   2.543   2.185   8.200 -0.1339 -0.7712  1.2468
   54CHL1  H22B 3980   2.509   2.365   8.214  0.8365 -0.4201  2.8127
   54CHL1   C23 3981   2.373   2.229   8.318 -0.6074 -0.0343 -0.3769
   54CHL1  H23A 3982   2.291   2.304   8.321  0.1095  0.7445  0.0851
   54CHL1  H23B 3983   2.324   2.133   8.293 -0.4852  0.3033 -2.0306
   54CHL1   C24 3984   2.443   2.225   8.457 -0.2170  0.1873  0.1964
   54CHL1  H24A 3985   2.511   2.138   8.444  1.2197  1.3558 -0.3454
   54CHL1  H24B 3986   2.508   2.313   8.479  0.4331 -0.3253  0.3526
   54CHL1   C25 3987   2.345   2.201   8.573  0.2210 -0.1683 -0.2632
   54CHL1   H25 3988   2.270   2.282   8.563  1.2810  0.6097 -2.9979
   54CHL1   C26 3989   2.286   2.056   8.574  0.8328 -0.3433 -0.3014
   54CHL1  H26A 3990   2.220   2.044   8.485  1.0342 -0.3211 -0.4553
   54CHL1  H26B 3991   2.371   1.985   8.562 -1.1445 -2.8333 -0.4773
   54CHL1  H26C 3992   2.227   2.033   8.666 -0.3972  2.2246 -0.3572
   54CHL1   C27 3993   2.428   2.235   8.695  0.8117  0.2574  0.2197
   54CHL1  H27A 3994   2.496   2.148   8.710  0.6507  0.0460 -0.2642
   54CHL1  H27B 3995   2.481   2.333   8.684 -0.1040  0.5573 -2.2153
   54CHL1  H27C 3996   2.373   2.246   8.791 -0.1648  0.5537 -0.3648
   55CHL1    C3 3997   2.028   3.242   6.919 -0.0708  0.4840  0.4605
   55CHL1    H3 3998   1.921   3.252   6.946 -0.6237  0.7853 -1.6644
   55CHL1    O3 3999   2.033   3.214   6.772  0.5359 -0.2370 -0.5302
   55CHL1   H3' 4000   1.972   3.282   6.743  0.4188  0.4410  1.1725
   55CHL1    C4 4001   2.106   3.369   6.957 -0.8495 -0.6517  0.6770
   55CHL1   H4A 4002   2.212   3.346   6.934 -0.2506  0.9643  1.6632
   55CHL1   H4B 4003   2.079   3.454   6.891  3.3205 -0.1826 -0.7396
   55CHL1    C5 4004   2.099   3.402   7.103  0.3632 -0.6826 -1.0080
   55CHL1    C6 4005   2.046   3.520   7.144  0.0286 -0.2783  0.3177
   55CHL1    H6 4006   2.008   3.590   7.069 -1.8607 -0.4015  1.1174
   55CHL1    C7 4007   2.028   3.552   7.288  0.3746  0.9814 -0.1294
   55CHL1   H7A 4008   2.072   3.653   7.302 -0.1614  1.2103 -0.0643
   55CHL1   H7B 4009   1.922   3.550   7.320 -0.1421 -0.8881 -1.7229
   55CHL1    C8 4010   2.102   3.450   7.375  0.3213  0.5009 -0.2634
   55CHL1    H8 4011   2.209   3.475   7.364  0.2566  0.0958 -2.1475
   55CHL1   C14 4012   2.062   3.463   7.519 -0.4416 -0.5581 -0.5473
   55CHL1   H14 4013   1.955   3.430   7.518 -0.7264  0.3159  0.3266
   55CHL1   C15 4014   2.052   3.607   7.571  0.3855  0.1699 -0.6609
   55CHL1  H15A 4015   2.140   3.668   7.545  2.3424 -3.1528 -2.5008
   55CHL1  H15B 4016   1.959   3.658   7.536  0.6517  1.5986  0.6018
   55CHL1   C16 4017   2.039   3.587   7.723  0.2017 -0.2592  0.5652
   55CHL1  H16A 4018   2.114   3.657   7.766  1.0533 -1.4324  1.0303
   55CHL1  H16B 4019   1.938   3.618   7.758  0.0807  0.5778 -0.4604
   55CHL1   C17 4020   2.074   3.439   7.752  0.2693 -0.4437 -0.6358
   55CHL1   H17 4021   1.985   3.374   7.760  0.1317 -0.2401 -0.4771
   55CHL1   C13 4022   2.145   3.390   7.626  0.4663  0.4762  0.0503
   55CHL1   C18 4023   2.288   3.444   7.616 -0.8255  0.9926 -0.1667
   55CHL1  H18A 4024   2.350   3.394   7.693 -1.0746  0.8788 -0.0388
   55CHL1  H18B 4025   2.328   3.415   7.517  0.8673  2.0660  0.1628
   55CHL1  H18C 4026   2.289   3.554   7.635 -0.0901  0.7546  1.3469
   55CHL1   C12 4027   2.130   3.239   7.591  0.6020  0.2745 -0.1803
   55CHL1  H12A 4028   2.184   3.161   7.649 -0.4735  1.2274  2.2140
   55CHL1  H12B 4029   2.022   3.216   7.593  0.1139  2.4087  1.0150
   55CHL1   C11 4030   2.177   3.215   7.442  0.3313  1.3261  0.6108
   55CHL1  H11A 4031   2.287   3.227   7.442  0.6169 -0.5886 -1.5648
   55CHL1  H11B 4032   2.161   3.107   7.420 -1.1248  1.7648 -0.7092
   55CHL1    C9 4033   2.096   3.300   7.337  0.2606 -0.2954 -0.2618
   55CHL1    H9 4034   1.989   3.271   7.340 -0.5142  2.2892  3.0016
   55CHL1   C10 4035   2.138   3.285   7.189  0.1789  0.6775 -0.0191
   55CHL1   C19 4036   2.287   3.270   7.184  0.9073 -0.7337  0.3777
   55CHL1  H19A 4037   2.324   3.188   7.248 -0.0548 -1.3133  0.2131
   55CHL1  H19B 4038   2.310   3.246   7.078 -4.2976  2.1658 -1.7711
   55CHL1  H19C 4039   2.344   3.362   7.207 -0.5102  0.5437 -0.9692
   55CHL1    C1 4040   2.078   3.143   7.147  0.0573  0.0165 -0.0658
   55CHL1   H1A 4041   2.135   3.059   7.192  0.5574  1.3721  1.9577
   55CHL1   H1B 4042   1.975   3.123   7.183  0.8321 -0.6281  1.9239
   55CHL1    C2 4043   2.080   3.116   6.994  0.1265 -0.5457  0.5009
   55CHL1   H2A 4044   2.015   3.029   6.972  0.4727 -0.2236 -2.0570
   55CHL1   H2B 4045   2.183   3.094   6.961  0.2498 -0.8084  1.0528
   55CHL1   C20 4046   2.150   3.432   7.887 -0.1604  0.5313 -0.6118
   55CHL1   H20 4047   2.247   3.480   7.864 -1.0280  2.1301 -1.0875
   55CHL1   C21 4048   2.175   3.288   7.924  0.2497  0.8092 -0.0768
   55CHL1  H21A 4049   2.079   3.251   7.964 -0.7367  1.1466 -2.0080
   55CHL1  H21B 4050   2.262   3.275   7.992  1.6711 -2.0473 -2.2194
   55CHL1  H21C 4051   2.204   3.231   7.833 -1.2335  0.7632 -0.5507
   55CHL1   C22 4052   2.082   3.503   8.001 -0.0355 -0.6561  0.2718
   55CHL1  H22A 4053   2.069   3.610   7.972 -0.2569 -0.7023  0.2020
   55CHL1  H22B 4054   1.988   3.447   8.018  0.6468 -2.4520 -1.5093
   55CHL1   C23 4055   2.171   3.500   8.123  0.1222 -0.5562 -0.3592
   55CHL1  H23A 4056   2.187   3.400   8.168 -2.5229 -0.5110  0.8670
   55CHL1  H23B 4057   2.272   3.539   8.102 -0.5975  2.3756  1.1208
   55CHL1   C24 4058   2.101   3.584   8.235  0.3695  0.0169 -0.5135
   55CHL1  H24A 4059   2.083   3.689   8.202 -2.7432 -0.7493 -1.5670
   55CHL1  H24B 4060   2.010   3.521   8.245  1.2020 -1.2566 -0.7989
   55CHL1   C25 4061   2.183   3.577   8.366  0.5335  0.1908 -0.6005
   55CHL1   H25 4062   2.283   3.619   8.342  0.5190 -1.2142 -3.6091
   55CHL1   C26 4063   2.129   3.675   8.472 -0.4596  0.2832  0.5085
   55CHL1  H26A 4064   2.201   3.691   8.556  0.0430  1.4142 -0.1128
   55CHL1  H26B 4065   2.122   3.775   8.426 -0.9360 -0.6572 -1.5656
   55CHL1  H26C 4066   2.022   3.652   8.492 -0.7786  1.2554 -0.0582
   55CHL1   C27 4067   2.186   3.443   8.436 -0.2809  0.3126 -0.3868
   55CHL1  H27A 4068   2.243   3.441   8.531 -1.2216  1.3777  0.2286
   55CHL1  H27B 4069   2.082   3.405   8.442 -0.0253 -0.2622  0.9408
   55CHL1  H27C 4070   2.240   3.373   8.368  0.9690 -1.1894  2.0080
   56CHL1    C3 4071   5.976   1.898   6.853  0.4474  0.2020  0.1825
   56CHL1    H3 4072   5.907   1.973   6.811 -0.7400 -1.9600 -1.9921
   56CHL1    O3 4073   6.025   1.817   6.746 -0.3445  0.1873 -0.3873
   56CHL1   H3' 4074   6.078   1.872   6.689  2.3458  0.3913  2.0708
   56CHL1    C4 4075   6.091   1.960   6.926 -0.4981 -0.0618 -0.2684
   56CHL1   H4A 4076   6.178   1.891   6.931  0.4117  1.0042 -1.1056
   56CHL1   H4B 4077   6.130   2.048   6.871 -1.3232  0.3365 -0.2314
   56CHL1    C5 4078   6.065   2.003   7.067 -0.0821  0.2382  0.1293
   56CHL1    C6 4079   6.084   2.131   7.102  0.1190  0.3266  0.4833
   56CHL1    H6 4080   6.141   2.199   7.038  0.3539  0.7101  1.0924
   56CHL1    C7 4081   6.079   2.174   7.248 -0.1166 -0.0997 -0.1433
   56CHL1   H7A 4082   6.171   2.228   7.279  0.3553  1.4574 -3.7281
   56CHL1   H7B 4083   5.987   2.235   7.258 -0.0181  0.2579 -1.2163
   56CHL1    C8 4084   6.057   2.052   7.346  0.4470 -0.2745  0.3684
   56CHL1    H8 4085   6.160   2.011   7.348 -0.2361 -2.4968 -2.8680
   56CHL1   C14 4086   6.010   2.106   7.481 -0.1108  0.2834  0.2633
   56CHL1   H14 4087   5.917   2.165   7.464  0.5618  1.3824  0.3332
   56CHL1   C15 4088   6.101   2.208   7.551  0.4430  0.4928  0.0377
   56CHL1  H15A 4089   6.206   2.173   7.545 -0.1245 -1.0091 -2.3959
   56CHL1  H15B 4090   6.093   2.309   7.505  1.3229  1.4441  1.8485
   56CHL1   C16 4091   6.023   2.218   7.683  0.3924 -0.3517  0.4907
   56CHL1  H16A 4092   6.103   2.230   7.760 -0.3621 -0.9976  1.3910
   56CHL1  H16B 4093   5.963   2.312   7.685 -0.2114 -0.7440  1.4084
   56CHL1   C17 4094   5.948   2.084   7.705  0.3303 -0.1984 -0.4522
   56CHL1   H17 4095   5.845   2.117   7.682 -0.1335 -0.6023  0.9171
   56CHL1   C13 4096   5.982   1.999   7.587 -0.2172 -0.1038 -0.6352
   56CHL1   C18 4097   6.113   1.921   7.619 -0.2040 -0.8573 -1.1248
   56CHL1  H18A 4098   6.091   1.834   7.685 -0.5512  0.3746  0.4644
   56CHL1  H18B 4099   6.166   1.886   7.528 -1.0291 -0.4165 -1.7796
   56CHL1  H18C 4100   6.183   1.986   7.675 -0.9466  0.1940 -1.3891
   56CHL1   C12 4101   5.867   1.906   7.533 -0.1742  1.3342 -0.0082
   56CHL1  H12A 4102   5.857   1.821   7.603  4.0354  1.0694  0.5471
   56CHL1  H12B 4103   5.775   1.968   7.531 -0.5802  0.7773  0.8525
   56CHL1   C11 4104   5.923   1.852   7.400  0.4189  0.3194  0.0378
   56CHL1  H11A 4105   6.020   1.802   7.423  1.1919  1.2842 -1.0109
   56CHL1  H11B 4106   5.858   1.771   7.360 -1.8750  1.6451  0.8813
   56CHL1    C9 4107   5.957   1.952   7.291 -0.1661  0.0880  0.1330
   56CHL1    H9 4108   5.866   2.015   7.278 -0.8693 -1.0186 -0.4450
   56CHL1   C10 4109   6.001   1.892   7.154  0.2498 -0.4556  0.3791
   56CHL1   C19 4110   6.103   1.783   7.171 -0.4598  0.4727 -0.5407
   56CHL1  H19A 4111   6.184   1.821   7.237 -2.7949  1.4061  1.9671
   56CHL1  H19B 4112   6.055   1.700   7.228  1.8222 -0.0664  0.7168
   56CHL1  H19C 4113   6.144   1.732   7.082  0.0855 -1.5223  0.7801
   56CHL1    C1 4114   5.877   1.839   7.087  0.4344 -0.2823 -0.0689
   56CHL1   H1A 4115   5.836   1.758   7.150 -1.9003  1.3874  0.7166
   56CHL1   H1B 4116   5.792   1.910   7.075 -0.1433 -1.3787 -4.0170
   56CHL1    C2 4117   5.903   1.794   6.941  0.1455  0.3952 -0.1299
   56CHL1   H2A 4118   5.814   1.756   6.887  0.3625 -1.6260  0.8350
   56CHL1   H2B 4119   5.966   1.704   6.956  0.0340  0.2800 -0.3369
   56CHL1   C20 4120   5.948   2.048   7.854 -0.4391 -0.7118 -0.0515
   56CHL1   H20 4121   6.054   2.030   7.880 -0.0440  1.6525  0.2327
   56CHL1   C21 4122   5.875   1.916   7.872  0.1268 -0.2257 -0.6482
   56CHL1  H21A 4123   5.764   1.916   7.858 -0.1855 -3.0839  1.2501
   56CHL1  H21B 4124   5.896   1.881   7.975  2.4357  1.4342 -0.4780
   56CHL1  H21C 4125   5.904   1.833   7.804 -2.5128 -2.2754  0.5427
   56CHL1   C22 4126   5.902   2.155   7.954 -0.1528 -0.8368 -0.6079
   56CHL1  H22A 4127   5.970   2.240   7.933 -0.5075 -1.0593 -2.8646
   56CHL1  H22B 4128   5.797   2.186   7.935 -0.3941 -1.5291 -0.4564
   56CHL1   C23 4129   5.917   2.096   8.098  0.2665 -0.0994  1.0520
   56CHL1  H23A 4130   5.852   2.008   8.118  0.5065 -0.9063 -1.3747
   56CHL1  H23B 4131   6.021   2.060   8.109  0.4532 -1.1456 -2.6981
   56CHL1   C24 4132   5.891   2.208   8.196  0.4150  0.0483 -0.7588
   56CHL1  H24A 4133   5.973   2.284   8.197 -0.7550  1.4299  2.1752
   56CHL1  H24B 4134   5.800   2.265   8.168 -0.0689 -0.2869  0.1041
   56CHL1   C25 4135   5.877   2.156   8.335  0.3470  0.3422 -0.3336
   56CHL1   H25 4136   5.792   2.084   8.342 -0.2910  1.2057  1.2421
   56CHL1   C26 4137   6.001   2.079   8.383  0.7736  0.6828 -0.5173
   56CHL1  H26A 4138   5.977   2.037   8.483  1.0952  4.1117  1.1376
   56CHL1  H26B 4139   6.085   2.149   8.399  2.9782 -1.9126  0.0041
   56CHL1  H26C 4140   6.037   1.997   8.317  3.1587  3.1681 -2.5847
   56CHL1   C27 4141   5.845   2.273   8.435  0.0458  0.1038 -0.3818
   56CHL1  H27A 4142   5.935   2.335   8.454 -0.3764  0.3727  0.8528
   56CHL1  H27B 4143   5.754   2.328   8.404 -1.1522 -0.5315  1.7639
   56CHL1  H27C 4144   5.839   2.236   8.540  2.5231  0.8012  0.0707
   57SAPC     N 4145   1.065   5.824  10.784  0.3286 -1.0902 -0.1943
   57SAPC   C12 4146   1.107   5.739  10.901  0.3477 -0.5170 -0.1618
   57SAPC  H12A 4147   1.167   5.791  10.974  0.3652 -0.5854 -0.1273
   57SAPC  H12B 4148   1.172   5.661  10.865 -0.0653 -0.6036 -0.7337
   57SAPC   C13 4149   1.175   5.876  10.708 -0.2750 -0.3023  0.3838
   57SAPC  H13A 4150   1.249   5.921  10.773  0.6609  0.7472 -1.3570
   57SAPC  H13B 4151   1.227   5.793  10.663  1.2213  0.9989 -0.3771
   57SAPC  H13C 4152   1.149   5.948  10.632  1.0932  0.1058  0.2733
   57SAPC   C14 4153   0.967   5.752  10.706 -0.1873  0.5563  0.8377
   57SAPC  H14A 4154   1.002   5.654  10.676 -1.9225  0.3139 -0.5699
   57SAPC  H14B 4155   0.874   5.735  10.758 -0.5309  0.8654  0.3246
   57SAPC  H14C 4156   0.959   5.812  10.617  0.7473  0.2417  0.5284
   57SAPC   C15 4157   0.993   5.949  10.826  0.4377 -0.5094 -0.7017
   57SAPC  H15A 4158   0.961   6.018  10.748 -0.7343 -0.1328  0.0891
   57SAPC  H15B 4159   0.908   5.919  10.886 -0.4023 -2.8855 -2.8792
   57SAPC  H15C 4160   1.056   6.011  10.889  2.3396 -3.3107  0.3250
   57SAPC   C11 4161   0.990   5.660  10.970 -0.0504 -0.2532 -0.0098
   57SAPC  H11A 4162   0.897   5.717  10.990 -1.4211 -1.9881 -1.1449
   57SAPC  H11B 4163   1.014   5.629  11.074 -3.2152 -1.1148  0.5598
   57SAPC     P 4164   1.055   5.416  10.885  0.4232 -0.0715  0.1994
   57SAPC   O13 4165   1.180   5.460  10.818  0.6008 -0.6051  0.1944
   57SAPC   O14 4166   1.065   5.345  11.011 -0.3204  0.1832  0.4282
   57SAPC   O12 4167   0.957   5.537  10.902  0.4326  0.5300  0.0742
   57SAPC   O11 4168   0.980   5.317  10.793  0.1754  0.5206  0.1324
   57SAPC    C1 4169   0.889   5.350  10.687 -0.1615  0.2310 -0.4440
   57SAPC    HA 4170   0.814   5.268  10.686 -0.4199  0.4674 -1.0358
   57SAPC    HB 4171   0.832   5.444  10.707 -1.3418 -0.8197  1.3054
   57SAPC    C2 4172   0.957   5.353  10.549  0.3600 -0.5633  1.2560
   57SAPC    HS 4173   1.014   5.258  10.539 -1.3219 -1.3961 -1.5074
   57SAPC   O21 4174   1.035   5.477  10.547 -0.2047 -0.1850  0.2516
   57SAPC   C21 4175   1.154   5.463  10.487 -0.3482  0.4271 -0.5596
   57SAPC   O22 4176   1.199   5.362  10.434  0.1030  0.0471 -0.5961
   57SAPC   C22 4177   1.239   5.583  10.509  0.0412 -0.5799  0.0128
   57SAPC   H2R 4178   1.179   5.677  10.502  1.3653  0.4988  1.9463
   57SAPC   H2S 4179   1.278   5.570  10.612  3.3495  0.0230 -1.0376
   57SAPC    C3 4180   0.852   5.354  10.432 -0.3707 -0.0572 -0.1979
   57SAPC    HX 4181   0.798   5.450  10.430  0.3586  0.4520  1.9045
   57SAPC    HY 4182   0.777   5.278  10.463  2.0943 -2.1952  0.9466
   57SAPC   O31 4183   0.915   5.324  10.306 -0.2612  0.4217 -0.3928
   57SAPC   C31 4184   0.943   5.192  10.292  0.0478  0.1066  0.0717
   57SAPC   O32 4185   0.905   5.101  10.361  0.3583  0.1410 -0.6546
   57SAPC   C32 4186   1.042   5.184  10.173  0.0595  0.7639  0.3860
   57SAPC   H2X 4187   1.100   5.090  10.188  1.3195  1.3014 -0.8854
   57SAPC   H2Y 4188   1.111   5.271  10.165  0.4604  0.4118 -0.1073
   57SAPC   C23 4189   1.348   5.614  10.406 -0.4348 -0.0289 -0.2526
   57SAPC   H3R 4190   1.414   5.524  10.408 -0.7884 -0.2948 -0.3400
   57SAPC   H3S 4191   1.419   5.692  10.439  0.6195 -1.0859  0.0550
   57SAPC   C24 4192   1.294   5.649  10.270  0.2993 -0.0811 -0.6027
   57SAPC   H4R 4193   1.222   5.573  10.233  1.0631 -0.8509 -0.5672
   57SAPC   H4S 4194   1.378   5.646  10.197  0.3625  1.1566 -0.5997
   57SAPC   C25 4195   1.223   5.783  10.263 -0.4668 -0.1398  0.5870
   57SAPC   H5R 4196   1.140   5.796  10.333 -1.6903 -1.3542 -0.5660
   57SAPC   C26 4197   1.260   5.880  10.180 -0.5757  0.1142  1.3051
   57SAPC   H6R 4198   1.203   5.973  10.171  0.2362  0.5711  0.7867
   57SAPC   C27 4199   1.383   5.869  10.092  0.1297 -0.1552 -0.0346
   57SAPC   H7R 4200   1.363   5.786  10.021 -1.6739  0.4290 -0.2780
   57SAPC   H7S 4201   1.478   5.851  10.146  1.0526  2.7349 -0.4799
   57SAPC   C28 4202   1.402   6.012  10.032  0.3228 -0.1824 -0.6154
   57SAPC   H8R 4203   1.469   6.080  10.087  0.7997 -1.4705  0.4409
   57SAPC   C29 4204   1.367   6.053   9.911  0.0269  0.4280 -0.3593
   57SAPC   H9R 4205   1.369   6.160   9.884  2.6857 -0.2981 -3.6692
   57SAPC  C210 4206   1.283   5.965   9.814 -0.6346  0.3400  0.0100
   57SAPC  H10R 4207   1.181   6.007   9.817 -0.7990 -0.0772  0.6333
   57SAPC  H10S 4208   1.278   5.857   9.842  2.0195 -0.3166 -1.6248
   57SAPC  C211 4209   1.326   5.977   9.670  0.3822 -0.1793 -0.4966
   57SAPC  H11R 4210   1.431   5.950   9.650  0.7733  2.1302 -2.0236
   57SAPC  C212 4211   1.259   6.015   9.560  0.1144 -1.0682 -0.0184
   57SAPC  H12R 4212   1.315   6.027   9.466  0.6612 -1.3449  0.2677
   57SAPC  C213 4213   1.113   6.057   9.537 -0.1676  0.1463  0.1051
   57SAPC  H13R 4214   1.121   6.167   9.526 -2.0081  0.5244  1.9792
   57SAPC  H13S 4215   1.043   6.046   9.623  0.7441 -0.0782  0.8401
   57SAPC  C214 4216   1.054   5.997   9.418  0.0672  0.3719 -0.5389
   57SAPC  H14R 4217   1.109   5.905   9.396  1.2769  0.4646  1.8223
   57SAPC  C215 4218   0.960   6.044   9.333 -0.3159  0.3639 -0.4477
   57SAPC  H15R 4219   0.932   5.978   9.250  1.3599 -2.0448  0.7902
   57SAPC  C216 4220   0.882   6.172   9.337  0.7890  0.4309 -0.3762
   57SAPC  H16R 4221   0.904   6.232   9.428  0.0281  2.5378 -1.5089
   57SAPC  H16S 4222   0.776   6.149   9.362  1.3324  0.3233  2.1679
   57SAPC  C217 4223   0.888   6.247   9.209  0.4536 -0.4166  0.4093
   57SAPC  H17R 4224   0.859   6.185   9.122  2.2609 -1.8290  0.7485
   57SAPC  H17S 4225   0.988   6.286   9.180  0.0019  0.3922 -0.0934
   57SAPC  C218 4226   0.798   6.370   9.210 -0.0935 -0.1238 -0.0957
   57SAPC  H18R 4227   0.842   6.448   9.143 -0.4188  0.1747  0.0330
   57SAPC  H18S 4228   0.802   6.415   9.311 -3.6641  2.6324 -0.9583
   57SAPC  C219 4229   0.655   6.335   9.171  0.0977  0.1733 -0.8769
   57SAPC  H19R 4230   0.610   6.276   9.254  0.3483 -1.5443 -1.9173
   57SAPC  H19S 4231   0.645   6.274   9.079 -1.2684  0.2929 -0.8402
   57SAPC  C220 4232   0.566   6.453   9.173  0.8164 -0.5843  0.0759
   57SAPC  H20R 4233   0.476   6.449   9.108  0.7817  0.4975  0.0423
   57SAPC  H20S 4234   0.623   6.538   9.131  1.1756 -2.1160 -2.8064
   57SAPC  H20T 4235   0.530   6.471   9.277  0.9642  1.0051 -0.1322
   57SAPC   C33 4236   0.957   5.175  10.043  0.4112  0.6525 -0.3642
   57SAPC   H3X 4237   0.879   5.254  10.042 -0.5544 -0.1736  2.2740
   57SAPC   H3Y 4238   0.902   5.079  10.052 -1.2648  1.6364  0.2960
   57SAPC   C34 4239   1.038   5.188   9.916  0.1380  0.7464 -0.4349
   57SAPC   H4X 4240   1.125   5.119   9.914 -0.9379 -0.7612  1.3586
   57SAPC   H4Y 4241   1.070   5.293   9.898  0.1302  0.7569 -0.3855
   57SAPC   C35 4242   0.947   5.155   9.799  0.7348  0.2797 -0.3322
   57SAPC   H5X 4243   0.861   5.225   9.793  1.0509  1.1513  2.9985
   57SAPC   H5Y 4244   0.902   5.056   9.823  0.0053  0.2769 -1.6179
   57SAPC   C36 4245   1.020   5.158   9.670 -0.6613  0.0522 -0.5420
   57SAPC   H6X 4246   1.106   5.091   9.689  0.1128  1.2981  0.5044
   57SAPC   H6Y 4247   1.051   5.261   9.643 -2.5636  0.8308  0.0673
   57SAPC   C37 4248   0.932   5.115   9.557  0.0802  0.2071 -0.2868
   57SAPC   H7X 4249   0.845   5.184   9.555 -1.0829 -1.2289 -1.0891
   57SAPC   H7Y 4250   0.880   5.018   9.571  1.3698 -0.6775 -1.3345
   57SAPC   C38 4251   1.003   5.102   9.419 -0.7523  0.4393 -0.3292
   57SAPC   H8X 4252   0.936   5.054   9.345 -0.7474 -2.1620  1.2091
   57SAPC   H8Y 4253   1.084   5.028   9.438 -1.7062 -0.1220  1.8662
   57SAPC   C39 4254   1.066   5.224   9.360  0.1700  0.1792  0.0886
   57SAPC   H9X 4255   1.114   5.287   9.437  0.1038 -3.2940  3.2899
   57SAPC   H9Y 4256   0.975   5.286   9.343 -0.2946 -0.3724  0.4926
   57SAPC  C310 4257   1.152   5.200   9.235 -0.1508 -0.2531 -0.3417
   57SAPC  H10X 4258   1.100   5.138   9.159  1.0288 -1.8953  0.1386
   57SAPC  H10Y 4259   1.249   5.153   9.263  1.4123  2.8057 -0.1648
   57SAPC  C311 4260   1.211   5.321   9.156  0.6459  0.0595 -0.2318
   57SAPC  H11X 4261   1.272   5.289   9.069  0.9901  0.7163 -0.2365
   57SAPC  H11Y 4262   1.266   5.380   9.232 -0.8701 -1.2578  1.9925
   57SAPC  C312 4263   1.108   5.409   9.089  0.3555 -0.4929  0.2071
   57SAPC  H12X 4264   1.058   5.472   9.166 -1.8485 -0.4097 -1.1999
   57SAPC  H12Y 4265   1.037   5.347   9.028  0.1354  1.4268 -1.6141
   57SAPC  C313 4266   1.162   5.519   8.992 -0.2464  0.1296  0.2678
   57SAPC  H13X 4267   1.230   5.584   9.051  3.4656 -1.5298 -1.8565
   57SAPC  H13Y 4268   1.077   5.582   8.958  0.3071  1.0806  0.5908
   57SAPC  C314 4269   1.223   5.462   8.863  0.3980 -0.1491 -0.1316
   57SAPC  H14X 4270   1.306   5.392   8.888 -0.2206  0.3613  4.2422
   57SAPC  H14Y 4271   1.257   5.536   8.787 -0.5452  0.3733 -0.0620
   57SAPC  C315 4272   1.128   5.388   8.771 -0.0828  0.9755  0.2395
   57SAPC  H15X 4273   1.044   5.456   8.746 -0.1136  1.0951  0.6687
   57SAPC  H15Y 4274   1.090   5.295   8.819 -0.2011  0.0277 -1.6012
   57SAPC  C316 4275   1.191   5.353   8.632  0.3417 -0.2144  0.0540
   57SAPC  H16X 4276   1.255   5.432   8.585  1.4912 -0.2583  1.4894
   57SAPC  H16Y 4277   1.105   5.337   8.564 -0.4030  2.6202  0.1847
   57SAPC  C317 4278   1.268   5.226   8.615  0.5933  0.8543  0.0287
   57SAPC  H17X 4279   1.295   5.213   8.508  0.9787 -0.1271  0.2326
   57SAPC  H17Y 4280   1.202   5.141   8.644 -0.6334  2.5644  2.6335
   57SAPC  C318 4281   1.395   5.213   8.706 -0.1689 -0.9669  0.2215
   57SAPC  H18X 4282   1.370   5.226   8.814  2.1392  1.0143  0.5970
   57SAPC  H18Y 4283   1.456   5.298   8.669 -3.2442  0.8208 -1.1749
   57SAPC  H18Z 4284   1.447   5.117   8.686 -1.5873 -1.1835 -3.1462
   58SAPC     N 4285   4.889   3.270  11.138 -0.3430 -0.4690  0.8277
   58SAPC   C12 4286   5.007   3.363  11.140 -0.2468 -0.4884  0.1895
   58SAPC  H12A 4287   5.091   3.310  11.098  0.4651 -0.8685  2.0085
   58SAPC  H12B 4288   5.021   3.385  11.245 -0.0606 -0.0450  0.0710
   58SAPC   C13 4289   4.912   3.159  11.237 -0.2731  0.2268  0.5455
   58SAPC  H13A 4290   5.008   3.114  11.218 -0.0230  0.8266  0.3569
   58SAPC  H13B 4291   4.933   3.209  11.331  0.9381  0.1831  0.3129
   58SAPC  H13C 4292   4.834   3.084  11.236 -0.6584  0.6110  1.1958
   58SAPC   C14 4293   4.771   3.348  11.180  0.1288 -0.1887 -0.4659
   58SAPC  H14A 4294   4.752   3.429  11.111  0.3991 -1.7076 -2.4355
   58SAPC  H14B 4295   4.689   3.278  11.169  0.1228 -0.4356  0.9764
   58SAPC  H14C 4296   4.777   3.376  11.284  2.7404 -0.8204 -0.3666
   58SAPC   C15 4297   4.864   3.216  10.994 -0.7531  0.7093 -0.0478
   58SAPC  H15A 4298   4.868   3.293  10.918 -1.2018  2.0439  1.2388
   58SAPC  H15B 4299   4.944   3.147  10.971  1.2972  3.1672 -0.6605
   58SAPC  H15C 4300   4.770   3.162  11.001 -0.1386 -0.2981  0.6734
   58SAPC   C11 4301   4.989   3.497  11.063 -0.0211 -0.7540 -0.2716
   58SAPC  H11A 4302   5.080   3.550  11.099 -1.2984  1.5391 -0.2413
   58SAPC  H11B 4303   4.905   3.557  11.104 -0.6533 -1.2833 -0.7538
   58SAPC     P 4304   4.900   3.564  10.831  0.3150 -0.5237  0.0230
   58SAPC   O13 4305   4.771   3.578  10.901  0.2721 -0.5848 -0.7782
   58SAPC   O14 4306   4.969   3.693  10.802  0.1927  0.4836  0.3534
   58SAPC   O12 4307   4.996   3.471  10.922 -0.3623  0.0321  0.0726
   58SAPC   O11 4308   4.875   3.491  10.698 -0.0323 -0.4713  0.3038
   58SAPC    C1 4309   4.995   3.455  10.619 -0.3841  0.5523 -0.6217
   58SAPC    HA 4310   5.088   3.451  10.679  0.5037  1.3745 -1.8870
   58SAPC    HB 4311   4.980   3.358  10.567  1.2789  0.7447 -1.5026
   58SAPC    C2 4312   5.029   3.558  10.511  0.8490  0.2172 -1.2050
   58SAPC    HS 4313   5.047   3.657  10.559  1.7576 -0.2165 -0.6198
   58SAPC   O21 4314   4.919   3.561  10.420 -0.4504  0.0988 -0.3156
   58SAPC   C21 4315   4.870   3.678  10.371  0.0927 -0.0786  0.2971
   58SAPC   O22 4316   4.895   3.788  10.413  0.1922 -0.2061  0.3367
   58SAPC   C22 4317   4.783   3.644  10.251  0.2561  0.5720 -0.4475
   58SAPC   H2R 4318   4.845   3.612  10.165 -1.7985  0.1359 -1.8605
   58SAPC   H2S 4319   4.711   3.563  10.278 -0.3776  2.2133  3.5342
   58SAPC    C3 4320   5.155   3.530  10.423 -0.1129  0.4583 -0.1512
   58SAPC    HX 4321   5.127   3.437  10.368  0.4238 -0.7837  1.5560
   58SAPC    HY 4322   5.240   3.484  10.478 -1.0581 -1.3509 -0.1014
   58SAPC   O31 4323   5.183   3.647  10.335 -0.6104 -0.0307 -0.2426
   58SAPC   C31 4324   5.270   3.734  10.380 -0.6898 -0.0273 -0.4179
   58SAPC   O32 4325   5.314   3.735  10.496  0.2053  0.0901  0.2419
   58SAPC   C32 4326   5.315   3.833  10.275  0.3932  0.1781 -0.4804
   58SAPC   H2X 4327   5.378   3.907  10.329  1.3375 -2.2986  2.0825
   58SAPC   H2Y 4328   5.232   3.875  10.214  0.6456  0.6921 -0.4793
   58SAPC   C23 4329   4.709   3.771  10.192  0.1162 -0.1395  0.5157
   58SAPC   H3R 4330   4.785   3.834  10.141 -2.2033 -0.2748 -3.5790
   58SAPC   H3S 4331   4.661   3.831  10.272 -3.2425 -0.1556 -1.2847
   58SAPC   C24 4332   4.602   3.739  10.083 -0.4314  0.5294 -0.0031
   58SAPC   H4R 4333   4.557   3.833  10.045  2.2377  0.9608 -2.3409
   58SAPC   H4S 4334   4.523   3.682  10.137  1.8030 -1.8843  0.9008
   58SAPC   C25 4335   4.644   3.654   9.970 -0.4921  0.5455 -0.7086
   58SAPC   H5R 4336   4.710   3.572  10.003 -1.9642  0.0826  1.2409
   58SAPC   C26 4337   4.610   3.670   9.841  0.0704  0.7494  0.5231
   58SAPC   H6R 4338   4.650   3.605   9.762 -0.0035  0.3185  0.8399
   58SAPC   C27 4339   4.517   3.778   9.784  0.0697 -0.3205 -0.5041
   58SAPC   H7R 4340   4.572   3.875   9.779 -1.3916  0.6243  0.6576
   58SAPC   H7S 4341   4.437   3.798   9.859 -2.0605  2.0405 -3.1825
   58SAPC   C28 4342   4.463   3.760   9.645  0.4560 -0.4511 -0.5985
   58SAPC   H8R 4343   4.359   3.726   9.635  0.5855 -0.4786 -2.1615
   58SAPC   C29 4344   4.527   3.802   9.538 -0.6788  0.4860 -0.5085
   58SAPC   H9R 4345   4.469   3.791   9.445 -0.3273  0.3366 -0.7113
   58SAPC  C210 4346   4.662   3.873   9.518  0.4533 -0.4319 -0.3779
   58SAPC  H10R 4347   4.732   3.799   9.473  0.1157 -0.9812 -0.0258
   58SAPC  H10S 4348   4.700   3.910   9.616  0.2840 -0.0537 -0.4550
   58SAPC  C211 4349   4.648   3.975   9.408  0.4528  0.3719 -0.3057
   58SAPC  H11R 4350   4.555   4.034   9.411  0.4795  0.3911  0.3112
   58SAPC  C212 4351   4.747   4.001   9.316  0.0272  0.1992  0.4793
   58SAPC  H12R 4352   4.726   4.072   9.234 -1.8653 -0.5874  0.2368
   58SAPC  C213 4353   4.879   3.936   9.313 -0.2209  0.9384 -0.2149
   58SAPC  H13R 4354   4.932   3.952   9.217 -0.3011 -0.4627 -0.5047
   58SAPC  H13S 4355   4.859   3.828   9.326 -2.9074  1.6233  2.4105
   58SAPC  C214 4356   4.989   3.978   9.415  0.3034 -0.2623  0.4653
   58SAPC  H14R 4357   4.991   4.088   9.420  0.7922 -0.2079 -0.7791
   58SAPC  C215 4358   5.061   3.899   9.501  0.8366  0.5404  0.1354
   58SAPC  H15R 4359   5.136   3.942   9.570  0.5225 -0.2349  0.9813
   58SAPC  C216 4360   5.055   3.749   9.499  0.5234  0.1479 -0.0014
   58SAPC  H16R 4361   5.160   3.716   9.487  1.3384  0.6093  4.4105
   58SAPC  H16S 4362   5.010   3.720   9.402  0.7462 -0.5191  0.0919
   58SAPC  C217 4363   4.992   3.675   9.612 -0.0857 -0.2155  0.7775
   58SAPC  H17R 4364   4.982   3.566   9.593 -0.5084 -0.1763  0.7585
   58SAPC  H17S 4365   4.893   3.725   9.623 -0.2901 -0.5248  0.3838
   58SAPC  C218 4366   5.070   3.694   9.749 -0.0323  0.4678  0.2472
   58SAPC  H18R 4367   5.050   3.795   9.790 -1.0654 -0.2104  1.4881
   58SAPC  H18S 4368   5.179   3.681   9.734 -0.1630 -0.9560  0.4307
   58SAPC  C219 4369   5.044   3.584   9.866  0.6480 -0.5467  0.0689
   58SAPC  H19R 4370   5.066   3.486   9.819  3.6172 -0.4234  1.0167
   58SAPC  H19S 4371   4.938   3.580   9.901  0.0560 -0.5479 -1.6209
   58SAPC  C220 4372   5.138   3.613   9.987 -0.0626 -0.8288 -0.5238
   58SAPC  H20R 4373   5.113   3.560  10.082 -2.3269 -0.1806 -0.7070
   58SAPC  H20S 4374   5.140   3.722  10.010 -1.2775 -0.6156 -1.3802
   58SAPC  H20T 4375   5.238   3.579   9.952 -0.5454 -2.6108 -0.2344
   58SAPC   C33 4376   5.408   3.757  10.170  0.0372  1.3927 -0.2804
   58SAPC   H3X 4377   5.350   3.672  10.129  0.6007  0.4738  0.7905
   58SAPC   H3Y 4378   5.487   3.713  10.234  0.1773  0.6174 -0.9693
   58SAPC   C34 4379   5.461   3.858  10.062 -0.5022 -0.3346  0.0177
   58SAPC   H4X 4380   5.522   3.936  10.113  0.3439 -0.5679 -0.6030
   58SAPC   H4Y 4381   5.371   3.917  10.037  0.4721  1.3621  0.3597
   58SAPC   C35 4382   5.524   3.788   9.942  0.2069 -0.4757  0.8203
   58SAPC   H5X 4383   5.461   3.696   9.936 -0.6924 -0.0300  2.7861
   58SAPC   H5Y 4384   5.625   3.751   9.967  0.1665  0.8402  3.2332
   58SAPC   C36 4385   5.507   3.848   9.800  0.0816 -0.0447 -0.6907
   58SAPC   H6X 4386   5.575   3.933   9.776 -0.5103  0.6571  0.0273
   58SAPC   H6Y 4387   5.411   3.905   9.801 -0.0077 -0.1592 -1.7568
   58SAPC   C37 4388   5.487   3.753   9.687 -0.8117  0.1017  0.2144
   58SAPC   H7X 4389   5.383   3.714   9.694 -0.5630 -0.3029  2.1899
   58SAPC   H7Y 4390   5.559   3.670   9.697  1.2997  1.9752  1.4801
   58SAPC   C38 4391   5.505   3.825   9.553  0.3475  0.3090  0.2092
   58SAPC   H8X 4392   5.604   3.873   9.533  1.1322 -1.3241  0.0300
   58SAPC   H8Y 4393   5.438   3.913   9.541  0.0336 -0.0262 -0.5374
   58SAPC   C39 4394   5.484   3.741   9.427  0.4492 -0.0026 -0.5813
   58SAPC   H9X 4395   5.386   3.692   9.444 -0.0466  0.9098 -0.7368
   58SAPC   H9Y 4396   5.568   3.668   9.420  1.4448  0.8298  1.7095
   58SAPC  C310 4397   5.490   3.822   9.295 -0.5239  0.0029 -0.3555
   58SAPC  H10X 4398   5.511   3.761   9.205 -0.9319 -0.1501 -0.3458
   58SAPC  H10Y 4399   5.565   3.904   9.292 -0.9050  0.3715  0.0897
   58SAPC  C311 4400   5.360   3.901   9.275 -0.4896  0.1445  0.1783
   58SAPC  H11X 4401   5.353   3.967   9.364  2.2916  0.1352  0.5114
   58SAPC  H11Y 4402   5.276   3.829   9.268 -0.6538  0.4629 -1.6567
   58SAPC  C312 4403   5.348   3.988   9.147 -0.3027  0.5771  0.7954
   58SAPC  H12X 4404   5.332   3.915   9.064 -0.7422  0.5367  0.9130
   58SAPC  H12Y 4405   5.435   4.049   9.114  0.7310 -0.9502  0.5651
   58SAPC  C313 4406   5.219   4.072   9.135  0.5144 -0.2222  0.8504
   58SAPC  H13X 4407   5.192   4.142   9.217 -1.6252 -0.0019  0.0500
   58SAPC  H13Y 4408   5.138   3.996   9.136  0.2054  0.0849  0.3219
   58SAPC  C314 4409   5.213   4.156   9.005  0.3793  0.3249 -0.5112
   58SAPC  H14X 4410   5.257   4.099   8.920 -0.2747  0.2878 -0.8309
   58SAPC  H14Y 4411   5.287   4.237   9.022  0.5837 -0.0630  0.5120
   58SAPC  C315 4412   5.079   4.220   8.958 -0.1479  0.9100  0.1305
   58SAPC  H15X 4413   5.097   4.290   8.874 -1.4733 -0.4290 -1.3185
   58SAPC  H15Y 4414   5.032   4.263   9.049 -0.0335 -0.6052  0.9518
   58SAPC  C316 4415   4.977   4.108   8.922  0.3327 -0.1926  0.3243
   58SAPC  H16X 4416   4.963   4.045   9.012 -0.0408 -1.1853 -0.4025
   58SAPC  H16Y 4417   5.019   4.057   8.832 -1.1642 -1.2246  0.1810
   58SAPC  C317 4418   4.841   4.170   8.899 -0.2208 -0.2045  0.1401
   58SAPC  H17X 4419   4.861   4.251   8.825  2.4909  0.6145  1.6337
   58SAPC  H17Y 4420   4.801   4.214   8.992  0.8502  1.6709 -0.2280
   58SAPC  C318 4421   4.739   4.066   8.849 -0.4871 -0.2536  0.3472
   58SAPC  H18X 4422   4.763   4.032   8.746 -1.3646 -0.5460  0.2331
   58SAPC  H18Y 4423   4.637   4.108   8.837 -0.3702 -0.3137 -1.0113
   58SAPC  H18Z 4424   4.726   3.974   8.910 -1.7878 -1.4166 -1.5966
   59SAPC     N 4425   5.410   4.054  10.997  0.2638  0.6829 -0.3917
   59SAPC   C12 4426   5.485   3.923  10.989  0.0153  0.2145  0.3105
   59SAPC  H12A 4427   5.449   3.870  10.902  1.4705 -3.6632  1.8398
   59SAPC  H12B 4428   5.460   3.865  11.076 -0.8121 -0.6679 -0.5032
   59SAPC   C13 4429   5.264   4.024  11.025 -0.3582 -0.0065 -0.1277
   59SAPC  H13A 4430   5.254   4.000  11.129  0.3740  2.3289  0.5339
   59SAPC  H13B 4431   5.199   4.103  10.990  1.0166  1.0595 -0.3475
   59SAPC  H13C 4432   5.228   3.934  10.975 -1.1866 -0.8161  1.8401
   59SAPC   C14 4433   5.463   4.140  11.102 -0.4855  0.2255  0.4101
   59SAPC  H14A 4434   5.438   4.109  11.202 -0.0214  2.8236  1.3987
   59SAPC  H14B 4435   5.570   4.124  11.096 -0.4670  0.7417 -1.0874
   59SAPC  H14C 4436   5.432   4.244  11.095 -1.3696 -0.0709 -0.3263
   59SAPC   C15 4437   5.427   4.132  10.866 -0.1010 -0.5532  0.3226
   59SAPC  H15A 4438   5.526   4.175  10.863 -0.1000  0.0488  4.1649
   59SAPC  H15B 4439   5.403   4.082  10.774  0.5905 -0.8171  0.2825
   59SAPC  H15C 4440   5.361   4.217  10.875 -1.4471 -1.3660 -1.3205
   59SAPC   C11 4441   5.639   3.925  10.981  0.3109  0.9120 -0.1131
   59SAPC  H11A 4442   5.674   3.975  10.888  0.8473 -0.9776 -0.9615
   59SAPC  H11B 4443   5.675   3.821  10.969 -0.0380  0.4065  2.5764
   59SAPC     P 4444   5.852   4.000  11.101 -0.4334 -0.2925  0.3303
   59SAPC   O13 4445   5.876   4.093  11.213 -0.0659 -0.1546 -0.5339
   59SAPC   O14 4446   5.912   3.864  11.106 -0.2441  0.8684  0.3347
   59SAPC   O12 4447   5.697   3.970  11.100 -0.2370  0.1843 -0.2888
   59SAPC   O11 4448   5.882   4.084  10.976  0.8387 -0.2746  0.2094
   59SAPC    C1 4449   6.006   4.074  10.908  0.2531  0.6593  0.3881
   59SAPC    HA 4450   6.088   4.027  10.967  0.0232 -0.2799 -0.0066
   59SAPC    HB 4451   5.990   4.025  10.809  1.0226  2.2322 -0.5462
   59SAPC    C2 4452   6.070   4.205  10.861 -0.5807  0.4721  0.1391
   59SAPC    HS 4453   6.072   4.263  10.956 -0.3804 -2.3913  2.0187
   59SAPC   O21 4454   5.984   4.266  10.759 -0.0188  1.0656  0.3302
   59SAPC   C21 4455   6.023   4.397  10.745  0.3103 -0.1909 -0.0841
   59SAPC   O22 4456   6.105   4.453  10.816  0.1918 -0.3561  0.0511
   59SAPC   C22 4457   5.955   4.458  10.620  0.0464 -0.1104 -0.3973
   59SAPC   H2R 4458   5.895   4.382  10.567  1.6280 -0.8096 -1.2440
   59SAPC   H2S 4459   5.877   4.532  10.650 -1.2556 -1.3524 -0.6066
   59SAPC    C3 4460   6.222   4.177  10.811 -0.2291 -0.3818  0.3170
   59SAPC    HX 4461   6.279   4.150  10.902  1.1698  2.1299  0.2719
   59SAPC    HY 4462   6.253   4.277  10.774 -0.4356 -0.3462  0.2368
   59SAPC   O31 4463   6.218   4.086  10.703 -0.2979 -0.5494  0.4390
   59SAPC   C31 4464   6.318   3.997  10.686  0.3543 -0.5529  0.0497
   59SAPC   O32 4465   6.423   3.999  10.745 -0.6087  0.5057 -0.4765
   59SAPC   C32 4466   6.283   3.902  10.561 -0.6137 -1.2283  0.3469
   59SAPC   H2X 4467   6.175   3.876  10.573 -0.5679 -0.7946  1.9375
   59SAPC   H2Y 4468   6.344   3.809  10.557  1.6263  0.1710  0.0981
   59SAPC   C23 4469   6.057   4.524  10.528 -0.6539  0.6533  0.0208
   59SAPC   H3R 4470   6.105   4.597  10.596  1.7009 -1.4154  0.7184
   59SAPC   H3S 4471   6.012   4.577  10.442  1.6097  0.7737 -1.1599
   59SAPC   C24 4472   6.180   4.431  10.484 -0.0931  0.3793  0.1027
   59SAPC   H4R 4473   6.134   4.341  10.439  1.1704 -0.7277  0.9572
   59SAPC   H4S 4474   6.222   4.396  10.581  0.1860  0.4167 -0.0033
   59SAPC   C25 4475   6.278   4.497  10.389  0.1699  0.5030  0.1512
   59SAPC   H5R 4476   6.317   4.594  10.425  1.7007 -0.6084  1.6236
   59SAPC   C26 4477   6.307   4.459  10.263 -0.0930  0.2960 -0.1388
   59SAPC   H6R 4478   6.376   4.521  10.203  0.3456  0.7295  0.7922
   59SAPC   C27 4479   6.251   4.345  10.179 -0.3373 -0.3976 -0.4402
   59SAPC   H7R 4480   6.202   4.274  10.250 -0.3860 -0.2790 -0.3546
   59SAPC   H7S 4481   6.332   4.287  10.131 -1.3738 -1.1017 -1.3666
   59SAPC   C28 4482   6.159   4.405  10.076  0.5427  0.6370 -0.3787
   59SAPC   H8R 4483   6.076   4.467  10.112 -0.9387  0.2306 -2.8601
   59SAPC   C29 4484   6.175   4.397   9.941  0.6305  0.5829 -0.1763
   59SAPC   H9R 4485   6.098   4.438   9.874  1.6161  0.7448 -1.2232
   59SAPC  C210 4486   6.286   4.324   9.869 -0.1993 -0.9636  0.1429
   59SAPC  H10R 4487   6.347   4.250   9.924  0.2322 -1.4279 -0.9241
   59SAPC  H10S 4488   6.358   4.402   9.837  0.6043 -1.9299 -0.4707
   59SAPC  C211 4489   6.230   4.249   9.757  0.2212  0.0917 -0.1567
   59SAPC  H11R 4490   6.201   4.145   9.779 -0.1446  0.4177  0.9745
   59SAPC  C212 4491   6.208   4.293   9.629 -1.2591  0.3641 -0.7036
   59SAPC  H12R 4492   6.159   4.224   9.558 -3.2998  1.3001 -0.2745
   59SAPC  C213 4493   6.234   4.431   9.573 -0.2344  0.8146  0.4914
   59SAPC  H13R 4494   6.304   4.496   9.630  0.1293  2.9168 -2.1498
   59SAPC  H13S 4495   6.143   4.493   9.557  0.3380  1.4962 -0.2925
   59SAPC  C214 4496   6.303   4.414   9.443 -0.0583 -0.9002  0.2378
   59SAPC  H14R 4497   6.407   4.381   9.457 -1.4386 -4.8764  2.6601
   59SAPC  C215 4498   6.262   4.447   9.320  0.5657 -0.8393  0.0061
   59SAPC  H15R 4499   6.332   4.424   9.237  0.2126 -0.2390 -0.4714
   59SAPC  C216 4500   6.129   4.506   9.281 -0.3715  0.4772  0.1449
   59SAPC  H16R 4501   6.135   4.608   9.326 -0.1261 -0.2759  1.9164
   59SAPC  H16S 4502   6.046   4.449   9.328  0.3101 -0.1672  0.5911
   59SAPC  C217 4503   6.102   4.519   9.134  0.2522 -0.3773  0.2181
   59SAPC  H17R 4504   6.001   4.565   9.131 -0.8276 -2.0522  4.1841
   59SAPC  H17S 4505   6.096   4.420   9.085  0.5156  0.5366 -1.7601
   59SAPC  C218 4506   6.204   4.609   9.062  0.0022 -0.2364  0.4445
   59SAPC  H18R 4507   6.293   4.547   9.041 -1.2774 -0.9262 -4.0009
   59SAPC  H18S 4508   6.242   4.692   9.126  2.4090 -0.1024 -0.9986
   59SAPC  C219 4509   6.152   4.670   8.929 -0.0272 -0.6529  0.5005
   59SAPC  H19R 4510   6.063   4.734   8.948  0.7083  0.9960 -1.2715
   59SAPC  H19S 4511   6.132   4.579   8.869  3.4751 -0.3170 -1.4252
   59SAPC  C220 4512   6.255   4.755   8.845  0.1333 -1.0118  0.4525
   59SAPC  H20R 4513   6.197   4.815   8.771  1.6892  1.5221  1.1379
   59SAPC  H20S 4514   6.333   4.690   8.801  0.7084  0.9112 -1.5592
   59SAPC  H20T 4515   6.301   4.829   8.914  0.1155 -2.6041  2.2547
   59SAPC   C33 4516   6.304   3.973  10.417  0.0239  0.4913  0.1119
   59SAPC   H3X 4517   6.410   4.006  10.403 -0.4988  1.3435 -2.2430
   59SAPC   H3Y 4518   6.252   4.071  10.406 -1.4915 -0.1785  1.0417
   59SAPC   C34 4519   6.277   3.879  10.301  0.0645 -0.2442  0.5562
   59SAPC   H4X 4520   6.168   3.858  10.308 -0.5971  1.8765 -1.8389
   59SAPC   H4Y 4521   6.334   3.786  10.324  1.9428  0.6633 -0.2655
   59SAPC   C35 4522   6.321   3.944  10.170  0.3315 -0.6052  0.4332
   59SAPC   H5X 4523   6.425   3.980  10.187  0.6944 -0.2987 -2.0745
   59SAPC   H5Y 4524   6.254   4.032  10.162  1.0509  0.0125  0.9413
   59SAPC   C36 4525   6.317   3.859  10.044 -0.2706 -0.4003 -0.8728
   59SAPC   H6X 4526   6.222   3.803  10.059 -0.5845  0.3285 -0.0769
   59SAPC   H6Y 4527   6.395   3.780  10.043 -0.2541 -0.3920 -0.3900
   59SAPC   C37 4528   6.300   3.936   9.913 -0.1809 -0.5040 -0.2299
   59SAPC   H7X 4529   6.389   4.001   9.902 -0.1177 -0.5976 -0.2727
   59SAPC   H7Y 4530   6.205   3.992   9.926  0.5816  0.3168  2.3847
   59SAPC   C38 4531   6.296   3.838   9.800 -0.6483 -0.0853  0.2177
   59SAPC   H8X 4532   6.211   3.768   9.814 -1.2513  0.4524 -0.7117
   59SAPC   H8Y 4533   6.385   3.771   9.800 -2.2907 -2.4212 -1.2630
   59SAPC   C39 4534   6.290   3.907   9.665  0.0364  0.1638 -0.6475
   59SAPC   H9X 4535   6.384   3.963   9.650  1.0128 -1.5854 -1.4207
   59SAPC   H9Y 4536   6.199   3.970   9.660 -1.5511 -1.9417 -0.0429
   59SAPC  C310 4537   6.282   3.809   9.543  0.7368 -0.9970 -0.4122
   59SAPC  H10X 4538   6.197   3.737   9.549  0.6020 -0.7647  0.6750
   59SAPC  H10Y 4539   6.376   3.750   9.540 -0.2811 -2.6407 -1.6667
   59SAPC  C311 4540   6.265   3.892   9.416 -0.1112 -0.1034  0.1932
   59SAPC  H11X 4541   6.295   3.998   9.431 -1.5692  0.7703 -2.3128
   59SAPC  H11Y 4542   6.160   3.888   9.379  0.9532  1.4741 -3.4557
   59SAPC  C312 4543   6.335   3.820   9.300 -0.3837  0.4449 -0.1235
   59SAPC  H12X 4544   6.291   3.721   9.276 -0.0158  0.8963 -3.0251
   59SAPC  H12Y 4545   6.441   3.811   9.331 -0.8518  0.7504  1.6953
   59SAPC  C313 4546   6.316   3.896   9.164 -0.4837 -0.0499 -0.4140
   59SAPC  H13X 4547   6.334   4.003   9.185  1.1544 -0.9471  3.7744
   59SAPC  H13Y 4548   6.212   3.891   9.126 -1.8005  0.1789  2.8176
   59SAPC  C314 4549   6.408   3.847   9.056  0.3355 -0.0685  0.1416
   59SAPC  H14X 4550   6.513   3.867   9.087  0.9150 -0.5364 -1.4515
   59SAPC  H14Y 4551   6.377   3.907   8.968 -0.6372 -2.0077 -0.9010
   59SAPC  C315 4552   6.382   3.705   9.001  0.7091 -0.2545  0.8577
   59SAPC  H15X 4553   6.387   3.631   9.084 -1.8298  0.1399  1.4282
   59SAPC  H15Y 4554   6.468   3.685   8.933  2.1020  2.8130  1.5442
   59SAPC  C316 4555   6.241   3.690   8.933  0.5783  0.5968 -0.7814
   59SAPC  H16X 4556   6.211   3.772   8.864  0.1612  0.6836 -0.5028
   59SAPC  H16Y 4557   6.170   3.674   9.018 -0.6221 -0.3525 -1.9155
   59SAPC  C317 4558   6.235   3.569   8.834  0.4915  0.2165  0.7438
   59SAPC  H17X 4559   6.230   3.476   8.894 -0.2903 -1.3986 -1.6522
   59SAPC  H17Y 4560   6.329   3.565   8.775  0.2785  1.8346  0.2391
   59SAPC  C318 4561   6.102   3.567   8.763 -0.5904 -0.6767 -0.0646
   59SAPC  H18X 4562   6.100   3.471   8.706  1.2466 -0.8622  0.1278
   59SAPC  H18Y 4563   6.090   3.639   8.680 -0.5541 -1.1893 -0.5208
   59SAPC  H18Z 4564   6.009   3.579   8.822 -0.8486  1.1544 -0.7881
   60SAPC     N 4565   1.026   3.285  11.059 -0.0729 -0.0894 -0.2655
   60SAPC   C12 4566   1.126   3.400  11.029 -0.3376  0.4550 -0.5678
   60SAPC  H12A 4567   1.080   3.495  11.051  0.4860  0.4163  1.5617
   60SAPC  H12B 4568   1.152   3.403  10.924  1.1922 -0.7605 -0.2522
   60SAPC   C13 4569   0.985   3.292  11.208  0.3414  0.1477  1.0337
   60SAPC  H13A 4570   0.903   3.225  11.229 -1.5534  1.7647 -0.7400
   60SAPC  H13B 4571   1.070   3.272  11.271  0.7516  0.1328  0.4791
   60SAPC  H13C 4572   0.956   3.395  11.229  1.3929  0.7081 -0.1612
   60SAPC   C14 4573   0.901   3.307  10.979 -0.3049  0.5163 -0.6031
   60SAPC  H14A 4574   0.834   3.230  11.013  0.5672 -0.3385 -0.7596
   60SAPC  H14B 4575   0.858   3.404  10.997 -0.8429  0.3453 -0.9454
   60SAPC  H14C 4576   0.918   3.317  10.873 -3.0682  3.5805 -0.9068
   60SAPC   C15 4577   1.083   3.154  11.045  0.3893 -0.2155  0.3493
   60SAPC  H15A 4578   1.182   3.164  11.087 -0.2345 -3.7896  3.1863
   60SAPC  H15B 4579   1.037   3.066  11.087 -1.7507  0.7291  0.0886
   60SAPC  H15C 4580   1.097   3.130  10.941 -0.6619  0.5615  0.0176
   60SAPC   C11 4581   1.265   3.399  11.103 -1.1098 -0.6535  0.2816
   60SAPC  H11A 4582   1.245   3.402  11.212 -0.8648  0.5211  0.3083
   60SAPC  H11B 4583   1.330   3.486  11.079  1.9006 -2.9929 -0.7548
   60SAPC     P 4584   1.413   3.278  10.919 -0.0983  0.3091  0.1078
   60SAPC   O13 4585   1.505   3.386  10.876  0.3403 -0.0316  0.0216
   60SAPC   O14 4586   1.466   3.139  10.917 -0.3590  0.1508  0.0027
   60SAPC   O12 4587   1.351   3.291  11.065 -0.1952  0.5092  0.0741
   60SAPC   O11 4588   1.286   3.282  10.821  0.2255  0.5769 -0.0309
   60SAPC    C1 4589   1.289   3.385  10.725 -0.1794  0.3097 -0.1678
   60SAPC    HA 4590   1.303   3.486  10.770 -0.1506  0.4968 -0.5885
   60SAPC    HB 4591   1.362   3.362  10.645 -1.4509 -0.7774 -1.0379
   60SAPC    C2 4592   1.148   3.405  10.656 -0.3942  0.0346 -0.4008
   60SAPC    HS 4593   1.086   3.440  10.741  0.2202  1.6297 -0.5846
   60SAPC   O21 4594   1.115   3.276  10.605 -0.2559  0.6826  0.4115
   60SAPC   C21 4595   0.980   3.244  10.602 -0.3953 -0.6878 -0.0218
   60SAPC   O22 4596   0.893   3.321  10.632  0.1571  0.3345  0.2748
   60SAPC   C22 4597   0.964   3.102  10.556  0.8564  0.1828  0.8295
   60SAPC   H2R 4598   1.064   3.062  10.528  2.1917  2.2366  2.3586
   60SAPC   H2S 4599   0.936   3.039  10.643  2.8338  0.2157  1.5279
   60SAPC    C3 4600   1.148   3.513  10.541 -0.3116 -0.2250 -0.2120
   60SAPC    HX 4601   1.203   3.468  10.455  0.4815 -0.7127  0.5320
   60SAPC    HY 4602   1.201   3.602  10.579 -2.8256  0.9199  0.8341
   60SAPC   O31 4603   1.011   3.551  10.506 -0.2254  0.0979 -0.2920
   60SAPC   C31 4604   1.007   3.628  10.399  0.7112 -0.7093 -0.1972
   60SAPC   O32 4605   1.099   3.671  10.335  0.2492  0.6772 -0.4581
   60SAPC   C32 4606   0.866   3.670  10.377  0.1336 -0.1889 -0.5443
   60SAPC   H2X 4607   0.851   3.765  10.432  0.5883  1.4493 -3.0972
   60SAPC   H2Y 4608   0.796   3.594  10.419  1.3208 -0.8353  0.3634
   60SAPC   C23 4609   0.850   3.075  10.451  0.1265 -0.6382 -0.2679
   60SAPC   H3R 4610   0.767   3.148  10.467  1.6634  1.3332 -0.7830
   60SAPC   H3S 4611   0.804   2.975  10.461 -1.6201  0.0243 -1.2256
   60SAPC   C24 4612   0.902   3.081  10.303 -0.2351 -0.2910 -0.3338
   60SAPC   H4R 4613   0.821   3.052  10.233 -1.7271  2.6696 -0.0153
   60SAPC   H4S 4614   0.972   2.998  10.279 -0.3702 -0.0867 -1.4997
   60SAPC   C25 4615   0.965   3.208  10.243  0.2316 -0.2893 -0.6752
   60SAPC   H5R 4616   0.982   3.295  10.308 -1.0363 -0.0296 -0.6644
   60SAPC   C26 4617   0.993   3.219  10.110  0.0577  0.1334  0.5416
   60SAPC   H6R 4618   1.041   3.312  10.075  0.2264  0.1475  0.8075
   60SAPC   C27 4619   0.978   3.105  10.015  0.1028 -0.1673  0.2616
   60SAPC   H7R 4620   0.870   3.077  10.018  0.1779 -0.4544  0.3186
   60SAPC   H7S 4621   1.035   3.018  10.055 -0.8928 -0.5678  0.8484
   60SAPC   C28 4622   1.015   3.147   9.873  0.6918  0.0517 -0.3739
   60SAPC   H8R 4623   0.936   3.146   9.797  0.0375 -0.9384  0.2995
   60SAPC   C29 4624   1.140   3.162   9.835  0.5433  0.1776  0.3087
   60SAPC   H9R 4625   1.162   3.173   9.728  1.3002  0.1926  0.4607
   60SAPC  C210 4626   1.263   3.154   9.928 -0.0649 -0.3446  0.7561
   60SAPC  H10R 4627   1.326   3.082   9.873  0.0931  3.0710 -4.1862
   60SAPC  H10S 4628   1.244   3.113  10.030 -1.6387  1.5766  1.3006
   60SAPC  C211 4629   1.321   3.295   9.950 -0.6075 -0.1230 -0.0646
   60SAPC  H11R 4630   1.289   3.348  10.040  0.4150  1.3840 -0.5414
   60SAPC  C212 4631   1.400   3.356   9.865  0.1120  0.2632  0.3943
   60SAPC  H12R 4632   1.435   3.456   9.892 -2.0826  0.3201  3.4976
   60SAPC  C213 4633   1.452   3.313   9.720  0.4898 -1.2330 -0.3657
   60SAPC  H13R 4634   1.436   3.204   9.704  0.0101 -1.0428 -1.2357
   60SAPC  H13S 4635   1.559   3.343   9.716 -0.0338  0.6492 -1.0580
   60SAPC  C214 4636   1.369   3.383   9.618 -0.3447 -0.0015 -0.2413
   60SAPC  H14R 4637   1.360   3.491   9.636 -0.1446  0.1536 -1.0197
   60SAPC  C215 4638   1.325   3.336   9.501  0.5830  0.8831 -1.0099
   60SAPC  H15R 4639   1.270   3.403   9.433 -1.2856 -1.7023 -2.2264
   60SAPC  C216 4640   1.347   3.202   9.444 -0.7092 -0.2026  0.1192
   60SAPC  H16R 4641   1.412   3.135   9.505 -2.0452 -1.7256 -0.0524
   60SAPC  H16S 4642   1.407   3.220   9.352  2.5350  2.2613  2.4734
   60SAPC  C217 4643   1.214   3.135   9.407  0.1046 -0.1682 -0.0063
   60SAPC  H17R 4644   1.147   3.130   9.495 -0.4819 -1.1984 -0.4876
   60SAPC  H17S 4645   1.234   3.029   9.380 -1.1566 -0.7620  1.2600
   60SAPC  C218 4646   1.152   3.188   9.279  0.0737 -0.5096  0.2580
   60SAPC  H18R 4647   1.201   3.146   9.188 -1.2480 -1.0473 -0.2431
   60SAPC  H18S 4648   1.160   3.298   9.272 -0.9099 -0.2148  2.6734
   60SAPC  C219 4649   1.004   3.138   9.275 -0.3612 -0.1100  1.4655
   60SAPC  H19R 4650   1.012   3.030   9.302  0.8434 -1.1674 -2.5264
   60SAPC  H19S 4651   0.970   3.137   9.169 -2.2708  3.0893  1.9081
   60SAPC  C220 4652   0.895   3.208   9.363 -0.4541 -0.6768  0.2108
   60SAPC  H20R 4653   0.915   3.317   9.370 -2.5376 -0.2747  0.6155
   60SAPC  H20S 4654   0.894   3.174   9.469 -3.2923  0.5392  0.6881
   60SAPC  H20T 4655   0.798   3.208   9.308 -0.6976  1.9032  0.4875
   60SAPC   C33 4656   0.836   3.691  10.229  0.1605  0.4008  0.6247
   60SAPC   H3X 4657   0.917   3.751  10.184  0.9231 -1.9194 -1.3115
   60SAPC   H3Y 4658   0.743   3.752  10.227  0.7046  1.3000  1.8799
   60SAPC   C34 4659   0.813   3.560  10.146 -0.0757  0.3231 -0.5781
   60SAPC   H4X 4660   0.729   3.507  10.195 -0.2931  2.0374  0.9774
   60SAPC   H4Y 4661   0.898   3.489  10.158 -2.5593 -2.6251  1.0346
   60SAPC   C35 4662   0.790   3.581   9.996  0.0242 -0.2452 -0.2011
   60SAPC   H5X 4663   0.743   3.679   9.973 -0.1976 -0.4021 -0.4291
   60SAPC   H5Y 4664   0.704   3.517   9.966 -0.7332 -1.1349  3.3309
   60SAPC   C36 4665   0.919   3.564   9.916  1.0516 -0.2026 -0.8013
   60SAPC   H6X 4666   0.951   3.464   9.955 -2.9942 -0.4433  2.6775
   60SAPC   H6Y 4667   0.995   3.640   9.944 -1.7544  2.8755 -0.9677
   60SAPC   C37 4668   0.896   3.573   9.760 -0.4976  0.3182 -0.2956
   60SAPC   H7X 4669   0.899   3.683   9.740 -1.5041  0.9275  2.5051
   60SAPC   H7Y 4670   0.796   3.532   9.737 -0.8150  1.7220 -1.5937
   60SAPC   C38 4671   1.011   3.515   9.679  0.4592 -0.1265 -0.3558
   60SAPC   H8X 4672   1.003   3.405   9.694 -0.3322 -0.1707 -1.0311
   60SAPC   H8Y 4673   1.112   3.541   9.718  0.1512  1.0235 -0.2933
   60SAPC   C39 4674   1.005   3.545   9.532 -1.1648  0.6813 -0.8571
   60SAPC   H9X 4675   0.903   3.522   9.494 -0.5995 -1.2752 -1.3064
   60SAPC   H9Y 4676   1.070   3.467   9.487 -1.2043  0.1622 -0.0346
   60SAPC  C310 4677   1.048   3.681   9.493  0.1661  0.3170  0.4854
   60SAPC  H10X 4678   1.154   3.700   9.520  1.9831 -2.7927 -3.4663
   60SAPC  H10Y 4679   1.000   3.762   9.553  2.3029  1.9563  0.1131
   60SAPC  C311 4680   1.049   3.698   9.343  0.0111 -0.4837 -0.0421
   60SAPC  H11X 4681   1.095   3.794   9.311 -0.5529 -1.2139 -3.5500
   60SAPC  H11Y 4682   0.941   3.707   9.317 -0.3301  0.9509  1.7321
   60SAPC  C312 4683   1.134   3.599   9.263  0.0577 -0.5864  0.0523
   60SAPC  H12X 4684   1.090   3.499   9.281 -0.5953  0.0022  1.9751
   60SAPC  H12Y 4685   1.239   3.601   9.300  0.1157  1.8682 -0.0339
   60SAPC  C313 4686   1.116   3.622   9.110  0.3476  0.3340 -0.6585
   60SAPC  H13X 4687   1.182   3.702   9.069  0.1022  1.9266  1.7824
   60SAPC  H13Y 4688   1.018   3.668   9.087 -0.6690 -0.2342  2.1581
   60SAPC  C314 4689   1.136   3.490   9.033 -0.8177  0.5327  0.6667
   60SAPC  H14X 4690   1.047   3.425   9.045 -1.6030  1.6993  1.2675
   60SAPC  H14Y 4691   1.229   3.439   9.066 -1.4025 -1.0114 -0.0018
   60SAPC  C315 4692   1.157   3.506   8.875  0.2568  0.0213 -0.3934
   60SAPC  H15X 4693   1.066   3.547   8.827  2.0653  3.0961 -1.4784
   60SAPC  H15Y 4694   1.177   3.403   8.839  0.2611  0.0665 -0.5192
   60SAPC  C316 4695   1.283   3.586   8.830  0.2941  0.3160  0.0792
   60SAPC  H16X 4696   1.380   3.543   8.864  0.6020  1.6362  0.9333
   60SAPC  H16Y 4697   1.273   3.687   8.874 -1.6394  0.0601  0.3088
   60SAPC  C317 4698   1.287   3.613   8.684  0.7861 -0.0128  0.2305
   60SAPC  H17X 4699   1.374   3.678   8.659  1.0686 -1.1781 -2.0903
   60SAPC  H17Y 4700   1.190   3.659   8.655  0.9869  1.6097  1.9417
   60SAPC  C318 4701   1.320   3.488   8.602  0.0555 -0.0344 -0.3324
   60SAPC  H18X 4702   1.326   3.518   8.496 -0.6922 -1.9178 -0.9542
   60SAPC  H18Y 4703   1.247   3.405   8.615 -1.0765  0.6534 -1.9669
   60SAPC  H18Z 4704   1.420   3.450   8.634  0.0116  0.1857  0.0745
   61SAPC     N 4705   0.883   2.603  11.202  0.2232  0.3404 -0.5882
   61SAPC   C12 4706   0.986   2.668  11.121  0.1183  0.8148  0.2321
   61SAPC  H12A 4707   0.955   2.645  11.020 -1.4214  1.0985  0.6118
   61SAPC  H12B 4708   1.087   2.630  11.125  0.9439  2.8176 -0.0580
   61SAPC   C13 4709   0.915   2.619  11.352  0.0568  0.2467  0.3282
   61SAPC  H13A 4710   0.922   2.725  11.371 -2.9720  0.6887 -0.6137
   61SAPC  H13B 4711   0.830   2.594  11.413  0.2368  0.5786  0.7251
   61SAPC  H13C 4712   1.008   2.574  11.384  0.6931  1.3808  0.1379
   61SAPC   C14 4713   0.749   2.663  11.175 -1.0465  0.1920 -0.3478
   61SAPC  H14A 4714   0.714   2.625  11.080  1.4355 -1.0019 -0.8772
   61SAPC  H14B 4715   0.687   2.649  11.262  0.3783  0.5221  0.7521
   61SAPC  H14C 4716   0.772   2.768  11.160  2.6905 -0.3338  0.6869
   61SAPC   C15 4717   0.869   2.456  11.184  0.1426  0.4686  0.2427
   61SAPC  H15A 4718   0.951   2.399  11.223  0.1181  0.3115  0.0673
   61SAPC  H15B 4719   0.781   2.424  11.238  0.4770  1.5842  1.4966
   61SAPC  H15C 4720   0.850   2.430  11.081  1.2380  0.6363 -0.0099
   61SAPC   C11 4721   0.999   2.823  11.120  0.4352 -0.3013  0.0435
   61SAPC  H11A 4722   1.093   2.857  11.073 -0.1206  1.1055 -0.0984
   61SAPC  H11B 4723   0.996   2.870  11.221 -0.8841  1.5248 -0.7664
   61SAPC     P 4724   0.882   2.861  10.890  0.1531  0.2580  0.3260
   61SAPC   O13 4725   0.854   2.717  10.852 -0.7070 -0.2521 -0.6855
   61SAPC   O14 4726   0.781   2.966  10.850 -0.3268  0.1059 -1.0152
   61SAPC   O12 4727   0.894   2.884  11.045  0.2023  0.0356 -0.8135
   61SAPC   O11 4728   1.027   2.896  10.827 -0.4327 -0.5294 -0.7158
   61SAPC    C1 4729   1.136   2.802  10.807  0.6490  0.0865 -0.4091
   61SAPC    HA 4730   1.224   2.846  10.859 -1.5962  0.4146  3.5020
   61SAPC    HB 4731   1.130   2.705  10.861  0.1295 -0.1550 -0.8980
   61SAPC    C2 4732   1.164   2.776  10.656  0.1868 -0.1041  0.2424
   61SAPC    HS 4733   1.232   2.689  10.643  2.3216  1.5258 -0.0986
   61SAPC   O21 4734   1.230   2.893  10.599 -0.2107  0.1921 -0.7739
   61SAPC   C21 4735   1.349   2.924  10.633 -0.8096  0.2919 -0.1155
   61SAPC   O22 4736   1.418   2.866  10.713  0.5906 -0.3163  0.4117
   61SAPC   C22 4737   1.395   3.043  10.559  0.1614  0.3422 -0.3844
   61SAPC   H2R 4738   1.324   3.124  10.585  0.1134 -0.0055  0.6019
   61SAPC   H2S 4739   1.496   3.079  10.587  0.2950 -0.5687  0.3794
   61SAPC    C3 4740   1.032   2.751  10.570  0.1824  0.2555  0.5795
   61SAPC    HX 4741   0.979   2.848  10.579  0.9480  0.6073  1.3967
   61SAPC    HY 4742   0.976   2.667  10.619 -0.3493 -0.3082 -0.9457
   61SAPC   O31 4743   1.065   2.720  10.437 -0.5028 -0.2520  0.0019
   61SAPC   C31 4744   0.951   2.707  10.367  0.8999 -0.1421 -0.4218
   61SAPC   O32 4745   0.836   2.726  10.406  0.3596 -0.7367  0.0084
   61SAPC   C32 4746   0.992   2.637  10.238 -0.5016  0.4551  0.4712
   61SAPC   H2X 4747   0.950   2.536  10.222  0.4408  0.2420 -0.8117
   61SAPC   H2Y 4748   1.103   2.627  10.240 -0.6825 -2.8460 -0.6986
   61SAPC   C23 4749   1.398   3.016  10.404  0.0589 -0.7367  0.6511
   61SAPC   H3R 4750   1.300   2.963  10.393 -0.1459 -1.3460  4.3145
   61SAPC   H3S 4751   1.481   2.948  10.378 -2.1591 -2.9663 -1.0653
   61SAPC   C24 4752   1.400   3.139  10.310 -0.3997  0.1645  0.0853
   61SAPC   H4R 4753   1.308   3.201  10.316  1.2227  2.6336  1.1590
   61SAPC   H4S 4754   1.416   3.105  10.205  0.1743  1.0760 -0.1347
   61SAPC   C25 4755   1.511   3.236  10.355 -0.2702  0.4620 -0.5152
   61SAPC   H5R 4756   1.503   3.284  10.454  1.3718  1.1046 -0.6715
   61SAPC   C26 4757   1.618   3.274  10.285 -0.0577  0.0145  0.3593
   61SAPC   H6R 4758   1.683   3.351  10.328 -2.9996  2.7891  0.1933
   61SAPC   C27 4759   1.650   3.234  10.142  0.0430  0.1379 -0.1951
   61SAPC   H7R 4760   1.741   3.296  10.127  1.8688 -2.0076  1.2668
   61SAPC   H7S 4761   1.565   3.260  10.075  0.1576 -2.1988 -1.3622
   61SAPC   C28 4762   1.698   3.098  10.123 -0.7176  0.3503  0.3973
   61SAPC   H8R 4763   1.693   3.035  10.214 -0.3721 -0.0590  0.1374
   61SAPC   C29 4764   1.731   3.039  10.003 -0.2651 -0.4492 -0.4696
   61SAPC   H9R 4765   1.758   2.932  10.004 -2.5460 -1.1114 -2.1014
   61SAPC  C210 4766   1.728   3.111   9.871 -0.3407 -0.0293 -0.3835
   61SAPC  H10R 4767   1.707   3.219   9.889  0.6954  0.0105  0.7408
   61SAPC  H10S 4768   1.648   3.061   9.812  0.5910 -0.9963 -0.8661
   61SAPC  C211 4769   1.866   3.116   9.809 -0.3747  0.1353 -0.5297
   61SAPC  H11R 4770   1.948   3.152   9.872 -0.3815 -1.6631  0.5778
   61SAPC  C212 4771   1.899   3.087   9.678 -0.2724 -0.4100  0.1096
   61SAPC  H12R 4772   1.997   3.113   9.637  0.1338 -0.0535  1.2840
   61SAPC  C213 4773   1.797   3.037   9.579 -0.2493  0.4949 -0.4322
   61SAPC  H13R 4774   1.700   3.009   9.627 -0.5631  1.3214 -0.5601
   61SAPC  H13S 4775   1.831   2.946   9.526  1.1978 -0.4604  1.9943
   61SAPC  C214 4776   1.756   3.149   9.490 -0.0519  0.3485  0.8501
   61SAPC  H14R 4777   1.708   3.235   9.540  0.8462  0.0495  2.2995
   61SAPC  C215 4778   1.777   3.160   9.359 -0.7911  0.7371 -0.3118
   61SAPC  H15R 4779   1.743   3.252   9.309  0.5054  0.8898 -0.9619
   61SAPC  C216 4780   1.852   3.054   9.272 -0.0937  0.2572 -0.2410
   61SAPC  H16R 4781   1.806   2.956   9.295 -2.6699  1.1171 -1.3901
   61SAPC  H16S 4782   1.961   3.057   9.294  0.0893  0.0268 -1.0760
   61SAPC  C217 4783   1.842   3.084   9.120 -0.9559  0.5344  0.1150
   61SAPC  H17R 4784   1.891   3.181   9.097 -0.9409  0.5458  0.1936
   61SAPC  H17S 4785   1.739   3.096   9.080 -1.2959  0.6343  1.0047
   61SAPC  C218 4786   1.917   2.974   9.041  0.4722  0.3830  0.3812
   61SAPC  H18R 4787   1.990   2.928   9.111  0.0794  1.3017  1.4428
   61SAPC  H18S 4788   1.974   3.018   8.956 -1.6290  0.1831 -1.2129
   61SAPC  C219 4789   1.830   2.856   8.976 -0.1898 -0.2261 -0.2755
   61SAPC  H19R 4790   1.760   2.903   8.904 -1.2757 -0.1320  0.8174
   61SAPC  H19S 4791   1.779   2.806   9.061  0.1756  0.6937  0.5047
   61SAPC  C220 4792   1.922   2.765   8.898 -0.4912 -0.2270 -0.0319
   61SAPC  H20R 4793   2.011   2.731   8.954  0.2894  0.2373 -0.9440
   61SAPC  H20S 4794   1.958   2.822   8.810  1.0060 -0.8293  0.1587
   61SAPC  H20T 4795   1.867   2.673   8.869 -1.2132  0.1445  0.1350
   61SAPC   C33 4796   0.954   2.721  10.112 -0.3376 -0.2057  0.0102
   61SAPC   H3X 4797   0.995   2.825  10.117 -1.9303  0.3973  3.3383
   61SAPC   H3Y 4798   0.845   2.739  10.110 -0.1692  0.9248 -0.2134
   61SAPC   C34 4799   0.990   2.650   9.980  0.4311 -0.5653  0.3740
   61SAPC   H4X 4800   0.922   2.564   9.965  0.5063 -0.4407 -0.8153
   61SAPC   H4Y 4801   1.093   2.611   9.987  1.5013  2.0949  0.6467
   61SAPC   C35 4802   0.968   2.745   9.867 -0.3454 -0.5709  0.3968
   61SAPC   H5X 4803   1.038   2.831   9.879 -2.9898  1.7816 -0.0842
   61SAPC   H5Y 4804   0.863   2.780   9.866 -0.7089 -1.6462 -0.4036
   61SAPC   C36 4805   0.991   2.660   9.735  0.0042  0.0446 -0.4788
   61SAPC   H6X 4806   0.940   2.561   9.742  1.8580 -0.9698 -0.7698
   61SAPC   H6Y 4807   1.101   2.643   9.734  0.4176  2.2067  1.1856
   61SAPC   C37 4808   0.956   2.737   9.607 -0.7398 -0.3146 -0.6294
   61SAPC   H7X 4809   1.032   2.819   9.610  0.1823 -1.1869  0.5758
   61SAPC   H7Y 4810   0.853   2.779   9.601 -0.5452  0.2588 -0.0580
   61SAPC   C38 4811   1.003   2.662   9.474  0.1255  0.7782 -0.6012
   61SAPC   H8X 4812   0.938   2.572   9.467  0.5920  0.4421 -0.7044
   61SAPC   H8Y 4813   1.107   2.628   9.495  0.4146  2.5076  0.9966
   61SAPC   C39 4814   0.993   2.744   9.341 -0.8159 -0.1819 -0.4072
   61SAPC   H9X 4815   1.042   2.843   9.331  0.5248 -0.8102 -0.3245
   61SAPC   H9Y 4816   0.883   2.760   9.343 -0.6811  0.8378 -0.8657
   61SAPC  C310 4817   1.028   2.667   9.217  0.1232 -0.1006  0.8944
   61SAPC  H10X 4818   0.998   2.560   9.207 -0.0743 -0.1928  2.2658
   61SAPC  H10Y 4819   1.139   2.661   9.209  0.1896 -2.0957  2.4825
   61SAPC  C311 4820   0.975   2.724   9.078  0.5233  0.3049  0.1183
   61SAPC  H11X 4821   0.865   2.735   9.065  0.6674  0.8762 -0.6798
   61SAPC  H11Y 4822   1.002   2.644   9.007 -0.9295 -1.2712  1.2479
   61SAPC  C312 4823   1.047   2.850   9.022  0.5427  0.1305 -0.2439
   61SAPC  H12X 4824   1.144   2.853   9.077  0.1205 -1.4861  0.6537
   61SAPC  H12Y 4825   0.987   2.941   9.045  2.1786  1.1688  0.0585
   61SAPC  C313 4826   1.074   2.852   8.866 -0.4013  0.5559  0.1481
   61SAPC  H13X 4827   0.982   2.876   8.808 -1.2786 -1.7705  0.4978
   61SAPC  H13Y 4828   1.118   2.757   8.831 -1.4669 -0.5186  1.6101
   61SAPC  C314 4829   1.162   2.967   8.823  0.2222 -1.0967  0.3047
   61SAPC  H14X 4830   1.263   2.963   8.869  0.5127 -1.2798 -0.3343
   61SAPC  H14Y 4831   1.122   3.059   8.871  1.4117 -1.2262  1.6119
   61SAPC  C315 4832   1.172   2.997   8.670  0.3289  0.6397 -0.0394
   61SAPC  H15X 4833   1.069   3.030   8.646  0.1670 -1.0358 -1.8969
   61SAPC  H15Y 4834   1.190   2.903   8.613 -0.0761  0.5396 -0.0006
   61SAPC  C316 4835   1.276   3.108   8.633  0.2343 -0.7168 -1.1776
   61SAPC  H16X 4836   1.278   3.181   8.717 -1.0640 -0.1666 -1.6070
   61SAPC  H16Y 4837   1.247   3.158   8.538 -0.3836 -0.0480 -0.6539
   61SAPC  C317 4838   1.422   3.059   8.606 -0.5976 -0.7549 -0.9497
   61SAPC  H17X 4839   1.461   3.003   8.693 -0.1359  0.9374 -0.0180
   61SAPC  H17Y 4840   1.487   3.148   8.593 -0.9485 -0.4771 -0.8136
   61SAPC  C318 4841   1.426   2.973   8.481 -0.2776  0.2633  0.4232
   61SAPC  H18X 4842   1.519   2.914   8.467 -1.8515 -2.2613  0.0133
   61SAPC  H18Y 4843   1.412   3.022   8.382  0.0622 -1.6539 -0.6034
   61SAPC  H18Z 4844   1.337   2.906   8.482  0.1616 -0.3679 -0.8415
   62SAPC     N 4845   0.007   5.911  11.072 -0.0132  0.6426  0.0690
   62SAPC   C12 4846  -0.029   5.895  10.925 -0.3415  0.1801  0.4034
   62SAPC  H12A 4847   0.033   5.957  10.862  0.6358 -2.7136 -1.7288
   62SAPC  H12B 4848  -0.128   5.938  10.918 -0.8787 -1.2111 -2.6839
   62SAPC   C13 4849   0.045   6.053  11.104  0.6126  0.1614 -0.7094
   62SAPC  H13A 4850   0.055   6.071  11.210 -0.5350  1.4591 -0.7992
   62SAPC  H13B 4851   0.132   6.087  11.051 -0.7055  2.2672 -1.6642
   62SAPC  H13C 4852  -0.028   6.129  11.080  0.3242  1.6331  3.7454
   62SAPC   C14 4853  -0.103   5.875  11.155  0.2740  0.0257  0.6794
   62SAPC  H14A 4854  -0.148   5.781  11.127 -3.1616  1.5047  0.8684
   62SAPC  H14B 4855  -0.072   5.863  11.258 -1.3704 -0.8144  1.0994
   62SAPC  H14C 4856  -0.180   5.950  11.154 -1.5484 -1.7725 -0.3969
   62SAPC   C15 4857   0.126   5.828  11.109  0.2117  0.0628 -0.4814
   62SAPC  H15A 4858   0.101   5.725  11.090 -1.2399  0.6527 -1.9289
   62SAPC  H15B 4859   0.207   5.862  11.046  1.0055  1.5751  1.2272
   62SAPC  H15C 4860   0.147   5.846  11.214 -2.2382  1.5608 -0.1735
   62SAPC   C11 4861  -0.031   5.754  10.863 -0.3964 -0.1550 -0.3122
   62SAPC  H11A 4862   0.071   5.716  10.888 -0.2138 -0.7138 -1.8278
   62SAPC  H11B 4863  -0.045   5.766  10.754  0.5369 -2.5970 -0.7690
   62SAPC     P 4864  -0.284   5.676  10.891  0.0735  0.2763 -0.4066
   62SAPC   O13 4865  -0.307   5.609  10.759  0.4068 -0.3107  0.0949
   62SAPC   O14 4866  -0.347   5.611  11.008 -0.2093  0.0730 -0.1113
   62SAPC   O12 4867  -0.130   5.672  10.928  0.0851  0.1575  0.6111
   62SAPC   O11 4868  -0.328   5.829  10.888 -0.0993  0.4441 -0.0618
   62SAPC    C1 4869  -0.461   5.861  10.845  0.3577 -0.3268 -0.2548
   62SAPC    HA 4870  -0.531   5.805  10.910 -2.2788  1.4930 -1.3702
   62SAPC    HB 4871  -0.477   5.970  10.864  1.7562 -0.2464  0.6510
   62SAPC    C2 4872  -0.491   5.843  10.691  0.2325 -0.3290  0.4521
   62SAPC    HS 4873  -0.473   5.738  10.661 -0.2719  0.0578 -1.3225
   62SAPC   O21 4874  -0.406   5.929  10.618 -0.4036 -0.0020  0.2505
   62SAPC   C21 4875  -0.358   5.883  10.501  0.0869  0.5815  0.2033
   62SAPC   O22 4876  -0.381   5.770  10.454 -0.2070  0.1244  0.1764
   62SAPC   C22 4877  -0.270   5.987  10.446  0.3939  0.3467 -0.2192
   62SAPC   H2R 4878  -0.328   6.065  10.391 -0.4811 -0.0463  0.1365
   62SAPC   H2S 4879  -0.217   6.037  10.529 -0.9088  1.9621 -0.2996
   62SAPC    C3 4880  -0.642   5.876  10.654  0.1555 -0.0660  0.0757
   62SAPC    HX 4881  -0.648   5.973  10.707  0.8389 -0.5007  0.9875
   62SAPC    HY 4882  -0.703   5.806  10.715 -1.0128  1.8067  1.1336
   62SAPC   O31 4883  -0.679   5.884  10.513  0.1536 -0.0161  0.0860
   62SAPC   C31 4884  -0.692   5.770  10.450 -0.3120  0.1991 -0.7381
   62SAPC   O32 4885  -0.648   5.664  10.491  0.0607 -0.3759  0.3497
   62SAPC   C32 4886  -0.765   5.796  10.318  0.5807 -0.5768 -0.4213
   62SAPC   H2X 4887  -0.731   5.892  10.275 -0.1285  0.0631  0.4161
   62SAPC   H2Y 4888  -0.872   5.816  10.340  0.4204  0.8187 -2.2958
   62SAPC   C23 4889  -0.162   5.928  10.344  0.5918 -0.5128  0.0426
   62SAPC   H3R 4890  -0.206   5.896  10.248 -1.0951 -0.4634  0.7677
   62SAPC   H3S 4891  -0.120   5.833  10.384 -2.8996 -1.0928  2.8724
   62SAPC   C24 4892  -0.046   6.023  10.316 -0.1562  0.7071  0.1975
   62SAPC   H4R 4893   0.015   5.978  10.235 -0.0454 -0.5824  0.9768
   62SAPC   H4S 4894   0.026   6.024  10.402 -1.6399  1.6652  1.4854
   62SAPC   C25 4895  -0.093   6.163  10.286 -0.8666 -0.2953  0.0498
   62SAPC   H5R 4896  -0.155   6.209  10.365 -0.7414  3.3764 -1.7807
   62SAPC   C26 4897  -0.077   6.241  10.178  0.1550  0.3431  0.5527
   62SAPC   H6R 4898  -0.139   6.331  10.167  1.6884  1.3582 -0.2690
   62SAPC   C27 4899   0.007   6.204  10.056 -0.6458  0.0039 -0.2816
   62SAPC   H7R 4900   0.071   6.115  10.074 -2.2191 -1.1919 -0.2824
   62SAPC   H7S 4901   0.075   6.290  10.040 -0.5672  0.1029  0.5779
   62SAPC   C28 4902  -0.098   6.173   9.960 -0.0117  0.4815 -1.0203
   62SAPC   H8R 4903  -0.157   6.086   9.992  1.1956 -0.6561 -1.7963
   62SAPC   C29 4904  -0.119   6.240   9.842  0.1227 -0.9221 -0.3266
   62SAPC   H9R 4905  -0.197   6.197   9.778  1.6870 -4.3639 -0.1061
   62SAPC  C210 4906  -0.057   6.363   9.787  0.3920 -0.0525 -0.0842
   62SAPC  H10R 4907   0.017   6.343   9.707 -0.5157  2.9338 -1.8541
   62SAPC  H10S 4908  -0.010   6.424   9.868 -1.4761  2.2303 -0.5900
   62SAPC  C211 4909  -0.157   6.463   9.743  0.9920  0.4471 -0.2949
   62SAPC  H11R 4910  -0.224   6.497   9.823 -0.3934  1.5903 -1.9010
   62SAPC  C212 4911  -0.169   6.532   9.627 -0.0516  0.4261  0.7404
   62SAPC  H12R 4912  -0.258   6.597   9.619  0.1687  1.0342  2.6526
   62SAPC  C213 4913  -0.073   6.522   9.512 -0.6525 -0.4964 -0.2406
   62SAPC  H13R 4914  -0.090   6.421   9.470 -0.4758 -2.0590  3.1449
   62SAPC  H13S 4915   0.034   6.525   9.544 -1.3755  0.5886  2.3764
   62SAPC  C214 4916  -0.088   6.631   9.405  0.1474  0.2009 -0.0557
   62SAPC  H14R 4917  -0.038   6.725   9.431  0.9323  0.0004 -0.8350
   62SAPC  C215 4918  -0.142   6.634   9.279 -0.2001  0.4283 -0.2077
   62SAPC  H15R 4919  -0.149   6.732   9.229 -0.4126  0.1624 -0.7046
   62SAPC  C216 4920  -0.226   6.517   9.228 -0.2869 -0.3055  0.5697
   62SAPC  H16R 4921  -0.319   6.560   9.186 -0.3200 -0.5410  0.3964
   62SAPC  H16S 4922  -0.260   6.453   9.312 -0.7874 -1.2192 -0.2949
   62SAPC  C217 4923  -0.161   6.427   9.115 -1.3265  0.4873 -1.0256
   62SAPC  H17R 4924  -0.232   6.352   9.074 -0.3610 -1.6411  1.0003
   62SAPC  H17S 4925  -0.077   6.366   9.155  0.1089  2.2158 -1.2934
   62SAPC  C218 4926  -0.123   6.512   9.000  0.0010  0.3288  0.3792
   62SAPC  H18R 4927  -0.065   6.603   9.027 -0.9201  1.2508 -0.6114
   62SAPC  H18S 4928  -0.214   6.548   8.946  0.9977  0.5942 -1.2034
   62SAPC  C219 4929  -0.040   6.446   8.892 -0.4062  0.2449 -0.0288
   62SAPC  H19R 4930  -0.046   6.501   8.796  1.8874 -1.6447 -1.3384
   62SAPC  H19S 4931  -0.091   6.348   8.879  0.2260 -0.4577  2.3125
   62SAPC  C220 4932   0.111   6.452   8.928  0.4578  0.0585  0.1837
   62SAPC  H20R 4933   0.178   6.449   8.840 -0.1590 -0.1857 -0.2838
   62SAPC  H20S 4934   0.132   6.372   9.002 -1.3426  0.5646  1.3267
   62SAPC  H20T 4935   0.135   6.550   8.975  2.4881  0.2072 -1.0258
   62SAPC   C33 4936  -0.768   5.682  10.216 -0.0057 -0.2415  0.1017
   62SAPC   H3X 4937  -0.836   5.606  10.260 -0.1544 -0.3289 -0.2753
   62SAPC   H3Y 4938  -0.675   5.622  10.212  0.8838  1.1609 -1.9783
   62SAPC   C34 4939  -0.816   5.710  10.071  0.4343  0.5501 -0.3956
   62SAPC   H4X 4940  -0.900   5.783  10.070  0.4376  0.5552 -0.3432
   62SAPC   H4Y 4941  -0.862   5.619  10.027 -3.4311  1.3990  1.3994
   62SAPC   C35 4942  -0.710   5.770   9.980 -0.1263 -0.5822  0.0881
   62SAPC   H5X 4943  -0.677   5.683   9.920 -1.0361 -1.1027  0.3300
   62SAPC   H5Y 4944  -0.634   5.814  10.048 -0.8204 -0.4345  0.7820
   62SAPC   C36 4945  -0.770   5.878   9.887 -0.1156  0.2686  0.6114
   62SAPC   H6X 4946  -0.768   5.976   9.940  0.3955  0.9622 -0.6561
   62SAPC   H6Y 4947  -0.873   5.842   9.864 -0.2412  0.1062  1.4089
   62SAPC   C37 4948  -0.688   5.894   9.759  0.3670  0.4272  0.1340
   62SAPC   H7X 4949  -0.655   5.792   9.728 -2.6910 -1.2637  2.0454
   62SAPC   H7Y 4950  -0.596   5.949   9.789  0.3202  1.1884 -1.0497
   62SAPC   C38 4951  -0.760   5.960   9.645 -0.0515 -0.2704 -0.0684
   62SAPC   H8X 4952  -0.786   6.060   9.686 -3.2101 -1.3645  0.9351
   62SAPC   H8Y 4953  -0.854   5.909   9.616 -0.6228  0.5370  0.3344
   62SAPC   C39 4954  -0.659   5.972   9.524 -0.1350 -0.4519  0.1680
   62SAPC   H9X 4955  -0.622   5.876   9.480 -0.3064 -1.3108  1.8120
   62SAPC   H9Y 4956  -0.576   6.033   9.565 -0.2206  1.1592 -1.9077
   62SAPC  C310 4957  -0.723   6.061   9.413 -0.3762  0.0400 -0.0177
   62SAPC  H10X 4958  -0.650   6.079   9.331 -1.4072  2.2171 -0.5107
   62SAPC  H10Y 4959  -0.771   6.155   9.449  0.7071  0.3586  0.6377
   62SAPC  C311 4960  -0.836   5.992   9.337  0.3930  0.0218 -0.6459
   62SAPC  H11X 4961  -0.917   5.990   9.412  0.9176 -0.1926 -0.0747
   62SAPC  H11Y 4962  -0.807   5.889   9.308  0.7246  0.4112 -1.7317
   62SAPC  C312 4963  -0.887   6.080   9.224 -0.1408  0.4190  0.2212
   62SAPC  H12X 4964  -0.804   6.115   9.158  1.2172  1.0926  2.2110
   62SAPC  H12Y 4965  -0.935   6.168   9.270 -1.0196 -0.0437  0.2094
   62SAPC  C313 4966  -0.996   6.017   9.134  0.7286  0.1306  0.1833
   62SAPC  H13X 4967  -1.025   6.093   9.058  0.1849 -0.9365 -0.7040
   62SAPC  H13Y 4968  -1.089   5.997   9.191  1.9408 -1.6824  1.6883
   62SAPC  C314 4969  -0.955   5.894   9.055  0.7206  0.4158 -0.0964
   62SAPC  H14X 4970  -1.035   5.851   8.992  1.6650  1.1963 -1.9081
   62SAPC  H14Y 4971  -0.917   5.817   9.126  1.3454 -1.1807 -2.0581
   62SAPC  C315 4972  -0.847   5.923   8.946  0.5848  0.2410  0.5968
   62SAPC  H15X 4973  -0.825   5.819   8.913 -0.1586  0.1649  0.3191
   62SAPC  H15Y 4974  -0.756   5.963   8.995  0.5218  2.0548 -0.6899
   62SAPC  C316 4975  -0.893   6.019   8.831  0.0892 -0.3942 -0.1302
   62SAPC  H16X 4976  -0.913   6.117   8.878  3.0334 -0.6654  2.0505
   62SAPC  H16Y 4977  -0.980   5.976   8.777  1.6203 -0.7603 -2.4890
   62SAPC  C317 4978  -0.781   6.050   8.731 -0.1285 -0.6474  0.2875
   62SAPC  H17X 4979  -0.749   5.952   8.688  0.1993 -0.9684  1.2428
   62SAPC  H17Y 4980  -0.697   6.086   8.794  0.1559 -2.4024  0.9857
   62SAPC  C318 4981  -0.822   6.153   8.627  0.2842 -0.6248 -0.5263
   62SAPC  H18X 4982  -0.860   6.247   8.673 -0.1329 -0.9938 -0.1152
   62SAPC  H18Y 4983  -0.890   6.109   8.551 -0.8467  0.3767 -0.1193
   62SAPC  H18Z 4984  -0.730   6.184   8.572  0.0854  0.2290 -0.3892
   63SAPC     N 4985   2.312   0.084   6.377 -0.0626  0.0131 -0.1991
   63SAPC   C12 4986   2.338   0.222   6.420 -0.1194 -0.7019 -0.0733
   63SAPC  H12A 4987   2.445   0.239   6.429 -0.3117 -0.5699  2.7511
   63SAPC  H12B 4988   2.304   0.224   6.522 -1.0487 -1.2144 -0.3587
   63SAPC   C13 4989   2.392  -0.016   6.460  0.1562 -0.1307  0.3807
   63SAPC  H13A 4990   2.499  -0.004   6.459  0.2563 -0.9775  0.4150
   63SAPC  H13B 4991   2.358  -0.012   6.562 -1.2584 -0.4480 -0.0560
   63SAPC  H13C 4992   2.376  -0.120   6.435  0.5136  0.0960 -0.8508
   63SAPC   C14 4993   2.167   0.055   6.393 -0.2326  0.4528 -0.6873
   63SAPC  H14A 4994   2.098   0.118   6.339 -1.2108 -0.0098  0.0051
   63SAPC  H14B 4995   2.147  -0.046   6.360 -0.9739 -0.5348  2.4277
   63SAPC  H14C 4996   2.131   0.064   6.494  0.2399  0.8110 -0.5441
   63SAPC   C15 4997   2.355   0.070   6.237 -0.3579 -0.6686  1.1060
   63SAPC  H15A 4998   2.462   0.082   6.229 -0.6496  0.6604 -1.6913
   63SAPC  H15B 4999   2.328  -0.023   6.189 -2.5717 -0.0479  1.0492
   63SAPC  H15C 5000   2.310   0.143   6.172  0.9825 -2.4466 -2.0402
   63SAPC   C11 5001   2.279   0.346   6.352  0.2481  0.6204 -0.2134
   63SAPC  H11A 5002   2.315   0.338   6.247  1.4367  0.2822  0.2021
   63SAPC  H11B 5003   2.327   0.435   6.398 -0.3885  0.1589  1.4138
   63SAPC     P 5004   2.070   0.404   6.486  0.5219 -0.1026  0.2299
   63SAPC   O13 5005   2.090   0.548   6.488  0.0665 -0.0908  0.3523
   63SAPC   O14 5006   1.930   0.358   6.492 -0.2377 -0.0903 -0.8425
   63SAPC   O12 5007   2.140   0.332   6.362  0.3546 -0.0752 -0.3808
   63SAPC   O11 5008   2.149   0.338   6.604  0.5978 -0.1984 -0.1522
   63SAPC    C1 5009   2.244   0.408   6.685  0.6860 -0.5118 -0.0060
   63SAPC    HA 5010   2.323   0.339   6.722 -0.0172 -1.1862  0.2709
   63SAPC    HB 5011   2.296   0.479   6.617 -0.4202 -0.3337 -0.7056
   63SAPC    C2 5012   2.181   0.467   6.807 -0.2458 -0.2677 -0.1141
   63SAPC    HS 5013   2.111   0.548   6.776  1.6986  1.4086 -0.3139
   63SAPC   O21 5014   2.300   0.507   6.887  0.1018 -0.3692  0.2648
   63SAPC   C21 5015   2.287   0.624   6.940  0.2891  1.0872  0.0719
   63SAPC   O22 5016   2.183   0.684   6.941  0.1744 -0.6687 -0.2886
   63SAPC   C22 5017   2.417   0.673   6.987  0.7742 -0.0361 -0.1223
   63SAPC   H2R 5018   2.490   0.662   6.904  4.0506 -2.3332  2.7627
   63SAPC   H2S 5019   2.409   0.779   7.019 -0.1117 -0.4522  1.0849
   63SAPC    C3 5020   2.112   0.355   6.890  0.3509 -0.5640  0.2382
   63SAPC    HX 5021   2.187   0.273   6.887  1.4848  0.4292  0.4997
   63SAPC    HY 5022   2.020   0.319   6.840 -0.3899  0.0792  1.1033
   63SAPC   O31 5023   2.080   0.388   7.026  0.2889 -0.5165  0.2794
   63SAPC   C31 5024   1.966   0.442   7.055 -0.1265  0.5355  0.0441
   63SAPC   O32 5025   1.879   0.482   6.980 -0.8204 -0.2686  0.2418
   63SAPC   C32 5026   1.956   0.467   7.203 -1.1882 -0.3688 -0.2158
   63SAPC   H2X 5027   1.960   0.370   7.257 -1.0309  0.0505  0.5355
   63SAPC   H2Y 5028   1.859   0.515   7.228 -0.3385  0.8315  0.9440
   63SAPC   C23 5029   2.471   0.597   7.109  0.1999 -0.7725  0.4972
   63SAPC   H3R 5030   2.520   0.501   7.082  0.5124  0.0765 -2.3217
   63SAPC   H3S 5031   2.395   0.595   7.189 -3.2223  1.3699 -2.3809
   63SAPC   C24 5032   2.598   0.680   7.169 -0.5754  0.1255  0.0970
   63SAPC   H4R 5033   2.650   0.713   7.076  1.1180 -0.9012  0.6348
   63SAPC   H4S 5034   2.664   0.606   7.220  0.1364  0.8284  0.2281
   63SAPC   C25 5035   2.556   0.809   7.244 -0.4436 -0.2273 -0.0932
   63SAPC   H5R 5036   2.534   0.899   7.184  1.9836  0.2423 -0.3765
   63SAPC   C26 5037   2.540   0.816   7.378  0.4744  0.3504 -0.1548
   63SAPC   H6R 5038   2.509   0.909   7.429  2.3713  0.4678  0.8555
   63SAPC   C27 5039   2.545   0.700   7.479 -0.1001  0.2717  0.4356
   63SAPC   H7R 5040   2.489   0.619   7.429  0.1411 -0.5564  1.4761
   63SAPC   H7S 5041   2.485   0.722   7.570 -2.2704 -1.7547 -0.4051
   63SAPC   C28 5042   2.685   0.663   7.524  0.2787 -0.0364  0.1315
   63SAPC   H8R 5043   2.720   0.564   7.492 -0.7582 -0.3354 -0.1319
   63SAPC   C29 5044   2.759   0.719   7.623  0.0592  0.5204 -0.1181
   63SAPC   H9R 5045   2.862   0.679   7.629 -0.4757 -0.9519 -0.3326
   63SAPC  C210 5046   2.736   0.846   7.707  0.9849 -0.0293  0.7248
   63SAPC  H10R 5047   2.667   0.812   7.787  1.3775 -0.7752  0.7583
   63SAPC  H10S 5048   2.675   0.918   7.650  2.9466  1.1647  0.0198
   63SAPC  C211 5049   2.862   0.929   7.756 -0.1432  0.6700  0.6713
   63SAPC  H11R 5050   2.913   0.988   7.678  0.4034 -0.6716 -0.0058
   63SAPC  C212 5051   2.922   0.914   7.874  0.1445  0.6599  0.1773
   63SAPC  H12R 5052   3.015   0.967   7.900 -0.6099  2.2270 -0.1879
   63SAPC  C213 5053   2.880   0.821   7.981 -0.0730  0.1825  0.2132
   63SAPC  H13R 5054   2.966   0.770   8.029  0.2432 -1.0658 -1.5619
   63SAPC  H13S 5055   2.837   0.735   7.925 -0.5116  1.4111 -1.4043
   63SAPC  C214 5056   2.777   0.870   8.082  0.3226 -0.2779  0.0242
   63SAPC  H14R 5057   2.678   0.897   8.043 -0.1795 -3.9997 -1.6906
   63SAPC  C215 5058   2.794   0.871   8.219  0.8935  0.2925  0.2861
   63SAPC  H15R 5059   2.705   0.896   8.278  1.2343  1.4820  0.3249
   63SAPC  C216 5060   2.913   0.815   8.288 -0.0662 -0.4764  0.2453
   63SAPC  H16R 5061   2.932   0.879   8.377  0.8394  0.5176 -0.6323
   63SAPC  H16S 5062   3.005   0.826   8.227 -0.6743  2.2895 -0.3303
   63SAPC  C217 5063   2.895   0.666   8.330  0.2406 -0.4479  0.6130
   63SAPC  H17R 5064   2.886   0.609   8.235 -2.0825 -0.8277  0.9817
   63SAPC  H17S 5065   2.801   0.643   8.385 -0.2832  1.1970  0.4588
   63SAPC  C218 5066   3.018   0.623   8.411 -0.3632  0.6184  0.0712
   63SAPC  H18R 5067   3.108   0.671   8.367 -1.1558  0.8932 -1.3282
   63SAPC  H18S 5068   3.026   0.512   8.418 -0.7709  0.7005  3.7976
   63SAPC  C219 5069   3.027   0.669   8.558  0.3607  0.1488 -0.6483
   63SAPC  H19R 5070   3.014   0.779   8.570 -1.1637  0.1630 -2.0975
   63SAPC  H19S 5071   3.132   0.647   8.584  0.1915  0.0722  0.0066
   63SAPC  C220 5072   2.934   0.594   8.653  0.1373 -0.1252 -0.0408
   63SAPC  H20R 5073   2.829   0.593   8.619  0.1142  0.8623 -0.0137
   63SAPC  H20S 5074   2.935   0.643   8.752 -0.1162 -1.3739  0.5908
   63SAPC  H20T 5075   2.968   0.488   8.656  0.2902 -0.0984 -0.6439
   63SAPC   C33 5076   2.064   0.565   7.243 -1.0434  0.3599 -0.5723
   63SAPC   H3X 5077   2.039   0.660   7.190  0.6027  1.4958  0.5784
   63SAPC   H3Y 5078   2.166   0.535   7.208  0.5453  1.0460  3.0661
   63SAPC   C34 5079   2.069   0.585   7.399 -0.0785 -0.4713 -0.1391
   63SAPC   H4X 5080   2.078   0.485   7.447 -0.0749 -0.2683  0.2869
   63SAPC   H4Y 5081   1.975   0.631   7.434  0.0944 -2.3211  3.2457
   63SAPC   C35 5082   2.185   0.677   7.440  0.1060  0.0221  0.6777
   63SAPC   H5X 5083   2.171   0.764   7.372 -1.7816  0.5475  1.6749
   63SAPC   H5Y 5084   2.285   0.638   7.410 -0.2251 -0.2570 -0.0901
   63SAPC   C36 5085   2.178   0.730   7.584 -0.1649 -0.3943  0.6095
   63SAPC   H6X 5086   2.082   0.783   7.605 -1.1692 -1.6131 -0.7287
   63SAPC   H6Y 5087   2.260   0.805   7.587  1.0376 -1.6077 -0.5387
   63SAPC   C37 5088   2.203   0.618   7.685  0.4974 -0.4791 -0.2184
   63SAPC   H7X 5089   2.300   0.564   7.673  1.7554  0.2594  4.5210
   63SAPC   H7Y 5090   2.118   0.547   7.678  1.5662 -1.6771 -1.8592
   63SAPC   C38 5091   2.196   0.666   7.833 -0.2118  0.6392 -0.0507
   63SAPC   H8X 5092   2.198   0.587   7.910  0.3726 -1.1026 -1.7764
   63SAPC   H8Y 5093   2.098   0.716   7.851 -0.7789 -0.0069 -1.2171
   63SAPC   C39 5094   2.310   0.763   7.887 -0.1499  0.0787  0.2742
   63SAPC   H9X 5095   2.276   0.812   7.981 -3.8621 -1.6076 -0.0138
   63SAPC   H9Y 5096   2.321   0.840   7.808 -1.4002  0.8920  0.8541
   63SAPC  C310 5097   2.438   0.698   7.922 -0.2939  0.4756 -0.0991
   63SAPC  H10X 5098   2.504   0.770   7.975 -3.0143  2.7794  0.4119
   63SAPC  H10Y 5099   2.495   0.664   7.834  0.8490  1.5297  0.1989
   63SAPC  C311 5100   2.419   0.578   8.015 -0.1432  0.6066  0.6147
   63SAPC  H11X 5101   2.385   0.499   7.946 -0.8497 -2.2504  3.9692
   63SAPC  H11Y 5102   2.337   0.598   8.087 -2.7760 -0.2111 -1.9610
   63SAPC  C312 5103   2.555   0.537   8.071  1.1608 -0.1032 -0.3543
   63SAPC  H12X 5104   2.574   0.612   8.151 -2.9618 -0.3561  1.1076
   63SAPC  H12Y 5105   2.629   0.554   7.989  1.4879  1.0509  0.1558
   63SAPC  C313 5106   2.565   0.391   8.109 -0.4663 -0.7112  0.4566
   63SAPC  H13X 5107   2.557   0.315   8.028 -1.0429  3.1069 -3.4663
   63SAPC  H13Y 5108   2.493   0.367   8.190 -2.2024 -3.7091 -1.7781
   63SAPC  C314 5109   2.701   0.366   8.170 -0.1591  0.7236 -0.1381
   63SAPC  H14X 5110   2.729   0.447   8.241  0.7054 -0.8969  1.4432
   63SAPC  H14Y 5111   2.773   0.374   8.086 -1.7726 -1.7543 -1.8828
   63SAPC  C315 5112   2.726   0.228   8.229 -0.3066  0.2697  0.2068
   63SAPC  H15X 5113   2.833   0.228   8.259 -0.4088  1.4764  0.6515
   63SAPC  H15Y 5114   2.710   0.149   8.153  1.2241  3.1028 -3.3889
   63SAPC  C316 5115   2.648   0.190   8.356 -0.3772  0.2566 -1.0556
   63SAPC  H16X 5116   2.706   0.103   8.393  0.0623  1.2423  0.6735
   63SAPC  H16Y 5117   2.545   0.164   8.324 -0.1336 -1.8813 -0.2435
   63SAPC  C317 5118   2.661   0.303   8.464  0.4616 -0.5803  0.5790
   63SAPC  H17X 5119   2.588   0.383   8.439  2.3505  1.0642  0.1252
   63SAPC  H17Y 5120   2.759   0.353   8.474 -0.7866  1.8184  1.5953
   63SAPC  C318 5121   2.626   0.258   8.608  0.0041  0.0036 -0.0382
   63SAPC  H18X 5122   2.664   0.155   8.625 -2.8990 -0.9412  1.4985
   63SAPC  H18Y 5123   2.515   0.256   8.618  0.1035 -1.7689  1.1408
   63SAPC  H18Z 5124   2.667   0.324   8.687  1.1162  0.7005 -1.1721
   64SAPC     N 5125   6.687   2.215   6.130 -0.5826  0.3196  0.1447
   64SAPC   C12 5126   6.682   2.083   6.049  0.1554 -0.4271  0.3823
   64SAPC  H12A 5127   6.774   2.032   6.074  0.8135  0.7470  0.4569
   64SAPC  H12B 5128   6.675   2.100   5.943  0.1664 -1.0223  0.2825
   64SAPC   C13 5129   6.781   2.310   6.060 -0.7675  0.2454  0.3292
   64SAPC  H13A 5130   6.886   2.302   6.084  0.1864  1.5724 -2.8895
   64SAPC  H13B 5131   6.759   2.300   5.955 -2.1186  1.3605  0.4761
   64SAPC  H13C 5132   6.767   2.414   6.083 -3.1513 -0.1278  0.8430
   64SAPC   C14 5133   6.554   2.282   6.128 -0.0990  0.2111  0.1510
   64SAPC  H14A 5134   6.567   2.370   6.190  1.4701 -0.0843  0.2785
   64SAPC  H14B 5135   6.533   2.305   6.024  1.8011 -1.4709 -0.6899
   64SAPC  H14C 5136   6.475   2.221   6.169 -0.6600  1.4751  1.0239
   64SAPC   C15 5137   6.745   2.210   6.271  0.1672 -0.0045  0.1202
   64SAPC  H15A 5138   6.748   2.310   6.312 -0.6403 -0.2486  0.7923
   64SAPC  H15B 5139   6.690   2.137   6.329 -0.8536  0.5357 -0.1605
   64SAPC  H15C 5140   6.843   2.164   6.267  0.8545  1.4626 -1.5602
   64SAPC   C11 5141   6.566   1.985   6.079  0.2516 -0.6483 -0.3992
   64SAPC  H11A 5142   6.589   1.901   6.010  0.8784  0.0738 -1.0942
   64SAPC  H11B 5143   6.468   2.014   6.035  1.6505  0.4475 -2.9995
   64SAPC     P 5144   6.432   1.942   6.309 -0.2002 -0.2002  0.2722
   64SAPC   O13 5145   6.345   2.041   6.242  0.0671 -0.1058  0.3708
   64SAPC   O14 5146   6.377   1.808   6.312  0.2754 -0.0513  0.4844
   64SAPC   O12 5147   6.568   1.946   6.219 -0.1681 -0.0169  0.1636
   64SAPC   O11 5148   6.475   1.991   6.452  0.5541  0.1775 -0.2114
   64SAPC    C1 5149   6.570   1.921   6.529 -0.7445  0.0583 -0.3029
   64SAPC    HA 5150   6.555   1.811   6.533  0.4357 -0.1472 -1.1301
   64SAPC    HB 5151   6.671   1.951   6.496 -0.1457 -1.9589 -0.4332
   64SAPC    C2 5152   6.556   1.955   6.680  0.2178 -0.4424  0.6578
   64SAPC    HS 5153   6.448   1.943   6.703 -0.0284  1.4728  0.6745
   64SAPC   O21 5154   6.591   2.088   6.703 -0.1270 -0.2627 -0.0487
   64SAPC   C21 5155   6.494   2.176   6.714 -0.7327 -0.3320  0.3806
   64SAPC   O22 5156   6.375   2.154   6.715  0.4628  0.3775 -0.8607
   64SAPC   C22 5157   6.560   2.318   6.727  0.4019 -0.3186 -0.2947
   64SAPC   H2R 5158   6.661   2.306   6.772  0.1391 -1.0384  0.1309
   64SAPC   H2S 5159   6.572   2.357   6.624  0.1599 -0.2796 -0.3102
   64SAPC    C3 5160   6.632   1.865   6.770 -0.2397 -0.1723 -0.0094
   64SAPC    HX 5161   6.732   1.858   6.724  0.1019 -2.9407  1.0026
   64SAPC    HY 5162   6.589   1.763   6.762 -0.0928 -0.2922  0.6694
   64SAPC   O31 5163   6.636   1.912   6.902 -0.7955 -0.0816  0.2361
   64SAPC   C31 5164   6.547   1.878   6.993  0.3654  0.3201  1.0248
   64SAPC   O32 5165   6.458   1.793   6.980 -0.2429 -0.0477 -0.0234
   64SAPC   C32 5166   6.588   1.937   7.126  0.4609 -0.3687 -0.0966
   64SAPC   H2X 5167   6.678   2.001   7.118 -0.9336  1.9865  1.6605
   64SAPC   H2Y 5168   6.589   1.845   7.190  0.0947  0.0621  0.5456
   64SAPC   C23 5169   6.464   2.409   6.815 -0.7220 -0.0947 -0.1982
   64SAPC   H3R 5170   6.374   2.427   6.752 -2.0715  0.6886  1.8475
   64SAPC   H3S 5171   6.514   2.508   6.810 -1.2593  0.1546 -0.8742
   64SAPC   C24 5172   6.453   2.371   6.962  0.9382 -0.5598  0.0085
   64SAPC   H4R 5173   6.428   2.262   6.963  1.4525 -0.6795  1.2404
   64SAPC   H4S 5174   6.374   2.437   7.004  1.8086  0.0395  0.7498
   64SAPC   C25 5175   6.580   2.388   7.038  0.2957  0.4949  0.2924
   64SAPC   H5R 5176   6.665   2.382   6.968 -2.2939 -1.4188 -3.0187
   64SAPC   C26 5177   6.596   2.431   7.163 -0.5239 -0.5472 -0.3522
   64SAPC   H6R 5178   6.699   2.441   7.199 -0.3956 -0.4089 -0.7522
   64SAPC   C27 5179   6.486   2.469   7.262 -0.4690  0.2681 -0.1132
   64SAPC   H7R 5180   6.447   2.375   7.305 -1.2968  0.0767 -1.2515
   64SAPC   H7S 5181   6.398   2.512   7.210 -0.0413 -0.9258 -1.9192
   64SAPC   C28 5182   6.526   2.560   7.379  0.6428 -0.0730  0.3953
   64SAPC   H8R 5183   6.562   2.656   7.340  1.6144 -0.4865  0.2475
   64SAPC   C29 5184   6.520   2.535   7.511  0.4089  0.8454 -0.3324
   64SAPC   H9R 5185   6.555   2.604   7.589  1.9486 -1.1419  0.8238
   64SAPC  C210 5186   6.473   2.405   7.576  0.5408 -0.5811 -0.0705
   64SAPC  H10R 5187   6.560   2.373   7.637  1.3937 -0.3851 -1.1518
   64SAPC  H10S 5188   6.452   2.316   7.513  1.4464 -0.0499 -1.1533
   64SAPC  C211 5189   6.349   2.414   7.661  0.5008 -0.1583 -0.1245
   64SAPC  H11R 5190   6.264   2.433   7.595 -0.5481  1.7784  1.6692
   64SAPC  C212 5191   6.336   2.410   7.792  0.2439  0.0214  0.1482
   64SAPC  H12R 5192   6.231   2.417   7.824  0.1524 -0.4835 -0.0231
   64SAPC  C213 5193   6.443   2.403   7.900  0.1794  0.6985 -1.0439
   64SAPC  H13R 5194   6.475   2.505   7.932 -2.5098  0.5447  2.8110
   64SAPC  H13S 5195   6.534   2.351   7.862  0.6909  0.9860 -0.2410
   64SAPC  C214 5196   6.379   2.329   8.019 -0.2127  0.1937  0.1510
   64SAPC  H14R 5197   6.322   2.238   7.995 -0.9649  0.7637 -0.2723
   64SAPC  C215 5198   6.409   2.355   8.145 -0.8729 -0.6029 -0.2177
   64SAPC  H15R 5199   6.356   2.296   8.221 -0.7840  0.7919  0.9674
   64SAPC  C216 5200   6.494   2.469   8.205  0.1378  0.3918  0.8692
   64SAPC  H16R 5201   6.473   2.564   8.151  2.2582  1.5205  1.9303
   64SAPC  H16S 5202   6.604   2.454   8.200 -0.0837 -1.4864  0.9460
   64SAPC  C217 5203   6.452   2.492   8.350 -0.3254  0.6488 -0.4664
   64SAPC  H17R 5204   6.508   2.427   8.421  0.2943  1.3158 -0.3357
   64SAPC  H17S 5205   6.344   2.466   8.360  0.3876 -1.8853  2.0234
   64SAPC  C218 5206   6.472   2.638   8.395  0.4106  0.0160  0.0780
   64SAPC  H18R 5207   6.421   2.705   8.323 -0.3360  0.3498  0.8945
   64SAPC  H18S 5208   6.576   2.675   8.409  1.7697 -3.0307 -1.1166
   64SAPC  C219 5209   6.405   2.661   8.528  0.1587  0.2417  0.1449
   64SAPC  H19R 5210   6.444   2.756   8.571  1.4133  0.7657 -2.0026
   64SAPC  H19S 5211   6.429   2.579   8.598  3.2605 -0.2780 -1.3745
   64SAPC  C220 5212   6.253   2.679   8.522 -0.2917 -1.0423  0.4042
   64SAPC  H20R 5213   6.231   2.724   8.621  0.1829 -1.1619  0.5667
   64SAPC  H20S 5214   6.203   2.585   8.490  0.0998 -1.4973  1.1071
   64SAPC  H20T 5215   6.235   2.756   8.444  0.2072 -0.6808  0.6398
   64SAPC   C33 5216   6.468   2.028   7.180  0.5252 -0.5443 -0.6640
   64SAPC   H3X 5217   6.384   1.955   7.188  0.2386 -0.0713  0.7703
   64SAPC   H3Y 5218   6.447   2.107   7.105 -0.0147 -2.3114 -2.4632
   64SAPC   C34 5219   6.500   2.085   7.319  0.4732 -0.1187 -0.8013
   64SAPC   H4X 5220   6.421   2.158   7.347  0.5726 -0.7071  1.1762
   64SAPC   H4Y 5221   6.595   2.143   7.319  0.0478  0.6536  1.1241
   64SAPC   C35 5222   6.521   1.976   7.427 -0.4096  0.1795  0.3586
   64SAPC   H5X 5223   6.609   1.909   7.412  0.0454  0.6777  0.7567
   64SAPC   H5Y 5224   6.431   1.911   7.432  0.8512 -1.8905 -1.6881
   64SAPC   C36 5225   6.537   2.030   7.572  0.8382 -0.8418  0.6143
   64SAPC   H6X 5226   6.449   2.091   7.601  2.4252  0.8500  2.1148
   64SAPC   H6Y 5227   6.619   2.105   7.566  0.6563 -0.7409 -1.8082
   64SAPC   C37 5228   6.571   1.924   7.677 -0.5863  0.5961  0.0305
   64SAPC   H7X 5229   6.679   1.938   7.703 -0.6261  2.8675 -0.8375
   64SAPC   H7Y 5230   6.562   1.818   7.644  0.6129  0.4840  0.0029
   64SAPC   C38 5231   6.480   1.949   7.800 -0.7502 -0.1452 -0.3653
   64SAPC   H8X 5232   6.377   1.920   7.768 -0.3333 -1.1702 -0.8020
   64SAPC   H8Y 5233   6.472   2.059   7.817 -0.8712 -0.0448 -1.0347
   64SAPC   C39 5234   6.517   1.868   7.920  0.6253  0.1200  0.4960
   64SAPC   H9X 5235   6.623   1.886   7.948  0.5793  0.6742  0.3161
   64SAPC   H9Y 5236   6.525   1.764   7.882 -0.4943  0.7189 -1.5299
   64SAPC  C310 5237   6.421   1.874   8.042 -0.4828  0.0712 -0.5182
   64SAPC  H10X 5238   6.315   1.862   8.010 -0.2174  0.4805 -1.5813
   64SAPC  H10Y 5239   6.433   1.975   8.086 -0.1766  0.2651 -1.0493
   64SAPC  C311 5240   6.452   1.774   8.164 -0.4249 -0.5225 -0.4690
   64SAPC  H11X 5241   6.551   1.802   8.205 -0.7105  2.3655 -1.5342
   64SAPC  H11Y 5242   6.460   1.670   8.128  0.3849 -1.7814  2.9567
   64SAPC  C312 5243   6.348   1.769   8.277 -0.2350  0.2692  0.1629
   64SAPC  H12X 5244   6.357   1.668   8.321  2.5197  0.4617  0.1975
   64SAPC  H12Y 5245   6.244   1.787   8.241 -0.4737  1.9010  1.4918
   64SAPC  C313 5246   6.361   1.882   8.386  0.1267  0.0570 -0.2457
   64SAPC  H13X 5247   6.361   1.983   8.339  0.3508 -0.9050 -2.4186
   64SAPC  H13Y 5248   6.467   1.855   8.404 -0.4249 -2.2079 -0.1096
   64SAPC  C314 5249   6.267   1.867   8.501  0.1664 -0.0288  0.0845
   64SAPC  H14X 5250   6.287   1.768   8.548  0.3628  1.0346  2.3985
   64SAPC  H14Y 5251   6.160   1.864   8.471 -0.5177  0.6894  2.2241
   64SAPC  C315 5252   6.278   1.970   8.612  0.4507  0.5471  0.2990
   64SAPC  H15X 5253   6.224   2.064   8.590 -0.0064  0.1487 -0.3197
   64SAPC  H15Y 5254   6.384   2.001   8.617  0.2381  1.3839 -0.2241
   64SAPC  C316 5255   6.233   1.909   8.749 -0.1244  0.2099  0.7156
   64SAPC  H16X 5256   6.254   1.982   8.829  0.3950  0.7098  0.1331
   64SAPC  H16Y 5257   6.289   1.816   8.773 -2.3336 -0.8551  2.0183
   64SAPC  C317 5258   6.086   1.868   8.768 -0.0732  0.2367  0.3845
   64SAPC  H17X 5259   6.067   1.777   8.706  0.0332  1.3069 -1.2929
   64SAPC  H17Y 5260   6.027   1.953   8.727  0.2904  0.7841  0.9928
   64SAPC  C318 5261   6.050   1.835   8.910  0.1544  0.2710 -0.1211
   64SAPC  H18X 5262   6.062   1.925   8.975  1.1002  1.0626 -1.3602
   64SAPC  H18Y 5263   6.121   1.756   8.941 -0.2021  0.4345  1.2124
   64SAPC  H18Z 5264   5.944   1.800   8.915 -0.6826  2.3910 -1.5041
   65SAPC     N 5265   1.352   5.664   6.315  0.3014 -0.5032  0.0917
   65SAPC   C12 5266   1.465   5.598   6.393 -0.3120 -0.1300  0.4075
   65SAPC  H12A 5267   1.541   5.669   6.422  2.1386 -2.5091  0.2371
   65SAPC  H12B 5268   1.516   5.529   6.328  0.6174  0.2997  0.6598
   65SAPC   C13 5269   1.245   5.561   6.296  0.5513  0.3798  0.0519
   65SAPC  H13A 5270   1.154   5.613   6.269  0.3001  0.9870  1.9232
   65SAPC  H13B 5271   1.269   5.495   6.215 -1.0624 -1.2218  0.8124
   65SAPC  H13C 5272   1.225   5.510   6.389 -0.3949  0.5037 -0.0737
   65SAPC   C14 5273   1.290   5.785   6.389  0.5841  0.4494  0.1358
   65SAPC  H14A 5274   1.295   5.776   6.496 -0.2761  0.9534  0.2253
   65SAPC  H14B 5275   1.339   5.872   6.348  2.8658 -1.5958 -1.8090
   65SAPC  H14C 5276   1.186   5.802   6.364  0.3082  0.8144  1.4591
   65SAPC   C15 5277   1.390   5.703   6.179  0.7116  0.3244  0.2959
   65SAPC  H15A 5278   1.310   5.758   6.131  1.2199  0.0669 -0.9029
   65SAPC  H15B 5279   1.481   5.759   6.168 -0.4908  2.1550 -0.8145
   65SAPC  H15C 5280   1.398   5.613   6.119 -0.0647 -0.0907  0.7933
   65SAPC   C11 5281   1.435   5.515   6.520  0.0296 -0.4217 -0.1779
   65SAPC  H11A 5282   1.378   5.587   6.583  1.5672  1.6984 -1.0818
   65SAPC  H11B 5283   1.527   5.496   6.580  0.8230  0.9990 -0.9071
   65SAPC     P 5284   1.402   5.265   6.416  0.0910 -0.1262  0.1891
   65SAPC   O13 5285   1.296   5.235   6.319  0.1167 -0.7496 -0.3870
   65SAPC   O14 5286   1.541   5.294   6.363 -0.1540  0.5899 -0.7568
   65SAPC   O12 5287   1.359   5.396   6.497 -0.0674  0.6082  0.4820
   65SAPC   O11 5288   1.413   5.150   6.527  0.2358  0.1237  0.6011
   65SAPC    C1 5289   1.340   5.166   6.644  0.3714 -0.3220  0.1805
   65SAPC    HA 5290   1.248   5.226   6.628  0.2607  0.2349  2.4924
   65SAPC    HB 5291   1.310   5.066   6.683 -1.2217  0.3722  0.8244
   65SAPC    C2 5292   1.432   5.233   6.749 -0.7255  0.3523 -0.8695
   65SAPC    HS 5293   1.458   5.337   6.721 -0.1380  0.5686  0.4513
   65SAPC   O21 5294   1.552   5.156   6.773  0.5363 -0.1102  0.0743
   65SAPC   C21 5295   1.645   5.223   6.841 -0.0506  0.2945 -1.0228
   65SAPC   O22 5296   1.637   5.335   6.889 -0.7268 -0.7928 -0.4377
   65SAPC   C22 5297   1.765   5.140   6.869 -0.5968  0.9843  0.0248
   65SAPC   H2R 5298   1.808   5.184   6.961 -1.7343 -2.2625  2.3046
   65SAPC   H2S 5299   1.739   5.044   6.918  0.5202  0.8759  0.4174
   65SAPC    C3 5300   1.352   5.246   6.879  0.0824  0.3068 -0.8153
   65SAPC    HX 5301   1.406   5.271   6.972 -0.1289  0.7756 -0.8152
   65SAPC    HY 5302   1.309   5.148   6.909 -2.2359  2.2103  2.7680
   65SAPC   O31 5303   1.242   5.330   6.848 -0.1168 -0.0464 -0.5133
   65SAPC   C31 5304   1.244   5.448   6.919 -0.1353 -0.1987 -0.3649
   65SAPC   O32 5305   1.344   5.489   6.984  0.3020 -0.0285 -0.5471
   65SAPC   C32 5306   1.111   5.518   6.914 -0.5111 -0.4893  0.0549
   65SAPC   H2X 5307   1.025   5.454   6.942  0.4533 -1.2947  1.3085
   65SAPC   H2Y 5308   1.118   5.540   6.805  0.2462 -0.7925  0.0395
   65SAPC   C23 5309   1.869   5.109   6.757  0.7158 -0.2974  0.1003
   65SAPC   H3R 5310   1.920   5.207   6.742 -0.1092  0.0106 -0.8045
   65SAPC   H3S 5311   1.827   5.073   6.661  2.8554  0.2149 -1.0872
   65SAPC   C24 5312   1.975   5.018   6.808 -0.2641  0.4552 -0.2666
   65SAPC   H4R 5313   2.007   5.057   6.907 -0.4930  0.5294 -0.2205
   65SAPC   H4S 5314   2.058   5.024   6.735 -0.7953 -0.9655 -1.0419
   65SAPC   C25 5315   1.929   4.875   6.821 -0.2504 -0.1060  0.6265
   65SAPC   H5R 5316   1.909   4.821   6.727 -1.8927  1.8104 -0.2128
   65SAPC   C26 5317   1.926   4.808   6.940  0.9083  0.0132 -0.0707
   65SAPC   H6R 5318   1.873   4.712   6.932  2.1204 -0.6812  0.0612
   65SAPC   C27 5319   1.952   4.853   7.080 -0.3131 -0.6169  1.0180
   65SAPC   H7R 5320   1.951   4.964   7.075  0.0260 -0.6662 -1.6711
   65SAPC   H7S 5321   2.059   4.832   7.103 -0.2302  0.5851  1.8286
   65SAPC   C28 5322   1.867   4.802   7.195 -0.5299  0.6223  0.1184
   65SAPC   H8R 5323   1.790   4.735   7.154  0.0894 -0.1405  0.1682
   65SAPC   C29 5324   1.862   4.852   7.322 -0.2321  0.5425  0.7173
   65SAPC   H9R 5325   1.794   4.811   7.398  1.3347  0.2452  2.0293
   65SAPC  C210 5326   1.952   4.964   7.378 -1.0717 -0.3325  0.4228
   65SAPC  H10R 5327   1.876   5.037   7.412 -0.7054  1.4630 -2.3312
   65SAPC  H10S 5328   2.015   5.019   7.306  1.4325 -0.6233  2.2611
   65SAPC  C211 5329   2.032   4.921   7.497  0.1822  0.1917  0.0527
   65SAPC  H11R 5330   2.071   4.819   7.479 -0.7019 -0.3579  1.1093
   65SAPC  C212 5331   2.056   4.989   7.613 -0.0949 -0.5677 -0.4343
   65SAPC  H12R 5332   2.119   4.932   7.683 -0.0569  1.8992  1.6907
   65SAPC  C213 5333   2.029   5.134   7.650 -0.1987 -0.0998 -0.7489
   65SAPC  H13R 5334   1.923   5.136   7.683  0.4105 -1.4700  1.5185
   65SAPC  H13S 5335   2.042   5.199   7.561  0.9751  0.6739 -0.0508
   65SAPC  C214 5336   2.119   5.179   7.760 -0.2685  0.5277 -0.3094
   65SAPC  H14R 5337   2.207   5.238   7.730 -0.9305  0.7705 -1.8707
   65SAPC  C215 5338   2.111   5.159   7.893  0.6220  0.2140 -0.5660
   65SAPC  H15R 5339   2.187   5.199   7.963  0.2278 -1.0484  0.6320
   65SAPC  C216 5340   1.999   5.083   7.974 -0.7213 -0.2040  0.2961
   65SAPC  H16R 5341   2.014   4.973   7.969 -1.4788 -0.3884  1.5449
   65SAPC  H16S 5342   1.902   5.103   7.922  0.3382  0.9314 -1.3313
   65SAPC  C217 5343   1.963   5.115   8.115 -0.4765  0.3343 -0.5508
   65SAPC  H17R 5344   2.052   5.117   8.182  0.7842 -2.8040 -1.9033
   65SAPC  H17S 5345   1.906   5.030   8.159  3.3451 -1.6386  1.1411
   65SAPC  C218 5346   1.900   5.249   8.121 -0.1000 -0.0341 -0.0165
   65SAPC  H18R 5347   1.818   5.252   8.045  0.7444 -0.0979 -0.9533
   65SAPC  H18S 5348   1.978   5.322   8.092  1.0741 -1.2152  0.0832
   65SAPC  C219 5349   1.837   5.285   8.260  0.3933  0.2447  0.5548
   65SAPC  H19R 5350   1.829   5.395   8.265  0.4452  0.1920  3.5654
   65SAPC  H19S 5351   1.899   5.245   8.342 -0.3240  0.0848  1.0321
   65SAPC  C220 5352   1.695   5.216   8.281  0.1827  0.8043 -0.3069
   65SAPC  H20R 5353   1.723   5.116   8.322  3.3969  2.3751  1.6958
   65SAPC  H20S 5354   1.642   5.201   8.184  0.3820 -1.0717 -0.1623
   65SAPC  H20T 5355   1.637   5.281   8.350 -1.3075  1.5362 -2.1624
   65SAPC   C33 5356   1.102   5.657   6.987 -0.8192 -0.8275  0.3694
   65SAPC   H3X 5357   1.013   5.710   6.948 -0.2024  1.8392  2.2901
   65SAPC   H3Y 5358   1.184   5.727   6.962 -1.3850 -0.3142 -0.0683
   65SAPC   C34 5359   1.087   5.620   7.130  0.2854  0.7249 -0.2859
   65SAPC   H4X 5360   1.171   5.559   7.168 -0.9013 -2.5910 -2.5697
   65SAPC   H4Y 5361   0.996   5.558   7.140  0.9852 -0.2293  0.3376
   65SAPC   C35 5362   1.063   5.739   7.213  0.5495  0.1181 -0.6425
   65SAPC   H5X 5363   0.960   5.778   7.201  0.6648  0.8230  0.4756
   65SAPC   H5Y 5364   1.144   5.808   7.180  2.2852 -1.1931  0.6426
   65SAPC   C36 5365   1.093   5.720   7.366  0.2549 -0.1524  0.2043
   65SAPC   H6X 5366   1.192   5.680   7.396 -0.2642 -0.5101  1.5025
   65SAPC   H6Y 5367   1.022   5.644   7.404  0.1387  0.1628  0.6247
   65SAPC   C37 5368   1.072   5.856   7.440  0.2382  0.6814 -0.9373
   65SAPC   H7X 5369   0.988   5.903   7.384 -0.9360 -1.0185 -0.6933
   65SAPC   H7Y 5370   1.166   5.913   7.425  0.6505 -0.3947 -2.7824
   65SAPC   C38 5371   1.050   5.847   7.598 -0.3454 -0.1098  0.7939
   65SAPC   H8X 5372   0.958   5.789   7.621 -0.7509  1.1002  2.4374
   65SAPC   H8Y 5373   1.037   5.951   7.636 -0.5143  0.2170 -0.1324
   65SAPC   C39 5374   1.170   5.788   7.683  0.6528  0.3500  0.0142
   65SAPC   H9X 5375   1.262   5.843   7.654 -0.7001  2.3466 -0.6674
   65SAPC   H9Y 5376   1.181   5.680   7.659 -1.7399  0.1230 -0.3139
   65SAPC  C310 5377   1.139   5.801   7.824  1.0161  0.4226 -0.1081
   65SAPC  H10X 5378   1.040   5.758   7.847  1.3206 -0.4697 -0.4147
   65SAPC  H10Y 5379   1.131   5.906   7.859  1.4625  0.1241  0.9139
   65SAPC  C311 5380   1.242   5.742   7.918 -0.5004  0.1417 -0.2439
   65SAPC  H11X 5381   1.338   5.792   7.895 -0.9827  1.2645  0.1215
   65SAPC  H11Y 5382   1.258   5.632   7.915 -0.6739  0.1048  0.1477
   65SAPC  C312 5383   1.221   5.769   8.062 -0.4134 -0.2985 -0.4909
   65SAPC  H12X 5384   1.133   5.716   8.105  0.4525 -0.8355  0.6375
   65SAPC  H12Y 5385   1.199   5.878   8.075 -2.6947 -0.5175 -1.8654
   65SAPC  C313 5386   1.349   5.745   8.144 -0.5143  0.5064 -0.3817
   65SAPC  H13X 5387   1.426   5.814   8.103 -0.6004  0.6358 -0.3265
   65SAPC  H13Y 5388   1.374   5.640   8.120  0.9129  0.7145  0.1103
   65SAPC  C314 5389   1.328   5.760   8.289  0.3349 -0.0958  0.0049
   65SAPC  H14X 5390   1.262   5.676   8.319  0.2506  0.5790  1.8611
   65SAPC  H14Y 5391   1.269   5.854   8.302  0.1685  0.0646 -1.6944
   65SAPC  C315 5392   1.454   5.766   8.370 -0.7909  0.4186 -0.4220
   65SAPC  H15X 5393   1.437   5.812   8.470  0.5048 -0.5909  0.2861
   65SAPC  H15Y 5394   1.528   5.833   8.321 -0.3629  0.4960  0.3153
   65SAPC  C316 5395   1.525   5.634   8.368  0.3978 -0.3886 -0.4171
   65SAPC  H16X 5396   1.556   5.602   8.267  0.2125  0.8667 -0.8851
   65SAPC  H16Y 5397   1.456   5.560   8.414 -1.3368  0.8824 -0.8820
   65SAPC  C317 5398   1.655   5.615   8.444 -0.0552 -0.1184 -0.6577
   65SAPC  H17X 5399   1.738   5.663   8.387  0.4898  0.4711  0.5834
   65SAPC  H17Y 5400   1.675   5.506   8.447  1.1087  0.1007  0.8299
   65SAPC  C318 5401   1.659   5.679   8.581  0.1612  0.9844 -0.2032
   65SAPC  H18X 5402   1.668   5.789   8.567 -2.4229  1.5520  1.6950
   65SAPC  H18Y 5403   1.741   5.639   8.644  1.4008  1.1339 -1.6677
   65SAPC  H18Z 5404   1.560   5.657   8.625 -0.6789  0.3072 -2.2821
   66SAPC     N 5405   3.933   1.480   5.862 -0.1711 -0.2399 -0.5479
   66SAPC   C12 5406   3.893   1.625   5.879  0.1578  0.2087 -0.1804
   66SAPC  H12A 5407   3.868   1.657   5.779  0.7197  0.2227 -0.3191
   66SAPC  H12B 5408   3.983   1.682   5.895  0.6312 -0.5088 -0.2437
   66SAPC   C13 5409   3.819   1.390   5.843 -0.6313 -0.1725 -0.7625
   66SAPC  H13A 5410   3.836   1.287   5.814 -1.2845 -0.7267  0.6950
   66SAPC  H13B 5411   3.771   1.384   5.940  0.4835 -2.5655 -0.2805
   66SAPC  H13C 5412   3.740   1.426   5.779 -0.5849 -0.3885 -0.9420
   66SAPC   C14 5413   4.026   1.469   5.742  0.0412 -0.5493  0.0458
   66SAPC  H14A 5414   4.097   1.550   5.746 -0.6241  0.0067  1.1337
   66SAPC  H14B 5415   4.087   1.382   5.762  1.0800  0.0525 -0.4146
   66SAPC  H14C 5416   3.974   1.466   5.648 -2.1167  1.7598  1.0684
   66SAPC   C15 5417   4.023   1.441   5.977  0.3968  0.4908 -0.2773
   66SAPC  H15A 5418   4.102   1.513   5.988  0.4417  0.3092  0.6849
   66SAPC  H15B 5419   3.971   1.445   6.072  1.5285  1.1236  0.3329
   66SAPC  H15C 5420   4.077   1.351   5.952  0.0719  0.3307 -0.4074
   66SAPC   C11 5421   3.777   1.665   5.978 -0.3405  0.6991  0.2194
   66SAPC  H11A 5422   3.681   1.613   5.962  0.9817 -1.5833 -0.6905
   66SAPC  H11B 5423   3.751   1.773   5.970  2.5911  1.3567 -2.9490
   66SAPC     P 5424   3.926   1.721   6.188 -0.0829  0.0699 -0.1599
   66SAPC   O13 5425   4.056   1.719   6.113 -0.6781  0.1505 -0.3216
   66SAPC   O14 5426   3.872   1.854   6.222  0.7974 -0.4164 -0.2994
   66SAPC   O12 5427   3.816   1.639   6.111  0.3973  0.3642 -0.2899
   66SAPC   O11 5428   3.944   1.644   6.330 -0.2947 -0.0753  0.3063
   66SAPC    C1 5429   4.051   1.552   6.355 -0.2545 -0.2356  0.4156
   66SAPC    HA 5430   4.027   1.446   6.336  1.8956 -0.6184 -0.5186
   66SAPC    HB 5431   4.140   1.588   6.298 -0.0772 -1.9262 -0.4328
   66SAPC    C2 5432   4.094   1.561   6.498  0.4649  0.2633 -0.2783
   66SAPC    HS 5433   4.190   1.505   6.499  0.7519  0.6454 -2.1804
   66SAPC   O21 5434   3.997   1.482   6.565 -0.3686  0.1530 -0.1677
   66SAPC   C21 5435   4.044   1.424   6.672  0.8461 -0.5224  0.1369
   66SAPC   O22 5436   4.159   1.424   6.711 -0.2295  0.8494 -0.3574
   66SAPC   C22 5437   3.940   1.356   6.751 -0.1098  0.5420 -1.0406
   66SAPC   H2R 5438   3.849   1.334   6.692 -1.1077 -1.1685  0.9959
   66SAPC   H2S 5439   3.972   1.254   6.781  1.5694  1.4161  0.3513
   66SAPC    C3 5440   4.102   1.708   6.552  0.0925  0.2565 -0.7833
   66SAPC    HX 5441   3.999   1.750   6.564  0.0319  0.1663 -0.9784
   66SAPC    HY 5442   4.154   1.775   6.481 -1.3578  1.6751 -0.5750
   66SAPC   O31 5443   4.183   1.712   6.677 -0.4561  0.1266  0.2083
   66SAPC   C31 5444   4.123   1.736   6.787 -0.0750 -0.1200 -0.1138
   66SAPC   O32 5445   4.005   1.763   6.801  0.4381 -0.1330 -0.0629
   66SAPC   C32 5446   4.226   1.731   6.899 -0.0309  0.1536  0.1064
   66SAPC   H2X 5447   4.322   1.774   6.864  0.3945  0.2329  1.3196
   66SAPC   H2Y 5448   4.258   1.629   6.929  3.3970  1.1717  0.2962
   66SAPC   C23 5449   3.892   1.439   6.877 -0.2388  0.2388  0.1243
   66SAPC   H3R 5450   3.866   1.544   6.852  0.4196  0.7959  1.6615
   66SAPC   H3S 5451   3.976   1.436   6.949 -0.0149 -1.2731 -0.1647
   66SAPC   C24 5452   3.774   1.371   6.944  0.2441 -0.4904 -0.5868
   66SAPC   H4R 5453   3.693   1.360   6.869  1.5969 -0.8153 -2.0564
   66SAPC   H4S 5454   3.735   1.441   7.021 -0.6897 -0.6995 -0.8575
   66SAPC   C25 5455   3.793   1.242   7.023  0.3778  0.3234  0.6506
   66SAPC   H5R 5456   3.756   1.153   6.969  3.0534 -0.8474  0.5982
   66SAPC   C26 5457   3.848   1.225   7.143 -0.0658 -0.0903 -0.5663
   66SAPC   H6R 5458   3.859   1.120   7.175 -2.9038 -0.0343  0.9668
   66SAPC   C27 5459   3.919   1.329   7.223  0.7612 -0.5460 -0.5371
   66SAPC   H7R 5460   3.915   1.426   7.168 -1.0526 -1.7249 -2.6813
   66SAPC   H7S 5461   4.026   1.302   7.219  1.2543  1.1974  0.2515
   66SAPC   C28 5462   3.886   1.325   7.370 -0.1223  1.3466  0.0171
   66SAPC   H8R 5463   3.797   1.384   7.397 -2.7641 -1.2241 -2.3475
   66SAPC   C29 5464   3.939   1.246   7.461  0.4320 -0.0838  0.1463
   66SAPC   H9R 5465   3.894   1.264   7.560  1.5216  2.9408  0.1864
   66SAPC  C210 5466   4.038   1.136   7.442 -0.4694  0.6699 -0.3459
   66SAPC  H10R 5467   4.144   1.157   7.465 -0.8722  1.7394  0.6536
   66SAPC  H10S 5468   4.054   1.104   7.337  2.2050 -0.0722  0.2254
   66SAPC  C211 5469   4.012   1.010   7.523 -0.3694  0.3021  0.4895
   66SAPC  H11R 5470   4.014   0.918   7.462  2.0539  0.4587  0.2413
   66SAPC  C212 5471   3.992   1.001   7.654  0.7447 -0.6239 -0.3639
   66SAPC  H12R 5472   3.974   0.896   7.681 -2.0153 -0.5976 -1.8054
   66SAPC  C213 5473   4.002   1.113   7.759  0.3129 -0.2861  0.1801
   66SAPC  H13R 5474   4.014   1.211   7.707  1.0497 -1.2584 -1.5665
   66SAPC  H13S 5475   4.099   1.093   7.809  1.9290 -2.2213 -3.3784
   66SAPC  C214 5476   3.884   1.110   7.855  0.2416 -0.4224 -0.3112
   66SAPC  H14R 5477   3.800   1.042   7.834 -0.4227  0.6765 -1.3757
   66SAPC  C215 5478   3.896   1.179   7.971 -0.4168  0.1397 -0.6540
   66SAPC  H15R 5479   3.810   1.164   8.038 -0.4976 -1.2980 -1.0496
   66SAPC  C216 5480   4.010   1.264   8.033  0.0708  0.2448  1.1035
   66SAPC  H16R 5481   3.976   1.369   8.048  1.9656  0.7279  2.4532
   66SAPC  H16S 5482   4.104   1.272   7.973 -0.7082 -1.0195 -0.3437
   66SAPC  C217 5483   4.045   1.200   8.174  0.0240 -0.1519 -0.2110
   66SAPC  H17R 5484   4.098   1.103   8.165 -1.3459 -1.0309  0.9179
   66SAPC  H17S 5485   3.960   1.202   8.246  1.3298 -0.1131  1.3907
   66SAPC  C218 5486   4.154   1.301   8.230 -0.7356  0.2360 -0.4449
   66SAPC  H18R 5487   4.123   1.408   8.240 -0.5732  0.1462  1.3197
   66SAPC  H18S 5488   4.241   1.305   8.161  1.0138  2.7919  1.7139
   66SAPC  C219 5489   4.198   1.264   8.369  0.0541 -0.1299  0.1600
   66SAPC  H19R 5490   4.303   1.299   8.371  0.0544  0.0204 -1.6028
   66SAPC  H19S 5491   4.210   1.155   8.390 -0.0930  0.1986  2.1956
   66SAPC  C220 5492   4.123   1.343   8.480  0.2141 -0.1251 -0.1275
   66SAPC  H20R 5493   4.119   1.303   8.583 -1.1363 -1.6317 -0.7282
   66SAPC  H20S 5494   4.018   1.360   8.446 -0.2392 -1.6880  0.4098
   66SAPC  H20T 5495   4.157   1.449   8.476  0.1656 -0.0898  0.2979
   66SAPC   C33 5496   4.176   1.805   7.026  0.0435  0.4389  0.3308
   66SAPC   H3X 5497   4.145   1.905   6.989  1.8811  0.5509 -1.0056
   66SAPC   H3Y 5498   4.259   1.823   7.098 -1.0293  0.7980  1.5172
   66SAPC   C34 5499   4.079   1.714   7.103 -0.6203 -1.2172  0.7367
   66SAPC   H4X 5500   4.130   1.620   7.134  2.4647 -0.3465 -1.3404
   66SAPC   H4Y 5501   4.007   1.682   7.025  1.3281 -0.5720 -1.4212
   66SAPC   C35 5502   4.007   1.785   7.212  0.1751 -0.4423  0.5768
   66SAPC   H5X 5503   3.922   1.726   7.252 -0.2834 -1.8250 -2.2062
   66SAPC   H5Y 5504   3.962   1.882   7.184  0.4086  0.4059  2.8684
   66SAPC   C36 5505   4.107   1.822   7.330  0.3153  0.1105 -0.5936
   66SAPC   H6X 5506   4.195   1.877   7.290  0.2031 -0.2397 -1.3466
   66SAPC   H6Y 5507   4.143   1.725   7.369 -2.2685 -0.6398  0.0851
   66SAPC   C37 5508   4.029   1.889   7.454  0.4522  0.0042 -0.0654
   66SAPC   H7X 5509   3.927   1.845   7.460  0.5890 -0.2579  0.4323
   66SAPC   H7Y 5510   3.994   1.990   7.427  1.2868 -0.2125 -2.1409
   66SAPC   C38 5511   4.110   1.871   7.581  0.0861  0.2286  0.0280
   66SAPC   H8X 5512   4.212   1.915   7.574  0.5297 -0.6472  0.8219
   66SAPC   H8Y 5513   4.127   1.765   7.610  1.2736  0.9852  2.3870
   66SAPC   C39 5514   4.047   1.925   7.708  0.7015 -0.1473  0.3066
   66SAPC   H9X 5515   4.102   1.865   7.784  0.1470  0.0415  0.8689
   66SAPC   H9Y 5516   3.937   1.908   7.717  0.6086 -0.3540 -0.9603
   66SAPC  C310 5517   4.079   2.072   7.734 -0.8678  0.4606  0.0339
   66SAPC  H10X 5518   4.066   2.134   7.643  0.5885  2.1939  0.9408
   66SAPC  H10Y 5519   4.187   2.083   7.758 -0.7340 -0.6423 -0.0177
   66SAPC  C311 5520   3.998   2.143   7.845  0.3533 -0.0978 -0.6239
   66SAPC  H11X 5521   3.900   2.167   7.801  1.4419  1.8764 -2.1116
   66SAPC  H11Y 5522   4.045   2.242   7.863 -0.5720  0.0745  1.0913
   66SAPC  C312 5523   4.008   2.067   7.980 -0.1926 -0.5692  0.6513
   66SAPC  H12X 5524   4.118   2.055   7.996  0.0398 -0.1835 -0.5371
   66SAPC  H12Y 5525   3.962   1.967   7.972  0.2518 -0.8625  1.5378
   66SAPC  C313 5526   3.948   2.143   8.093  0.4729 -0.4183 -0.0400
   66SAPC  H13X 5527   3.994   2.245   8.090 -0.4937  0.0103 -0.8763
   66SAPC  H13Y 5528   3.973   2.092   8.188 -0.0188 -2.3847 -0.9136
   66SAPC  C314 5529   3.796   2.161   8.077 -0.3499 -0.8027  0.0966
   66SAPC  H14X 5530   3.745   2.064   8.063 -0.0245 -0.7543 -1.7661
   66SAPC  H14Y 5531   3.791   2.214   7.979  0.4686 -0.5270  0.1994
   66SAPC  C315 5532   3.735   2.237   8.193 -0.4243 -0.1958  0.1980
   66SAPC  H15X 5533   3.752   2.347   8.189 -0.4541 -0.2312 -1.9322
   66SAPC  H15Y 5534   3.799   2.204   8.277  2.4797 -1.3717 -2.3053
   66SAPC  C316 5535   3.588   2.218   8.224 -0.5532 -0.5083 -0.6756
   66SAPC  H16X 5536   3.579   2.116   8.268  1.2887  0.0714  1.1460
   66SAPC  H16Y 5537   3.525   2.233   8.133 -1.5734 -2.9695 -0.4521
   66SAPC  C317 5538   3.547   2.326   8.324  0.7736 -0.3215 -0.5380
   66SAPC  H17X 5539   3.451   2.297   8.371 -0.5005  1.2294 -2.0572
   66SAPC  H17Y 5540   3.527   2.416   8.262 -0.4793 -1.4380 -1.7934
   66SAPC  C318 5541   3.640   2.359   8.437  0.0805 -0.5496 -0.7485
   66SAPC  H18X 5542   3.718   2.422   8.388  1.1044 -0.0114  1.4361
   66SAPC  H18Y 5543   3.690   2.269   8.480  0.2782  0.0010  0.2179
   66SAPC  H18Z 5544   3.599   2.416   8.523  0.2842 -1.5690  0.0454
   67SAPC     N 5545   6.448   3.723   5.887 -0.3036  0.5100 -0.1827
   67SAPC   C12 5546   6.540   3.775   5.990  0.7890 -0.4895  0.0347
   67SAPC  H12A 5547   6.510   3.757   6.093 -0.1111 -1.3214 -0.3604
   67SAPC  H12B 5548   6.544   3.882   5.980 -2.1943 -0.4286 -1.4477
   67SAPC   C13 5549   6.431   3.571   5.902  0.1738 -0.0561  0.8433
   67SAPC  H13A 5550   6.434   3.550   6.008 -4.7189  2.2654  1.7206
   67SAPC  H13B 5551   6.342   3.548   5.844  1.1224  0.8969 -1.0834
   67SAPC  H13C 5552   6.517   3.526   5.854  0.9293  1.8541  0.3223
   67SAPC   C14 5553   6.309   3.790   5.901 -0.7320 -0.0026  0.5023
   67SAPC  H14A 5554   6.270   3.790   6.001 -1.1953 -0.4513  0.3256
   67SAPC  H14B 5555   6.316   3.892   5.867  1.6190 -0.3318 -0.1680
   67SAPC  H14C 5556   6.240   3.749   5.828  0.4473  0.7297 -1.0862
   67SAPC   C15 5557   6.496   3.758   5.751  0.5502  0.3927  0.0816
   67SAPC  H15A 5558   6.593   3.720   5.723 -0.1398  0.1281 -2.1153
   67SAPC  H15B 5559   6.434   3.697   5.687  0.6852 -1.1314  1.3274
   67SAPC  H15C 5560   6.490   3.862   5.723 -1.5115 -0.2251 -2.0633
   67SAPC   C11 5561   6.693   3.735   5.995  0.6580 -0.5509 -0.5078
   67SAPC  H11A 5562   6.733   3.804   6.072 -1.6405 -0.9074  1.1382
   67SAPC  H11B 5563   6.740   3.752   5.896  0.9091 -1.0821 -0.4796
   67SAPC     P 5564   6.688   3.553   6.182  0.2163  0.1271  0.5095
   67SAPC   O13 5565   6.623   3.424   6.169  0.2473 -0.1145 -0.0450
   67SAPC   O14 5566   6.831   3.568   6.239  0.5361  0.3611 -0.4002
   67SAPC   O12 5567   6.699   3.603   6.030 -0.1346  0.3112  1.2385
   67SAPC   O11 5568   6.594   3.659   6.255  0.3548 -0.0618 -0.4221
   67SAPC    C1 5569   6.651   3.754   6.343 -0.5465  0.3045 -0.2413
   67SAPC    HA 5570   6.736   3.813   6.303  0.0953 -1.4457 -1.5472
   67SAPC    HB 5571   6.576   3.833   6.367 -0.1378  0.8756 -0.8098
   67SAPC    C2 5572   6.692   3.699   6.483 -0.3085 -0.3440  0.1918
   67SAPC    HS 5573   6.778   3.632   6.459 -1.3202 -1.7274  0.2540
   67SAPC   O21 5574   6.577   3.632   6.535  0.3096  0.4422 -0.2713
   67SAPC   C21 5575   6.580   3.507   6.567  0.1955 -0.7822 -0.3969
   67SAPC   O22 5576   6.672   3.428   6.568 -0.4685  0.0220  0.7890
   67SAPC   C22 5577   6.440   3.449   6.584 -0.4842 -0.8992  0.4848
   67SAPC   H2R 5578   6.368   3.525   6.621 -1.5547 -2.3799  1.5270
   67SAPC   H2S 5579   6.405   3.410   6.486 -0.2263 -1.2688  0.5364
   67SAPC    C3 5580   6.737   3.796   6.588 -0.3017 -0.8399  0.1249
   67SAPC    HX 5581   6.649   3.861   6.609 -0.2687 -1.1701  1.4050
   67SAPC    HY 5582   6.818   3.858   6.545  3.1049 -2.2260  3.9096
   67SAPC   O31 5583   6.767   3.735   6.715 -0.2186  0.2046  0.6962
   67SAPC   C31 5584   6.884   3.685   6.722 -0.1600 -0.2214  0.0800
   67SAPC   O32 5585   6.970   3.709   6.636 -0.4473 -0.3622  0.2434
   67SAPC   C32 5586   6.916   3.602   6.845  0.6297 -0.3475 -0.0031
   67SAPC   H2X 5587   7.014   3.551   6.827  0.6165 -0.3043 -0.2027
   67SAPC   H2Y 5588   6.846   3.516   6.855  1.4122 -1.1121 -0.9117
   67SAPC   C23 5589   6.431   3.326   6.688  0.3944 -0.0010 -0.7700
   67SAPC   H3R 5590   6.522   3.263   6.696  1.0526  0.9029 -0.8756
   67SAPC   H3S 5591   6.352   3.258   6.651  0.7290 -0.9414  0.2109
   67SAPC   C24 5592   6.385   3.391   6.826 -0.6213  0.2331  0.0210
   67SAPC   H4R 5593   6.366   3.306   6.894  1.6609 -1.2943 -1.1130
   67SAPC   H4S 5594   6.293   3.447   6.798 -1.0294  0.6058  1.9384
   67SAPC   C25 5595   6.496   3.492   6.868 -0.5961 -0.4093 -0.4176
   67SAPC   H5R 5596   6.510   3.587   6.814  0.0677  0.2598  0.8744
   67SAPC   C26 5597   6.571   3.481   6.981  0.5827 -0.6812  0.6423
   67SAPC   H6R 5598   6.657   3.549   6.995  0.3536 -0.3194  0.2918
   67SAPC   C27 5599   6.561   3.380   7.089  0.1572 -0.2308 -0.6084
   67SAPC   H7R 5600   6.655   3.384   7.148  0.2473  0.2740 -0.7803
   67SAPC   H7S 5601   6.543   3.277   7.055  0.6167 -0.9935  1.3155
   67SAPC   C28 5602   6.446   3.433   7.174  0.3874  0.2793  0.0981
   67SAPC   H8R 5603   6.344   3.421   7.136  0.6370 -1.4045 -0.1247
   67SAPC   C29 5604   6.452   3.485   7.303  0.6924 -0.2342 -0.0448
   67SAPC   H9R 5605   6.365   3.514   7.362  0.8101 -0.3157  0.1713
   67SAPC  C210 5606   6.578   3.506   7.388 -0.3274  0.0829  0.0483
   67SAPC  H10R 5607   6.569   3.597   7.450 -1.5360 -0.9004  1.4051
   67SAPC  H10S 5608   6.667   3.527   7.325 -0.4371 -1.6391 -0.7466
   67SAPC  C211 5609   6.594   3.386   7.474 -0.6769  0.3329 -0.0468
   67SAPC  H11R 5610   6.630   3.298   7.419 -1.3089 -0.3531  0.6148
   67SAPC  C212 5611   6.578   3.377   7.611  0.5647 -0.1166  0.4779
   67SAPC  H12R 5612   6.600   3.278   7.654  1.8240 -0.3817 -0.7077
   67SAPC  C213 5613   6.536   3.489   7.704  0.9770  0.4424  0.1910
   67SAPC  H13R 5614   6.588   3.584   7.677 -0.5269  1.3430  0.3532
   67SAPC  H13S 5615   6.557   3.469   7.811 -0.2361  0.1130  0.3889
   67SAPC  C214 5616   6.382   3.502   7.687 -0.1325 -0.0752  0.1461
   67SAPC  H14R 5617   6.344   3.496   7.584  0.8891  0.4519 -0.2765
   67SAPC  C215 5618   6.301   3.539   7.786  0.1863  0.1333  0.1881
   67SAPC  H15R 5619   6.201   3.575   7.758  0.2115  0.7061  0.8157
   67SAPC  C216 5620   6.333   3.562   7.932  0.0258 -0.7210 -0.5112
   67SAPC  H16R 5621   6.316   3.670   7.950  1.8305 -0.4615 -0.1551
   67SAPC  H16S 5622   6.440   3.550   7.960 -0.3683 -1.4844  0.7563
   67SAPC  C217 5623   6.242   3.491   8.029  0.3503 -0.2902 -0.1265
   67SAPC  H17R 5624   6.275   3.386   8.022 -0.9699 -0.6259 -2.1397
   67SAPC  H17S 5625   6.133   3.500   8.009  0.4668  4.3184  0.1307
   67SAPC  C218 5626   6.269   3.529   8.172 -0.1721 -0.1113  0.0195
   67SAPC  H18R 5627   6.227   3.627   8.203 -0.0868 -0.3005  0.7541
   67SAPC  H18S 5628   6.379   3.533   8.184 -0.3369  0.9993  1.4121
   67SAPC  C219 5629   6.209   3.420   8.256 -0.5407  0.1663 -0.5309
   67SAPC  H19R 5630   6.275   3.331   8.261 -0.6865  0.0939  3.6713
   67SAPC  H19S 5631   6.106   3.384   8.237 -0.2002 -1.4392  0.4249
   67SAPC  C220 5632   6.205   3.469   8.405 -0.6055  0.2367 -0.5293
   67SAPC  H20R 5633   6.151   3.566   8.403 -1.7574 -0.3364  0.8040
   67SAPC  H20S 5634   6.303   3.481   8.457  0.0860 -2.2413 -1.0980
   67SAPC  H20T 5635   6.152   3.393   8.466  1.9971 -0.1431  1.4833
   67SAPC   C33 5636   6.934   3.684   6.967 -0.1115  0.3599  0.5104
   67SAPC   H3X 5637   6.844   3.741   6.999  0.5603  0.8508  1.5767
   67SAPC   H3Y 5638   7.015   3.756   6.945  0.8480 -0.9302 -0.3354
   67SAPC   C34 5639   6.967   3.595   7.090  0.3485 -0.8261  0.4713
   67SAPC   H4X 5640   7.073   3.563   7.082  0.4378 -0.0831 -2.3951
   67SAPC   H4Y 5641   6.909   3.500   7.089  1.6633 -1.6522  0.2627
   67SAPC   C35 5642   6.938   3.661   7.220 -0.7063  0.2373  0.2797
   67SAPC   H5X 5643   6.831   3.692   7.224 -0.8468 -0.2503  0.3588
   67SAPC   H5Y 5644   6.994   3.757   7.222 -0.1350 -0.0861  0.0511
   67SAPC   C36 5645   6.964   3.571   7.339  0.9393 -0.8398 -0.5379
   67SAPC   H6X 5646   7.075   3.562   7.338  1.2066  1.8158 -1.7419
   67SAPC   H6Y 5647   6.913   3.474   7.321 -1.1517 -0.6571  3.4034
   67SAPC   C37 5648   6.934   3.643   7.471 -1.6737  0.8762 -0.4385
   67SAPC   H7X 5649   6.826   3.671   7.473 -1.7758  0.4841  1.9723
   67SAPC   H7Y 5650   6.997   3.730   7.496  2.0147 -1.9916  1.1935
   67SAPC   C38 5651   6.963   3.552   7.587  0.1445  0.0108  0.6910
   67SAPC   H8X 5652   7.069   3.521   7.589  0.3184  0.3853 -1.0662
   67SAPC   H8Y 5653   6.892   3.467   7.595 -0.0549  0.2081  1.0637
   67SAPC   C39 5654   6.934   3.619   7.724 -0.3385  0.3877 -0.6266
   67SAPC   H9X 5655   6.837   3.673   7.730  0.9200  2.8425 -1.5023
   67SAPC   H9Y 5656   7.013   3.692   7.748  1.0073 -2.0160  3.3562
   67SAPC  C310 5657   6.940   3.522   7.850  0.9343  0.3768  0.2423
   67SAPC  H10X 5658   7.038   3.470   7.845  0.9676  0.5291 -1.0319
   67SAPC  H10Y 5659   6.865   3.447   7.819  0.8094  0.4548  0.3592
   67SAPC  C311 5660   6.905   3.567   7.985  0.4942 -0.5971  0.0224
   67SAPC  H11X 5661   6.800   3.605   7.983 -0.2386 -2.5372 -1.0489
   67SAPC  H11Y 5662   6.982   3.641   8.014  1.5076 -1.3086 -0.7754
   67SAPC  C312 5663   6.904   3.452   8.093  0.2311  0.4150 -0.0163
   67SAPC  H12X 5664   7.006   3.408   8.101  0.4046  0.7852 -0.1611
   67SAPC  H12Y 5665   6.839   3.365   8.069 -1.9383  1.4276  1.8137
   67SAPC  C313 5666   6.868   3.504   8.235 -0.4567  0.2774 -0.2790
   67SAPC  H13X 5667   6.762   3.534   8.250 -0.5706 -0.7694  1.3175
   67SAPC  H13Y 5668   6.925   3.594   8.266 -1.8631  0.8106  0.9019
   67SAPC  C314 5669   6.898   3.388   8.343 -0.9502 -0.5685  0.6911
   67SAPC  H14X 5670   7.006   3.362   8.343 -0.7237  0.1841 -1.1492
   67SAPC  H14Y 5671   6.830   3.309   8.304 -1.1087  0.4714 -1.2389
   67SAPC  C315 5672   6.861   3.422   8.481  0.7815 -0.4588  0.0995
   67SAPC  H15X 5673   6.863   3.330   8.544  0.6551 -0.0642  0.6908
   67SAPC  H15Y 5674   6.764   3.475   8.490  2.6939  3.0994  1.7193
   67SAPC  C316 5675   6.960   3.527   8.531  0.7548 -0.0071  0.4977
   67SAPC  H16X 5676   6.917   3.616   8.480 -0.2459 -0.9582 -0.3543
   67SAPC  H16Y 5677   7.059   3.496   8.490 -0.5283 -1.2750 -1.8640
   67SAPC  C317 5678   6.978   3.545   8.677  0.8864 -0.7667 -0.4821
   67SAPC  H17X 5679   7.013   3.446   8.715  0.9935 -0.0604  1.3882
   67SAPC  H17Y 5680   6.875   3.571   8.710  1.0456  1.1018 -1.3407
   67SAPC  C318 5681   7.076   3.655   8.709  0.0464  0.4423  0.3443
   67SAPC  H18X 5682   7.176   3.649   8.659  0.7917  0.4881  1.7963
   67SAPC  H18Y 5683   7.082   3.667   8.819  0.4135 -1.3348  0.5532
   67SAPC  H18Z 5684   7.023   3.745   8.670 -1.2917 -0.7954 -0.8274
   68SAPC     N 5685   5.736   2.775   6.054 -0.4348 -0.1799 -1.1039
   68SAPC   C12 5686   5.597   2.821   6.062 -0.0259  0.1559  0.1008
   68SAPC  H12A 5687   5.570   2.836   6.166  0.5922 -0.8568  0.4217
   68SAPC  H12B 5688   5.530   2.740   6.035  0.4412 -0.8886  1.8838
   68SAPC   C13 5689   5.748   2.636   6.121 -0.6324  0.1221  0.2825
   68SAPC  H13A 5690   5.707   2.628   6.220 -2.9452 -1.3125 -0.7075
   68SAPC  H13B 5691   5.694   2.556   6.073  1.8940 -2.1952  1.0485
   68SAPC  H13C 5692   5.849   2.600   6.116 -0.5163  0.3463  0.9118
   68SAPC   C14 5693   5.789   2.770   5.918  0.2750  0.0277 -0.3882
   68SAPC  H14A 5694   5.779   2.867   5.872 -0.3892  1.0156  1.6852
   68SAPC  H14B 5695   5.893   2.746   5.929  0.2482  0.5750  1.3581
   68SAPC  H14C 5696   5.742   2.701   5.849  0.5316 -1.9967  1.3456
   68SAPC   C15 5697   5.821   2.873   6.131 -0.5526  0.6640 -0.0401
   68SAPC  H15A 5698   5.920   2.828   6.133 -0.6463  0.4427 -0.2630
   68SAPC  H15B 5699   5.825   2.968   6.081  2.8241  0.3318 -0.7017
   68SAPC  H15C 5700   5.795   2.880   6.235  1.4377  1.8241  0.4400
   68SAPC   C11 5701   5.552   2.942   5.972  0.0141 -1.0427  0.2116
   68SAPC  H11A 5702   5.562   2.909   5.866  1.2833 -2.7692  0.8307
   68SAPC  H11B 5703   5.617   3.031   5.983 -0.2212 -0.7681 -0.5298
   68SAPC     P 5704   5.373   3.077   6.109  0.2006  0.1542 -0.0775
   68SAPC   O13 5705   5.472   3.188   6.110 -0.4684 -0.0149  0.1148
   68SAPC   O14 5706   5.232   3.110   6.105  0.6309  0.0778 -0.0673
   68SAPC   O12 5707   5.414   2.966   5.998 -0.7373 -0.0069  0.5395
   68SAPC   O11 5708   5.400   2.995   6.237 -0.1935 -0.0638  0.1490
   68SAPC    C1 5709   5.303   2.929   6.316 -0.3074  0.3790 -0.2655
   68SAPC    HA 5710   5.227   2.883   6.250 -0.3729  1.4803 -0.9871
   68SAPC    HB 5711   5.352   2.850   6.377 -0.0515 -0.7866 -1.9387
   68SAPC    C2 5712   5.239   3.027   6.421 -0.1874 -0.7251 -0.0211
   68SAPC    HS 5713   5.170   3.085   6.357 -0.1266 -1.1008 -0.4371
   68SAPC   O21 5714   5.347   3.099   6.487 -0.2377  0.6741 -0.3031
   68SAPC   C21 5715   5.315   3.206   6.560 -0.2492  0.0226 -0.3085
   68SAPC   O22 5716   5.206   3.254   6.577  0.3713  1.0067  0.4872
   68SAPC   C22 5717   5.446   3.262   6.624  0.3272  0.7036  0.6011
   68SAPC   H2R 5718   5.508   3.175   6.654  0.7230  1.0209  0.7167
   68SAPC   H2S 5719   5.494   3.322   6.543 -0.1064  1.0411  0.5921
   68SAPC    C3 5720   5.142   2.963   6.525  0.3422 -0.0055  0.4042
   68SAPC    HX 5721   5.099   3.047   6.583  0.4096  0.5583 -0.3582
   68SAPC    HY 5722   5.199   2.903   6.599  0.9936 -0.1744 -0.2268
   68SAPC   O31 5723   5.049   2.878   6.455  0.3449  0.0379 -0.0644
   68SAPC   C31 5724   4.956   2.825   6.545  0.2910 -0.0402 -0.4792
   68SAPC   O32 5725   4.927   2.876   6.652 -0.4011  0.1325 -0.1423
   68SAPC   C32 5726   4.888   2.711   6.472  0.5427  0.3248  0.3286
   68SAPC   H2X 5727   4.955   2.622   6.479  1.3807  1.0038  1.3051
   68SAPC   H2Y 5728   4.869   2.746   6.369 -0.3541  0.8253  0.6626
   68SAPC   C23 5729   5.407   3.350   6.749 -1.1270  0.5618 -0.3814
   68SAPC   H3R 5730   5.354   3.291   6.826 -0.1308 -1.7818 -1.3857
   68SAPC   H3S 5731   5.340   3.429   6.711 -1.9937 -0.3400 -0.7694
   68SAPC   C24 5732   5.532   3.406   6.816 -0.4197 -0.9271 -0.1298
   68SAPC   H4R 5733   5.493   3.476   6.893 -2.0914 -1.6366 -0.2753
   68SAPC   H4S 5734   5.602   3.457   6.747 -0.2279 -0.8286  0.1370
   68SAPC   C25 5735   5.610   3.299   6.882 -0.8197  0.5707  0.4564
   68SAPC   H5R 5736   5.663   3.230   6.816  0.2028 -1.2750  3.0542
   68SAPC   C26 5737   5.613   3.268   7.014 -0.1735  0.1005  0.4594
   68SAPC   H6R 5738   5.681   3.186   7.043  0.0464 -0.2959 -1.0871
   68SAPC   C27 5739   5.549   3.344   7.128 -0.4405 -0.5112 -0.6897
   68SAPC   H7R 5740   5.545   3.270   7.211 -0.2605  0.1868 -0.0387
   68SAPC   H7S 5741   5.447   3.382   7.105 -1.0368  0.0126  2.3512
   68SAPC   C28 5742   5.630   3.467   7.177  0.1916 -0.3682  0.6820
   68SAPC   H8R 5743   5.716   3.497   7.116  0.3018  2.1419  1.9306
   68SAPC   C29 5744   5.620   3.528   7.294 -0.5232  0.3835 -0.2254
   68SAPC   H9R 5745   5.700   3.602   7.307  1.9815 -2.0975 -0.5635
   68SAPC  C210 5746   5.523   3.519   7.411 -0.5634 -0.0788  0.4494
   68SAPC  H10R 5747   5.417   3.497   7.384 -0.1423 -2.2441  0.4309
   68SAPC  H10S 5748   5.523   3.620   7.458 -1.9227  0.4080 -0.5163
   68SAPC  C211 5749   5.562   3.410   7.500  0.6497  0.0503  0.5831
   68SAPC  H11R 5750   5.578   3.315   7.446 -1.9882 -0.1161 -0.0693
   68SAPC  C212 5751   5.574   3.414   7.631 -0.6147  0.1829 -0.5003
   68SAPC  H12R 5752   5.623   3.333   7.687  0.3383  1.9861  1.4087
   68SAPC  C213 5753   5.550   3.534   7.716 -0.1700 -0.5901 -0.8228
   68SAPC  H13R 5754   5.452   3.516   7.765  0.7286  0.4304  1.4898
   68SAPC  H13S 5755   5.548   3.632   7.664  3.7290  0.7940  1.1823
   68SAPC  C214 5756   5.660   3.557   7.814 -0.6590 -0.1622 -1.0654
   68SAPC  H14R 5757   5.743   3.624   7.788  0.7005  0.1859  3.2863
   68SAPC  C215 5758   5.664   3.506   7.939  0.2955 -0.4572 -0.1211
   68SAPC  H15R 5759   5.744   3.544   8.005  1.2698 -0.3829 -1.3011
   68SAPC  C216 5760   5.566   3.420   8.008 -0.9264 -0.1592 -0.5398
   68SAPC  H16R 5761   5.626   3.359   8.079 -0.0339  2.0191  0.6903
   68SAPC  H16S 5762   5.507   3.354   7.941 -1.2191  1.4835 -1.9626
   68SAPC  C217 5763   5.466   3.495   8.095  0.5673 -0.8968 -0.5020
   68SAPC  H17R 5764   5.375   3.435   8.115 -0.2092  0.9038  1.8189
   68SAPC  H17S 5765   5.431   3.585   8.040 -0.7846 -0.1751  1.4709
   68SAPC  C218 5766   5.518   3.539   8.237  0.3230  0.0353 -0.8807
   68SAPC  H18R 5767   5.493   3.646   8.252  2.4284  0.4542  0.0061
   68SAPC  H18S 5768   5.629   3.539   8.243  0.3419  0.5877 -1.0911
   68SAPC  C219 5769   5.440   3.471   8.352 -0.2087  0.5085  0.5164
   68SAPC  H19R 5770   5.457   3.362   8.339  1.1537  0.6783  0.7002
   68SAPC  H19S 5771   5.333   3.501   8.342 -0.1839  0.6270  0.5994
   68SAPC  C220 5772   5.496   3.519   8.485  0.0509  0.2524  0.7550
   68SAPC  H20R 5773   5.435   3.472   8.565 -1.8588  0.1830 -0.6770
   68SAPC  H20S 5774   5.494   3.630   8.487  2.3503  0.4719 -2.0244
   68SAPC  H20T 5775   5.604   3.496   8.490 -0.1110 -2.0724 -2.7327
   68SAPC   C33 5776   4.754   2.675   6.538 -0.1341  0.7780 -0.2953
   68SAPC   H3X 5777   4.676   2.626   6.476 -1.0794  0.2064  1.2819
   68SAPC   H3Y 5778   4.705   2.769   6.571  2.4935  0.8672  4.1782
   68SAPC   C34 5779   4.783   2.591   6.662  0.4678  0.0541 -0.4579
   68SAPC   H4X 5780   4.849   2.647   6.730 -0.4424 -0.5587  0.9739
   68SAPC   H4Y 5781   4.838   2.497   6.643  2.5940  0.6501  2.2592
   68SAPC   C35 5782   4.656   2.558   6.748 -0.1057  0.0362 -0.0626
   68SAPC   H5X 5783   4.589   2.493   6.689 -0.6453  0.9771 -0.5136
   68SAPC   H5Y 5784   4.601   2.649   6.779 -2.2840 -1.3649  0.4110
   68SAPC   C36 5785   4.700   2.493   6.884 -0.7944  0.0069 -0.7154
   68SAPC   H6X 5786   4.788   2.428   6.864 -0.5703 -0.7099  2.2266
   68SAPC   H6Y 5787   4.624   2.426   6.928 -1.4801  0.0585 -1.7901
   68SAPC   C37 5788   4.740   2.592   6.998 -1.1606 -0.4448 -0.0568
   68SAPC   H7X 5789   4.641   2.627   7.036 -1.5995  1.4624 -2.6284
   68SAPC   H7Y 5790   4.784   2.684   6.954 -0.8796 -0.5024  0.1039
   68SAPC   C38 5791   4.825   2.526   7.105 -0.2306  0.4104 -0.2984
   68SAPC   H8X 5792   4.927   2.502   7.069  0.1505  0.8671  0.4354
   68SAPC   H8Y 5793   4.788   2.430   7.148  0.5535  0.8699  1.4998
   68SAPC   C39 5794   4.839   2.618   7.227  0.0418  1.2009  0.1033
   68SAPC   H9X 5795   4.742   2.657   7.264 -2.4980 -1.5332 -3.1665
   68SAPC   H9Y 5796   4.898   2.703   7.186  1.0708  0.3279 -0.2483
   68SAPC  C310 5797   4.913   2.545   7.338  0.3602 -0.1890 -0.1562
   68SAPC  H10X 5798   5.014   2.514   7.302  0.8354 -0.6717  1.4944
   68SAPC  H10Y 5799   4.859   2.452   7.364  1.3639 -1.1244 -1.3103
   68SAPC  C311 5800   4.933   2.636   7.462  0.3013 -0.7654 -0.1699
   68SAPC  H11X 5801   4.839   2.666   7.514  1.2088 -0.7545  1.5346
   68SAPC  H11Y 5802   4.993   2.722   7.427  1.3999 -2.0301 -1.5150
   68SAPC  C312 5803   5.014   2.561   7.568 -0.4544 -0.5170 -0.6328
   68SAPC  H12X 5804   5.120   2.540   7.543 -0.4459 -1.6814  0.2657
   68SAPC  H12Y 5805   4.965   2.465   7.593 -2.0241  0.3195 -0.3401
   68SAPC  C313 5806   5.025   2.651   7.694 -0.3159 -0.0438  0.8561
   68SAPC  H13X 5807   4.923   2.652   7.737  1.0418  2.1304  4.5038
   68SAPC  H13Y 5808   5.055   2.754   7.663 -1.4229 -0.6581 -2.6085
   68SAPC  C314 5809   5.123   2.590   7.786  0.1797 -0.4447 -0.7668
   68SAPC  H14X 5810   5.223   2.575   7.740  0.8558  0.0329  0.5004
   68SAPC  H14Y 5811   5.098   2.489   7.825 -2.3064  1.1480  2.2072
   68SAPC  C315 5812   5.139   2.666   7.923 -0.0760 -0.3115  0.1177
   68SAPC  H15X 5813   5.039   2.675   7.971 -0.6861  2.4610 -1.4662
   68SAPC  H15Y 5814   5.175   2.770   7.906 -1.7320 -0.0519 -2.2825
   68SAPC  C316 5815   5.244   2.596   8.008 -0.3287  0.3679  0.2657
   68SAPC  H16X 5816   5.344   2.597   7.960 -0.2771 -1.5998  0.2716
   68SAPC  H16Y 5817   5.218   2.489   8.020 -0.9448  0.5213  0.3317
   68SAPC  C317 5818   5.252   2.661   8.150 -0.1412 -0.9261 -0.1657
   68SAPC  H17X 5819   5.162   2.717   8.181  1.0214  1.6193 -1.1280
   68SAPC  H17Y 5820   5.326   2.744   8.147 -1.2294  0.0342 -1.1641
   68SAPC  C318 5821   5.265   2.551   8.260  0.2752  0.4515 -0.4599
   68SAPC  H18X 5822   5.363   2.500   8.266  0.9342  1.6787 -0.3659
   68SAPC  H18Y 5823   5.188   2.471   8.263  0.7669 -0.0819 -1.5946
   68SAPC  H18Z 5824   5.233   2.613   8.348  0.2732  1.3632 -1.0859
   69SLPC     N 5825   1.853   3.133  11.080 -0.5376  0.0297  0.2577
   69SLPC   C13 5826   1.922   3.149  11.213  0.2512  0.0399  0.3978
   69SLPC  H13A 5827   1.985   3.062  11.227  0.6855 -0.1785 -2.3140
   69SLPC  H13B 5828   1.995   3.228  11.204 -0.9086  0.8904 -3.4819
   69SLPC  H13C 5829   1.844   3.162  11.286 -1.3497  1.8818 -1.5305
   69SLPC   C14 5830   1.778   3.260  11.053  0.1684 -0.0479 -0.2013
   69SLPC  H14A 5831   1.703   3.256  10.976 -0.8969  1.7671  0.6609
   69SLPC  H14B 5832   1.729   3.287  11.146  0.7320 -1.4024  0.5217
   69SLPC  H14C 5833   1.852   3.335  11.028  0.7011 -1.0160 -1.6737
   69SLPC   C15 5834   1.754   3.024  11.093  0.4187 -0.4443  0.6510
   69SLPC  H15A 5835   1.676   3.057  11.159 -0.8457  0.4896 -1.2027
   69SLPC  H15B 5836   1.697   3.018  11.001  0.7673  0.2524  0.3846
   69SLPC  H15C 5837   1.784   2.925  11.122 -1.4919 -0.4913  2.7464
   69SLPC   C12 5838   1.942   3.103  10.956 -0.2529  1.0622 -0.2478
   69SLPC  H12A 5839   1.875   3.070  10.879 -0.9683  1.8933  0.0037
   69SLPC  H12B 5840   2.017   3.028  10.979  0.8547  1.6761 -1.6998
   69SLPC   C11 5841   2.034   3.217  10.898  0.3944 -0.0335  0.9395
   69SLPC  H11A 5842   1.971   3.298  10.855  1.3619  0.3767  0.2631
   69SLPC  H11B 5843   2.084   3.196  10.801  1.3096 -1.0099  1.6051
   69SLPC     P 5844   2.247   3.183  11.049  0.1201 -0.2216 -0.5678
   69SLPC   O13 5845   2.322   3.266  11.147 -0.0088  0.4769  0.4666
   69SLPC   O14 5846   2.204   3.044  11.091 -0.8067 -0.3573 -0.0814
   69SLPC   O12 5847   2.124   3.262  10.991 -0.0714 -0.7054 -0.2417
   69SLPC   O11 5848   2.331   3.163  10.920  0.5535  0.1179 -0.1084
   69SLPC    C1 5849   2.387   3.282  10.863  0.3921  0.4128  0.2318
   69SLPC    HA 5850   2.316   3.366  10.847  1.1429  0.9877 -0.0874
   69SLPC    HB 5851   2.467   3.315  10.932 -0.2628 -0.1937  1.3157
   69SLPC    C2 5852   2.461   3.252  10.720 -0.4115  0.2433  0.4457
   69SLPC    HS 5853   2.540   3.329  10.703 -0.6959  0.9919  2.2926
   69SLPC   O21 5854   2.360   3.254  10.611  0.3853  0.3486  0.0592
   69SLPC   C21 5855   2.339   3.377  10.567  0.1397  0.2687 -0.5211
   69SLPC   O22 5856   2.397   3.479  10.608 -0.4436 -0.5686  0.5616
   69SLPC   C22 5857   2.226   3.375  10.465  0.0678  0.0976  0.6327
   69SLPC   H2R 5858   2.160   3.288  10.486  0.0099  0.5298  2.3824
   69SLPC   H2S 5859   2.167   3.469  10.472 -1.4270 -0.6296 -1.3109
   69SLPC    C3 5860   2.539   3.119  10.719 -0.3849  0.1597  0.7636
   69SLPC    HX 5861   2.458   3.048  10.748 -1.0411  0.7385  0.3918
   69SLPC    HY 5862   2.614   3.124  10.800  0.7228  0.2499 -0.2533
   69SLPC   O31 5863   2.600   3.100  10.588  0.9105  0.4265 -0.0565
   69SLPC   C31 5864   2.528   3.028  10.505 -0.1732  0.1853  0.9145
   69SLPC   O32 5865   2.438   2.950  10.534 -0.3010  0.0273  0.1302
   69SLPC   C32 5866   2.601   3.042  10.371  0.2592 -0.3797 -0.0795
   69SLPC   H2X 5867   2.705   3.004  10.378  0.1304 -1.0125 -1.3015
   69SLPC   H2Y 5868   2.579   3.148  10.346 -2.8575 -0.5032  1.6273
   69SLPC   C23 5869   2.269   3.348  10.323 -0.3271  0.7832 -0.3334
   69SLPC   H3R 5870   2.303   3.242  10.319  0.7968  1.0865  0.6342
   69SLPC   H3S 5871   2.358   3.412  10.304  2.1747 -1.8691  1.4998
   69SLPC   C24 5872   2.162   3.335  10.213 -0.3455  0.0009 -0.2148
   69SLPC   H4R 5873   2.122   3.438  10.203  0.4397  0.4194  0.7882
   69SLPC   H4S 5874   2.078   3.278  10.259  0.5210 -0.0444  1.3840
   69SLPC   C25 5875   2.203   3.275  10.078 -0.1557 -0.7397  0.2327
   69SLPC   H5R 5876   2.108   3.267  10.020  0.5711 -3.3137 -0.7196
   69SLPC   H5S 5877   2.244   3.175  10.102 -0.3495 -0.6916  0.7850
   69SLPC   C26 5878   2.308   3.359  10.003  0.5040 -0.4398 -0.5680
   69SLPC   H6R 5879   2.386   3.360  10.082 -0.6857  0.1052  0.6192
   69SLPC   H6S 5880   2.262   3.460   9.996 -1.8328 -1.2147  2.0215
   69SLPC   C27 5881   2.354   3.272   9.880 -0.2321  0.0733 -0.6044
   69SLPC   H7R 5882   2.283   3.294   9.797 -0.4311 -1.6264 -0.9224
   69SLPC   H7S 5883   2.347   3.165   9.911 -0.1970  0.5239  1.0530
   69SLPC   C28 5884   2.502   3.288   9.836 -0.1256 -0.5436 -0.1391
   69SLPC   H8R 5885   2.523   3.219   9.752  0.0916  0.2086 -0.7201
   69SLPC   H8S 5886   2.559   3.264   9.929  1.1550 -0.3572 -0.8476
   69SLPC   C29 5887   2.549   3.428   9.813  0.0524 -0.4560 -0.5710
   69SLPC   H9R 5888   2.538   3.490   9.903 -1.1935  0.4688 -1.3215
   69SLPC  C210 5889   2.586   3.491   9.700  0.0848  0.9439 -0.1351
   69SLPC  H10R 5890   2.618   3.596   9.706  1.0770  0.6521 -0.1635
   69SLPC  C211 5891   2.591   3.430   9.563  0.1799  0.3131 -0.1477
   69SLPC  H11R 5892   2.511   3.478   9.503 -0.0505  0.6457  0.4239
   69SLPC  H11S 5893   2.567   3.322   9.576  1.2533  0.2463  1.5438
   69SLPC  C212 5894   2.721   3.443   9.491 -0.2374 -1.1012 -0.5441
   69SLPC  H12R 5895   2.810   3.472   9.547  1.2482  0.5022 -3.4739
   69SLPC  C213 5896   2.732   3.433   9.362  0.3864 -0.0863 -0.1452
   69SLPC  H13R 5897   2.831   3.465   9.324 -0.4175  2.7464 -0.0730
   69SLPC  C214 5898   2.627   3.407   9.255  0.0019 -0.6358  0.5822
   69SLPC  H14R 5899   2.528   3.380   9.296 -0.5431 -0.6019 -0.6454
   69SLPC  H14S 5900   2.665   3.316   9.202  0.0120 -1.8301  2.5505
   69SLPC  C215 5901   2.605   3.530   9.161 -0.0139 -0.1622 -0.4232
   69SLPC  H15R 5902   2.698   3.584   9.132 -0.7735  0.4040 -1.8899
   69SLPC  H15S 5903   2.531   3.599   9.206  0.1889 -0.6883  0.7325
   69SLPC  C216 5904   2.543   3.488   9.027  0.5810  0.1653 -0.0706
   69SLPC  H16R 5905   2.449   3.437   9.057 -0.6803  1.4582 -1.6303
   69SLPC  H16S 5906   2.608   3.424   8.965 -0.3954  0.0085 -0.9712
   69SLPC  C217 5907   2.504   3.609   8.943 -0.2664 -0.2033 -1.0105
   69SLPC  H17R 5908   2.596   3.668   8.924 -0.3651  0.9318  1.6864
   69SLPC  H17S 5909   2.420   3.665   8.990 -0.8532 -1.0536 -1.0259
   69SLPC  C218 5910   2.455   3.567   8.806 -0.1465 -0.1855 -0.0174
   69SLPC  H18R 5911   2.373   3.491   8.810 -1.9411  1.6264 -0.6804
   69SLPC  H18S 5912   2.541   3.524   8.751  0.9023  0.6462  0.9239
   69SLPC  H18T 5913   2.422   3.649   8.740  2.0663  0.1547 -0.7561
   69SLPC   C33 5914   2.533   2.962  10.255  0.0396  0.2836 -0.1266
   69SLPC   H3X 5915   2.450   3.018  10.207  2.1155  0.9015 -3.3050
   69SLPC   H3Y 5916   2.492   2.871  10.304 -0.3841  0.9823  0.8380
   69SLPC   C34 5917   2.618   2.927  10.136 -0.3411  0.1370  0.4671
   69SLPC   H4X 5918   2.555   2.882  10.056  0.5922 -2.0309  0.8747
   69SLPC   H4Y 5919   2.678   2.843  10.176 -1.2234  0.0529  1.6692
   69SLPC   C35 5920   2.700   3.046  10.096 -0.6315 -0.4807  0.5967
   69SLPC   H5X 5921   2.789   3.057  10.162  0.2974  0.8258 -0.8214
   69SLPC   H5Y 5922   2.643   3.141  10.091  0.5045  0.1444 -2.0422
   69SLPC   C36 5923   2.761   3.037   9.953 -0.3490  0.4540 -0.1895
   69SLPC   H6X 5924   2.843   2.962   9.952  0.4506  1.0231  3.8457
   69SLPC   H6Y 5925   2.815   3.129   9.922  0.6326 -0.1210 -0.2266
   69SLPC   C37 5926   2.673   2.992   9.834 -0.6615 -0.1894 -0.1434
   69SLPC   H7X 5927   2.573   3.039   9.821 -1.0970 -0.1911  2.6532
   69SLPC   H7Y 5928   2.644   2.884   9.839  1.1656 -0.7073  0.0062
   69SLPC   C38 5929   2.755   2.994   9.702 -0.1223 -0.1579  0.0207
   69SLPC   H8X 5930   2.830   2.913   9.710 -0.8275 -0.9576 -1.1558
   69SLPC   H8Y 5931   2.799   3.093   9.679 -0.6177  0.3730  1.2767
   69SLPC   C39 5932   2.665   2.968   9.578  0.4451 -0.1558 -0.0975
   69SLPC   H9X 5933   2.583   3.044   9.576  0.9828  0.4482  0.5046
   69SLPC   H9Y 5934   2.618   2.867   9.576 -1.3265  0.6311 -1.6529
   69SLPC  C310 5935   2.732   2.967   9.444  0.2272 -0.0104  0.2443
   69SLPC  H10X 5936   2.833   2.922   9.455 -0.1699 -0.7292  1.0650
   69SLPC  H10Y 5937   2.761   3.066   9.402 -0.8555  1.6847  3.1986
   69SLPC  C311 5938   2.629   2.893   9.344 -0.0240  0.2563  0.3460
   69SLPC  H11X 5939   2.526   2.929   9.365 -0.0174 -0.2288  1.2490
   69SLPC  H11Y 5940   2.635   2.791   9.387 -0.8247  0.6169  1.3540
   69SLPC  C312 5941   2.681   2.907   9.194  0.6016  0.3727 -0.0378
   69SLPC  H12X 5942   2.668   3.016   9.179 -0.9632  0.2881  0.5163
   69SLPC  H12Y 5943   2.618   2.850   9.122 -0.1150  1.6738 -0.4774
   69SLPC  C313 5944   2.823   2.869   9.173 -0.6558  0.7043  0.8425
   69SLPC  H13X 5945   2.837   2.767   9.214 -1.6202  0.2752  0.1619
   69SLPC  H13Y 5946   2.897   2.933   9.225  1.0150 -0.5892  0.1659
   69SLPC  C314 5947   2.852   2.878   9.020 -0.0016 -0.4885 -0.0085
   69SLPC  H14X 5948   2.803   2.790   8.972 -1.6658 -0.3616  1.3958
   69SLPC  H14Y 5949   2.961   2.873   9.000  0.5844 -0.7285  2.8126
   69SLPC  C315 5950   2.806   3.006   8.954  0.1453  0.2715  0.0963
   69SLPC  H15X 5951   2.697   3.017   8.935  0.1425 -0.8831 -0.6409
   69SLPC  H15Y 5952   2.864   3.005   8.860  0.2393 -1.7441  0.1282
   69SLPC  C316 5953   2.862   3.141   9.014  0.0032  0.4224  0.9958
   69SLPC  H16X 5954   2.971   3.124   9.026 -0.3209 -1.8463  1.1682
   69SLPC  H16Y 5955   2.823   3.152   9.118 -1.0786 -0.0030  0.6470
   69SLPC  C317 5956   2.844   3.259   8.918 -0.0087  0.1505 -0.1390
   69SLPC  H17X 5957   2.735   3.280   8.913  0.1888  1.2873  0.1457
   69SLPC  H17Y 5958   2.873   3.227   8.816 -1.8585 -1.1956 -0.3098
   69SLPC  C318 5959   2.928   3.383   8.977  0.1767  0.3541 -0.0586
   69SLPC  H18X 5960   2.886   3.414   9.075  2.8132 -0.3205  1.3894
   69SLPC  H18Y 5961   2.937   3.464   8.901  0.2152 -1.7540 -2.4302
   69SLPC  H18Z 5962   3.034   3.355   8.995 -0.1578 -2.0151 -1.3442
   70SLPC     N 5963   3.527   3.874  11.459  0.3036  0.1072 -0.2843
   70SLPC   C13 5964   3.595   3.847  11.586 -0.0974  0.9090 -0.1788
   70SLPC  H13A 5965   3.526   3.796  11.652  1.8210 -3.2094 -1.0272
   70SLPC  H13B 5966   3.682   3.787  11.562  0.5774  1.6137  0.4593
   70SLPC  H13C 5967   3.627   3.940  11.632 -1.1774  1.2512 -0.0731
   70SLPC   C14 5968   3.400   3.948  11.493 -0.3967 -0.1046  0.1686
   70SLPC  H14A 5969   3.326   3.888  11.544 -1.0785  0.0279 -0.6410
   70SLPC  H14B 5970   3.427   4.042  11.539  1.0974  0.0626 -0.9642
   70SLPC  H14C 5971   3.350   3.963  11.398  0.3942  1.2009 -0.0638
   70SLPC   C15 5972   3.484   3.749  11.387 -0.1533  0.2518  0.4828
   70SLPC  H15A 5973   3.409   3.691  11.439  0.6793 -1.6503 -0.3475
   70SLPC  H15B 5974   3.445   3.772  11.289  1.6334  0.5850 -0.1789
   70SLPC  H15C 5975   3.564   3.682  11.358 -1.3964 -0.9490 -0.2919
   70SLPC   C12 5976   3.613   3.963  11.368  0.8755 -0.4901  0.5146
   70SLPC  H12A 5977   3.639   4.052  11.424 -0.3006 -0.0932  0.4501
   70SLPC  H12B 5978   3.556   4.003  11.286  0.5485 -2.3627 -0.2277
   70SLPC   C11 5979   3.735   3.904  11.308 -1.2013 -0.1763 -0.2124
   70SLPC  H11A 5980   3.807   3.867  11.384 -1.4329 -0.0459  0.0741
   70SLPC  H11B 5981   3.807   3.977  11.264 -0.3437  0.3254  1.8957
   70SLPC     P 5982   3.671   3.831  11.078 -0.3292  0.4344 -0.0289
   70SLPC   O13 5983   3.620   3.706  11.015  0.5172  0.6067  0.0135
   70SLPC   O14 5984   3.588   3.954  11.081  0.7916 -0.0089 -0.3442
   70SLPC   O12 5985   3.719   3.798  11.222 -0.0633  0.7805  0.1618
   70SLPC   O11 5986   3.798   3.881  10.996 -0.6003  0.3987 -0.2151
   70SLPC    C1 5987   3.921   3.809  11.010  0.3691 -0.4101  0.0495
   70SLPC    HA 5988   3.986   3.863  11.082 -0.1779  1.3346 -0.7407
   70SLPC    HB 5989   3.910   3.706  11.053  0.0978 -0.9174 -1.2008
   70SLPC    C2 5990   3.984   3.809  10.868  0.1195 -0.1130 -0.3096
   70SLPC    HS 5991   3.952   3.905  10.822  0.5277 -0.4215 -1.2852
   70SLPC   O21 5992   3.941   3.693  10.797  0.1779  0.4037 -0.1253
   70SLPC   C21 5993   3.925   3.714  10.667  0.0377 -0.2299  0.5941
   70SLPC   O22 5994   3.948   3.818  10.608 -0.6285  0.0030  0.4717
   70SLPC   C22 5995   3.860   3.594  10.610 -0.0923  0.2902  0.4544
   70SLPC   H2R 5996   3.937   3.516  10.633  0.4087  0.3569 -0.9229
   70SLPC   H2S 5997   3.763   3.570  10.659 -0.1820  0.6202  0.4358
   70SLPC    C3 5998   4.136   3.787  10.889  0.3715 -0.4049 -0.9401
   70SLPC    HX 5999   4.156   3.687  10.934  0.0701  0.2702  0.7677
   70SLPC    HY 6000   4.164   3.861  10.966 -1.0918  0.8739 -1.5883
   70SLPC   O31 6001   4.217   3.799  10.771  0.0616 -0.0951 -0.3404
   70SLPC   C31 6002   4.256   3.925  10.746  0.2625  0.1034  0.4970
   70SLPC   O32 6003   4.227   4.026  10.812  0.8982 -0.5773  0.5512
   70SLPC   C32 6004   4.361   3.913  10.636  0.1080 -0.2695  0.6130
   70SLPC   H2X 6005   4.459   3.882  10.677  1.0677  1.1210 -0.5123
   70SLPC   H2Y 6006   4.379   4.016  10.598  0.6713 -0.9739 -1.1741
   70SLPC   C23 6007   3.840   3.594  10.453  0.4950 -0.2777 -0.0761
   70SLPC   H3R 6008   3.784   3.686  10.427  0.2718 -0.7149 -1.1924
   70SLPC   H3S 6009   3.787   3.500  10.426  1.9775 -1.3078  0.4274
   70SLPC   C24 6010   3.973   3.587  10.375 -0.4225 -0.9130  0.1431
   70SLPC   H4R 6011   4.033   3.506  10.421 -0.2645 -1.4816 -1.0169
   70SLPC   H4S 6012   4.046   3.671  10.388 -0.7574 -0.6827  0.5363
   70SLPC   C25 6013   3.951   3.573  10.223  0.6234  0.1767 -0.6566
   70SLPC   H5R 6014   3.898   3.479  10.196 -0.4671  0.4538  0.4376
   70SLPC   H5S 6015   4.045   3.562  10.164  0.4472  0.6069 -1.0305
   70SLPC   C26 6016   3.881   3.697  10.150 -0.2444  0.7202  0.4975
   70SLPC   H6R 6017   3.958   3.777  10.154  0.0735  0.4530 -0.0172
   70SLPC   H6S 6018   3.791   3.721  10.210 -0.9099  0.0454 -0.1927
   70SLPC   C27 6019   3.827   3.658  10.007 -0.9683 -0.3237 -0.6592
   70SLPC   H7R 6020   3.735   3.711   9.973 -0.0454 -0.2897 -3.3301
   70SLPC   H7S 6021   3.786   3.554  10.012  2.5523 -1.8383 -0.7444
   70SLPC   C28 6022   3.930   3.682   9.897  0.1503 -0.1395 -0.3057
   70SLPC   H8R 6023   3.909   3.610   9.815  2.0070  0.1088 -1.0725
   70SLPC   H8S 6024   4.026   3.642   9.936 -0.0406  0.3183  0.6705
   70SLPC   C29 6025   3.931   3.828   9.854 -0.2696 -0.5349  0.1983
   70SLPC   H9R 6026   3.938   3.901   9.936 -0.0801  3.7197 -3.2390
   70SLPC  C210 6027   3.915   3.879   9.727 -0.6567  0.1677 -0.1016
   70SLPC  H10R 6028   3.935   3.985   9.708  0.2029  0.3398  1.6117
   70SLPC  C211 6029   3.912   3.795   9.603  0.9416 -0.6860 -0.6900
   70SLPC  H11R 6030   3.841   3.712   9.621  0.4139 -0.1224 -0.1197
   70SLPC  H11S 6031   4.013   3.753   9.588  1.6142  0.7368 -0.2968
   70SLPC  C212 6032   3.863   3.852   9.474 -0.5050 -0.2013  0.1969
   70SLPC  H12R 6033   3.761   3.825   9.445 -0.0443  0.3559 -2.1268
   70SLPC  C213 6034   3.937   3.922   9.382 -0.0346 -0.5125  0.2729
   70SLPC  H13R 6035   3.894   3.962   9.289 -1.7564 -0.3638  1.0859
   70SLPC  C214 6036   4.083   3.954   9.403 -0.2435 -0.2520 -0.1495
   70SLPC  H14R 6037   4.115   3.973   9.507  0.2637 -0.6206 -0.2375
   70SLPC  H14S 6038   4.103   4.046   9.343 -3.8166  2.2623  2.1493
   70SLPC  C215 6039   4.177   3.833   9.360  0.4452 -0.1130 -0.1442
   70SLPC  H15R 6040   4.155   3.749   9.429 -2.7868  0.5717 -0.2192
   70SLPC  H15S 6041   4.283   3.861   9.381  0.5618 -1.4529  1.1647
   70SLPC  C216 6042   4.169   3.785   9.216  0.1371 -0.0761  0.0263
   70SLPC  H16R 6043   4.061   3.783   9.190  0.1022  1.3114  0.0303
   70SLPC  H16S 6044   4.215   3.684   9.215 -2.2745 -1.2532  0.4131
   70SLPC  C217 6045   4.247   3.869   9.114  0.2165 -0.1876 -0.3157
   70SLPC  H17R 6046   4.356   3.853   9.127  0.2748  1.1978  1.1511
   70SLPC  H17S 6047   4.225   3.977   9.125  0.0055 -0.4460  2.4868
   70SLPC  C218 6048   4.206   3.822   8.969  0.2444 -1.0207  0.2222
   70SLPC  H18R 6049   4.236   3.718   8.946 -0.0026 -0.6258 -2.1438
   70SLPC  H18S 6050   4.239   3.896   8.893 -0.0688 -1.6672 -0.5549
   70SLPC  H18T 6051   4.095   3.815   8.967  0.1469 -0.8704  2.6030
   70SLPC   C33 6052   4.322   3.826  10.520 -1.1835  0.4635  0.3967
   70SLPC   H3X 6053   4.213   3.807  10.509 -1.5384  1.6110  1.6330
   70SLPC   H3Y 6054   4.384   3.739  10.548 -0.5328  0.4441 -1.0391
   70SLPC   C34 6055   4.393   3.875  10.392 -0.3934  0.0275  0.3559
   70SLPC   H4X 6056   4.387   3.804  10.308  0.5260  1.3281 -0.8467
   70SLPC   H4Y 6057   4.495   3.915  10.406 -0.2320  0.3334 -1.4888
   70SLPC   C35 6058   4.318   3.992  10.324  0.2779  0.2278  0.5745
   70SLPC   H5X 6059   4.345   4.087  10.375  0.4942 -0.1147  1.1105
   70SLPC   H5Y 6060   4.210   3.971  10.333  0.1068  0.9890  0.3867
   70SLPC   C36 6061   4.346   3.999  10.173 -0.3630 -0.3962 -0.6074
   70SLPC   H6X 6062   4.301   3.909  10.126 -0.7788 -1.4111  1.5599
   70SLPC   H6Y 6063   4.455   3.986  10.158 -0.3693 -2.8360  0.8540
   70SLPC   C37 6064   4.289   4.122  10.110  0.2456  0.3727 -0.4446
   70SLPC   H7X 6065   4.311   4.211  10.173  0.8608  0.0296 -0.1729
   70SLPC   H7Y 6066   4.180   4.101  10.111  0.5037 -1.1027 -0.5758
   70SLPC   C38 6067   4.322   4.136   9.961 -0.0859 -0.4877 -0.4659
   70SLPC   H8X 6068   4.258   4.070   9.897 -1.6122  1.5856 -1.1796
   70SLPC   H8Y 6069   4.431   4.127   9.943 -0.1479 -1.1738 -0.5352
   70SLPC   C39 6070   4.280   4.272   9.901  0.5407 -0.1534 -0.2005
   70SLPC   H9X 6071   4.357   4.351   9.899  0.7917 -0.3928 -0.0704
   70SLPC   H9Y 6072   4.202   4.321   9.964 -0.2670 -0.6546 -0.7899
   70SLPC  C310 6073   4.225   4.270   9.758 -0.7240  0.2668  0.6762
   70SLPC  H10X 6074   4.196   4.369   9.716 -0.1528 -0.3733 -1.3471
   70SLPC  H10Y 6075   4.134   4.208   9.769 -0.9790  0.8411  2.0618
   70SLPC  C311 6076   4.338   4.219   9.661  0.6170  0.3967 -0.0818
   70SLPC  H11X 6077   4.336   4.109   9.670  1.1429  0.4955  1.6856
   70SLPC  H11Y 6078   4.437   4.251   9.701  0.8347  0.1040 -0.3819
   70SLPC  C312 6079   4.324   4.266   9.515 -0.1948  0.4032 -0.0971
   70SLPC  H12X 6080   4.243   4.218   9.457 -1.4427  1.8613  0.3585
   70SLPC  H12Y 6081   4.413   4.235   9.457 -1.2186  1.5377 -2.4271
   70SLPC  C313 6082   4.312   4.420   9.483  0.1933  0.1805 -0.0047
   70SLPC  H13X 6083   4.351   4.484   9.565  0.8476  0.7341 -0.7219
   70SLPC  H13Y 6084   4.203   4.438   9.477  0.1823  0.0757 -0.1132
   70SLPC  C314 6085   4.373   4.451   9.345 -0.0253  1.0116 -0.4523
   70SLPC  H14X 6086   4.484   4.446   9.347 -0.0649 -0.5776 -0.8348
   70SLPC  H14Y 6087   4.354   4.559   9.332 -1.9777  0.6217 -1.1380
   70SLPC  C315 6088   4.304   4.375   9.229  0.0085  0.0435 -0.5755
   70SLPC  H15X 6089   4.194   4.374   9.245 -0.1248  0.8421 -1.3130
   70SLPC  H15Y 6090   4.336   4.269   9.228  1.8298  0.5541 -1.5090
   70SLPC  C316 6091   4.340   4.436   9.091 -0.0458 -0.2319  0.4944
   70SLPC  H16X 6092   4.312   4.544   9.088 -1.2630 -0.5522  0.1446
   70SLPC  H16Y 6093   4.269   4.396   9.016 -1.4750  1.1230  1.0635
   70SLPC  C317 6094   4.487   4.418   9.044 -1.4380  0.0456  0.2789
   70SLPC  H17X 6095   4.497   4.307   9.038 -3.0544 -0.1433  0.6269
   70SLPC  H17Y 6096   4.559   4.454   9.121 -1.1826  0.5027 -0.1631
   70SLPC  C318 6097   4.528   4.482   8.905 -1.2712 -0.7778 -0.6330
   70SLPC  H18X 6098   4.459   4.462   8.820 -2.6530  1.2554 -0.0856
   70SLPC  H18Y 6099   4.631   4.448   8.885 -1.8042 -3.0996  0.2557
   70SLPC  H18Z 6100   4.534   4.592   8.918 -1.2378 -0.4681 -2.8248
   71SLPC     N 6101   1.393   3.934  11.061  0.2467 -0.7205  0.3317
   71SLPC   C13 6102   1.372   3.814  11.140  0.0804 -0.5560  0.4700
   71SLPC  H13A 6103   1.431   3.809  11.230 -0.7503  1.2637  1.1560
   71SLPC  H13B 6104   1.267   3.802  11.165 -0.7125 -1.3274 -2.8089
   71SLPC  H13C 6105   1.400   3.724  11.087 -1.9899 -1.2351  0.4442
   71SLPC   C14 6106   1.537   3.965  11.035  0.4461  0.3025 -0.9283
   71SLPC  H14A 6107   1.542   4.059  10.982 -3.1004  0.1580 -1.7317
   71SLPC  H14B 6108   1.587   3.965  11.131 -0.1807  2.6139 -0.5312
   71SLPC  H14C 6109   1.582   3.887  10.975 -1.3784 -0.6581 -1.1157
   71SLPC   C15 6110   1.333   4.053  11.134 -0.7246  0.2127 -0.5371
   71SLPC  H15A 6111   1.396   4.093  11.212 -0.1453  0.0304 -0.9103
   71SLPC  H15B 6112   1.332   4.140  11.070  0.7507  2.2423  2.0066
   71SLPC  H15C 6113   1.236   4.030  11.176 -1.1317  3.0460  0.2911
   71SLPC   C12 6114   1.321   3.928  10.930  0.7603 -0.3329  0.2244
   71SLPC  H12A 6115   1.344   4.015  10.871  1.6388 -0.6491  0.0800
   71SLPC  H12B 6116   1.218   3.942  10.956  0.8165 -1.6590  1.2910
   71SLPC   C11 6117   1.329   3.794  10.851  0.5281 -0.8549  0.4502
   71SLPC  H11A 6118   1.273   3.825  10.759 -0.1613 -0.7591  0.8909
   71SLPC  H11B 6119   1.264   3.719  10.900  1.1633 -1.3794  0.4998
   71SLPC     P 6120   1.535   3.791  10.681 -0.1047 -0.3118 -0.1824
   71SLPC   O13 6121   1.554   3.937  10.685 -0.3186  0.3675  0.0444
   71SLPC   O14 6122   1.658   3.709  10.687  0.1412  0.0542  0.2644
   71SLPC   O12 6123   1.461   3.748  10.817  0.6481  0.3138  0.1842
   71SLPC   O11 6124   1.438   3.759  10.561 -0.2913  0.0304  0.6212
   71SLPC    C1 6125   1.474   3.666  10.459 -0.1271 -0.6028  0.1573
   71SLPC    HA 6126   1.541   3.585  10.495  0.9807  0.0153 -0.4805
   71SLPC    HB 6127   1.381   3.610  10.434 -0.4785  0.4289 -0.9382
   71SLPC    C2 6128   1.518   3.729  10.323 -0.4225  0.4425  0.5708
   71SLPC    HS 6129   1.600   3.802  10.337 -0.3578  0.7715 -1.3038
   71SLPC   O21 6130   1.406   3.794  10.261  0.0141  0.2028  0.1937
   71SLPC   C21 6131   1.434   3.898  10.178  0.5894 -0.0769  0.4614
   71SLPC   O22 6132   1.543   3.942  10.155  0.2014 -0.4020  0.1478
   71SLPC   C22 6133   1.302   3.967  10.133  0.1791  0.6377  0.1961
   71SLPC   H2R 6134   1.253   4.019  10.219  0.3531  3.0773 -1.0946
   71SLPC   H2S 6135   1.329   4.039  10.054  1.9301 -1.5376 -1.3118
   71SLPC    C3 6136   1.572   3.615  10.230  0.0859 -0.5161 -0.7635
   71SLPC    HX 6137   1.494   3.536  10.219 -0.4775  0.3342 -3.3924
   71SLPC    HY 6138   1.660   3.560  10.269 -0.9107 -1.4565  0.2477
   71SLPC   O31 6139   1.607   3.673  10.104 -0.7743 -0.3247 -0.5437
   71SLPC   C31 6140   1.742   3.700  10.086 -0.7307  0.2596  0.0696
   71SLPC   O32 6141   1.830   3.671  10.165  0.5693  0.5014  0.2734
   71SLPC   C32 6142   1.750   3.779   9.955  0.2428 -0.0593 -0.3179
   71SLPC   H2X 6143   1.767   3.884   9.987 -3.7915  0.7192 -0.2320
   71SLPC   H2Y 6144   1.647   3.777   9.915  1.0038  1.6950 -2.6326
   71SLPC   C23 6145   1.206   3.865  10.061 -0.2829  0.1743  0.9219
   71SLPC   H3R 6146   1.115   3.919  10.028  0.1230 -0.4023 -1.3132
   71SLPC   H3S 6147   1.176   3.786  10.133 -0.5228  0.2775  0.9346
   71SLPC   C24 6148   1.266   3.796   9.930  0.1857  0.0087 -0.0428
   71SLPC   H4R 6149   1.182   3.749   9.875  2.2331 -1.5045 -2.0328
   71SLPC   H4S 6150   1.316   3.705   9.971 -1.5130 -0.5982  0.7722
   71SLPC   C25 6151   1.353   3.882   9.840  0.4718 -0.7663 -0.2161
   71SLPC   H5R 6152   1.446   3.927   9.882 -1.4240  3.7978 -0.4438
   71SLPC   H5S 6153   1.290   3.968   9.811 -2.1022 -2.7477 -0.8135
   71SLPC   C26 6154   1.379   3.799   9.706  0.8519  0.1752 -0.0377
   71SLPC   H6R 6155   1.280   3.760   9.676  0.6877  0.3410  0.2834
   71SLPC   H6S 6156   1.445   3.712   9.728 -0.2447 -0.4795  0.8108
   71SLPC   C27 6157   1.428   3.884   9.586 -0.2704  0.4475 -0.7159
   71SLPC   H7R 6158   1.513   3.944   9.625 -0.2218  1.1640 -1.8631
   71SLPC   H7S 6159   1.350   3.949   9.540 -0.8634 -0.1901 -0.6184
   71SLPC   C28 6160   1.462   3.800   9.458 -0.3345  0.1598 -0.4840
   71SLPC   H8R 6161   1.492   3.876   9.383 -0.0638 -0.7950 -1.3608
   71SLPC   H8S 6162   1.367   3.748   9.436 -0.1943 -1.2566  1.9026
   71SLPC   C29 6163   1.580   3.708   9.476  0.0263 -0.7086 -0.0974
   71SLPC   H9R 6164   1.637   3.730   9.567  0.7029 -1.0652 -0.4280
   71SLPC  C210 6165   1.627   3.613   9.391 -0.4812  0.2438 -0.4118
   71SLPC  H10R 6166   1.704   3.547   9.434  1.0624  1.0397 -1.8371
   71SLPC  C211 6167   1.577   3.562   9.262  0.6215 -0.2430 -0.3701
   71SLPC  H11R 6168   1.468   3.579   9.251  0.7756 -0.2271 -2.2698
   71SLPC  H11S 6169   1.577   3.451   9.267 -1.8312 -0.2413  1.1243
   71SLPC  C212 6170   1.650   3.620   9.140  0.0482 -0.1347  0.8064
   71SLPC  H12R 6171   1.701   3.716   9.156  0.0024  0.0202  0.0634
   71SLPC  C213 6172   1.671   3.554   9.027  0.1118  0.0845  0.0893
   71SLPC  H13R 6173   1.712   3.612   8.943 -0.0320 -1.0741 -0.8040
   71SLPC  C214 6174   1.612   3.417   8.997  0.7280 -0.1616  0.5961
   71SLPC  H14R 6175   1.504   3.413   9.023  0.1191  2.9896 -0.8964
   71SLPC  H14S 6176   1.674   3.341   9.049  3.9662 -1.4576 -4.5393
   71SLPC  C215 6177   1.627   3.357   8.855 -0.0400 -0.5664  0.3254
   71SLPC  H15R 6178   1.592   3.425   8.774 -1.9459 -0.9562  0.7819
   71SLPC  H15S 6179   1.578   3.258   8.851  0.1402 -0.8480  3.2729
   71SLPC  C216 6180   1.780   3.329   8.818  0.7784 -0.2152  0.0423
   71SLPC  H16R 6181   1.807   3.247   8.887  1.6076 -0.2992 -0.3787
   71SLPC  H16S 6182   1.834   3.420   8.852  3.5711 -1.6298 -0.3596
   71SLPC  C217 6183   1.791   3.297   8.670 -0.5988  0.1763  0.6288
   71SLPC  H17R 6184   1.764   3.383   8.604  1.5327  1.7322  1.6747
   71SLPC  H17S 6185   1.719   3.223   8.628  3.8379 -1.8095 -4.6194
   71SLPC  C218 6186   1.931   3.245   8.639  0.0129  0.7389  0.6174
   71SLPC  H18R 6187   2.008   3.307   8.691  0.4687 -0.6234  1.6010
   71SLPC  H18S 6188   1.954   3.244   8.530  2.0156  2.2103  0.9529
   71SLPC  H18T 6189   1.949   3.145   8.684 -0.0062  0.6701  0.4714
   71SLPC   C33 6190   1.853   3.725   9.852  0.5311  0.5437 -0.4910
   71SLPC   H3X 6191   1.955   3.749   9.888  0.0395  0.5836  0.9383
   71SLPC   H3Y 6192   1.861   3.790   9.762 -1.2837  2.1935  0.4735
   71SLPC   C34 6193   1.825   3.584   9.803  0.0902 -0.2000 -0.5897
   71SLPC   H4X 6194   1.723   3.580   9.759 -0.0334 -0.0656 -0.3166
   71SLPC   H4Y 6195   1.830   3.514   9.889  0.2813  1.5197  0.8646
   71SLPC   C35 6196   1.924   3.532   9.697  0.3755 -0.2793  0.1701
   71SLPC   H5X 6197   1.901   3.602   9.613  0.5022 -0.7077 -0.2236
   71SLPC   H5Y 6198   1.889   3.434   9.657  2.2050 -0.6481 -0.6148
   71SLPC   C36 6199   2.072   3.536   9.734  0.1778  0.3853  0.9586
   71SLPC   H6X 6200   2.112   3.472   9.816 -1.2647 -0.4409  1.0572
   71SLPC   H6Y 6201   2.102   3.641   9.754 -0.0663  1.0243 -1.7193
   71SLPC   C37 6202   2.167   3.500   9.619  0.3334  0.4709  0.5763
   71SLPC   H7X 6203   2.274   3.510   9.648  0.0666  0.0326  1.7421
   71SLPC   H7Y 6204   2.141   3.565   9.533  1.5620 -1.6855 -1.5836
   71SLPC   C38 6205   2.144   3.356   9.551  0.8979  1.0005  0.5349
   71SLPC   H8X 6206   2.045   3.352   9.501  1.4318  0.2664 -0.5190
   71SLPC   H8Y 6207   2.141   3.285   9.636  0.3411 -1.1816 -1.2324
   71SLPC   C39 6208   2.257   3.314   9.465 -0.1043  0.2217 -0.5458
   71SLPC   H9X 6209   2.360   3.316   9.507  0.3290 -0.6249 -1.5350
   71SLPC   H9Y 6210   2.261   3.384   9.379  0.4292  0.2650 -0.4894
   71SLPC  C310 6211   2.233   3.176   9.416 -0.0924  0.0068  0.4691
   71SLPC  H10X 6212   2.123   3.170   9.403  0.0720 -0.2915 -0.9505
   71SLPC  H10Y 6213   2.248   3.107   9.501 -1.8420 -0.6488  0.2880
   71SLPC  C311 6214   2.308   3.126   9.297 -0.1799 -0.7877 -0.2167
   71SLPC  H11X 6215   2.289   3.018   9.278  1.0954 -1.4084  1.7608
   71SLPC  H11Y 6216   2.417   3.138   9.316 -0.8519 -0.2111  4.2845
   71SLPC  C312 6217   2.271   3.206   9.163  0.1319 -1.1116 -0.3606
   71SLPC  H12X 6218   2.323   3.300   9.189 -0.0279 -1.2204  0.3762
   71SLPC  H12Y 6219   2.161   3.220   9.162  0.3070  0.4813  0.0157
   71SLPC  C313 6220   2.314   3.127   9.041  0.4192  0.3865  0.3517
   71SLPC  H13X 6221   2.265   3.027   9.047 -0.8787  1.0476  1.3993
   71SLPC  H13Y 6222   2.423   3.110   9.052  0.5363 -0.5536 -1.8347
   71SLPC  C314 6223   2.273   3.181   8.909 -0.1016 -0.3228  0.4059
   71SLPC  H14X 6224   2.300   3.289   8.903 -1.4012 -0.0335 -0.7680
   71SLPC  H14Y 6225   2.165   3.178   8.884  0.4764 -0.0757 -2.6075
   71SLPC  C315 6226   2.353   3.108   8.797  0.0087 -0.2457  0.3721
   71SLPC  H15X 6227   2.315   3.004   8.790  0.2763 -0.4011  1.0965
   71SLPC  H15Y 6228   2.463   3.108   8.817  0.3615 -3.9621 -0.7528
   71SLPC  C316 6229   2.328   3.185   8.666  0.2179 -0.6689  0.0080
   71SLPC  H16X 6230   2.312   3.292   8.688 -0.5901 -0.7838  0.0325
   71SLPC  H16Y 6231   2.232   3.151   8.621 -0.3132 -0.0975  0.6873
   71SLPC  C317 6232   2.438   3.165   8.558 -0.4868 -0.9687 -0.0344
   71SLPC  H17X 6233   2.389   3.187   8.460  0.3911  4.3314  0.4377
   71SLPC  H17Y 6234   2.465   3.057   8.560 -0.6278 -1.0328 -1.0056
   71SLPC  C318 6235   2.553   3.262   8.571 -0.5173  0.1419 -0.7365
   71SLPC  H18X 6236   2.642   3.227   8.514  0.0835 -0.5218  0.5640
   71SLPC  H18Y 6237   2.588   3.267   8.676  3.4911 -2.5670 -1.7038
   71SLPC  H18Z 6238   2.531   3.368   8.543 -0.5185  0.3491  0.0306
   72SLPC     N 6239   5.997   3.026  10.745  0.2914 -0.3041 -0.1290
   72SLPC   C13 6240   6.069   2.951  10.855 -0.1843 -0.1258 -0.0317
   72SLPC  H13A 6241   6.080   2.843  10.850 -2.8157 -0.5289  1.0381
   72SLPC  H13B 6242   6.166   2.998  10.864 -0.8731  1.4301 -0.3662
   72SLPC  H13C 6243   6.024   2.957  10.953  2.3031 -1.6987  1.3162
   72SLPC   C14 6244   5.933   3.149  10.790  0.1073 -0.0001 -0.1280
   72SLPC  H14A 6245   5.852   3.131  10.859  0.2805  1.8063  0.5872
   72SLPC  H14B 6246   6.008   3.210  10.838  1.3346 -2.7591  1.7463
   72SLPC  H14C 6247   5.894   3.199  10.703  1.3138 -2.7750 -2.4198
   72SLPC   C15 6248   5.895   2.927  10.696 -0.3657 -0.3314 -0.1175
   72SLPC  H15A 6249   5.956   2.840  10.675  2.0108  0.4976  2.5805
   72SLPC  H15B 6250   5.833   2.900  10.781  1.6592  0.4082  1.7124
   72SLPC  H15C 6251   5.835   2.962  10.614  0.0217  1.3786  0.2789
   72SLPC   C12 6252   6.090   3.046  10.625 -0.9828 -0.0141 -0.0125
   72SLPC  H12A 6253   6.033   3.087  10.543 -2.8382  2.0347  2.1860
   72SLPC  H12B 6254   6.130   2.956  10.580  1.3208  0.2219  1.3695
   72SLPC   C11 6255   6.213   3.144  10.645  0.5812 -0.7845  0.1248
   72SLPC  H11A 6256   6.187   3.250  10.665  1.3008 -0.7096  0.7054
   72SLPC  H11B 6257   6.263   3.146  10.547  1.1420 -0.7128  0.4118
   72SLPC     P 6258   6.426   3.004  10.723 -0.0400  0.2328 -0.0674
   72SLPC   O13 6259   6.502   2.974  10.843  0.1388 -0.1070 -0.1807
   72SLPC   O14 6260   6.375   2.884  10.657  0.2385 -0.3844  0.0897
   72SLPC   O12 6261   6.302   3.096  10.750  0.1399  0.0348 -0.6615
   72SLPC   O11 6262   6.505   3.096  10.623  0.0426  0.4647  0.3684
   72SLPC    C1 6263   6.586   3.204  10.684  0.2798  0.0567 -0.1305
   72SLPC    HA 6264   6.525   3.275  10.743  0.7733  1.1070 -0.8614
   72SLPC    HB 6265   6.666   3.164  10.750  0.8569 -0.5788 -1.1773
   72SLPC    C2 6266   6.663   3.285  10.565  0.4041  0.1408 -0.2495
   72SLPC    HS 6267   6.724   3.367  10.610 -2.6968  2.4046  0.1093
   72SLPC   O21 6268   6.568   3.341  10.471 -0.0157  0.3037  0.3416
   72SLPC   C21 6269   6.490   3.434  10.515  0.6198  0.2471 -0.1371
   72SLPC   O22 6270   6.489   3.491  10.619 -0.2170  0.3177 -0.1157
   72SLPC   C22 6271   6.385   3.457  10.410 -0.6271  0.1517  0.4470
   72SLPC   H2R 6272   6.322   3.365  10.405  0.2985 -0.5602  1.4180
   72SLPC   H2S 6273   6.319   3.542  10.440 -0.3510  0.4734  0.1418
   72SLPC    C3 6274   6.769   3.199  10.488 -1.0669  0.3841  0.0397
   72SLPC    HX 6275   6.730   3.101  10.455  0.1672  0.1231 -0.7235
   72SLPC    HY 6276   6.836   3.162  10.568 -3.0004 -2.5559  0.4564
   72SLPC   O31 6277   6.840   3.282  10.396  0.6331  0.0346  0.5177
   72SLPC   C31 6278   6.790   3.284  10.275  0.8687  0.1715  0.0992
   72SLPC   O32 6279   6.695   3.215  10.236  0.4741  0.2727 -0.4270
   72SLPC   C32 6280   6.865   3.387  10.204  0.5020 -0.0000 -0.1148
   72SLPC   H2X 6281   6.974   3.365  10.199  0.5512  0.5424 -2.1801
   72SLPC   H2Y 6282   6.845   3.479  10.262  0.7332  0.3797 -0.6374
   72SLPC   C23 6283   6.444   3.485  10.269  0.0058  0.5225 -0.5401
   72SLPC   H3R 6284   6.511   3.403  10.236  0.0787  1.1905 -2.1464
   72SLPC   H3S 6285   6.500   3.581  10.267 -1.8366  1.6412 -1.2270
   72SLPC   C24 6286   6.338   3.489  10.160  1.3274 -0.0579  0.9688
   72SLPC   H4R 6287   6.281   3.583  10.177  0.5379  0.2028 -2.5382
   72SLPC   H4S 6288   6.266   3.408  10.181  0.0104  0.6596 -0.5814
   72SLPC   C25 6289   6.379   3.484  10.015  0.1821  0.0080 -0.4203
   72SLPC   H5R 6290   6.443   3.573   9.996  0.7506 -0.2362  0.3019
   72SLPC   H5S 6291   6.285   3.487   9.955 -0.5604 -0.0566  0.7235
   72SLPC   C26 6292   6.442   3.356   9.964  0.4352 -0.0133  0.4609
   72SLPC   H6R 6293   6.360   3.283   9.949  1.0343 -0.6434  0.1783
   72SLPC   H6S 6294   6.506   3.296  10.032 -0.2272 -0.5548  0.6128
   72SLPC   C27 6295   6.516   3.376   9.830 -0.2348  0.2755  0.5078
   72SLPC   H7R 6296   6.552   3.278   9.792  1.5861  1.1682 -0.1998
   72SLPC   H7S 6297   6.614   3.426   9.840  1.0873 -1.5783 -1.9234
   72SLPC   C28 6298   6.433   3.444   9.718  0.1412 -0.3785 -0.0250
   72SLPC   H8R 6299   6.520   3.442   9.649  1.1866 -1.8535  1.2584
   72SLPC   H8S 6300   6.408   3.547   9.750  1.1316  0.1729 -0.9805
   72SLPC   C29 6301   6.317   3.360   9.671 -0.0344  0.4809  0.4952
   72SLPC   H9R 6302   6.243   3.329   9.747 -0.6239  0.8356  0.0751
   72SLPC  C210 6303   6.298   3.332   9.538 -0.3083  0.2814  0.2948
   72SLPC  H10R 6304   6.218   3.264   9.508  0.5590 -1.0906  0.9621
   72SLPC  C211 6305   6.397   3.376   9.430  0.3467  0.0538  0.5905
   72SLPC  H11R 6306   6.423   3.484   9.429 -1.3178  0.4928 -1.0970
   72SLPC  H11S 6307   6.336   3.368   9.338 -2.2703 -1.9377  2.3177
   72SLPC  C212 6308   6.518   3.298   9.403  0.0384  0.3369  0.0791
   72SLPC  H12R 6309   6.568   3.257   9.492  0.0523  0.3107  0.0595
   72SLPC  C213 6310   6.578   3.286   9.276  0.3022 -0.1942 -0.4276
   72SLPC  H13R 6311   6.668   3.223   9.273 -0.3864 -1.3138  0.9809
   72SLPC  C214 6312   6.535   3.334   9.145  0.8724 -0.1855  0.6549
   72SLPC  H14R 6313   6.612   3.400   9.100 -0.3094  0.7108 -0.1215
   72SLPC  H14S 6314   6.444   3.398   9.158  0.5958 -0.3257 -0.4919
   72SLPC  C215 6315   6.520   3.215   9.054  0.0221  0.2783 -0.7343
   72SLPC  H15R 6316   6.464   3.138   9.111 -0.7308  2.0038  0.9817
   72SLPC  H15S 6317   6.618   3.164   9.048 -0.3907 -0.9285  1.6593
   72SLPC  C216 6318   6.457   3.255   8.926  0.0364  0.0045  0.1989
   72SLPC  H16R 6319   6.368   3.314   8.957  0.1668  0.0568  0.4747
   72SLPC  H16S 6320   6.441   3.166   8.862  2.9735 -1.2565  1.0172
   72SLPC  C217 6321   6.540   3.342   8.825 -0.2248 -0.3356 -0.6918
   72SLPC  H17R 6322   6.531   3.448   8.858 -0.1051 -0.3756 -0.5273
   72SLPC  H17S 6323   6.484   3.333   8.730  1.3717 -1.4960 -1.5781
   72SLPC  C218 6324   6.693   3.309   8.804  0.5834 -0.5351 -0.0836
   72SLPC  H18R 6325   6.727   3.370   8.718 -2.0363 -1.9004 -2.2576
   72SLPC  H18S 6326   6.705   3.209   8.757  2.6787 -0.8032  0.9326
   72SLPC  H18T 6327   6.746   3.311   8.901  0.0378  1.8322  0.2203
   72SLPC   C33 6328   6.820   3.421  10.065 -0.1650 -0.3736 -0.0037
   72SLPC   H3X 6329   6.881   3.506  10.029  0.4230 -0.6830  0.2512
   72SLPC   H3Y 6330   6.713   3.450  10.060 -0.6571 -1.9831  0.5642
   72SLPC   C34 6331   6.862   3.311   9.966  0.5367  0.1046 -0.0272
   72SLPC   H4X 6332   6.764   3.274   9.928  1.3343  0.7619 -2.9558
   72SLPC   H4Y 6333   6.902   3.225  10.023 -2.4047  0.4236  2.8355
   72SLPC   C35 6334   6.944   3.355   9.847 -0.5258  0.0197 -0.3260
   72SLPC   H5X 6335   7.045   3.381   9.886  0.7937 -0.7738 -2.9626
   72SLPC   H5Y 6336   6.904   3.448   9.801 -0.4843  0.7221  0.9966
   72SLPC   C36 6337   6.951   3.245   9.737 -0.4889  0.9556 -0.0803
   72SLPC   H6X 6338   6.847   3.208   9.720 -0.5497  0.2383  1.6233
   72SLPC   H6Y 6339   7.007   3.160   9.780 -0.5127  1.2784  0.6060
   72SLPC   C37 6340   7.023   3.297   9.611 -0.6901 -0.7300  0.4232
   72SLPC   H7X 6341   7.131   3.309   9.638 -0.3571  1.2132 -1.4987
   72SLPC   H7Y 6342   6.972   3.394   9.590  0.9095 -0.2403 -1.5603
   72SLPC   C38 6343   6.998   3.213   9.489  0.1838  0.5342 -0.5608
   72SLPC   H8X 6344   6.888   3.209   9.475  0.1269  1.5399 -0.4938
   72SLPC   H8Y 6345   7.032   3.109   9.510 -2.3220 -0.2778 -0.1322
   72SLPC   C39 6346   7.070   3.257   9.364 -0.0591 -0.3404 -0.8226
   72SLPC   H9X 6347   7.180   3.263   9.380 -0.3005 -0.3966  1.2099
   72SLPC   H9Y 6348   7.031   3.358   9.340  0.2148 -0.0688 -0.1613
   72SLPC  C310 6349   7.033   3.164   9.249  0.0064 -0.3413 -0.3880
   72SLPC  H10X 6350   6.923   3.146   9.247  0.0355 -0.5053 -1.6383
   72SLPC  H10Y 6351   7.086   3.070   9.275  0.3107  0.1295  0.7469
   72SLPC  C311 6352   7.073   3.223   9.113  0.6148 -0.3352  0.2473
   72SLPC  H11X 6353   7.183   3.226   9.096  0.4389  0.1760 -0.8453
   72SLPC  H11Y 6354   7.026   3.319   9.085  2.6642 -0.2066 -3.3604
   72SLPC  C312 6355   7.031   3.147   8.989 -0.2998  0.4400  0.6038
   72SLPC  H12X 6356   6.934   3.095   9.006 -0.4808  0.7264  0.4436
   72SLPC  H12Y 6357   7.097   3.057   8.983 -0.9220 -0.0082  0.3293
   72SLPC  C313 6358   7.033   3.215   8.849  0.1001  0.1262 -0.4637
   72SLPC  H13X 6359   7.116   3.289   8.841 -2.9262  3.5960 -3.6741
   72SLPC  H13Y 6360   6.936   3.268   8.839 -0.4412 -0.9049 -0.8557
   72SLPC  C314 6361   7.054   3.103   8.737  0.7149  0.4687  0.3314
   72SLPC  H14X 6362   7.128   3.027   8.770 -0.3736 -0.9712 -0.4477
   72SLPC  H14Y 6363   7.093   3.156   8.648 -0.4600  0.3661 -0.2677
   72SLPC  C315 6364   6.920   3.043   8.693 -0.9602  0.2070 -0.3693
   72SLPC  H15X 6365   6.862   3.125   8.645  0.0136 -0.0883 -2.1130
   72SLPC  H15Y 6366   6.864   2.996   8.777 -0.8215 -0.4622 -0.6508
   72SLPC  C316 6367   6.944   2.948   8.580  0.3208 -1.0317 -0.1637
   72SLPC  H16X 6368   6.977   2.846   8.610  0.3400 -0.9666  0.0376
   72SLPC  H16Y 6369   7.011   2.995   8.505 -1.8171  1.3555 -0.7215
   72SLPC  C317 6370   6.816   2.907   8.510 -0.3497  0.2833  0.6309
   72SLPC  H17X 6371   6.769   2.988   8.452  1.4355  1.2235  0.4101
   72SLPC  H17Y 6372   6.745   2.870   8.587  0.6899  0.5109  1.7469
   72SLPC  C318 6373   6.829   2.791   8.411  0.1480 -0.2122 -0.0231
   72SLPC  H18X 6374   6.740   2.768   8.349  0.0844  0.3017 -0.1283
   72SLPC  H18Y 6375   6.880   2.700   8.449  1.7868  0.5086 -0.4154
   72SLPC  H18Z 6376   6.903   2.814   8.331 -0.1359 -2.6397 -1.0824
   73SLPC     N 6377   3.808   1.013  11.120  0.0697  1.0432 -0.1446
   73SLPC   C13 6378   3.915   0.990  11.223 -0.0995 -0.4425 -0.6719
   73SLPC  H13A 6379   4.011   0.992  11.173 -0.4846 -3.0097 -1.6591
   73SLPC  H13B 6380   3.912   1.072  11.293 -2.2266 -0.2770 -0.9065
   73SLPC  H13C 6381   3.902   0.899  11.280  2.0837 -0.3606  0.0651
   73SLPC   C14 6382   3.843   1.141  11.058 -0.0178  0.3339 -0.2868
   73SLPC  H14A 6383   3.775   1.156  10.976 -1.5289 -1.7410  0.4952
   73SLPC  H14B 6384   3.830   1.226  11.124  1.9130 -0.5337  1.3178
   73SLPC  H14C 6385   3.945   1.133  11.025 -0.5855 -0.9615 -1.8420
   73SLPC   C15 6386   3.673   0.998  11.199 -0.5205 -0.4958  0.2423
   73SLPC  H15A 6387   3.591   1.025  11.134  1.4789  1.0642 -1.8266
   73SLPC  H15B 6388   3.664   0.894  11.227  2.3812 -0.9312 -0.0720
   73SLPC  H15C 6389   3.665   1.055  11.290 -0.2076 -0.1300  0.0445
   73SLPC   C12 6390   3.799   0.899  11.015  0.2034  0.1633  0.3045
   73SLPC  H12A 6391   3.720   0.931  10.948 -0.0821  1.9375  1.4225
   73SLPC  H12B 6392   3.748   0.812  11.054 -1.6101  0.5269 -1.0626
   73SLPC   C11 6393   3.915   0.842  10.936 -0.0647  0.3969  0.0050
   73SLPC  H11A 6394   3.947   0.913  10.856  0.9712  0.3701  0.3802
   73SLPC  H11B 6395   3.876   0.754  10.882 -1.3656  0.5658  0.6442
   73SLPC     P 6396   4.111   0.685  10.999 -0.0008 -0.1071  0.0069
   73SLPC   O13 6397   4.247   0.718  11.048  0.1669 -0.0010 -0.3378
   73SLPC   O14 6398   4.043   0.565  11.047 -0.2412  0.2920 -0.5671
   73SLPC   O12 6399   4.021   0.816  11.021  0.2471 -0.4383  0.2086
   73SLPC   O11 6400   4.135   0.676  10.838  0.0067  0.3762 -0.3002
   73SLPC    C1 6401   4.219   0.582  10.775  0.5112 -1.4815  0.6128
   73SLPC    HA 6402   4.317   0.631  10.759 -0.0715 -0.4127  0.2502
   73SLPC    HB 6403   4.241   0.490  10.833 -1.2081 -1.6780  1.0062
   73SLPC    C2 6404   4.147   0.542  10.647 -0.4826 -0.0659  0.2785
   73SLPC    HS 6405   4.186   0.442  10.621 -0.3403 -0.1954  0.9842
   73SLPC   O21 6406   4.166   0.640  10.536  0.0839 -0.3361  0.3009
   73SLPC   C21 6407   4.291   0.651  10.492  0.1168  0.0768 -0.0579
   73SLPC   O22 6408   4.386   0.586  10.540 -0.0576 -0.2912 -0.3949
   73SLPC   C22 6409   4.292   0.750  10.378  0.5646  0.5641  0.4459
   73SLPC   H2R 6410   4.216   0.830  10.382  0.1042  0.4237 -2.7430
   73SLPC   H2S 6411   4.392   0.788  10.346  0.7181 -0.7447 -0.7181
   73SLPC    C3 6412   3.996   0.509  10.676  0.0804  0.5592  0.7828
   73SLPC    HX 6413   3.942   0.601  10.706  0.0930  0.2548  1.7715
   73SLPC    HY 6414   4.001   0.437  10.761  1.7478 -0.7409 -0.3360
   73SLPC   O31 6415   3.937   0.446  10.556 -0.4607  0.3006 -0.9309
   73SLPC   C31 6416   3.864   0.516  10.473  0.2399 -0.3284 -1.0649
   73SLPC   O32 6417   3.840   0.636  10.471 -0.5471  0.3092 -0.4045
   73SLPC   C32 6418   3.793   0.407  10.387 -0.9726 -0.6312  0.0757
   73SLPC   H2X 6419   3.741   0.346  10.465  0.6669 -0.4940  1.3226
   73SLPC   H2Y 6420   3.877   0.354  10.338  0.1048  1.0387  0.0297
   73SLPC   C23 6421   4.251   0.684  10.242 -0.5559  0.3311  0.1808
   73SLPC   H3R 6422   4.142   0.665  10.255 -0.3138  0.2971  2.5388
   73SLPC   H3S 6423   4.302   0.587  10.226  0.6225  0.6995  1.6008
   73SLPC   C24 6424   4.261   0.766  10.117 -0.3816 -0.5814 -0.8395
   73SLPC   H4R 6425   4.367   0.800  10.114 -0.4915  0.1461  1.4468
   73SLPC   H4S 6426   4.206   0.862  10.127 -0.1358 -0.3307 -1.8595
   73SLPC   C25 6427   4.198   0.694   9.997 -0.2229  0.3152 -0.4027
   73SLPC   H5R 6428   4.090   0.682  10.020 -0.3814  2.0249 -0.0849
   73SLPC   H5S 6429   4.247   0.596   9.978  0.4061  0.5865 -0.2251
   73SLPC   C26 6430   4.209   0.774   9.867  0.1799 -0.2069 -0.0751
   73SLPC   H6R 6431   4.312   0.781   9.828  0.4381  0.0898  0.6335
   73SLPC   H6S 6432   4.167   0.875   9.886 -0.6736 -0.7630  1.2076
   73SLPC   C27 6433   4.127   0.711   9.762 -0.1467 -0.8987  0.1284
   73SLPC   H7R 6434   4.032   0.683   9.813  0.0027 -1.2358  0.2239
   73SLPC   H7S 6435   4.163   0.609   9.734 -1.2756 -1.1692 -0.4319
   73SLPC   C28 6436   4.130   0.802   9.634  0.5281  0.0211  0.1182
   73SLPC   H8R 6437   4.223   0.861   9.647  0.4514  0.2058 -0.1498
   73SLPC   H8S 6438   4.054   0.878   9.666 -0.5275 -1.5040  1.3674
   73SLPC   C29 6439   4.108   0.753   9.489 -0.1638  0.2074  0.0027
   73SLPC   H9R 6440   4.028   0.682   9.467 -0.4044  0.5600 -0.2829
   73SLPC  C210 6441   4.185   0.781   9.388 -0.2554  0.1791  0.0383
   73SLPC  H10R 6442   4.144   0.743   9.293 -2.2918 -3.0609  2.0027
   73SLPC  C211 6443   4.310   0.859   9.385 -0.3674 -0.3112 -0.5420
   73SLPC  H11R 6444   4.387   0.815   9.319 -0.1092  2.1288 -2.0103
   73SLPC  H11S 6445   4.357   0.852   9.486 -1.2161 -1.8343 -0.2274
   73SLPC  C212 6446   4.306   1.006   9.338 -0.2968 -1.0078 -0.4492
   73SLPC  H12R 6447   4.286   1.073   9.423 -0.8880 -0.2530 -1.1680
   73SLPC  C213 6448   4.342   1.064   9.217  0.4188  0.0911 -0.5258
   73SLPC  H13R 6449   4.315   1.170   9.203  0.7055  0.0060 -1.8963
   73SLPC  C214 6450   4.382   0.998   9.090  0.3314 -0.3507  0.1373
   73SLPC  H14R 6451   4.468   0.931   9.113  0.6479  0.3422  1.0552
   73SLPC  H14S 6452   4.425   1.080   9.028  0.7490  0.4527  1.4286
   73SLPC  C215 6453   4.271   0.928   9.013 -0.4372  0.2406  0.2689
   73SLPC  H15R 6454   4.194   1.002   8.982 -4.0505 -1.6671  3.7720
   73SLPC  H15S 6455   4.219   0.846   9.068  1.6148 -2.6544 -1.7851
   73SLPC  C216 6456   4.314   0.850   8.889 -0.2662  0.4789 -0.4241
   73SLPC  H16R 6457   4.380   0.770   8.929 -1.5328  0.3554  1.5457
   73SLPC  H16S 6458   4.377   0.902   8.814  2.1477 -1.1486  0.3269
   73SLPC  C217 6459   4.201   0.781   8.809 -0.2000 -0.1399 -0.0343
   73SLPC  H17R 6460   4.150   0.709   8.877  2.5057 -0.4747  1.8172
   73SLPC  H17S 6461   4.247   0.721   8.728  1.3143 -0.0307  0.7080
   73SLPC  C218 6462   4.092   0.866   8.756 -0.2934 -0.4738 -0.2757
   73SLPC  H18R 6463   4.018   0.813   8.693 -1.1492  0.8911 -0.4654
   73SLPC  H18S 6464   4.147   0.934   8.686 -0.0803  1.9130  2.0518
   73SLPC  H18T 6465   4.051   0.928   8.838  2.0577 -1.3952  1.7218
   73SLPC   C33 6466   3.713   0.484  10.281  0.6403  0.1485  0.1359
   73SLPC   H3X 6467   3.789   0.556  10.241 -1.6344  1.8077 -1.4569
   73SLPC   H3Y 6468   3.627   0.540  10.324 -0.4954 -0.6120 -1.0890
   73SLPC   C34 6469   3.675   0.396  10.160  0.0257 -0.3808 -1.0546
   73SLPC   H4X 6470   3.759   0.327  10.139 -0.8443 -1.3325 -1.4404
   73SLPC   H4Y 6471   3.670   0.459  10.069 -0.0629  1.2731  0.0410
   73SLPC   C35 6472   3.545   0.322  10.179  0.0528  0.7091 -0.2424
   73SLPC   H5X 6473   3.453   0.384  10.180 -0.8152 -0.5335  0.9121
   73SLPC   H5Y 6474   3.554   0.253  10.265 -1.4831  0.8785  0.0728
   73SLPC   C36 6475   3.529   0.235  10.051  0.0800 -0.1952 -0.4425
   73SLPC   H6X 6476   3.454   0.163  10.089  0.5116  0.1689  1.1467
   73SLPC   H6Y 6477   3.630   0.190  10.042  2.0690  3.5259  1.0508
   73SLPC   C37 6478   3.483   0.325   9.933  0.2741 -0.3065  0.2256
   73SLPC   H7X 6479   3.569   0.386   9.898  1.7599 -2.8848 -0.8978
   73SLPC   H7Y 6480   3.409   0.404   9.955  0.8593  0.0471  0.9457
   73SLPC   C38 6481   3.429   0.258   9.805 -0.3101 -0.1136 -0.1635
   73SLPC   H8X 6482   3.344   0.194   9.835 -0.1336  0.2158  1.0801
   73SLPC   H8Y 6483   3.514   0.191   9.781 -1.0932 -0.0321 -3.8523
   73SLPC   C39 6484   3.393   0.350   9.685 -0.0908 -0.3918 -0.3596
   73SLPC   H9X 6485   3.485   0.363   9.624 -1.0035  1.5979 -1.3899
   73SLPC   H9Y 6486   3.380   0.446   9.739 -1.4354 -1.3642  1.1503
   73SLPC  C310 6487   3.275   0.301   9.604 -0.3508 -0.0335 -0.2044
   73SLPC  H10X 6488   3.180   0.312   9.659  0.0029  0.3164  0.3440
   73SLPC  H10Y 6489   3.286   0.194   9.579 -1.2259 -0.4526  1.1545
   73SLPC  C311 6490   3.257   0.387   9.475 -0.8791 -0.2786  0.4579
   73SLPC  H11X 6491   3.336   0.353   9.405 -0.8730  0.1513  0.2517
   73SLPC  H11Y 6492   3.273   0.494   9.500 -0.7094 -0.3212  0.5360
   73SLPC  C312 6493   3.119   0.383   9.420 -0.4150 -0.5541  0.4725
   73SLPC  H12X 6494   3.099   0.448   9.333  0.3155  0.1683  0.8393
   73SLPC  H12Y 6495   3.040   0.422   9.487 -0.7766  2.4797 -1.5226
   73SLPC  C313 6496   3.084   0.239   9.375 -1.3310  0.7273  0.0767
   73SLPC  H13X 6497   2.980   0.245   9.336 -0.8869 -0.5107 -1.4227
   73SLPC  H13Y 6498   3.086   0.169   9.462 -0.3452 -0.2190 -0.6771
   73SLPC  C314 6499   3.175   0.173   9.268 -0.4232  0.2699 -0.2655
   73SLPC  H14X 6500   3.151   0.066   9.251 -0.9574  0.6414 -2.1557
   73SLPC  H14Y 6501   3.279   0.169   9.307 -0.5931 -1.2815  0.0839
   73SLPC  C315 6502   3.176   0.249   9.132  0.4088 -0.1495  0.3514
   73SLPC  H15X 6503   3.213   0.353   9.150  0.5186 -0.2144  0.5051
   73SLPC  H15Y 6504   3.076   0.272   9.089  0.9839  1.4059 -0.2327
   73SLPC  C316 6505   3.252   0.178   9.011 -0.5108 -0.4727 -0.0843
   73SLPC  H16X 6506   3.197   0.090   8.972 -0.1028 -0.4694 -0.6848
   73SLPC  H16Y 6507   3.349   0.138   9.047 -0.6640 -0.6832  0.0967
   73SLPC  C317 6508   3.259   0.267   8.880 -0.1380  0.0254  0.0395
   73SLPC  H17X 6509   3.153   0.300   8.872 -1.3977 -3.9288 -2.7063
   73SLPC  H17Y 6510   3.291   0.202   8.796  2.8588 -1.5676  2.2143
   73SLPC  C318 6511   3.371   0.376   8.898 -0.5989  0.3092 -0.7316
   73SLPC  H18X 6512   3.345   0.429   8.992 -0.6567 -0.5693 -0.2394
   73SLPC  H18Y 6513   3.382   0.446   8.813  0.6130 -0.3708 -1.1562
   73SLPC  H18Z 6514   3.468   0.326   8.918 -1.8453 -1.5546  1.1783
   74SLPC     N 6515   0.527   0.777  11.015  0.0653 -0.0806 -0.4422
   74SLPC   C13 6516   0.396   0.726  11.074 -0.9036 -0.4125  0.0942
   74SLPC  H13A 6517   0.349   0.799  11.139 -1.3175 -3.2979  3.3334
   74SLPC  H13B 6518   0.324   0.698  10.998  0.8404 -1.5228 -1.2180
   74SLPC  H13C 6519   0.417   0.640  11.136 -1.9079 -2.5370 -2.3092
   74SLPC   C14 6520   0.583   0.664  10.938 -0.2872  0.4688 -0.2732
   74SLPC  H14A 6521   0.619   0.582  10.999 -2.8789  1.0490  2.2854
   74SLPC  H14B 6522   0.510   0.613  10.877  0.2256 -2.4564  1.3742
   74SLPC  H14C 6523   0.667   0.694  10.877  0.2943  1.5494  0.9983
   74SLPC   C15 6524   0.623   0.831  11.116 -0.1954  0.0794  0.1343
   74SLPC  H15A 6525   0.713   0.829  11.055 -0.8249  1.8320 -0.9199
   74SLPC  H15B 6526   0.600   0.933  11.144  0.1654  0.4556 -0.8733
   74SLPC  H15C 6527   0.631   0.771  11.205  1.5843  0.0343 -0.0108
   74SLPC   C12 6528   0.482   0.889  10.922 -0.1140 -0.1538 -0.5071
   74SLPC  H12A 6529   0.572   0.946  10.901  0.4877  0.2178  2.4917
   74SLPC  H12B 6530   0.420   0.957  10.978 -0.4674  0.2222 -1.3539
   74SLPC   C11 6531   0.410   0.864  10.784  0.2058  0.3515  0.0875
   74SLPC  H11A 6532   0.477   0.801  10.721  1.1116 -0.2951  1.6377
   74SLPC  H11B 6533   0.384   0.968  10.754  0.5573  0.9095  1.6445
   74SLPC     P 6534   0.250   0.650  10.751 -0.4406 -0.3487  0.4390
   74SLPC   O13 6535   0.376   0.577  10.708  0.2705 -0.2459 -0.0281
   74SLPC   O14 6536   0.180   0.597  10.871  0.2538  0.8409 -0.7913
   74SLPC   O12 6537   0.281   0.802  10.787 -0.3154  0.5220 -0.1913
   74SLPC   O11 6538   0.144   0.663  10.632  0.7448 -0.4213 -0.4867
   74SLPC    C1 6539   0.055   0.776  10.631  0.4808  0.4305 -0.1596
   74SLPC    HA 6540  -0.046   0.734  10.614  0.2150  0.9156  0.1872
   74SLPC    HB 6541   0.033   0.832  10.725 -1.2834  0.4011 -0.5379
   74SLPC    C2 6542   0.083   0.882  10.523 -0.1373  0.5648  0.2098
   74SLPC    HS 6543   0.001   0.957  10.517  2.6709  4.0512  1.3589
   74SLPC   O21 6544   0.106   0.818  10.393  0.2357 -0.2656 -0.4920
   74SLPC   C21 6545  -0.004   0.782  10.333  1.5436  0.1604  0.2073
   74SLPC   O22 6546  -0.121   0.800  10.369  0.3636 -0.5378 -0.3900
   74SLPC   C22 6547   0.022   0.711  10.206  0.3722  0.0166  0.0645
   74SLPC   H2R 6548   0.109   0.645  10.226 -0.2706 -0.5520  1.0188
   74SLPC   H2S 6549  -0.067   0.645  10.200  1.8065 -1.8812 -2.2511
   74SLPC    C3 6550   0.202   0.976  10.556  0.0454 -0.7156  0.1266
   74SLPC    HX 6551   0.289   0.909  10.571  0.8619  0.1324 -0.6298
   74SLPC    HY 6552   0.176   1.040  10.643  0.2459 -1.2760  0.6034
   74SLPC   O31 6553   0.239   1.053  10.438 -0.2515  0.3269 -0.2282
   74SLPC   C31 6554   0.333   1.003  10.353 -0.2173  0.1280 -0.0573
   74SLPC   O32 6555   0.414   0.911  10.368  0.1259  0.4379 -0.2389
   74SLPC   C32 6556   0.327   1.092  10.227 -0.1328 -0.0162 -0.3728
   74SLPC   H2X 6557   0.396   1.178  10.241 -0.3925  0.4107 -1.5867
   74SLPC   H2Y 6558   0.224   1.131  10.208 -1.1318 -1.9125  0.8756
   74SLPC   C23 6559   0.035   0.806  10.079  0.4150 -0.0302  0.1996
   74SLPC   H3R 6560   0.145   0.810  10.072  0.5210 -2.9518 -1.2000
   74SLPC   H3S 6561  -0.015   0.899  10.114  0.1140 -0.5802  1.2910
   74SLPC   C24 6562  -0.042   0.757   9.961 -0.3866 -0.4376  0.1813
   74SLPC   H4R 6563  -0.148   0.752   9.995 -0.5713  0.7865 -0.1468
   74SLPC   H4S 6564  -0.005   0.657   9.931  3.5490  1.0618 -0.5370
   74SLPC   C25 6565  -0.051   0.843   9.840  0.1436 -0.5622  0.0864
   74SLPC   H5R 6566  -0.111   0.796   9.760 -0.8791 -1.3061  1.2634
   74SLPC   H5S 6567   0.051   0.861   9.798 -0.4634  0.3677 -1.0641
   74SLPC   C26 6568  -0.115   0.989   9.853 -0.4562  0.2404  1.0386
   74SLPC   H6R 6569  -0.027   1.052   9.879  2.1893 -3.0535  0.7469
   74SLPC   H6S 6570  -0.190   0.991   9.935  2.3895  1.9798  3.8425
   74SLPC   C27 6571  -0.173   1.040   9.721 -0.0039  0.4620  0.1757
   74SLPC   H7R 6572  -0.215   0.959   9.659 -1.8650  0.9049  0.7825
   74SLPC   H7S 6573  -0.088   1.080   9.662  0.0604 -1.9625 -1.4812
   74SLPC   C28 6574  -0.283   1.144   9.730  0.4052  0.7583  0.2538
   74SLPC   H8R 6575  -0.377   1.103   9.774  1.0417  0.3593  1.2648
   74SLPC   H8S 6576  -0.311   1.173   9.626 -1.3710  0.8562  0.7214
   74SLPC   C29 6577  -0.232   1.270   9.792 -0.5576 -0.3752  0.1006
   74SLPC   H9R 6578  -0.219   1.260   9.900  0.7145 -1.7844 -0.1509
   74SLPC  C210 6579  -0.215   1.393   9.736 -0.7920  0.3282  0.1848
   74SLPC  H10R 6580  -0.204   1.485   9.795  0.6678  1.3963 -1.6334
   74SLPC  C211 6581  -0.229   1.443   9.593  0.1184 -0.4906  0.3367
   74SLPC  H11R 6582  -0.308   1.521   9.586 -1.7670 -2.4739 -2.6758
   74SLPC  H11S 6583  -0.288   1.381   9.523  1.6330 -1.6617  0.0243
   74SLPC  C212 6584  -0.100   1.494   9.527 -0.0840 -0.4661 -0.4263
   74SLPC  H12R 6585  -0.051   1.583   9.569 -1.8589 -0.5374  1.9967
   74SLPC  C213 6586  -0.047   1.423   9.427 -0.1539 -0.0154 -0.0481
   74SLPC  H13R 6587   0.057   1.447   9.399  0.3674  0.4655  2.0917
   74SLPC  C214 6588  -0.091   1.296   9.356 -0.3460 -0.1019  0.4732
   74SLPC  H14R 6589  -0.080   1.296   9.245 -4.3639 -0.1827 -0.0860
   74SLPC  H14S 6590  -0.197   1.275   9.382 -0.2912  0.2414  0.9918
   74SLPC  C215 6591  -0.003   1.176   9.392  0.1823  0.0706 -0.0668
   74SLPC  H15R 6592  -0.014   1.163   9.502  0.1487  0.6614  0.0088
   74SLPC  H15S 6593   0.107   1.187   9.384  0.0781  0.8576 -0.5218
   74SLPC  C216 6594  -0.032   1.049   9.313  0.6235 -0.6922  0.4841
   74SLPC  H16R 6595  -0.043   1.074   9.205  1.0220  0.0829  0.6226
   74SLPC  H16S 6596  -0.134   1.022   9.348  0.4785  1.2045  1.6099
   74SLPC  C217 6597   0.073   0.946   9.338 -0.8043  0.4238  0.0366
   74SLPC  H17R 6598   0.169   0.983   9.296  0.4231  2.0337  3.8359
   74SLPC  H17S 6599   0.039   0.853   9.288  3.1299 -1.1728 -0.0067
   74SLPC  C218 6600   0.103   0.917   9.483  0.3020  0.0859 -0.7179
   74SLPC  H18R 6601   0.009   0.898   9.540 -0.3375  3.1742 -0.5547
   74SLPC  H18S 6602   0.151   1.000   9.538 -0.1512  0.5784 -1.0552
   74SLPC  H18T 6603   0.169   0.831   9.507 -0.6732 -0.6380 -0.5861
   74SLPC   C33 6604   0.387   1.019  10.108  0.1733 -0.5691 -0.5486
   74SLPC   H3X 6605   0.364   0.910  10.115 -1.3047 -0.2021  0.6992
   74SLPC   H3Y 6606   0.498   1.023  10.109  0.2432 -1.9362 -0.5031
   74SLPC   C34 6607   0.345   1.081   9.976 -0.2841 -0.3773  0.6239
   74SLPC   H4X 6608   0.238   1.108   9.981  0.2520  2.0006  0.4659
   74SLPC   H4Y 6609   0.352   1.007   9.893  0.1106 -0.9145  1.1300
   74SLPC   C35 6610   0.413   1.213   9.944 -0.0422 -0.5736 -0.8306
   74SLPC   H5X 6611   0.518   1.187   9.918 -0.2700  0.0788 -2.4932
   74SLPC   H5Y 6612   0.414   1.285  10.029 -1.7466  0.5469 -1.7060
   74SLPC   C36 6613   0.355   1.282   9.817 -0.8128 -0.1511  0.2413
   74SLPC   H6X 6614   0.391   1.387   9.823  4.3141 -1.7353  2.4416
   74SLPC   H6Y 6615   0.245   1.275   9.824 -0.7070 -1.6000  0.5899
   74SLPC   C37 6616   0.404   1.213   9.684  0.1907 -0.6452  0.0482
   74SLPC   H7X 6617   0.355   1.114   9.677 -0.9878 -0.1638  0.9609
   74SLPC   H7Y 6618   0.509   1.179   9.688 -0.5008 -2.8294  1.2467
   74SLPC   C38 6619   0.387   1.306   9.565  0.0641 -0.1594  0.7164
   74SLPC   H8X 6620   0.477   1.371   9.561 -0.0118 -0.1211 -0.8987
   74SLPC   H8Y 6621   0.293   1.367   9.562  0.2881  0.1533 -0.5381
   74SLPC   C39 6622   0.383   1.229   9.427 -0.6563 -0.2559 -0.6685
   74SLPC   H9X 6623   0.293   1.165   9.428 -2.3476  1.9995 -0.4896
   74SLPC   H9Y 6624   0.472   1.162   9.425 -1.7481 -1.8003  0.6884
   74SLPC  C310 6625   0.380   1.338   9.316  0.5565  0.8282  0.3050
   74SLPC  H10X 6626   0.455   1.419   9.333  2.0731 -0.7987  1.9818
   74SLPC  H10Y 6627   0.279   1.383   9.322 -0.9355 -1.7961 -2.6660
   74SLPC  C311 6628   0.407   1.276   9.178 -0.4420 -0.2250  0.9031
   74SLPC  H11X 6629   0.373   1.170   9.175 -0.1328 -0.3455 -2.3572
   74SLPC  H11Y 6630   0.517   1.274   9.163 -0.5441 -0.7661  0.1986
   74SLPC  C312 6631   0.332   1.350   9.063  0.1320  0.8305  0.5091
   74SLPC  H12X 6632   0.342   1.288   8.971  1.0329 -0.0953  1.2126
   74SLPC  H12Y 6633   0.378   1.447   9.035 -0.0340  0.6787 -0.3252
   74SLPC  C313 6634   0.183   1.367   9.084 -0.3866  0.2360 -0.6139
   74SLPC  H13X 6635   0.153   1.448   9.154  3.3551  1.9515 -0.7526
   74SLPC  H13Y 6636   0.130   1.271   9.104 -0.2391  0.3443  0.3740
   74SLPC  C314 6637   0.131   1.412   8.943  0.5314 -0.6930 -0.5090
   74SLPC  H14X 6638   0.137   1.327   8.872 -0.2898 -0.1491 -1.2419
   74SLPC  H14Y 6639   0.187   1.498   8.901 -0.6288 -0.0124 -0.7055
   74SLPC  C315 6640  -0.020   1.455   8.944 -0.4760  0.0136  0.2484
   74SLPC  H15X 6641  -0.033   1.564   8.960 -0.1572  0.0615  0.1936
   74SLPC  H15Y 6642  -0.084   1.405   9.020 -2.4017 -0.1785 -1.4220
   74SLPC  C316 6643  -0.085   1.424   8.802  0.3412  0.4080 -0.7219
   74SLPC  H16X 6644  -0.076   1.316   8.778 -0.8775  0.1398 -0.0779
   74SLPC  H16Y 6645  -0.052   1.496   8.724 -0.9359  0.3761 -1.3252
   74SLPC  C317 6646  -0.235   1.469   8.795 -0.6830  0.4694  0.9150
   74SLPC  H17X 6647  -0.236   1.579   8.811  0.2520  0.9041 -1.5039
   74SLPC  H17Y 6648  -0.289   1.425   8.882  2.8918 -0.1142  3.0529
   74SLPC  C318 6649  -0.306   1.432   8.667 -0.2344  0.0956 -0.4657
   74SLPC  H18X 6650  -0.399   1.492   8.660 -0.0840  0.3327 -0.4243
   74SLPC  H18Y 6651  -0.344   1.327   8.664 -1.5488  0.5473 -0.5166
   74SLPC  H18Z 6652  -0.254   1.430   8.569  1.0579 -0.2827  0.2060
   75SLPC     N 6653   3.101   5.911   6.454 -0.2755  0.3782 -0.0002
   75SLPC   C13 6654   3.083   6.057   6.404 -0.4766  0.4847  0.8105
   75SLPC  H13A 6655   3.039   6.056   6.305  1.2173  1.8117 -0.0160
   75SLPC  H13B 6656   3.015   6.115   6.465  1.4575  1.6163  2.0086
   75SLPC  H13C 6657   3.170   6.119   6.385 -1.1447  1.5080  1.0281
   75SLPC   C14 6658   3.172   5.842   6.342 -1.3788  0.4347  0.1086
   75SLPC  H14A 6659   3.108   5.825   6.256 -0.3112  1.2551 -0.8747
   75SLPC  H14B 6660   3.266   5.890   6.319 -2.1443  1.4911 -0.9431
   75SLPC  H14C 6661   3.209   5.750   6.384 -0.7139  0.0396 -1.2951
   75SLPC   C15 6662   2.971   5.848   6.470  0.5965  0.3075  0.1223
   75SLPC  H15A 6663   2.922   5.882   6.560  0.6451  1.4923 -0.2852
   75SLPC  H15B 6664   2.908   5.866   6.385  0.7259 -2.2277 -0.6038
   75SLPC  H15C 6665   2.975   5.741   6.483 -0.8343  0.2386  0.1313
   75SLPC   C12 6666   3.180   5.901   6.589 -0.0201 -0.0674 -0.4415
   75SLPC  H12A 6667   3.131   5.961   6.663 -1.3981 -0.8826 -0.6574
   75SLPC  H12B 6668   3.277   5.944   6.569 -0.1900  1.4869  1.8145
   75SLPC   C11 6669   3.211   5.757   6.653  0.1452 -0.5031  0.1585
   75SLPC  H11A 6670   3.111   5.711   6.668 -0.4018 -0.0314 -1.7741
   75SLPC  H11B 6671   3.264   5.771   6.749  2.1021  1.9050 -1.1565
   75SLPC     P 6672   3.434   5.677   6.538 -0.0274 -0.3966 -0.2995
   75SLPC   O13 6673   3.465   5.580   6.426 -0.1246 -0.2609 -0.1655
   75SLPC   O14 6674   3.463   5.818   6.508  0.0883  0.4291 -0.1931
   75SLPC   O12 6675   3.286   5.663   6.581 -0.0748 -0.2660  0.3598
   75SLPC   O11 6676   3.519   5.637   6.665  0.4028 -0.5710  0.3004
   75SLPC    C1 6677   3.653   5.573   6.647  0.5536  0.6466  0.5107
   75SLPC    HA 6678   3.640   5.473   6.601  2.4145  0.8454 -0.5193
   75SLPC    HB 6679   3.714   5.638   6.581  1.5030  0.9618  1.6697
   75SLPC    C2 6680   3.721   5.551   6.782 -0.5927 -0.1240  0.0488
   75SLPC    HS 6681   3.792   5.468   6.762  0.1891  0.8302 -1.3305
   75SLPC   O21 6682   3.636   5.513   6.882  0.1166 -0.0188  0.1433
   75SLPC   C21 6683   3.580   5.398   6.880  0.2699  0.6922  0.6279
   75SLPC   O22 6684   3.611   5.305   6.806 -0.1389  0.3233 -0.6086
   75SLPC   C22 6685   3.486   5.385   7.001  0.1301 -0.0231  0.2861
   75SLPC   H2R 6686   3.415   5.470   6.997 -2.4353 -2.0576 -1.9435
   75SLPC   H2S 6687   3.424   5.294   6.983 -0.1846  0.5047 -1.4346
   75SLPC    C3 6688   3.810   5.678   6.818 -0.1173  0.3328  0.2796
   75SLPC    HX 6689   3.751   5.770   6.804  0.4616  0.9001  1.4365
   75SLPC    HY 6690   3.890   5.695   6.742 -0.4010  1.3674  0.1981
   75SLPC   O31 6691   3.848   5.664   6.952  0.1057  0.3712 -0.3233
   75SLPC   C31 6692   3.801   5.744   7.045 -0.5627 -0.6210  0.0994
   75SLPC   O32 6693   3.720   5.836   7.033 -0.2179 -0.0889  0.1173
   75SLPC   C32 6694   3.842   5.693   7.183  0.3081  0.6487 -0.0796
   75SLPC   H2X 6695   3.953   5.701   7.187  0.3749 -0.3212  0.2820
   75SLPC   H2Y 6696   3.825   5.584   7.173  1.7740  0.5724 -2.5320
   75SLPC   C23 6697   3.548   5.369   7.137  0.0794 -0.0689 -0.5666
   75SLPC   H3R 6698   3.640   5.432   7.144  1.1935 -1.8152  2.8639
   75SLPC   H3S 6699   3.588   5.267   7.155  1.8280  0.8873  1.3323
   75SLPC   C24 6700   3.467   5.408   7.259 -0.0846 -0.0265  0.2855
   75SLPC   H4R 6701   3.368   5.359   7.265 -0.0273 -0.0705  0.9199
   75SLPC   H4S 6702   3.447   5.516   7.241 -0.1645  0.4493  2.8987
   75SLPC   C25 6703   3.527   5.364   7.393 -0.3032 -0.0350  0.0467
   75SLPC   H5R 6704   3.633   5.398   7.386 -0.4436  0.4780  0.3320
   75SLPC   H5S 6705   3.518   5.254   7.403 -0.7034  0.0896  1.2163
   75SLPC   C26 6706   3.462   5.425   7.510 -0.1229  0.2674  0.3654
   75SLPC   H6R 6707   3.351   5.419   7.514 -0.1039  0.3502  2.7827
   75SLPC   H6S 6708   3.492   5.532   7.507 -1.8711  0.7772 -0.9486
   75SLPC   C27 6709   3.521   5.368   7.640 -0.3682 -0.2345 -0.0334
   75SLPC   H7R 6710   3.630   5.381   7.626 -0.3114  0.2749  0.7995
   75SLPC   H7S 6711   3.483   5.264   7.646 -0.5979 -0.1177  0.6982
   75SLPC   C28 6712   3.465   5.444   7.766  0.0839  0.5370 -0.0886
   75SLPC   H8R 6713   3.356   5.462   7.760  0.4782  3.4262 -0.0537
   75SLPC   H8S 6714   3.496   5.551   7.764  2.7650 -0.1593  0.1743
   75SLPC   C29 6715   3.497   5.370   7.888  0.0835 -0.4853  0.8338
   75SLPC   H9R 6716   3.567   5.293   7.853 -1.0411 -0.9406 -0.5150
   75SLPC  C210 6717   3.454   5.409   8.012  1.2331  0.3582  0.4014
   75SLPC  H10R 6718   3.473   5.344   8.099  2.3052 -1.7748 -1.3479
   75SLPC  C211 6719   3.370   5.529   8.039  0.6255  0.2873 -0.7919
   75SLPC  H11R 6720   3.294   5.503   8.116 -0.6953 -1.2092 -2.5066
   75SLPC  H11S 6721   3.311   5.562   7.951 -0.4773  1.9160  0.4906
   75SLPC  C212 6722   3.457   5.635   8.083 -0.3460  0.8231 -0.2549
   75SLPC  H12R 6723   3.557   5.634   8.038 -0.1282 -0.3963  0.2299
   75SLPC  C213 6724   3.446   5.721   8.185 -0.0452  0.6060  0.2107
   75SLPC  H13R 6725   3.527   5.794   8.206  0.7702  0.1148 -1.1015
   75SLPC  C214 6726   3.328   5.730   8.280  0.2657  0.3743  0.1142
   75SLPC  H14R 6727   3.251   5.651   8.268  1.1896 -0.6724  0.7815
   75SLPC  H14S 6728   3.289   5.834   8.270  2.7470  1.3083 -0.5079
   75SLPC  C215 6729   3.383   5.728   8.419  0.0359  0.3182 -0.0346
   75SLPC  H15R 6730   3.295   5.752   8.482  0.9602  3.3661  0.2165
   75SLPC  H15S 6731   3.449   5.815   8.439  0.6905 -0.2139  0.1882
   75SLPC  C216 6732   3.431   5.588   8.461 -0.1056 -0.1840 -0.7059
   75SLPC  H16R 6733   3.529   5.570   8.413  0.3366  1.8996 -0.6663
   75SLPC  H16S 6734   3.361   5.509   8.428  0.7698 -1.6429  0.7650
   75SLPC  C217 6735   3.437   5.576   8.618 -0.3938  0.4063 -0.0489
   75SLPC  H17R 6736   3.499   5.653   8.669 -1.0786  1.3654 -0.6392
   75SLPC  H17S 6737   3.482   5.476   8.639  1.9024  1.5667  0.9311
   75SLPC  C218 6738   3.294   5.568   8.679 -0.0636  0.2172 -0.2071
   75SLPC  H18R 6739   3.238   5.483   8.634  1.5627  0.0332 -2.0377
   75SLPC  H18S 6740   3.245   5.666   8.658 -1.6475 -0.5630 -0.2908
   75SLPC  H18T 6741   3.292   5.545   8.788  0.3431 -1.6253 -0.5501
   75SLPC   C33 6742   3.756   5.749   7.302 -0.3217  0.5684 -0.0489
   75SLPC   H3X 6743   3.755   5.859   7.288 -1.8068  0.7697  1.4242
   75SLPC   H3Y 6744   3.655   5.706   7.288 -0.5195  1.4980 -1.7025
   75SLPC   C34 6745   3.826   5.714   7.428 -0.4649  0.5316  0.3736
   75SLPC   H4X 6746   3.934   5.736   7.423 -0.7949  2.1934 -0.4796
   75SLPC   H4Y 6747   3.833   5.605   7.445 -0.7248  0.5017  0.2956
   75SLPC   C35 6748   3.759   5.786   7.547 -0.9650  0.2958 -0.2659
   75SLPC   H5X 6749   3.666   5.729   7.567 -0.4557 -0.2298  0.6977
   75SLPC   H5Y 6750   3.730   5.888   7.514 -1.7217 -0.3542 -1.7055
   75SLPC   C36 6751   3.843   5.784   7.678 -0.3384 -0.4365  0.2179
   75SLPC   H6X 6752   3.929   5.853   7.669 -0.8727  0.0027 -1.9494
   75SLPC   H6Y 6753   3.874   5.681   7.709 -1.0650 -0.2996  1.4513
   75SLPC   C37 6754   3.759   5.839   7.794 -0.2088  0.3063 -0.9059
   75SLPC   H7X 6755   3.664   5.782   7.800  0.6703 -1.2416 -1.1256
   75SLPC   H7Y 6756   3.731   5.943   7.766  0.6373  0.5865 -0.7683
   75SLPC   C38 6757   3.834   5.840   7.923  0.1502 -0.1172  0.1350
   75SLPC   H8X 6758   3.933   5.888   7.907 -1.0955  2.2278 -1.0463
   75SLPC   H8Y 6759   3.847   5.738   7.963  2.9909 -0.1616 -0.6371
   75SLPC   C39 6760   3.755   5.929   8.026 -0.9857  0.4602 -0.9282
   75SLPC   H9X 6761   3.649   5.899   8.034 -0.7625 -0.6276 -1.7335
   75SLPC   H9Y 6762   3.756   6.037   8.004 -1.5219  0.5485 -0.5266
   75SLPC  C310 6763   3.818   5.912   8.164  0.5036 -0.8722 -0.1387
   75SLPC  H10X 6764   3.929   5.921   8.167  0.5031 -1.1387  0.9259
   75SLPC  H10Y 6765   3.794   5.809   8.198 -0.2914 -0.4989  0.4572
   75SLPC  C311 6766   3.772   6.027   8.251 -0.4926 -0.1426  0.6361
   75SLPC  H11X 6767   3.665   6.049   8.231 -0.6943 -0.1155  1.6628
   75SLPC  H11Y 6768   3.826   6.121   8.228 -1.4547  0.4024  0.5652
   75SLPC  C312 6769   3.783   5.998   8.401  0.6777 -0.1418  0.2313
   75SLPC  H12X 6770   3.754   5.892   8.416  1.2072 -0.1129  1.6091
   75SLPC  H12Y 6771   3.720   6.072   8.454  3.2165  1.9333  0.5535
   75SLPC  C313 6772   3.926   6.010   8.467 -0.1514 -0.0036 -0.0239
   75SLPC  H13X 6773   4.006   5.971   8.401  1.4069  2.9424 -0.0834
   75SLPC  H13Y 6774   3.932   5.953   8.562  1.4793  0.8723  0.4512
   75SLPC  C314 6775   3.977   6.153   8.495  0.4596  0.5880  0.0173
   75SLPC  H14X 6776   3.894   6.205   8.547 -0.1330 -0.9468  0.6860
   75SLPC  H14Y 6777   4.005   6.195   8.396  0.8368 -3.9745 -2.0906
   75SLPC  C315 6778   4.099   6.162   8.592 -0.1454 -0.2220  0.2652
   75SLPC  H15X 6779   4.187   6.112   8.546 -0.7046 -0.8483 -0.1494
   75SLPC  H15Y 6780   4.078   6.105   8.685 -1.4935  1.1997  0.8631
   75SLPC  C316 6781   4.136   6.312   8.607  0.2163  0.2447 -0.4871
   75SLPC  H16X 6782   4.038   6.355   8.639 -1.7388 -3.9566 -0.2256
   75SLPC  H16Y 6783   4.166   6.363   8.512 -0.1580 -0.1245 -0.8075
   75SLPC  C317 6784   4.232   6.350   8.718  0.3130 -0.3257 -0.4548
   75SLPC  H17X 6785   4.335   6.315   8.701  0.8277  0.7651  0.2913
   75SLPC  H17Y 6786   4.200   6.301   8.812  1.7417 -0.3544  0.0320
   75SLPC  C318 6787   4.218   6.498   8.750 -0.2956  0.3810  0.6403
   75SLPC  H18X 6788   4.245   6.559   8.661 -0.6746 -1.5532 -0.8497
   75SLPC  H18Y 6789   4.276   6.523   8.841  1.0777  0.6648 -0.2882
   75SLPC  H18Z 6790   4.112   6.525   8.769 -0.2636  2.1948 -1.3793
   76SLPC     N 6791   5.225   3.540   6.333  0.1129  0.3094 -0.1875
   76SLPC   C13 6792   5.346   3.457   6.297 -0.2172 -0.0363 -0.3841
   76SLPC  H13A 6793   5.437   3.510   6.320  0.8726 -1.6053 -0.8981
   76SLPC  H13B 6794   5.349   3.364   6.353  1.6198  0.4638  0.4146
   76SLPC  H13C 6795   5.348   3.434   6.192  0.4642  1.4298 -0.7132
   76SLPC   C14 6796   5.100   3.457   6.318  0.2671 -0.2846  0.1705
   76SLPC  H14A 6797   5.110   3.368   6.378  1.4915 -1.4613 -1.6514
   76SLPC  H14B 6798   5.017   3.513   6.358  0.0527 -1.0360  0.8109
   76SLPC  H14C 6799   5.079   3.442   6.213 -0.9512  1.1492  0.1804
   76SLPC   C15 6800   5.205   3.651   6.239 -1.0686  0.6948 -0.0786
   76SLPC  H15A 6801   5.186   3.610   6.141 -1.3200 -0.6350  0.4904
   76SLPC  H15B 6802   5.110   3.697   6.261 -1.6861 -0.7953  0.5804
   76SLPC  H15C 6803   5.283   3.725   6.237 -1.2952  0.9467  0.3716
   76SLPC   C12 6804   5.227   3.588   6.478  0.2849 -0.0967  0.3113
   76SLPC  H12A 6805   5.195   3.508   6.543  0.3395 -2.3191 -2.2080
   76SLPC  H12B 6806   5.156   3.668   6.488  0.5864  0.1552  0.4490
   76SLPC   C11 6807   5.359   3.642   6.535 -0.5346 -0.2944 -0.0012
   76SLPC  H11A 6808   5.430   3.557   6.545 -0.8605 -0.8465 -1.9119
   76SLPC  H11B 6809   5.342   3.680   6.638 -2.6904 -0.0199 -0.4152
   76SLPC     P 6810   5.533   3.765   6.379  0.0890  0.0185 -0.3228
   76SLPC   O13 6811   5.532   3.690   6.255  0.0428  0.6782  0.1898
   76SLPC   O14 6812   5.549   3.911   6.355 -0.1288  0.2532 -0.0426
   76SLPC   O12 6813   5.401   3.749   6.454 -0.4064 -0.2751  0.4245
   76SLPC   O11 6814   5.648   3.725   6.478  0.4502  0.2088  0.2181
   76SLPC    C1 6815   5.704   3.593   6.483 -0.5484  0.0093 -0.3611
   76SLPC    HA 6816   5.628   3.519   6.516  0.7426 -1.4267 -0.5221
   76SLPC    HB 6817   5.736   3.572   6.379  2.1825  3.1548 -0.3378
   76SLPC    C2 6818   5.831   3.570   6.575  0.0724 -0.4664  0.2544
   76SLPC    HS 6819   5.913   3.600   6.506 -1.5777 -1.7122 -2.4219
   76SLPC   O21 6820   5.843   3.434   6.621 -0.2758 -0.1498 -0.0492
   76SLPC   C21 6821   5.927   3.354   6.549  0.5920 -0.7674  0.7076
   76SLPC   O22 6822   5.986   3.391   6.450 -0.7402  0.2422  0.4490
   76SLPC   C22 6823   5.907   3.208   6.592 -0.2356  0.6090  0.3006
   76SLPC   H2R 6824   5.802   3.183   6.566 -0.4992  0.3592  1.5544
   76SLPC   H2S 6825   5.986   3.153   6.537  0.6146  1.2583  0.8471
   76SLPC    C3 6826   5.821   3.671   6.699  0.0430 -0.0729 -0.2179
   76SLPC    HX 6827   5.725   3.668   6.754  0.3664 -1.4956  0.3024
   76SLPC    HY 6828   5.815   3.772   6.652  0.4785  1.6909  3.2031
   76SLPC   O31 6829   5.941   3.653   6.782 -0.0884 -0.6286  0.3586
   76SLPC   C31 6830   5.923   3.649   6.910  0.2556 -1.2536 -0.4215
   76SLPC   O32 6831   5.825   3.678   6.977 -0.0779 -0.2797  0.1084
   76SLPC   C32 6832   6.070   3.614   6.966  0.1398  0.2924 -0.0051
   76SLPC   H2X 6833   6.148   3.613   6.886 -0.3291 -0.3991 -0.4575
   76SLPC   H2Y 6834   6.066   3.511   7.005  0.6791 -0.2581 -1.3395
   76SLPC   C23 6835   5.915   3.190   6.746  0.3602 -0.4348 -0.4458
   76SLPC   H3R 6836   5.861   3.098   6.778  1.2555 -0.8888 -0.1993
   76SLPC   H3S 6837   5.866   3.274   6.801 -1.5491 -2.5454  1.2886
   76SLPC   C24 6838   6.063   3.187   6.792  0.2173 -0.2786 -0.3082
   76SLPC   H4R 6839   6.115   3.285   6.786 -0.3624  0.1247  1.0630
   76SLPC   H4S 6840   6.111   3.118   6.720  0.6755  0.9263 -1.2007
   76SLPC   C25 6841   6.083   3.116   6.930 -0.1327 -0.4151 -0.3924
   76SLPC   H5R 6842   6.190   3.097   6.953 -0.3142 -0.8780  0.0959
   76SLPC   H5S 6843   6.061   3.008   6.916  1.7461 -0.8403 -0.2652
   76SLPC   C26 6844   5.999   3.165   7.048 -0.1732  0.2762  0.6769
   76SLPC   H6R 6845   5.897   3.175   7.004  0.7944  1.3031 -1.4505
   76SLPC   H6S 6846   6.028   3.264   7.091 -2.2939  0.7382  1.1808
   76SLPC   C27 6847   5.994   3.064   7.161  0.0083 -0.7842 -0.2277
   76SLPC   H7R 6848   6.099   3.060   7.196  0.0748 -2.3871 -0.5070
   76SLPC   H7S 6849   5.968   2.965   7.118 -1.1464 -0.4797 -0.2637
   76SLPC   C28 6850   5.898   3.104   7.265 -0.2958  0.7291 -0.0482
   76SLPC   H8R 6851   5.901   3.213   7.283 -0.8715  0.7298  0.0514
   76SLPC   H8S 6852   5.794   3.085   7.229  0.4598 -0.2724 -1.8546
   76SLPC   C29 6853   5.915   3.029   7.394  0.3497  0.2058  0.7752
   76SLPC   H9R 6854   5.897   2.920   7.393 -0.9668  0.4119  0.9900
   76SLPC  C210 6855   5.962   3.075   7.512  0.9152 -0.0878 -0.4047
   76SLPC  H10R 6856   5.955   3.008   7.599 -1.0918 -2.2257 -2.1093
   76SLPC  C211 6857   6.016   3.211   7.546  0.3940 -0.0037  0.5868
   76SLPC  H11R 6858   6.049   3.260   7.452  0.4155  1.4507  1.3301
   76SLPC  H11S 6859   6.109   3.195   7.604  0.4618 -1.5075  0.1210
   76SLPC  C212 6860   5.918   3.293   7.621 -0.7296 -0.4187 -0.0170
   76SLPC  H12R 6861   5.873   3.378   7.567 -4.0818 -1.0829  1.4741
   76SLPC  C213 6862   5.874   3.268   7.751  0.0770 -0.1973  0.0820
   76SLPC  H13R 6863   5.807   3.337   7.803  0.0970 -0.8228  0.9582
   76SLPC  C214 6864   5.915   3.156   7.843 -0.4171 -0.1276 -0.6426
   76SLPC  H14R 6865   6.003   3.100   7.803 -1.8942 -1.8699 -1.6187
   76SLPC  H14S 6866   5.828   3.088   7.858 -1.7367  1.6391 -0.0051
   76SLPC  C215 6867   5.944   3.201   7.989 -0.0477  0.4085 -0.4940
   76SLPC  H15R 6868   5.849   3.220   8.045 -1.1370  0.7489 -2.3828
   76SLPC  H15S 6869   5.995   3.300   7.993  2.1824 -0.7233  1.1057
   76SLPC  C216 6870   6.049   3.118   8.075 -0.0413 -0.3455  0.4280
   76SLPC  H16R 6871   6.053   3.135   8.185 -0.3119 -4.4908  1.2387
   76SLPC  H16S 6872   6.146   3.138   8.026 -0.1069 -0.3958  0.2779
   76SLPC  C217 6873   6.044   2.959   8.060  0.1686 -0.5659 -0.0793
   76SLPC  H17R 6874   6.027   2.953   7.950 -2.3591 -0.4588  0.2451
   76SLPC  H17S 6875   5.949   2.925   8.106 -0.4110  0.9419 -0.1135
   76SLPC  C218 6876   6.171   2.882   8.093 -0.0115  0.0417  0.5000
   76SLPC  H18R 6877   6.193   2.795   8.028  3.2610  0.3155  1.0517
   76SLPC  H18S 6878   6.178   2.854   8.200  2.1793 -0.8614  0.1620
   76SLPC  H18T 6879   6.257   2.948   8.068  0.9794 -2.0701 -2.1875
   76SLPC   C33 6880   6.111   3.709   7.082  0.0146 -0.2486  0.0353
   76SLPC   H3X 6881   6.073   3.812   7.065 -1.5839 -0.7266  0.4706
   76SLPC   H3Y 6882   6.221   3.717   7.083  0.1168 -0.8915 -1.7085
   76SLPC   C34 6883   6.049   3.660   7.217 -0.2905  0.7567  0.3227
   76SLPC   H4X 6884   6.060   3.551   7.234 -1.0456  0.6059 -0.0929
   76SLPC   H4Y 6885   5.941   3.684   7.205 -0.2046  0.4374 -1.2853
   76SLPC   C35 6886   6.095   3.736   7.343  0.9218 -0.2888  0.4398
   76SLPC   H5X 6887   6.087   3.844   7.321 -0.1013 -0.6934 -1.3482
   76SLPC   H5Y 6888   6.202   3.713   7.364  1.0276  0.2804  0.5491
   76SLPC   C36 6889   6.010   3.710   7.469 -0.3496  0.5674 -0.0786
   76SLPC   H6X 6890   6.021   3.601   7.485 -0.1923  0.7006  0.7233
   76SLPC   H6Y 6891   5.905   3.727   7.437 -0.5936 -2.4986 -1.2119
   76SLPC   C37 6892   6.043   3.801   7.594 -0.0882  0.1026  0.1633
   76SLPC   H7X 6893   6.049   3.909   7.568 -0.8839  0.0508 -0.2638
   76SLPC   H7Y 6894   6.142   3.768   7.631  0.0587 -1.2010 -1.3377
   76SLPC   C38 6895   5.948   3.769   7.708  0.3729  0.1942  0.1804
   76SLPC   H8X 6896   5.949   3.659   7.722 -0.0034 -0.3026 -2.8657
   76SLPC   H8Y 6897   5.846   3.810   7.693  0.8856  1.0596 -1.0555
   76SLPC   C39 6898   5.987   3.827   7.840 -0.8369  0.3468 -0.1573
   76SLPC   H9X 6899   6.003   3.936   7.826  2.8827  0.3044  2.2018
   76SLPC   H9Y 6900   6.085   3.779   7.862 -0.4835  0.9247 -0.4623
   76SLPC  C310 6901   5.897   3.786   7.957  0.1609  0.1134  0.0498
   76SLPC  H10X 6902   5.875   3.678   7.948  1.7603 -0.0879 -2.1760
   76SLPC  H10Y 6903   5.799   3.837   7.941 -0.4229 -0.6055  1.2237
   76SLPC  C311 6904   5.946   3.825   8.095 -0.1835  0.5517  0.1433
   76SLPC  H11X 6905   5.982   3.929   8.107 -2.0918  1.3242 -0.4206
   76SLPC  H11Y 6906   6.037   3.766   8.116 -0.1964  0.2204 -0.6777
   76SLPC  C312 6907   5.839   3.808   8.208 -0.5231 -0.3520  0.3793
   76SLPC  H12X 6908   5.770   3.729   8.172 -0.8060  0.3196 -0.6066
   76SLPC  H12Y 6909   5.771   3.895   8.219  1.4131  1.5868 -1.8895
   76SLPC  C313 6910   5.904   3.766   8.344 -0.5757 -0.2332 -0.0773
   76SLPC  H13X 6911   5.967   3.852   8.375 -1.8914  0.7316  0.0001
   76SLPC  H13Y 6912   5.963   3.674   8.325  0.2429  0.4539 -0.9691
   76SLPC  C314 6913   5.795   3.763   8.449 -0.4713 -0.4963 -0.1749
   76SLPC  H14X 6914   5.824   3.709   8.541 -2.4162 -0.4929  0.4879
   76SLPC  H14Y 6915   5.701   3.714   8.415 -0.3800 -0.7942 -0.0093
   76SLPC  C315 6916   5.753   3.898   8.506 -0.1876 -0.6567  0.0622
   76SLPC  H15X 6917   5.702   3.958   8.428  1.7906  0.2473 -0.5937
   76SLPC  H15Y 6918   5.839   3.952   8.550  0.0132 -0.9264  0.0022
   76SLPC  C316 6919   5.648   3.881   8.616 -0.4602 -0.1899 -0.2497
   76SLPC  H16X 6920   5.685   3.818   8.699  0.9982 -0.6595 -1.2316
   76SLPC  H16Y 6921   5.561   3.822   8.578 -0.9844 -1.2463  2.3936
   76SLPC  C317 6922   5.593   4.015   8.660 -0.6251 -0.0257 -0.1824
   76SLPC  H17X 6923   5.525   4.067   8.589 -0.4220  1.4846  0.7012
   76SLPC  H17Y 6924   5.690   4.068   8.659  0.2303 -1.3541 -3.5557
   76SLPC  C318 6925   5.534   4.015   8.797  0.7466 -0.5637 -0.5726
   76SLPC  H18X 6926   5.434   3.972   8.778  0.0969  1.0679 -1.0886
   76SLPC  H18Y 6927   5.526   4.116   8.844 -0.1514 -0.8074 -0.1947
   76SLPC  H18Z 6928   5.591   3.954   8.870 -0.3746 -1.9798 -0.8355
   77SLPC     N 6929   2.533   2.493   6.436  0.5897  0.2130  0.4585
   77SLPC   C13 6930   2.554   2.343   6.402 -0.2013  0.3044 -0.2299
   77SLPC  H13A 6931   2.639   2.300   6.452 -0.4898 -1.8253 -1.4312
   77SLPC  H13B 6932   2.468   2.283   6.428 -0.4277  0.4397 -0.6547
   77SLPC  H13C 6933   2.564   2.336   6.295  0.6927  0.3936 -0.1561
   77SLPC   C14 6934   2.508   2.505   6.586 -0.4476  0.1786 -0.0652
   77SLPC  H14A 6935   2.570   2.433   6.638  2.1480  0.5809 -2.3475
   77SLPC  H14B 6936   2.517   2.607   6.619  0.4941  1.2892 -3.3420
   77SLPC  H14C 6937   2.404   2.487   6.607 -0.0443  1.1204  3.2923
   77SLPC   C15 6938   2.419   2.552   6.357 -0.3235  0.3873  0.3515
   77SLPC  H15A 6939   2.394   2.651   6.393  1.1119  0.2722  1.7733
   77SLPC  H15B 6940   2.436   2.559   6.251 -0.9024  0.7063  0.2725
   77SLPC  H15C 6941   2.330   2.494   6.377 -0.0542 -0.7819 -1.5957
   77SLPC   C12 6942   2.659   2.564   6.401 -0.1513  0.0950  0.7634
   77SLPC  H12A 6943   2.667   2.665   6.438 -0.1479 -0.8495  3.6057
   77SLPC  H12B 6944   2.669   2.564   6.294  0.4940 -0.7811  0.8042
   77SLPC   C11 6945   2.792   2.497   6.468 -0.2971 -0.3770  0.4366
   77SLPC  H11A 6946   2.780   2.491   6.578  0.7286 -1.5317  0.5046
   77SLPC  H11B 6947   2.874   2.569   6.444 -2.3886  2.2802  0.8285
   77SLPC     P 6948   2.914   2.362   6.285 -0.2237  0.0399  0.3412
   77SLPC   O13 6949   2.921   2.218   6.240  0.2024 -0.5180 -0.2977
   77SLPC   O14 6950   2.855   2.454   6.183 -0.0378 -0.1176 -0.0779
   77SLPC   O12 6951   2.834   2.372   6.419 -0.1734  0.3114 -0.2119
   77SLPC   O11 6952   3.057   2.413   6.327 -0.5064  0.0411  0.0848
   77SLPC    C1 6953   3.136   2.320   6.408 -0.1991  0.0131 -0.1798
   77SLPC    HA 6954   3.096   2.216   6.411 -1.5920  0.4028 -2.4003
   77SLPC    HB 6955   3.240   2.316   6.368  0.9937  0.2438  2.6554
   77SLPC    C2 6956   3.146   2.367   6.554  0.0475 -0.7384  0.3609
   77SLPC    HS 6957   3.054   2.347   6.612  0.2036  0.7382  1.1719
   77SLPC   O21 6958   3.175   2.511   6.559  0.1002 -0.2317 -0.2665
   77SLPC   C21 6959   3.135   2.564   6.672 -0.3627 -0.0014 -0.1864
   77SLPC   O22 6960   3.064   2.517   6.758 -0.2341  0.0802 -0.2184
   77SLPC   C22 6961   3.172   2.710   6.674  0.2489  0.1023  0.0773
   77SLPC   H2R 6962   3.280   2.717   6.698  0.5247  1.8621 -1.4334
   77SLPC   H2S 6963   3.156   2.758   6.575  0.2472  0.9743  0.4955
   77SLPC    C3 6964   3.255   2.282   6.631  0.2736 -0.1151  0.0328
   77SLPC    HX 6965   3.347   2.275   6.568 -0.1563 -0.7320 -0.5381
   77SLPC    HY 6966   3.227   2.175   6.643 -1.5186  0.2876 -0.2218
   77SLPC   O31 6967   3.299   2.335   6.760 -0.3093 -0.2924  0.1026
   77SLPC   C31 6968   3.236   2.275   6.864 -0.2302 -0.4775  0.0002
   77SLPC   O32 6969   3.149   2.187   6.850  0.4162 -0.0884 -0.1615
   77SLPC   C32 6970   3.285   2.339   6.999  0.1162 -0.5319 -0.0963
   77SLPC   H2X 6971   3.276   2.450   6.988 -1.4904 -0.5587  0.6429
   77SLPC   H2Y 6972   3.389   2.310   7.027  1.1679  1.4227 -1.7158
   77SLPC   C23 6973   3.102   2.790   6.790  0.5678 -0.2882  0.3070
   77SLPC   H3R 6974   2.995   2.758   6.793  1.6690 -4.6921 -0.3779
   77SLPC   H3S 6975   3.102   2.897   6.757  1.6472 -0.4757 -0.3409
   77SLPC   C24 6976   3.170   2.795   6.932  0.1225  1.1351  0.4295
   77SLPC   H4R 6977   3.277   2.776   6.910  0.1953  0.7515  1.0791
   77SLPC   H4S 6978   3.128   2.718   7.000  0.6315  0.3289 -0.1484
   77SLPC   C25 6979   3.146   2.936   6.990  0.5831  0.5937  0.3571
   77SLPC   H5R 6980   3.041   2.967   6.972  0.0075 -0.9143  0.9652
   77SLPC   H5S 6981   3.214   3.006   6.936  1.1127  0.0793  0.3453
   77SLPC   C26 6982   3.185   2.942   7.138  0.0040 -0.4900 -1.0554
   77SLPC   H6R 6983   3.187   3.053   7.146  1.1018 -0.2144 -3.8862
   77SLPC   H6S 6984   3.287   2.903   7.157 -0.1837 -0.4994  0.0025
   77SLPC   C27 6985   3.082   2.876   7.231  0.0393 -0.0848 -0.0217
   77SLPC   H7R 6986   3.117   2.772   7.252  0.6585  0.2747  0.7684
   77SLPC   H7S 6987   2.986   2.872   7.176 -0.4274  0.8412  0.6955
   77SLPC   C28 6988   3.056   2.951   7.369 -0.1257  0.6101  0.7843
   77SLPC   H8R 6989   2.963   3.010   7.351  0.6343  2.2349  1.9540
   77SLPC   H8S 6990   3.135   3.027   7.388  3.4693 -1.4314 -3.7900
   77SLPC   C29 6991   3.066   2.859   7.485 -0.1628  0.4988  0.6455
   77SLPC   H9R 6992   3.165   2.852   7.533 -0.2715 -1.0147  0.7097
   77SLPC  C210 6993   2.972   2.772   7.535  0.0151 -0.3007  0.7407
   77SLPC  H10R 6994   2.998   2.707   7.620  2.5296 -1.2060 -0.6199
   77SLPC  C211 6995   2.826   2.762   7.489 -0.0338  0.4058 -0.0020
   77SLPC  H11R 6996   2.812   2.828   7.401 -2.7990 -0.7334 -0.5012
   77SLPC  H11S 6997   2.755   2.794   7.568 -4.0706 -0.1644 -3.1049
   77SLPC  C212 6998   2.802   2.617   7.451 -0.6097  0.4643 -0.5564
   77SLPC  H12R 6999   2.805   2.581   7.347  0.7472 -3.4937  0.6839
   77SLPC  C213 7000   2.781   2.517   7.539 -0.7633 -0.2058 -0.0027
   77SLPC  H13R 7001   2.750   2.422   7.494 -2.8909  0.1205  0.6510
   77SLPC  C214 7002   2.776   2.535   7.689  0.7963  0.9828  0.8878
   77SLPC  H14R 7003   2.683   2.489   7.728  0.8687  0.7530  0.7969
   77SLPC  H14S 7004   2.759   2.635   7.733 -2.9880  1.1946 -0.7281
   77SLPC  C215 7005   2.893   2.458   7.760  0.3888 -0.8112  0.2410
   77SLPC  H15R 7006   2.991   2.511   7.765  1.6017 -3.0431  1.8044
   77SLPC  H15S 7007   2.919   2.371   7.695  2.3239  0.0874 -0.2900
   77SLPC  C216 7008   2.847   2.409   7.901 -0.1251  0.1984 -0.8339
   77SLPC  H16R 7009   2.756   2.347   7.886 -0.4994  0.2780  0.8842
   77SLPC  H16S 7010   2.827   2.495   7.968  0.6323 -1.1499  1.2291
   77SLPC  C217 7011   2.954   2.324   7.979 -0.3084 -0.7125 -0.4126
   77SLPC  H17R 7012   2.906   2.314   8.079 -1.5145 -1.7381 -1.0688
   77SLPC  H17S 7013   3.056   2.368   7.979  0.2764 -1.9944 -1.3373
   77SLPC  C218 7014   2.975   2.188   7.910 -0.8371  0.3159 -0.1346
   77SLPC  H18R 7015   2.932   2.190   7.808 -3.0333  1.9415  0.7619
   77SLPC  H18S 7016   2.927   2.108   7.970 -1.4442  1.2097  0.5939
   77SLPC  H18T 7017   3.086   2.182   7.905 -0.9261 -0.3767 -3.0202
   77SLPC   C33 7018   3.191   2.307   7.117 -0.5370 -0.1740 -0.2961
   77SLPC   H3X 7019   3.194   2.198   7.139  1.4229 -0.1124 -0.0724
   77SLPC   H3Y 7020   3.087   2.340   7.096 -0.1932  0.7943 -0.5461
   77SLPC   C34 7021   3.233   2.386   7.247 -0.0952 -0.3732  0.0701
   77SLPC   H4X 7022   3.220   2.495   7.232 -1.9688 -0.6950 -0.9526
   77SLPC   H4Y 7023   3.340   2.380   7.275 -0.0722  0.7835  0.2760
   77SLPC   C35 7024   3.160   2.345   7.373  0.2540 -0.7212  0.1458
   77SLPC   H5X 7025   3.185   2.240   7.401 -0.1638 -0.3268  2.1886
   77SLPC   H5Y 7026   3.051   2.350   7.352  0.2218  1.8959  0.6691
   77SLPC   C36 7027   3.187   2.422   7.500 -0.1999  0.7257 -0.0427
   77SLPC   H6X 7028   3.125   2.373   7.578 -2.6943  2.1846 -0.9558
   77SLPC   H6Y 7029   3.153   2.528   7.492  0.5018  1.0343  0.9161
   77SLPC   C37 7030   3.332   2.413   7.550  0.7584 -0.1203  0.0285
   77SLPC   H7X 7031   3.400   2.456   7.473  0.9069  0.5512  0.5245
   77SLPC   H7Y 7032   3.361   2.307   7.563 -0.5620 -0.6490 -1.0546
   77SLPC   C38 7033   3.368   2.488   7.677  0.3141  0.3124 -0.7441
   77SLPC   H8X 7034   3.478   2.498   7.681  0.1422  3.9622 -1.5530
   77SLPC   H8Y 7035   3.330   2.431   7.764  0.7606  2.6390  1.0822
   77SLPC   C39 7036   3.325   2.637   7.686 -0.8632 -0.5767 -0.6508
   77SLPC   H9X 7037   3.215   2.646   7.685 -0.8690 -0.6448 -1.3902
   77SLPC   H9Y 7038   3.356   2.681   7.589  0.2295 -0.0006 -0.0681
   77SLPC  C310 7039   3.389   2.716   7.806  0.4749  0.7698  0.1127
   77SLPC  H10X 7040   3.358   2.822   7.792 -0.9895  0.1013 -2.2366
   77SLPC  H10Y 7041   3.498   2.711   7.789  0.1153 -0.7336 -2.2120
   77SLPC  C311 7042   3.328   2.681   7.944 -0.2438 -0.2935 -1.0325
   77SLPC  H11X 7043   3.380   2.723   8.033 -1.6502 -0.8007  0.0660
   77SLPC  H11Y 7044   3.336   2.571   7.955  1.3948 -0.0694  0.7126
   77SLPC  C312 7045   3.184   2.721   7.959  0.4479 -0.2370 -0.3334
   77SLPC  H12X 7046   3.112   2.663   7.897 -0.4697  0.8488 -0.3252
   77SLPC  H12Y 7047   3.177   2.832   7.956  1.0666 -0.2134 -0.9306
   77SLPC  C313 7048   3.127   2.683   8.098  0.0788  0.2662 -0.6815
   77SLPC  H13X 7049   3.212   2.715   8.162 -0.1720  1.8189 -1.0708
   77SLPC  H13Y 7050   3.102   2.575   8.106 -1.1743  0.5668 -0.3513
   77SLPC  C314 7051   2.992   2.754   8.135 -0.2770 -0.0670  0.7902
   77SLPC  H14X 7052   2.917   2.739   8.055 -1.0415  1.0625  1.2685
   77SLPC  H14Y 7053   3.011   2.864   8.130 -0.0422 -0.1354 -0.0320
   77SLPC  C315 7054   2.942   2.707   8.268  0.5300 -0.0594 -0.0443
   77SLPC  H15X 7055   3.026   2.707   8.341 -1.2163 -0.4595  2.0844
   77SLPC  H15Y 7056   2.905   2.602   8.262  0.1130 -0.0523  1.6779
   77SLPC  C316 7057   2.837   2.801   8.323 -0.5887 -0.3518 -0.4368
   77SLPC  H16X 7058   2.733   2.773   8.295 -1.2425  1.9274 -0.5200
   77SLPC  H16Y 7059   2.848   2.902   8.278 -0.8686 -0.5293 -0.9093
   77SLPC  C317 7060   2.842   2.813   8.483 -1.2984 -0.6561  0.6658
   77SLPC  H17X 7061   2.947   2.825   8.515 -0.9915 -0.7020 -0.3010
   77SLPC  H17Y 7062   2.814   2.713   8.522 -1.4279 -0.4528  1.1037
   77SLPC  C318 7063   2.749   2.914   8.546 -0.6172  0.1590 -0.1057
   77SLPC  H18X 7064   2.760   2.922   8.656 -0.2794 -0.4797 -0.0900
   77SLPC  H18Y 7065   2.643   2.886   8.532 -0.7992  0.7501  0.0681
   77SLPC  H18Z 7066   2.778   3.015   8.510  1.4193  0.4532  2.1305
   78SLPC     N 7067   3.918   4.411   6.387  0.1440 -0.0036  0.2549
   78SLPC   C13 7068   3.809   4.505   6.371  0.4280  0.3120  0.2649
   78SLPC  H13A 7069   3.844   4.589   6.313 -0.5228  1.8242  1.7804
   78SLPC  H13B 7070   3.733   4.463   6.308 -0.4993  1.1611  0.7809
   78SLPC  H13C 7071   3.766   4.534   6.466 -0.0013  1.0585 -0.1417
   78SLPC   C14 7072   3.978   4.385   6.255  1.1480 -0.8509 -0.8342
   78SLPC  H14A 7073   4.056   4.311   6.257 -1.5184 -3.9283 -1.6361
   78SLPC  H14B 7074   3.900   4.348   6.190 -0.2026  2.2743 -1.2063
   78SLPC  H14C 7075   4.002   4.481   6.211 -2.3534  1.4146  1.6138
   78SLPC   C15 7076   3.877   4.278   6.447  0.4658 -0.0821  0.0111
   78SLPC  H15A 7077   3.937   4.196   6.409 -0.7984 -1.0862  0.1263
   78SLPC  H15B 7078   3.872   4.273   6.555  0.9312  0.1742  0.0492
   78SLPC  H15C 7079   3.777   4.260   6.411 -0.2529  3.1976  0.0747
   78SLPC   C12 7080   4.017   4.481   6.480 -0.7357  0.7389 -0.5576
   78SLPC  H12A 7081   4.091   4.405   6.499 -0.9595 -0.0911 -2.7220
   78SLPC  H12B 7082   3.951   4.517   6.557 -1.8042 -1.3095 -0.4326
   78SLPC   C11 7083   4.106   4.608   6.435  0.1277 -0.2906  0.0204
   78SLPC  H11A 7084   4.155   4.651   6.525 -2.3922 -0.8654  1.7567
   78SLPC  H11B 7085   4.030   4.685   6.411 -0.4201 -1.1098 -0.8900
   78SLPC     P 7086   4.340   4.539   6.341 -0.1065  0.1532 -0.1066
   78SLPC   O13 7087   4.342   4.396   6.362 -0.2015 -0.2494 -0.5983
   78SLPC   O14 7088   4.410   4.586   6.225 -0.3204  0.0658  0.1476
   78SLPC   O12 7089   4.193   4.587   6.332 -0.1640 -0.0506 -0.0059
   78SLPC   O11 7090   4.397   4.628   6.457  0.1164  0.4797 -0.2201
   78SLPC    C1 7091   4.540   4.635   6.481  0.2366 -0.1071 -0.2805
   78SLPC    HA 7092   4.596   4.647   6.386 -0.3505 -0.4602 -0.6783
   78SLPC    HB 7093   4.556   4.729   6.539 -1.4805 -0.4075  0.7662
   78SLPC    C2 7094   4.598   4.523   6.572  0.3010 -0.0136  0.3598
   78SLPC    HS 7095   4.562   4.426   6.531 -0.5036  0.2047  0.5432
   78SLPC   O21 7096   4.524   4.546   6.692  0.0002  0.9605 -0.2762
   78SLPC   C21 7097   4.543   4.452   6.788 -0.3394 -0.2669  0.4220
   78SLPC   O22 7098   4.610   4.350   6.775 -0.2332 -0.2505 -0.6735
   78SLPC   C22 7099   4.471   4.501   6.913 -0.7797 -0.8316  0.1508
   78SLPC   H2R 7100   4.413   4.595   6.902  0.9323  0.6993  2.8670
   78SLPC   H2S 7101   4.404   4.416   6.936 -1.7244 -0.7077 -1.9318
   78SLPC    C3 7102   4.755   4.530   6.590 -0.2323 -0.1658 -0.1568
   78SLPC    HX 7103   4.807   4.533   6.492  0.4538 -0.0833  0.2069
   78SLPC    HY 7104   4.793   4.448   6.655  1.2970  1.7414  1.4870
   78SLPC   O31 7105   4.793   4.661   6.650  0.1370  0.1942  0.0926
   78SLPC   C31 7106   4.906   4.656   6.710 -1.2712 -0.2179  0.1898
   78SLPC   O32 7107   4.975   4.554   6.712  0.5450 -0.8758 -0.0791
   78SLPC   C32 7108   4.935   4.793   6.774  0.3593  0.4104  0.1980
   78SLPC   H2X 7109   4.885   4.868   6.709  0.0828 -1.6611 -2.1281
   78SLPC   H2Y 7110   5.044   4.801   6.756 -0.0415 -0.2194 -2.9556
   78SLPC   C23 7111   4.570   4.513   7.032 -0.5960 -1.3663 -0.0589
   78SLPC   H3R 7112   4.647   4.589   7.009  0.2613 -1.4257  2.3843
   78SLPC   H3S 7113   4.626   4.419   7.048  0.9333 -0.7666 -1.6491
   78SLPC   C24 7114   4.499   4.565   7.160  0.1916  0.5614 -0.4332
   78SLPC   H4R 7115   4.423   4.486   7.177 -0.0833  0.8659 -0.2471
   78SLPC   H4S 7116   4.456   4.667   7.153 -4.2807 -1.2090 -2.1944
   78SLPC   C25 7117   4.591   4.567   7.269 -0.5704  0.1490 -0.5787
   78SLPC   H5R 7118   4.671   4.640   7.245 -1.8834  0.8412 -3.2258
   78SLPC   H5S 7119   4.633   4.465   7.285  0.2546  0.3991 -1.0851
   78SLPC   C26 7120   4.531   4.614   7.408  0.3456 -0.3363 -0.1392
   78SLPC   H6R 7121   4.445   4.548   7.432 -1.5436  1.8829 -0.4356
   78SLPC   H6S 7122   4.486   4.714   7.390  0.8981 -0.1918 -0.7232
   78SLPC   C27 7123   4.630   4.620   7.526  0.5722  0.5332  0.3978
   78SLPC   H7R 7124   4.707   4.696   7.503  0.3608  1.8558  3.4938
   78SLPC   H7S 7125   4.682   4.522   7.540  0.3274  0.2221 -0.8122
   78SLPC   C28 7126   4.565   4.654   7.657  0.4605  0.0205  0.7780
   78SLPC   H8R 7127   4.469   4.600   7.667  1.0024 -1.7734 -2.3323
   78SLPC   H8S 7128   4.533   4.761   7.651  0.6568  0.0245 -0.5296
   78SLPC   C29 7129   4.656   4.636   7.777 -0.3450  0.7514  0.8519
   78SLPC   H9R 7130   4.752   4.587   7.758  0.5437  1.9998  1.9933
   78SLPC  C210 7131   4.632   4.664   7.909  0.0339 -0.3351 -0.6933
   78SLPC  H10R 7132   4.716   4.656   7.980  0.4608  1.4344 -0.9352
   78SLPC  C211 7133   4.511   4.730   7.969  0.1461  0.1841  0.7526
   78SLPC  H11R 7134   4.466   4.793   7.889 -1.7781 -2.2231 -0.1801
   78SLPC  H11S 7135   4.544   4.808   8.041  1.4906  1.2094 -0.9016
   78SLPC  C212 7136   4.404   4.633   8.019 -0.7861 -0.2042  0.7379
   78SLPC  H12R 7137   4.357   4.576   7.938  0.6303  0.2791 -0.4845
   78SLPC  C213 7138   4.376   4.612   8.143 -0.0139  0.3880  0.0120
   78SLPC  H13R 7139   4.313   4.525   8.167  1.6923 -0.8477  0.2344
   78SLPC  C214 7140   4.429   4.689   8.264  0.1477 -0.6871 -0.0990
   78SLPC  H14R 7141   4.358   4.676   8.349  1.3014  1.3158  1.2582
   78SLPC  H14S 7142   4.424   4.797   8.237  0.0371 -0.1214  1.9670
   78SLPC  C215 7143   4.564   4.636   8.321 -0.3775 -0.1975 -0.6981
   78SLPC  H15R 7144   4.653   4.678   8.269 -1.9575  2.8059 -1.2397
   78SLPC  H15S 7145   4.564   4.525   8.316  0.9048 -0.1492 -2.3343
   78SLPC  C216 7146   4.581   4.682   8.460  0.0227  0.0737  0.2688
   78SLPC  H16R 7147   4.672   4.634   8.502 -0.3716  1.4605  2.8821
   78SLPC  H16S 7148   4.489   4.656   8.517  0.5239 -0.5700  0.8004
   78SLPC  C217 7149   4.621   4.829   8.471  0.4514 -0.1313  0.9048
   78SLPC  H17R 7150   4.583   4.888   8.385 -1.6286 -0.3642  1.5992
   78SLPC  H17S 7151   4.729   4.851   8.456  0.2102 -0.7057 -2.6621
   78SLPC  C218 7152   4.569   4.893   8.592 -0.4082  0.0728 -0.1177
   78SLPC  H18R 7153   4.595   4.834   8.683 -2.3933 -0.6600  0.0226
   78SLPC  H18S 7154   4.458   4.894   8.591 -0.4808 -0.2907  2.2062
   78SLPC  H18T 7155   4.621   4.991   8.588  1.2493 -0.8161 -2.3930
   78SLPC   C33 7156   4.918   4.810   6.926 -0.8255 -0.8843 -0.4180
   78SLPC   H3X 7157   4.810   4.805   6.951 -0.4226 -0.6037  1.5144
   78SLPC   H3Y 7158   4.963   4.907   6.957  0.5619 -1.2943 -1.0567
   78SLPC   C34 7159   4.987   4.709   7.021  0.2003 -0.1119  0.2239
   78SLPC   H4X 7160   5.094   4.727   6.997 -0.3584  0.9170 -1.6403
   78SLPC   H4Y 7161   4.947   4.609   6.990  1.3265 -0.8843  1.1636
   78SLPC   C35 7162   4.945   4.731   7.166  0.0932  0.3032 -0.2929
   78SLPC   H5X 7163   4.919   4.631   7.207  0.1675 -0.0393 -1.0828
   78SLPC   H5Y 7164   4.861   4.803   7.173  1.2675  1.7813 -0.9984
   78SLPC   C36 7165   5.060   4.799   7.253  0.4067  0.4173  0.2250
   78SLPC   H6X 7166   5.089   4.898   7.211  3.2221 -0.5837 -0.4054
   78SLPC   H6Y 7167   5.147   4.730   7.242  0.7826  1.0803 -1.2909
   78SLPC   C37 7168   5.013   4.822   7.399 -0.0385  0.4088  0.0052
   78SLPC   H7X 7169   4.991   4.722   7.443  0.2746  0.3662  0.0675
   78SLPC   H7Y 7170   4.914   4.871   7.387 -0.5556 -1.0813 -2.5900
   78SLPC   C38 7171   5.118   4.903   7.483 -0.2305  1.0447  0.4057
   78SLPC   H8X 7172   5.141   4.995   7.424 -2.0575  1.7059  0.6314
   78SLPC   H8Y 7173   5.203   4.832   7.479 -0.0747  1.0811  2.2061
   78SLPC   C39 7174   5.078   4.937   7.626  0.3367  0.3197  0.7056
   78SLPC   H9X 7175   5.164   4.985   7.677 -0.1198  1.1556  0.6963
   78SLPC   H9Y 7176   5.046   4.837   7.663 -1.0227  0.8804  1.1020
   78SLPC  C310 7177   4.966   5.046   7.629 -0.2112  0.1674 -0.7992
   78SLPC  H10X 7178   4.871   5.004   7.590  0.5247 -2.7392  0.2879
   78SLPC  H10Y 7179   5.005   5.131   7.569 -0.6607  0.9182 -0.0587
   78SLPC  C311 7180   4.946   5.098   7.777  0.2009  0.4998  0.6124
   78SLPC  H11X 7181   4.887   5.192   7.785 -0.3472  0.2249 -0.0701
   78SLPC  H11Y 7182   5.049   5.129   7.802  1.6721 -3.5321  0.2531
   78SLPC  C312 7183   4.910   4.994   7.884 -0.3959 -0.3618  0.7281
   78SLPC  H12X 7184   4.976   4.905   7.876 -0.2417 -0.2983  1.2711
   78SLPC  H12Y 7185   4.806   4.963   7.861 -1.0946  2.0007  0.4175
   78SLPC  C313 7186   4.947   5.036   8.025 -0.2566 -0.4629  0.7768
   78SLPC  H13X 7187   4.901   5.136   8.041  0.0094 -0.0453 -0.8800
   78SLPC  H13Y 7188   5.058   5.040   8.027 -0.2305  0.5141 -0.8112
   78SLPC  C314 7189   4.909   4.931   8.137 -0.8030  0.0783 -0.1161
   78SLPC  H14X 7190   4.930   4.830   8.094  0.6667  0.0902  0.5260
   78SLPC  H14Y 7191   4.800   4.938   8.159 -0.9304 -4.1569  1.5709
   78SLPC  C315 7192   4.993   4.947   8.266  0.0126 -0.4652  0.1917
   78SLPC  H15X 7193   4.937   4.899   8.349  0.0785 -1.6233 -0.4133
   78SLPC  H15Y 7194   4.995   5.055   8.294  0.7542 -0.7961  1.4318
   78SLPC  C316 7195   5.131   4.891   8.259 -0.6104 -0.0057  0.2710
   78SLPC  H16X 7196   5.192   4.956   8.192 -0.5937 -0.1901  0.1065
   78SLPC  H16Y 7197   5.130   4.798   8.198 -1.5885 -1.4420  2.3561
   78SLPC  C317 7198   5.204   4.877   8.391 -0.0761 -0.2467 -0.1724
   78SLPC  H17X 7199   5.155   4.801   8.456  0.8625 -1.7611 -1.1809
   78SLPC  H17Y 7200   5.210   4.967   8.456  0.9291 -0.7257  0.4295
   78SLPC  C318 7201   5.350   4.838   8.367  0.0069  0.5574 -0.0736
   78SLPC  H18X 7202   5.408   4.902   8.298  2.8923 -0.1921  1.5164
   78SLPC  H18Y 7203   5.348   4.732   8.332 -0.3980  0.5805 -0.1334
   78SLPC  H18Z 7204   5.403   4.842   8.464 -0.3970 -2.2505  0.3460
   79SLPC     N 7205   4.710   1.836   5.932 -0.0673 -0.0059 -0.2323
   79SLPC   C13 7206   4.673   1.793   5.797 -0.0146  0.3871 -0.0369
   79SLPC  H13A 7207   4.678   1.878   5.731 -0.0987  1.2334  1.0169
   79SLPC  H13B 7208   4.749   1.729   5.754  0.1592 -0.2606  1.1746
   79SLPC  H13C 7209   4.581   1.736   5.793 -0.9874  1.9320 -0.4479
   79SLPC   C14 7210   4.678   1.725   6.032 -0.5272  0.1455  0.5179
   79SLPC  H14A 7211   4.700   1.762   6.131  0.2448  1.2102 -0.0260
   79SLPC  H14B 7212   4.577   1.687   6.028 -1.3281  2.2726 -2.1547
   79SLPC  H14C 7213   4.748   1.645   6.012 -0.6138  0.4116 -0.9539
   79SLPC   C15 7214   4.617   1.947   5.974  0.9295 -0.4299 -0.1224
   79SLPC  H15A 7215   4.514   1.939   5.942  1.0630  2.2946 -1.4856
   79SLPC  H15B 7216   4.605   1.957   6.081  2.8461  1.0051  0.0036
   79SLPC  H15C 7217   4.657   2.045   5.954  0.1545  0.2722  1.5397
   79SLPC   C12 7218   4.850   1.878   5.948 -0.5568 -0.2648  0.1372
   79SLPC  H12A 7219   4.859   1.973   5.897 -1.3253 -0.4850 -0.4365
   79SLPC  H12B 7220   4.915   1.808   5.898  0.4677  0.9615 -0.3014
   79SLPC   C11 7221   4.913   1.901   6.083 -0.3201 -0.1572  0.7214
   79SLPC  H11A 7222   4.873   1.833   6.161 -1.7321 -0.7326 -0.4505
   79SLPC  H11B 7223   4.878   2.001   6.116 -1.6003 -0.4846  0.4135
   79SLPC     P 7224   5.131   1.760   6.111  0.6153 -0.5871  0.3181
   79SLPC   O13 7225   5.048   1.638   6.080  0.1064 -1.0296  0.1732
   79SLPC   O14 7226   5.266   1.767   6.056 -0.1550 -0.4510 -0.2806
   79SLPC   O12 7227   5.055   1.889   6.068  0.6096  0.2891  0.6900
   79SLPC   O11 7228   5.139   1.775   6.262  0.2620  0.2187 -0.5061
   79SLPC    C1 7229   5.167   1.901   6.322  0.2765 -0.3549 -0.3502
   79SLPC    HA 7230   5.269   1.941   6.302  0.2671 -0.8473 -1.4772
   79SLPC    HB 7231   5.096   1.975   6.281 -1.3040 -0.8746  1.3163
   79SLPC    C2 7232   5.137   1.888   6.474  1.0861  0.4870  0.5687
   79SLPC    HS 7233   5.110   1.990   6.508 -0.1930  0.8235 -1.2780
   79SLPC   O21 7234   5.254   1.831   6.540 -0.0835 -0.0822 -0.2287
   79SLPC   C21 7235   5.342   1.920   6.583  0.6770  0.8812 -0.3843
   79SLPC   O22 7236   5.339   2.037   6.554 -0.2377  0.0985  0.2438
   79SLPC   C22 7237   5.434   1.845   6.679  0.2572  0.3039  0.0311
   79SLPC   H2R 7238   5.451   1.736   6.663 -2.0859 -0.7472  3.5472
   79SLPC   H2S 7239   5.528   1.903   6.666 -0.7653  1.8114 -1.1395
   79SLPC    C3 7240   5.017   1.783   6.502 -0.6641  0.3677  0.7941
   79SLPC    HX 7241   5.055   1.684   6.470 -1.9717  0.7686 -2.4003
   79SLPC    HY 7242   4.928   1.804   6.439  0.0250 -1.8964 -1.0831
   79SLPC   O31 7243   4.969   1.796   6.636 -0.1429  0.0412 -0.0885
   79SLPC   C31 7244   4.996   1.698   6.724 -0.5555 -1.1195 -0.9209
   79SLPC   O32 7245   5.070   1.603   6.699  0.2957  0.3358  0.3364
   79SLPC   C32 7246   4.923   1.733   6.857  1.1553 -0.4331  0.2691
   79SLPC   H2X 7247   4.822   1.686   6.858  0.0785  1.6243  3.6900
   79SLPC   H2Y 7248   4.915   1.843   6.864  0.7646 -0.3889 -0.7777
   79SLPC   C23 7249   5.375   1.856   6.826  0.2406 -0.5005  0.2636
   79SLPC   H3R 7250   5.311   1.767   6.839 -0.6949  0.2477  0.9328
   79SLPC   H3S 7251   5.311   1.947   6.829 -0.3514 -0.9256  0.6139
   79SLPC   C24 7252   5.483   1.871   6.935 -0.8951  0.5788  0.4133
   79SLPC   H4R 7253   5.535   1.969   6.926  1.1961 -0.5645 -0.7092
   79SLPC   H4S 7254   5.549   1.782   6.935 -2.3943 -0.6019 -1.0448
   79SLPC   C25 7255   5.408   1.862   7.065 -0.1443  0.6944  0.4057
   79SLPC   H5R 7256   5.344   1.772   7.069  0.4246  0.2981  0.6883
   79SLPC   H5S 7257   5.341   1.949   7.086 -1.3307 -0.0565 -0.1645
   79SLPC   C26 7258   5.500   1.850   7.185 -0.0161 -0.0235  0.3668
   79SLPC   H6R 7259   5.538   1.954   7.192 -0.4335  0.2146 -0.7449
   79SLPC   H6S 7260   5.589   1.787   7.167 -0.2577 -0.1786 -0.3379
   79SLPC   C27 7261   5.422   1.815   7.309 -0.0768 -0.0557  0.3026
   79SLPC   H7R 7262   5.380   1.714   7.290  1.4340 -0.3513 -1.8488
   79SLPC   H7S 7263   5.344   1.890   7.336  1.9922  2.5140 -0.3807
   79SLPC   C28 7264   5.518   1.813   7.430  0.2071 -0.2418  0.0321
   79SLPC   H8R 7265   5.454   1.843   7.516 -2.3533  0.7575 -2.0755
   79SLPC   H8S 7266   5.592   1.894   7.415  1.7787 -2.0243 -2.8412
   79SLPC   C29 7267   5.599   1.688   7.452  0.7347 -0.0190  0.2359
   79SLPC   H9R 7268   5.651   1.646   7.365 -0.2560  0.5720 -0.6665
   79SLPC  C210 7269   5.578   1.613   7.561 -0.3267 -0.3827 -0.1697
   79SLPC  H10R 7270   5.641   1.523   7.574  0.6722  0.5523  2.0336
   79SLPC  C211 7271   5.496   1.643   7.686 -0.3995 -0.2832 -0.7671
   79SLPC  H11R 7272   5.498   1.555   7.754 -2.5777 -1.3511 -1.9592
   79SLPC  H11S 7273   5.385   1.643   7.674 -0.6015  2.1481  0.4375
   79SLPC  C212 7274   5.534   1.772   7.750  0.6605 -0.4392  0.4853
   79SLPC  H12R 7275   5.621   1.826   7.708  0.4168 -0.6590 -0.3186
   79SLPC  C213 7276   5.476   1.826   7.861 -0.1889 -0.4478 -0.1470
   79SLPC  H13R 7277   5.500   1.929   7.892  1.9934 -0.7320 -0.7320
   79SLPC  C214 7278   5.365   1.758   7.937 -0.0554  0.1578 -0.4555
   79SLPC  H14R 7279   5.353   1.654   7.901  2.0086 -0.1353 -0.4049
   79SLPC  H14S 7280   5.267   1.806   7.915  0.0087  1.2307  1.4036
   79SLPC  C215 7281   5.379   1.755   8.095 -0.8263  0.1851 -0.3315
   79SLPC  H15R 7282   5.378   1.865   8.114 -0.1080  0.3057 -0.9237
   79SLPC  H15S 7283   5.481   1.732   8.132 -0.9063  0.8325  0.3269
   79SLPC  C216 7284   5.275   1.671   8.176  0.9228 -0.7674  0.0862
   79SLPC  H16R 7285   5.265   1.568   8.137  2.6776 -1.2589  0.8323
   79SLPC  H16S 7286   5.186   1.736   8.160  1.0175 -0.4698  0.7593
   79SLPC  C217 7287   5.288   1.672   8.332 -0.1657  0.3256  0.1919
   79SLPC  H17R 7288   5.197   1.621   8.371 -1.9046 -0.2010 -4.0785
   79SLPC  H17S 7289   5.309   1.775   8.366 -0.7234  0.7953 -0.8394
   79SLPC  C218 7290   5.389   1.565   8.386  0.5168 -0.1862  0.0143
   79SLPC  H18R 7291   5.373   1.538   8.493  1.6461 -0.3376  0.1562
   79SLPC  H18S 7292   5.491   1.608   8.376 -0.1242  1.0023 -2.0695
   79SLPC  H18T 7293   5.383   1.475   8.321 -1.4002  0.9537 -1.4896
   79SLPC   C33 7294   5.014   1.687   6.974  0.1403  0.0727 -0.3738
   79SLPC   H3X 7295   5.111   1.740   6.980 -0.8520  2.1574 -1.4725
   79SLPC   H3Y 7296   5.031   1.579   6.953 -0.3811  0.2042 -1.5683
   79SLPC   C34 7297   4.946   1.697   7.112 -0.3993  0.0798  1.3936
   79SLPC   H4X 7298   4.864   1.622   7.106  0.1581 -0.5119  1.0654
   79SLPC   H4Y 7299   4.911   1.803   7.112  0.9385  0.5912 -0.9202
   79SLPC   C35 7300   5.056   1.681   7.220 -0.0097  0.7636  1.0669
   79SLPC   H5X 7301   5.121   1.770   7.210  2.1488 -0.8108  0.4228
   79SLPC   H5Y 7302   5.120   1.595   7.192  0.1223  0.6392  1.7362
   79SLPC   C36 7303   5.001   1.676   7.360 -0.0411  0.4332  0.0042
   79SLPC   H6X 7304   4.946   1.581   7.374  0.2309  0.0200 -1.4955
   79SLPC   H6Y 7305   4.940   1.765   7.385  2.0031  2.5028 -1.8446
   79SLPC   C37 7306   5.114   1.685   7.460 -0.2996 -0.1711 -0.0604
   79SLPC   H7X 7307   5.192   1.760   7.437 -1.1667  0.5018 -0.9094
   79SLPC   H7Y 7308   5.172   1.590   7.464 -0.6883 -0.3859  0.6941
   79SLPC   C38 7309   5.068   1.703   7.609  0.0079 -0.0216  0.5849
   79SLPC   H8X 7310   5.044   1.811   7.616  1.9365  0.6758 -2.0366
   79SLPC   H8Y 7311   5.153   1.676   7.676 -0.4087 -2.5190  0.1989
   79SLPC   C39 7312   4.957   1.603   7.654 -0.2371 -0.6961  0.3748
   79SLPC   H9X 7313   4.984   1.502   7.616 -0.8932 -0.1259 -1.7500
   79SLPC   H9Y 7314   4.854   1.628   7.620 -0.1804 -1.2434 -0.2296
   79SLPC  C310 7315   4.952   1.606   7.810  0.2510 -0.3869 -0.5159
   79SLPC  H10X 7316   4.928   1.710   7.840  0.7162  0.0191 -1.4998
   79SLPC  H10Y 7317   5.057   1.580   7.836  0.5634 -0.9628 -2.2166
   79SLPC  C311 7318   4.850   1.515   7.880  0.8028 -0.3682  0.2059
   79SLPC  H11X 7319   4.849   1.418   7.825 -0.6283 -0.8562  1.0468
   79SLPC  H11Y 7320   4.751   1.564   7.875 -0.1064 -2.0868  0.3746
   79SLPC  C312 7321   4.882   1.497   8.025  0.2219 -0.1373  0.4472
   79SLPC  H12X 7322   4.936   1.574   8.084  0.6322  0.0469 -0.1506
   79SLPC  H12Y 7323   4.955   1.413   8.020 -1.0619 -1.4041  2.0336
   79SLPC  C313 7324   4.765   1.463   8.119 -0.5332 -0.4976  0.8742
   79SLPC  H13X 7325   4.742   1.354   8.122 -0.5455 -0.4789  1.5071
   79SLPC  H13Y 7326   4.675   1.522   8.090  1.7364  1.8173 -2.1864
   79SLPC  C314 7327   4.784   1.524   8.256  0.7371 -0.0509 -0.2606
   79SLPC  H14X 7328   4.792   1.635   8.252  4.6989 -0.2200 -1.1165
   79SLPC  H14Y 7329   4.876   1.486   8.306  0.9053  2.3648  1.4206
   79SLPC  C315 7330   4.665   1.485   8.349  0.1790  0.6594 -0.9553
   79SLPC  H15X 7331   4.651   1.376   8.334 -3.4035  0.8394  0.1400
   79SLPC  H15Y 7332   4.573   1.544   8.329 -0.8023 -0.0266  1.2702
   79SLPC  C316 7333   4.698   1.512   8.492 -0.2749 -0.1184  0.2330
   79SLPC  H16X 7334   4.670   1.617   8.515 -0.5059 -0.2500  0.5574
   79SLPC  H16Y 7335   4.808   1.503   8.506 -0.3839 -0.2748  1.0301
   79SLPC  C317 7336   4.622   1.429   8.602 -0.3273 -0.3386  0.1928
   79SLPC  H17X 7337   4.671   1.466   8.695  0.9254  1.4703 -1.1052
   79SLPC  H17Y 7338   4.652   1.323   8.592 -2.2459 -0.7857 -1.1496
   79SLPC  C318 7339   4.478   1.459   8.592 -0.4396  0.9089 -0.5351
   79SLPC  H18X 7340   4.418   1.380   8.643  0.7517 -0.0318 -0.5558
   79SLPC  H18Y 7341   4.451   1.448   8.484  1.0060  0.7062 -0.8917
   79SLPC  H18Z 7342   4.455   1.563   8.623 -0.6290  0.5194  0.6725
   80SLPC     N 7343   2.296   3.337   6.189 -0.3037 -0.3670 -0.2977
   80SLPC   C13 7344   2.311   3.340   6.041 -0.1403  0.2701 -0.5050
   80SLPC  H13A 7345   2.359   3.434   6.016  0.9486  0.6622  2.6145
   80SLPC  H13B 7346   2.372   3.256   6.012  0.0797  0.1292  0.3454
   80SLPC  H13C 7347   2.229   3.338   5.971  0.4972  0.8296 -1.2991
   80SLPC   C14 7348   2.237   3.464   6.232  0.4099 -0.3807 -0.3628
   80SLPC  H14A 7349   2.153   3.481   6.167  0.0741  1.0461  0.4096
   80SLPC  H14B 7350   2.189   3.453   6.329 -1.0677  0.3951 -0.9739
   80SLPC  H14C 7351   2.310   3.542   6.214 -1.1004  1.1612 -0.0631
   80SLPC   C15 7352   2.432   3.328   6.244 -0.2997 -0.1542 -0.7492
   80SLPC  H15A 7353   2.477   3.230   6.242  0.2484  0.0300  0.7251
   80SLPC  H15B 7354   2.499   3.402   6.202  0.1463  0.5650  1.1079
   80SLPC  H15C 7355   2.425   3.347   6.351  3.4642 -0.7180 -0.2728
   80SLPC   C12 7356   2.205   3.223   6.224 -0.3392 -0.0572 -0.2595
   80SLPC  H12A 7357   2.104   3.238   6.188 -0.8593 -0.9304  0.7641
   80SLPC  H12B 7358   2.192   3.227   6.331  0.9092  1.2751 -0.1196
   80SLPC   C11 7359   2.250   3.084   6.188 -0.0205  1.0833  0.1557
   80SLPC  H11A 7360   2.226   3.065   6.081 -3.1816 -0.1772  0.9517
   80SLPC  H11B 7361   2.172   3.020   6.235 -0.9057  0.8727 -1.5206
   80SLPC     P 7362   2.407   2.904   6.285 -0.3406 -0.0430 -0.1108
   80SLPC   O13 7363   2.274   2.840   6.305  0.1184 -0.0382 -0.0985
   80SLPC   O14 7364   2.510   2.834   6.207  0.3395  0.0631 -0.1152
   80SLPC   O12 7365   2.381   3.045   6.222  0.9762 -0.4328 -0.2625
   80SLPC   O11 7366   2.470   2.930   6.431 -0.0553  0.4921 -0.5882
   80SLPC    C1 7367   2.455   3.064   6.492  0.2503 -0.0011  0.5812
   80SLPC    HA 7368   2.553   3.116   6.480 -0.2041  0.7369 -0.1127
   80SLPC    HB 7369   2.373   3.121   6.443  1.0451  1.6780  1.1108
   80SLPC    C2 7370   2.406   3.059   6.643 -0.4795  1.1818 -0.2493
   80SLPC    HS 7371   2.362   3.157   6.671 -0.4685  1.3192 -0.6941
   80SLPC   O21 7372   2.527   3.031   6.722 -0.3449  0.1522  0.1863
   80SLPC   C21 7373   2.594   3.124   6.786 -0.3293  0.0739 -0.1132
   80SLPC   O22 7374   2.567   3.243   6.788  0.1900 -0.6561 -0.2020
   80SLPC   C22 7375   2.715   3.065   6.856 -0.7954 -0.0957  0.3711
   80SLPC   H2R 7376   2.754   2.979   6.798 -0.2165 -0.3246  1.0758
   80SLPC   H2S 7377   2.789   3.148   6.862 -0.8806  0.0048  0.0262
   80SLPC    C3 7378   2.300   2.947   6.679  1.4238  0.0993  0.5409
   80SLPC    HX 7379   2.310   2.858   6.613  1.5146  0.4590  0.0576
   80SLPC    HY 7380   2.207   3.001   6.653 -0.0300 -2.1267  0.8446
   80SLPC   O31 7381   2.291   2.921   6.822 -0.0101 -0.2085 -0.0474
   80SLPC   C31 7382   2.359   2.815   6.866  0.3153  0.5861 -0.0252
   80SLPC   O32 7383   2.420   2.738   6.792  0.0157 -0.0003 -0.7487
   80SLPC   C32 7384   2.354   2.813   7.017 -0.3853 -0.9732 -0.0137
   80SLPC   H2X 7385   2.246   2.799   7.038 -0.9774  1.2081 -1.2465
   80SLPC   H2Y 7386   2.384   2.916   7.048 -2.9759  0.1404 -0.9282
   80SLPC   C23 7387   2.691   3.015   6.998  0.3594 -0.5635 -0.6667
   80SLPC   H3R 7388   2.788   2.972   7.030  1.4182 -0.1424 -3.1379
   80SLPC   H3S 7389   2.614   2.934   7.003 -1.2099  0.7909 -1.8850
   80SLPC   C24 7390   2.657   3.125   7.103 -0.3255  0.6947 -0.2586
   80SLPC   H4R 7391   2.548   3.124   7.126 -0.0173  0.8461  1.3494
   80SLPC   H4S 7392   2.697   3.218   7.059  3.7836 -0.4003  0.6676
   80SLPC   C25 7393   2.739   3.121   7.237 -0.0533 -0.0223  0.2161
   80SLPC   H5R 7394   2.841   3.157   7.212 -0.2974  0.3565 -0.2471
   80SLPC   H5S 7395   2.748   3.017   7.276  1.6021  0.0013 -0.0307
   80SLPC   C26 7396   2.660   3.208   7.335  0.0996  0.2831 -0.0572
   80SLPC   H6R 7397   2.552   3.186   7.345 -0.1555  0.3211 -2.3053
   80SLPC   H6S 7398   2.672   3.314   7.305 -2.3440  0.8427  0.7771
   80SLPC   C27 7399   2.720   3.183   7.479  0.5595 -0.5054  0.3933
   80SLPC   H7R 7400   2.828   3.206   7.475  0.6563 -0.8703  0.8479
   80SLPC   H7S 7401   2.714   3.078   7.514 -1.6247 -0.0087  1.7152
   80SLPC   C28 7402   2.644   3.273   7.587 -0.1582  0.1044 -0.5882
   80SLPC   H8R 7403   2.695   3.247   7.682  0.5847  0.8996 -0.7529
   80SLPC   H8S 7404   2.536   3.253   7.602  0.2092 -0.3529  1.8397
   80SLPC   C29 7405   2.659   3.420   7.551  0.2172  0.1935 -0.8024
   80SLPC   H9R 7406   2.576   3.460   7.490 -0.6818  1.4761  1.1792
   80SLPC  C210 7407   2.758   3.503   7.583 -0.7705  0.2255 -0.3473
   80SLPC  H10R 7408   2.755   3.606   7.544 -2.4017  0.1647 -0.4534
   80SLPC  C211 7409   2.881   3.453   7.653 -0.6632 -0.2568 -0.1642
   80SLPC  H11R 7410   2.941   3.393   7.580 -1.5554 -0.6102 -0.6312
   80SLPC  H11S 7411   2.851   3.376   7.727 -2.4578  0.6660  0.1169
   80SLPC  C212 7412   2.968   3.551   7.731 -0.0837 -0.0585  0.4008
   80SLPC  H12R 7413   3.069   3.571   7.690  0.9571 -2.9231  1.3667
   80SLPC  C213 7414   2.941   3.597   7.854  0.0288  0.4578 -0.4468
   80SLPC  H13R 7415   3.015   3.657   7.910 -0.0859 -0.6429  0.9606
   80SLPC  C214 7416   2.810   3.579   7.933 -0.5301  0.4482 -0.3408
   80SLPC  H14R 7417   2.721   3.576   7.868  0.6727 -1.1030 -2.0076
   80SLPC  H14S 7418   2.794   3.661   8.007 -0.8718 -1.4048  1.7339
   80SLPC  C215 7419   2.819   3.447   8.008 -0.1358 -0.6647  0.5101
   80SLPC  H15R 7420   2.880   3.451   8.101  0.9440  0.2155 -0.2049
   80SLPC  H15S 7421   2.870   3.373   7.943  1.1799  0.5012  0.1764
   80SLPC  C216 7422   2.680   3.399   8.053  0.1137  0.0862 -0.2026
   80SLPC  H16R 7423   2.622   3.402   7.958  1.7422  3.6222 -1.2576
   80SLPC  H16S 7424   2.634   3.473   8.123 -2.3391  0.0397 -1.6497
   80SLPC  C217 7425   2.686   3.260   8.118  0.2674  1.0202 -0.2441
   80SLPC  H17R 7426   2.755   3.265   8.205  0.5792  1.1076 -0.4956
   80SLPC  H17S 7427   2.720   3.184   8.044  0.3622  1.9042 -1.1278
   80SLPC  C218 7428   2.549   3.216   8.175  0.1119  0.0354  0.0526
   80SLPC  H18R 7429   2.499   3.299   8.230 -2.9486 -1.0372 -0.8840
   80SLPC  H18S 7430   2.569   3.126   8.236 -1.4132 -1.0711 -0.9845
   80SLPC  H18T 7431   2.473   3.206   8.094 -0.1616  1.3099  0.1241
   80SLPC   C33 7432   2.445   2.707   7.077  0.5784  0.1554 -0.5710
   80SLPC   H3X 7433   2.546   2.702   7.031  0.6604  1.2410 -0.5184
   80SLPC   H3Y 7434   2.387   2.618   7.043 -1.2264  1.1065 -0.1056
   80SLPC   C34 7435   2.440   2.702   7.230  0.0101 -0.1527 -0.2571
   80SLPC   H4X 7436   2.517   2.632   7.270  0.1595  0.8227  1.2424
   80SLPC   H4Y 7437   2.343   2.667   7.274 -0.0966 -0.2132 -0.5404
   80SLPC   C35 7438   2.483   2.833   7.305 -0.3484 -0.6045  0.8203
   80SLPC   H5X 7439   2.425   2.920   7.267  2.0562  0.1361 -1.4710
   80SLPC   H5Y 7440   2.588   2.850   7.274 -0.3787 -1.3181  0.2706
   80SLPC   C36 7441   2.483   2.817   7.453 -0.6838  0.8849 -0.2373
   80SLPC   H6X 7442   2.556   2.894   7.484  1.5487 -0.6845 -1.2990
   80SLPC   H6Y 7443   2.521   2.714   7.470  0.0727  0.8107 -2.1663
   80SLPC   C37 7444   2.343   2.806   7.519 -0.2843  0.0683 -0.5103
   80SLPC   H7X 7445   2.297   2.718   7.468 -0.5035  0.6453 -1.3337
   80SLPC   H7Y 7446   2.288   2.900   7.500 -1.1194 -0.6395 -1.7484
   80SLPC   C38 7447   2.348   2.768   7.664 -0.0266 -0.3949  0.3588
   80SLPC   H8X 7448   2.374   2.865   7.714 -0.2185 -0.2245  0.1295
   80SLPC   H8Y 7449   2.418   2.683   7.676  0.1849 -0.0142  2.1953
   80SLPC   C39 7450   2.208   2.738   7.718  0.9866  0.4132  0.1488
   80SLPC   H9X 7451   2.170   2.639   7.686  1.0765  0.4914 -0.2037
   80SLPC   H9Y 7452   2.132   2.812   7.684 -0.1738 -0.0514  1.6445
   80SLPC  C310 7453   2.185   2.744   7.871 -0.4054  0.1487 -0.0685
   80SLPC  H10X 7454   2.250   2.671   7.923 -0.4290  1.2554  1.5667
   80SLPC  H10Y 7455   2.086   2.708   7.906  0.9900 -2.5939  1.3626
   80SLPC  C311 7456   2.211   2.868   7.954  0.7741 -1.0013  0.1875
   80SLPC  H11X 7457   2.155   2.950   7.905  0.8006 -1.2321 -0.2290
   80SLPC  H11Y 7458   2.319   2.896   7.957  0.7493 -0.8556 -0.2750
   80SLPC  C312 7459   2.152   2.854   8.098 -0.6272  0.5297 -0.1729
   80SLPC  H12X 7460   2.206   2.770   8.148 -0.1210  1.8856  1.6450
   80SLPC  H12Y 7461   2.044   2.835   8.078 -0.4697 -1.5720  0.6915
   80SLPC  C313 7462   2.165   2.985   8.178 -0.4272 -0.9456 -0.3753
   80SLPC  H13X 7463   2.132   3.067   8.111  1.8815 -0.0855 -0.5608
   80SLPC  H13Y 7464   2.274   3.000   8.196 -0.1790 -2.7763 -0.1736
   80SLPC  C314 7465   2.106   2.981   8.321  0.6383  0.6755  0.9571
   80SLPC  H14X 7466   1.996   2.969   8.316  0.6558  0.3032  1.4023
   80SLPC  H14Y 7467   2.131   3.076   8.372  0.5562  0.7910  0.7793
   80SLPC  C315 7468   2.141   2.860   8.410  0.7787 -0.6569 -0.1426
   80SLPC  H15X 7469   2.087   2.767   8.380  0.6296 -0.4237 -0.6113
   80SLPC  H15Y 7470   2.096   2.873   8.510 -1.6003 -1.2894 -1.0329
   80SLPC  C316 7471   2.290   2.840   8.421 -0.1035 -0.1585  0.0180
   80SLPC  H16X 7472   2.339   2.936   8.447  0.2829 -0.0580 -1.0157
   80SLPC  H16Y 7473   2.333   2.791   8.331  1.4135 -0.6459  0.9792
   80SLPC  C317 7474   2.330   2.751   8.533 -0.3598 -0.1825  0.3975
   80SLPC  H17X 7475   2.279   2.794   8.622  1.9646 -0.7101  2.0941
   80SLPC  H17Y 7476   2.440   2.763   8.547 -0.6571  2.3116  0.9753
   80SLPC  C318 7477   2.298   2.599   8.522  0.0253  0.5294 -1.3125
   80SLPC  H18X 7478   2.189   2.585   8.542  0.2692  1.9756  1.5393
   80SLPC  H18Y 7479   2.358   2.538   8.593 -0.8625  0.6120 -0.4643
   80SLPC  H18Z 7480   2.332   2.566   8.422 -0.4259  0.6355 -1.5067
   81SAPS     N 7481   1.422   5.366  10.860 -0.6208 -0.1778 -0.1679
   81SAPS   HN1 7482   1.503   5.392  10.801  0.1799 -1.1379  0.4781
   81SAPS   HN2 7483   1.398   5.265  10.850 -0.1678 -0.2427 -0.6329
   81SAPS   HN3 7484   1.332   5.414  10.840 -0.0953  0.5056 -0.9190
   81SAPS   C12 7485   1.464   5.387  10.998 -1.1000  0.4996  0.1791
   81SAPS  H12A 7486   1.374   5.380  11.058 -1.8401  0.8788 -0.8749
   81SAPS   C13 7487   1.559   5.260  11.036 -0.9454 -0.3335 -0.1168
   81SAPS  O13A 7488   1.555   5.163  10.964  0.2945  0.4130 -0.4204
   81SAPS  O13B 7489   1.607   5.257  11.148 -0.2344  0.0929  0.2980
   81SAPS   C11 7490   1.540   5.523  11.007  0.8151 -0.4690  0.5857
   81SAPS  H11A 7491   1.621   5.527  10.931  1.3271 -1.5734  1.0489
   81SAPS  H11B 7492   1.590   5.523  11.106  0.7660 -0.1692  0.6111
   81SAPS     P 7493   1.491   5.772  10.954  0.0032 -0.3735 -0.2594
   81SAPS   O13 7494   1.387   5.870  10.985 -0.0782 -0.3378 -0.6931
   81SAPS   O14 7495   1.628   5.809  10.997 -0.8534  0.1929  0.1533
   81SAPS   O12 7496   1.442   5.629  10.999  0.1179  0.1612 -0.0243
   81SAPS   O11 7497   1.494   5.757  10.799 -0.4631 -0.7044 -0.1550
   81SAPS    C1 7498   1.617   5.716  10.732  0.1095 -0.3651 -0.6180
   81SAPS    HA 7499   1.689   5.660  10.794 -0.0041  1.4624  1.3038
   81SAPS    HB 7500   1.596   5.664  10.636  2.1791 -0.9207 -0.7995
   81SAPS    C2 7501   1.692   5.848  10.684  0.1374  0.5528  0.0839
   81SAPS    HS 7502   1.702   5.916  10.771 -2.8806  0.8782  0.2538
   81SAPS   O21 7503   1.613   5.902  10.576  0.5897  0.2263  0.5581
   81SAPS   C21 7504   1.652   6.024  10.551 -0.1555 -1.1165 -0.3031
   81SAPS   O22 7505   1.737   6.085  10.615 -0.2720 -0.2616 -0.4134
   81SAPS   C22 7506   1.562   6.084  10.441  0.3144  0.5818 -0.3182
   81SAPS   H2R 7507   1.621   6.066  10.348 -1.3213  0.1352 -1.3014
   81SAPS   H2S 7508   1.469   6.023  10.434  0.2419  0.0450  3.4787
   81SAPS    C3 7509   1.830   5.811  10.630 -0.0549  0.5107  0.0540
   81SAPS    HX 7510   1.908   5.784  10.704  1.0015 -1.8423 -1.7771
   81SAPS    HY 7511   1.867   5.900  10.576 -0.3835  0.6288  0.0200
   81SAPS   O31 7512   1.831   5.696  10.540 -0.3604  0.4011 -0.0578
   81SAPS   C31 7513   1.810   5.723  10.411 -0.3375 -0.2747 -0.1323
   81SAPS   O32 7514   1.806   5.834  10.367 -0.5173  0.4628 -0.0810
   81SAPS   C32 7515   1.778   5.588  10.343  0.4459 -0.0939  0.3163
   81SAPS   H2X 7516   1.711   5.545  10.420 -0.3486 -0.2887 -0.4596
   81SAPS   H2Y 7517   1.868   5.524  10.344  1.8006  1.7038 -0.1622
   81SAPS   C23 7518   1.534   6.235  10.444  0.5723 -0.4868 -0.1249
   81SAPS   H3R 7519   1.628   6.293  10.435  0.4848 -0.5568 -1.7890
   81SAPS   H3S 7520   1.488   6.251  10.544 -0.8120 -1.0400 -0.6457
   81SAPS   C24 7521   1.421   6.266  10.337  0.3125 -0.2057 -0.7256
   81SAPS   H4R 7522   1.332   6.202  10.358  2.0745 -2.1628  1.2251
   81SAPS   H4S 7523   1.453   6.236  10.235  3.8365 -0.3298  0.3091
   81SAPS   C25 7524   1.391   6.409  10.351  0.3048 -1.1091  0.2888
   81SAPS   H5R 7525   1.417   6.448  10.450 -0.2288 -0.8533  0.3295
   81SAPS   C26 7526   1.346   6.498  10.260 -1.0326 -0.5198  0.4195
   81SAPS   H6R 7527   1.332   6.600  10.299 -2.5138  0.5772 -2.7075
   81SAPS   C27 7528   1.317   6.470  10.112 -0.1880  0.1398 -0.1667
   81SAPS   H7R 7529   1.220   6.518  10.089 -0.8190  0.0444  2.0696
   81SAPS   H7S 7530   1.279   6.367  10.095  0.1080 -0.6334  3.1831
   81SAPS   C28 7531   1.428   6.492  10.010 -0.3598  0.4770 -0.4234
   81SAPS   H8R 7532   1.524   6.517  10.057 -1.1393  0.7691  1.0812
   81SAPS   C29 7533   1.409   6.492   9.874 -0.5856 -0.7968 -0.3003
   81SAPS   H9R 7534   1.496   6.518   9.811  0.6231  0.9801  1.9625
   81SAPS  C210 7535   1.279   6.460   9.805  0.3548  0.9406  0.3374
   81SAPS  H10R 7536   1.200   6.412   9.867 -1.4985  0.6640 -2.0929
   81SAPS  H10S 7537   1.293   6.372   9.739  1.4513 -1.0261  2.9684
   81SAPS  C211 7538   1.213   6.571   9.737 -0.3492 -0.5779  0.3941
   81SAPS  H11R 7539   1.171   6.646   9.805 -0.3333  2.0366 -2.3094
   81SAPS  C212 7540   1.218   6.600   9.599  0.0476 -0.0964 -0.2021
   81SAPS  H12R 7541   1.175   6.694   9.559  1.2797  0.1469 -0.9864
   81SAPS  C213 7542   1.286   6.517   9.496  0.4880  0.0778 -0.3870
   81SAPS  H13R 7543   1.357   6.445   9.542 -1.0443 -1.1066  0.2318
   81SAPS  H13S 7544   1.353   6.579   9.432  3.0542 -1.2223  0.8899
   81SAPS  C214 7545   1.202   6.436   9.404 -0.4244 -0.1420  0.1797
   81SAPS  H14R 7546   1.095   6.456   9.419 -0.5672  0.6147 -1.6451
   81SAPS  C215 7547   1.245   6.345   9.311 -0.2135 -0.6569 -0.3950
   81SAPS  H15R 7548   1.171   6.289   9.252 -1.6495  0.8509 -0.1093
   81SAPS  C216 7549   1.386   6.321   9.274 -0.4440 -0.0519 -0.2472
   81SAPS  H16R 7550   1.422   6.219   9.299 -0.3547 -0.0106 -0.2042
   81SAPS  H16S 7551   1.460   6.385   9.327  2.9151 -2.6192 -1.4669
   81SAPS  C217 7552   1.412   6.334   9.123  0.4555  0.1183 -0.2548
   81SAPS  H17R 7553   1.327   6.379   9.069 -0.0071  0.1989  0.5294
   81SAPS  H17S 7554   1.423   6.234   9.076 -1.5525 -0.9943  1.4646
   81SAPS  C218 7555   1.538   6.419   9.091  0.7451 -0.3359 -0.3756
   81SAPS  H18R 7556   1.626   6.352   9.095  0.1323 -1.1782 -0.8378
   81SAPS  H18S 7557   1.543   6.499   9.168  1.1040  0.1351 -0.8821
   81SAPS  C219 7558   1.516   6.487   8.957 -0.2914 -1.0199 -0.4535
   81SAPS  H19R 7559   1.422   6.547   8.964 -0.4818 -1.2343 -1.1293
   81SAPS  H19S 7560   1.484   6.415   8.879 -3.8730 -0.8922  0.6770
   81SAPS  C220 7561   1.635   6.564   8.896 -0.1230  0.6074 -0.3548
   81SAPS  H20R 7562   1.683   6.642   8.958 -2.1353 -0.0254  2.2010
   81SAPS  H20S 7563   1.600   6.600   8.796 -0.6853 -0.3662 -0.5247
   81SAPS  H20T 7564   1.710   6.486   8.874  0.9112  1.4899 -0.0332
   81SAPS   C33 7565   1.724   5.591  10.200  0.0415 -0.2141  0.0433
   81SAPS   H3X 7566   1.810   5.587  10.130  0.1123  0.4592  0.0860
   81SAPS   H3Y 7567   1.665   5.684  10.182  1.7756  1.0678  0.7138
   81SAPS   C34 7568   1.623   5.481  10.173 -0.2539 -0.0408 -0.0642
   81SAPS   H4X 7569   1.539   5.494  10.244 -1.1127  0.7185 -1.1838
   81SAPS   H4Y 7570   1.680   5.388  10.191 -0.2450 -0.1081 -0.4340
   81SAPS   C35 7571   1.587   5.466  10.027  0.4643 -0.0768  0.2414
   81SAPS   H5X 7572   1.663   5.416   9.963  0.1478  0.8640 -0.9016
   81SAPS   H5Y 7573   1.572   5.570   9.990 -0.4230 -1.0884 -2.5322
   81SAPS   C36 7574   1.451   5.392  10.011  0.1226  0.7857  0.8016
   81SAPS   H6X 7575   1.378   5.437  10.081 -0.0140  1.4847  0.2116
   81SAPS   H6Y 7576   1.463   5.285  10.041 -1.4818  0.8271  1.7319
   81SAPS   C37 7577   1.401   5.404   9.868  0.4194  0.1200 -0.2592
   81SAPS   H7X 7578   1.308   5.344   9.855  1.4306 -1.4842 -0.3226
   81SAPS   H7Y 7579   1.488   5.377   9.804  1.7610  1.5305  0.9048
   81SAPS   C38 7580   1.347   5.549   9.836  0.5409  0.3236  0.1183
   81SAPS   H8X 7581   1.432   5.620   9.842  0.9178 -0.0978 -0.2378
   81SAPS   H8Y 7582   1.268   5.571   9.911  1.1333 -0.6372  1.0528
   81SAPS   C39 7583   1.298   5.563   9.690 -0.0776 -0.3720  0.4280
   81SAPS   H9X 7584   1.278   5.672   9.683  0.3907 -0.1878  1.7249
   81SAPS   H9Y 7585   1.202   5.509   9.675 -0.1249 -0.2516  0.2919
   81SAPS  C310 7586   1.403   5.507   9.586  0.3950 -0.1989 -0.1086
   81SAPS  H10X 7587   1.415   5.397   9.600 -1.0790 -0.2888  0.6985
   81SAPS  H10Y 7588   1.500   5.553   9.616  1.5559 -0.6394 -2.8835
   81SAPS  C311 7589   1.369   5.529   9.437  0.3319 -0.3945 -0.0888
   81SAPS  H11X 7590   1.264   5.508   9.408  0.6478  0.1870 -1.7514
   81SAPS  H11Y 7591   1.436   5.467   9.374  1.2963  0.0468  0.4776
   81SAPS  C312 7592   1.401   5.672   9.401 -0.0556  0.6517  0.0515
   81SAPS  H12X 7593   1.507   5.697   9.426  0.8739 -2.8120  0.0672
   81SAPS  H12Y 7594   1.336   5.743   9.458 -0.4272  1.2595 -1.0897
   81SAPS  C313 7595   1.347   5.698   9.265  0.7323 -0.3524 -0.1921
   81SAPS  H13X 7596   1.239   5.678   9.247  1.1437 -0.7874 -2.5775
   81SAPS  H13Y 7597   1.414   5.645   9.194  0.6142  2.8187 -2.9227
   81SAPS  C314 7598   1.365   5.835   9.210 -0.3502 -0.8162 -0.8248
   81SAPS  H14X 7599   1.475   5.848   9.208 -0.2296 -1.7007 -0.3613
   81SAPS  H14Y 7600   1.318   5.901   9.286 -0.2482 -1.0943 -0.5174
   81SAPS  C315 7601   1.311   5.857   9.074  0.1166 -0.0451  0.4683
   81SAPS  H15X 7602   1.205   5.825   9.067  0.4830 -1.7165  1.8653
   81SAPS  H15Y 7603   1.360   5.794   8.997 -0.5704 -0.3815  0.2968
   81SAPS  C316 7604   1.305   6.004   9.026  0.8076 -0.1660 -0.9256
   81SAPS  H16X 7605   1.402   6.043   8.990  1.1012 -0.1089 -0.0929
   81SAPS  H16Y 7606   1.269   6.074   9.104  1.3965 -0.2061 -0.6142
   81SAPS  C317 7607   1.212   6.010   8.898  0.8010 -1.2698 -0.1922
   81SAPS  H17X 7608   1.112   5.964   8.915  0.0730 -0.0221 -0.9476
   81SAPS  H17Y 7609   1.259   5.951   8.816  0.4171  0.3533 -1.6518
   81SAPS  C318 7610   1.192   6.154   8.844 -0.0838  0.4682 -0.3786
   81SAPS  H18X 7611   1.092   6.159   8.796 -1.8090  0.7200  2.9094
   81SAPS  H18Y 7612   1.274   6.187   8.777 -0.7276  0.8759 -0.9796
   81SAPS  H18Z 7613   1.186   6.221   8.933 -2.5121  0.8658 -0.7691
   82SAPS     N 7614   0.609   6.186  11.137 -0.2960  0.2635 -0.4276
   82SAPS   HN1 7615   0.648   6.094  11.166 -1.2077 -0.6021 -1.8223
   82SAPS   HN2 7616   0.682   6.234  11.080  1.0362  1.4208  2.0990
   82SAPS   HN3 7617   0.598   6.242  11.224 -2.9945 -1.5670  0.5100
   82SAPS   C12 7618   0.486   6.166  11.049  0.0471 -0.5429 -0.2901
   82SAPS  H12A 7619   0.434   6.084  11.097 -1.8904  2.2421  2.7775
   82SAPS   C13 7620   0.386   6.282  11.055 -0.3883  0.2421 -0.2385
   82SAPS  O13A 7621   0.425   6.395  11.093 -0.5326 -0.2829 -0.9160
   82SAPS  O13B 7622   0.270   6.269  11.008  0.3558  0.2038  0.0127
   82SAPS   C11 7623   0.525   6.140  10.904 -0.5364  0.0123  0.2061
   82SAPS  H11A 7624   0.597   6.216  10.868  1.7735 -2.7760 -1.4213
   82SAPS  H11B 7625   0.432   6.157  10.846  0.4019  0.7758 -1.1069
   82SAPS     P 7626   0.497   5.876  10.890  0.1154 -0.3540 -0.3005
   82SAPS   O13 7627   0.557   5.772  10.976 -0.6886  0.5656 -0.2803
   82SAPS   O14 7628   0.357   5.913  10.919  0.6642  0.6920 -0.6891
   82SAPS   O12 7629   0.587   6.008  10.886  0.2750  0.4357  0.5583
   82SAPS   O11 7630   0.498   5.831  10.741  0.3588  0.0164 -0.3487
   82SAPS    C1 7631   0.606   5.836  10.646 -0.3728  0.6476 -0.7430
   82SAPS    HA 7632   0.707   5.829  10.693 -1.0025 -1.4608  0.4489
   82SAPS    HB 7633   0.601   5.746  10.581 -3.5585 -1.5734  2.2321
   82SAPS    C2 7634   0.605   5.968  10.571 -0.3083 -0.1609 -0.0624
   82SAPS    HS 7635   0.625   6.053  10.641  1.5399 -1.8653  1.6088
   82SAPS   O21 7636   0.475   5.986  10.515 -0.1789 -0.2126  0.1179
   82SAPS   C21 7637   0.454   6.103  10.455  0.2849  0.3663 -0.6239
   82SAPS   O22 7638   0.537   6.193  10.451 -0.5312  0.1700 -0.8450
   82SAPS   C22 7639   0.326   6.092  10.369 -0.2429 -0.7851 -0.2832
   82SAPS   H2R 7640   0.241   6.088  10.442  0.3495  1.7624  0.6683
   82SAPS   H2S 7641   0.315   6.185  10.309  1.8288  0.8632  1.7356
   82SAPS    C3 7642   0.718   5.968  10.464 -0.2770 -0.4645  0.0386
   82SAPS    HX 7643   0.820   5.972  10.507 -0.4737  4.0389  0.5808
   82SAPS    HY 7644   0.714   6.065  10.410 -1.6339 -0.1169  0.6983
   82SAPS   O31 7645   0.689   5.869  10.367 -0.1367  0.4417 -0.1503
   82SAPS   C31 7646   0.795   5.792  10.332 -0.3295  0.2728  0.4693
   82SAPS   O32 7647   0.901   5.792  10.390  1.1372 -0.1358  0.3275
   82SAPS   C32 7648   0.769   5.708  10.211  0.0490  0.4631  0.3502
   82SAPS   H2X 7649   0.698   5.753  10.138 -0.2175 -1.0982 -0.4016
   82SAPS   H2Y 7650   0.713   5.618  10.245  0.6902 -0.4045 -0.8247
   82SAPS   C23 7651   0.333   5.963  10.288 -0.2573 -0.0035  1.0164
   82SAPS   H3R 7652   0.232   5.959  10.241  0.6429  1.4728 -1.1639
   82SAPS   H3S 7653   0.340   5.879  10.360 -1.0975  0.5339  1.7462
   82SAPS   C24 7654   0.431   5.959  10.170 -0.0081  0.3128 -0.0546
   82SAPS   H4R 7655   0.446   5.857  10.130 -0.9746  0.5194 -1.0042
   82SAPS   H4S 7656   0.533   5.992  10.200  1.6551 -3.5558 -0.8745
   82SAPS   C25 7657   0.392   6.062  10.065  1.0702  0.2464  0.0776
   82SAPS   H5R 7658   0.404   6.169  10.089 -1.2508  0.6117 -0.1518
   82SAPS   C26 7659   0.334   6.037   9.943  0.0655 -0.5646 -0.4839
   82SAPS   H6R 7660   0.280   6.122   9.897 -0.2357 -0.4074  0.1521
   82SAPS   C27 7661   0.301   5.906   9.886  0.7906  0.4923 -0.5572
   82SAPS   H7R 7662   0.226   5.932   9.808  0.8957  0.8708 -0.5354
   82SAPS   H7S 7663   0.239   5.845   9.956  0.0842 -0.6088 -2.0877
   82SAPS   C28 7664   0.418   5.820   9.841  0.2873  0.1516  0.4451
   82SAPS   H8R 7665   0.510   5.828   9.900  1.3165  0.9423 -1.2024
   82SAPS   C29 7666   0.419   5.747   9.729  0.1586 -0.1764 -0.4475
   82SAPS   H9R 7667   0.515   5.702   9.700 -0.0740 -1.1220  0.2057
   82SAPS  C210 7668   0.312   5.742   9.624 -0.0063  0.4487 -0.1160
   82SAPS  H10R 7669   0.355   5.730   9.522  0.0968  0.5236 -0.0806
   82SAPS  H10S 7670   0.261   5.840   9.621  2.3141  1.7496  0.4474
   82SAPS  C211 7671   0.207   5.629   9.644  0.4452 -0.1147 -0.5151
   82SAPS  H11R 7672   0.165   5.628   9.746  2.0956 -3.6625  0.3099
   82SAPS  C212 7673   0.151   5.544   9.557  0.3288 -1.0425 -0.4815
   82SAPS  H12R 7674   0.086   5.467   9.602  1.1037 -1.7007 -0.4699
   82SAPS  C213 7675   0.181   5.544   9.413  0.7527 -0.5252  0.5740
   82SAPS  H13R 7676   0.271   5.604   9.390  0.8820 -1.3895 -1.4019
   82SAPS  H13S 7677   0.095   5.598   9.369 -0.2812 -1.1005  1.8180
   82SAPS  C214 7678   0.196   5.408   9.346  0.6687 -0.3082 -0.1528
   82SAPS  H14R 7679   0.245   5.337   9.414 -0.2193 -0.5925  0.2091
   82SAPS  C215 7680   0.169   5.385   9.214  0.5212 -0.3397  0.2358
   82SAPS  H15R 7681   0.168   5.281   9.180  1.1849 -0.8283  1.6287
   82SAPS  C216 7682   0.124   5.485   9.109 -0.4253  0.2845  0.2678
   82SAPS  H16R 7683   0.191   5.486   9.020  0.3883 -2.6171  0.7592
   82SAPS  H16S 7684   0.127   5.586   9.155 -0.0132  0.8032 -0.8548
   82SAPS  C217 7685  -0.009   5.444   9.052  0.8152 -0.4802  0.7613
   82SAPS  H17R 7686  -0.085   5.461   9.131  0.8574 -0.5014  0.8065
   82SAPS  H17S 7687  -0.013   5.338   9.020 -0.0464  0.2580 -1.7562
   82SAPS  C218 7688  -0.049   5.533   8.930  0.1360  0.4324  0.1074
   82SAPS  H18R 7689   0.008   5.501   8.840 -0.6396 -0.1187 -0.2000
   82SAPS  H18S 7690  -0.033   5.641   8.952 -0.0129  0.2897  0.9438
   82SAPS  C219 7691  -0.195   5.516   8.899  0.3750 -0.3718 -0.4148
   82SAPS  H19R 7692  -0.257   5.542   8.987  0.3633  2.2524 -1.1015
   82SAPS  H19S 7693  -0.215   5.412   8.866 -0.9888 -0.0444 -0.6708
   82SAPS  C220 7694  -0.242   5.600   8.785 -0.2972 -0.5266 -0.0350
   82SAPS  H20R 7695  -0.202   5.558   8.689 -0.0009  1.6408 -0.9137
   82SAPS  H20S 7696  -0.197   5.701   8.774  0.9143 -1.2974 -3.2786
   82SAPS  H20T 7697  -0.352   5.605   8.773 -0.6225 -1.0292  2.2451
   82SAPS   C33 7698   0.896   5.642  10.146  0.0382 -0.2800  0.1644
   82SAPS   H3X 7699   0.935   5.578  10.229 -0.6666 -1.1300 -0.1431
   82SAPS   H3Y 7700   0.974   5.716  10.118 -0.3123  0.2062  0.4410
   82SAPS   C34 7701   0.859   5.557  10.025 -0.4107 -0.1502 -0.1841
   82SAPS   H4X 7702   0.773   5.491  10.047  0.1426 -0.2725  1.7796
   82SAPS   H4Y 7703   0.943   5.486  10.016  0.0253 -0.0609  2.4362
   82SAPS   C35 7704   0.839   5.626   9.889 -0.0303  0.5119  0.9011
   82SAPS   H5X 7705   0.930   5.685   9.865  0.6011 -0.6410  0.3937
   82SAPS   H5Y 7706   0.747   5.688   9.886  0.4972  1.4011  2.0793
   82SAPS   C36 7707   0.832   5.529   9.771  0.6183  0.3898  0.9004
   82SAPS   H6X 7708   0.751   5.454   9.780  0.3062  0.7443  1.0810
   82SAPS   H6Y 7709   0.930   5.477   9.768  1.1059  1.2883  0.8985
   82SAPS   C37 7710   0.826   5.610   9.641  0.3417 -0.8856  0.1277
   82SAPS   H7X 7711   0.928   5.652   9.624 -0.3163 -0.3527 -3.1335
   82SAPS   H7Y 7712   0.755   5.695   9.640  0.2230 -0.9501  1.6611
   82SAPS   C38 7713   0.810   5.511   9.524  0.0938 -0.2371 -0.5347
   82SAPS   H8X 7714   0.705   5.476   9.516 -0.7845  2.5590 -2.7020
   82SAPS   H8Y 7715   0.879   5.425   9.544  0.7173  0.6996  1.6536
   82SAPS   C39 7716   0.848   5.565   9.384 -1.0301 -0.3102 -0.2372
   82SAPS   H9X 7717   0.847   5.476   9.317 -1.3028  0.1060 -0.7964
   82SAPS   H9Y 7718   0.953   5.599   9.378 -1.2808  0.5811  0.2860
   82SAPS  C310 7719   0.748   5.669   9.325 -0.3421  0.7655 -0.8799
   82SAPS  H10X 7720   0.786   5.769   9.353 -0.5023  1.3945 -2.7418
   82SAPS  H10Y 7721   0.642   5.645   9.351 -0.6221  0.7138 -2.0271
   82SAPS  C311 7722   0.763   5.671   9.171  0.3573 -0.7005 -0.0009
   82SAPS  H11X 7723   0.732   5.571   9.133  0.8993 -0.8249 -0.1183
   82SAPS  H11Y 7724   0.871   5.683   9.149  0.3956 -1.3136 -0.1623
   82SAPS  C312 7725   0.678   5.779   9.111  0.7774 -0.2623  0.8842
   82SAPS  H12X 7726   0.702   5.782   9.002 -0.8148 -2.6689  0.3842
   82SAPS  H12Y 7727   0.697   5.880   9.152 -2.6872  0.9623 -0.1372
   82SAPS  C313 7728   0.525   5.751   9.113  0.4050  0.5110 -0.4125
   82SAPS  H13X 7729   0.485   5.747   9.217  1.1893 -1.5576 -0.1492
   82SAPS  H13Y 7730   0.511   5.649   9.072  2.6750  0.4473 -1.1711
   82SAPS  C314 7731   0.441   5.850   9.029  0.1645 -0.0367 -0.7301
   82SAPS  H14X 7732   0.460   5.830   8.921 -1.4073 -0.6306 -0.9228
   82SAPS  H14Y 7733   0.485   5.947   9.059  1.1846 -0.0412 -2.1215
   82SAPS  C315 7734   0.294   5.835   9.066 -0.8267  0.0885 -0.1808
   82SAPS  H15X 7735   0.276   5.869   9.170  0.2552  0.7247 -0.1867
   82SAPS  H15Y 7736   0.267   5.727   9.070 -1.0654  0.1124 -0.9858
   82SAPS  C316 7737   0.214   5.912   8.968 -0.2431  0.2771 -0.1175
   82SAPS  H16X 7738   0.212   5.866   8.867 -0.3144 -1.0088  0.4424
   82SAPS  H16Y 7739   0.263   6.011   8.967 -0.3556  0.3332 -1.1883
   82SAPS  C317 7740   0.067   5.941   9.011 -0.3397  0.0072 -0.1160
   82SAPS  H17X 7741   0.078   6.010   9.098 -2.0637  0.9918 -0.6093
   82SAPS  H17Y 7742   0.024   5.843   9.037  0.8711 -0.9086 -1.4161
   82SAPS  C318 7743  -0.011   6.016   8.901  0.3813 -0.7943  0.2959
   82SAPS  H18X 7744   0.044   6.108   8.871  0.4616 -0.1225  2.3246
   82SAPS  H18Y 7745  -0.108   6.053   8.940 -0.0885 -0.0132 -1.5291
   82SAPS  H18Z 7746  -0.025   5.957   8.808  2.4408  0.9826 -1.2515
   83SAPS     N 7747   2.948   1.202  11.257  0.2458  0.2795  0.0812
   83SAPS   HN1 7748   2.984   1.237  11.166  0.0690  0.2316 -0.0068
   83SAPS   HN2 7749   2.991   1.112  11.286 -0.3097 -0.8427 -2.3480
   83SAPS   HN3 7750   2.844   1.192  11.251  0.3202 -2.1333  1.6519
   83SAPS   C12 7751   3.001   1.312  11.352  0.6290  0.5319  1.0142
   83SAPS  H12A 7752   2.945   1.400  11.324 -1.9097 -0.9845  0.9618
   83SAPS   C13 7753   2.976   1.281  11.504 -0.5558  0.1397 -0.9394
   83SAPS  O13A 7754   2.933   1.165  11.535  1.0751  0.3840 -0.1263
   83SAPS  O13B 7755   3.046   1.350  11.582  0.6777  0.0896  0.2171
   83SAPS   C11 7756   3.155   1.335  11.323 -0.2179  0.2977  0.1055
   83SAPS  H11A 7757   3.215   1.253  11.368 -0.6988 -0.5570 -0.7727
   83SAPS  H11B 7758   3.180   1.426  11.381 -0.8464 -0.0985  1.0150
   83SAPS     P 7759   3.314   1.355  11.120 -0.2560  0.0603  0.1250
   83SAPS   O13 7760   3.422   1.415  11.208  0.4549  0.6153  0.0910
   83SAPS   O14 7761   3.356   1.215  11.092  0.3458  0.2096  0.1366
   83SAPS   O12 7762   3.174   1.352  11.183 -0.0224  0.3636 -0.3223
   83SAPS   O11 7763   3.296   1.419  10.978 -0.5179  0.0385  0.5146
   83SAPS    C1 7764   3.172   1.431  10.910  0.2847 -1.0587  0.0481
   83SAPS    HA 7765   3.091   1.367  10.950  0.9252 -1.8836  0.0543
   83SAPS    HB 7766   3.137   1.535  10.929  1.3767 -0.5753 -0.4709
   83SAPS    C2 7767   3.185   1.419  10.755 -0.2640  0.3387  0.2179
   83SAPS    HS 7768   3.080   1.416  10.719 -0.5488  1.3593  0.9227
   83SAPS   O21 7769   3.256   1.299  10.710 -0.2585 -0.8902  0.0069
   83SAPS   C21 7770   3.208   1.174  10.738 -0.5280 -0.5013 -0.1025
   83SAPS   O22 7771   3.101   1.155  10.789  0.3038 -0.0021 -0.3209
   83SAPS   C22 7772   3.299   1.066  10.681  0.1774  0.2037 -0.8322
   83SAPS   H2R 7773   3.385   1.114  10.629  1.3134 -0.4027  0.4273
   83SAPS   H2S 7774   3.338   1.008  10.767 -0.9983  0.0980 -0.3520
   83SAPS    C3 7775   3.256   1.541  10.690 -0.0283  0.1799 -0.3407
   83SAPS    HX 7776   3.356   1.541  10.738 -0.8023 -1.9644  1.4659
   83SAPS    HY 7777   3.182   1.622  10.710 -1.5474 -0.9017 -1.4081
   83SAPS   O31 7778   3.266   1.519  10.547 -0.2346 -0.2598 -0.7793
   83SAPS   C31 7779   3.346   1.599  10.474 -0.0591  0.4094  0.2827
   83SAPS   O32 7780   3.413   1.694  10.518  0.6209  0.1022  0.4760
   83SAPS   C32 7781   3.329   1.556  10.329 -0.8046 -0.8328 -1.3000
   83SAPS   H2X 7782   3.220   1.571  10.316 -0.7853  2.2990  0.7794
   83SAPS   H2Y 7783   3.349   1.447  10.327  0.8817 -0.5444 -1.8106
   83SAPS   C23 7784   3.228   0.968  10.580  0.4126 -0.0994  0.3950
   83SAPS   H3R 7785   3.135   0.935  10.631 -1.0765  0.9562 -1.5207
   83SAPS   H3S 7786   3.298   0.882  10.569 -0.5589 -1.3482  3.0147
   83SAPS   C24 7787   3.197   1.018  10.439 -0.1963 -0.0818  0.3411
   83SAPS   H4R 7788   3.157   0.931  10.383 -0.2515  0.2383 -0.1289
   83SAPS   H4S 7789   3.299   1.045  10.403  0.0619 -0.8972  0.4549
   83SAPS   C25 7790   3.104   1.136  10.433 -0.0380 -0.0261  0.2630
   83SAPS   H5R 7791   3.164   1.225  10.458  2.4441 -1.7908  0.9292
   83SAPS   C26 7792   2.981   1.131  10.383 -0.0342 -0.1181 -0.3800
   83SAPS   H6R 7793   2.910   1.215  10.398 -1.2450 -1.4711  2.1156
   83SAPS   C27 7794   2.917   1.008  10.335  0.0727 -0.3807  0.7756
   83SAPS   H7R 7795   2.879   0.944  10.417 -0.2654 -0.3778  0.6200
   83SAPS   H7S 7796   2.989   0.940  10.285 -1.1235 -2.3242  1.5872
   83SAPS   C28 7797   2.793   1.029  10.253  0.1994  0.1624 -0.3753
   83SAPS   H8R 7798   2.703   1.050  10.313 -0.2377  2.4545 -1.7067
   83SAPS   C29 7799   2.785   1.019  10.120 -0.0758 -0.4060  0.4931
   83SAPS   H9R 7800   2.687   1.034  10.072  0.2270  1.3659  0.3708
   83SAPS  C210 7801   2.898   1.000  10.021  0.3294  0.6084  0.3360
   83SAPS  H10R 7802   2.868   0.944   9.929  0.8223 -0.8163  1.0116
   83SAPS  H10S 7803   2.982   0.941  10.064 -1.4528 -0.0682  3.1743
   83SAPS  C211 7804   2.939   1.131   9.960 -0.8714  0.1529  0.0889
   83SAPS  H11R 7805   3.039   1.160   9.994 -0.2832 -1.0798 -0.5464
   83SAPS  C212 7806   2.882   1.198   9.862 -0.5787  0.0027  0.1072
   83SAPS  H12R 7807   2.937   1.288   9.830 -0.0062 -0.0252  0.9795
   83SAPS  C213 7808   2.755   1.169   9.790 -0.5374  0.1177  0.0734
   83SAPS  H13R 7809   2.666   1.171   9.856 -0.9367 -0.6183 -0.4239
   83SAPS  H13S 7810   2.767   1.064   9.755 -0.8570  0.8502 -2.3779
   83SAPS  C214 7811   2.724   1.253   9.673 -0.4401  0.2029  0.0848
   83SAPS  H14R 7812   2.662   1.338   9.704 -1.9377 -0.6198 -0.5622
   83SAPS  C215 7813   2.748   1.227   9.546  0.0426  0.6579  0.5532
   83SAPS  H15R 7814   2.715   1.300   9.469  0.2656  0.9476  0.7305
   83SAPS  C216 7815   2.823   1.113   9.489 -0.8583  0.7693  0.1965
   83SAPS  H16R 7816   2.877   1.061   9.571 -2.1437 -0.9675  0.0169
   83SAPS  H16S 7817   2.898   1.144   9.413 -0.8363  0.2569  0.0072
   83SAPS  C217 7818   2.733   1.009   9.433 -0.2885  0.0633 -0.3979
   83SAPS  H17R 7819   2.669   0.973   9.515  1.9259 -0.1517  1.3312
   83SAPS  H17S 7820   2.801   0.929   9.397 -1.7007 -1.4809  0.2463
   83SAPS  C218 7821   2.666   1.038   9.300  0.0268  0.6940  0.3801
   83SAPS  H18R 7822   2.601   1.126   9.314 -0.4177  0.3675  0.3970
   83SAPS  H18S 7823   2.602   0.950   9.276  0.8681  0.0503  0.4151
   83SAPS  C219 7824   2.765   1.043   9.181  0.0261  0.3456 -0.4435
   83SAPS  H19R 7825   2.835   0.957   9.191 -2.4349 -1.7723 -0.6452
   83SAPS  H19S 7826   2.825   1.137   9.188  0.0489  0.2738  0.4773
   83SAPS  C220 7827   2.699   1.029   9.049  0.6389  0.5362 -0.4309
   83SAPS  H20R 7828   2.610   0.963   9.054 -2.6167  4.3955 -1.8035
   83SAPS  H20S 7829   2.771   0.989   8.975  0.8460 -1.5025  0.7976
   83SAPS  H20T 7830   2.652   1.125   9.018  0.3557  0.1153 -1.3402
   83SAPS   C33 7831   3.407   1.633  10.222 -0.2011 -0.3044 -0.1916
   83SAPS   H3X 7832   3.413   1.566  10.134 -0.8006 -1.8912  0.9306
   83SAPS   H3Y 7833   3.507   1.667  10.258  0.7669 -0.1614 -2.8129
   83SAPS   C34 7834   3.322   1.750  10.174 -0.2535 -0.0835  0.6272
   83SAPS   H4X 7835   3.283   1.814  10.256  1.6955  3.6645 -1.1225
   83SAPS   H4Y 7836   3.244   1.709  10.107  0.2557 -1.2560  0.7216
   83SAPS   C35 7837   3.413   1.853  10.090  0.2152 -0.9132 -0.2443
   83SAPS   H5X 7838   3.491   1.886  10.163 -0.5174 -0.1533  0.2063
   83SAPS   H5Y 7839   3.341   1.932  10.061 -1.1898 -1.3333  1.8257
   83SAPS   C36 7840   3.484   1.784   9.972 -0.1785 -0.0708  0.5480
   83SAPS   H6X 7841   3.416   1.701   9.945 -1.0499  0.8683 -0.2291
   83SAPS   H6Y 7842   3.580   1.738  10.004  0.2840  0.2809 -0.3117
   83SAPS   C37 7843   3.500   1.867   9.849 -0.5792 -0.0422  0.4283
   83SAPS   H7X 7844   3.575   1.948   9.865 -0.0876 -0.4684  0.3329
   83SAPS   H7Y 7845   3.400   1.901   9.817 -0.9706 -1.2262  0.3349
   83SAPS   C38 7846   3.537   1.783   9.731  0.4891  0.1286 -0.1738
   83SAPS   H8X 7847   3.472   1.693   9.727 -0.3927  0.6658  1.3356
   83SAPS   H8Y 7848   3.645   1.755   9.737  1.0242  1.7113 -1.6105
   83SAPS   C39 7849   3.522   1.856   9.600 -0.1945 -0.7309  0.5421
   83SAPS   H9X 7850   3.592   1.941   9.589 -1.7364  0.5056 -0.1958
   83SAPS   H9Y 7851   3.422   1.906   9.598  0.9187  1.7311  1.9858
   83SAPS  C310 7852   3.547   1.765   9.482  0.0795  0.2239 -0.3950
   83SAPS  H10X 7853   3.481   1.675   9.484  0.3947 -0.0580 -1.4863
   83SAPS  H10Y 7854   3.649   1.721   9.487 -0.0233  0.1281  1.1108
   83SAPS  C311 7855   3.537   1.842   9.345  0.9735  0.0967 -0.3740
   83SAPS  H11X 7856   3.628   1.894   9.309  1.3610  0.1812  0.6932
   83SAPS  H11Y 7857   3.456   1.917   9.357 -0.4318 -1.0744 -2.0760
   83SAPS  C312 7858   3.497   1.741   9.244 -0.0162  0.3954 -0.0158
   83SAPS  H12X 7859   3.409   1.684   9.279 -0.1984  1.0509  0.6107
   83SAPS  H12Y 7860   3.590   1.680   9.245  1.1513  2.0129 -1.6786
   83SAPS  C313 7861   3.459   1.790   9.106 -0.2298 -0.5848 -0.2460
   83SAPS  H13X 7862   3.551   1.802   9.044 -0.3420 -0.9104 -0.4798
   83SAPS  H13Y 7863   3.422   1.895   9.102  0.7025 -0.2815 -1.8688
   83SAPS  C314 7864   3.362   1.691   9.041  0.5700 -0.0244  0.9461
   83SAPS  H14X 7865   3.259   1.710   9.078  0.5361 -2.2756  2.1751
   83SAPS  H14Y 7866   3.386   1.588   9.076 -0.4453  0.6718  4.0466
   83SAPS  C315 7867   3.358   1.710   8.891  0.0055  0.1252  0.2248
   83SAPS  H15X 7868   3.463   1.696   8.858  0.2395  0.6527  0.7224
   83SAPS  H15Y 7869   3.324   1.811   8.860 -1.7888  0.1961  2.2105
   83SAPS  C316 7870   3.271   1.611   8.822  0.9483  0.6503 -0.1258
   83SAPS  H16X 7871   3.161   1.628   8.833  0.7481 -1.4416  1.8681
   83SAPS  H16Y 7872   3.289   1.512   8.869 -1.2207  0.5987  0.7572
   83SAPS  C317 7873   3.297   1.584   8.672  0.0712  0.0351 -0.2912
   83SAPS  H17X 7874   3.305   1.680   8.616  1.3827 -0.4224 -0.9208
   83SAPS  H17Y 7875   3.209   1.522   8.644  0.5416 -1.5049  1.4444
   83SAPS  C318 7876   3.425   1.508   8.648  0.1559 -0.7313  0.4725
   83SAPS  H18X 7877   3.455   1.520   8.542 -0.6140 -0.2383  0.2997
   83SAPS  H18Y 7878   3.415   1.400   8.672  0.8717 -1.1241 -0.9279
   83SAPS  H18Z 7879   3.502   1.553   8.714  0.3409 -1.2012  0.5784
   84SAPS     N 7880   3.612   6.603  11.342  0.1239  0.4418 -0.5718
   84SAPS   HN1 7881   3.535   6.653  11.391  0.4382 -1.7907  2.4892
   84SAPS   HN2 7882   3.651   6.558  11.427 -0.2019  0.3952 -0.4429
   84SAPS   HN3 7883   3.671   6.678  11.301  0.5533  1.4827  1.7862
   84SAPS   C12 7884   3.575   6.495  11.240  0.5602 -0.2504 -1.0210
   84SAPS  H12A 7885   3.548   6.411  11.301  1.5592 -1.1084 -1.7314
   84SAPS   C13 7886   3.461   6.530  11.146 -0.0351 -0.1326  0.1154
   84SAPS  O13A 7887   3.415   6.647  11.142 -0.6855  0.0943 -0.3310
   84SAPS  O13B 7888   3.436   6.451  11.049 -0.1469 -0.3073  0.3228
   84SAPS   C11 7889   3.706   6.464  11.167 -0.3949  0.2018 -0.4256
   84SAPS  H11A 7890   3.731   6.552  11.103 -1.9382  2.3304  1.7094
   84SAPS  H11B 7891   3.693   6.375  11.102  0.1787 -0.1198 -0.1070
   84SAPS     P 7892   3.848   6.295  11.305 -0.1517 -0.2875  0.0898
   84SAPS   O13 7893   3.956   6.296  11.403  0.4291  0.4043 -0.2584
   84SAPS   O14 7894   3.727   6.230  11.357 -0.2267  0.2929  0.3682
   84SAPS   O12 7895   3.822   6.444  11.245 -0.1463  0.4531 -0.0253
   84SAPS   O11 7896   3.905   6.216  11.179  0.5244 -0.3013  0.4551
   84SAPS    C1 7897   4.025   6.255  11.120  0.1282  0.4086  0.8761
   84SAPS    HA 7898   4.038   6.365  11.112  2.0699  0.0902 -1.6736
   84SAPS    HB 7899   4.107   6.202  11.173  0.6095 -0.4463 -0.6737
   84SAPS    C2 7900   4.014   6.219  10.965  0.9161 -0.0817 -0.0407
   84SAPS    HS 7901   4.112   6.236  10.915 -0.4210  2.1481 -2.1403
   84SAPS   O21 7902   3.917   6.300  10.900 -0.0592 -0.1066  0.2085
   84SAPS   C21 7903   3.958   6.404  10.834 -0.3835 -0.9411 -0.6737
   84SAPS   O22 7904   4.070   6.453  10.851 -0.5342 -0.0579  0.7358
   84SAPS   C22 7905   3.851   6.463  10.740 -0.0355 -0.1668  0.0743
   84SAPS   H2R 7906   3.812   6.381  10.675  2.5317 -2.1236  0.8164
   84SAPS   H2S 7907   3.773   6.506  10.806  0.5140  1.2759 -0.1884
   84SAPS    C3 7908   3.987   6.066  10.952  0.2155  0.0725  0.3852
   84SAPS    HX 7909   3.904   6.023  11.011 -2.1938  0.9782 -2.1265
   84SAPS    HY 7910   4.080   6.010  10.976 -0.6592 -1.9898 -0.7760
   84SAPS   O31 7911   3.970   6.040  10.817 -0.2234 -0.2699 -0.3190
   84SAPS   C31 7912   3.960   5.908  10.780 -0.2954 -0.1018 -0.6322
   84SAPS   O32 7913   3.958   5.816  10.862  0.3614  0.6455  0.3635
   84SAPS   C32 7914   3.952   5.887  10.628 -0.2368 -0.5257  0.0999
   84SAPS   H2X 7915   3.847   5.859  10.606 -0.2240 -0.1123 -0.5121
   84SAPS   H2Y 7916   4.024   5.806  10.601 -0.0102 -0.1971 -0.2923
   84SAPS   C23 7917   3.903   6.582  10.656  1.2977  0.7543  0.4504
   84SAPS   H3R 7918   3.991   6.546  10.597  0.7872 -0.8814  0.6274
   84SAPS   H3S 7919   3.926   6.668  10.722 -0.3748  0.8774  0.9164
   84SAPS   C24 7920   3.792   6.633  10.558  0.2198  0.2545  0.2153
   84SAPS   H4R 7921   3.704   6.675  10.612  0.4190  1.1501 -0.1286
   84SAPS   H4S 7922   3.757   6.544  10.502  0.6605 -1.5843  2.7253
   84SAPS   C25 7923   3.854   6.733  10.462 -0.4386  1.0373 -0.0028
   84SAPS   H5R 7924   3.904   6.820  10.507 -1.2878  1.3943  0.2623
   84SAPS   C26 7925   3.843   6.739  10.326 -0.6353 -0.3599  0.6833
   84SAPS   H6R 7926   3.914   6.811  10.283  1.0864 -0.8681  2.5441
   84SAPS   C27 7927   3.770   6.648  10.229  0.0499  0.1411 -0.3763
   84SAPS   H7R 7928   3.665   6.675  10.208  0.0459  0.2265 -0.2470
   84SAPS   H7S 7929   3.750   6.557  10.290 -1.4335  0.2076 -0.7281
   84SAPS   C28 7930   3.862   6.617  10.114 -0.2351  0.1769 -0.2008
   84SAPS   H8R 7931   3.961   6.573  10.135 -0.0721  1.2832  1.6049
   84SAPS   C29 7932   3.828   6.624   9.982 -0.1397  0.7176  0.3508
   84SAPS   H9R 7933   3.908   6.604   9.909  0.1568  0.6989  0.6749
   84SAPS  C210 7934   3.699   6.677   9.920 -0.0701  0.4750  0.0051
   84SAPS  H10R 7935   3.720   6.741   9.832 -0.1817 -0.3944 -0.6709
   84SAPS  H10S 7936   3.659   6.756   9.987 -0.1196 -1.1221  1.9614
   84SAPS  C211 7937   3.586   6.575   9.887 -0.0779  0.5318  0.5581
   84SAPS  H11R 7938   3.587   6.492   9.960 -0.8205  0.3294  0.3394
   84SAPS  C212 7939   3.490   6.591   9.792  0.4475 -0.5646 -0.1543
   84SAPS  H12R 7940   3.422   6.508   9.769  0.0302  0.3065 -2.2868
   84SAPS  C213 7941   3.467   6.704   9.702  0.2336  0.6954  0.6558
   84SAPS  H13R 7942   3.550   6.778   9.706  1.0614 -0.0777 -1.1399
   84SAPS  H13S 7943   3.377   6.762   9.734 -1.2450  0.1533 -2.2072
   84SAPS  C214 7944   3.449   6.660   9.561  0.2691 -0.5631  0.8708
   84SAPS  H14R 7945   3.360   6.596   9.551 -0.8141  0.9843  0.4026
   84SAPS  C215 7946   3.520   6.700   9.446 -0.3086 -0.3699 -0.5072
   84SAPS  H15R 7947   3.507   6.635   9.359  2.6100 -1.5314 -0.1698
   84SAPS  C216 7948   3.635   6.794   9.436 -0.5020 -0.5469 -0.3912
   84SAPS  H16R 7949   3.620   6.880   9.504  0.0408  0.9020 -2.0214
   84SAPS  H16S 7950   3.650   6.838   9.335  1.1603 -2.5530 -1.0832
   84SAPS  C217 7951   3.771   6.726   9.478  0.5730  0.6907 -0.0426
   84SAPS  H17R 7952   3.759   6.682   9.579 -0.7389 -0.8429 -0.8270
   84SAPS  H17S 7953   3.856   6.797   9.489  1.4394 -0.2521 -0.5092
   84SAPS  C218 7954   3.814   6.622   9.374 -0.7058 -0.1509 -0.6148
   84SAPS  H18R 7955   3.741   6.538   9.386 -1.3996  0.7859  3.6139
   84SAPS  H18S 7956   3.913   6.580   9.403 -0.3400 -0.8237 -2.6638
   84SAPS  C219 7957   3.819   6.664   9.222 -0.8558  0.3532  0.0700
   84SAPS  H19R 7958   3.894   6.746   9.223  0.9041 -1.1876  1.0104
   84SAPS  H19S 7959   3.722   6.709   9.193 -2.4212 -2.0217  1.2813
   84SAPS  C220 7960   3.856   6.555   9.119 -0.1101  0.4697 -0.3643
   84SAPS  H20R 7961   3.958   6.517   9.137  0.3436  0.9815 -1.7192
   84SAPS  H20S 7962   3.850   6.600   9.018 -0.8014 -0.8723 -0.9439
   84SAPS  H20T 7963   3.785   6.469   9.121  1.6611 -1.1032 -1.7717
   84SAPS   C33 7964   3.977   6.016  10.542 -0.3627 -0.1700 -0.4608
   84SAPS   H3X 7965   4.052   6.089  10.579 -0.2126 -0.3159 -0.4740
   84SAPS   H3Y 7966   3.881   6.071  10.538 -0.6864 -0.6230  0.5014
   84SAPS   C34 7967   4.010   5.975  10.400 -0.1850  0.6040 -0.1339
   84SAPS   H4X 7968   3.930   5.911  10.357  2.2566 -1.6855 -1.5867
   84SAPS   H4Y 7969   4.091   5.899  10.399 -1.5293 -0.8839 -0.0706
   84SAPS   C35 7970   4.044   6.088  10.316  0.4591  0.5993  0.2449
   84SAPS   H5X 7971   4.144   6.117  10.354  1.0422 -1.0617  0.0698
   84SAPS   H5Y 7972   3.978   6.176  10.335  1.8703  1.4448  1.4283
   84SAPS   C36 7973   4.061   6.037  10.169  0.3281  0.2530 -0.1010
   84SAPS   H6X 7974   3.959   6.009  10.135  0.2633  2.7858 -2.3828
   84SAPS   H6Y 7975   4.120   5.943  10.157 -0.5331 -0.2287 -0.6566
   84SAPS   C37 7976   4.111   6.151  10.074 -0.7860 -0.5994 -0.4779
   84SAPS   H7X 7977   4.205   6.191  10.118 -0.1399 -0.6168 -1.7981
   84SAPS   H7Y 7978   4.045   6.240  10.073  1.2349  0.9986  0.2802
   84SAPS   C38 7979   4.138   6.102   9.937  0.5506 -0.3763 -0.2141
   84SAPS   H8X 7980   4.055   6.029   9.925  0.4833 -0.7759  2.1301
   84SAPS   H8Y 7981   4.237   6.052   9.938  2.2470  2.7858  0.8177
   84SAPS   C39 7982   4.126   6.208   9.827  0.3830  0.2971  0.4583
   84SAPS   H9X 7983   4.215   6.274   9.838  0.2275  0.5622  0.1383
   84SAPS   H9Y 7984   4.037   6.267   9.855  1.0238  1.3165  0.3891
   84SAPS  C310 7985   4.128   6.148   9.685 -0.1938 -0.0712  0.9323
   84SAPS  H10X 7986   4.033   6.091   9.678 -0.2828 -0.2211  2.8279
   84SAPS  H10Y 7987   4.218   6.084   9.674  0.5843  0.5049  3.2151
   84SAPS  C311 7988   4.136   6.257   9.571  0.5951  0.4393 -0.2558
   84SAPS  H11X 7989   4.241   6.290   9.558  1.5420 -1.4687  1.8269
   84SAPS  H11Y 7990   4.079   6.344   9.611 -2.7007 -0.6454 -2.2468
   84SAPS  C312 7991   4.069   6.185   9.444 -0.4393 -0.0651 -0.2446
   84SAPS  H12X 7992   3.974   6.137   9.475  0.8878 -0.7511  3.2482
   84SAPS  H12Y 7993   4.124   6.091   9.422 -1.9800 -1.4329  1.4451
   84SAPS  C313 7994   4.036   6.268   9.316 -0.3211 -0.5653 -1.5957
   84SAPS  H13X 7995   4.117   6.339   9.291 -1.9008  1.9215 -0.1511
   84SAPS  H13Y 7996   3.946   6.328   9.342  1.3794  1.0733  1.0319
   84SAPS  C314 7997   3.996   6.185   9.194 -0.0653 -0.1985  0.9080
   84SAPS  H14X 7998   3.983   6.262   9.116 -1.4866 -1.7305 -0.4424
   84SAPS  H14Y 7999   3.897   6.138   9.211 -0.7461  0.9187  0.1339
   84SAPS  C315 8000   4.097   6.085   9.128  0.2167 -0.2799  0.1262
   84SAPS  H15X 8001   4.111   5.998   9.195  1.9458  2.5387  3.7998
   84SAPS  H15Y 8002   4.193   6.141   9.126  0.1854 -0.0801  1.9245
   84SAPS  C316 8003   4.042   6.036   8.989  0.4821  0.2951  0.3814
   84SAPS  H16X 8004   4.043   6.125   8.921  2.6022  0.5799  0.7338
   84SAPS  H16Y 8005   3.936   6.004   8.998  0.3043  0.8426  0.2836
   84SAPS  C317 8006   4.130   5.922   8.927 -0.7998 -0.6912  0.2456
   84SAPS  H17X 8007   4.077   5.878   8.841 -0.5331 -0.7625  0.1158
   84SAPS  H17Y 8008   4.141   5.838   8.999 -1.2554 -0.8357  0.1460
   84SAPS  C318 8009   4.275   5.963   8.877  0.3170  0.6130 -0.3583
   84SAPS  H18X 8010   4.262   6.057   8.818 -1.3719  0.7023  0.1155
   84SAPS  H18Y 8011   4.317   5.880   8.815 -0.8009 -0.4243  0.2167
   84SAPS  H18Z 8012   4.351   5.991   8.952 -0.2783  1.2513  0.0220
   85SAPS     N 8013   2.299   1.808  11.139 -0.6617  0.2579  0.1328
   85SAPS   HN1 8014   2.240   1.867  11.201 -1.6256 -0.3853 -0.1612
   85SAPS   HN2 8015   2.375   1.755  11.187  1.4932  0.7951 -2.4502
   85SAPS   HN3 8016   2.367   1.877  11.100  1.0728 -1.4922 -0.0847
   85SAPS   C12 8017   2.218   1.752  11.029  0.0263  0.8105  0.0664
   85SAPS  H12A 8018   2.143   1.687  11.070 -0.2028  1.5442  0.8486
   85SAPS   C13 8019   2.143   1.860  10.956 -0.0210  0.7036 -0.3271
   85SAPS  O13A 8020   2.151   1.983  10.988  0.3245 -0.3398  0.1332
   85SAPS  O13B 8021   2.086   1.824  10.848  0.5679 -0.1092 -0.8150
   85SAPS   C11 8022   2.304   1.677  10.927  0.1537 -0.9660 -0.2568
   85SAPS  H11A 8023   2.362   1.752  10.869  0.5543 -1.4538 -0.4997
   85SAPS  H11B 8024   2.249   1.629  10.843 -0.3661 -2.3266  0.8287
   85SAPS     P 8025   2.511   1.530  10.925 -0.4495 -0.0142 -0.2708
   85SAPS   O13 8026   2.610   1.636  10.903  0.0040 -0.3317 -0.1199
   85SAPS   O14 8027   2.555   1.405  10.986 -0.3985  0.6193  0.2644
   85SAPS   O12 8028   2.377   1.580  10.999 -0.1077  0.3377 -0.1822
   85SAPS   O11 8029   2.453   1.491  10.786  0.2810  0.0844 -0.0770
   85SAPS    C1 8030   2.524   1.457  10.673  0.2097 -0.1167  0.3292
   85SAPS    HA 8031   2.629   1.494  10.675 -0.2100  1.1162  0.2650
   85SAPS    HB 8032   2.532   1.346  10.674 -0.4858 -0.2257 -1.8523
   85SAPS    C2 8033   2.466   1.518  10.541  0.2013  0.1881 -0.2099
   85SAPS    HS 8034   2.412   1.439  10.485  2.6517 -0.8077 -1.3393
   85SAPS   O21 8035   2.569   1.592  10.470 -0.1843  0.0313 -0.2505
   85SAPS   C21 8036   2.629   1.507  10.387  0.1331 -0.2424 -0.0938
   85SAPS   O22 8037   2.616   1.387  10.380 -0.3724 -0.1026 -0.2048
   85SAPS   C22 8038   2.718   1.582  10.290 -0.3554  0.6128 -0.1445
   85SAPS   H2R 8039   2.650   1.628  10.215 -0.5841 -1.5183 -1.3210
   85SAPS   H2S 8040   2.769   1.663  10.348  0.1907  2.5758 -3.1122
   85SAPS    C3 8041   2.355   1.630  10.577 -0.3824  0.1030 -0.3829
   85SAPS    HX 8042   2.397   1.711  10.639 -2.1470  0.4787  0.3832
   85SAPS    HY 8043   2.282   1.584  10.647 -0.4865  1.3118  0.3241
   85SAPS   O31 8044   2.307   1.681  10.456  0.0672 -0.6052  0.2175
   85SAPS   C31 8045   2.196   1.623  10.414 -0.5188 -0.3521  0.5007
   85SAPS   O32 8046   2.147   1.524  10.462 -0.4277  0.5876 -0.3723
   85SAPS   C32 8047   2.147   1.695  10.293 -0.2779 -0.1480 -0.3178
   85SAPS   H2X 8048   2.194   1.796  10.295 -0.0613 -0.2166 -1.3591
   85SAPS   H2Y 8049   2.036   1.692  10.307 -0.4766 -1.4892 -1.8920
   85SAPS   C23 8050   2.829   1.493  10.231  0.4948  0.6791 -0.0014
   85SAPS   H3R 8051   2.793   1.404  10.176  0.5812 -1.5098  3.2337
   85SAPS   H3S 8052   2.893   1.459  10.315  0.3327  0.6536  0.1124
   85SAPS   C24 8053   2.919   1.571  10.137 -0.3782  0.3898  0.5454
   85SAPS   H4R 8054   2.983   1.646  10.188  0.9299 -1.7770  2.2833
   85SAPS   H4S 8055   2.868   1.630  10.058  3.6681  0.4856 -2.2748
   85SAPS   C25 8056   3.030   1.486  10.081  0.3889  0.5904  0.0279
   85SAPS   H5R 8057   3.064   1.408  10.149  0.1628  1.0626  0.6921
   85SAPS   C26 8058   3.083   1.498   9.961 -0.6744  0.1552  0.1718
   85SAPS   H6R 8059   3.174   1.439   9.941  0.6221  1.1573  2.6362
   85SAPS   C27 8060   3.055   1.607   9.858  0.3425 -0.2595  0.9201
   85SAPS   H7R 8061   3.144   1.663   9.824 -1.0360  2.5272  1.6382
   85SAPS   H7S 8062   2.992   1.687   9.902  1.5102  0.9519  0.4373
   85SAPS   C28 8063   2.977   1.542   9.741  0.0353 -0.4544  0.0023
   85SAPS   H8R 8064   2.874   1.514   9.765 -1.2422  3.4943 -0.0971
   85SAPS   C29 8065   3.023   1.513   9.621  0.1327  0.5371  0.2894
   85SAPS   H9R 8066   2.955   1.467   9.548 -0.2340  1.1556  0.2346
   85SAPS  C210 8067   3.161   1.547   9.564  0.1662 -0.0935 -0.0202
   85SAPS  H10R 8068   3.228   1.469   9.606 -0.9922 -1.5778 -0.8054
   85SAPS  H10S 8069   3.199   1.646   9.598  0.8222 -0.7657  1.2508
   85SAPS  C211 8070   3.161   1.544   9.416 -0.5393 -0.0955  0.5255
   85SAPS  H11R 8071   3.186   1.642   9.373 -1.7199  0.1467  0.3526
   85SAPS  C212 8072   3.153   1.441   9.333  0.3844  0.6022 -0.3250
   85SAPS  H12R 8073   3.161   1.465   9.226  2.6026 -0.5288 -0.4622
   85SAPS  C213 8074   3.143   1.294   9.363  1.0212 -0.8489 -0.0960
   85SAPS  H13R 8075   3.066   1.241   9.302 -0.9994  2.4402 -0.6444
   85SAPS  H13S 8076   3.094   1.292   9.463  1.1925  0.8168  0.0518
   85SAPS  C214 8077   3.274   1.218   9.365  0.2967 -0.2628 -0.1190
   85SAPS  H14R 8078   3.328   1.221   9.269  1.2719  1.1368  0.4428
   85SAPS  C215 8079   3.327   1.147   9.465 -0.0624 -0.4912 -0.5404
   85SAPS  H15R 8080   3.421   1.099   9.434  0.9698  1.8211 -1.2311
   85SAPS  C216 8081   3.277   1.120   9.609  0.4074 -0.3889 -0.2433
   85SAPS  H16R 8082   3.271   1.012   9.634 -0.0089 -0.9005 -2.4002
   85SAPS  H16S 8083   3.173   1.155   9.622  1.9325  4.8996  0.5069
   85SAPS  C217 8084   3.379   1.183   9.708 -0.3891 -0.3545  0.3282
   85SAPS  H17R 8085   3.375   1.291   9.684  0.3609 -0.0854  1.3550
   85SAPS  H17S 8086   3.483   1.147   9.696 -0.6141 -0.8175 -0.2608
   85SAPS  C218 8087   3.335   1.167   9.857  0.5499  0.8547  0.1772
   85SAPS  H18R 8088   3.241   1.226   9.861  0.2555  0.3723  0.5769
   85SAPS  H18S 8089   3.403   1.206   9.936 -0.6240 -0.4992  1.9302
   85SAPS  C219 8090   3.309   1.016   9.891  0.1013 -0.7587  0.0332
   85SAPS  H19R 8091   3.393   0.951   9.857 -1.9744 -3.3892 -0.3829
   85SAPS  H19S 8092   3.213   0.991   9.841  0.9903 -1.3528 -1.4609
   85SAPS  C220 8093   3.293   1.002  10.038  0.0630  0.2548 -0.0784
   85SAPS  H20R 8094   3.310   0.903  10.086 -1.8048  0.0654  0.2775
   85SAPS  H20S 8095   3.201   1.040  10.087  0.2569 -1.8072  2.0818
   85SAPS  H20T 8096   3.373   1.047  10.101 -2.6042  0.7036  3.2916
   85SAPS   C33 8097   2.196   1.621  10.168 -0.2227 -0.0047 -0.2155
   85SAPS   H3X 8098   2.148   1.663  10.077 -1.5320 -0.3264  0.3121
   85SAPS   H3Y 8099   2.155   1.518  10.171 -0.9759  0.2859  3.2851
   85SAPS   C34 8100   2.351   1.615  10.142  0.5386 -0.2392 -0.5695
   85SAPS   H4X 8101   2.395   1.568  10.232 -2.1066 -0.2614  0.7982
   85SAPS   H4Y 8102   2.401   1.713  10.128 -1.2322  0.8626  0.5089
   85SAPS   C35 8103   2.384   1.542  10.017  0.2284  0.0888  0.0008
   85SAPS   H5X 8104   2.343   1.438  10.014  1.7888 -0.5784  0.6135
   85SAPS   H5Y 8105   2.491   1.514  10.014  0.3139  0.3957  0.1644
   85SAPS   C36 8106   2.345   1.609   9.879 -0.3635 -0.2420 -1.1806
   85SAPS   H6X 8107   2.410   1.697   9.861  1.6710 -1.1433  1.2054
   85SAPS   H6Y 8108   2.238   1.639   9.885 -0.5770 -1.2665  1.4621
   85SAPS   C37 8109   2.371   1.511   9.772 -1.0185 -0.3177  0.2581
   85SAPS   H7X 8110   2.333   1.407   9.784  1.0751 -1.4791 -2.1338
   85SAPS   H7Y 8111   2.481   1.496   9.765 -1.0374 -0.0122 -0.7620
   85SAPS   C38 8112   2.328   1.560   9.629 -0.7707  0.0774 -0.0027
   85SAPS   H8X 8113   2.396   1.645   9.607 -0.8541 -0.2869 -1.8416
   85SAPS   H8Y 8114   2.226   1.601   9.647 -0.4386  0.6679  0.5735
   85SAPS   C39 8115   2.346   1.452   9.521 -0.0165 -0.2609  0.2508
   85SAPS   H9X 8116   2.290   1.366   9.565  0.2049 -1.1721 -1.1598
   85SAPS   H9Y 8117   2.447   1.409   9.507 -1.5960 -3.6591 -2.2615
   85SAPS  C310 8118   2.288   1.471   9.376  0.8608 -0.1579  0.5981
   85SAPS  H10X 8119   2.333   1.564   9.335 -1.7782  2.0418  2.3158
   85SAPS  H10Y 8120   2.179   1.493   9.373  0.5470 -1.7235 -1.8458
   85SAPS  C311 8121   2.326   1.354   9.285 -0.3428 -0.2846  0.0486
   85SAPS  H11X 8122   2.257   1.267   9.293 -2.2756  1.1124 -0.8576
   85SAPS  H11Y 8123   2.419   1.308   9.325 -2.0084 -1.2007  3.1982
   85SAPS  C312 8124   2.337   1.398   9.135  0.4336 -0.0537 -0.1392
   85SAPS  H12X 8125   2.411   1.481   9.132 -1.7326  1.9387 -0.9372
   85SAPS  H12Y 8126   2.234   1.427   9.107 -0.8198 -1.5429  2.4835
   85SAPS  C313 8127   2.392   1.288   9.043  0.5532  0.3960  0.2915
   85SAPS  H13X 8128   2.476   1.232   9.090 -1.6378 -3.1695  0.3156
   85SAPS  H13Y 8129   2.429   1.349   8.958  0.2845  0.8048  0.4633
   85SAPS  C314 8130   2.288   1.190   8.983 -0.0428 -0.4992 -1.0026
   85SAPS  H14X 8131   2.223   1.258   8.924  1.6528  3.4360  1.2203
   85SAPS  H14Y 8132   2.230   1.149   9.069  0.9917 -1.6699 -0.8368
   85SAPS  C315 8133   2.343   1.077   8.901 -0.5011  0.1420  1.0137
   85SAPS  H15X 8134   2.414   1.018   8.964  1.3028  0.4572 -0.6173
   85SAPS  H15Y 8135   2.400   1.127   8.820 -0.5796 -0.0519  0.8390
   85SAPS  C316 8136   2.247   0.974   8.842 -0.2711  0.8392  0.0155
   85SAPS  H16X 8137   2.305   0.906   8.776 -0.0279  0.0628  0.9987
   85SAPS  H16Y 8138   2.172   1.024   8.777 -1.5268 -1.7640 -0.6798
   85SAPS  C317 8139   2.170   0.895   8.950  0.2662 -0.6470  0.0965
   85SAPS  H17X 8140   2.116   0.978   9.000  0.6938 -1.3770  1.8225
   85SAPS  H17Y 8141   2.244   0.843   9.014  0.9542 -0.3811 -0.4656
   85SAPS  C318 8142   2.066   0.796   8.895  0.3609 -0.1036  0.2388
   85SAPS  H18X 8143   1.980   0.848   8.846  0.1708 -1.2790 -0.7255
   85SAPS  H18Y 8144   2.016   0.736   8.974 -0.7208 -0.9776 -1.0537
   85SAPS  H18Z 8145   2.112   0.730   8.819  1.1666 -0.5830  1.1151
   86SAPS     N 8146   3.472   1.676  11.132 -0.3609 -0.4814  0.0440
   86SAPS   HN1 8147   3.408   1.711  11.205 -0.1901  3.1030 -1.3383
   86SAPS   HN2 8148   3.478   1.572  11.140 -0.8298 -0.6559 -1.4883
   86SAPS   HN3 8149   3.571   1.704  11.142 -0.8997  1.6630 -0.0899
   86SAPS   C12 8150   3.434   1.723  10.996  0.0402 -0.0503 -0.4102
   86SAPS  H12A 8151   3.335   1.689  10.970 -0.4759  0.3259  0.9969
   86SAPS   C13 8152   3.423   1.877  10.992 -0.0123 -0.4250  0.1391
   86SAPS  O13A 8153   3.503   1.948  11.060 -0.1425 -0.8185 -0.1567
   86SAPS  O13B 8154   3.373   1.929  10.887 -0.1480  0.3772 -0.3336
   86SAPS   C11 8155   3.543   1.683  10.892  0.5239  0.2235 -0.0087
   86SAPS  H11A 8156   3.629   1.749  10.917 -0.0004  1.0035 -0.2339
   86SAPS  H11B 8157   3.496   1.702  10.793 -1.6529 -0.5036  0.8254
   86SAPS     P 8158   3.704   1.471  10.875  0.2391 -0.0675 -0.5462
   86SAPS   O13 8159   3.799   1.481  10.991 -0.1821 -0.5971  0.4051
   86SAPS   O14 8160   3.679   1.334  10.828 -0.3536 -0.1817  0.1268
   86SAPS   O12 8161   3.569   1.541  10.904  0.1572  0.3298 -0.1373
   86SAPS   O11 8162   3.763   1.551  10.756 -0.0474 -0.5833  0.8249
   86SAPS    C1 8163   3.704   1.548  10.621  0.0468 -0.8799 -0.4187
   86SAPS    HA 8164   3.599   1.511  10.625 -0.3229  0.2042  2.0453
   86SAPS    HB 8165   3.703   1.651  10.579 -0.2098 -0.1500  1.2857
   86SAPS    C2 8166   3.784   1.477  10.507  0.8934  0.7432 -0.2534
   86SAPS    HS 8167   3.762   1.521  10.407  5.8052  1.5804 -1.2609
   86SAPS   O21 8168   3.771   1.336  10.525  0.6052 -0.3847 -0.6240
   86SAPS   C21 8169   3.653   1.287  10.472 -0.0781 -0.0530 -0.0074
   86SAPS   O22 8170   3.563   1.348  10.417  0.1038 -0.2314 -0.6647
   86SAPS   C22 8171   3.652   1.128  10.457  0.4632 -0.4262 -0.0017
   86SAPS   H2R 8172   3.760   1.104  10.444  0.0031 -2.7489 -0.0240
   86SAPS   H2S 8173   3.616   1.096  10.557  2.6354 -0.3487  0.8712
   86SAPS    C3 8174   3.939   1.501  10.506  0.3197 -0.3218 -0.1132
   86SAPS    HX 8175   3.993   1.430  10.439  1.9760  0.2252  0.5953
   86SAPS    HY 8176   3.985   1.488  10.607 -0.6599 -1.4021  0.2239
   86SAPS   O31 8177   3.963   1.631  10.454  0.1834 -0.2412  0.2574
   86SAPS   C31 8178   3.990   1.651  10.324 -1.0938 -0.2710  0.4813
   86SAPS   O32 8179   4.006   1.567  10.234 -0.6518  0.5505 -0.3083
   86SAPS   C32 8180   3.989   1.802  10.293 -0.6187  0.1760 -0.1087
   86SAPS   H2X 8181   4.091   1.844  10.310 -0.8035  0.5589  0.0635
   86SAPS   H2Y 8182   3.913   1.856  10.354  0.6813  1.8273  0.1323
   86SAPS   C23 8183   3.576   1.076  10.330  0.3358 -0.3142  0.3452
   86SAPS   H3R 8184   3.626   1.128  10.245 -3.3605 -1.3671 -2.8056
   86SAPS   H3S 8185   3.472   1.115  10.324  0.6089  0.3423 -0.3528
   86SAPS   C24 8186   3.579   0.927  10.310  0.7231 -0.4137  0.5397
   86SAPS   H4R 8187   3.525   0.909  10.215  3.8609  1.2012 -1.6879
   86SAPS   H4S 8188   3.530   0.868  10.391  0.3352 -0.5172  0.2329
   86SAPS   C25 8189   3.721   0.880  10.291  0.1755 -0.0217  0.6523
   86SAPS   H5R 8190   3.777   0.881  10.385  0.1647  2.2560  0.6951
   86SAPS   C26 8191   3.780   0.828  10.179  1.0489  0.1887 -0.2586
   86SAPS   H6R 8192   3.882   0.787  10.184  1.2888  0.1192 -3.5203
   86SAPS   C27 8193   3.714   0.807  10.040 -0.0890  0.0996  0.4741
   86SAPS   H7R 8194   3.615   0.759  10.055 -0.4634  0.0934 -1.6748
   86SAPS   H7S 8195   3.768   0.722   9.992  0.3188 -0.6928  2.2543
   86SAPS   C28 8196   3.695   0.931   9.952  0.1762  0.6679 -0.0895
   86SAPS   H8R 8197   3.691   1.023  10.012  0.9229  0.6319  0.0304
   86SAPS   C29 8198   3.685   0.923   9.819  0.4118 -0.4933  0.0780
   86SAPS   H9R 8199   3.676   1.020   9.769  3.4703 -0.4302 -0.5741
   86SAPS  C210 8200   3.702   0.794   9.732 -0.0726  0.1970  0.1481
   86SAPS  H10R 8201   3.781   0.727   9.772  2.0778  0.7917 -2.7406
   86SAPS  H10S 8202   3.736   0.829   9.632 -0.4092 -0.7157 -0.2914
   86SAPS  C211 8203   3.574   0.724   9.723 -0.4633 -0.2081 -0.5470
   86SAPS  H11R 8204   3.530   0.697   9.820 -0.3441  0.9192 -0.1604
   86SAPS  C212 8205   3.535   0.666   9.608  0.6161 -1.2998 -0.3119
   86SAPS  H12R 8206   3.437   0.617   9.599  0.6118 -1.5774  1.0590
   86SAPS  C213 8207   3.602   0.674   9.471  0.4122  0.4845  0.2235
   86SAPS  H13R 8208   3.564   0.583   9.421 -0.4548 -0.0154  1.7336
   86SAPS  H13S 8209   3.712   0.662   9.476  0.3684  0.2947  0.9195
   86SAPS  C214 8210   3.560   0.788   9.383 -0.3980  0.6746 -0.4172
   86SAPS  H14R 8211   3.451   0.796   9.371 -0.1431  2.1112 -2.3429
   86SAPS  C215 8212   3.635   0.871   9.308 -0.0750  0.3564  0.1152
   86SAPS  H15R 8213   3.583   0.948   9.249  0.1848 -1.6724 -3.0266
   86SAPS  C216 8214   3.783   0.862   9.299  0.1921 -0.0629  0.4505
   86SAPS  H16R 8215   3.827   0.775   9.351  0.2120 -0.3704 -0.0725
   86SAPS  H16S 8216   3.826   0.959   9.334  2.6366 -0.5362 -0.9890
   86SAPS  C217 8217   3.821   0.861   9.151 -0.0303 -0.7912  0.5742
   86SAPS  H17R 8218   3.931   0.873   9.144  0.0982  0.9051  3.7214
   86SAPS  H17S 8219   3.763   0.939   9.098  1.7794  0.7119  0.7052
   86SAPS  C218 8220   3.784   0.727   9.083  0.6634  0.2404 -0.4575
   86SAPS  H18R 8221   3.673   0.727   9.080  0.6602 -0.5892 -0.5575
   86SAPS  H18S 8222   3.813   0.642   9.149 -3.6237 -1.6825 -0.7025
   86SAPS  C219 8223   3.835   0.717   8.939  0.4381 -0.0385  0.6449
   86SAPS  H19R 8224   3.945   0.715   8.945  0.4121 -2.3108  1.3230
   86SAPS  H19S 8225   3.813   0.810   8.882  0.4671 -0.6150 -0.3454
   86SAPS  C220 8226   3.792   0.592   8.851  0.6032  0.0169 -0.8553
   86SAPS  H20R 8227   3.811   0.501   8.912 -1.4964 -0.1704 -0.4074
   86SAPS  H20S 8228   3.850   0.596   8.757  1.5532  0.1879 -0.2783
   86SAPS  H20T 8229   3.684   0.605   8.833  0.3927  2.6577  1.5042
   86SAPS   C33 8230   3.939   1.838  10.149 -0.3126 -0.5805  0.2646
   86SAPS   H3X 8231   3.844   1.786  10.128  0.1578 -0.7654 -1.5800
   86SAPS   H3Y 8232   4.006   1.798  10.069 -1.3698  1.5628 -1.8175
   86SAPS   C34 8233   3.936   1.992  10.114 -0.1105  0.2237 -0.3794
   86SAPS   H4X 8234   4.038   2.038  10.118  0.1458 -0.4168  0.8014
   86SAPS   H4Y 8235   3.878   2.040  10.196  0.4522  0.6836 -0.2359
   86SAPS   C35 8236   3.870   2.018   9.980 -0.2733 -0.0296 -0.2456
   86SAPS   H5X 8237   3.852   2.127   9.967  0.1113  0.0216 -0.3585
   86SAPS   H5Y 8238   3.770   1.973   9.966 -0.2822  0.3798 -1.6714
   86SAPS   C36 8239   3.959   1.989   9.858  0.0275 -0.2067  0.2749
   86SAPS   H6X 8240   3.978   1.881   9.846 -0.4249 -0.0498 -2.6673
   86SAPS   H6Y 8241   4.052   2.049   9.848 -0.0502 -0.1490 -0.1059
   86SAPS   C37 8242   3.870   2.022   9.730 -0.1067  0.0498  0.1578
   86SAPS   H7X 8243   3.864   2.132   9.713 -1.5550 -0.1006 -0.4209
   86SAPS   H7Y 8244   3.770   1.974   9.730 -1.1246  2.0385 -0.9609
   86SAPS   C38 8245   3.934   1.972   9.597  0.5667  0.0887  0.1412
   86SAPS   H8X 8246   3.953   1.863   9.606  0.7303  0.0803 -0.2881
   86SAPS   H8Y 8247   4.034   2.019   9.583 -0.3221  1.8607 -0.7030
   86SAPS   C39 8248   3.855   2.013   9.472 -0.7403  0.2962 -0.0125
   86SAPS   H9X 8249   3.833   2.121   9.489  0.0129  0.5199 -0.4474
   86SAPS   H9Y 8250   3.755   1.967   9.454 -1.1275  1.6298 -1.4713
   86SAPS  C310 8251   3.951   2.016   9.353  0.2927  0.1026  0.3452
   86SAPS  H10X 8252   3.980   1.910   9.333  2.2956  0.6131  0.2716
   86SAPS  H10Y 8253   4.045   2.070   9.378  0.6104 -0.4710  0.4041
   86SAPS  C311 8254   3.888   2.079   9.227  0.1364  0.2519  0.3880
   86SAPS  H11X 8255   3.874   2.189   9.237  1.3644  0.3787  0.9130
   86SAPS  H11Y 8256   3.794   2.025   9.204  1.6409 -2.2711 -0.2163
   86SAPS  C312 8257   3.982   2.066   9.110  0.0176  0.0278 -0.8767
   86SAPS  H12X 8258   3.903   2.060   9.031  0.3052 -1.3549 -1.0777
   86SAPS  H12Y 8259   4.033   1.968   9.106 -0.0799 -0.1212  0.8684
   86SAPS  C313 8260   4.077   2.177   9.088  0.5550  0.0088 -0.2423
   86SAPS  H13X 8261   4.150   2.183   9.171 -0.4511 -1.2650  0.7540
   86SAPS  H13Y 8262   4.028   2.277   9.088 -2.6149 -1.3879 -1.6544
   86SAPS  C314 8263   4.139   2.175   8.948 -0.8890 -0.5737 -0.2054
   86SAPS  H14X 8264   4.180   2.078   8.912 -0.9768 -0.7686  0.2206
   86SAPS  H14Y 8265   4.206   2.263   8.940 -3.6951  1.7625  0.5195
   86SAPS  C315 8266   4.032   2.181   8.837  0.0229  0.2803  0.2736
   86SAPS  H15X 8267   3.972   2.271   8.863  0.2934  0.9625 -1.3260
   86SAPS  H15Y 8268   3.978   2.084   8.832  1.7688 -0.9924  3.1641
   86SAPS  C316 8269   4.100   2.202   8.701 -0.2246 -0.2536  0.1431
   86SAPS  H16X 8270   4.115   2.116   8.633 -0.5372  0.3370 -0.6817
   86SAPS  H16Y 8271   4.196   2.255   8.719  1.2024 -2.9874  1.2116
   86SAPS  C317 8272   4.013   2.290   8.604 -0.7581 -0.3067 -0.1614
   86SAPS  H17X 8273   3.982   2.383   8.655  1.6791  1.0221 -0.9577
   86SAPS  H17Y 8274   3.916   2.238   8.586 -0.6996 -0.3956 -0.2211
   86SAPS  C318 8275   4.091   2.315   8.477 -0.2159 -0.1222  1.0070
   86SAPS  H18X 8276   4.190   2.361   8.499  0.5754  0.0270 -2.3443
   86SAPS  H18Y 8277   4.044   2.391   8.411  1.7811  0.6976  0.4442
   86SAPS  H18Z 8278   4.108   2.229   8.409  0.9280  0.5076  0.4582
   87SAPS     N 8279   5.089   2.429  10.972 -0.1684 -0.1369 -0.0629
   87SAPS   HN1 8280   4.987   2.448  10.980  0.0840  0.7173  1.5636
   87SAPS   HN2 8281   5.116   2.473  10.882 -1.5649  4.3678  1.4564
   87SAPS   HN3 8282   5.102   2.326  10.966  0.5134 -0.0795  0.3921
   87SAPS   C12 8283   5.175   2.505  11.055  0.9384 -0.5981  0.0664
   87SAPS  H12A 8284   5.198   2.601  11.011 -1.0233  1.1337  2.5733
   87SAPS   C13 8285   5.113   2.535  11.188 -0.0266 -1.0055  0.2764
   87SAPS  O13A 8286   5.013   2.475  11.239  0.4762  0.4638 -0.1327
   87SAPS  O13B 8287   5.183   2.621  11.255 -0.1322  0.6812 -0.1692
   87SAPS   C11 8288   5.300   2.422  11.080 -0.0172  0.2075 -0.6221
   87SAPS  H11A 8289   5.274   2.319  11.114  1.9927 -0.2346 -0.2835
   87SAPS  H11B 8290   5.361   2.468  11.160 -0.4804  2.7823 -1.6641
   87SAPS     P 8291   5.516   2.473  10.956  0.5834 -0.1741  0.0363
   87SAPS   O13 8292   5.509   2.615  10.991 -0.0450  0.5324  0.1902
   87SAPS   O14 8293   5.609   2.388  11.025  0.6679 -0.1277  0.0487
   87SAPS   O12 8294   5.375   2.402  10.961  0.9235  0.4650 -0.0187
   87SAPS   O11 8295   5.559   2.457  10.803  0.0042 -0.2900  0.3374
   87SAPS    C1 8296   5.443   2.468  10.715  0.9001  0.1516 -0.7132
   87SAPS    HA 8297   5.358   2.400  10.739  0.9229 -0.5831 -2.5327
   87SAPS    HB 8298   5.396   2.568  10.721  0.0579 -0.1944 -1.2446
   87SAPS    C2 8299   5.471   2.434  10.563 -0.2712  0.7022 -0.4122
   87SAPS    HS 8300   5.462   2.324  10.549 -4.6335  0.6676  1.0955
   87SAPS   O21 8301   5.592   2.499  10.521 -0.5399  0.2081  0.0133
   87SAPS   C21 8302   5.673   2.433  10.440 -0.2756  0.4768  0.5607
   87SAPS   O22 8303   5.657   2.324  10.396  0.6063  0.4284  0.4930
   87SAPS   C22 8304   5.802   2.515  10.419  0.8363 -0.3724  0.5597
   87SAPS   H2R 8305   5.778   2.620  10.392  1.3046 -0.7651 -1.4961
   87SAPS   H2S 8306   5.867   2.502  10.509  0.8267  0.7538  0.7414
   87SAPS    C3 8307   5.356   2.486  10.474  0.0059 -1.3036 -0.0283
   87SAPS    HX 8308   5.349   2.596  10.490 -0.6132 -0.6231 -3.9476
   87SAPS    HY 8309   5.263   2.436  10.507 -0.2387 -0.7858  0.0827
   87SAPS   O31 8310   5.389   2.465  10.333 -0.3548 -0.0022 -0.6172
   87SAPS   C31 8311   5.359   2.341  10.298 -0.1333  0.0423  0.6092
   87SAPS   O32 8312   5.284   2.263  10.355 -0.1628 -0.0747 -0.1443
   87SAPS   C32 8313   5.420   2.312  10.162 -0.0093 -0.9026  0.2555
   87SAPS   H2X 8314   5.483   2.221  10.172 -1.5053 -1.8548  1.5294
   87SAPS   H2Y 8315   5.486   2.398  10.139 -0.2780 -0.3412  1.4678
   87SAPS   C23 8316   5.891   2.484  10.293  0.0189  0.3377 -0.1361
   87SAPS   H3R 8317   5.962   2.566  10.268 -0.6176  0.9074 -0.0978
   87SAPS   H3S 8318   5.823   2.452  10.212 -1.0902 -2.9568  1.8796
   87SAPS   C24 8319   5.973   2.352  10.318  0.5454  0.0275  0.1128
   87SAPS   H4R 8320   5.901   2.275  10.281  0.5280  0.6095 -1.1100
   87SAPS   H4S 8321   5.980   2.342  10.428  2.2280  1.0570  0.1287
   87SAPS   C25 8322   6.111   2.349  10.244 -0.8220 -0.1179  0.3342
   87SAPS   H5R 8323   6.201   2.348  10.307  2.3293 -1.5977 -3.7729
   87SAPS   C26 8324   6.125   2.333  10.114  0.9032 -0.3585  0.0029
   87SAPS   H6R 8325   6.229   2.326  10.079  1.7427 -1.0438  2.4566
   87SAPS   C27 8326   6.014   2.322  10.006 -0.0894 -0.2004 -0.1257
   87SAPS   H7R 8327   6.060   2.371   9.918  1.2853  0.0048  0.6867
   87SAPS   H7S 8328   5.935   2.396  10.035 -0.3420 -0.7015  0.5113
   87SAPS   C28 8329   5.946   2.191   9.980 -0.2404 -0.0519  0.2993
   87SAPS   H8R 8330   5.909   2.140  10.070 -1.7061  1.5826  0.6782
   87SAPS   C29 8331   5.931   2.145   9.852 -0.0008  0.7815  0.1340
   87SAPS   H9R 8332   5.876   2.051   9.833  0.1820  0.7396 -0.2016
   87SAPS  C210 8333   5.991   2.218   9.737  0.4861  0.4608 -0.6177
   87SAPS  H10R 8334   5.978   2.148   9.651  1.4258  0.2354 -0.5837
   87SAPS  H10S 8335   6.097   2.245   9.754 -0.2368  2.0296  1.8378
   87SAPS  C211 8336   5.915   2.338   9.692  0.3584 -0.7645  0.0689
   87SAPS  H11R 8337   5.848   2.390   9.763  2.6428  2.5847  0.0179
   87SAPS  C212 8338   5.937   2.399   9.571 -0.1544  0.2293 -0.5125
   87SAPS  H12R 8339   5.885   2.492   9.545  0.6967  0.4433 -1.5301
   87SAPS  C213 8340   6.044   2.372   9.470  0.0533  0.0185 -0.5999
   87SAPS  H13R 8341   6.105   2.282   9.494 -0.8645 -1.3084 -2.9605
   87SAPS  H13S 8342   6.106   2.463   9.461 -2.8475  2.0826 -0.9883
   87SAPS  C214 8343   5.990   2.352   9.335 -0.0558  0.4697  0.0123
   87SAPS  H14R 8344   5.905   2.417   9.310  1.0358  1.0387 -2.5249
   87SAPS  C215 8345   6.025   2.260   9.246  0.4066  0.2612 -0.3343
   87SAPS  H15R 8346   5.969   2.241   9.154 -1.8248 -1.3895  1.2339
   87SAPS  C216 8347   6.125   2.150   9.258 -0.1947  0.0535  0.2677
   87SAPS  H16R 8348   6.178   2.164   9.355  1.3639  2.8800 -0.8631
   87SAPS  H16S 8349   6.206   2.154   9.182  0.3278  2.1964  0.8669
   87SAPS  C217 8350   6.067   2.010   9.279 -0.1555  0.2784  0.4740
   87SAPS  H17R 8351   6.154   1.943   9.291  0.2939  1.1056  2.0833
   87SAPS  H17S 8352   6.002   1.980   9.194 -2.3242  0.9209  1.8198
   87SAPS  C218 8353   5.998   1.989   9.415  0.4941 -0.3174 -0.2052
   87SAPS  H18R 8354   5.921   2.065   9.442  0.3075 -1.1268  1.6758
   87SAPS  H18S 8355   6.075   1.992   9.495  1.1749 -0.3600 -0.8535
   87SAPS  C219 8356   5.930   1.850   9.421 -0.6527 -0.1252 -0.5071
   87SAPS  H19R 8357   5.891   1.824   9.320  1.4746 -1.2051 -1.1303
   87SAPS  H19S 8358   5.841   1.856   9.488  0.7612 -1.9242  1.7074
   87SAPS  C220 8359   6.028   1.738   9.453  0.6668 -0.1097  0.7658
   87SAPS  H20R 8360   6.121   1.745   9.394  0.2506  0.9835  0.2079
   87SAPS  H20S 8361   5.973   1.647   9.418 -2.1061  1.4750  0.6800
   87SAPS  H20T 8362   6.059   1.734   9.560  1.9950  2.3641  0.5505
   87SAPS   C33 8363   5.315   2.301  10.039 -0.4749 -0.3240  0.2871
   87SAPS   H3X 8364   5.251   2.392  10.034 -2.0851 -1.2175  2.8229
   87SAPS   H3Y 8365   5.244   2.219  10.064 -1.2963  0.6050  1.1196
   87SAPS   C34 8366   5.388   2.278   9.907 -0.3308  0.5703 -0.3867
   87SAPS   H4X 8367   5.449   2.366   9.878 -0.0218  0.7617  0.7934
   87SAPS   H4Y 8368   5.306   2.265   9.833  0.1562 -1.9592 -0.5940
   87SAPS   C35 8369   5.466   2.146   9.894  0.2291  0.0277 -0.1635
   87SAPS   H5X 8370   5.394   2.062   9.880 -0.7733  0.8597 -0.0817
   87SAPS   H5Y 8371   5.528   2.123   9.983  1.4792 -0.6391 -1.1763
   87SAPS   C36 8372   5.558   2.150   9.774 -0.3043 -0.3688 -0.2130
   87SAPS   H6X 8373   5.648   2.088   9.789 -1.2119 -1.4149  1.1461
   87SAPS   H6Y 8374   5.602   2.251   9.759 -0.4276 -0.4730 -1.3408
   87SAPS   C37 8375   5.491   2.114   9.643 -0.4068  0.7239 -0.4912
   87SAPS   H7X 8376   5.401   2.175   9.621 -1.3368 -1.2828 -2.6075
   87SAPS   H7Y 8377   5.471   2.005   9.648  2.1664  0.0852 -2.2459
   87SAPS   C38 8378   5.588   2.140   9.535 -0.4999  0.0347 -0.4559
   87SAPS   H8X 8379   5.667   2.061   9.537 -0.2498  0.0784 -3.5606
   87SAPS   H8Y 8380   5.649   2.232   9.550 -1.2322  0.4056  0.3917
   87SAPS   C39 8381   5.536   2.137   9.393 -0.2287 -0.2789 -0.0165
   87SAPS   H9X 8382   5.482   2.234   9.383 -0.3642 -0.0066  2.5910
   87SAPS   H9Y 8383   5.457   2.061   9.374 -1.0382  0.9983 -2.1173
   87SAPS  C310 8384   5.646   2.140   9.293  0.2452  0.1055 -0.0842
   87SAPS  H10X 8385   5.700   2.043   9.299 -2.3893 -1.3843  0.7298
   87SAPS  H10Y 8386   5.712   2.229   9.305  2.4868 -1.2742 -1.2810
   87SAPS  C311 8387   5.594   2.138   9.151  0.1411 -0.2829 -0.1207
   87SAPS  H11X 8388   5.540   2.233   9.133 -0.1633 -0.5816 -0.7911
   87SAPS  H11Y 8389   5.525   2.051   9.153  0.6776 -0.8350 -2.3822
   87SAPS  C312 8390   5.707   2.120   9.045  0.5355 -0.3770  0.6742
   87SAPS  H12X 8391   5.759   2.025   9.071 -0.0283 -0.3999  1.7466
   87SAPS  H12Y 8392   5.778   2.204   9.059 -1.8713  1.9849 -0.4579
   87SAPS  C313 8393   5.652   2.125   8.900  0.4420  0.1035 -0.8304
   87SAPS  H13X 8394   5.737   2.115   8.829  0.8615 -1.9124 -0.0989
   87SAPS  H13Y 8395   5.606   2.225   8.886  1.8943  0.7974 -0.7926
   87SAPS  C314 8396   5.543   2.021   8.861  0.0122 -0.1416  0.5593
   87SAPS  H14X 8397   5.462   2.017   8.936 -0.0013  0.7750  0.6123
   87SAPS  H14Y 8398   5.599   1.925   8.862  1.9857  0.8964 -1.0812
   87SAPS  C315 8399   5.492   2.039   8.716  0.1078 -0.3421  0.6737
   87SAPS  H15X 8400   5.449   2.141   8.718  0.8233 -0.0422  1.3145
   87SAPS  H15Y 8401   5.413   1.961   8.706 -1.8609  1.5522  0.8988
   87SAPS  C316 8402   5.593   2.010   8.605  0.2063  0.0469 -0.6013
   87SAPS  H16X 8403   5.666   2.092   8.619 -0.5214  0.3272  2.2039
   87SAPS  H16Y 8404   5.537   2.029   8.511  0.4722 -1.5792 -1.1118
   87SAPS  C317 8405   5.648   1.870   8.589 -0.0871 -0.4746 -0.8162
   87SAPS  H17X 8406   5.554   1.813   8.605  0.1402 -1.2425 -2.0596
   87SAPS  H17Y 8407   5.722   1.843   8.667  0.8330 -0.1140 -1.5514
   87SAPS  C318 8408   5.689   1.844   8.443 -0.6933  0.2975 -0.0173
   87SAPS  H18X 8409   5.619   1.886   8.368 -1.7913  1.7051  1.7078
   87SAPS  H18Y 8410   5.688   1.734   8.426 -0.9416 -0.2325  2.8196
   87SAPS  H18Z 8411   5.790   1.877   8.413  0.4970 -2.1595  0.9908
   88SAPS     N 8412   5.308   5.909  11.429  0.6726  0.1863 -0.6101
   88SAPS   HN1 8413   5.293   5.830  11.364 -3.2573  0.0954  0.1527
   88SAPS   HN2 8414   5.353   5.987  11.378 -0.7111  1.8597  0.6149
   88SAPS   HN3 8415   5.378   5.893  11.505  0.2352  2.4403  0.3552
   88SAPS   C12 8416   5.186   5.956  11.497 -0.3394 -1.2717  0.8146
   88SAPS  H12A 8417   5.120   5.870  11.491  0.6857 -1.9666 -1.8741
   88SAPS   C13 8418   5.218   5.994  11.641 -0.1421 -1.1888 -0.2968
   88SAPS  O13A 8419   5.338   5.982  11.688  0.0416 -0.0502  0.6054
   88SAPS  O13B 8420   5.125   6.039  11.719 -0.3263 -0.0798  0.0297
   88SAPS   C11 8421   5.120   6.074  11.415  0.1181  0.4621  0.2440
   88SAPS  H11A 8422   5.167   6.169  11.447  2.2606 -0.7990  1.0958
   88SAPS  H11B 8423   5.012   6.078  11.441 -0.5638 -0.0920 -2.2252
   88SAPS     P 8424   5.125   6.167  11.175 -0.1740 -0.3227  0.0262
   88SAPS   O13 8425   4.992   6.233  11.194 -0.2089 -0.3805 -0.0560
   88SAPS   O14 8426   5.240   6.256  11.192 -0.2559  0.0063 -0.6686
   88SAPS   O12 8427   5.138   6.049  11.279  0.1825 -0.6016 -0.5381
   88SAPS   O11 8428   5.141   6.095  11.037 -0.2113 -0.2392 -0.0128
   88SAPS    C1 8429   5.244   6.006  10.992  0.4493 -0.1191  0.5040
   88SAPS    HA 8430   5.319   5.976  11.068  0.2021  0.0454  0.8126
   88SAPS    HB 8431   5.200   5.909  10.960 -2.1847  0.3897  2.2495
   88SAPS    C2 8432   5.317   6.058  10.871 -0.8316  0.7860 -0.4638
   88SAPS    HS 8433   5.387   6.139  10.898 -0.8355  1.0407 -1.1936
   88SAPS   O21 8434   5.214   6.101  10.777 -0.1294  0.1300 -0.9002
   88SAPS   C21 8435   5.213   6.233  10.754 -0.3648  0.7128 -0.2568
   88SAPS   O22 8436   5.292   6.316  10.788  0.3951  0.7321 -0.4928
   88SAPS   C22 8437   5.108   6.255  10.647  0.0172 -0.6358  1.1835
   88SAPS   H2R 8438   5.088   6.159  10.597 -3.0488 -0.0772  1.1351
   88SAPS   H2S 8439   5.019   6.293  10.702 -0.1670  0.2151  0.3264
   88SAPS    C3 8440   5.404   5.945  10.802 -0.2900 -0.9877  0.7160
   88SAPS    HX 8441   5.339   5.866  10.758 -2.1404  1.7632 -1.9393
   88SAPS    HY 8442   5.474   5.906  10.878 -1.7439  0.9319  3.2082
   88SAPS   O31 8443   5.464   6.001  10.690  0.6437  0.1511 -0.0260
   88SAPS   C31 8444   5.572   5.949  10.653  0.0627  0.0434 -0.4656
   88SAPS   O32 8445   5.631   5.852  10.705  0.5290 -0.8174  0.0689
   88SAPS   C32 8446   5.614   6.011  10.517  0.6603 -0.4677  0.6397
   88SAPS   H2X 8447   5.538   6.090  10.500 -2.2386 -3.5230 -2.1635
   88SAPS   H2Y 8448   5.618   5.933  10.438  3.3152  0.1448  0.0810
   88SAPS   C23 8449   5.147   6.369  10.549  0.1585 -0.0283  0.3958
   88SAPS   H3R 8450   5.148   6.467  10.601  0.0851  1.4955 -2.2883
   88SAPS   H3S 8451   5.075   6.371  10.464  0.7877 -3.8529 -0.4158
   88SAPS   C24 8452   5.291   6.354  10.477 -0.4544 -0.1060 -0.7830
   88SAPS   H4R 8453   5.365   6.363  10.559 -0.3528  0.9477 -0.9681
   88SAPS   H4S 8454   5.315   6.430  10.398  1.6624 -1.4008 -1.4678
   88SAPS   C25 8455   5.303   6.215  10.428 -0.2677  0.0301 -0.1430
   88SAPS   H5R 8456   5.313   6.138  10.505 -1.4065 -0.1896 -0.2043
   88SAPS   C26 8457   5.312   6.176  10.299  0.3064  0.2795 -0.7797
   88SAPS   H6R 8458   5.327   6.068  10.282 -0.5972 -0.3129  1.6818
   88SAPS   C27 8459   5.310   6.263  10.174 -0.2121  0.2190  0.3416
   88SAPS   H7R 8460   5.323   6.202  10.083 -0.3119  0.1284  0.3870
   88SAPS   H7S 8461   5.394   6.335  10.171 -2.0209  2.3990 -0.7943
   88SAPS   C28 8462   5.183   6.338  10.147  0.1261 -0.8982 -0.0758
   88SAPS   H8R 8463   5.084   6.308  10.184 -0.6581 -1.8871 -2.7176
   88SAPS   C29 8464   5.178   6.447  10.059 -0.2614  0.1701 -0.2246
   88SAPS   H9R 8465   5.081   6.500  10.055 -0.0252  0.7397  1.0418
   88SAPS  C210 8466   5.288   6.513   9.979 -0.1380 -0.0058 -0.2135
   88SAPS  H10R 8467   5.379   6.515  10.042 -1.7281 -0.0931  2.1972
   88SAPS  H10S 8468   5.265   6.619   9.955  0.9738  0.0486 -1.1185
   88SAPS  C211 8469   5.303   6.431   9.849 -0.1791  0.4054 -0.6525
   88SAPS  H11R 8470   5.374   6.347   9.855  0.4743  0.9012 -1.3287
   88SAPS  C212 8471   5.234   6.452   9.736 -0.5133  0.0927 -0.0220
   88SAPS  H12R 8472   5.240   6.384   9.650  0.7658 -1.0674  0.9476
   88SAPS  C213 8473   5.129   6.563   9.728 -0.0162 -0.5700 -0.1532
   88SAPS  H13R 8474   5.168   6.650   9.671 -2.8404  0.4878 -0.6394
   88SAPS  H13S 8475   5.106   6.604   9.829 -0.3357  0.5343 -0.6587
   88SAPS  C214 8476   4.998   6.532   9.659  0.8492 -0.2512 -0.1969
   88SAPS  H14R 8477   4.924   6.493   9.731 -0.0647  1.2418 -0.2746
   88SAPS  C215 8478   4.979   6.526   9.526  0.0394  0.4166 -0.2848
   88SAPS  H15R 8479   4.875   6.523   9.490  0.0190 -2.3053 -0.2396
   88SAPS  C216 8480   5.092   6.560   9.432 -0.1746  0.5557 -0.4466
   88SAPS  H16R 8481   5.193   6.551   9.479 -1.6852  0.3563  3.0441
   88SAPS  H16S 8482   5.065   6.661   9.394 -0.6553  0.6899  0.2470
   88SAPS  C217 8483   5.094   6.457   9.317  0.2164 -0.1395  0.3228
   88SAPS  H17R 8484   5.082   6.352   9.350 -2.1301  0.0807  0.3305
   88SAPS  H17S 8485   5.188   6.471   9.260  0.7865  1.7657  1.6241
   88SAPS  C218 8486   4.978   6.472   9.213 -1.1386 -0.5745  0.4258
   88SAPS  H18R 8487   4.975   6.576   9.175 -1.7420 -0.1789  1.5316
   88SAPS  H18S 8488   4.879   6.455   9.262 -1.4043  0.0806  0.1255
   88SAPS  C219 8489   5.000   6.381   9.100  0.2616  0.6170  0.6203
   88SAPS  H19R 8490   5.013   6.278   9.142 -1.0644  0.0160 -0.3888
   88SAPS  H19S 8491   5.091   6.398   9.038  0.1499  0.7818  0.5036
   88SAPS  C220 8492   4.880   6.381   9.001 -0.5186  0.0048 -0.1976
   88SAPS  H20R 8493   4.899   6.297   8.931  0.1545  1.1247 -1.3931
   88SAPS  H20S 8494   4.867   6.474   8.942 -0.9955 -0.8220 -1.4344
   88SAPS  H20T 8495   4.784   6.354   9.052 -0.4792 -1.9649 -1.0760
   88SAPS   C33 8496   5.758   6.066  10.512 -0.6870  0.0147 -0.0650
   88SAPS   H3X 8497   5.823   5.989  10.558 -1.0781  1.5087  3.2372
   88SAPS   H3Y 8498   5.745   6.153  10.580 -0.4078  1.9951 -2.4105
   88SAPS   C34 8499   5.810   6.118  10.380 -0.0626 -0.0888 -0.0374
   88SAPS   H4X 8500   5.826   6.032  10.312  0.2537 -1.2546  1.4557
   88SAPS   H4Y 8501   5.909   6.166  10.396 -0.1963  0.5897 -1.1695
   88SAPS   C35 8502   5.725   6.220  10.296  0.3816  0.2727  0.0528
   88SAPS   H5X 8503   5.677   6.291  10.366 -1.1513 -1.9782  1.4244
   88SAPS   H5Y 8504   5.652   6.153  10.245  0.6134 -0.2317  0.3825
   88SAPS   C36 8505   5.800   6.301  10.184 -0.0339  0.4246 -1.1332
   88SAPS   H6X 8506   5.906   6.307  10.215  0.3669  1.6619 -2.6109
   88SAPS   H6Y 8507   5.767   6.407  10.187  1.5053  0.8811  1.4916
   88SAPS   C37 8508   5.818   6.226  10.051  0.2389 -0.0197 -0.2533
   88SAPS   H7X 8509   5.861   6.127  10.078 -1.8165 -1.0817 -0.6665
   88SAPS   H7Y 8510   5.891   6.287   9.993 -1.5098  0.2813 -2.2881
   88SAPS   C38 8511   5.687   6.183   9.976 -0.4921  0.5818 -0.2098
   88SAPS   H8X 8512   5.607   6.260   9.978 -2.7632 -1.5893 -1.6890
   88SAPS   H8Y 8513   5.642   6.089  10.013  0.2008  0.0020 -0.7990
   88SAPS   C39 8514   5.721   6.173   9.829 -0.1585  0.6087 -0.4604
   88SAPS   H9X 8515   5.791   6.087   9.815  1.5391  2.0505 -1.2669
   88SAPS   H9Y 8516   5.790   6.256   9.804 -1.0256  1.7951  0.9303
   88SAPS  C310 8517   5.598   6.177   9.736  0.3293  0.8626  0.3537
   88SAPS  H10X 8518   5.524   6.257   9.759 -0.2355  0.0445  1.4989
   88SAPS  H10Y 8519   5.538   6.085   9.754  2.0632 -0.5335 -0.6519
   88SAPS  C311 8520   5.622   6.180   9.583 -0.0862  0.1104 -0.7020
   88SAPS  H11X 8521   5.691   6.097   9.557 -0.3928 -0.3178 -0.1694
   88SAPS  H11Y 8522   5.669   6.278   9.558 -1.2829  0.4577 -1.6839
   88SAPS  C312 8523   5.491   6.179   9.506 -0.1939  0.5347  1.0766
   88SAPS  H12X 8524   5.437   6.264   9.552  0.2928  1.3955  0.0962
   88SAPS  H12Y 8525   5.434   6.084   9.497 -0.7840  0.9636  0.1324
   88SAPS  C313 8526   5.527   6.221   9.356 -1.0325  0.0809  0.8393
   88SAPS  H13X 8527   5.604   6.148   9.325 -0.6401  0.7426  0.2092
   88SAPS  H13Y 8528   5.567   6.325   9.358 -1.4278  0.3907 -2.2985
   88SAPS  C314 8529   5.414   6.218   9.259 -0.4104  0.0820  0.3265
   88SAPS  H14X 8530   5.322   6.235   9.318  0.5282 -1.0669  2.2306
   88SAPS  H14Y 8531   5.402   6.115   9.220  0.3325  0.1574 -0.1154
   88SAPS  C315 8532   5.415   6.312   9.138  0.0014  0.3994  0.1159
   88SAPS  H15X 8533   5.428   6.414   9.180 -0.9256  0.9989 -0.9940
   88SAPS  H15Y 8534   5.315   6.307   9.090 -0.2688  0.0163  0.7028
   88SAPS  C316 8535   5.526   6.281   9.042 -0.0832 -0.4262 -0.4252
   88SAPS  H16X 8536   5.494   6.182   9.005 -0.5476 -0.3942 -0.1259
   88SAPS  H16Y 8537   5.620   6.271   9.099  1.1552 -0.9361 -2.4784
   88SAPS  C317 8538   5.551   6.379   8.929 -0.3885 -0.1605  0.4823
   88SAPS  H17X 8539   5.565   6.473   8.987  1.9292 -1.0369  1.4451
   88SAPS  H17Y 8540   5.461   6.381   8.864  0.7125  1.2356 -1.0719
   88SAPS  C318 8541   5.675   6.349   8.837  0.5012  0.1300 -0.1126
   88SAPS  H18X 8542   5.657   6.250   8.790 -0.0220 -2.1148  4.2720
   88SAPS  H18Y 8543   5.761   6.353   8.908  1.1430 -1.3422 -0.7738
   88SAPS  H18Z 8544   5.687   6.424   8.756  2.9787 -1.2349 -1.1209
   89SAPS     N 8545   6.405   2.635  10.745 -0.1847  0.3449  0.1328
   89SAPS   HN1 8546   6.364   2.547  10.707  3.9305 -1.2461 -1.2108
   89SAPS   HN2 8547   6.373   2.716  10.689 -1.2730 -1.2744 -1.7132
   89SAPS   HN3 8548   6.503   2.626  10.712 -1.2926 -2.1535 -2.9666
   89SAPS   C12 8549   6.398   2.654  10.888 -0.2746 -0.1867 -0.2341
   89SAPS  H12A 8550   6.451   2.743  10.921  0.8545 -1.1000  0.4623
   89SAPS   C13 8551   6.256   2.669  10.941  0.9434 -0.1397 -0.6776
   89SAPS  O13A 8552   6.151   2.651  10.874 -0.4084  0.1790 -0.1883
   89SAPS  O13B 8553   6.247   2.663  11.070  0.6106 -0.0918 -0.1285
   89SAPS   C11 8554   6.462   2.530  10.957  0.9215 -0.5880 -0.0675
   89SAPS  H11A 8555   6.409   2.437  10.925 -2.2379  0.9323  0.4060
   89SAPS  H11B 8556   6.447   2.527  11.067 -0.8424 -0.7509 -0.2824
   89SAPS     P 8557   6.687   2.385  10.959 -0.4749  0.1661  0.0229
   89SAPS   O13 8558   6.745   2.384  11.094 -0.6852  0.0397  0.4904
   89SAPS   O14 8559   6.599   2.270  10.923  0.2907  0.0369 -0.2560
   89SAPS   O12 8560   6.603   2.519  10.925 -0.4482  0.3533  0.1764
   89SAPS   O11 8561   6.797   2.401  10.846  0.0629  0.3959  0.4368
   89SAPS    C1 8562   6.862   2.521  10.813 -0.3009 -0.2850  0.6943
   89SAPS    HA 8563   6.790   2.605  10.818 -1.7736 -1.4760  0.3597
   89SAPS    HB 8564   6.937   2.553  10.888  0.2473  1.4869 -0.5421
   89SAPS    C2 8565   6.923   2.522  10.672  0.2212  0.5169 -0.1694
   89SAPS    HS 8566   6.938   2.624  10.629  0.1546  0.8262  0.5217
   89SAPS   O21 8567   6.844   2.447  10.575 -0.0039 -0.1566 -0.3796
   89SAPS   C21 8568   6.732   2.509  10.538  0.0862 -0.1725 -0.5777
   89SAPS   O22 8569   6.677   2.602  10.593  0.1917  0.1662 -0.0783
   89SAPS   C22 8570   6.692   2.455  10.409  0.1119 -0.7528  0.1228
   89SAPS   H2R 8571   6.785   2.445  10.349 -0.0803 -0.8892 -0.1542
   89SAPS   H2S 8572   6.651   2.353  10.423 -3.2161  0.2458 -1.3386
   89SAPS    C3 8573   7.069   2.468  10.693  0.3958  0.0554  0.1392
   89SAPS    HX 8574   7.073   2.388  10.769  0.8446  0.2621  0.3406
   89SAPS    HY 8575   7.127   2.553  10.736  0.3372 -0.0800  0.4870
   89SAPS   O31 8576   7.123   2.416  10.565  0.3383  0.4534 -0.4019
   89SAPS   C31 8577   7.258   2.405  10.557  0.1639 -0.6014  0.3427
   89SAPS   O32 8578   7.336   2.447  10.645  0.3808  0.3402  0.1035
   89SAPS   C32 8579   7.300   2.339  10.425 -0.4160  0.4933  0.6743
   89SAPS   H2X 8580   7.220   2.266  10.398 -1.9579  2.4311 -0.2027
   89SAPS   H2Y 8581   7.394   2.280  10.424 -0.3412  0.5209 -2.5428
   89SAPS   C23 8582   6.590   2.542  10.336  0.2591  0.1708 -0.2379
   89SAPS   H3R 8583   6.646   2.632  10.303  2.5384 -0.7069  1.0145
   89SAPS   H3S 8584   6.506   2.569  10.403 -0.5387 -0.4577 -0.9707
   89SAPS   C24 8585   6.531   2.463  10.222 -0.5728 -0.0644  0.0983
   89SAPS   H4R 8586   6.472   2.382  10.269 -1.1758 -0.8367 -1.9196
   89SAPS   H4S 8587   6.616   2.426  10.160 -1.6382  0.7558 -1.9282
   89SAPS   C25 8588   6.453   2.557  10.135 -0.0615 -0.9743 -0.0343
   89SAPS   H5R 8589   6.436   2.659  10.173  0.3925 -0.1036 -2.0353
   89SAPS   C26 8590   6.445   2.545  10.002 -0.7507  0.2754 -0.7466
   89SAPS   H6R 8591   6.423   2.634   9.941 -0.6089  0.5064 -0.4627
   89SAPS   C27 8592   6.497   2.429   9.910  0.2285 -0.0223 -0.2370
   89SAPS   H7R 8593   6.554   2.359   9.975 -0.2010 -0.3399 -0.1976
   89SAPS   H7S 8594   6.576   2.474   9.847 -0.3654  0.9763 -0.2972
   89SAPS   C28 8595   6.390   2.370   9.824  0.2314 -0.0046  0.1427
   89SAPS   H8R 8596   6.313   2.309   9.875  0.5723 -0.1138  0.5316
   89SAPS   C29 8597   6.390   2.392   9.688  0.2436 -0.4404 -0.0387
   89SAPS   H9R 8598   6.298   2.365   9.633  0.0161  0.1312  0.0524
   89SAPS  C210 8599   6.483   2.482   9.613 -0.6677  0.2139  0.6728
   89SAPS  H10R 8600   6.571   2.427   9.574 -0.8120 -0.7940  1.7022
   89SAPS  H10S 8601   6.530   2.568   9.667  0.2358 -0.3905  0.8756
   89SAPS  C211 8602   6.410   2.553   9.496 -0.4649  0.1639 -0.5712
   89SAPS  H11R 8603   6.355   2.634   9.547 -0.1786  0.4767 -0.7548
   89SAPS  C212 8604   6.407   2.530   9.367  0.0950 -0.7095  0.7807
   89SAPS  H12R 8605   6.352   2.600   9.303  1.3941 -0.6487 -0.3038
   89SAPS  C213 8606   6.479   2.418   9.293 -0.5268  0.3554 -0.6464
   89SAPS  H13R 8607   6.512   2.337   9.361 -2.7758 -0.2831 -0.2495
   89SAPS  H13S 8608   6.576   2.459   9.257  0.1965  0.7898  1.6538
   89SAPS  C214 8609   6.406   2.357   9.171  0.3968  0.2125  0.4173
   89SAPS  H14R 8610   6.299   2.382   9.166  0.4790  0.4273 -0.5316
   89SAPS  C215 8611   6.452   2.271   9.076 -0.3100 -0.2293  0.3972
   89SAPS  H15R 8612   6.383   2.248   8.993  0.8761 -0.1270 -0.6396
   89SAPS  C216 8613   6.592   2.219   9.078 -0.5477  0.3606  0.0824
   89SAPS  H16R 8614   6.613   2.110   9.083  2.7340  0.9303  3.1753
   89SAPS  H16S 8615   6.656   2.248   9.164  0.9425 -1.4749 -0.3272
   89SAPS  C217 8616   6.671   2.272   8.948  0.3954  0.1257  0.3016
   89SAPS  H17R 8617   6.773   2.229   8.954 -0.4091 -2.2255 -1.3425
   89SAPS  H17S 8618   6.675   2.382   8.959 -1.9334  0.3504 -0.5715
   89SAPS  C218 8619   6.609   2.227   8.815  0.2969 -0.3793  0.1626
   89SAPS  H18R 8620   6.508   2.274   8.811  1.0487  1.4052  0.8808
   89SAPS  H18S 8621   6.593   2.117   8.811  0.7601 -0.4387 -0.0365
   89SAPS  C219 8622   6.696   2.256   8.691 -0.2767  0.4241 -0.5967
   89SAPS  H19R 8623   6.783   2.187   8.697 -1.2240 -0.7690 -0.0492
   89SAPS  H19S 8624   6.708   2.364   8.669 -3.1693  1.1170  0.7906
   89SAPS  C220 8625   6.622   2.208   8.565 -0.9223 -0.2941 -0.1480
   89SAPS  H20R 8626   6.611   2.100   8.544  1.0685 -0.4607 -0.5489
   89SAPS  H20S 8627   6.673   2.249   8.476 -0.6931 -0.5056 -0.1151
   89SAPS  H20T 8628   6.527   2.264   8.551 -0.7199 -0.5846 -3.2174
   89SAPS   C33 8629   7.299   2.442  10.306  0.3451 -0.2911 -0.7007
   89SAPS   H3X 8630   7.368   2.526  10.331  1.0642 -0.7972 -0.9641
   89SAPS   H3Y 8631   7.196   2.483  10.292  0.4673  0.8284  1.3464
   89SAPS   C34 8632   7.342   2.373  10.174 -0.5327 -0.0767  0.1183
   89SAPS   H4X 8633   7.278   2.283  10.164 -1.1297  0.3801 -0.3265
   89SAPS   H4Y 8634   7.448   2.343  10.186  0.4630  2.3233 -1.5902
   89SAPS   C35 8635   7.346   2.462  10.047  0.6437 -0.0530 -0.4136
   89SAPS   H5X 8636   7.414   2.549  10.054 -0.4337  0.6610  2.2009
   89SAPS   H5Y 8637   7.241   2.492  10.025  0.1156 -2.4569 -1.5270
   89SAPS   C36 8638   7.363   2.375   9.918 -0.1807  0.0334 -0.7005
   89SAPS   H6X 8639   7.289   2.292   9.915  0.3804 -0.5072  0.0200
   89SAPS   H6Y 8640   7.464   2.329   9.931 -0.1584  0.0642 -0.7595
   89SAPS   C37 8641   7.354   2.452   9.790  0.4111  0.0988 -0.2400
   89SAPS   H7X 8642   7.396   2.554   9.809  0.2122  0.5278 -1.9114
   89SAPS   H7Y 8643   7.245   2.473   9.779  0.5889  1.8935  1.0002
   89SAPS   C38 8644   7.423   2.385   9.667 -0.7937  0.4739  0.0044
   89SAPS   H8X 8645   7.419   2.274   9.673 -2.2594  0.3168 -2.4808
   89SAPS   H8Y 8646   7.531   2.408   9.661 -0.0033 -2.9441 -1.7663
   89SAPS   C39 8647   7.364   2.442   9.533 -1.1456  0.0082  0.4096
   89SAPS   H9X 8648   7.349   2.552   9.530  0.6236  0.4310  3.5169
   89SAPS   H9Y 8649   7.266   2.391   9.517 -2.2027  2.3792 -1.3728
   89SAPS  C310 8650   7.465   2.401   9.422 -0.4127 -0.0700  0.0064
   89SAPS  H10X 8651   7.456   2.291   9.407  1.2795 -0.0860 -1.1641
   89SAPS  H10Y 8652   7.570   2.432   9.438 -0.0594 -1.5480  0.6558
   89SAPS  C311 8653   7.440   2.472   9.284  0.2960  0.7986 -0.3547
   89SAPS  H11X 8654   7.485   2.573   9.285  0.7562  0.6112  1.7499
   89SAPS  H11Y 8655   7.330   2.490   9.273  0.2385  0.9505  0.4235
   89SAPS  C312 8656   7.478   2.402   9.151  0.6410 -0.4246  0.2427
   89SAPS  H12X 8657   7.429   2.302   9.155  0.0930 -0.1662  0.1070
   89SAPS  H12Y 8658   7.587   2.381   9.157  0.8169  0.7471  2.4617
   89SAPS  C313 8659   7.439   2.487   9.034  0.4618 -0.1999 -0.1516
   89SAPS  H13X 8660   7.488   2.587   9.037 -2.7396  1.4736  0.8096
   89SAPS  H13Y 8661   7.332   2.516   9.035  0.9689  1.8922 -1.1141
   89SAPS  C314 8662   7.468   2.394   8.915  0.4129 -0.8640  0.6121
   89SAPS  H14X 8663   7.393   2.312   8.927 -1.4254  0.6753  0.2128
   89SAPS  H14Y 8664   7.578   2.381   8.921  0.5826  0.4404  0.5751
   89SAPS  C315 8665   7.420   2.453   8.776 -0.4287  0.1535 -0.5452
   89SAPS  H15X 8666   7.502   2.521   8.744  0.2346 -0.2392  0.2852
   89SAPS  H15Y 8667   7.333   2.522   8.779  0.1931  0.9209  0.8550
   89SAPS  C316 8668   7.386   2.336   8.683 -0.3072  0.4162 -0.0187
   89SAPS  H16X 8669   7.283   2.297   8.698 -0.0173 -1.5359 -2.3006
   89SAPS  H16Y 8670   7.451   2.251   8.715 -0.3134  0.3246 -0.2447
   89SAPS  C317 8671   7.413   2.364   8.532 -0.6742  0.2375 -0.0693
   89SAPS  H17X 8672   7.518   2.397   8.517  0.2002 -1.1854  2.3340
   89SAPS  H17Y 8673   7.351   2.451   8.500 -0.7850  0.0347 -0.4144
   89SAPS  C318 8674   7.379   2.240   8.442 -0.0942  0.1022  0.6629
   89SAPS  H18X 8675   7.269   2.223   8.447 -0.4720  2.3135  0.6837
   89SAPS  H18Y 8676   7.425   2.148   8.484  1.2519  0.2578 -0.4057
   89SAPS  H18Z 8677   7.414   2.262   8.338  0.8503  0.2006  0.9928
   90SAPS     N 8678   1.505   4.723  11.144  0.3438  0.7934 -0.2962
   90SAPS   HN1 8679   1.468   4.797  11.081 -4.3540 -0.3939  0.6979
   90SAPS   HN2 8680   1.426   4.655  11.154 -1.4422  2.7724 -0.2338
   90SAPS   HN3 8681   1.521   4.764  11.238  3.4152 -1.5297  0.3621
   90SAPS   C12 8682   1.631   4.656  11.100  0.4920 -0.7571 -0.2550
   90SAPS  H12A 8683   1.714   4.725  11.102  1.8369 -2.3233  0.4184
   90SAPS   C13 8684   1.679   4.539  11.194  0.2771 -0.0406 -0.8891
   90SAPS  O13A 8685   1.610   4.491  11.290  0.3332 -0.4535 -0.9763
   90SAPS  O13B 8686   1.780   4.480  11.160 -0.4887 -0.1124 -0.3370
   90SAPS   C11 8687   1.614   4.585  10.965 -0.5539  0.1124 -0.3752
   90SAPS  H11A 8688   1.542   4.501  10.973 -2.8569  2.1112  1.1184
   90SAPS  H11B 8689   1.714   4.559  10.922  0.3210 -0.2873  1.7908
   90SAPS     P 8690   1.510   4.620  10.730  0.3541 -0.3605 -0.4915
   90SAPS   O13 8691   1.407   4.516  10.753 -0.4288 -0.0019 -0.2234
   90SAPS   O14 8692   1.466   4.741  10.661  0.0931  0.3536 -0.3246
   90SAPS   O12 8693   1.566   4.675  10.863 -0.3064  0.6761 -0.8541
   90SAPS   O11 8694   1.619   4.551  10.649 -0.1365  0.7810  0.6254
   90SAPS    C1 8695   1.723   4.615  10.573  1.2690  0.1901  0.9049
   90SAPS    HA 8696   1.767   4.706  10.619  0.7647  0.6020  0.5898
   90SAPS    HB 8697   1.796   4.538  10.542  2.2411  2.2354 -2.4355
   90SAPS    C2 8698   1.672   4.655  10.430 -0.1394 -0.3164  0.0724
   90SAPS    HS 8699   1.585   4.722  10.450  0.5084  0.2100  1.2457
   90SAPS   O21 8700   1.650   4.532  10.356 -0.2434 -0.1284  0.2555
   90SAPS   C21 8701   1.527   4.510  10.322 -0.0289  0.3671  0.3256
   90SAPS   O22 8702   1.441   4.591  10.335  0.5118 -0.7067 -0.2593
   90SAPS   C22 8703   1.508   4.358  10.280 -0.3206  0.2984  0.0658
   90SAPS   H2R 8704   1.598   4.311  10.236 -0.2321 -0.0996  0.6603
   90SAPS   H2S 8705   1.491   4.314  10.380  0.5251  2.4940  1.2422
   90SAPS    C3 8706   1.783   4.732  10.349  0.0074  0.0358 -0.1973
   90SAPS    HX 8707   1.879   4.681  10.370  0.1725  0.0187 -0.9722
   90SAPS    HY 8708   1.797   4.831  10.398  0.4064  0.6141 -1.4244
   90SAPS   O31 8709   1.753   4.752  10.212 -0.4420 -0.4419 -0.0862
   90SAPS   C31 8710   1.813   4.677  10.125  0.0862  0.2846 -0.0064
   90SAPS   O32 8711   1.916   4.612  10.150 -0.2468  0.6375 -0.4898
   90SAPS   C32 8712   1.749   4.703   9.990  0.1957  0.0465  0.8136
   90SAPS   H2X 8713   1.720   4.810   9.982 -1.6058 -0.4936 -0.5687
   90SAPS   H2Y 8714   1.654   4.645   9.986 -0.2673  0.8553 -0.0885
   90SAPS   C23 8715   1.383   4.344  10.190  0.0855 -0.9241  0.2941
   90SAPS   H3R 8716   1.297   4.400  10.232 -0.5699 -1.8808  0.2757
   90SAPS   H3S 8717   1.342   4.241  10.186 -0.4928 -0.7219  0.7950
   90SAPS   C24 8718   1.405   4.398  10.044  0.4742  0.3628  0.3462
   90SAPS   H4R 8719   1.462   4.494  10.046 -1.0049  1.2720  0.7112
   90SAPS   H4S 8720   1.303   4.424  10.006  0.5848  0.5311  0.1627
   90SAPS   C25 8721   1.469   4.293   9.967 -0.6240  0.1286  0.1591
   90SAPS   H5R 8722   1.491   4.205  10.028 -1.8860  0.4288  1.0834
   90SAPS   C26 8723   1.513   4.288   9.843  0.4833 -0.6955 -0.2875
   90SAPS   H6R 8724   1.566   4.202   9.800  1.0605  0.9484 -3.1870
   90SAPS   C27 8725   1.493   4.398   9.738  0.3368  0.2817 -0.2076
   90SAPS   H7R 8726   1.581   4.402   9.670  0.6986  0.3075  0.2629
   90SAPS   H7S 8727   1.485   4.499   9.782 -1.3018  0.0110  0.1782
   90SAPS   C28 8728   1.355   4.374   9.673 -0.3480 -0.2569 -0.0798
   90SAPS   H8R 8729   1.275   4.369   9.748  1.3420 -0.9508  1.7973
   90SAPS   C29 8730   1.339   4.373   9.540 -0.1890  0.2403  0.2434
   90SAPS   H9R 8731   1.235   4.375   9.505 -0.2712  2.4116  0.4537
   90SAPS  C210 8732   1.447   4.410   9.437  0.0604  0.4369  0.2502
   90SAPS  H10R 8733   1.536   4.349   9.464  0.3635  0.5829 -0.4008
   90SAPS  H10S 8734   1.482   4.515   9.435  1.1509  0.1696 -4.0983
   90SAPS  C211 8735   1.394   4.388   9.293  0.0474 -0.0809 -0.7382
   90SAPS  H11R 8736   1.336   4.472   9.252  0.1425  0.3937  0.0732
   90SAPS  C212 8737   1.421   4.280   9.221  0.0929 -0.7992 -0.1571
   90SAPS  H12R 8738   1.373   4.272   9.122 -1.7090  1.0243  0.5000
   90SAPS  C213 8739   1.501   4.164   9.268  0.0267 -0.1987  0.3007
   90SAPS  H13R 8740   1.436   4.086   9.314 -2.0520 -0.2450 -2.4805
   90SAPS  H13S 8741   1.568   4.185   9.354 -1.2091 -0.4812  1.3571
   90SAPS  C214 8742   1.569   4.099   9.153  0.0376  0.6710  0.3770
   90SAPS  H14R 8743   1.677   4.121   9.149  0.0949  0.4307  0.6119
   90SAPS  C215 8744   1.515   4.011   9.065 -0.0260  0.0576 -0.4411
   90SAPS  H15R 8745   1.584   3.966   8.992  1.9273  1.0951  0.6762
   90SAPS  C216 8746   1.370   3.962   9.054  0.4272  0.5197 -0.0835
   90SAPS  H16R 8747   1.307   3.974   9.145  2.6991 -0.6648  1.7376
   90SAPS  H16S 8748   1.378   3.851   9.055 -0.4096  0.3042 -3.5629
   90SAPS  C217 8749   1.287   4.010   8.929  0.2150 -0.4663 -0.1067
   90SAPS  H17R 8750   1.256   4.116   8.942  0.6883 -0.1016 -1.6934
   90SAPS  H17S 8751   1.194   3.951   8.944  0.5829 -1.0978 -0.2971
   90SAPS  C218 8752   1.345   3.991   8.794 -0.4060 -0.5847 -0.1303
   90SAPS  H18R 8753   1.368   3.886   8.766 -0.9216 -0.7471  0.0350
   90SAPS  H18S 8754   1.452   4.023   8.796 -0.5683 -0.0160  1.7335
   90SAPS  C219 8755   1.268   4.059   8.685 -0.2742 -0.4409  0.0567
   90SAPS  H19R 8756   1.232   4.156   8.725 -0.3338  0.0922 -1.2741
   90SAPS  H19S 8757   1.185   3.986   8.671 -0.7776 -0.1855  1.5418
   90SAPS  C220 8758   1.350   4.072   8.557 -0.1768 -0.0499 -0.1349
   90SAPS  H20R 8759   1.457   4.100   8.572  0.3417  0.4248 -3.7968
   90SAPS  H20S 8760   1.309   4.150   8.488 -2.7261 -1.2493 -0.1006
   90SAPS  H20T 8761   1.331   3.978   8.501 -0.4760 -1.2414  1.8925
   90SAPS   C33 8762   1.828   4.659   9.864  0.1244  0.2790 -0.4849
   90SAPS   H3X 8763   1.853   4.551   9.858 -1.0251 -0.0316 -0.0177
   90SAPS   H3Y 8764   1.928   4.699   9.891  0.2770 -0.1054 -0.4791
   90SAPS   C34 8765   1.768   4.724   9.738  0.3524  0.2064  0.2280
   90SAPS   H4X 8766   1.777   4.833   9.758  0.3710 -0.0227  1.6115
   90SAPS   H4Y 8767   1.661   4.696   9.731  0.4294  0.1075 -0.6061
   90SAPS   C35 8768   1.856   4.696   9.616  0.7819  0.3801 -0.1304
   90SAPS   H5X 8769   1.881   4.590   9.635  1.4931  0.8257  1.5497
   90SAPS   H5Y 8770   1.953   4.748   9.630  0.9277  0.0558  0.0567
   90SAPS   C36 8771   1.792   4.734   9.485  0.1836 -0.1410 -0.0082
   90SAPS   H6X 8772   1.791   4.844   9.473 -2.5634 -0.2030 -1.3656
   90SAPS   H6Y 8773   1.686   4.701   9.498 -0.3509  1.4890  0.0008
   90SAPS   C37 8774   1.858   4.672   9.357 -0.4794  0.3883 -0.1318
   90SAPS   H7X 8775   1.891   4.567   9.373  0.0640  0.4438 -0.8724
   90SAPS   H7Y 8776   1.956   4.719   9.337 -0.9017  1.0310 -0.7331
   90SAPS   C38 8777   1.781   4.686   9.225 -0.1996  0.0240 -0.0496
   90SAPS   H8X 8778   1.761   4.790   9.192 -2.9175 -0.5328 -0.4103
   90SAPS   H8Y 8779   1.681   4.648   9.253  0.5158 -0.4511  2.0191
   90SAPS   C39 8780   1.833   4.597   9.114 -0.3089  0.4129 -0.2416
   90SAPS   H9X 8781   1.839   4.491   9.145  0.4131  0.6075  0.3136
   90SAPS   H9Y 8782   1.933   4.632   9.081 -0.3383  0.7515  0.0317
   90SAPS  C310 8783   1.744   4.596   8.995 -0.0452  1.1547  1.2066
   90SAPS  H10X 8784   1.808   4.579   8.905 -2.3233 -0.5383 -0.2197
   90SAPS  H10Y 8785   1.695   4.693   8.972 -0.6356  0.8243  1.0343
   90SAPS  C311 8786   1.622   4.494   8.992 -0.0064 -0.7331 -0.1275
   90SAPS  H11X 8787   1.557   4.527   9.075  1.9466 -1.9200  1.9807
   90SAPS  H11Y 8788   1.651   4.388   9.012 -0.1075 -0.8795 -0.7281
   90SAPS  C312 8789   1.535   4.504   8.872 -0.7075 -0.2495 -0.5441
   90SAPS  H12X 8790   1.532   4.610   8.839  2.3035 -0.5263 -2.0640
   90SAPS  H12Y 8791   1.430   4.482   8.900 -0.9930 -1.3310 -2.2903
   90SAPS  C313 8792   1.579   4.413   8.759  0.0260  0.2410  0.1240
   90SAPS  H13X 8793   1.526   4.317   8.773 -0.4713  0.7449  2.0981
   90SAPS  H13Y 8794   1.688   4.391   8.755  0.0476  0.3622  0.0329
   90SAPS  C314 8795   1.542   4.463   8.616  0.1774  0.3383 -0.9715
   90SAPS  H14X 8796   1.583   4.566   8.607 -1.1457  0.9495 -0.2930
   90SAPS  H14Y 8797   1.431   4.468   8.603  0.0534 -0.3531 -0.2761
   90SAPS  C315 8798   1.593   4.375   8.502 -0.4141 -0.5687 -0.5604
   90SAPS  H15X 8799   1.570   4.267   8.514  1.8048 -0.9158  1.3931
   90SAPS  H15Y 8800   1.703   4.372   8.516 -0.4010 -1.5925 -0.7822
   90SAPS  C316 8801   1.557   4.418   8.357  0.2088 -0.0296  0.6535
   90SAPS  H16X 8802   1.600   4.518   8.335 -0.6859  0.2240 -0.0150
   90SAPS  H16Y 8803   1.447   4.423   8.339  0.6907  1.6767 -2.5050
   90SAPS  C317 8804   1.602   4.316   8.248 -0.1201  0.8458  0.0683
   90SAPS  H17X 8805   1.552   4.220   8.274  0.4893  0.1744 -1.1716
   90SAPS  H17Y 8806   1.708   4.288   8.260 -0.2601  0.0546 -0.4753
   90SAPS  C318 8807   1.570   4.359   8.104  0.1676 -0.4315  0.4936
   90SAPS  H18X 8808   1.461   4.366   8.085  0.2203 -0.5098  0.1568
   90SAPS  H18Y 8809   1.619   4.291   8.031 -1.1484 -1.8009  0.8255
   90SAPS  H18Z 8810   1.614   4.460   8.089 -0.0078 -0.2620  1.0945
   91SAPS     N 8811   6.134   6.425   5.890  0.2694 -0.3387  0.1717
   91SAPS   HN1 8812   6.090   6.478   5.812  0.8992  0.3387  0.2756
   91SAPS   HN2 8813   6.160   6.494   5.962  1.1592  0.4313 -0.8563
   91SAPS   HN3 8814   6.224   6.395   5.847  0.3450  0.6865 -0.4011
   91SAPS   C12 8815   6.072   6.310   5.948  0.1891 -0.7592  0.1417
   91SAPS  H12A 8816   5.989   6.296   5.880  0.5805 -0.5230 -0.3862
   91SAPS   C13 8817   6.157   6.185   5.952  0.3595  0.4821 -0.0113
   91SAPS  O13A 8818   6.275   6.189   5.931 -0.1146  0.2101 -0.5000
   91SAPS  O13B 8819   6.096   6.078   5.987 -0.2630  0.2135 -0.0277
   91SAPS   C11 8820   6.019   6.339   6.090  0.3189  0.2521  0.8978
   91SAPS  H11A 8821   6.101   6.375   6.157  0.0060  0.5500  1.1222
   91SAPS  H11B 8822   5.983   6.248   6.142 -0.6483 -0.4528 -0.9400
   91SAPS     P 8823   5.872   6.549   6.153 -0.1635  0.0321  0.3004
   91SAPS   O13 8824   5.932   6.649   6.063  0.6652  0.6233 -0.2443
   91SAPS   O14 8825   5.725   6.564   6.176  0.3183  0.4167  0.2652
   91SAPS   O12 8826   5.890   6.411   6.091 -0.6474  0.4766 -0.1111
   91SAPS   O11 8827   5.939   6.548   6.296 -0.2772 -0.2343 -0.0134
   91SAPS    C1 8828   5.880   6.481   6.410 -0.1267  0.3572  0.7950
   91SAPS    HA 8829   5.819   6.395   6.375 -2.6300  1.9440  1.0169
   91SAPS    HB 8830   5.963   6.430   6.464  0.4150 -1.0045 -1.1861
   91SAPS    C2 8831   5.787   6.579   6.495 -0.3956  0.4466  0.2948
   91SAPS    HS 8832   5.735   6.640   6.418 -1.2342  0.4604  0.8571
   91SAPS   O21 8833   5.887   6.648   6.571  0.5281  0.0856  0.2621
   91SAPS   C21 8834   5.857   6.769   6.606  0.5856  0.7380 -0.4173
   91SAPS   O22 8835   5.767   6.843   6.566  0.1762 -0.1278 -0.2398
   91SAPS   C22 8836   5.959   6.819   6.707 -0.5271  0.2655 -0.2120
   91SAPS   H2R 8837   5.945   6.928   6.724  2.0127  0.7021 -0.5380
   91SAPS   H2S 8838   5.939   6.758   6.797  2.0329 -0.8842 -0.3417
   91SAPS    C3 8839   5.690   6.509   6.587 -0.0787 -0.2019  0.2091
   91SAPS    HX 8840   5.630   6.441   6.523  0.1091 -0.5603  0.4172
   91SAPS    HY 8841   5.619   6.580   6.635  0.6336  0.1826  0.7173
   91SAPS   O31 8842   5.769   6.430   6.681 -0.0031 -0.1371 -0.3799
   91SAPS   C31 8843   5.767   6.464   6.807  0.0098  0.1723  0.0461
   91SAPS   O32 8844   5.711   6.559   6.859 -0.3708  0.3245 -0.0903
   91SAPS   C32 8845   5.849   6.358   6.873  0.3336 -0.3754  0.1488
   91SAPS   H2X 8846   5.958   6.362   6.850 -0.1661  0.1303 -2.5212
   91SAPS   H2Y 8847   5.818   6.261   6.828 -2.1031  1.0806 -1.5183
   91SAPS   C23 8848   6.106   6.800   6.655  0.5694 -0.1493  0.4050
   91SAPS   H3R 8849   6.117   6.856   6.561  2.3735  1.0384  1.2678
   91SAPS   H3S 8850   6.133   6.694   6.633  0.5748  0.2140 -1.3999
   91SAPS   C24 8851   6.213   6.844   6.756 -0.4094 -0.4430  0.2735
   91SAPS   H4R 8852   6.199   6.953   6.769 -1.0731 -0.6300  1.1901
   91SAPS   H4S 8853   6.310   6.831   6.702 -0.4284  3.7705 -1.1613
   91SAPS   C25 8854   6.208   6.769   6.890  0.1948  0.2677  0.0513
   91SAPS   H5R 8855   6.258   6.671   6.900  0.8981  0.5815 -0.3183
   91SAPS   C26 8856   6.151   6.814   7.004  0.5973 -0.4628 -0.1463
   91SAPS   H6R 8857   6.157   6.757   7.098 -1.7073 -0.5621 -0.0036
   91SAPS   C27 8858   6.080   6.945   7.015  0.8412 -0.5380 -0.0903
   91SAPS   H7R 8859   6.062   6.993   6.917 -0.6964 -1.5682 -0.3501
   91SAPS   H7S 8860   6.142   7.021   7.068  0.0146 -0.1830  0.3886
   91SAPS   C28 8861   5.946   6.920   7.089  0.3894 -0.6910 -0.1203
   91SAPS   H8R 8862   5.857   6.905   7.025  1.4153 -0.7958 -1.5886
   91SAPS   C29 8863   5.922   6.925   7.220 -0.4864  0.5063 -0.5591
   91SAPS   H9R 8864   5.821   6.890   7.248  0.2703 -2.2372 -0.9406
   91SAPS  C210 8865   6.018   6.934   7.333  0.6813  0.1785 -0.2123
   91SAPS  H10R 8866   6.109   6.881   7.299 -1.0316 -2.1200 -1.5324
   91SAPS  H10S 8867   5.975   6.864   7.407  1.1139  0.1386  0.0016
   91SAPS  C211 8868   6.035   7.071   7.402 -0.4336 -0.7438  0.3067
   91SAPS  H11R 8869   6.071   7.153   7.337  0.4444 -1.4308 -0.0927
   91SAPS  C212 8870   6.010   7.097   7.535  0.1247 -0.2731  0.5361
   91SAPS  H12R 8871   6.056   7.191   7.567  1.8357 -0.0658 -2.2069
   91SAPS  C213 8872   5.960   6.998   7.641  0.0136 -0.5438  0.1179
   91SAPS  H13R 8873   6.021   6.904   7.639 -1.6847 -1.7027  0.4091
   91SAPS  H13S 8874   5.865   6.951   7.607  0.6465 -2.2621  0.6151
   91SAPS  C214 8875   5.939   7.058   7.776  0.3397  0.3487  0.4934
   91SAPS  H14R 8876   5.839   7.103   7.787 -0.2222 -0.4222 -1.1600
   91SAPS  C215 8877   6.024   7.048   7.878  0.5131 -0.3187 -0.7922
   91SAPS  H15R 8878   6.002   7.095   7.975 -0.2356 -0.3786 -0.9235
   91SAPS  C216 8879   6.162   6.987   7.874 -0.6968  0.4635 -0.5591
   91SAPS  H16R 8880   6.236   7.069   7.892  0.2995 -0.6788  0.7784
   91SAPS  H16S 8881   6.191   6.946   7.775  1.3503  0.5455 -0.0508
   91SAPS  C217 8882   6.184   6.883   7.989  0.6037 -0.2987  0.5398
   91SAPS  H17R 8883   6.290   6.851   7.984  0.5711 -0.3112 -0.2298
   91SAPS  H17S 8884   6.115   6.797   7.971 -2.0090  1.7775  0.1240
   91SAPS  C218 8885   6.154   6.929   8.133  0.6502  0.6853  0.3592
   91SAPS  H18R 8886   6.195   6.846   8.195  1.0610 -1.3600 -2.4956
   91SAPS  H18S 8887   6.045   6.927   8.152  0.3950 -1.0995 -1.0184
   91SAPS  C219 8888   6.229   7.057   8.181 -0.1097 -0.4048  0.0985
   91SAPS  H19R 8889   6.172   7.100   8.266 -2.2722  3.2944 -2.8569
   91SAPS  H19S 8890   6.205   7.132   8.102  1.9187  1.6154  1.2843
   91SAPS  C220 8891   6.375   7.053   8.208 -0.3709 -0.1690 -0.1512
   91SAPS  H20R 8892   6.402   7.159   8.229 -0.9351  0.4106 -2.1058
   91SAPS  H20S 8893   6.431   7.021   8.118 -2.4629 -0.5296 -1.3829
   91SAPS  H20T 8894   6.398   6.976   8.284 -1.7836 -1.2441 -0.7767
   91SAPS   C33 8895   5.831   6.348   7.024 -0.5619  0.3778  0.2222
   91SAPS   H3X 8896   5.859   6.242   7.043 -2.4804 -0.9173 -3.1496
   91SAPS   H3Y 8897   5.732   6.358   7.075 -0.0868 -0.0827  1.2588
   91SAPS   C34 8898   5.936   6.425   7.108  0.0803 -0.2704  0.3779
   91SAPS   H4X 8899   5.895   6.529   7.109  0.5141 -0.0971  0.7821
   91SAPS   H4Y 8900   6.026   6.424   7.043  0.6225  1.2553  1.0332
   91SAPS   C35 8901   5.971   6.352   7.232 -0.0039 -0.2921  0.7510
   91SAPS   H5X 8902   6.016   6.256   7.199 -1.0506 -0.9814  1.2510
   91SAPS   H5Y 8903   5.889   6.332   7.305 -1.9952  2.0156 -0.7025
   91SAPS   C36 8904   6.085   6.426   7.299 -0.3574 -0.2158 -0.3046
   91SAPS   H6X 8905   6.169   6.450   7.230 -0.7279  2.1388 -0.0299
   91SAPS   H6Y 8906   6.121   6.350   7.373 -0.3353 -0.4180 -0.5223
   91SAPS   C37 8907   6.043   6.561   7.371  0.3740 -0.2694 -0.5990
   91SAPS   H7X 8908   5.938   6.549   7.406 -0.0233 -1.2758 -2.0093
   91SAPS   H7Y 8909   6.039   6.640   7.293 -0.9182  2.1167  1.7378
   91SAPS   C38 8910   6.138   6.612   7.479  0.2080 -0.3287 -0.4874
   91SAPS   H8X 8911   6.150   6.722   7.467 -0.6190 -0.2943 -1.1410
   91SAPS   H8Y 8912   6.231   6.558   7.454 -0.3193 -1.3395 -0.3001
   91SAPS   C39 8913   6.089   6.569   7.618  0.5234  0.5987  0.1070
   91SAPS   H9X 8914   6.170   6.560   7.694  1.1600 -1.2723 -0.7234
   91SAPS   H9Y 8915   6.060   6.464   7.596  1.3144  0.8400 -2.4464
   91SAPS  C310 8916   5.976   6.657   7.677 -0.4151  0.1682  0.1903
   91SAPS  H10X 8917   5.904   6.694   7.602 -2.0452  0.6468  1.9206
   91SAPS  H10Y 8918   6.031   6.741   7.726 -1.6786  0.4045  1.2662
   91SAPS  C311 8919   5.892   6.582   7.781  0.1548 -0.3392  0.0652
   91SAPS  H11X 8920   5.814   6.535   7.719  0.3993  0.4259 -0.8449
   91SAPS  H11Y 8921   5.847   6.660   7.846  0.1424  0.5913 -1.0217
   91SAPS  C312 8922   5.963   6.481   7.870  0.6671 -0.4027  0.4658
   91SAPS  H12X 8923   6.058   6.534   7.893  0.3615  0.0556  0.6746
   91SAPS  H12Y 8924   5.995   6.401   7.799  0.6996 -0.6914  0.8026
   91SAPS  C313 8925   5.884   6.435   7.987  0.6252 -0.3836  0.2131
   91SAPS  H13X 8926   5.937   6.364   8.054 -2.0100 -0.2774  2.6505
   91SAPS  H13Y 8927   5.798   6.371   7.955  0.7134  0.2158 -1.2765
   91SAPS  C314 8928   5.827   6.547   8.087 -1.0492 -0.0682 -0.5879
   91SAPS  H14X 8929   5.758   6.510   8.165 -0.6915  0.7835  0.1483
   91SAPS  H14Y 8930   5.768   6.630   8.042 -1.7572 -0.3192 -0.1327
   91SAPS  C315 8931   5.938   6.619   8.170 -0.2018  0.3417 -0.3824
   91SAPS  H15X 8932   5.905   6.716   8.213 -4.8404 -1.6932  1.2918
   91SAPS  H15Y 8933   6.023   6.630   8.100  1.1284  1.5656  1.3652
   91SAPS  C316 8934   5.992   6.533   8.293  0.4490 -0.3954  1.0667
   91SAPS  H16X 8935   6.103   6.527   8.294  0.4938 -0.0629 -0.0698
   91SAPS  H16Y 8936   5.954   6.429   8.288 -1.3191  0.2798 -0.6177
   91SAPS  C317 8937   5.947   6.587   8.429  0.0660  0.0186  0.9087
   91SAPS  H17X 8938   5.836   6.594   8.430  0.0102 -0.5575  2.6480
   91SAPS  H17Y 8939   5.983   6.691   8.445 -1.3508  0.2955  2.6141
   91SAPS  C318 8940   6.005   6.498   8.537  0.0318  0.0623  0.3697
   91SAPS  H18X 8941   6.112   6.477   8.517  0.3085  0.0674  1.7860
   91SAPS  H18Y 8942   5.961   6.396   8.533 -1.2886  0.6492 -1.4649
   91SAPS  H18Z 8943   5.983   6.548   8.634  1.1313 -3.7318  2.7908
   92SAPS     N 8944   6.319   5.760   6.529  0.6786  0.0430 -0.1302
   92SAPS   HN1 8945   6.285   5.670   6.568 -0.9329 -0.1942 -1.9060
   92SAPS   HN2 8946   6.416   5.751   6.492  0.3057 -1.4509 -0.8594
   92SAPS   HN3 8947   6.316   5.845   6.588  1.2947 -0.0543  0.0375
   92SAPS   C12 8948   6.223   5.775   6.418  0.7856  0.0123 -0.9693
   92SAPS  H12A 8949   6.257   5.850   6.348 -1.0956  0.8782 -1.0245
   92SAPS   C13 8950   6.201   5.654   6.330  0.5063 -0.1994  0.4309
   92SAPS  O13A 8951   6.270   5.550   6.350 -0.1813 -0.0453 -0.2758
   92SAPS  O13B 8952   6.151   5.682   6.219 -0.4980 -0.0912  0.1230
   92SAPS   C11 8953   6.085   5.820   6.471  0.4378 -1.1278 -0.2445
   92SAPS  H11A 8954   6.055   5.746   6.548 -3.0773  0.0114 -0.3615
   92SAPS  H11B 8955   6.010   5.816   6.389 -0.4761 -1.1787  0.5782
   92SAPS     P 8956   6.058   6.081   6.455  0.1121  0.0038 -0.2862
   92SAPS   O13 8957   6.093   6.079   6.309 -0.6270  0.4194 -0.1810
   92SAPS   O14 8958   5.913   6.108   6.476 -0.5376 -0.0921 -0.8669
   92SAPS   O12 8959   6.107   5.946   6.519 -0.0904  0.1944 -0.3423
   92SAPS   O11 8960   6.144   6.184   6.533 -0.4848  0.0303  0.2786
   92SAPS    C1 8961   6.149   6.188   6.680  0.9453  0.0991  0.6952
   92SAPS    HA 8962   6.062   6.239   6.726 -0.8143 -0.2610 -1.9939
   92SAPS    HB 8963   6.147   6.082   6.714 -2.8121 -1.4767 -3.3967
   92SAPS    C2 8964   6.269   6.282   6.725  1.0191 -0.3554 -0.2439
   92SAPS    HS 8965   6.361   6.236   6.683 -0.3171 -2.3111 -1.2048
   92SAPS   O21 8966   6.261   6.302   6.866 -0.5902 -0.5152 -0.1506
   92SAPS   C21 8967   6.343   6.217   6.929  0.2005 -0.7509  0.9183
   92SAPS   O22 8968   6.386   6.119   6.874  0.1567  0.3639 -0.4764
   92SAPS   C22 8969   6.351   6.257   7.070 -0.7390  0.6437  0.1417
   92SAPS   H2R 8970   6.402   6.355   7.080  0.4019  0.0081  0.6666
   92SAPS   H2S 8971   6.250   6.273   7.114  0.0652  1.8463  1.6624
   92SAPS    C3 8972   6.252   6.421   6.663 -0.1826  0.4070  0.0245
   92SAPS    HX 8973   6.155   6.466   6.690 -0.2583  0.4584 -0.3241
   92SAPS    HY 8974   6.244   6.407   6.553 -1.4881 -1.4534  0.3217
   92SAPS   O31 8975   6.359   6.506   6.697  0.1858 -0.2986 -0.1921
   92SAPS   C31 8976   6.474   6.485   6.638 -0.1057  0.2278 -0.1493
   92SAPS   O32 8977   6.490   6.414   6.539 -0.2675 -0.2590  0.0170
   92SAPS   C32 8978   6.589   6.533   6.728  0.7150 -0.2354  0.9889
   92SAPS   H2X 8979   6.668   6.597   6.683 -0.4218  1.5610  1.4187
   92SAPS   H2Y 8980   6.643   6.445   6.768  0.4721  0.4049  2.7939
   92SAPS   C23 8981   6.433   6.142   7.141  0.3572  0.4682  0.4688
   92SAPS   H3R 8982   6.532   6.141   7.091  1.0287  0.2195  1.7513
   92SAPS   H3S 8983   6.375   6.048   7.129 -1.3333  1.4126  0.8563
   92SAPS   C24 8984   6.441   6.182   7.291 -0.2777  0.6104  0.3565
   92SAPS   H4R 8985   6.471   6.092   7.349  1.1723  2.0091  1.9053
   92SAPS   H4S 8986   6.343   6.229   7.314 -1.3495 -0.7079 -1.2777
   92SAPS   C25 8987   6.553   6.282   7.306  0.2050  0.6362 -0.7574
   92SAPS   H5R 8988   6.611   6.302   7.215  1.6615  0.9143  0.2034
   92SAPS   C26 8989   6.591   6.338   7.426 -0.3520 -0.2897  0.2663
   92SAPS   H6R 8990   6.677   6.406   7.418  0.1883 -0.6498  2.4053
   92SAPS   C27 8991   6.516   6.325   7.555  0.1930 -0.8363 -0.2235
   92SAPS   H7R 8992   6.550   6.233   7.608 -0.8177 -0.1903  1.6353
   92SAPS   H7S 8993   6.408   6.304   7.538  0.7792 -5.1703  0.2049
   92SAPS   C28 8994   6.539   6.440   7.651 -0.9351  0.4715 -0.2930
   92SAPS   H8R 8995   6.614   6.514   7.620 -1.7240  0.7607 -1.5810
   92SAPS   C29 8996   6.473   6.450   7.767 -0.1570  0.0943 -0.2548
   92SAPS   H9R 8997   6.497   6.538   7.827  1.0620 -1.9225  2.4365
   92SAPS  C210 8998   6.371   6.367   7.826 -0.1454 -0.1479 -0.8513
   92SAPS  H10R 8999   6.293   6.339   7.751  0.2183 -2.1071 -0.5727
   92SAPS  H10S 9000   6.319   6.441   7.890  1.5210  2.0384 -1.9263
   92SAPS  C211 9001   6.430   6.252   7.902  0.1896 -0.1957  0.1978
   92SAPS  H11R 9002   6.477   6.173   7.842 -1.9545  0.4881 -2.5839
   92SAPS  C212 9003   6.420   6.227   8.032 -0.1732  0.6399 -0.4348
   92SAPS  H12R 9004   6.462   6.130   8.065 -0.8647  1.0468  1.7873
   92SAPS  C213 9005   6.351   6.298   8.145 -0.0024  0.4081 -0.4323
   92SAPS  H13R 9006   6.334   6.404   8.114 -0.6415  0.8131  1.1831
   92SAPS  H13S 9007   6.434   6.307   8.218  0.1358 -1.0365 -0.3843
   92SAPS  C214 9008   6.228   6.246   8.202 -0.3248  0.4949  0.4850
   92SAPS  H14R 9009   6.155   6.243   8.120  0.7804 -1.8865 -0.5047
   92SAPS  C215 9010   6.206   6.189   8.330  0.7944 -0.2797  0.3091
   92SAPS  H15R 9011   6.110   6.145   8.360  0.4789 -0.0234 -0.2887
   92SAPS  C216 9012   6.305   6.190   8.443  0.1524 -0.0685 -0.2064
   92SAPS  H16R 9013   6.249   6.205   8.537 -0.4620 -0.2101 -0.5439
   92SAPS  H16S 9014   6.385   6.266   8.437 -0.3612  0.7268  2.1403
   92SAPS  C217 9015   6.379   6.049   8.451 -0.2497 -0.6161  0.4238
   92SAPS  H17R 9016   6.308   5.965   8.445 -0.0658 -0.9065  2.0866
   92SAPS  H17S 9017   6.418   6.056   8.554  0.0977  0.1857  0.2534
   92SAPS  C218 9018   6.487   6.017   8.341  0.2131  0.7278 -0.2732
   92SAPS  H18R 9019   6.553   6.104   8.316 -0.3663  1.0288 -0.7729
   92SAPS  H18S 9020   6.421   6.002   8.253  0.9892  0.5463 -0.8450
   92SAPS  C219 9021   6.583   5.895   8.359  0.4960  0.2535  1.0343
   92SAPS  H19R 9022   6.525   5.806   8.391 -0.2562  1.4660  3.2358
   92SAPS  H19S 9023   6.641   5.912   8.452 -0.0953  1.0867  1.2606
   92SAPS  C220 9024   6.680   5.866   8.248  0.2953  0.2863 -0.3521
   92SAPS  H20R 9025   6.731   5.961   8.220  2.2643 -0.7594 -0.4757
   92SAPS  H20S 9026   6.625   5.831   8.158 -2.2856 -0.5034  1.4162
   92SAPS  H20T 9027   6.753   5.791   8.283 -0.3064 -0.0385  0.2315
   92SAPS   C33 9028   6.529   6.594   6.858 -0.2159 -0.5071  0.6779
   92SAPS   H3X 9029   6.451   6.532   6.909 -0.9270  1.2816  1.8844
   92SAPS   H3Y 9030   6.475   6.686   6.827 -1.1322 -0.8335  1.2573
   92SAPS   C34 9031   6.643   6.617   6.961  0.3405  0.0990  0.1599
   92SAPS   H4X 9032   6.727   6.644   6.893  1.1660  0.8894  1.4598
   92SAPS   H4Y 9033   6.664   6.515   7.000  1.1589 -0.2170 -1.0325
   92SAPS   C35 9034   6.616   6.732   7.051  0.2761  0.4226 -0.7065
   92SAPS   H5X 9035   6.602   6.825   6.991  0.5673  1.6550  1.0822
   92SAPS   H5Y 9036   6.706   6.748   7.114 -0.9703 -1.1677  1.6384
   92SAPS   C36 9037   6.487   6.709   7.142 -0.2554 -0.1134  0.8655
   92SAPS   H6X 9038   6.486   6.603   7.176  1.0286  0.2338  2.0703
   92SAPS   H6Y 9039   6.399   6.719   7.075 -0.7675 -2.1420  1.1494
   92SAPS   C37 9040   6.476   6.813   7.254  0.5336 -1.2045  0.3910
   92SAPS   H7X 9041   6.386   6.792   7.316  0.2725 -1.6915 -0.1509
   92SAPS   H7Y 9042   6.453   6.911   7.206 -0.6437 -1.7039 -0.1123
   92SAPS   C38 9043   6.599   6.837   7.344  0.2011 -0.1182  0.8228
   92SAPS   H8X 9044   6.679   6.887   7.285 -1.4174  1.3629 -0.2124
   92SAPS   H8Y 9045   6.633   6.735   7.371 -0.6169 -0.8999 -0.9630
   92SAPS   C39 9046   6.558   6.914   7.467  0.2486  0.5213  1.2050
   92SAPS   H9X 9047   6.459   6.883   7.507 -0.7381 -1.5922 -2.4147
   92SAPS   H9Y 9048   6.544   7.018   7.432  0.4080  0.1900  0.1279
   92SAPS  C310 9049   6.646   6.896   7.587  0.1932 -0.2616  0.6288
   92SAPS  H10X 9050   6.754   6.916   7.569 -0.0003  0.3761  0.1217
   92SAPS  H10Y 9051   6.646   6.793   7.628 -0.0568 -0.2284  0.7097
   92SAPS  C311 9052   6.604   6.987   7.702  0.3249  0.0790 -0.5151
   92SAPS  H11X 9053   6.493   6.983   7.695  0.2091 -0.3355  1.2083
   92SAPS  H11Y 9054   6.628   7.092   7.677 -0.2260  0.4601  0.5077
   92SAPS  C312 9055   6.662   6.966   7.838  0.4915 -1.1514  0.6212
   92SAPS  H12X 9056   6.624   7.049   7.901  1.0431 -1.2228  1.0532
   92SAPS  H12Y 9057   6.773   6.957   7.833  0.9906  1.9574  3.0610
   92SAPS  C313 9058   6.613   6.831   7.911 -0.0616 -0.4314  0.0882
   92SAPS  H13X 9059   6.657   6.749   7.849 -0.0578  0.5399 -1.2509
   92SAPS  H13Y 9060   6.503   6.820   7.910  0.0227 -3.0262 -3.4761
   92SAPS  C314 9061   6.646   6.819   8.059  0.3455  0.1335  0.0051
   92SAPS  H14X 9062   6.595   6.901   8.114  1.7978  1.7862 -0.9942
   92SAPS  H14Y 9063   6.755   6.838   8.072  0.6179 -1.6632  0.7191
   92SAPS  C315 9064   6.590   6.690   8.120 -0.4938  0.5657 -0.0257
   92SAPS  H15X 9065   6.637   6.597   8.083 -0.7124 -0.4136  1.9897
   92SAPS  H15Y 9066   6.483   6.684   8.090 -0.3302  2.2833 -1.1103
   92SAPS  C316 9067   6.605   6.686   8.275  0.9741  0.3784  0.5640
   92SAPS  H16X 9068   6.532   6.758   8.319  2.8316  1.9001  1.3258
   92SAPS  H16Y 9069   6.705   6.728   8.298  1.7312 -1.1985  0.2625
   92SAPS  C317 9070   6.578   6.545   8.330 -0.1011  0.5252  0.4154
   92SAPS  H17X 9071   6.651   6.481   8.276  0.2915 -0.9949  2.6575
   92SAPS  H17Y 9072   6.479   6.498   8.309  0.4643 -0.5833  0.1554
   92SAPS  C318 9073   6.611   6.536   8.480  0.1552 -0.1501  0.6647
   92SAPS  H18X 9074   6.712   6.575   8.505 -0.3813  1.2545  0.7573
   92SAPS  H18Y 9075   6.597   6.433   8.519 -3.4621  0.8378  2.4618
   92SAPS  H18Z 9076   6.543   6.605   8.536  1.1235  1.1936  0.2289
   93SAPS     N 9077   5.743   6.066   6.260 -0.0774  0.0956  0.5197
   93SAPS   HN1 9078   5.686   5.996   6.312 -0.3840  0.5857  0.8533
   93SAPS   HN2 9079   5.793   6.013   6.185  1.1876  1.5484  0.2946
   93SAPS   HN3 9080   5.824   6.102   6.314  0.4302  0.4085 -0.4267
   93SAPS   C12 9081   5.652   6.163   6.201 -0.4703 -0.0205  0.1450
   93SAPS  H12A 9082   5.709   6.252   6.177  0.6402 -0.4493  1.1056
   93SAPS   C13 9083   5.599   6.114   6.065 -0.8556  0.9778  0.0180
   93SAPS  O13A 9084   5.658   6.018   6.013  0.5708 -0.2244  0.1340
   93SAPS  O13B 9085   5.528   6.188   5.996  0.3581 -0.1853  0.4484
   93SAPS   C11 9086   5.541   6.199   6.302 -0.2473 -0.4682 -0.2683
   93SAPS  H11A 9087   5.486   6.285   6.259 -0.7452 -0.6672 -0.0431
   93SAPS  H11B 9088   5.582   6.243   6.395 -0.6125 -1.6227  0.4641
   93SAPS     P 9089   5.312   6.097   6.394  0.4935 -0.0531 -0.3086
   93SAPS   O13 9090   5.242   6.206   6.332  0.3310  0.0146 -1.1425
   93SAPS   O14 9091   5.245   5.968   6.400 -0.4434 -0.1219  0.7715
   93SAPS   O12 9092   5.457   6.085   6.333  0.0176  0.2902 -0.4841
   93SAPS   O11 9093   5.347   6.147   6.537 -0.7027  0.0240 -0.2076
   93SAPS    C1 9094   5.380   6.286   6.559  0.6563  0.3279 -0.3371
   93SAPS    HA 9095   5.483   6.290   6.602  1.4210 -1.9491 -1.8204
   93SAPS    HB 9096   5.380   6.344   6.464  1.3466 -0.5322 -0.8745
   93SAPS    C2 9097   5.285   6.345   6.672  0.0152  0.4058 -0.0659
   93SAPS    HS 9098   5.313   6.451   6.687 -1.0865  0.5517  1.2286
   93SAPS   O21 9099   5.300   6.259   6.788  0.0182 -0.5637 -0.2050
   93SAPS   C21 9100   5.413   6.269   6.858  0.6447 -0.0134  1.2257
   93SAPS   O22 9101   5.500   6.350   6.836  0.8096  0.5830  0.3871
   93SAPS   C22 9102   5.422   6.147   6.954  0.5019  0.3456 -0.1264
   93SAPS   H2R 9103   5.350   6.169   7.035  3.8818  2.8033  2.5304
   93SAPS   H2S 9104   5.387   6.057   6.899  0.7824  1.4254 -2.1880
   93SAPS    C3 9105   5.137   6.341   6.624 -0.4964 -0.6119  0.3509
   93SAPS    HX 9106   5.114   6.237   6.591  2.8277 -2.0439  2.0116
   93SAPS    HY 9107   5.137   6.413   6.540  0.3316  0.1865  1.0213
   93SAPS   O31 9108   5.049   6.386   6.732  0.0363  0.7765 -0.3359
   93SAPS   C31 9109   4.983   6.297   6.797 -0.5038 -0.7864 -0.5236
   93SAPS   O32 9110   4.994   6.175   6.785  0.0843 -0.1639 -0.6232
   93SAPS   C32 9111   4.883   6.372   6.884  0.4389 -0.2663 -0.7386
   93SAPS   H2X 9112   4.780   6.343   6.852  0.3032  0.0274 -0.5743
   93SAPS   H2Y 9113   4.897   6.482   6.880 -0.3164 -0.1464 -0.3513
   93SAPS   C23 9114   5.559   6.124   7.019 -0.4529 -0.5965  0.0325
   93SAPS   H3R 9115   5.577   6.216   7.078  1.7750 -0.9854  0.0334
   93SAPS   H3S 9116   5.636   6.102   6.943  0.0192 -0.4344  0.4599
   93SAPS   C24 9117   5.565   6.008   7.111  0.0860  0.2159 -0.5237
   93SAPS   H4R 9118   5.525   5.915   7.064  2.3852 -0.4320 -1.3211
   93SAPS   H4S 9119   5.488   6.012   7.192 -0.9918 -2.8680 -1.2669
   93SAPS   C25 9120   5.707   5.976   7.175 -0.6076 -0.1871 -0.4342
   93SAPS   H5R 9121   5.793   6.018   7.121 -0.1661 -1.1312 -0.4904
   93SAPS   C26 9122   5.729   5.902   7.288  0.2525  0.5636  0.2390
   93SAPS   H6R 9123   5.833   5.881   7.318 -0.5312 -1.7045  1.6567
   93SAPS   C27 9124   5.620   5.842   7.369  0.4967  0.4269 -0.2677
   93SAPS   H7R 9125   5.548   5.790   7.302 -0.0622  1.3359 -0.3957
   93SAPS   H7S 9126   5.550   5.916   7.414 -1.5851 -0.6060 -1.6031
   93SAPS   C28 9127   5.677   5.753   7.476 -0.5813  0.8318 -0.3332
   93SAPS   H8R 9128   5.679   5.807   7.572 -0.4086  0.6869 -0.2547
   93SAPS   C29 9129   5.705   5.622   7.458 -0.9363 -0.5567 -0.2621
   93SAPS   H9R 9130   5.750   5.566   7.541  1.7541  2.1770  0.3045
   93SAPS  C210 9131   5.687   5.552   7.325 -0.0151  0.8485  0.1806
   93SAPS  H10R 9132   5.748   5.460   7.330  1.6497  1.9605  2.0592
   93SAPS  H10S 9133   5.729   5.603   7.236 -1.6961 -0.4183 -1.4014
   93SAPS  C211 9134   5.544   5.524   7.290  0.7211  0.1020  0.5797
   93SAPS  H11R 9135   5.532   5.551   7.184  3.1138  2.9382  0.8975
   93SAPS  C212 9136   5.441   5.479   7.366  0.3140 -0.5224  0.5618
   93SAPS  H12R 9137   5.342   5.484   7.320  0.7413  1.6471 -0.2374
   93SAPS  C213 9138   5.437   5.448   7.516  0.0022  0.1431  0.3185
   93SAPS  H13R 9139   5.507   5.510   7.576 -1.0315  0.5113  1.1899
   93SAPS  H13S 9140   5.479   5.346   7.525 -1.0716 -0.5697 -1.9683
   93SAPS  C214 9141   5.291   5.453   7.564  0.2280  0.1075  0.1821
   93SAPS  H14R 9142   5.238   5.534   7.512  0.4399  0.1765  0.0696
   93SAPS  C215 9143   5.236   5.392   7.673 -0.2397  0.5512 -0.4605
   93SAPS  H15R 9144   5.136   5.425   7.705  0.4972  1.1364  1.3887
   93SAPS  C216 9145   5.308   5.303   7.772  0.0681 -0.8773 -0.2234
   93SAPS  H16R 9146   5.418   5.296   7.759  0.4183 -0.0435  1.9519
   93SAPS  H16S 9147   5.277   5.198   7.754 -1.0940 -0.5054 -0.4735
   93SAPS  C217 9148   5.271   5.336   7.917 -0.7916  0.3975 -0.1092
   93SAPS  H17R 9149   5.163   5.310   7.927 -0.6261  0.4034  2.5640
   93SAPS  H17S 9150   5.273   5.441   7.954 -1.0193 -0.5802  3.0275
   93SAPS  C218 9151   5.355   5.238   8.008  0.2940 -0.4121  0.0411
   93SAPS  H18R 9152   5.462   5.262   7.990  0.5435  0.5454  2.3998
   93SAPS  H18S 9153   5.330   5.134   7.978 -0.4363 -0.1707 -0.2251
   93SAPS  C219 9154   5.323   5.267   8.158  0.2299 -0.1454 -0.8066
   93SAPS  H19R 9155   5.375   5.361   8.186  0.6878 -0.8902  1.0158
   93SAPS  H19S 9156   5.376   5.186   8.213  1.0603  1.2081  0.4516
   93SAPS  C220 9157   5.180   5.289   8.199  0.5924 -0.6074 -0.1573
   93SAPS  H20R 9158   5.174   5.251   8.303 -1.1599 -0.3865 -0.1522
   93SAPS  H20S 9159   5.122   5.234   8.122 -1.4240 -0.6416  1.2990
   93SAPS  H20T 9160   5.142   5.393   8.208 -0.3408 -1.0164  0.8846
   93SAPS   C33 9161   4.898   6.344   7.044 -0.4167 -0.2228  0.2044
   93SAPS   H3X 9162   4.889   6.234   7.053 -1.1946 -0.0170  3.0837
   93SAPS   H3Y 9163   4.806   6.382   7.093 -0.8035  0.3107 -0.9164
   93SAPS   C34 9164   5.023   6.396   7.108 -0.3470 -0.0443 -0.4886
   93SAPS   H4X 9165   5.042   6.496   7.062  0.8056 -0.3765 -0.7750
   93SAPS   H4Y 9166   5.101   6.323   7.079  1.0283  1.1640  0.0093
   93SAPS   C35 9167   5.017   6.402   7.263 -0.1146 -0.2388  0.0723
   93SAPS   H5X 9168   5.125   6.411   7.286  0.4630 -0.4026 -2.3318
   93SAPS   H5Y 9169   4.971   6.313   7.313  0.6584 -1.8852 -2.0043
   93SAPS   C36 9170   4.943   6.527   7.308  0.2913  0.1283  0.4528
   93SAPS   H6X 9171   4.833   6.514   7.303  0.5594 -2.4984 -0.2875
   93SAPS   H6Y 9172   4.970   6.609   7.239  3.4702  0.1089  1.5115
   93SAPS   C37 9173   4.977   6.563   7.456 -0.3768 -0.1892 -0.1380
   93SAPS   H7X 9174   4.918   6.656   7.470  0.9533  0.5883  0.5455
   93SAPS   H7Y 9175   5.083   6.596   7.451 -0.5404  0.1779 -1.3965
   93SAPS   C38 9176   4.946   6.456   7.563  0.1114 -0.0705 -0.2560
   93SAPS   H8X 9177   5.028   6.381   7.565 -1.4073 -1.9143 -2.0395
   93SAPS   H8Y 9178   4.851   6.402   7.544  0.2727  0.3587 -2.6186
   93SAPS   C39 9179   4.924   6.515   7.702 -0.1700  0.5485 -0.7332
   93SAPS   H9X 9180   4.867   6.610   7.697  1.7784  1.7873 -0.2055
   93SAPS   H9Y 9181   5.026   6.539   7.739 -0.0049 -0.1951 -0.6898
   93SAPS  C310 9182   4.857   6.418   7.805 -0.3483 -0.3757  0.5522
   93SAPS  H10X 9183   4.891   6.315   7.781 -1.6007 -1.1352  1.9076
   93SAPS  H10Y 9184   4.750   6.423   7.773  0.2674 -0.9200 -1.8042
   93SAPS  C311 9185   4.892   6.456   7.953 -0.8532  0.4141  0.1549
   93SAPS  H11X 9186   4.934   6.559   7.962 -1.6227  0.7852 -0.4276
   93SAPS  H11Y 9187   4.982   6.395   7.977  0.1402  1.6134 -0.3890
   93SAPS  C312 9188   4.785   6.409   8.047 -0.2611 -0.7152 -0.5929
   93SAPS  H12X 9189   4.736   6.314   8.015 -1.7696 -0.4425  0.7564
   93SAPS  H12Y 9190   4.705   6.485   8.053 -0.3183 -0.8550  0.7041
   93SAPS  C313 9191   4.838   6.383   8.185 -0.4982  0.0022  0.5268
   93SAPS  H13X 9192   4.920   6.308   8.176  1.2960  1.6343  2.2090
   93SAPS  H13Y 9193   4.760   6.334   8.247 -1.6366 -0.7475 -1.4059
   93SAPS  C314 9194   4.888   6.507   8.256  0.4723  0.0243 -0.6557
   93SAPS  H14X 9195   4.806   6.581   8.246 -1.0615 -1.5215 -0.0596
   93SAPS  H14Y 9196   4.984   6.549   8.219  0.8231  0.9725  1.2141
   93SAPS  C315 9197   4.918   6.487   8.404  0.6636 -1.0771  0.0011
   93SAPS  H15X 9198   5.002   6.551   8.438 -0.3288 -0.2367  0.9408
   93SAPS  H15Y 9199   4.950   6.385   8.434  0.0950 -0.9422  1.1072
   93SAPS  C316 9200   4.798   6.541   8.493 -0.0198  0.1030  0.3120
   93SAPS  H16X 9201   4.702   6.505   8.449  0.2254  1.6312 -1.5696
   93SAPS  H16Y 9202   4.802   6.651   8.506 -1.7200  0.0463  1.8477
   93SAPS  C317 9203   4.795   6.476   8.636 -1.0237 -0.1102 -0.6671
   93SAPS  H17X 9204   4.880   6.526   8.686 -0.6506 -0.7007 -0.7050
   93SAPS  H17Y 9205   4.832   6.372   8.644 -0.6874  0.1411  1.4420
   93SAPS  C318 9206   4.668   6.497   8.718 -0.1196  0.3574  0.0385
   93SAPS  H18X 9207   4.678   6.536   8.822 -0.8184  0.1654  0.1795
   93SAPS  H18Y 9208   4.631   6.393   8.726  0.1864  0.2413 -0.0482
   93SAPS  H18Z 9209   4.594   6.565   8.670  1.4804  2.1433 -0.0412
   94SAPS     N 9210   5.008   3.195   6.031 -0.3880 -0.3373  0.2369
   94SAPS   HN1 9211   4.941   3.179   6.109 -1.0943  1.7874  0.1510
   94SAPS   HN2 9212   5.097   3.146   6.052 -0.5286 -1.1726 -1.0551
   94SAPS   HN3 9213   5.013   3.298   6.015 -1.4382 -0.3950 -0.5369
   94SAPS   C12 9214   4.954   3.155   5.899  0.4626 -0.4854  0.0344
   94SAPS  H12A 9215   4.850   3.185   5.898 -0.3400 -3.0668 -0.2001
   94SAPS   C13 9216   5.023   3.213   5.772  0.5207  0.6822 -0.1455
   94SAPS  O13A 9217   5.121   3.288   5.778 -0.4700  0.9404 -0.1269
   94SAPS  O13B 9218   4.967   3.182   5.661 -0.4943 -0.1437 -0.4039
   94SAPS   C11 9219   4.952   2.999   5.891 -0.1064  0.6408  0.3767
   94SAPS  H11A 9220   5.059   2.968   5.892 -0.5295 -0.9108  1.2254
   94SAPS  H11B 9221   4.908   2.957   5.798  0.3121 -0.1479  0.5213
   94SAPS     P 9222   4.736   2.886   6.004  0.6462 -1.2572  0.0265
   94SAPS   O13 9223   4.680   2.882   6.143 -0.1296  0.5886  0.5482
   94SAPS   O14 9224   4.656   2.972   5.916 -0.7659 -0.2116 -0.5084
   94SAPS   O12 9225   4.888   2.945   6.008  0.1130  0.1215 -0.1784
   94SAPS   O11 9226   4.753   2.749   5.940 -0.0273 -0.4109 -0.3676
   94SAPS    C1 9227   4.875   2.682   5.902  1.0104 -0.0801  0.0522
   94SAPS    HA 9228   4.843   2.608   5.825  1.7365  0.8622 -1.1859
   94SAPS    HB 9229   4.943   2.754   5.852  1.2175  0.1951  0.7257
   94SAPS    C2 9230   4.951   2.602   6.012 -0.0055  0.3891 -0.8353
   94SAPS    HS 9231   5.001   2.521   5.955  1.6652 -0.6749  1.9641
   94SAPS   O21 9232   4.856   2.554   6.112  1.0737 -0.3046 -0.2232
   94SAPS   C21 9233   4.869   2.423   6.134  0.0766  0.4010  0.2996
   94SAPS   O22 9234   4.924   2.337   6.062  0.0054 -0.6917 -0.4316
   94SAPS   C22 9235   4.802   2.392   6.264  0.0013 -0.3982 -0.5354
   94SAPS   H2R 9236   4.857   2.448   6.342 -0.2619 -0.0049 -0.6278
   94SAPS   H2S 9237   4.698   2.430   6.273 -0.0709 -1.0794  3.6874
   94SAPS    C3 9238   5.055   2.692   6.085  0.4242  1.1933  0.0834
   94SAPS    HX 9239   5.002   2.776   6.134 -0.8686  0.1493  0.5208
   94SAPS    HY 9240   5.125   2.733   6.009  0.5562  2.8512  1.0597
   94SAPS   O31 9241   5.119   2.619   6.191 -0.2744  0.0625  0.6890
   94SAPS   C31 9242   5.224   2.546   6.156 -0.0895 -0.3742 -0.0939
   94SAPS   O32 9243   5.275   2.536   6.043 -0.5304  0.2139  0.0996
   94SAPS   C32 9244   5.284   2.475   6.276 -0.0650  0.2079 -0.0268
   94SAPS   H2X 9245   5.359   2.530   6.337  1.0263 -0.4043 -0.7766
   94SAPS   H2Y 9246   5.321   2.375   6.243 -1.2506 -0.3911  0.3792
   94SAPS   C23 9247   4.802   2.246   6.293  1.1244  0.2868 -0.6788
   94SAPS   H3R 9248   4.902   2.199   6.282  0.5415 -1.3278  0.5663
   94SAPS   H3S 9249   4.724   2.200   6.227 -1.3356  1.5775  1.1620
   94SAPS   C24 9250   4.769   2.230   6.437 -0.6341 -0.5785 -0.2268
   94SAPS   H4R 9251   4.675   2.288   6.450 -1.2463 -1.6897  0.4572
   94SAPS   H4S 9252   4.848   2.279   6.498  0.3741  0.8842 -2.5647
   94SAPS   C25 9253   4.741   2.089   6.476  0.3782 -0.3657  0.5591
   94SAPS   H5R 9254   4.764   2.007   6.405 -0.3923  1.1307 -1.5056
   94SAPS   C26 9255   4.682   2.054   6.594  0.6861 -0.0242  0.1556
   94SAPS   H6R 9256   4.661   1.951   6.627  1.1936 -0.5085 -0.9511
   94SAPS   C27 9257   4.651   2.158   6.694  0.3974  0.7111  0.1133
   94SAPS   H7R 9258   4.658   2.263   6.660 -2.4636  1.5565  1.7926
   94SAPS   H7S 9259   4.730   2.160   6.771 -0.7102  3.5092  1.2905
   94SAPS   C28 9260   4.521   2.158   6.756  0.2409 -0.2327  0.4295
   94SAPS   H8R 9261   4.435   2.190   6.694  1.0839 -0.1498 -0.7248
   94SAPS   C29 9262   4.481   2.111   6.871 -0.1368 -0.2665 -0.5834
   94SAPS   H9R 9263   4.374   2.124   6.894  0.3692  2.6583  0.6350
   94SAPS  C210 9264   4.559   2.062   6.989  0.6180  0.5251 -0.3314
   94SAPS  H10R 9265   4.517   2.100   7.085  3.0957  0.5856  0.8203
   94SAPS  H10S 9266   4.666   2.093   6.981  0.8300 -0.3543 -1.0554
   94SAPS  C211 9267   4.548   1.916   6.988 -0.1087 -0.5484 -0.1030
   94SAPS  H11R 9268   4.560   1.865   6.892  1.3663 -0.9933  0.2978
   94SAPS  C212 9269   4.541   1.833   7.101 -0.0204  0.2861  0.9188
   94SAPS  H12R 9270   4.540   1.723   7.096 -1.7390  0.2353  1.8807
   94SAPS  C213 9271   4.537   1.873   7.242  0.6027 -0.0323 -0.5526
   94SAPS  H13R 9272   4.440   1.847   7.290 -0.0677  0.6538 -1.5166
   94SAPS  H13S 9273   4.552   1.980   7.267 -0.5586  0.2119 -0.8089
   94SAPS  C214 9274   4.639   1.797   7.320 -0.2809 -0.4003 -0.9472
   94SAPS  H14R 9275   4.722   1.757   7.259 -0.5142  2.9801 -3.8350
   94SAPS  C215 9276   4.637   1.781   7.456 -0.2221 -0.4331 -0.2637
   94SAPS  H15R 9277   4.726   1.731   7.497  1.3562  0.9154 -1.8913
   94SAPS  C216 9278   4.533   1.837   7.550  0.2844  0.0936 -0.0808
   94SAPS  H16R 9279   4.455   1.758   7.555  0.1371  0.2486  0.0890
   94SAPS  H16S 9280   4.479   1.918   7.497  0.1491 -0.6089 -1.0402
   94SAPS  C217 9281   4.596   1.879   7.689 -0.1296  0.4693  0.0302
   94SAPS  H17R 9282   4.661   1.965   7.663  1.2327 -0.5196  0.0699
   94SAPS  H17S 9283   4.662   1.804   7.737 -1.0285 -0.0971  0.4160
   94SAPS  C218 9284   4.495   1.928   7.788 -0.3099 -0.7830  0.2061
   94SAPS  H18R 9285   4.437   1.844   7.832 -2.4230  0.6928  0.3785
   94SAPS  H18S 9286   4.425   1.991   7.730  1.9847  0.7084 -1.0808
   94SAPS  C219 9287   4.551   2.016   7.902 -0.3810  0.4290  0.5109
   94SAPS  H19R 9288   4.613   2.092   7.852  1.5676 -1.4099 -0.0135
   94SAPS  H19S 9289   4.621   1.958   7.966 -0.9594 -0.5133  0.3277
   94SAPS  C220 9290   4.434   2.076   7.989 -0.3374  0.0061 -0.2650
   94SAPS  H20R 9291   4.482   2.130   8.074 -1.0315  2.1399 -1.1480
   94SAPS  H20S 9292   4.348   2.013   8.016  0.2480 -0.6109  0.1831
   94SAPS  H20T 9293   4.385   2.158   7.933 -1.0672  0.7697  1.4412
   94SAPS   C33 9294   5.180   2.435   6.384  1.3133 -0.1894  0.2557
   94SAPS   H3X 9295   5.106   2.367   6.337 -0.5683  1.7889  0.1845
   94SAPS   H3Y 9296   5.118   2.525   6.401 -1.6847 -2.3538  1.7287
   94SAPS   C34 9297   5.238   2.386   6.522 -0.9898 -0.0480  0.5212
   94SAPS   H4X 9298   5.312   2.458   6.562 -1.4343  0.7838 -0.1048
   94SAPS   H4Y 9299   5.286   2.288   6.500  1.0084  0.7642  1.0896
   94SAPS   C35 9300   5.123   2.354   6.615 -0.1400  0.0788 -0.2585
   94SAPS   H5X 9301   5.059   2.277   6.566 -0.3185 -0.0464  0.1701
   94SAPS   H5Y 9302   5.062   2.443   6.638 -0.3748  0.5913 -2.5887
   94SAPS   C36 9303   5.172   2.295   6.752 -0.3399 -0.0766 -0.3054
   94SAPS   H6X 9304   5.219   2.366   6.824 -1.1235 -0.4151  0.5689
   94SAPS   H6Y 9305   5.241   2.211   6.731 -2.2111 -1.2235 -2.3232
   94SAPS   C37 9306   5.055   2.234   6.828 -0.5447 -0.0558  0.1876
   94SAPS   H7X 9307   5.026   2.133   6.791 -1.8000  1.1408 -2.3364
   94SAPS   H7Y 9308   4.961   2.294   6.824 -0.2926  0.3074 -0.4422
   94SAPS   C38 9309   5.101   2.222   6.976  0.4728  0.5152  0.4552
   94SAPS   H8X 9310   5.076   2.314   7.034 -0.1266  0.2171  0.6793
   94SAPS   H8Y 9311   5.206   2.198   7.003  0.7161  0.8508 -0.1689
   94SAPS   C39 9312   5.021   2.113   7.051 -0.0086 -1.1933 -0.5187
   94SAPS   H9X 9313   5.090   2.032   7.082 -0.7114 -1.1377  1.2846
   94SAPS   H9Y 9314   4.953   2.060   6.980  1.0412 -0.5458 -2.0606
   94SAPS  C310 9315   4.950   2.176   7.174  0.1713  0.0968  0.1946
   94SAPS  H10X 9316   4.871   2.244   7.134  1.8242  1.1022 -1.5106
   94SAPS  H10Y 9317   5.013   2.241   7.238 -1.3330  1.0034  0.8311
   94SAPS  C311 9318   4.902   2.072   7.271  0.5931 -0.7332  0.3245
   94SAPS  H11X 9319   4.994   2.025   7.312  1.7549  0.6931 -0.5616
   94SAPS  H11Y 9320   4.841   1.997   7.216 -0.3064  0.6444 -0.6055
   94SAPS  C312 9321   4.818   2.134   7.383 -0.0281  1.3075  0.2725
   94SAPS  H12X 9322   4.761   2.051   7.429  1.7293 -1.1518 -1.7084
   94SAPS  H12Y 9323   4.760   2.215   7.335  0.6380  0.5959 -1.8406
   94SAPS  C313 9324   4.889   2.205   7.495  0.6762 -0.0978 -0.2710
   94SAPS  H13X 9325   4.829   2.273   7.559  0.9798  0.7933 -0.9062
   94SAPS  H13Y 9326   4.971   2.270   7.457  1.5356 -1.8807 -1.5629
   94SAPS  C314 9327   4.955   2.103   7.596  0.3844 -1.0972  0.2706
   94SAPS  H14X 9328   5.030   2.038   7.546 -1.0459 -2.3421 -0.3372
   94SAPS  H14Y 9329   4.871   2.037   7.624 -0.6791 -0.0371 -0.3148
   94SAPS  C315 9330   5.002   2.176   7.721 -0.8185 -0.4137 -0.3298
   94SAPS  H15X 9331   4.940   2.265   7.745  0.8543  0.4903  0.8757
   94SAPS  H15Y 9332   5.100   2.221   7.694 -2.0101  2.3844 -0.3757
   94SAPS  C316 9333   5.037   2.096   7.851  0.3881  0.0300  0.3685
   94SAPS  H16X 9334   5.081   2.160   7.930 -3.3057  2.2968  0.8276
   94SAPS  H16Y 9335   5.107   2.015   7.822  0.8030  0.8573 -1.0572
   94SAPS  C317 9336   4.904   2.037   7.914 -0.5909  0.0203  0.4999
   94SAPS  H17X 9337   4.848   1.982   7.835 -0.5634  0.4750  0.1609
   94SAPS  H17Y 9338   4.829   2.116   7.936 -1.7804 -1.2292  1.0725
   94SAPS  C318 9339   4.933   1.955   8.040  0.1735  0.0846  0.1384
   94SAPS  H18X 9340   5.005   1.878   8.004 -0.1198 -1.5392  2.7238
   94SAPS  H18Y 9341   4.851   1.899   8.092  1.8459 -0.5706  2.2149
   94SAPS  H18Z 9342   4.997   2.004   8.116  0.8769  0.3686 -0.6353
   95SAPS     N 9343   0.846   5.069   6.348 -0.7738 -0.6968  0.1741
   95SAPS   HN1 9344   0.942   5.037   6.370 -0.7044 -1.0524 -0.6026
   95SAPS   HN2 9345   0.803   5.124   6.425 -2.0232  0.5153 -1.3017
   95SAPS   HN3 9346   0.789   4.982   6.347 -0.2412 -1.0737  1.1510
   95SAPS   C12 9347   0.804   5.136   6.221 -0.2816 -0.5979 -0.0495
   95SAPS  H12A 9348   0.860   5.226   6.200 -0.3052 -0.5502  0.0887
   95SAPS   C13 9349   0.814   5.048   6.094 -0.5218  0.8247  0.2195
   95SAPS  O13A 9350   0.858   4.930   6.097  0.5503 -0.8094  0.2269
   95SAPS  O13B 9351   0.780   5.098   5.982  0.1710 -0.0237 -0.0715
   95SAPS   C11 9352   0.661   5.181   6.236  0.0289 -0.1303  0.0347
   95SAPS  H11A 9353   0.600   5.089   6.248  0.5297 -0.4826 -0.0773
   95SAPS  H11B 9354   0.626   5.233   6.144  1.3083 -0.7833 -0.8543
   95SAPS     P 9355   0.544   5.395   6.338 -0.1264  0.0422  0.1276
   95SAPS   O13 9356   0.626   5.519   6.315 -1.0388 -0.0915  0.1049
   95SAPS   O14 9357   0.428   5.378   6.249  0.6342  0.3122 -0.2583
   95SAPS   O12 9358   0.638   5.268   6.343 -0.3809 -0.5613  0.4923
   95SAPS   O11 9359   0.478   5.410   6.480  0.0963  0.4976  0.6074
   95SAPS    C1 9360   0.387   5.309   6.516 -0.3605 -0.1933  0.1750
   95SAPS    HA 9361   0.288   5.324   6.467 -1.8088  0.8889  3.1587
   95SAPS    HB 9362   0.413   5.206   6.483  0.3037 -0.7823  2.4085
   95SAPS    C2 9363   0.360   5.317   6.669 -0.0570  0.6432  0.1550
   95SAPS    HS 9364   0.306   5.413   6.681 -1.7852  0.1065 -2.5483
   95SAPS   O21 9365   0.480   5.310   6.746 -0.0134  0.3954 -0.0982
   95SAPS   C21 9366   0.548   5.419   6.762  0.2130  0.4001 -0.2664
   95SAPS   O22 9367   0.511   5.528   6.719 -0.1816 -0.5761 -0.8994
   95SAPS   C22 9368   0.683   5.392   6.829 -0.2636  0.3733 -0.3748
   95SAPS   H2R 9369   0.684   5.289   6.870  1.4248  0.6061  0.2808
   95SAPS   H2S 9370   0.763   5.422   6.758 -1.1426  2.3156 -0.5945
   95SAPS    C3 9371   0.270   5.197   6.696 -0.1055 -0.6743 -1.3924
   95SAPS    HX 9372   0.327   5.104   6.679  0.3429 -0.5411 -0.6637
   95SAPS    HY 9373   0.177   5.203   6.634 -1.2782  0.2263  0.3544
   95SAPS   O31 9374   0.225   5.196   6.841  0.2070 -0.1982  0.0218
   95SAPS   C31 9375   0.140   5.295   6.867  0.4726  0.3842 -0.5288
   95SAPS   O32 9376   0.082   5.363   6.783 -0.0426  0.3355  0.1123
   95SAPS   C32 9377   0.142   5.313   7.018  0.0477  0.1248  0.3143
   95SAPS   H2X 9378   0.238   5.365   7.038  1.1589 -2.0787  1.1034
   95SAPS   H2Y 9379   0.152   5.214   7.068 -2.9578  0.3491  1.5668
   95SAPS   C23 9380   0.712   5.481   6.956 -0.5413 -0.2368 -0.1477
   95SAPS   H3R 9381   0.713   5.586   6.922  1.7294 -0.3229 -0.5230
   95SAPS   H3S 9382   0.812   5.459   7.000 -0.8700  0.9654  1.2361
   95SAPS   C24 9383   0.616   5.464   7.068 -0.3911  1.0212  0.0236
   95SAPS   H4R 9384   0.628   5.363   7.113  2.0606  1.7895  1.2635
   95SAPS   H4S 9385   0.513   5.484   7.031  0.4161  2.3930 -1.6033
   95SAPS   C25 9386   0.661   5.568   7.174  0.2143 -0.4029 -0.1198
   95SAPS   H5R 9387   0.715   5.658   7.142 -3.7037  2.1456 -0.1583
   95SAPS   C26 9388   0.612   5.576   7.296  0.4236  0.2026 -0.0450
   95SAPS   H6R 9389   0.651   5.655   7.361 -0.6787 -1.1209  2.3760
   95SAPS   C27 9390   0.516   5.467   7.345 -0.1379  0.6377 -0.5272
   95SAPS   H7R 9391   0.570   5.371   7.357  0.5676  1.1253  0.2745
   95SAPS   H7S 9392   0.436   5.437   7.274 -0.3850  0.3382 -0.1313
   95SAPS   C28 9393   0.460   5.505   7.483 -0.0327  0.3974 -0.1324
   95SAPS   H8R 9394   0.367   5.563   7.481 -0.5903 -0.5021 -0.8864
   95SAPS   C29 9395   0.504   5.460   7.603  0.0232 -0.0011 -0.9109
   95SAPS   H9R 9396   0.459   5.512   7.689 -0.9922 -1.7708 -0.2995
   95SAPS  C210 9397   0.630   5.375   7.627 -0.2074  0.5532 -0.0842
   95SAPS  H10R 9398   0.718   5.404   7.565  2.6577 -1.8074  2.5437
   95SAPS  H10S 9399   0.609   5.273   7.587 -1.2066  1.2003 -1.2831
   95SAPS  C211 9400   0.665   5.360   7.774 -0.6371  0.1346 -0.1650
   95SAPS  H11R 9401   0.592   5.295   7.824  2.3967 -2.5621  1.1326
   95SAPS  C212 9402   0.777   5.410   7.823 -0.1444  0.1502  0.1695
   95SAPS  H12R 9403   0.795   5.401   7.931 -1.2917  1.0507  0.4547
   95SAPS  C213 9404   0.884   5.493   7.750 -0.0441  0.4694 -0.8210
   95SAPS  H13R 9405   0.899   5.597   7.785  1.1459  0.1019 -0.1918
   95SAPS  H13S 9406   0.844   5.499   7.647 -2.1660 -0.1979 -0.0863
   95SAPS  C214 9407   1.011   5.413   7.778  0.5128  0.7486  0.4697
   95SAPS  H14R 9408   1.033   5.411   7.886  1.5901  2.7006  0.3467
   95SAPS  C215 9409   1.089   5.358   7.682 -0.2156  0.6782  1.3781
   95SAPS  H15R 9410   1.176   5.296   7.708 -1.3308 -0.9342  1.4674
   95SAPS  C216 9411   1.054   5.370   7.536  1.2089 -0.2796 -0.0748
   95SAPS  H16R 9412   1.141   5.379   7.468  1.7429 -0.7559  0.5312
   95SAPS  H16S 9413   0.994   5.459   7.505  0.1782 -1.1590 -0.6661
   95SAPS  C217 9414   0.989   5.238   7.486  0.4451 -0.2491  0.1130
   95SAPS  H17R 9415   0.900   5.214   7.547  0.6584 -2.7311 -0.4153
   95SAPS  H17S 9416   1.054   5.151   7.510 -2.8260 -2.2066  2.7662
   95SAPS  C218 9417   0.947   5.234   7.339  0.1008  0.2579 -0.0104
   95SAPS  H18R 9418   0.888   5.325   7.315 -0.4123  0.5433  2.1205
   95SAPS  H18S 9419   0.861   5.164   7.329 -1.3931  2.2140 -2.0099
   95SAPS  C219 9420   1.062   5.215   7.240  0.1325  0.0900 -0.5169
   95SAPS  H19R 9421   1.146   5.155   7.280 -0.1102 -1.2306 -1.8827
   95SAPS  H19S 9422   1.093   5.321   7.228 -1.1365  0.4502 -0.7479
   95SAPS  C220 9423   0.999   5.171   7.108  0.1166  1.2648 -0.2195
   95SAPS  H20R 9424   0.906   5.230   7.096 -0.1685  1.5425  2.7035
   95SAPS  H20S 9425   0.970   5.064   7.111  4.3035 -0.1154 -2.0426
   95SAPS  H20T 9426   1.065   5.184   7.019  0.7197 -0.9966 -0.1631
   95SAPS   C33 9427   0.018   5.398   7.077  0.7624 -0.5201  0.0393
   95SAPS   H3X 9428  -0.072   5.333   7.080  1.6709 -2.0341 -2.3277
   95SAPS   H3Y 9429   0.001   5.479   7.002 -2.3362  0.7579  1.9394
   95SAPS   C34 9430   0.047   5.465   7.216 -0.1316  0.1007  0.5850
   95SAPS   H4X 9431  -0.024   5.546   7.244  1.4875  0.6770  3.3392
   95SAPS   H4Y 9432   0.146   5.513   7.205  1.9393 -3.5822  1.4415
   95SAPS   C35 9433   0.050   5.378   7.344  0.6200 -0.5023  0.0485
   95SAPS   H5X 9434   0.126   5.297   7.350 -0.7600 -1.7607  3.0187
   95SAPS   H5Y 9435  -0.044   5.319   7.343  1.2691 -1.5623 -1.9845
   95SAPS   C36 9436   0.069   5.455   7.475 -0.2179  0.1181 -0.3534
   95SAPS   H6X 9437  -0.009   5.533   7.478 -1.8706 -1.3761  3.7457
   95SAPS   H6Y 9438   0.170   5.500   7.479 -1.4476  3.1227 -1.0664
   95SAPS   C37 9439   0.047   5.364   7.597 -0.1545  0.4107  0.0646
   95SAPS   H7X 9440   0.126   5.287   7.593  1.0724  1.4173  2.7540
   95SAPS   H7Y 9441  -0.059   5.332   7.592 -0.3978  1.2622 -0.5428
   95SAPS   C38 9442   0.066   5.446   7.729 -0.1258  0.3643  0.3959
   95SAPS   H8X 9443   0.005   5.539   7.730 -0.3743  0.2060  1.6529
   95SAPS   H8Y 9444   0.173   5.475   7.740 -0.6164  2.9397 -0.7838
   95SAPS   C39 9445   0.014   5.363   7.858 -0.1286 -0.1229 -0.5548
   95SAPS   H9X 9446   0.069   5.267   7.869 -2.3410 -1.1578  3.2056
   95SAPS   H9Y 9447  -0.094   5.351   7.832 -0.4289  1.1278  0.0311
   95SAPS  C310 9448   0.026   5.433   7.998 -0.1096 -0.4138 -0.3356
   95SAPS  H10X 9449  -0.032   5.528   7.994  2.6970  1.5627  1.5883
   95SAPS  H10Y 9450   0.129   5.477   7.999 -0.5897  0.7745  1.7219
   95SAPS  C311 9451  -0.008   5.340   8.112 -0.1111 -0.8171  0.2371
   95SAPS  H11X 9452   0.076   5.269   8.131  0.6973 -0.1706 -0.8002
   95SAPS  H11Y 9453  -0.101   5.281   8.097 -1.1294  0.5394  1.0306
   95SAPS  C312 9454  -0.028   5.416   8.243 -0.1553  0.2024  0.0848
   95SAPS  H12X 9455  -0.053   5.341   8.321 -2.0540  0.8066  0.1074
   95SAPS  H12Y 9456  -0.116   5.484   8.239  0.7030  1.7147  3.4122
   95SAPS  C313 9457   0.090   5.498   8.293 -0.1917 -0.1564  0.1894
   95SAPS  H13X 9458   0.110   5.582   8.222 -0.0634 -1.4257 -1.3396
   95SAPS  H13Y 9459   0.174   5.427   8.282 -0.1524 -0.3332  1.5519
   95SAPS  C314 9460   0.077   5.542   8.444 -0.8444  0.3727 -0.0509
   95SAPS  H14X 9461   0.029   5.463   8.506  0.0107 -0.6768 -0.6820
   95SAPS  H14Y 9462   0.014   5.632   8.459  2.1690  2.1153  4.0906
   95SAPS  C315 9463   0.215   5.562   8.515  0.6496  0.3491  0.0492
   95SAPS  H15X 9464   0.279   5.631   8.456 -0.9464 -0.4062 -2.7623
   95SAPS  H15Y 9465   0.274   5.469   8.508 -0.9283 -0.5663 -2.6617
   95SAPS  C316 9466   0.216   5.611   8.660  0.1561 -0.3077 -0.7070
   95SAPS  H16X 9467   0.159   5.538   8.720  3.1997 -1.6650  0.7313
   95SAPS  H16Y 9468   0.164   5.708   8.675  0.8171 -0.2780  1.7833
   95SAPS  C317 9469   0.358   5.627   8.719 -0.0183  0.2682 -0.1566
   95SAPS  H17X 9470   0.402   5.525   8.721 -1.0309 -0.2601 -2.1969
   95SAPS  H17Y 9471   0.348   5.666   8.822 -0.5053  0.9906 -0.4698
   95SAPS  C318 9472   0.459   5.713   8.648 -0.0247 -0.5951  0.5758
   95SAPS  H18X 9473   0.420   5.817   8.644  0.2418 -0.4379  1.6347
   95SAPS  H18Y 9474   0.488   5.683   8.545  0.3653  0.3157  0.4011
   95SAPS  H18Z 9475   0.557   5.723   8.701  0.7214  0.8079 -0.9649
   96SAPS     N 9476   2.546   1.915   6.115  0.0160  0.7752 -0.2034
   96SAPS   HN1 9477   2.624   1.956   6.171 -0.1169 -0.2050  0.7536
   96SAPS   HN2 9478   2.540   1.812   6.131  0.2498  0.6705 -0.7615
   96SAPS   HN3 9479   2.566   1.921   6.013  0.1404 -1.7472 -0.3996
   96SAPS   C12 9480   2.421   1.979   6.158  0.8905 -0.5509  0.1257
   96SAPS  H12A 9481   2.417   1.979   6.265 -0.8887 -2.3189  0.1118
   96SAPS   C13 9482   2.421   2.126   6.121 -0.2127 -0.2629  0.1419
   96SAPS  O13A 9483   2.513   2.183   6.061  0.3190  0.2770  0.3279
   96SAPS  O13B 9484   2.313   2.189   6.146 -0.0387 -0.3724  0.0385
   96SAPS   C11 9485   2.294   1.904   6.103 -0.1543  0.6025  0.1109
   96SAPS  H11A 9486   2.274   1.934   5.997 -1.4367  0.0035  0.1647
   96SAPS  H11B 9487   2.205   1.941   6.157 -1.0700 -0.6619 -0.4772
   96SAPS     P 9488   2.234   1.683   6.235 -0.3106  0.2524  0.5760
   96SAPS   O13 9489   2.089   1.683   6.219  0.4725 -0.1751 -0.0468
   96SAPS   O14 9490   2.306   1.554   6.240 -0.2171  0.1258  0.1082
   96SAPS   O12 9491   2.299   1.757   6.108  0.3106  0.3617  0.5068
   96SAPS   O11 9492   2.274   1.765   6.362 -0.1001 -0.0802  0.0594
   96SAPS    C1 9493   2.182   1.832   6.458 -0.9881  0.3305  0.2204
   96SAPS    HA 9494   2.243   1.913   6.504  0.7941 -2.0516  2.3592
   96SAPS    HB 9495   2.110   1.894   6.402  0.2965  1.9277  0.2572
   96SAPS    C2 9496   2.123   1.748   6.573  0.6014  0.7137 -0.4911
   96SAPS    HS 9497   2.061   1.811   6.640  0.1187 -0.4413  0.1864
   96SAPS   O21 9498   2.228   1.682   6.655 -0.0754 -0.1668  0.1389
   96SAPS   C21 9499   2.316   1.763   6.712  0.0437  0.0307 -0.3226
   96SAPS   O22 9500   2.298   1.887   6.719 -0.3798  0.0443  0.5448
   96SAPS   C22 9501   2.437   1.681   6.753 -0.0206  1.2193 -0.2075
   96SAPS   H2R 9502   2.408   1.587   6.805 -3.7144  1.8736 -0.7471
   96SAPS   H2S 9503   2.478   1.646   6.656  1.6930  0.1533  0.8486
   96SAPS    C3 9504   2.034   1.638   6.526  1.4368 -0.3453  0.5816
   96SAPS    HX 9505   2.069   1.558   6.458 -0.0030  1.3471 -2.4067
   96SAPS    HY 9506   1.961   1.694   6.462  0.1679 -1.5720  0.9189
   96SAPS   O31 9507   1.949   1.588   6.635 -0.7659  0.0754  0.0731
   96SAPS   C31 9508   1.849   1.654   6.684  0.3123 -0.2308 -0.3590
   96SAPS   O32 9509   1.802   1.753   6.631 -1.1497  0.0122 -0.3931
   96SAPS   C32 9510   1.780   1.581   6.801 -0.3589  0.4327  0.3064
   96SAPS   H2X 9511   1.866   1.547   6.863  1.1954  0.1627 -1.8452
   96SAPS   H2Y 9512   1.738   1.490   6.754  1.2202  1.0961 -2.6612
   96SAPS   C23 9513   2.536   1.751   6.852  0.4442  0.6620  0.2992
   96SAPS   H3R 9514   2.478   1.787   6.940  0.4188 -0.6257  0.8325
   96SAPS   H3S 9515   2.585   1.840   6.808  0.1204 -0.9329 -3.6961
   96SAPS   C24 9516   2.651   1.668   6.907  0.5807  0.1247  0.7092
   96SAPS   H4R 9517   2.679   1.604   6.821  0.2245  0.8358  0.0464
   96SAPS   H4S 9518   2.626   1.595   6.986  0.4008  0.8000  1.2909
   96SAPS   C25 9519   2.768   1.745   6.966 -0.2251 -0.6046  0.6811
   96SAPS   H5R 9520   2.776   1.849   6.931 -3.0089 -0.1174  1.2859
   96SAPS   C26 9521   2.852   1.719   7.065 -0.5773  0.4572 -1.0860
   96SAPS   H6R 9522   2.935   1.787   7.089  0.8778 -1.8803  0.9922
   96SAPS   C27 9523   2.855   1.598   7.152  0.4827  0.3306 -0.1489
   96SAPS   H7R 9524   2.838   1.512   7.084 -0.5424 -0.2392  0.7998
   96SAPS   H7S 9525   2.772   1.602   7.226 -0.1805  0.7703 -0.9053
   96SAPS   C28 9526   2.981   1.581   7.238 -0.5627 -0.1625  0.3578
   96SAPS   H8R 9527   3.057   1.512   7.198  1.4804  1.2091  1.6840
   96SAPS   C29 9528   3.011   1.649   7.350 -0.6355  0.6186 -0.3286
   96SAPS   H9R 9529   3.106   1.643   7.405  0.1134 -0.1678 -1.6483
   96SAPS  C210 9530   2.914   1.751   7.406  0.3430  0.1351  0.3488
   96SAPS  H10R 9531   2.874   1.720   7.505 -1.4518  0.2305 -0.3008
   96SAPS  H10S 9532   2.831   1.767   7.334  0.1508 -1.0978  0.2814
   96SAPS  C211 9533   2.988   1.886   7.409 -0.3803 -0.1047  0.2473
   96SAPS  H11R 9534   3.039   1.914   7.316 -1.4149 -0.0445 -0.3163
   96SAPS  C212 9535   3.004   1.965   7.522 -0.4868  0.0856 -0.4313
   96SAPS  H12R 9536   3.052   2.063   7.509  1.6976 -1.0057 -0.9269
   96SAPS  C213 9537   2.954   1.927   7.661 -0.0174  0.3819 -0.2281
   96SAPS  H13R 9538   2.870   1.855   7.651  0.0213  0.0105  1.8224
   96SAPS  H13S 9539   2.934   2.017   7.721  0.9981  3.0880 -3.5822
   96SAPS  C214 9540   3.062   1.846   7.736  0.7326 -0.3795  0.0882
   96SAPS  H14R 9541   3.160   1.830   7.689  1.0675 -0.1938  0.7012
   96SAPS  C215 9542   3.049   1.810   7.866  0.0131 -0.2146 -0.0250
   96SAPS  H15R 9543   3.126   1.747   7.913 -1.4866 -1.3423  1.0065
   96SAPS  C216 9544   2.932   1.826   7.959  0.2791  0.7909 -0.2631
   96SAPS  H16R 9545   2.866   1.737   7.957  1.1374 -0.0153  2.3724
   96SAPS  H16S 9546   2.876   1.914   7.922 -0.4320  0.2003 -0.6240
   96SAPS  C217 9547   2.975   1.851   8.107  0.5928 -0.7996 -0.0115
   96SAPS  H17R 9548   3.047   1.935   8.111 -1.4645  1.1144 -0.9076
   96SAPS  H17S 9549   3.037   1.763   8.135 -0.5949 -1.5465  0.3560
   96SAPS  C218 9550   2.851   1.878   8.194  0.5994  0.6601  0.1642
   96SAPS  H18R 9551   2.780   1.794   8.208  1.7513 -0.0095  2.6919
   96SAPS  H18S 9552   2.792   1.954   8.139  3.2846  1.7110 -1.4933
   96SAPS  C219 9553   2.871   1.933   8.337 -1.0301  0.8017 -0.8758
   96SAPS  H19R 9554   2.969   1.984   8.326  0.2327 -0.6639  2.3199
   96SAPS  H19S 9555   2.883   1.842   8.399  1.8772  0.5480 -1.6769
   96SAPS  C220 9556   2.758   2.026   8.381  0.1312 -0.3274  0.2081
   96SAPS  H20R 9557   2.782   2.086   8.471  0.2517  1.2139 -0.8192
   96SAPS  H20S 9558   2.669   1.964   8.405  0.5565 -1.3178 -0.6823
   96SAPS  H20T 9559   2.725   2.100   8.305  0.4504  0.5683  0.9222
   96SAPS   C33 9560   1.677   1.653   6.883 -0.3435 -0.6227 -0.8136
   96SAPS   H3X 9561   1.593   1.679   6.816 -1.5886  0.8034  1.2222
   96SAPS   H3Y 9562   1.728   1.743   6.923  1.2643 -1.6325 -0.4925
   96SAPS   C34 9563   1.632   1.568   7.000  0.1871  0.0196 -0.1488
   96SAPS   H4X 9564   1.621   1.461   6.971  1.4699 -0.6194  1.5381
   96SAPS   H4Y 9565   1.532   1.605   7.033  1.5143  2.3574  1.6043
   96SAPS   C35 9566   1.738   1.567   7.116 -0.0836  0.6413 -0.3722
   96SAPS   H5X 9567   1.779   1.668   7.136 -3.2850  2.1460 -0.7758
   96SAPS   H5Y 9568   1.819   1.499   7.082  0.3490  1.7783 -1.7039
   96SAPS   C36 9569   1.686   1.507   7.243 -0.0605 -0.3573 -0.8514
   96SAPS   H6X 9570   1.596   1.446   7.217  0.3793 -1.6892  0.5806
   96SAPS   H6Y 9571   1.646   1.590   7.306  1.5419 -0.5249  0.4459
   96SAPS   C37 9572   1.789   1.424   7.333  0.3851 -0.5654 -0.3953
   96SAPS   H7X 9573   1.883   1.482   7.341 -0.6129  1.0491  0.0887
   96SAPS   H7Y 9574   1.805   1.325   7.286 -1.9970 -0.8003 -0.8319
   96SAPS   C38 9575   1.734   1.396   7.480  1.1183 -0.3542  0.5254
   96SAPS   H8X 9576   1.803   1.327   7.534  0.8738 -1.2079 -0.2239
   96SAPS   H8Y 9577   1.631   1.356   7.471  1.1682 -0.7169  1.4084
   96SAPS   C39 9578   1.750   1.520   7.562 -0.2913 -0.0467 -0.4856
   96SAPS   H9X 9579   1.678   1.595   7.524 -2.1966 -1.3628  0.3322
   96SAPS   H9Y 9580   1.852   1.552   7.531 -0.6321 -0.4593 -2.1394
   96SAPS  C310 9581   1.745   1.502   7.712 -0.0990 -0.5998 -0.3646
   96SAPS  H10X 9582   1.809   1.419   7.749  1.7032  0.3056 -1.3711
   96SAPS  H10Y 9583   1.645   1.479   7.755 -1.8828  0.9186 -3.3882
   96SAPS  C311 9584   1.794   1.637   7.762  0.1074  0.0556  0.0250
   96SAPS  H11X 9585   1.722   1.717   7.731 -3.8047 -1.8448  3.2111
   96SAPS  H11Y 9586   1.895   1.656   7.721 -0.1735 -0.8923 -1.1659
   96SAPS  C312 9587   1.795   1.633   7.917  0.3127  0.1179 -0.0237
   96SAPS  H12X 9588   1.886   1.571   7.933  1.7028  1.8119 -1.0750
   96SAPS  H12Y 9589   1.710   1.576   7.960 -0.9866 -0.3407 -2.9799
   96SAPS  C313 9590   1.823   1.763   7.988 -0.0780 -0.5923  0.3972
   96SAPS  H13X 9591   1.725   1.817   7.988 -0.0370 -0.3667 -2.4671
   96SAPS  H13Y 9592   1.892   1.827   7.930 -1.1418  0.2267 -0.0079
   96SAPS  C314 9593   1.884   1.748   8.128  0.3504  0.7704  0.0520
   96SAPS  H14X 9594   1.982   1.696   8.122  0.8259  1.6943 -0.4498
   96SAPS  H14Y 9595   1.817   1.681   8.185  3.0652 -1.0760  1.3127
   96SAPS  C315 9596   1.913   1.870   8.210 -0.5845 -0.4576 -0.2323
   96SAPS  H15X 9597   1.991   1.841   8.284 -1.7052  0.4810  1.3693
   96SAPS  H15Y 9598   1.824   1.902   8.268 -0.5285  0.4253 -0.6144
   96SAPS  C316 9599   1.967   1.987   8.130  1.0046  0.0287  0.6008
   96SAPS  H16X 9600   1.883   2.025   8.068  2.6697 -0.0103 -1.8343
   96SAPS  H16Y 9601   2.037   1.939   8.058 -1.9188 -0.7932 -1.9216
   96SAPS  C317 9602   2.017   2.102   8.213  0.3914 -0.7895  0.0035
   96SAPS  H17X 9603   2.071   2.175   8.150  0.4970  0.0206  0.9983
   96SAPS  H17Y 9604   2.088   2.061   8.289 -0.8821  1.1613  2.4059
   96SAPS  C318 9605   1.917   2.175   8.302  0.1617 -0.4821  0.5484
   96SAPS  H18X 9606   1.962   2.197   8.401  3.5257  0.1639 -1.0073
   96SAPS  H18Y 9607   1.829   2.110   8.326  0.1907 -0.3045  1.1481
   96SAPS  H18Z 9608   1.887   2.265   8.244 -0.9892 -0.2773  1.4152
   97SAPS     N 9609   3.552   0.538   6.607 -0.2211  0.1090  0.2939
   97SAPS   HN1 9610   3.451   0.559   6.621  0.0206 -0.0463  2.6870
   97SAPS   HN2 9611   3.578   0.452   6.660  0.1991 -1.4519 -2.2621
   97SAPS   HN3 9612   3.617   0.612   6.639  1.0713 -0.6290 -0.5357
   97SAPS   C12 9613   3.585   0.498   6.465  0.0934  0.3403 -0.3730
   97SAPS  H12A 9614   3.525   0.412   6.438 -0.1206  0.9799 -2.0963
   97SAPS   C13 9615   3.557   0.605   6.365 -0.7374 -0.0598  0.2401
   97SAPS  O13A 9616   3.508   0.717   6.396  0.1470  0.2186 -0.3514
   97SAPS  O13B 9617   3.610   0.594   6.251 -0.2507  0.4296  0.0419
   97SAPS   C11 9618   3.732   0.462   6.462  0.4666 -0.1403 -0.2076
   97SAPS  H11A 9619   3.787   0.551   6.499 -0.1013 -0.2640  0.9589
   97SAPS  H11B 9620   3.759   0.444   6.355  2.2212  0.0918  0.1603
   97SAPS     P 9621   3.901   0.288   6.580  0.1248 -0.4233  0.1779
   97SAPS   O13 9622   3.927   0.191   6.473 -0.3077 -0.6548 -0.6978
   97SAPS   O14 9623   3.999   0.394   6.595 -0.0578  0.4186  0.5255
   97SAPS   O12 9624   3.761   0.350   6.547 -0.5800  0.4157  1.2919
   97SAPS   O11 9625   3.884   0.214   6.717 -0.4339 -0.2850  0.5729
   97SAPS    C1 9626   3.791   0.110   6.733  0.3976  1.1565 -0.1516
   97SAPS    HA 9627   3.727   0.076   6.649 -0.1099 -1.7418  1.2635
   97SAPS    HB 9628   3.855   0.022   6.756 -0.6109 -1.0280 -4.6575
   97SAPS    C2 9629   3.683   0.136   6.846 -0.2196 -0.0769  0.3040
   97SAPS    HS 9630   3.592   0.159   6.788  1.4638  1.1220 -2.0461
   97SAPS   O21 9631   3.721   0.242   6.942  0.6643 -0.0284  0.1122
   97SAPS   C21 9632   3.692   0.362   6.909  0.0849 -0.4398  0.0953
   97SAPS   O22 9633   3.611   0.397   6.824  0.2337  0.1320 -0.5342
   97SAPS   C22 9634   3.777   0.470   6.991  0.8805 -0.6192  1.1718
   97SAPS   H2R 9635   3.771   0.435   7.097 -1.9528 -1.0878  0.9316
   97SAPS   H2S 9636   3.877   0.460   6.945 -0.1652 -2.7266 -0.8430
   97SAPS    C3 9637   3.670   0.001   6.932 -0.1105  0.1091  0.1535
   97SAPS    HX 9638   3.654  -0.079   6.856 -1.6065 -1.8374  2.3714
   97SAPS    HY 9639   3.588   0.002   7.006 -1.9302 -1.1362 -1.7371
   97SAPS   O31 9640   3.798  -0.032   6.996  0.4110  0.1266  0.3791
   97SAPS   C31 9641   3.818   0.023   7.108 -0.1693  0.7535 -0.7952
   97SAPS   O32 9642   3.738   0.087   7.176 -0.4851  0.6223 -0.7419
   97SAPS   C32 9643   3.959  -0.008   7.151  0.0309  0.3335  0.0014
   97SAPS   H2X 9644   4.024   0.051   7.084 -0.1989  1.5982  0.8680
   97SAPS   H2Y 9645   3.987  -0.116   7.145  2.3662  0.9628 -3.8506
   97SAPS   C23 9646   3.712   0.609   6.982  0.2645  0.2229 -0.5132
   97SAPS   H3R 9647   3.608   0.610   7.019  0.5002  5.0836  0.6958
   97SAPS   H3S 9648   3.683   0.648   6.882  1.1449  0.5147 -0.6679
   97SAPS   C24 9649   3.781   0.706   7.082 -0.0596 -0.2595  0.5037
   97SAPS   H4R 9650   3.735   0.688   7.181  0.3576 -0.0877  0.7278
   97SAPS   H4S 9651   3.741   0.802   7.043  0.2690 -0.6925 -0.9996
   97SAPS   C25 9652   3.931   0.703   7.082  0.7705 -0.3207  0.1799
   97SAPS   H5R 9653   3.981   0.743   6.993  0.9750  0.5898  0.6845
   97SAPS   C26 9654   4.012   0.670   7.190  0.3902 -1.0723  0.0015
   97SAPS   H6R 9655   4.119   0.675   7.162  0.3168 -4.0568 -1.1508
   97SAPS   C27 9656   3.963   0.630   7.331  0.0637  0.2786  0.1007
   97SAPS   H7R 9657   3.861   0.663   7.361 -0.1451 -1.0339  0.9328
   97SAPS   H7S 9658   4.032   0.670   7.408  0.7717  2.6598 -1.6864
   97SAPS   C28 9659   3.965   0.485   7.348 -0.4673 -0.5885  0.1012
   97SAPS   H8R 9660   4.016   0.430   7.268  0.1682 -0.3741  0.3549
   97SAPS   C29 9661   3.909   0.410   7.440 -0.4040  0.3120 -0.1119
   97SAPS   H9R 9662   3.931   0.302   7.446  0.0141  0.3926 -0.1921
   97SAPS  C210 9663   3.821   0.450   7.559 -0.7405  0.0733 -0.2039
   97SAPS  H10R 9664   3.893   0.480   7.638 -0.2303  3.1622 -1.6875
   97SAPS  H10S 9665   3.777   0.356   7.599 -1.0930 -0.1591 -1.1285
   97SAPS  C211 9666   3.708   0.543   7.538  0.2911  0.4288  0.0864
   97SAPS  H11R 9667   3.653   0.531   7.444 -1.9128 -1.8104  1.5031
   97SAPS  C212 9668   3.660   0.629   7.627 -0.5158 -0.2173  0.6664
   97SAPS  H12R 9669   3.569   0.675   7.584  0.0879 -1.9535 -2.8612
   97SAPS  C213 9670   3.720   0.650   7.764 -0.1137  0.1439  0.2411
   97SAPS  H13R 9671   3.773   0.747   7.770  0.0583 -0.0118  1.9042
   97SAPS  H13S 9672   3.805   0.584   7.793 -1.5570 -1.1694  1.7332
   97SAPS  C214 9673   3.609   0.620   7.862  0.4323  0.1422  0.0790
   97SAPS  H14R 9674   3.535   0.545   7.828  1.8883 -1.4708  0.3425
   97SAPS  C215 9675   3.606   0.673   7.982  0.4478 -0.4105 -0.1165
   97SAPS  H15R 9676   3.519   0.665   8.049  1.9795  0.0853  2.0328
   97SAPS  C216 9677   3.703   0.770   8.038 -0.3411 -0.3498 -0.3180
   97SAPS  H16R 9678   3.660   0.869   8.065 -0.4433 -0.2857 -0.7099
   97SAPS  H16S 9679   3.786   0.794   7.969  0.4372  0.8347  0.9895
   97SAPS  C217 9680   3.767   0.720   8.165  0.1196  0.2606 -0.1808
   97SAPS  H17R 9681   3.811   0.618   8.158 -2.1365 -0.7584 -0.4471
   97SAPS  H17S 9682   3.684   0.717   8.240  0.5548  0.0714  0.2987
   97SAPS  C218 9683   3.881   0.818   8.210 -0.2060 -0.6913  0.2051
   97SAPS  H18R 9684   3.855   0.925   8.197  0.0502 -0.6280  0.2043
   97SAPS  H18S 9685   3.978   0.806   8.157  0.5962  1.3115  1.1263
   97SAPS  C219 9686   3.921   0.796   8.357 -0.2089  0.4986  0.1133
   97SAPS  H19R 9687   3.829   0.775   8.416 -0.9285  0.3153 -1.0293
   97SAPS  H19S 9688   3.968   0.884   8.405  1.5600  0.5140 -1.5206
   97SAPS  C220 9689   4.021   0.688   8.384 -0.0275  0.5631 -0.1062
   97SAPS  H20R 9690   4.062   0.708   8.485  1.9655 -1.8490 -0.3551
   97SAPS  H20S 9691   4.114   0.705   8.325 -0.3539  0.6836 -0.5951
   97SAPS  H20T 9692   3.982   0.584   8.370  0.4353  0.2901  0.5834
   97SAPS   C33 9693   3.988   0.040   7.295 -0.1953 -0.3911 -0.1409
   97SAPS   H3X 9694   3.917  -0.003   7.369 -1.5022  0.3237 -0.9299
   97SAPS   H3Y 9695   3.970   0.148   7.315 -0.3636 -0.4075 -0.1966
   97SAPS   C34 9696   4.136   0.014   7.330  0.3657  0.1133 -0.3711
   97SAPS   H4X 9697   4.197   0.080   7.265  1.2730 -0.3851 -0.0416
   97SAPS   H4Y 9698   4.166  -0.093   7.330  1.4528  0.2795  3.2470
   97SAPS   C35 9699   4.167   0.068   7.473  0.3206 -0.8383 -0.0129
   97SAPS   H5X 9700   4.113   0.164   7.487 -1.2748 -1.6245 -0.5466
   97SAPS   H5Y 9701   4.277   0.085   7.485  0.0891  1.6507 -0.8600
   97SAPS   C36 9702   4.132  -0.034   7.578  0.4021  0.1189 -0.1406
   97SAPS   H6X 9703   4.198  -0.123   7.569 -0.4209 -0.4450 -0.7973
   97SAPS   H6Y 9704   4.026  -0.066   7.568  0.5980 -0.6335  0.0926
   97SAPS   C37 9705   4.129   0.021   7.722 -0.0057  0.1344 -0.0353
   97SAPS   H7X 9706   4.048   0.097   7.718 -0.4224 -0.3077 -0.1623
   97SAPS   H7Y 9707   4.227   0.067   7.749  0.2897 -0.1560 -0.6013
   97SAPS   C38 9708   4.095  -0.085   7.827  0.1826 -0.1248 -0.0727
   97SAPS   H8X 9709   4.184  -0.150   7.843 -0.8519 -2.0627 -1.6885
   97SAPS   H8Y 9710   4.011  -0.152   7.798 -0.2841 -0.3987  1.7398
   97SAPS   C39 9711   4.065  -0.014   7.958  0.4657 -0.5147 -0.6597
   97SAPS   H9X 9712   3.986   0.065   7.957 -0.6504 -1.5817 -2.4151
   97SAPS   H9Y 9713   4.161   0.038   7.979  1.5485 -2.9523  0.8495
   97SAPS  C310 9714   4.043  -0.114   8.070 -0.2077  0.3431 -0.8512
   97SAPS  H10X 9715   4.127  -0.186   8.068 -0.7201 -0.2632 -1.0587
   97SAPS  H10Y 9716   3.949  -0.170   8.048  0.0546 -0.9497  1.0450
   97SAPS  C311 9717   4.039  -0.046   8.211 -0.7985  0.0156  0.0769
   97SAPS  H11X 9718   3.975   0.044   8.194  1.1628  1.6259  0.9463
   97SAPS  H11Y 9719   4.140  -0.004   8.227 -1.3538  0.2222  3.8132
   97SAPS  C312 9720   4.000  -0.141   8.325  0.7731 -0.2211 -0.0388
   97SAPS  H12X 9721   4.076  -0.222   8.329 -0.5544 -1.4485  2.7557
   97SAPS  H12Y 9722   3.904  -0.192   8.301  0.5257 -0.7220  1.8844
   97SAPS  C313 9723   3.992  -0.075   8.465  0.1839  0.6150  0.3846
   97SAPS  H13X 9724   4.094  -0.054   8.503  0.9280  0.1872 -1.2468
   97SAPS  H13Y 9725   3.953  -0.149   8.538  0.7079  0.6939  0.7524
   97SAPS  C314 9726   3.901   0.045   8.470 -0.2170  0.8389  0.2078
   97SAPS  H14X 9727   3.801   0.002   8.494 -0.4430  0.4550 -1.3362
   97SAPS  H14Y 9728   3.888   0.108   8.379  0.1096  1.5675  0.6542
   97SAPS  C315 9729   3.942   0.147   8.584 -0.3618  0.2830  0.0765
   97SAPS  H15X 9730   3.873   0.234   8.589 -0.1501  0.5657 -1.4101
   97SAPS  H15Y 9731   4.045   0.185   8.563 -0.6198 -0.2196 -2.4007
   97SAPS  C316 9732   3.940   0.082   8.725  0.3993  0.3203 -0.5055
   97SAPS  H16X 9733   3.965  -0.026   8.715  0.2404  0.1883  0.4322
   97SAPS  H16Y 9734   3.838   0.087   8.770 -0.7780  1.1200 -3.0370
   97SAPS  C317 9735   4.051   0.136   8.827 -0.1459 -0.1915  0.7792
   97SAPS  H17X 9736   4.030   0.243   8.847 -2.0607 -0.3604 -0.0950
   97SAPS  H17Y 9737   4.145   0.120   8.769 -1.3392 -0.4992 -1.1651
   97SAPS  C318 9738   4.050   0.058   8.958 -0.1440  0.8191 -0.2799
   97SAPS  H18X 9739   4.125   0.079   9.036 -0.4952  1.9591 -0.2346
   97SAPS  H18Y 9740   4.058  -0.050   8.931 -0.9031  0.6468  0.1465
   97SAPS  H18Z 9741   3.952   0.073   9.008 -0.8450 -1.3864 -0.8407
   98SAPS     N 9742   2.714   4.907   5.893 -0.0526 -0.0961  0.4703
   98SAPS   HN1 9743   2.726   4.876   5.991  1.2538 -0.6014  0.1773
   98SAPS   HN2 9744   2.635   4.854   5.849  0.5121 -0.9500  0.4494
   98SAPS   HN3 9745   2.799   4.877   5.840 -1.5864 -0.7857 -1.7923
   98SAPS   C12 9746   2.683   5.055   5.875 -0.1236  0.4937 -0.6746
   98SAPS  H12A 9747   2.662   5.068   5.770  0.4454  0.9273 -0.7410
   98SAPS   C13 9748   2.560   5.104   5.955 -0.0318 -0.2938  0.4189
   98SAPS  O13A 9749   2.504   5.024   6.039  0.2124  0.3462 -0.3378
   98SAPS  O13B 9750   2.531   5.226   5.951  0.6083  0.5693  0.2680
   98SAPS   C11 9751   2.809   5.129   5.927  0.0233 -0.6876 -0.0404
   98SAPS  H11A 9752   2.778   5.235   5.930  1.7115 -0.1200 -1.1698
   98SAPS  H11B 9753   2.894   5.128   5.856 -0.5229  1.5445 -0.7966
   98SAPS     P 9754   2.999   5.085   6.110 -0.0498  0.1355 -0.0045
   98SAPS   O13 9755   3.071   4.976   6.039  0.3176 -0.1784 -0.5382
   98SAPS   O14 9756   3.056   5.223   6.115 -0.9339 -0.0750 -0.3251
   98SAPS   O12 9757   2.856   5.091   6.056  0.4697  0.3079  0.0098
   98SAPS   O11 9758   2.971   5.030   6.256 -0.7342 -0.0357 -0.2594
   98SAPS    C1 9759   2.909   5.119   6.346  0.0838  0.0293 -0.0269
   98SAPS    HA 9760   2.849   5.198   6.297 -1.0425  0.1424  1.4682
   98SAPS    HB 9761   2.833   5.055   6.396  1.1891 -1.4788 -0.2115
   98SAPS    C2 9762   3.007   5.170   6.456 -0.0438 -0.5645 -0.1330
   98SAPS    HS 9763   3.067   5.245   6.401  1.9705 -1.2341  1.0306
   98SAPS   O21 9764   3.088   5.064   6.509 -0.4009  0.0747 -0.2604
   98SAPS   C21 9765   3.032   4.972   6.582  0.3773 -0.7015 -0.5415
   98SAPS   O22 9766   2.912   4.974   6.613 -0.0446 -0.0378  0.0298
   98SAPS   C22 9767   3.131   4.874   6.648 -0.1443  0.0319 -0.1624
   98SAPS   H2R 9768   3.118   4.777   6.595  1.6696 -0.5304  0.3709
   98SAPS   H2S 9769   3.234   4.914   6.641  0.2554 -1.0479 -0.6409
   98SAPS    C3 9770   2.938   5.256   6.567  0.2843 -0.9540 -0.5938
   98SAPS    HX 9771   2.846   5.203   6.599  0.6458 -2.5728 -2.0885
   98SAPS    HY 9772   2.892   5.351   6.532  1.5295  2.0504  4.8436
   98SAPS   O31 9773   3.024   5.285   6.682 -0.4095  0.5957 -0.5076
   98SAPS   C31 9774   2.997   5.388   6.756 -0.0804 -0.0161 -0.3656
   98SAPS   O32 9775   2.895   5.457   6.740  0.1431 -0.3012 -0.4590
   98SAPS   C32 9776   3.125   5.420   6.843 -0.3738  0.6405 -0.3848
   98SAPS   H2X 9777   3.186   5.489   6.781 -0.0253  2.6538  2.0750
   98SAPS   H2Y 9778   3.173   5.324   6.873  0.0542  0.5175 -1.4192
   98SAPS   C23 9779   3.093   4.847   6.796 -0.2540  0.1172  0.5651
   98SAPS   H3R 9780   3.139   4.753   6.831 -0.5920  0.0128  0.7319
   98SAPS   H3S 9781   2.985   4.826   6.811 -0.3869 -0.6497 -1.2843
   98SAPS   C24 9782   3.123   4.972   6.878  0.1393 -0.4524  0.4293
   98SAPS   H4R 9783   3.079   4.957   6.979  0.1111  0.1227  0.5020
   98SAPS   H4S 9784   3.063   5.054   6.833 -0.2231 -0.2729  1.2244
   98SAPS   C25 9785   3.271   5.004   6.883 -0.4250  0.1987  0.4247
   98SAPS   H5R 9786   3.332   5.013   6.792  0.4044 -0.3359  0.9096
   98SAPS   C26 9787   3.344   5.013   6.990  0.3258  0.5468 -0.2120
   98SAPS   H6R 9788   3.448   5.039   6.968  1.1002 -2.0520  0.0815
   98SAPS   C27 9789   3.303   5.000   7.137  0.3823 -0.3052  0.9695
   98SAPS   H7R 9790   3.403   5.004   7.185  0.2275 -1.6744  1.4493
   98SAPS   H7S 9791   3.268   4.895   7.149 -0.2316 -0.1472  0.5953
   98SAPS   C28 9792   3.206   5.106   7.180 -0.3358  0.6040 -0.1134
   98SAPS   H8R 9793   3.150   5.164   7.105 -2.0103 -1.0418 -0.2166
   98SAPS   C29 9794   3.165   5.107   7.311 -0.2652 -0.6270  0.0226
   98SAPS   H9R 9795   3.101   5.189   7.346  0.2087 -0.1308 -0.2526
   98SAPS  C210 9796   3.210   5.012   7.418  0.4516  0.2800 -0.4429
   98SAPS  H10R 9797   3.297   4.951   7.387 -0.2505  0.1884 -2.3390
   98SAPS  H10S 9798   3.124   4.945   7.440  1.4155 -0.6843  0.5006
   98SAPS  C211 9799   3.253   5.087   7.541  0.3171  0.2231 -0.3576
   98SAPS  H11R 9800   3.344   5.149   7.536  0.6019  0.2890  3.2709
   98SAPS  C212 9801   3.205   5.074   7.662  0.1199 -0.4526  0.4271
   98SAPS  H12R 9802   3.251   5.126   7.747  0.8757 -1.2325  0.5071
   98SAPS  C213 9803   3.092   4.973   7.705  0.0835 -0.0902  0.1801
   98SAPS  H13R 9804   3.142   4.877   7.732 -0.3987 -0.3719  0.0791
   98SAPS  H13S 9805   3.028   4.945   7.619  0.9492 -1.0775 -0.1703
   98SAPS  C214 9806   3.003   5.033   7.813 -0.3121 -0.3314  0.2400
   98SAPS  H14R 9807   3.047   5.056   7.911  0.5474 -1.5856  0.1754
   98SAPS  C215 9808   2.875   5.067   7.802 -0.2868  0.4785  0.0154
   98SAPS  H15R 9809   2.818   5.094   7.893  0.1848  0.1964  0.3985
   98SAPS  C216 9810   2.788   5.052   7.680  0.3946  0.2678 -0.1173
   98SAPS  H16R 9811   2.850   5.051   7.588  0.9382  1.9023  0.1866
   98SAPS  H16S 9812   2.720   5.140   7.679 -0.3793 -0.3271 -0.3343
   98SAPS  C217 9813   2.706   4.921   7.678  0.0036 -0.0460  0.1149
   98SAPS  H17R 9814   2.657   4.892   7.773 -0.8852 -0.7690 -0.5386
   98SAPS  H17S 9815   2.777   4.836   7.676  0.4279  0.2250  1.8214
   98SAPS  C218 9816   2.610   4.916   7.561 -0.3130  0.7953  0.2861
   98SAPS  H18R 9817   2.574   4.813   7.543 -1.1606  1.0411  0.5161
   98SAPS  H18S 9818   2.658   4.956   7.469  1.0387  2.7972  1.7736
   98SAPS  C219 9819   2.487   5.008   7.580 -0.0672 -0.3986  0.2925
   98SAPS  H19R 9820   2.516   5.114   7.565  0.1860 -0.5413 -0.2585
   98SAPS  H19S 9821   2.440   4.994   7.680 -1.6610 -0.3164 -0.4106
   98SAPS  C220 9822   2.389   4.978   7.476  0.5110 -0.1474 -0.1033
   98SAPS  H20R 9823   2.328   5.069   7.459 -1.1567 -1.4983 -1.7525
   98SAPS  H20S 9824   2.322   4.894   7.503  0.4931 -0.0548  0.1421
   98SAPS  H20T 9825   2.433   4.948   7.378 -1.0188 -2.2347 -0.2030
   98SAPS   C33 9826   3.086   5.510   6.964 -0.5196  0.4393 -0.4580
   98SAPS   H3X 9827   3.033   5.601   6.930 -2.7966 -0.0919  1.4346
   98SAPS   H3Y 9828   3.182   5.535   7.015 -0.1086 -1.3167 -0.3046
   98SAPS   C34 9829   2.991   5.440   7.066  0.0297 -0.0282  0.2878
   98SAPS   H4X 9830   3.006   5.332   7.090 -1.9281 -0.6980 -1.2472
   98SAPS   H4Y 9831   2.889   5.450   7.025  1.2316  1.2569 -2.7063
   98SAPS   C35 9832   2.998   5.510   7.203  0.1635  0.2312  0.6006
   98SAPS   H5X 9833   2.973   5.619   7.203 -1.1795 -0.0536  0.6872
   98SAPS   H5Y 9834   3.096   5.500   7.254 -0.4233  0.1215  1.7498
   98SAPS   C36 9835   2.898   5.447   7.301  0.5071  0.1117 -0.6730
   98SAPS   H6X 9836   2.939   5.345   7.322 -3.2408 -1.2881  0.6627
   98SAPS   H6Y 9837   2.794   5.444   7.264 -0.3838  3.9916  1.1332
   98SAPS   C37 9838   2.884   5.507   7.440 -0.3143 -0.5316  0.1827
   98SAPS   H7X 9839   2.816   5.594   7.442  0.4695  0.1961  3.9815
   98SAPS   H7Y 9840   2.989   5.531   7.468  0.1407 -0.5522 -1.4106
   98SAPS   C38 9841   2.839   5.398   7.548 -0.2456 -0.0673 -0.1299
   98SAPS   H8X 9842   2.913   5.315   7.555 -0.3973 -0.0638  2.1744
   98SAPS   H8Y 9843   2.740   5.356   7.522  0.6622 -2.2242 -0.2878
   98SAPS   C39 9844   2.832   5.470   7.686  0.0222  0.1361  0.2850
   98SAPS   H9X 9845   2.771   5.409   7.756 -2.9124  3.3731  0.8936
   98SAPS   H9Y 9846   2.792   5.574   7.689  2.4525  1.1232  1.1258
   98SAPS  C310 9847   2.977   5.474   7.740 -0.4691  0.3967  0.1907
   98SAPS  H10X 9848   3.032   5.560   7.696  1.3375 -0.1064  1.3504
   98SAPS  H10Y 9849   3.030   5.393   7.687  0.6990  1.5317 -0.4387
   98SAPS  C311 9850   2.995   5.462   7.892  0.6109 -0.1697 -0.5445
   98SAPS  H11X 9851   3.101   5.449   7.921  0.7990 -3.5429 -2.2069
   98SAPS  H11Y 9852   2.940   5.370   7.923 -1.6160  0.9211 -1.0281
   98SAPS  C312 9853   2.949   5.602   7.956  0.2991 -0.0608 -0.6276
   98SAPS  H12X 9854   2.841   5.616   7.932 -0.4899 -1.8763  1.5003
   98SAPS  H12Y 9855   3.006   5.690   7.918  0.2960  0.4896  0.6011
   98SAPS  C313 9856   2.950   5.604   8.110  0.4105  0.7121 -0.3390
   98SAPS  H13X 9857   2.933   5.706   8.149 -2.2753  0.3689 -0.3832
   98SAPS  H13Y 9858   3.047   5.567   8.149 -0.2166  1.2958  1.8923
   98SAPS  C314 9859   2.838   5.511   8.178 -0.1022  0.6297 -0.0828
   98SAPS  H14X 9860   2.860   5.403   8.163 -2.8504 -0.1784  1.1353
   98SAPS  H14Y 9861   2.747   5.528   8.117 -0.7959 -1.6675  0.2115
   98SAPS  C315 9862   2.814   5.535   8.329  0.2872 -0.4706 -0.0311
   98SAPS  H15X 9863   2.917   5.527   8.369  0.7600  0.1580 -1.0768
   98SAPS  H15Y 9864   2.755   5.446   8.359  1.5037 -0.7108  1.8225
   98SAPS  C316 9865   2.750   5.671   8.365 -0.2910 -0.7007 -0.3982
   98SAPS  H16X 9866   2.657   5.691   8.307  0.7660  3.2124 -1.0956
   98SAPS  H16Y 9867   2.818   5.756   8.340  1.0488 -1.5455  0.3049
   98SAPS  C317 9868   2.729   5.697   8.519  0.9037  1.0781 -0.2446
   98SAPS  H17X 9869   2.672   5.604   8.542 -0.7371  1.7718 -1.3203
   98SAPS  H17Y 9870   2.658   5.780   8.535  0.6619  0.8414 -0.0721
   98SAPS  C318 9871   2.855   5.706   8.605 -0.5775 -0.0060  0.1148
   98SAPS  H18X 9872   2.824   5.752   8.701 -1.2848  3.4281 -1.6147
   98SAPS  H18Y 9873   2.915   5.789   8.563 -2.3953  0.8959 -0.8197
   98SAPS  H18Z 9874   2.898   5.605   8.619 -1.2365 -0.4410 -0.8496
   99SAPS     N 9875   3.025   4.733   6.212  0.1593  0.1823 -0.3201
   99SAPS   HN1 9876   3.032   4.658   6.140  2.5451 -1.4047  1.4046
   99SAPS   HN2 9877   3.029   4.825   6.162  2.1042  0.0435 -0.4827
   99SAPS   HN3 9878   3.115   4.725   6.263 -0.0157  1.3003  0.1907
   99SAPS   C12 9879   2.901   4.708   6.299  0.3312  0.9687  0.1133
   99SAPS  H12A 9880   2.884   4.795   6.360 -2.4612  0.3588  0.3542
   99SAPS   C13 9881   2.771   4.701   6.210 -0.4792 -0.1070 -0.3322
   99SAPS  O13A 9882   2.773   4.730   6.092 -0.0421 -0.3888  0.0780
   99SAPS  O13B 9883   2.665   4.663   6.265 -0.0346  0.2737  0.3360
   99SAPS   C11 9884   2.927   4.567   6.371 -0.5073  0.1698  0.1705
   99SAPS  H11A 9885   2.931   4.494   6.287  0.3639 -0.6667  0.9201
   99SAPS  H11B 9886   2.841   4.537   6.435 -2.1369 -0.6034 -2.2554
   99SAPS     P 9887   3.124   4.442   6.502  0.1206  0.0994 -0.4441
   99SAPS   O13 9888   3.149   4.333   6.409 -0.3621  0.0803  0.1138
   99SAPS   O14 9889   3.246   4.500   6.564 -0.0869  0.2505  0.3538
   99SAPS   O12 9890   3.054   4.565   6.435  0.0013 -0.3786 -0.3660
   99SAPS   O11 9891   3.029   4.393   6.609  0.5200  0.2252 -0.0454
   99SAPS    C1 9892   2.991   4.494   6.717 -1.0745  0.5617  0.3296
   99SAPS    HA 9893   3.080   4.521   6.778  0.6797 -1.1158 -1.3680
   99SAPS    HB 9894   2.952   4.586   6.668  0.7004  1.1983  0.0413
   99SAPS    C2 9895   2.882   4.435   6.807 -0.5609  0.1861  0.1400
   99SAPS    HS 9896   2.796   4.415   6.739 -1.0910 -2.3383  1.4352
   99SAPS   O21 9897   2.854   4.517   6.924 -0.4001  0.1959  0.1726
   99SAPS   C21 9898   2.774   4.618   6.906 -0.3051  0.9605 -0.0475
   99SAPS   O22 9899   2.703   4.640   6.810 -0.5687 -0.2334  0.4781
   99SAPS   C22 9900   2.784   4.702   7.030  0.1217  0.3234 -0.6117
   99SAPS   H2R 9901   2.812   4.645   7.121 -0.5253  0.0810 -0.5595
   99SAPS   H2S 9902   2.874   4.765   7.012  0.5441 -0.1857 -0.3162
   99SAPS    C3 9903   2.916   4.291   6.852  0.4702  1.0184 -0.4521
   99SAPS    HX 9904   2.992   4.285   6.933  1.1404  0.7052 -1.0886
   99SAPS    HY 9905   2.954   4.226   6.770  0.6923  1.0627 -0.3863
   99SAPS   O31 9906   2.804   4.225   6.912 -0.3790  0.7670 -0.8028
   99SAPS   C31 9907   2.757   4.113   6.864 -0.0617  0.1274  0.7046
   99SAPS   O32 9908   2.789   4.056   6.759  0.1950 -0.1304 -0.2952
   99SAPS   C32 9909   2.640   4.060   6.947 -0.2939 -0.7546  0.7927
   99SAPS   H2X 9910   2.602   3.973   6.890  0.8417 -0.3570 -0.6629
   99SAPS   H2Y 9911   2.571   4.147   6.946  2.1744  1.3461 -0.1041
   99SAPS   C23 9912   2.656   4.785   7.057 -0.5983  0.4091  0.7122
   99SAPS   H3R 9913   2.564   4.724   7.062 -0.4157  0.1235  0.6423
   99SAPS   H3S 9914   2.634   4.859   6.977  1.6644  0.4814  0.0725
   99SAPS   C24 9915   2.658   4.874   7.182 -0.4551 -0.2216  0.0907
   99SAPS   H4R 9916   2.663   4.808   7.271  1.6708  1.4624  1.3274
   99SAPS   H4S 9917   2.558   4.921   7.185 -0.7057 -0.7656  0.5769
   99SAPS   C25 9918   2.772   4.976   7.185  0.0403 -0.3481 -0.4889
   99SAPS   H5R 9919   2.871   4.936   7.213  0.3556  0.8814  0.2189
   99SAPS   C26 9920   2.760   5.105   7.154  0.7966 -0.1994 -0.2789
   99SAPS   H6R 9921   2.850   5.167   7.165 -0.9565  2.2166  1.6818
   99SAPS   C27 9922   2.649   5.201   7.115 -0.3750 -0.2965 -0.1354
   99SAPS   H7R 9923   2.661   5.295   7.172  1.8856 -0.0179 -0.9528
   99SAPS   H7S 9924   2.551   5.153   7.133  0.6583 -3.5119 -2.1302
   99SAPS   C28 9925   2.666   5.245   6.970 -0.3538  0.4642 -0.3909
   99SAPS   H8R 9926   2.758   5.203   6.926 -0.6579 -0.1177 -0.4737
   99SAPS   C29 9927   2.582   5.313   6.888  0.0547  0.5384 -0.2112
   99SAPS   H9R 9928   2.617   5.329   6.785  2.3539 -0.0397  0.4125
   99SAPS  C210 9929   2.448   5.360   6.938 -0.1541 -0.8582 -0.4129
   99SAPS  H10R 9930   2.460   5.458   6.988 -0.9769 -1.2677  0.5973
   99SAPS  H10S 9931   2.418   5.292   7.020 -0.4843 -1.0280 -0.6739
   99SAPS  C211 9932   2.337   5.374   6.841  0.1559 -0.2472  0.3858
   99SAPS  H11R 9933   2.373   5.413   6.744 -1.3481  1.6561  0.5284
   99SAPS  C212 9934   2.204   5.359   6.842 -1.0280  0.3090  0.2868
   99SAPS  H12R 9935   2.155   5.368   6.744  0.0212  1.1450 -0.1845
   99SAPS  C213 9936   2.126   5.301   6.953 -0.5544 -0.1998 -0.1541
   99SAPS  H13R 9937   2.185   5.217   6.997 -0.5950 -1.1690 -1.8447
   99SAPS  H13S 9938   2.025   5.271   6.917 -1.4511  1.8102  0.5884
   99SAPS  C214 9939   2.092   5.415   7.047 -0.1432 -0.2466  0.2802
   99SAPS  H14R 9940   2.065   5.503   6.986 -0.5633  0.1396  1.0154
   99SAPS  C215 9941   2.109   5.432   7.179 -0.6907 -0.5614  0.2591
   99SAPS  H15R 9942   2.070   5.527   7.219  0.3508  0.2797 -0.6291
   99SAPS  C216 9943   2.162   5.333   7.275 -0.5756 -0.0421  0.8387
   99SAPS  H16R 9944   2.151   5.230   7.235  1.2491  0.7958 -2.1046
   99SAPS  H16S 9945   2.112   5.352   7.372 -2.4647  2.5953 -0.5573
   99SAPS  C217 9946   2.314   5.350   7.300  0.5810 -0.2898 -0.8491
   99SAPS  H17R 9947   2.364   5.352   7.201  3.1727 -0.6440  0.3572
   99SAPS  H17S 9948   2.352   5.263   7.358 -1.8634  0.5424  2.2686
   99SAPS  C218 9949   2.337   5.474   7.390 -0.6487  0.3104  0.1316
   99SAPS  H18R 9950   2.297   5.452   7.491  0.3421 -2.8765 -0.0346
   99SAPS  H18S 9951   2.278   5.559   7.349 -1.6848 -1.0091 -1.2374
   99SAPS  C219 9952   2.482   5.535   7.381 -0.0580  0.2546 -0.2800
   99SAPS  H19R 9953   2.561   5.463   7.413  0.5275  0.4713 -1.2223
   99SAPS  H19S 9954   2.489   5.619   7.454  0.6167  0.7954 -0.9458
   99SAPS  C220 9955   2.519   5.588   7.244  0.8104 -0.7189 -0.6167
   99SAPS  H20R 9956   2.443   5.656   7.200  0.1017 -0.9858  0.1668
   99SAPS  H20S 9957   2.533   5.504   7.173  1.9581  0.1615 -1.4697
   99SAPS  H20T 9958   2.612   5.649   7.242  1.2804 -1.4267 -1.4364
   99SAPS   C33 9959   2.691   4.029   7.093 -0.2795 -0.2291 -0.0660
   99SAPS   H3X 9960   2.738   4.124   7.127 -1.9292  0.6119 -0.0582
   99SAPS   H3Y 9961   2.770   3.950   7.089  0.1671  0.2070 -3.8097
   99SAPS   C34 9962   2.574   3.985   7.180 -0.9089 -0.0122 -0.3107
   99SAPS   H4X 9963   2.500   3.925   7.122  0.1493  0.4320 -2.1981
   99SAPS   H4Y 9964   2.514   4.070   7.218 -1.0840 -1.1075  2.0449
   99SAPS   C35 9965   2.622   3.905   7.305  0.2681  0.3425  0.0512
   99SAPS   H5X 9966   2.706   3.959   7.352 -1.6252  2.1110  1.5933
   99SAPS   H5Y 9967   2.667   3.806   7.285 -2.2046 -1.6469  3.3562
   99SAPS   C36 9968   2.512   3.894   7.411  0.3785  0.2999  0.1285
   99SAPS   H6X 9969   2.418   3.846   7.379  0.1085  0.4185  0.7291
   99SAPS   H6Y 9970   2.498   4.002   7.434  1.6524 -0.0104  2.8225
   99SAPS   C37 9971   2.541   3.837   7.555 -0.6001 -0.1390 -0.0577
   99SAPS   H7X 9972   2.611   3.898   7.616 -1.2853 -0.1948  0.8011
   99SAPS   H7Y 9973   2.573   3.731   7.551  0.5268  0.1825  0.0246
   99SAPS   C38 9974   2.415   3.852   7.639  0.0254  0.7802  0.7495
   99SAPS   H8X 9975   2.337   3.789   7.590 -0.3843  1.1356  0.9414
   99SAPS   H8Y 9976   2.387   3.959   7.636  1.2216  1.0896 -1.3062
   99SAPS   C39 9977   2.428   3.770   7.770  0.6425 -0.4179  0.1549
   99SAPS   H9X 9978   2.455   3.665   7.745 -0.2620 -0.4614 -0.6873
   99SAPS   H9Y 9979   2.325   3.762   7.810  0.1572 -0.2478 -1.0211
   99SAPS  C310 9980   2.532   3.822   7.873 -0.1282  0.2854 -0.3639
   99SAPS  H10X 9981   2.631   3.825   7.822  0.4302  4.0069  0.6746
   99SAPS  H10Y 9982   2.547   3.751   7.957  0.4541  1.5107  0.5838
   99SAPS  C311 9983   2.497   3.955   7.934  0.2675 -0.1182 -0.4224
   99SAPS  H11X 9984   2.494   4.026   7.849 -0.7173  2.4085  1.5724
   99SAPS  H11Y 9985   2.574   3.998   8.001  0.8108  0.5516 -1.4489
   99SAPS  C312 9986   2.363   3.977   8.005 -0.0070  0.3682 -0.0713
   99SAPS  H12X 9987   2.276   3.954   7.940  0.8866 -0.4277 -1.0279
   99SAPS  H12Y 9988   2.360   4.085   8.033  1.6073  0.5864 -0.6047
   99SAPS  C313 9989   2.340   3.887   8.133  0.1944 -0.0225  0.7930
   99SAPS  H13X 9990   2.345   3.779   8.106  1.1577  0.3091 -0.4303
   99SAPS  H13Y 9991   2.239   3.921   8.165 -0.3367 -1.1113  0.3216
   99SAPS  C314 9992   2.415   3.919   8.264 -0.5076  1.0401  0.5512
   99SAPS  H14X 9993   2.346   3.915   8.351 -0.6656  2.3628  0.5004
   99SAPS  H14Y 9994   2.450   4.024   8.252  0.5134  0.4368 -2.8953
   99SAPS  C315 9995   2.531   3.823   8.283  0.2376  0.5350  1.2394
   99SAPS  H15X 9996   2.614   3.858   8.217  0.2287 -1.2889  0.2185
   99SAPS  H15Y 9997   2.495   3.725   8.244 -3.1388  0.7699  3.3733
   99SAPS  C316 9998   2.564   3.801   8.430 -0.0837  0.4660 -0.2978
   99SAPS  H16X 9999   2.474   3.751   8.473 -0.1707 -0.6726 -1.6914
   99SAPS  H16Y10000   2.572   3.895   8.487 -0.0988  0.2431  0.0718
   99SAPS  C31710001   2.685   3.717   8.464  0.1075 -0.1406 -0.7683
   99SAPS  H17X10002   2.737   3.664   8.381 -0.3165 -1.2429 -0.3416
   99SAPS  H17Y10003   2.652   3.625   8.517 -2.0934  0.4606 -1.0039
   99SAPS  C31810004   2.783   3.796   8.551  1.0142 -0.1556 -0.1764
   99SAPS  H18X10005   2.727   3.837   8.638  1.7590  0.1597  0.1722
   99SAPS  H18Y10006   2.819   3.879   8.487  2.8471 -1.3809 -0.8389
   99SAPS  H18Z10007   2.870   3.743   8.597  0.8360 -0.8314 -0.6059
  100SAPS     N10008   4.331   5.934   6.211  0.2447 -0.2819  0.8592
  100SAPS   HN110009   4.270   6.019   6.211  0.4946 -0.1005  0.8306
  100SAPS   HN210010   4.380   5.912   6.122  0.2203 -0.7277  0.9538
  100SAPS   HN310011   4.278   5.850   6.244  1.0628 -1.2125 -0.1508
  100SAPS   C1210012   4.425   5.957   6.322  0.0562 -0.3158 -0.0031
  100SAPS  H12A10013   4.373   5.980   6.414 -0.4916 -0.8735 -0.1621
  100SAPS   C1310014   4.526   5.832   6.346  0.5440 -0.0029  0.4142
  100SAPS  O13A10015   4.542   5.747   6.260 -0.6219  0.5065  0.0460
  100SAPS  O13B10016   4.605   5.844   6.445  0.0791  0.3515 -0.1510
  100SAPS   C1110017   4.507   6.077   6.281  0.1774  0.1238  0.5227
  100SAPS  H11A10018   4.537   6.060   6.176 -1.8720 -0.6654  0.0386
  100SAPS  H11B10019   4.599   6.083   6.344 -1.0063 -1.1675  2.4854
  100SAPS     P10020   4.484   6.333   6.305 -0.1595 -0.1381 -0.1650
  100SAPS   O1310021   4.623   6.325   6.253  0.4451  0.1026  0.0091
  100SAPS   O1410022   4.394   6.425   6.236  0.6805 -0.5813 -0.0704
  100SAPS   O1210023   4.423   6.187   6.296 -0.2400  0.4287 -0.0632
  100SAPS   O1110024   4.476   6.362   6.467 -0.7260 -0.6658 -0.3730
  100SAPS    C110025   4.344   6.364   6.530 -0.2847  0.0281  0.4172
  100SAPS    HA10026   4.306   6.469   6.539  1.5233  0.6457  1.2720
  100SAPS    HB10027   4.268   6.302   6.477 -1.2692  2.3529 -1.0794
  100SAPS    C210028   4.349   6.301   6.672 -0.1750 -0.1711  0.4207
  100SAPS    HS10029   4.250   6.277   6.715  0.4438 -0.9991  1.4448
  100SAPS   O2110030   4.414   6.390   6.765 -0.2088  0.0871 -0.3212
  100SAPS   C2110031   4.336   6.498   6.799  0.0314 -0.4457  0.2618
  100SAPS   O2210032   4.220   6.516   6.757  0.4803  0.0578 -0.2991
  100SAPS   C2210033   4.394   6.599   6.889 -0.2588  0.1232 -0.7521
  100SAPS   H2R10034   4.497   6.568   6.920  0.1386 -0.6026 -2.6455
  100SAPS   H2S10035   4.408   6.693   6.832 -1.5588  0.4200 -0.6130
  100SAPS    C310036   4.427   6.164   6.663  0.5390 -1.1247  1.1969
  100SAPS    HX10037   4.527   6.193   6.625 -0.8722  1.2489 -1.0746
  100SAPS    HY10038   4.389   6.107   6.576  2.4716  2.5788 -2.4375
  100SAPS   O3110039   4.422   6.089   6.783 -0.1233  0.0393  0.5186
  100SAPS   C3110040   4.534   6.084   6.853 -0.4870 -0.2214 -0.3476
  100SAPS   O3210041   4.643   6.126   6.816  0.3698 -0.0566  0.4218
  100SAPS   C3210042   4.493   6.040   6.989  0.3598 -0.5563 -0.0727
  100SAPS   H2X10043   4.490   5.929   6.985 -2.4738 -0.5130 -1.2606
  100SAPS   H2Y10044   4.392   6.084   7.000  0.4667  0.3558 -2.2171
  100SAPS   C2310045   4.309   6.631   7.011  0.4614  0.2535  0.0968
  100SAPS   H3R10046   4.215   6.688   6.992 -0.1269 -0.3053  1.2584
  100SAPS   H3S10047   4.366   6.695   7.082  0.5970  2.3799 -1.8056
  100SAPS   C2410048   4.267   6.503   7.089 -0.0219  0.7855 -1.0035
  100SAPS   H4R10049   4.189   6.431   7.057 -0.9313  0.6675  1.2698
  100SAPS   H4S10050   4.199   6.547   7.165 -0.5683 -0.3226 -0.8342
  100SAPS   C2510051   4.381   6.416   7.140 -0.0680 -0.8750 -0.1678
  100SAPS   H5R10052   4.412   6.325   7.088 -1.1612 -0.4391 -1.6399
  100SAPS   C2610053   4.457   6.454   7.247 -0.5286 -0.6536  0.1333
  100SAPS   H6R10054   4.553   6.401   7.254  1.3265  2.1403 -1.8746
  100SAPS   C2710055   4.444   6.575   7.335 -0.2868 -0.5270  0.5312
  100SAPS   H7R10056   4.349   6.561   7.391  0.5254 -2.5536  1.5177
  100SAPS   H7S10057   4.428   6.669   7.279  1.3763 -1.3145 -1.4034
  100SAPS   C2810058   4.557   6.587   7.429  0.5663  0.0095 -0.1011
  100SAPS   H8R10059   4.647   6.633   7.385  0.0386 -0.0585 -1.2923
  100SAPS   C2910060   4.567   6.540   7.550  0.6779  0.3734 -0.3038
  100SAPS   H9R10061   4.656   6.556   7.612  1.2392  0.3589 -1.0854
  100SAPS  C21010062   4.450   6.464   7.614  0.2405 -0.5404  0.9866
  100SAPS  H10R10063   4.411   6.399   7.532  0.9089  2.3924 -1.8652
  100SAPS  H10S10064   4.363   6.531   7.628 -0.0904 -0.7693  0.1202
  100SAPS  C21110065   4.492   6.395   7.742  0.5014 -0.4740  0.3264
  100SAPS  H11R10066   4.525   6.290   7.738 -0.8043 -0.8740 -3.2743
  100SAPS  C21210067   4.484   6.466   7.863 -0.2660 -0.1836  0.0842
  100SAPS  H12R10068   4.506   6.412   7.957 -0.4779 -1.9696 -0.8435
  100SAPS  C21310069   4.442   6.613   7.884  0.3447  0.2676 -0.4163
  100SAPS  H13R10070   4.360   6.614   7.958  0.6718 -2.5856  0.0837
  100SAPS  H13S10071   4.414   6.646   7.781 -0.3879 -0.6879 -0.5318
  100SAPS  C21410072   4.557   6.703   7.921 -0.2021  0.3466  0.3490
  100SAPS  H14R10073   4.601   6.758   7.837 -1.0931  1.4761  0.5994
  100SAPS  C21510074   4.599   6.739   8.039 -1.0350 -0.3666 -0.0424
  100SAPS  H15R10075   4.670   6.823   8.038 -1.5099  0.0350  0.1098
  100SAPS  C21610076   4.545   6.713   8.173  0.0019  0.5095 -0.0972
  100SAPS  H16R10077   4.630   6.698   8.243 -1.2118  0.2546  1.3611
  100SAPS  H16S10078   4.476   6.627   8.180 -0.3783  0.7933 -0.3185
  100SAPS  C21710079   4.466   6.839   8.223 -0.1403  0.1168 -0.1019
  100SAPS  H17R10080   4.370   6.839   8.168 -0.1482 -2.7427 -0.2393
  100SAPS  H17S10081   4.506   6.940   8.200  0.2611  0.0417  0.2598
  100SAPS  C21810082   4.450   6.843   8.378 -0.1632  0.7424  0.6816
  100SAPS  H18R10083   4.546   6.822   8.429  0.5991 -0.8001 -1.2637
  100SAPS  H18S10084   4.373   6.768   8.409 -0.6046  0.7049 -0.4741
  100SAPS  C21910085   4.404   6.988   8.428 -0.2409 -0.5920  0.0789
  100SAPS  H19R10086   4.487   7.055   8.399 -0.5012 -0.6016 -0.7239
  100SAPS  H19S10087   4.400   6.984   8.539 -0.4903 -0.2128  0.0835
  100SAPS  C22010088   4.262   7.025   8.383  0.2694 -0.2670 -0.0091
  100SAPS  H20R10089   4.258   7.022   8.272 -0.2094  0.8078 -0.0321
  100SAPS  H20S10090   4.244   7.132   8.405  0.6435 -0.4011  1.0564
  100SAPS  H20T10091   4.180   6.960   8.422 -1.4796  0.9323 -1.5002
  100SAPS   C3310092   4.583   6.083   7.102 -0.6818  0.6212  1.0205
  100SAPS   H3X10093   4.600   6.193   7.101 -1.0457  0.6886  1.6109
  100SAPS   H3Y10094   4.685   6.039   7.101 -1.3026 -0.8694  0.1704
  100SAPS   C3410095   4.531   6.059   7.241  0.2149 -0.5838  0.0256
  100SAPS   H4X10096   4.519   5.949   7.256  0.8803 -0.6493  0.0723
  100SAPS   H4Y10097   4.432   6.108   7.252  0.6277  0.6789 -1.5368
  100SAPS   C3510098   4.625   6.113   7.349 -0.7772  0.5809 -0.6084
  100SAPS   H5X10099   4.620   6.224   7.346 -1.0367  0.5796 -0.1824
  100SAPS   H5Y10100   4.728   6.074   7.333 -1.2185 -1.4845  1.0694
  100SAPS   C3610101   4.588   6.061   7.491  0.2941 -0.1940  0.7990
  100SAPS   H6X10102   4.549   5.961   7.463 -1.1177 -0.0101  2.0220
  100SAPS   H6Y10103   4.507   6.124   7.534  1.8883  1.3410  1.6922
  100SAPS   C3710104   4.707   6.066   7.583 -0.0378  0.2144  0.1113
  100SAPS   H7X10105   4.757   6.165   7.583  2.0063 -0.6799 -3.2973
  100SAPS   H7Y10106   4.776   5.985   7.554 -1.6594 -0.7372 -1.2661
  100SAPS   C3810107   4.673   6.026   7.728 -0.2469 -0.1936  0.0631
  100SAPS   H8X10108   4.616   5.931   7.730  2.1170 -1.7093 -0.3106
  100SAPS   H8Y10109   4.595   6.103   7.744 -1.6828 -1.1818 -1.7554
  100SAPS   C3910110   4.789   6.023   7.823 -0.6576  0.5948  0.3031
  100SAPS   H9X10111   4.840   6.122   7.815 -1.9489  1.3404  0.9269
  100SAPS   H9Y10112   4.866   5.946   7.800  0.8939  1.7901  1.2527
  100SAPS  C31010113   4.748   6.006   7.972  0.4232 -0.2978  0.6544
  100SAPS  H10X10114   4.661   5.941   7.995  0.6481 -0.7571  0.2375
  100SAPS  H10Y10115   4.714   6.105   8.008 -0.5054 -0.7126  0.9448
  100SAPS  C31110116   4.872   5.967   8.047  0.1915 -0.6245 -0.7983
  100SAPS  H11X10117   4.946   6.041   8.009 -0.0892 -0.1758 -0.4665
  100SAPS  H11Y10118   4.921   5.870   8.024  1.2116 -1.1327  2.8696
  100SAPS  C31210119   4.845   5.982   8.207 -0.6538  0.4285  0.7515
  100SAPS  H12X10120   4.773   5.909   8.249 -1.3838  0.4761 -0.3750
  100SAPS  H12Y10121   4.805   6.086   8.203 -1.0283  0.2487 -0.7259
  100SAPS  C31310122   4.976   5.982   8.280  0.1228  0.1488 -0.9542
  100SAPS  H13X10123   5.060   6.033   8.229  2.2668 -1.8546  0.3753
  100SAPS  H13Y10124   5.015   5.878   8.277  0.2265  0.2022 -1.9273
  100SAPS  C31410125   4.951   6.032   8.421  0.7080 -0.8724 -0.8417
  100SAPS  H14X10126   4.877   5.979   8.485  0.0330  0.1187 -0.7855
  100SAPS  H14Y10127   4.918   6.136   8.400  1.1450 -0.7337 -0.8517
  100SAPS  C31510128   5.085   6.049   8.492  0.5165  0.2890  0.5343
  100SAPS  H15X10129   5.154   6.103   8.423 -0.9163  0.9910 -0.4096
  100SAPS  H15Y10130   5.129   5.950   8.514 -1.1565 -0.6254 -0.0142
  100SAPS  C31610131   5.084   6.117   8.623 -0.1141  0.1838 -0.0441
  100SAPS  H16X10132   5.015   6.052   8.680 -0.0451 -1.5055 -1.7967
  100SAPS  H16Y10133   5.043   6.220   8.621  2.0379  1.1009 -0.6649
  100SAPS  C31710134   5.220   6.109   8.695  0.0256 -0.7076 -0.0444
  100SAPS  H17X10135   5.293   6.187   8.664 -1.0221  0.0104 -0.7349
  100SAPS  H17Y10136   5.273   6.017   8.663  0.4781  0.0164 -1.4502
  100SAPS  C31810137   5.211   6.117   8.848 -0.4769 -0.5564  0.1666
  100SAPS  H18X10138   5.149   6.031   8.881 -0.1654 -0.5792  0.6983
  100SAPS  H18Y10139   5.160   6.206   8.889 -0.7628 -0.0742 -1.1725
  100SAPS  H18Z10140   5.315   6.111   8.888 -0.3982  1.6661  0.3945
  101OSM      N10141   3.557   6.077  11.071 -0.3294 -0.1885  0.6586
  101OSM    C1510142   3.433   6.055  10.986  0.0511  0.3403 -0.0864
  101OSM   H15A10143   3.388   6.149  10.955  1.0779  0.8968  0.0667
  101OSM   H15B10144   3.358   5.996  11.036  1.7789 -0.5778  1.5563
  101OSM   H15C10145   3.461   5.999  10.898  0.1266 -0.9735  0.7503
  101OSM    C1410146   3.666   6.142  10.986 -0.0341  0.3205 -0.1396
  101OSM   H14A10147   3.702   6.089  10.900 -0.7775  0.9177 -0.8386
  101OSM   H14B10148   3.742   6.168  11.058 -0.3289  2.5383 -0.5769
  101OSM   H14C10149   3.632   6.237  10.947 -0.9729 -0.7562 -2.0834
  101OSM    C1310150   3.511   6.156  11.189  0.0362  0.1193  0.3870
  101OSM   H13A10151   3.590   6.209  11.240 -0.2026 -1.2146  2.2578
  101OSM   H13B10152   3.444   6.103  11.255  0.4477 -2.5958 -1.2081
  101OSM   H13C10153   3.447   6.232  11.146 -0.2702 -1.1596 -1.5427
  101OSM    C1210154   3.606   5.941  11.131 -0.3133 -0.3476  0.6234
  101OSM   H12A10155   3.537   5.916  11.210  0.2261 -1.5385  0.7308
  101OSM   H12B10156   3.707   5.950  11.169  1.0033  1.7697 -2.8423
  101OSM    C1110157   3.624   5.825  11.025  0.2712  0.7252  0.1163
  101OSM   H11A10158   3.680   5.744  11.078 -0.0277  0.7432  0.4690
  101OSM   H11B10159   3.701   5.846  10.948 -1.1705  0.3940 -1.4803
  101OSM      P10160   3.396   5.693  11.048 -0.1464 -0.1325 -0.2479
  101OSM    O1310161   3.465   5.610  11.145 -0.1462  0.5263  0.2177
  101OSM    O1410162   3.304   5.793  11.100  1.0020 -0.2643  0.3494
  101OSM    O1110163   3.320   5.597  10.956  0.7056 -0.1153  0.4996
  101OSM    O1210164   3.505   5.772  10.961 -0.1209 -0.5747  0.5009
  101OSM    C1S10165   3.276   5.612  10.822  0.4101 -0.1487  0.0054
  101OSM    H1S10166   3.252   5.713  10.784 -1.9057 -0.6155  0.0564
  101OSM    H1T10167   3.169   5.583  10.816  0.1455  0.3905  1.6184
  101OSM     NF10168   3.302   5.554  10.591 -0.3936  0.0958  0.9488
  101OSM    HNF10169   3.243   5.478  10.566  0.4518 -1.1544  2.5643
  101OSM    C2S10170   3.363   5.536  10.725  0.1460  0.0071 -0.3079
  101OSM    H2S10171   3.463   5.585  10.729  0.2653 -0.2765  0.2038
  101OSM    C3S10172   3.375   5.383  10.765  0.3058 -0.2241  0.1844
  101OSM    H3S10173   3.270   5.350  10.778 -0.0738  1.1649  0.8217
  101OSM     O310174   3.442   5.366  10.890 -0.3657 -0.2132 -0.1544
  101OSM    HO310175   3.457   5.454  10.925  3.5067 -0.3529 -0.9440
  101OSM    C4S10176   3.455   5.311  10.666  0.6455  0.1998 -0.0554
  101OSM    H4S10177   3.556   5.354  10.659 -0.3156  2.4273 -1.5828
  101OSM    C5S10178   3.423   5.212  10.581  0.1183  0.6393 -0.7293
  101OSM    H5S10179   3.320   5.174  10.567 -0.2769  0.0543  2.7464
  101OSM    C6S10180   3.520   5.176  10.472  0.4352  0.3319 -0.2671
  101OSM    H6S10181   3.530   5.065  10.475 -1.5550  0.1403  1.4201
  101OSM    H6T10182   3.624   5.210  10.491  1.0772 -1.4353 -0.3935
  101OSM    C7S10183   3.474   5.225  10.339 -0.0052  0.8948  0.9007
  101OSM    H7S10184   3.482   5.336  10.332 -0.2539  0.8308 -0.9708
  101OSM    H7T10185   3.372   5.189  10.313  2.0638 -5.7972  0.2160
  101OSM    C8S10186   3.578   5.181  10.232  0.8030 -0.2567 -0.1988
  101OSM    H8S10187   3.606   5.075  10.250 -0.3827 -0.6274 -0.4870
  101OSM    H8T10188   3.675   5.234  10.245  1.4828 -0.9210 -2.1974
  101OSM    C9S10189   3.526   5.191  10.090 -0.3013 -0.8549 -0.5478
  101OSM    H9S10190   3.537   5.297  10.059  0.1779 -1.2159 -1.6489
  101OSM    H9T10191   3.420   5.160  10.096  0.1328 -2.1910  0.7737
  101OSM   C10S10192   3.599   5.106   9.979 -0.6178  0.8303  0.5119
  101OSM   H10S10193   3.595   5.002  10.019  1.1301  0.6205  0.2141
  101OSM   H10T10194   3.706   5.136   9.975 -0.7291  1.3097  1.0311
  101OSM   C11S10195   3.532   5.104   9.845 -0.2338 -0.7347  0.4143
  101OSM   H11S10196   3.570   5.192   9.788 -0.5942  1.5081  3.3528
  101OSM   H11T10197   3.423   5.117   9.865 -0.2530  0.5484 -0.3737
  101OSM   C12S10198   3.557   4.969   9.776  0.7973 -0.2113 -0.0812
  101OSM   H12S10199   3.514   4.885   9.834  1.9465  0.8361  2.3982
  101OSM   H12T10200   3.665   4.949   9.762  0.5423 -0.5918 -1.7504
  101OSM   C13S10201   3.493   4.960   9.631 -0.4430 -0.2138  0.0159
  101OSM   H13S10202   3.530   5.039   9.562 -0.8769  2.5693  2.7737
  101OSM   H13T10203   3.385   4.987   9.636 -0.4945 -0.5069  0.5634
  101OSM   C14S10204   3.506   4.825   9.568 -0.3612  0.7584  0.1336
  101OSM   H14S10205   3.414   4.766   9.583 -0.4624  1.4401  2.5164
  101OSM   H14T10206   3.572   4.760   9.629 -3.6899 -0.8582  2.3226
  101OSM   C15S10207   3.565   4.823   9.429  0.2227 -0.1243  0.2154
  101OSM   H15S10208   3.578   4.714   9.413  0.1410 -0.1950  0.6073
  101OSM   H15T10209   3.663   4.871   9.406  1.5612 -2.9054 -0.2608
  101OSM   C16S10210   3.471   4.880   9.323  0.4028  0.2505 -0.5974
  101OSM   H16S10211   3.458   4.990   9.335 -2.2478 -0.2013  1.3713
  101OSM   H16T10212   3.371   4.833   9.327 -0.1238  1.4514  0.9089
  101OSM   C17S10213   3.503   4.835   9.182 -0.5775 -0.0608 -0.0613
  101OSM   H17S10214   3.510   4.724   9.179  3.1978  0.0686 -0.3238
  101OSM   H17T10215   3.606   4.870   9.159 -0.0542 -2.2693 -1.2931
  101OSM   C18S10216   3.414   4.877   9.072  0.2946  0.4764  0.1424
  101OSM   H18S10217   3.312   4.835   9.078  0.1541  0.5388 -1.3812
  101OSM   H18T10218   3.456   4.830   8.980  0.3231  0.1583  0.3143
  101OSM   H18U10219   3.410   4.987   9.056 -1.8968  0.2350 -1.3551
  101OSM    C1F10220   3.323   5.665  10.529  0.3278  0.1431  0.4681
  101OSM     OF10221   3.392   5.752  10.575 -0.0853 -0.4402  0.1929
  101OSM    C2F10222   3.256   5.687  10.400 -0.1551 -0.1426  0.0625
  101OSM    H2F10223   3.146   5.684  10.416 -0.1242 -2.7102  0.1812
  101OSM    H2G10224   3.287   5.612  10.325  0.3629  0.3194 -0.1928
  101OSM    C3F10225   3.291   5.827  10.330 -0.2404  0.3351  0.6028
  101OSM    H3F10226   3.401   5.822  10.319 -0.3016  1.0091 -0.5424
  101OSM    H3G10227   3.275   5.915  10.396  3.2479  1.9232 -0.4614
  101OSM    C4F10228   3.208   5.853  10.201  1.0919  1.0010  0.3400
  101OSM    H4F10229   3.104   5.837  10.235  0.4600  0.1188 -1.8235
  101OSM    H4G10230   3.234   5.779  10.122 -1.1025  0.3062  0.1935
  101OSM    C5F10231   3.240   5.985  10.140  0.4708 -0.7635  0.2490
  101OSM    H5F10232   3.350   5.987  10.125  0.9684  1.1680  3.3762
  101OSM    H5G10233   3.235   6.058  10.223  0.7841  1.1626 -1.3440
  101OSM    C6F10234   3.160   6.005  10.016  0.0903 -0.5519  0.1631
  101OSM    H6F10235   3.195   5.961   9.920 -1.5934 -2.1772  0.2398
  101OSM    H6G10236   3.170   6.112   9.988  0.3934 -0.5137  0.4093
  101OSM    C7F10237   3.011   5.976  10.024 -0.0200 -0.4113  0.0414
  101OSM    H7F10238   2.968   6.009  10.121 -2.0152  0.9053 -1.2202
  101OSM    H7G10239   2.999   5.866  10.015 -0.5170 -0.2338 -1.9794
  101OSM    C8F10240   2.934   6.038   9.902  0.7784  0.1251 -0.2541
  101OSM    H8F10241   2.996   6.124   9.871  0.8526 -0.4741 -1.8877
  101OSM    H8G10242   2.839   6.075   9.947  0.6565  1.9251 -1.8890
  101OSM    C9F10243   2.920   5.924   9.798 -0.1847  0.2337  0.3230
  101OSM    H9F10244   2.883   5.829   9.840 -1.6033  0.1308 -1.0531
  101OSM   C10F10245   2.947   5.921   9.665 -0.1631  0.6674 -0.4977
  101OSM   H10F10246   2.927   5.827   9.613  0.1084 -0.8208  1.9312
  101OSM   C11F10247   3.001   6.042   9.594  0.1741 -0.0224  0.4161
  101OSM   H11F10248   3.083   6.001   9.531  1.0703  0.4894  1.2188
  101OSM   H11G10249   3.034   6.121   9.664 -0.4520 -0.1380  0.8463
  101OSM   C12F10250   2.899   6.104   9.498  0.5791 -0.1880 -0.9227
  101OSM   H12F10251   2.822   6.153   9.561  1.0616 -0.4932 -0.0703
  101OSM   H12G10252   2.828   6.039   9.444 -0.2509 -1.5185  1.6112
  101OSM   C13F10253   2.951   6.217   9.405  0.1026  0.2149  0.5973
  101OSM   H13F10254   3.001   6.295   9.467  0.8891  1.1882 -1.2058
  101OSM   H13G10255   2.855   6.263   9.374 -0.7651  0.6887  3.6271
  101OSM   C14F10256   3.057   6.173   9.306  0.5003  0.9670 -0.0863
  101OSM   H14F10257   3.010   6.105   9.232 -0.2462 -0.8218  1.9071
  101OSM   H14G10258   3.128   6.116   9.370 -0.7939  0.3265  0.8285
  101OSM   C15F10259   3.135   6.279   9.228 -0.2967 -0.9496  0.2637
  101OSM   H15F10260   3.212   6.234   9.162 -0.5872  1.7934 -2.1686
  101OSM   H15G10261   3.182   6.357   9.292  0.3672  0.5069 -1.8827
  101OSM   C16F10262   3.041   6.353   9.119 -0.1709 -0.1238 -0.0720
  101OSM   H16F10263   2.983   6.426   9.180  2.1517  1.0247  0.9222
  101OSM   H16G10264   2.969   6.287   9.067  1.4738 -0.5735 -1.8806
  101OSM   C17F10265   3.107   6.428   9.008  0.4217 -0.0927  0.0107
  101OSM   H17F10266   3.142   6.357   8.930 -1.0907 -1.2378  0.3363
  101OSM   H17G10267   3.197   6.476   9.052  0.9929 -1.0187 -0.1200
  101OSM   C18F10268   3.028   6.531   8.931  0.3541 -0.1354  0.1314
  101OSM   H18F10269   3.090   6.584   8.855 -0.4153  3.2202  1.6733
  101OSM   H18G10270   2.995   6.617   8.993  4.3825  0.9705  1.0926
  101OSM   H18H10271   2.933   6.482   8.901  0.7588 -0.8736  0.0307
  102OSM      N10272   2.018   6.648  11.344 -0.8479  0.4391 -0.0325
  102OSM    C1510273   1.932   6.756  11.410 -0.2428 -0.2655 -0.3057
  102OSM   H15A10274   1.928   6.852  11.362  0.2336 -0.6290 -1.1023
  102OSM   H15B10275   1.968   6.770  11.511  2.5360  1.0792 -1.3783
  102OSM   H15C10276   1.834   6.715  11.427 -0.0006 -0.4903  0.6201
  102OSM    C1410277   2.164   6.682  11.354  0.3963 -0.0998 -0.0992
  102OSM   H14A10278   2.203   6.705  11.452  0.6163  0.7443 -0.3766
  102OSM   H14B10279   2.189   6.766  11.291 -1.4902  0.5319 -0.0479
  102OSM   H14C10280   2.215   6.590  11.330  1.3954  0.9085 -2.0508
  102OSM    C1310281   1.991   6.522  11.429  0.0300 -0.5331  0.0644
  102OSM   H13A10282   2.056   6.438  11.407  1.0454  0.3975 -0.5614
  102OSM   H13B10283   1.889   6.488  11.440  0.4045 -1.6596  0.1998
  102OSM   H13C10284   2.019   6.550  11.529 -2.0814  1.0022  0.2848
  102OSM    C1210285   1.985   6.624  11.196  0.6009 -0.2361 -0.1311
  102OSM   H12A10286   1.887   6.580  11.199  0.5480 -0.0894  1.7449
  102OSM   H12B10287   2.045   6.541  11.161 -1.3099 -1.2600 -1.1123
  102OSM    C1110288   2.007   6.740  11.095  0.2344  0.7978  0.4335
  102OSM   H11A10289   1.951   6.830  11.129 -0.9269 -0.0843  0.9526
  102OSM   H11B10290   1.954   6.712  11.002  1.3517  0.1832 -0.0305
  102OSM      P10291   2.225   6.655  10.980 -0.5015  0.3118  0.4072
  102OSM    O1310292   2.358   6.634  11.042 -0.2184 -0.1980 -0.2021
  102OSM    O1410293   2.146   6.535  10.956  0.1039  0.4247  0.1894
  102OSM    O1110294   2.238   6.733  10.844  0.1413  0.4400 -0.4834
  102OSM    O1210295   2.142   6.755  11.072  0.6036 -0.7717 -0.3987
  102OSM    C1S10296   2.112   6.732  10.763  0.6591  0.4184 -0.5236
  102OSM    H1S10297   2.035   6.787  10.821 -1.5205 -0.3048 -2.5934
  102OSM    H1T10298   2.080   6.627  10.743  0.3680  0.4856 -0.4038
  102OSM     NF10299   2.006   6.809  10.547  0.2337  0.4468 -0.3680
  102OSM    HNF10300   1.996   6.735  10.480 -0.3694 -0.1801  0.3948
  102OSM    C2S10301   2.130   6.799  10.622 -0.0682  0.3312  0.0986
  102OSM    H2S10302   2.169   6.899  10.651 -3.6975  1.3252  2.2332
  102OSM    C3S10303   2.240   6.720  10.539  0.0009  0.0577  0.4215
  102OSM    H3S10304   2.202   6.619  10.513  0.6619  0.0094 -0.3726
  102OSM     O310305   2.354   6.692  10.620  0.1193  0.2128 -0.5851
  102OSM    HO310306   2.311   6.687  10.706  1.5645 -0.0007  0.1543
  102OSM    C4S10307   2.290   6.798  10.421  0.4563 -0.6001 -0.2394
  102OSM    H4S10308   2.343   6.893  10.440 -0.3955  0.8650 -4.1054
  102OSM    C5S10309   2.273   6.765  10.288 -0.5213 -0.2205 -0.5142
  102OSM    H5S10310   2.217   6.679  10.247 -0.5882 -0.6985  0.5385
  102OSM    C6S10311   2.340   6.842  10.169  0.1055  0.0289 -0.1905
  102OSM    H6S10312   2.448   6.855  10.190 -0.1344 -1.1523  2.0156
  102OSM    H6T10313   2.296   6.945  10.169  1.5135  0.6642 -1.0763
  102OSM    C7S10314   2.317   6.771  10.035 -0.0310  0.4358 -0.3773
  102OSM    H7S10315   2.211   6.738  10.027 -0.1872  0.1255  2.1006
  102OSM    H7T10316   2.372   6.675  10.041 -0.2180  0.4275  2.3650
  102OSM    C8S10317   2.343   6.863   9.919 -0.4058  0.1685  0.6602
  102OSM    H8S10318   2.454   6.875   9.915 -0.3179 -0.8396 -0.0453
  102OSM    H8T10319   2.296   6.962   9.936  0.7835  0.8901 -0.0709
  102OSM    C9S10320   2.300   6.797   9.785 -0.5249 -0.2253  0.1695
  102OSM    H9S10321   2.189   6.797   9.784 -0.5537 -0.6146  1.2745
  102OSM    H9T10322   2.342   6.694   9.784  0.4794  0.0180  3.6183
  102OSM   C10S10323   2.353   6.893   9.667  0.1439 -0.5328  0.1741
  102OSM   H10S10324   2.463   6.876   9.671  0.2669  0.3609  0.7676
  102OSM   H10T10325   2.326   6.997   9.696 -0.9945 -1.6377  3.5131
  102OSM   C11S10326   2.300   6.865   9.521 -0.1836  0.0231 -0.1981
  102OSM   H11S10327   2.192   6.887   9.508 -0.0257  0.2475 -1.1999
  102OSM   H11T10328   2.317   6.757   9.501  3.0064  0.1763  1.2192
  102OSM   C12S10329   2.379   6.953   9.424  0.1807  0.7356 -0.6201
  102OSM   H12S10330   2.470   6.900   9.390 -0.0009 -1.0320  1.4502
  102OSM   H12T10331   2.419   7.048   9.468 -1.9837  0.6673  1.7553
  102OSM   C13S10332   2.293   7.019   9.313 -0.3201 -0.5053 -0.2883
  102OSM   H13S10333   2.228   7.102   9.348 -0.6812 -1.8948  2.6830
  102OSM   H13T10334   2.223   6.942   9.274  1.9042 -1.6267 -2.3121
  102OSM   C14S10335   2.394   7.068   9.211 -0.3125  0.5068 -0.1040
  102OSM   H14S10336   2.454   6.988   9.161  0.2562  2.1964 -2.2600
  102OSM   H14T10337   2.478   7.125   9.257 -0.8587  0.8899  0.4370
  102OSM   C15S10338   2.330   7.158   9.104  0.5245  0.7240  0.2162
  102OSM   H15S10339   2.397   7.186   9.020 -0.4221  0.6621 -0.5941
  102OSM   H15T10340   2.299   7.254   9.149 -0.9555  0.0424  0.7211
  102OSM   C16S10341   2.207   7.088   9.024  0.2130 -0.5160  0.7037
  102OSM   H16S10342   2.177   7.152   8.938 -2.0479  0.6895  2.3160
  102OSM   H16T10343   2.119   7.101   9.090 -0.5752  0.5715 -0.5133
  102OSM   C17S10344   2.234   6.950   8.974  0.0080  0.4694  0.3909
  102OSM   H17S10345   2.138   6.908   8.938  1.8775 -3.7189 -0.2563
  102OSM   H17T10346   2.286   6.884   9.047  1.6275  1.2260 -0.0151
  102OSM   C18S10347   2.323   6.946   8.848 -0.0669  0.0864  0.2862
  102OSM   H18S10348   2.315   6.846   8.801 -0.8427  0.0933  0.3826
  102OSM   H18T10349   2.427   6.968   8.878 -0.4332  2.1373  0.1814
  102OSM   H18U10350   2.290   7.015   8.767  2.2878 -2.3244 -3.0065
  102OSM    C1F10351   1.902   6.870  10.596 -0.1039 -0.3985  0.2947
  102OSM     OF10352   1.912   6.961  10.677 -0.6741 -0.2307 -0.1515
  102OSM    C2F10353   1.766   6.820  10.544 -0.9104 -0.3472 -0.1792
  102OSM    H2F10354   1.698   6.833  10.630 -0.3800  1.4964  0.0120
  102OSM    H2G10355   1.780   6.713  10.519 -0.9253  0.0532 -2.0771
  102OSM    C3F10356   1.698   6.899  10.431 -0.0409  0.3309  0.5032
  102OSM    H3F10357   1.694   7.009  10.445 -2.3175  0.4306 -0.4448
  102OSM    H3G10358   1.594   6.860  10.432  0.7917 -2.1756 -1.2358
  102OSM    C4F10359   1.749   6.854  10.294 -0.3057  0.9164  0.1510
  102OSM    H4F10360   1.760   6.744  10.281 -2.3078  0.8064 -1.0982
  102OSM    H4G10361   1.852   6.897  10.289 -0.4006  1.1626  0.3281
  102OSM    C5F10362   1.681   6.905  10.166  0.7847 -0.4460  0.1086
  102OSM    H5F10363   1.743   6.870  10.080 -0.5241  1.3194 -1.6719
  102OSM    H5G10364   1.687   7.016  10.170  0.0230 -0.3982  0.0396
  102OSM    C6F10365   1.532   6.869  10.145 -0.4764  0.0273  0.0623
  102OSM    H6F10366   1.472   6.904  10.232 -0.9371  1.4767 -0.8026
  102OSM    H6G10367   1.534   6.758  10.141 -0.5684 -0.0573  1.5766
  102OSM    C7F10368   1.465   6.917  10.014 -0.1021  0.7867  0.3412
  102OSM    H7F10369   1.535   6.872   9.940  1.9993 -1.8829  3.6633
  102OSM    H7G10370   1.465   7.027  10.001 -2.1852  0.6302 -1.5699
  102OSM    C8F10371   1.318   6.865  10.005 -0.5480  0.4289  0.2516
  102OSM    H8F10372   1.312   6.758  10.035  1.3485 -0.3464 -1.8235
  102OSM    H8G10373   1.294   6.872   9.897  1.2601 -0.9580 -0.2970
  102OSM    C9F10374   1.233   6.953  10.092  0.2516  0.6929 -0.3820
  102OSM    H9F10375   1.267   6.970  10.195  0.1204  1.2751 -0.4298
  102OSM   C10F10376   1.124   7.027  10.052 -0.4908  0.4996 -0.1060
  102OSM   H10F10377   1.076   7.086  10.131 -0.7266  0.5832 -0.3110
  102OSM   C11F10378   1.063   7.042   9.916 -0.0555  0.3296  0.3845
  102OSM   H11F10379   0.968   7.096   9.933 -0.5503 -0.6236  0.7672
  102OSM   H11G10380   1.036   6.940   9.879  1.1632  0.1307 -0.0097
  102OSM   C12F10381   1.147   7.119   9.816  0.3578  0.4497 -1.0973
  102OSM   H12F10382   1.237   7.055   9.815 -0.4209 -0.7617  0.9301
  102OSM   H12G10383   1.169   7.220   9.858  2.0586 -0.1885 -0.3806
  102OSM   C13F10384   1.089   7.135   9.679  0.0071 -0.7316 -0.0437
  102OSM   H13F10385   0.990   7.186   9.684 -0.0214 -0.8889  1.5525
  102OSM   H13G10386   1.067   7.030   9.648 -3.1595 -0.2553  0.2247
  102OSM   C14F10387   1.183   7.193   9.581 -0.3370  0.1547  0.0193
  102OSM   H14F10388   1.268   7.124   9.568  0.5382  1.5483 -2.1812
  102OSM   H14G10389   1.215   7.294   9.612  1.5196 -0.6997  1.0510
  102OSM   C15F10390   1.117   7.189   9.438  0.3015  0.1951  0.3548
  102OSM   H15F10391   1.056   7.282   9.434 -0.7060 -0.4769 -0.4645
  102OSM   H15G10392   1.043   7.108   9.427  1.1465 -0.7816  1.6293
  102OSM   C16F10393   1.223   7.189   9.330  0.0464 -0.0610  0.1379
  102OSM   H16F10394   1.177   7.162   9.233 -1.2113 -2.0962  1.2198
  102OSM   H16G10395   1.306   7.116   9.341 -0.8797 -1.1223  0.2746
  102OSM   C17F10396   1.286   7.329   9.300  0.0445 -0.0371  0.1122
  102OSM   H17F10397   1.364   7.362   9.373 -0.9132  0.4427  0.9507
  102OSM   H17G10398   1.209   7.409   9.295  1.2535  1.1782  0.2773
  102OSM   C18F10399   1.356   7.325   9.161 -0.2053  0.3655  0.1327
  102OSM   H18F10400   1.280   7.328   9.081  0.7315  1.4367 -0.7409
  102OSM   H18G10401   1.418   7.233   9.151 -0.5010  0.3710 -2.1143
  102OSM   H18H10402   1.420   7.415   9.150  0.8847 -0.4353 -0.3131
  103OSM      N10403   5.050   6.746  11.204 -0.8346 -0.2224  0.1571
  103OSM    C1510404   5.006   6.819  11.322  0.4397  0.0963  0.4788
  103OSM   H15A10405   5.021   6.761  11.412 -1.0463  1.6242  1.7855
  103OSM   H15B10406   4.902   6.843  11.311  0.2275 -0.9359  0.1816
  103OSM   H15C10407   5.072   6.904  11.337 -0.4778  0.5457  2.2886
  103OSM    C1410408   5.195   6.717  11.234  0.2997 -0.2831 -0.0403
  103OSM   H14A10409   5.203   6.672  11.332  1.2546 -0.0754 -0.0140
  103OSM   H14B10410   5.248   6.811  11.237 -1.3035  0.6449  2.1456
  103OSM   H14C10411   5.246   6.671  11.150  0.0690  0.8659 -0.8313
  103OSM    C1310412   4.975   6.614  11.204  0.5538 -0.3478  0.5286
  103OSM   H13A10413   4.988   6.554  11.115  1.7990  1.1571 -0.3548
  103OSM   H13B10414   4.870   6.633  11.215  0.5368 -1.3668  2.8099
  103OSM   H13C10415   5.018   6.550  11.280 -2.7472 -0.2712  2.6635
  103OSM    C1210416   5.039   6.824  11.072  0.2563 -0.0378 -0.2723
  103OSM   H12A10417   5.088   6.761  10.999  2.9151 -1.2236  2.3824
  103OSM   H12B10418   5.091   6.918  11.084 -0.0710 -0.0028  0.9173
  103OSM    C1110419   4.897   6.867  11.023  0.5385  0.1139  0.4062
  103OSM   H11A10420   4.858   6.770  10.985  0.5713  0.7071 -1.2017
  103OSM   H11B10421   4.898   6.939  10.938 -2.1035 -1.4582 -1.0854
  103OSM      P10422   4.761   7.059  11.137 -0.4287 -0.2182 -0.2074
  103OSM    O1310423   4.660   7.076  11.244 -0.0870 -0.0043 -0.5450
  103OSM    O1410424   4.886   7.136  11.156  0.1871  0.4263  0.2576
  103OSM    O1110425   4.702   7.080  10.987 -0.0319  0.2658 -0.2858
  103OSM    O1210426   4.810   6.906  11.127  0.2310 -0.7636 -0.1510
  103OSM    C1S10427   4.619   6.978  10.926 -0.5083 -0.1251 -0.1227
  103OSM    H1S10428   4.516   6.972  10.967 -1.4219 -2.2123 -2.4637
  103OSM    H1T10429   4.656   6.874  10.923 -0.9005 -0.2698 -2.8745
  103OSM     NF10430   4.505   6.938  10.714  0.1158  0.2092 -0.8914
  103OSM    HNF10431   4.540   6.874  10.646  1.7378  0.6546 -0.5033
  103OSM    C2S10432   4.596   7.026  10.783  0.2212  0.3895 -0.2725
  103OSM    H2S10433   4.550   7.127  10.776  2.1448  1.2252 -2.0668
  103OSM    C3S10434   4.724   7.044  10.696 -0.7343 -0.5038 -1.0354
  103OSM    H3S10435   4.764   6.940  10.688 -1.3830 -0.9064  0.5673
  103OSM     O310436   4.824   7.115  10.759 -0.3270  0.1269  0.2617
  103OSM    HO310437   4.796   7.110  10.851  1.7503  1.4354  1.0386
  103OSM    C4S10438   4.695   7.098  10.559  0.0843 -1.1035 -0.9516
  103OSM    H4S10439   4.645   7.194  10.579  1.5367 -0.3713 -0.6271
  103OSM    C5S10440   4.719   7.061  10.438  0.3040  0.1954  0.5543
  103OSM    H5S10441   4.761   6.960  10.431  0.5526  0.2514  1.1821
  103OSM    C6S10442   4.682   7.145  10.320 -0.0699 -0.3023 -0.4829
  103OSM    H6S10443   4.773   7.197  10.283  1.2672 -0.5883  2.1156
  103OSM    H6T10444   4.616   7.229  10.352 -0.1018  0.5146 -2.5941
  103OSM    C7S10445   4.636   7.072  10.194 -0.0418  0.4287 -0.4484
  103OSM    H7S10446   4.543   7.014  10.216  0.1642  0.7756  1.5718
  103OSM    H7T10447   4.715   7.011  10.146 -2.2854 -0.1963 -3.7337
  103OSM    C8S10448   4.599   7.170  10.084 -0.4620 -0.4516 -0.4113
  103OSM    H8S10449   4.679   7.247  10.085  0.1238 -1.0488  0.0360
  103OSM    H8T10450   4.509   7.224  10.120  0.7986  2.1739 -1.0345
  103OSM    C9S10451   4.565   7.104   9.953  0.0262 -0.3752 -0.2997
  103OSM    H9S10452   4.489   7.024   9.969  0.2955 -0.6374 -0.3013
  103OSM    H9T10453   4.654   7.051   9.912 -0.1795 -1.8625  1.0560
  103OSM   C10S10454   4.516   7.200   9.845  0.1871  0.1452  0.0943
  103OSM   H10S10455   4.600   7.267   9.817  0.0624  1.1071  1.8951
  103OSM   H10T10456   4.426   7.252   9.884 -0.8255 -0.7897 -0.9016
  103OSM   C11S10457   4.473   7.113   9.728  0.2791  0.7969 -1.1449
  103OSM   H11S10458   4.393   7.043   9.762  1.2917  0.9408  1.8469
  103OSM   H11T10459   4.551   7.039   9.700 -0.6333 -0.9149  0.5642
  103OSM   C12S10460   4.445   7.190   9.606  0.9565 -0.7534  0.5615
  103OSM   H12S10461   4.542   7.234   9.572  1.3136 -1.9898 -0.0819
  103OSM   H12T10462   4.368   7.269   9.622 -0.1731 -1.9049  0.9449
  103OSM   C13S10463   4.405   7.104   9.484 -0.4591 -0.1108 -0.5362
  103OSM   H13S10464   4.305   7.062   9.506 -0.1293 -0.5862  0.0848
  103OSM   H13T10465   4.476   7.021   9.460 -1.5158 -1.2172  0.0326
  103OSM   C14S10466   4.389   7.189   9.357  0.2570 -0.0818  0.2915
  103OSM   H14S10467   4.479   7.246   9.324 -1.1596  0.4599 -3.0307
  103OSM   H14T10468   4.309   7.264   9.375  2.1269  2.2039 -0.4239
  103OSM   C15S10469   4.338   7.109   9.239  0.1465 -0.2156  0.6466
  103OSM   H15S10470   4.234   7.086   9.273 -0.5239  1.3252 -0.2500
  103OSM   H15T10471   4.401   7.019   9.225 -2.1475 -1.8418 -0.0129
  103OSM   C16S10472   4.344   7.183   9.102  0.5618  0.3212  0.2283
  103OSM   H16S10473   4.452   7.191   9.074 -0.1334  0.3128 -2.7826
  103OSM   H16T10474   4.298   7.283   9.118 -2.9379 -0.2312 -4.3689
  103OSM   C17S10475   4.262   7.107   8.989  0.3181 -0.2213 -0.4982
  103OSM   H17S10476   4.158   7.146   8.994 -0.6028 -2.6161  0.5620
  103OSM   H17T10477   4.256   6.997   9.007 -0.5652 -0.2314 -0.7779
  103OSM   C18S10478   4.321   7.135   8.847  0.5038  0.1230 -0.6508
  103OSM   H18S10479   4.379   7.229   8.860 -0.8237  0.6536  2.3957
  103OSM   H18T10480   4.236   7.154   8.777 -1.1830  1.9132  1.7005
  103OSM   H18U10481   4.397   7.062   8.811 -0.0517 -0.6255 -0.3360
  103OSM    C1F10482   4.379   6.936  10.739  0.5191  0.0737  0.5576
  103OSM     OF10483   4.317   7.005  10.821 -0.4638  0.3706  0.5334
  103OSM    C2F10484   4.311   6.836  10.649  0.6485  0.3879  0.2051
  103OSM    H2F10485   4.233   6.787  10.712 -1.2407 -0.8852 -2.8883
  103OSM    H2G10486   4.384   6.759  10.616 -0.5019 -1.6365  2.0506
  103OSM    C3F10487   4.238   6.902  10.532 -0.7314  1.1077 -0.5937
  103OSM    H3F10488   4.159   6.970  10.570 -0.5667  1.5525 -1.0375
  103OSM    H3G10489   4.182   6.825  10.476 -0.0995  0.9008 -0.9579
  103OSM    C4F10490   4.332   6.976  10.436  0.1285 -0.0443 -0.4111
  103OSM    H4F10491   4.420   6.918  10.403  0.7234 -0.5339  1.8370
  103OSM    H4G10492   4.388   7.046  10.502  0.6569 -1.2907  0.4975
  103OSM    C5F10493   4.267   7.061  10.329 -0.3610 -0.3812 -0.0567
  103OSM    H5F10494   4.334   7.146  10.304 -2.6358  1.1498 -1.3075
  103OSM    H5G10495   4.180   7.114  10.373 -1.1759 -2.6911  1.2941
  103OSM    C6F10496   4.217   6.989  10.202 -0.0982 -0.4192 -0.2646
  103OSM    H6F10497   4.124   6.937  10.234 -0.3488  1.8133  3.0793
  103OSM    H6G10498   4.288   6.917  10.157 -0.9265 -1.3498 -0.1193
  103OSM    C7F10499   4.188   7.088  10.085  0.1062  0.3056  0.6531
  103OSM    H7F10500   4.268   7.164  10.066 -1.3839  1.6083 -0.7054
  103OSM    H7G10501   4.097   7.143  10.116  0.6425  2.4029 -1.2216
  103OSM    C8F10502   4.158   7.014   9.954 -0.1385 -0.4287 -0.2590
  103OSM    H8F10503   4.226   6.928   9.940 -0.4793 -0.6341 -0.6722
  103OSM    H8G10504   4.172   7.082   9.867  0.0937 -0.4655 -0.2503
  103OSM    C9F10505   4.013   6.958   9.944 -0.1786 -0.2385 -0.5450
  103OSM    H9F10506   3.995   6.863   9.998 -1.3182 -0.5324 -1.4157
  103OSM   C10F10507   3.912   7.018   9.886  0.1512 -0.4367 -0.0678
  103OSM   H10F10508   3.815   6.967   9.884 -0.4300  0.6461 -1.4751
  103OSM   C11F10509   3.906   7.154   9.813 -0.1833 -0.3073  0.2068
  103OSM   H11F10510   3.996   7.213   9.840  0.8082 -1.1621 -1.1326
  103OSM   H11G10511   3.822   7.216   9.851 -0.2296  1.6715 -2.7792
  103OSM   C12F10512   3.891   7.154   9.657 -0.0026  0.0930  0.3403
  103OSM   H12F10513   3.872   7.258   9.622 -2.0362 -0.2022  0.4888
  103OSM   H12G10514   3.792   7.117   9.623  0.2913  0.6367 -1.1954
  103OSM   C13F10515   4.006   7.089   9.579 -0.1792 -0.1174 -0.6169
  103OSM   H13F10516   4.106   7.135   9.597 -1.0826  1.3709  0.9854
  103OSM   H13G10517   4.011   6.994   9.635 -1.9579  0.0089 -0.1813
  103OSM   C14F10518   3.978   7.057   9.436 -0.3999  0.1657  0.1749
  103OSM   H14F10519   3.878   7.010   9.435 -2.1271  3.5225 -1.1307
  103OSM   H14G10520   4.043   6.982   9.387  1.6249  1.7095  0.3643
  103OSM   C15F10521   3.962   7.173   9.335 -0.2096 -0.0560 -0.3697
  103OSM   H15F10522   4.055   7.234   9.332  0.5284 -0.9910  1.7683
  103OSM   H15G10523   3.874   7.232   9.366 -1.2697 -1.7752  0.0490
  103OSM   C16F10524   3.935   7.130   9.185  0.1297  0.6248  0.0385
  103OSM   H16F10525   4.001   7.045   9.158 -2.1324 -1.2408  0.1037
  103OSM   H16G10526   3.971   7.214   9.120  2.6670  0.5945  1.2736
  103OSM   C17F10527   3.795   7.066   9.150  0.2257 -0.5068 -0.1661
  103OSM   H17F10528   3.779   6.991   9.230 -1.4464 -0.0495 -0.0324
  103OSM   H17G10529   3.809   7.010   9.056  1.0353  1.5588 -1.3546
  103OSM   C18F10530   3.662   7.149   9.138 -0.0806 -0.3289 -0.2350
  103OSM   H18F10531   3.642   7.210   9.228 -2.0727 -1.5546  0.2059
  103OSM   H18G10532   3.582   7.078   9.106 -0.4898  0.6261 -1.4251
  103OSM   H18H10533   3.671   7.217   9.051 -2.3192  0.6613  0.2529
  104OSM      N10534   0.833   1.537  11.109 -0.5505  1.2543  0.3681
  104OSM    C1510535   0.774   1.496  11.238 -0.7327 -0.0614  0.2503
  104OSM   H15A10536   0.700   1.418  11.223  1.1426 -1.9004  0.1073
  104OSM   H15B10537   0.739   1.581  11.295 -1.2839  0.1854 -0.4499
  104OSM   H15C10538   0.852   1.458  11.303  1.4266  0.6066 -1.8038
  104OSM    C1410539   0.725   1.602  11.026 -1.1193 -0.3021 -0.3818
  104OSM   H14A10540   0.668   1.671  11.087  2.4804  2.8535 -0.2134
  104OSM   H14B10541   0.661   1.522  10.992  0.7646 -2.2161  0.3659
  104OSM   H14C10542   0.763   1.653  10.939 -1.3035 -0.2730 -0.4460
  104OSM    C1310543   0.923   1.645  11.132  0.6534 -0.5553 -0.2835
  104OSM   H13A10544   0.968   1.674  11.038  0.3371  1.2711  0.0903
  104OSM   H13B10545   0.996   1.619  11.206 -0.2939 -0.9261  0.5395
  104OSM   H13C10546   0.865   1.731  11.162  0.4991 -0.7863  0.0795
  104OSM    C1210547   0.893   1.418  11.042  0.1808 -0.2675  0.2063
  104OSM   H12A10548   0.839   1.327  11.064 -0.0458 -0.0442  0.5854
  104OSM   H12B10549   0.984   1.396  11.096 -1.2097  0.9536  3.3083
  104OSM    C1110550   0.917   1.436  10.892  0.9290  0.1636 -0.1546
  104OSM   H11A10551   0.827   1.481  10.843  1.1772  3.2691  1.9823
  104OSM   H11B10552   0.916   1.335  10.846 -1.4873  0.3925 -0.7556
  104OSM      P10553   1.163   1.431  10.840 -0.5776  0.1622 -0.5578
  104OSM    O1310554   1.278   1.516  10.812 -0.5339  0.2877 -0.0764
  104OSM    O1410555   1.180   1.330  10.951  0.3802 -0.2524 -0.2852
  104OSM    O1110556   1.115   1.349  10.716 -0.3404 -0.4569 -0.3875
  104OSM    O1210557   1.033   1.513  10.866 -0.1844  0.1808 -0.4369
  104OSM    C1S10558   1.049   1.396  10.600 -0.0281 -0.1142  0.4953
  104OSM    H1S10559   1.016   1.499  10.626  2.6848  0.2422  3.1295
  104OSM    H1T10560   0.955   1.338  10.588  0.5282 -1.3734  1.8651
  104OSM     NF10561   1.075   1.482  10.378  0.3557 -0.2966  0.3725
  104OSM    HNF10562   1.015   1.437  10.313 -0.5236 -0.7492  1.4486
  104OSM    C2S10563   1.131   1.394  10.474 -1.2927 -0.3458 -0.1369
  104OSM    H2S10564   1.232   1.434  10.497 -2.0184  1.2176  0.4452
  104OSM    C3S10565   1.155   1.241  10.440  0.0491 -0.1884  0.4653
  104OSM    H3S10566   1.056   1.200  10.412 -0.6404  0.6786  1.5881
  104OSM     O310567   1.204   1.156  10.547  0.4247 -0.4974 -0.0821
  104OSM    HO310568   1.186   1.221  10.616  0.2296  1.1424 -1.5892
  104OSM    C4S10569   1.241   1.226  10.322 -0.3706 -0.6123  0.1008
  104OSM    H4S10570   1.180   1.244  10.232  1.1047 -1.2148 -1.0746
  104OSM    C5S10571   1.369   1.199  10.308 -0.2834 -0.6725  0.0868
  104OSM    H5S10572   1.426   1.152  10.390  0.6731 -0.4167 -0.4132
  104OSM    C6S10573   1.445   1.186  10.174  0.3600  0.3937 -0.3230
  104OSM    H6S10574   1.456   1.079  10.144  0.2381  0.6273 -1.2012
  104OSM    H6T10575   1.554   1.205  10.189  0.2478  0.8785 -0.1007
  104OSM    C7S10576   1.394   1.259  10.045 -0.2717 -0.7800  0.0855
  104OSM    H7S10577   1.381   1.369  10.050  2.0043 -0.4691  0.2334
  104OSM    H7T10578   1.296   1.211  10.027  0.5951 -1.4325 -3.8520
  104OSM    C8S10579   1.474   1.220   9.915 -0.2967  0.2036 -0.7635
  104OSM    H8S10580   1.504   1.113   9.923 -0.1572  0.2976  0.1554
  104OSM    H8T10581   1.571   1.272   9.929 -0.2034  0.0072 -0.6831
  104OSM    C9S10582   1.396   1.261   9.789 -0.0459 -0.0247  0.2525
  104OSM    H9S10583   1.390   1.372   9.785 -0.2637 -0.0139  0.8274
  104OSM    H9T10584   1.296   1.214   9.798  0.2985 -0.4473  2.7588
  104OSM   C10S10585   1.468   1.211   9.663 -0.1385  0.3838 -0.7131
  104OSM   H10S10586   1.481   1.101   9.652 -0.1428  0.2191  0.7631
  104OSM   H10T10587   1.569   1.250   9.689  0.4785 -2.3117  1.4073
  104OSM   C11S10588   1.405   1.281   9.537  1.0280  0.7179 -0.4631
  104OSM   H11S10589   1.387   1.386   9.570  1.2744  1.3881 -2.3140
  104OSM   H11T10590   1.306   1.235   9.516 -0.3492  3.6498 -0.9301
  104OSM   C12S10591   1.487   1.265   9.404  0.1216  0.0298 -0.3550
  104OSM   H12S10592   1.493   1.158   9.373 -0.0867  0.5617 -2.4007
  104OSM   H12T10593   1.590   1.298   9.429  1.2114 -2.4946 -1.1545
  104OSM   C13S10594   1.432   1.351   9.292  0.4695 -0.8977 -0.2313
  104OSM   H13S10595   1.434   1.458   9.322  0.7973 -1.4089  1.6622
  104OSM   H13T10596   1.326   1.326   9.271  0.1733 -0.0454  0.1768
  104OSM   C14S10597   1.507   1.333   9.164 -0.3065 -0.2340  0.0517
  104OSM   H14S10598   1.525   1.227   9.135  4.1169  0.9743 -2.7514
  104OSM   H14T10599   1.604   1.387   9.164 -1.0287  1.2469 -2.3561
  104OSM   C15S10600   1.428   1.394   9.045 -0.2725 -0.0160 -0.5970
  104OSM   H15S10601   1.418   1.500   9.076 -1.8790 -0.2441 -0.2418
  104OSM   H15T10602   1.330   1.345   9.031  0.2518 -0.6663 -2.1978
  104OSM   C16S10603   1.533   1.377   8.928  0.1786  0.0085 -0.1821
  104OSM   H16S10604   1.531   1.269   8.901 -2.4549 -0.1694  0.4631
  104OSM   H16T10605   1.638   1.395   8.957  0.7534  0.0880 -2.1358
  104OSM   C17S10606   1.495   1.447   8.797 -0.7997  0.7052 -1.0417
  104OSM   H17S10607   1.413   1.390   8.747  0.8084 -1.6088 -1.2055
  104OSM   H17T10608   1.579   1.419   8.730 -0.1688 -0.9824  0.3680
  104OSM   C18S10609   1.467   1.591   8.809  0.0937 -0.0801  0.3001
  104OSM   H18S10610   1.454   1.635   8.708 -1.7716 -3.4545 -1.1236
  104OSM   H18T10611   1.545   1.656   8.854 -0.3129  1.8106 -1.5902
  104OSM   H18U10612   1.372   1.610   8.863 -0.4667  4.3096 -1.8009
  104OSM    C1F10613   1.064   1.615  10.380  0.4275  0.8655 -0.3314
  104OSM     OF10614   1.089   1.696  10.472 -0.3295  0.7343 -0.3019
  104OSM    C2F10615   0.986   1.659  10.259 -0.0519 -0.9248  0.4981
  104OSM    H2F10616   0.915   1.734  10.298 -0.7315 -0.3122 -1.7942
  104OSM    H2G10617   0.938   1.569  10.213 -1.7055  1.8234 -3.7173
  104OSM    C3F10618   1.072   1.736  10.163  0.3499  0.1272 -0.3957
  104OSM    H3F10619   1.133   1.816  10.209  0.8291  2.1321 -4.1735
  104OSM    H3G10620   1.007   1.793  10.094 -1.0770 -2.0269 -0.9362
  104OSM    C4F10621   1.172   1.658  10.082 -0.0324  0.2001 -0.3620
  104OSM    H4F10622   1.111   1.569  10.060 -3.8301  1.9288  2.0521
  104OSM    H4G10623   1.252   1.619  10.149 -0.7166  1.7931  1.4761
  104OSM    C5F10624   1.221   1.733   9.953 -0.9077  0.4631 -0.1286
  104OSM    H5F10625   1.290   1.666   9.897 -1.0415 -1.9637  2.3645
  104OSM    H5G10626   1.279   1.822   9.984 -3.6179  2.1572  0.4592
  104OSM    C6F10627   1.111   1.779   9.852 -0.1548 -0.7371 -0.1994
  104OSM    H6F10628   1.032   1.846   9.890  1.7323  0.5958  1.5602
  104OSM    H6G10629   1.060   1.695   9.800 -2.3409  0.1002  0.4972
  104OSM    C7F10630   1.172   1.858   9.730 -0.2521  0.8205  0.6071
  104OSM    H7F10631   1.230   1.946   9.764  0.8266  0.2772  0.2245
  104OSM    H7G10632   1.083   1.896   9.676 -0.8045 -1.6812 -0.3645
  104OSM    C8F10633   1.263   1.775   9.638  0.3471 -1.2552 -0.2240
  104OSM    H8F10634   1.357   1.757   9.696 -0.4898  0.0669  1.6733
  104OSM    H8G10635   1.290   1.843   9.554  1.9010 -3.7340 -1.8431
  104OSM    C9F10636   1.200   1.653   9.589  0.1494 -0.7539 -0.6062
  104OSM    H9F10637   1.187   1.569   9.658 -1.4837  0.1715  0.2725
  104OSM   C10F10638   1.152   1.633   9.467 -0.0208  0.0113 -0.2788
  104OSM   H10F10639   1.122   1.533   9.432  3.3275 -0.8657 -0.9896
  104OSM   C11F10640   1.150   1.742   9.361 -0.5868 -0.7270 -0.3355
  104OSM   H11F10641   1.130   1.845   9.397  1.2054 -0.6422  0.5305
  104OSM   H11G10642   1.067   1.713   9.292 -0.5677 -1.5006 -0.0444
  104OSM   C12F10643   1.273   1.740   9.259 -0.4423 -0.5564 -0.2202
  104OSM   H12F10644   1.266   1.639   9.213 -0.1628 -1.2465  1.2067
  104OSM   H12G10645   1.372   1.748   9.310  0.5067 -2.2461 -1.6875
  104OSM   C13F10646   1.270   1.859   9.158  0.6740  0.0659 -0.0684
  104OSM   H13F10647   1.276   1.949   9.223  1.1277 -0.2734  0.3740
  104OSM   H13G10648   1.174   1.871   9.105  0.6682 -1.0433 -0.3302
  104OSM   C14F10649   1.382   1.848   9.058  0.7771  0.0723  0.6300
  104OSM   H14F10650   1.384   1.750   9.006 -0.8789  0.8014 -0.8892
  104OSM   H14G10651   1.480   1.851   9.111  1.2181 -1.7667  0.0034
  104OSM   C15F10652   1.375   1.962   8.952  0.3940  0.3674  1.0443
  104OSM   H15F10653   1.387   2.054   9.013  1.4522  0.5751  0.5402
  104OSM   H15G10654   1.274   1.964   8.906  1.9550  1.2927 -2.7758
  104OSM   C16F10655   1.470   1.951   8.839  0.4301 -0.5535  0.7181
  104OSM   H16F10656   1.445   1.879   8.759 -0.0990  0.1493  0.2381
  104OSM   H16G10657   1.571   1.939   8.883  1.0071  0.0215 -0.4143
  104OSM   C17F10658   1.486   2.092   8.776 -0.2585 -0.5797 -0.0987
  104OSM   H17F10659   1.567   2.082   8.701 -1.7162 -3.3358 -1.4716
  104OSM   H17G10660   1.516   2.163   8.855 -0.4153 -2.1958  1.4707
  104OSM   C18F10661   1.362   2.126   8.688  0.1452 -0.4197 -0.4553
  104OSM   H18F10662   1.370   2.237   8.686  0.5339 -0.4510 -0.8433
  104OSM   H18G10663   1.267   2.097   8.737  0.3191 -0.5644 -0.2006
  104OSM   H18H10664   1.372   2.077   8.589 -0.2672  0.5091 -0.9669
  105OSM      N10665   6.536   6.625  11.420  0.6170  0.2327  0.6132
  105OSM    C1510666   6.671   6.564  11.397 -0.0405  0.1910  0.0684
  105OSM   H15A10667   6.680   6.535  11.293  0.8719  0.4127  0.0766
  105OSM   H15B10668   6.680   6.472  11.453  1.6695 -0.9419 -1.9270
  105OSM   H15C10669   6.747   6.638  11.414  0.6168 -0.7427  1.3755
  105OSM    C1410670   6.432   6.520  11.418 -0.3965  0.5314  0.5306
  105OSM   H14A10671   6.410   6.490  11.316 -0.5644 -0.2648  0.7932
  105OSM   H14B10672   6.339   6.563  11.453 -1.0455  0.8438 -1.4312
  105OSM   H14C10673   6.462   6.435  11.477 -1.8285 -0.6037 -0.3137
  105OSM    C1310674   6.543   6.697  11.558  0.3849  0.0123  0.4608
  105OSM   H13A10675   6.592   6.793  11.556 -1.4184  0.9709 -0.7612
  105OSM   H13B10676   6.591   6.636  11.633  0.4505  0.5779  0.8909
  105OSM   H13C10677   6.445   6.721  11.598  0.7345 -1.5465  2.4566
  105OSM    C1210678   6.502   6.728  11.310 -0.3319 -0.2341 -0.5388
  105OSM   H12A10679   6.580   6.801  11.297  1.2842 -1.2728  2.4462
  105OSM   H12B10680   6.413   6.782  11.338 -1.3716 -1.1745 -1.8690
  105OSM    C1110681   6.462   6.675  11.181  0.0843 -0.4431  0.2427
  105OSM   H11A10682   6.530   6.606  11.126  1.2814  0.9573 -0.1193
  105OSM   H11B10683   6.462   6.767  11.117  0.3454  0.4156  1.4426
  105OSM      P10684   6.216   6.672  11.081  0.0033 -0.4389  0.2970
  105OSM    O1310685   6.098   6.579  11.086  0.4726  0.1631  0.3334
  105OSM    O1410686   6.192   6.816  11.101  0.2902  0.1092 -0.1839
  105OSM    O1110687   6.284   6.661  10.942  0.1391 -0.1715  0.6412
  105OSM    O1210688   6.329   6.615  11.171  0.1205  0.2286  0.1936
  105OSM    C1S10689   6.298   6.537  10.874 -0.4769  0.6346 -0.2664
  105OSM    H1S10690   6.203   6.480  10.873  0.6302 -1.3033  0.0471
  105OSM    H1T10691   6.368   6.472  10.931 -0.6511  1.6888  1.2096
  105OSM     NF10692   6.324   6.442  10.644  0.0632  0.4898  0.3197
  105OSM    HNF10693   6.395   6.372  10.646 -0.3900  0.0464  0.7811
  105OSM    C2S10694   6.356   6.552  10.726 -0.2740  0.1683  0.6601
  105OSM    H2S10695   6.300   6.642  10.694  1.1040  1.4061  1.6053
  105OSM    C3S10696   6.514   6.583  10.721  0.3083 -0.3863 -0.0145
  105OSM    H3S10697   6.578   6.498  10.752  0.2397 -0.8996 -1.2156
  105OSM     O310698   6.549   6.690  10.814  0.0032  0.1449 -0.0899
  105OSM    HO310699   6.465   6.705  10.857 -0.9309 -1.1641 -1.3764
  105OSM    C4S10700   6.556   6.619  10.579  0.5547 -0.2624 -0.1387
  105OSM    H4S10701   6.518   6.717  10.546  4.5050  0.7823 -2.2378
  105OSM    C5S10702   6.644   6.545  10.503 -0.5943  0.5483 -0.7868
  105OSM    H5S10703   6.699   6.460  10.547  0.8222  0.9441 -1.7070
  105OSM    C6S10704   6.692   6.574  10.361  0.0411  0.1488  0.5392
  105OSM    H6S10705   6.684   6.469  10.328 -3.9126  0.6360 -0.5767
  105OSM    H6T10706   6.802   6.584  10.362 -0.0921  2.2329  0.2404
  105OSM    C7S10707   6.621   6.672  10.265  1.1068  0.3443 -0.7961
  105OSM    H7S10708   6.640   6.777  10.298 -0.7169  0.5172 -0.1742
  105OSM    H7T10709   6.511   6.665  10.279  1.0545 -1.7953 -1.9192
  105OSM    C8S10710   6.646   6.657  10.112  0.1929  0.3451  0.0206
  105OSM    H8S10711   6.607   6.556  10.089 -0.5301  0.0585  2.2674
  105OSM    H8T10712   6.756   6.655  10.101  0.5480  3.0665  1.9313
  105OSM    C9S10713   6.571   6.755  10.025  0.4044 -0.5753  0.1250
  105OSM    H9S10714   6.616   6.758   9.923 -1.3668 -4.2746 -0.9618
  105OSM    H9T10715   6.594   6.846  10.084  0.0531 -0.0419 -0.5543
  105OSM   C10S10716   6.422   6.720   9.996 -0.2996  0.6679  0.0585
  105OSM   H10S10717   6.375   6.685  10.090 -1.3541 -1.3734 -1.1641
  105OSM   H10T10718   6.424   6.631   9.930 -0.6316  0.3317  0.5004
  105OSM   C11S10719   6.335   6.826   9.927  0.0698  0.4972 -0.2771
  105OSM   H11S10720   6.340   6.922   9.982  0.6841  1.0540 -1.2873
  105OSM   H11T10721   6.230   6.792   9.922  0.6411 -1.3895 -0.1796
  105OSM   C12S10722   6.374   6.842   9.788 -0.0952 -0.3066  0.0231
  105OSM   H12S10723   6.348   6.750   9.731 -0.8918  0.7767 -1.4297
  105OSM   H12T10724   6.481   6.870   9.789 -0.4009  1.1032 -1.7515
  105OSM   C13S10725   6.284   6.953   9.730 -0.3437  0.2873  0.3980
  105OSM   H13S10726   6.290   7.046   9.791  0.7610  0.8703 -0.5480
  105OSM   H13T10727   6.183   6.909   9.728  0.5230 -1.8929  1.5478
  105OSM   C14S10728   6.317   6.984   9.580 -0.0491 -0.0446 -0.4373
  105OSM   H14S10729   6.422   7.017   9.564 -0.8647  1.9436 -2.0987
  105OSM   H14T10730   6.252   7.070   9.552 -1.9336 -0.5308  2.0343
  105OSM   C15S10731   6.288   6.872   9.477  0.3637  0.1919  0.1398
  105OSM   H15S10732   6.188   6.827   9.495  0.3853  0.5851  1.2888
  105OSM   H15T10733   6.360   6.788   9.477  0.7547  0.5220 -0.3200
  105OSM   C16S10734   6.277   6.929   9.333 -0.4755 -0.4569 -0.0216
  105OSM   H16S10735   6.366   6.987   9.300 -1.8729  1.5425 -0.4314
  105OSM   H16T10736   6.183   6.989   9.331 -1.3873 -1.7867  1.1652
  105OSM   C17S10737   6.267   6.813   9.233 -0.2014 -0.0847 -0.0378
  105OSM   H17S10738   6.179   6.750   9.259 -1.0091 -0.0072 -2.2870
  105OSM   H17T10739   6.355   6.746   9.235  0.4395  0.7495  0.9269
  105OSM   C18S10740   6.243   6.869   9.093  0.2570  0.6831  0.6547
  105OSM   H18S10741   6.152   6.932   9.081 -0.6436 -0.7226 -0.2710
  105OSM   H18T10742   6.231   6.791   9.015  0.5429  0.0184  1.2574
  105OSM   H18U10743   6.319   6.939   9.054 -0.2580  0.3857 -0.9508
  105OSM    C1F10744   6.202   6.415  10.601  0.1051 -0.0471  0.3698
  105OSM     OF10745   6.106   6.484  10.629  0.4652  0.4355 -0.1640
  105OSM    C2F10746   6.186   6.285  10.520  0.3768 -0.2339 -0.5760
  105OSM    H2F10747   6.088   6.242  10.548  0.1892  0.6626  0.1669
  105OSM    H2G10748   6.264   6.214  10.554  0.4786  0.2101  0.1346
  105OSM    C3F10749   6.193   6.316  10.373  0.0535  0.4925  0.2201
  105OSM    H3F10750   6.111   6.387  10.347 -1.0330 -1.0774 -0.8415
  105OSM    H3G10751   6.171   6.216  10.330 -2.9375  0.4452  1.5378
  105OSM    C4F10752   6.320   6.379  10.319 -0.1718  0.2210  0.5952
  105OSM    H4F10753   6.420   6.337  10.344 -0.3532 -1.8365 -1.7300
  105OSM    H4G10754   6.319   6.480  10.365 -2.5535  1.2494 -1.4665
  105OSM    C5F10755   6.299   6.431  10.171  0.2819 -0.6432  0.2379
  105OSM    H5F10756   6.400   6.461  10.136  0.8224 -1.8808  0.6743
  105OSM    H5G10757   6.242   6.527  10.171 -0.0138 -0.8007 -1.1347
  105OSM    C6F10758   6.234   6.329  10.081  0.3420 -0.1977  0.1395
  105OSM    H6F10759   6.124   6.340  10.088  0.2948  0.0930 -0.9532
  105OSM    H6G10760   6.258   6.230  10.127  1.4793  1.2555  2.8963
  105OSM    C7F10761   6.282   6.341   9.933  0.5700 -0.7780 -0.4684
  105OSM    H7F10762   6.392   6.325   9.941  1.3193  2.5205 -2.4397
  105OSM    H7G10763   6.291   6.448   9.904  0.4417 -0.9798 -1.2727
  105OSM    C8F10764   6.223   6.255   9.824  0.7328  0.1302  0.5577
  105OSM    H8F10765   6.194   6.152   9.853  2.7209 -0.5162  0.3996
  105OSM    H8G10766   6.299   6.241   9.745 -0.1796  1.5211 -0.6236
  105OSM    C9F10767   6.107   6.325   9.757 -0.5172  0.6500 -0.7750
  105OSM    H9F10768   6.012   6.302   9.807  0.0523 -1.6048 -0.6217
  105OSM   C10F10769   6.118   6.414   9.658  0.1847 -0.7753 -0.1038
  105OSM   H10F10770   6.027   6.453   9.612 -0.1457  1.2464  2.0829
  105OSM   C11F10771   6.241   6.463   9.580 -0.4857  0.3246  0.2343
  105OSM   H11F10772   6.320   6.386   9.572  0.8752  1.4472  2.1167
  105OSM   H11G10773   6.292   6.546   9.634  4.3203 -1.4381 -1.1429
  105OSM   C12F10774   6.223   6.499   9.431 -0.2219 -0.0051 -0.2790
  105OSM   H12F10775   6.315   6.549   9.394 -2.0011  3.5125 -0.3663
  105OSM   H12G10776   6.144   6.576   9.421  0.6932  1.3057  1.8413
  105OSM   C13F10777   6.195   6.378   9.342  0.3473 -0.1759 -0.0418
  105OSM   H13F10778   6.112   6.309   9.368  0.8673 -1.6355 -1.9324
  105OSM   H13G10779   6.288   6.317   9.331 -0.9522 -2.2207 -0.4104
  105OSM   C14F10780   6.145   6.430   9.203 -0.2954 -0.1230  0.1833
  105OSM   H14F10781   6.201   6.523   9.180 -0.6567 -0.2444 -1.2397
  105OSM   H14G10782   6.039   6.453   9.225  0.3329  0.7579  2.7694
  105OSM   C15F10783   6.180   6.333   9.089 -0.1185  0.2069 -0.1228
  105OSM   H15F10784   6.108   6.249   9.082  1.0434 -0.8601  0.1422
  105OSM   H15G10785   6.277   6.283   9.111 -0.1698 -0.0601 -0.5027
  105OSM   C16F10786   6.182   6.393   8.949 -0.0290  0.2741 -0.2896
  105OSM   H16F10787   6.209   6.501   8.959 -0.7647  0.4198  0.2529
  105OSM   H16G10788   6.082   6.394   8.900 -0.4103  1.7335  0.4518
  105OSM   C17F10789   6.275   6.312   8.856 -0.2225 -0.2208  0.1513
  105OSM   H17F10790   6.226   6.213   8.844  0.7147 -0.8299  1.1311
  105OSM   H17G10791   6.371   6.293   8.909 -0.1921 -2.0324 -0.4995
  105OSM   C18F10792   6.316   6.364   8.715  0.0513 -0.1148 -0.2110
  105OSM   H18F10793   6.404   6.314   8.670  1.1482  0.7816  0.8795
  105OSM   H18G10794   6.358   6.462   8.743 -0.7423 -0.6562  3.4478
  105OSM   H18H10795   6.225   6.370   8.652 -0.5794 -1.5893  0.4949
  106OSM      N10796   1.420   6.678  10.943  0.7195 -0.3109  0.0234
  106OSM    C1510797   1.286   6.714  10.991  0.3497 -0.4525  0.1566
  106OSM   H15A10798   1.277   6.784  11.073 -1.5845 -0.3321 -0.1001
  106OSM   H15B10799   1.228   6.631  11.029 -1.4648  1.2483  1.3352
  106OSM   H15C10800   1.224   6.756  10.912  1.7899  2.1240  0.2948
  106OSM    C1410801   1.494   6.802  10.918 -0.2385 -0.4656 -0.9809
  106OSM   H14A10802   1.451   6.858  10.837 -0.6339 -0.7282 -0.9583
  106OSM   H14B10803   1.595   6.779  10.888 -0.1204 -0.3596 -0.6729
  106OSM   H14C10804   1.511   6.857  11.009  2.0740 -2.0290 -0.3697
  106OSM    C1310805   1.497   6.617  11.058 -0.2057  0.3892  0.1831
  106OSM   H13A10806   1.513   6.689  11.136  0.2567  0.1146  0.3430
  106OSM   H13B10807   1.593   6.580  11.026 -0.2638 -0.3669  0.8581
  106OSM   H13C10808   1.439   6.535  11.099  0.3090  0.8296  1.8629
  106OSM    C1210809   1.409   6.588  10.823 -0.1288 -0.6374  0.0607
  106OSM   H12A10810   1.360   6.645  10.745  3.5591  1.5128 -0.9482
  106OSM   H12B10811   1.349   6.504  10.854 -1.2661  0.6098  1.4295
  106OSM    C1110812   1.528   6.539  10.735  1.0771  0.1239  0.2945
  106OSM   H11A10813   1.571   6.627  10.683 -0.2122  1.8114  1.9218
  106OSM   H11B10814   1.473   6.482  10.657  0.6393 -1.2607  1.5709
  106OSM      P10815   1.768   6.519  10.845 -0.0677  0.4326 -0.1808
  106OSM    O1310816   1.778   6.661  10.814  0.8417  0.2543 -0.0556
  106OSM    O1410817   1.779   6.479  10.987 -0.2764  0.2180  0.6332
  106OSM    O1110818   1.873   6.446  10.758  0.2580  1.0640 -0.0607
  106OSM    O1210819   1.629   6.464  10.793 -0.1511 -0.0871  0.3090
  106OSM    C1S10820   1.864   6.417  10.615 -0.0329 -0.6930  0.2282
  106OSM    H1S10821   1.816   6.506  10.570  1.5527  0.7205  1.1894
  106OSM    H1T10822   1.798   6.329  10.598  0.6151 -1.4157  1.3331
  106OSM     NF10823   1.961   6.386  10.400 -0.5243 -0.1026  0.2176
  106OSM    HNF10824   1.940   6.297  10.360 -0.6345 -1.0663  2.2926
  106OSM    C2S10825   2.000   6.398  10.542 -0.3954 -0.0230 -0.3190
  106OSM    H2S10826   2.065   6.486  10.558 -1.9341  0.6555  3.1149
  106OSM    C3S10827   2.074   6.272  10.602 -0.2944  0.7312  0.0383
  106OSM    H3S10828   2.003   6.187  10.602 -0.9202  1.1455 -2.8407
  106OSM     O310829   2.094   6.278  10.745  0.0104 -0.3038  0.7699
  106OSM    HO310830   2.044   6.358  10.766 -0.4889 -0.2094 -0.6622
  106OSM    C4S10831   2.189   6.235  10.517 -0.0871 -0.0922  0.2486
  106OSM    H4S10832   2.179   6.159  10.438  0.7986  2.2587 -2.2769
  106OSM    C5S10833   2.310   6.286  10.532 -0.1667  0.8108 -0.5327
  106OSM    H5S10834   2.333   6.351  10.618 -0.1445 -0.3957  0.3995
  106OSM    C6S10835   2.433   6.261  10.444 -0.0438  0.0632  0.1328
  106OSM    H6S10836   2.504   6.204  10.508 -1.2521 -0.9289  0.6413
  106OSM    H6T10837   2.487   6.355  10.420 -0.2847  0.3242  0.6099
  106OSM    C7S10838   2.419   6.193  10.307 -0.3227 -0.5396  0.9189
  106OSM    H7S10839   2.355   6.103  10.304  0.0291 -0.7866  0.7663
  106OSM    H7T10840   2.521   6.157  10.282  0.4023  0.7326  1.9224
  106OSM    C8S10841   2.363   6.299  10.205  0.3916  0.0421 -0.2030
  106OSM    H8S10842   2.433   6.385  10.210  0.5855 -0.0876 -0.5978
  106OSM    H8T10843   2.262   6.332  10.235  0.9998  1.0779  0.7773
  106OSM    C9S10844   2.346   6.246  10.061 -0.2055 -1.3080  0.1570
  106OSM    H9S10845   2.270   6.165  10.052 -2.6955  0.8445  0.5553
  106OSM    H9T10846   2.451   6.221  10.035  0.0242 -2.0874  1.7285
  106OSM   C10S10847   2.290   6.353   9.967 -0.0401  0.0552 -0.0299
  106OSM   H10S10848   2.337   6.453   9.977 -0.9301  0.4812 -0.0238
  106OSM   H10T10849   2.191   6.379  10.011  1.1218  1.6745  1.8101
  106OSM   C11S10850   2.281   6.293   9.822 -0.6304  0.1060  0.8631
  106OSM   H11S10851   2.223   6.198   9.823 -0.4397 -0.0925 -1.4806
  106OSM   H11T10852   2.379   6.252   9.792 -1.4203 -2.7901  1.9013
  106OSM   C12S10853   2.224   6.388   9.717 -0.5395 -1.1848  0.2760
  106OSM   H12S10854   2.300   6.469   9.706 -1.2568 -0.4466  0.6626
  106OSM   H12T10855   2.134   6.438   9.759  0.1975 -0.4695  1.0531
  106OSM   C13S10856   2.191   6.325   9.586  0.6075  0.4505  0.2322
  106OSM   H13S10857   2.100   6.262   9.595  0.9757 -0.2569 -0.7355
  106OSM   H13T10858   2.274   6.259   9.552 -0.8494 -0.6675 -1.2759
  106OSM   C14S10859   2.166   6.429   9.473  0.1901 -0.9891  0.0992
  106OSM   H14S10860   2.241   6.511   9.476 -0.5838 -0.2814  0.3307
  106OSM   H14T10861   2.068   6.476   9.492  1.1227  1.2111 -0.2268
  106OSM   C15S10862   2.170   6.369   9.328 -0.0975 -0.3985  0.0191
  106OSM   H15S10863   2.099   6.285   9.314  1.4755 -1.9146  0.7558
  106OSM   H15T10864   2.275   6.336   9.316 -0.3883 -1.2615 -0.1954
  106OSM   C16S10865   2.145   6.464   9.213 -0.8242  0.7081 -0.2848
  106OSM   H16S10866   2.213   6.552   9.204 -1.5529  1.1185 -2.3120
  106OSM   H16T10867   2.047   6.514   9.231 -1.8744 -1.6543  0.8959
  106OSM   C17S10868   2.155   6.384   9.083  0.0872  0.3178 -0.6015
  106OSM   H17S10869   2.089   6.295   9.093  0.4398  0.2771  2.7351
  106OSM   H17T10870   2.254   6.340   9.060 -0.0713 -4.0510  4.8166
  106OSM   C18S10871   2.113   6.458   8.963 -0.5098 -0.4532  0.1920
  106OSM   H18S10872   2.191   6.534   8.940 -0.2916 -0.5074  0.7580
  106OSM   H18T10873   2.012   6.502   8.981  0.6819  1.5453  2.3735
  106OSM   H18U10874   2.100   6.386   8.879 -0.9623  0.2058 -0.3195
  106OSM    C1F10875   1.933   6.489  10.324  0.0530 -0.2604  0.4719
  106OSM     OF10876   1.936   6.604  10.371 -1.0485 -0.5767 -0.3015
  106OSM    C2F10877   1.890   6.473  10.178 -0.3224  0.4425 -0.3969
  106OSM    H2F10878   1.782   6.492  10.161  0.0306  2.5184 -0.6067
  106OSM    H2G10879   1.909   6.366  10.154  1.4828  0.0447  2.2749
  106OSM    C3F10880   1.967   6.572  10.088 -0.2161  0.0737 -0.5547
  106OSM    H3F10881   2.076   6.549  10.080 -0.6686 -2.6616  0.3516
  106OSM    H3G10882   1.948   6.674  10.130 -3.0709 -0.5749 -0.0680
  106OSM    C4F10883   1.914   6.566   9.943 -0.0032 -0.6292 -0.8944
  106OSM    H4F10884   1.943   6.463   9.915 -0.0014 -0.8019 -0.2663
  106OSM    H4G10885   1.958   6.649   9.884 -1.6555  2.5664  1.9868
  106OSM    C5F10886   1.762   6.586   9.926  0.3027  0.6432  0.4583
  106OSM    H5F10887   1.709   6.639  10.008  0.1325  1.9726 -0.4798
  106OSM    H5G10888   1.707   6.490   9.923 -0.2390  0.9730 -1.5427
  106OSM    C6F10889   1.742   6.651   9.791 -0.6450  0.6125  0.0450
  106OSM    H6F10890   1.807   6.741   9.782 -0.1202  0.0780 -2.0223
  106OSM    H6G10891   1.637   6.684   9.773 -0.5545  0.6412 -0.4432
  106OSM    C7F10892   1.783   6.557   9.676  0.6839  0.5884  0.6676
  106OSM    H7F10893   1.704   6.478   9.683  0.0302  1.3592  3.0591
  106OSM    H7G10894   1.882   6.513   9.698 -0.5338 -1.0772  3.3974
  106OSM    C8F10895   1.775   6.613   9.537  0.6910  0.1957 -0.2672
  106OSM    H8F10896   1.673   6.654   9.521 -0.1907 -0.3638  3.1484
  106OSM    H8G10897   1.788   6.530   9.464  0.1775 -0.3056  0.2000
  106OSM    C9F10898   1.880   6.722   9.512 -1.0624 -0.4807  0.1468
  106OSM    H9F10899   1.948   6.751   9.593 -0.1771 -0.2951 -0.6462
  106OSM   C10F10900   1.909   6.760   9.380  0.7428  0.0662  0.2324
  106OSM   H10F10901   1.970   6.850   9.365 -1.0626  1.4040  0.5406
  106OSM   C11F10902   1.837   6.712   9.255 -0.2068  0.3944 -0.0853
  106OSM   H11F10903   1.752   6.646   9.279  1.5410 -1.7734  0.5173
  106OSM   H11G10904   1.905   6.653   9.189  0.2687  0.2757  0.5041
  106OSM   C12F10905   1.779   6.829   9.169 -0.5776 -0.5835 -0.1820
  106OSM   H12F10906   1.736   6.899   9.244 -0.4149 -2.3451  1.6534
  106OSM   H12G10907   1.695   6.794   9.105 -0.6587 -3.4674  1.3389
  106OSM   C13F10908   1.891   6.902   9.084 -0.0870 -0.7617  0.5034
  106OSM   H13F10909   1.957   6.820   9.047 -0.7956  0.8138 -5.2543
  106OSM   H13G10910   1.951   6.977   9.139  0.0997  1.5237 -2.5627
  106OSM   C14F10911   1.824   6.983   8.962 -0.5831  0.0851 -0.5496
  106OSM   H14F10912   1.774   6.903   8.902 -0.0300 -3.1621  2.9124
  106OSM   H14G10913   1.909   7.009   8.896 -0.7121  1.2836 -0.2620
  106OSM   C15F10914   1.748   7.109   8.997 -0.2264 -0.8174 -0.1798
  106OSM   H15F10915   1.683   7.089   9.085  1.6204  2.2724  2.0735
  106OSM   H15G10916   1.675   7.128   8.916  0.2158 -1.2971 -0.6967
  106OSM   C16F10917   1.841   7.233   8.987 -0.2686 -0.1026 -0.2010
  106OSM   H16F10918   1.873   7.240   8.881  1.1345  0.2366  0.2126
  106OSM   H16G10919   1.939   7.226   9.040 -0.5168 -0.9530  0.1651
  106OSM   C17F10920   1.771   7.363   9.022  0.1234 -0.6279  0.5933
  106OSM   H17F10921   1.665   7.363   8.987  0.7127  0.1463 -1.3040
  106OSM   H17G10922   1.823   7.427   8.948 -2.8798 -0.4706 -1.5566
  106OSM   C18F10923   1.798   7.414   9.166  1.1178  0.3138 -0.1339
  106OSM   H18F10924   1.793   7.326   9.234 -0.8882  0.2671 -0.2576
  106OSM   H18G10925   1.727   7.492   9.201 -1.5530 -1.3189 -1.5328
  106OSM   H18H10926   1.897   7.460   9.185  1.0743  0.2462  0.2669
  107OSM      N10927   4.712   1.459  11.164 -0.3191  0.2425  0.1793
  107OSM    C1510928   4.837   1.380  11.167  0.2450 -0.0248 -0.5628
  107OSM   H15A10929   4.918   1.440  11.128 -0.8593  3.2833  1.7968
  107OSM   H15B10930   4.835   1.285  11.114  0.0599  0.7580 -2.0192
  107OSM   H15C10931   4.866   1.353  11.267 -3.2143  0.4760  0.7234
  107OSM    C1410932   4.603   1.380  11.234 -0.1646 -0.1979  0.3372
  107OSM   H14A10933   4.583   1.297  11.168  0.6058  0.6168 -0.9875
  107OSM   H14B10934   4.512   1.437  11.249  1.1049  1.2398  3.6227
  107OSM   H14C10935   4.640   1.343  11.328  0.5914 -1.1969 -0.3299
  107OSM    C1310936   4.729   1.579  11.255  0.1546  0.3094  0.4422
  107OSM   H13A10937   4.814   1.636  11.222  0.1081 -0.4398 -1.0453
  107OSM   H13B10938   4.744   1.539  11.354 -0.1579 -2.0711 -0.3861
  107OSM   H13C10939   4.642   1.642  11.267  0.4202  0.4753  1.6201
  107OSM    C1210940   4.673   1.502  11.029  0.4634 -0.5977  0.2760
  107OSM   H12A10941   4.675   1.414  10.966  0.7401  0.2212 -0.8926
  107OSM   H12B10942   4.744   1.564  10.977  0.0320  0.1990  0.6173
  107OSM    C1110943   4.542   1.573  11.005  0.6270  0.3314 -0.5570
  107OSM   H11A10944   4.464   1.512  11.055  0.1900  2.6831  1.8830
  107OSM   H11B10945   4.527   1.564  10.895 -0.6148 -0.6975 -0.3301
  107OSM      P10946   4.630   1.820  10.974 -0.1349 -0.2484 -0.2038
  107OSM    O1310947   4.678   1.927  11.069 -0.0677  0.2376  0.2364
  107OSM    O1410948   4.729   1.741  10.900 -0.2703 -0.0754  0.0348
  107OSM    O1110949   4.533   1.889  10.863 -0.6649 -0.4940 -0.3356
  107OSM    O1210950   4.539   1.710  11.044  0.5730  0.2275 -0.2383
  107OSM    C1S10951   4.573   1.961  10.748  0.4705 -0.4775  0.2012
  107OSM    H1S10952   4.678   1.997  10.753  0.8768 -1.5803 -0.0442
  107OSM    H1T10953   4.504   2.046  10.730  1.1645  0.1218  0.3426
  107OSM     NF10954   4.630   1.933  10.514  0.7242  0.2830 -0.8310
  107OSM    HNF10955   4.576   1.966  10.437 -0.1763 -2.2000 -1.3696
  107OSM    C2S10956   4.564   1.863  10.627 -0.0012  0.3702 -0.4096
  107OSM    H2S10957   4.609   1.765  10.651 -0.9140  0.2757  1.0398
  107OSM    C3S10958   4.417   1.822  10.607  0.1723 -0.0431  0.0755
  107OSM    H3S10959   4.368   1.919  10.588 -2.9229 -0.7938  3.2050
  107OSM     O310960   4.359   1.755  10.718 -0.8291  0.5812  0.2879
  107OSM    HO310961   4.428   1.750  10.785 -0.3793  0.2466 -0.1900
  107OSM    C4S10962   4.407   1.750  10.476 -0.5054  0.2317  0.4587
  107OSM    H4S10963   4.372   1.811  10.392  1.1268 -0.4567 -0.7816
  107OSM    C5S10964   4.427   1.620  10.455 -0.2246 -0.4466 -0.0586
  107OSM    H5S10965   4.442   1.555  10.542  0.9842  1.8448  1.5359
  107OSM    C6S10966   4.398   1.543  10.323  0.1271 -0.6756  0.5180
  107OSM    H6S10967   4.314   1.474  10.343 -0.0455 -0.1705  1.5965
  107OSM    H6T10968   4.491   1.484  10.304  0.0442 -0.7928  0.4793
  107OSM    C7S10969   4.376   1.643  10.207  0.1652  0.2495 -0.0176
  107OSM    H7S10970   4.468   1.705  10.199  1.9842 -1.9954  1.8945
  107OSM    H7T10971   4.286   1.706  10.226  0.2177  0.1922  0.4304
  107OSM    C8S10972   4.344   1.575  10.073  0.3926  0.0886  0.2800
  107OSM    H8S10973   4.249   1.518  10.081 -0.0771  1.0620  2.2471
  107OSM    H8T10974   4.429   1.511  10.042  1.6142  1.1905  1.2156
  107OSM    C9S10975   4.331   1.684   9.961  0.0830  0.7791 -0.0652
  107OSM    H9S10976   4.422   1.736   9.924 -1.2231  1.7917 -1.9824
  107OSM    H9T10977   4.259   1.764   9.989 -0.5403  1.2360 -2.6988
  107OSM   C10S10978   4.256   1.615   9.840  0.3898 -0.0248  0.2413
  107OSM   H10S10979   4.157   1.593   9.884  1.5994  0.4554  3.5338
  107OSM   H10T10980   4.311   1.526   9.803 -2.5038 -1.4136 -0.9793
  107OSM   C11S10981   4.243   1.707   9.711 -0.2402  0.6302  0.7391
  107OSM   H11S10982   4.346   1.746   9.698 -0.7627  1.5223 -1.0401
  107OSM   H11T10983   4.182   1.798   9.728  0.8530  1.3716  0.7898
  107OSM   C12S10984   4.195   1.641   9.582  0.3591 -0.3339 -0.0410
  107OSM   H12S10985   4.086   1.622   9.570  0.3936  0.1630 -1.3252
  107OSM   H12T10986   4.231   1.537   9.576  1.6250  0.0633  0.4641
  107OSM   C13S10987   4.238   1.716   9.451  0.2921 -0.7313 -0.1588
  107OSM   H13S10988   4.339   1.762   9.456 -0.1361  0.6418 -2.6157
  107OSM   H13T10989   4.184   1.813   9.443  0.0011 -1.0443 -2.5144
  107OSM   C14S10990   4.236   1.631   9.317  0.0187  0.0061 -0.3409
  107OSM   H14S10991   4.139   1.577   9.316  0.1374 -0.2063 -1.6327
  107OSM   H14T10992   4.316   1.555   9.331  0.3299  0.4478  0.3661
  107OSM   C15S10993   4.274   1.714   9.193  0.5971  0.5527 -0.2959
  107OSM   H15S10994   4.384   1.730   9.187  0.8024 -0.8176 -0.6301
  107OSM   H15T10995   4.220   1.811   9.193 -0.8065 -0.1329 -2.9473
  107OSM   C16S10996   4.244   1.649   9.051 -0.1204 -0.1642  0.4962
  107OSM   H16S10997   4.278   1.719   8.973  0.8917 -2.3574 -1.1355
  107OSM   H16T10998   4.134   1.636   9.041 -0.1333  0.4743 -0.3187
  107OSM   C17S10999   4.304   1.511   9.047  0.7653 -0.6228 -0.6760
  107OSM   H17S11000   4.258   1.446   9.124  0.3745  0.3814 -0.0367
  107OSM   H17T11001   4.409   1.528   9.079  0.9241 -2.2632 -0.2733
  107OSM   C18S11002   4.301   1.441   8.914  0.4556 -0.4722 -0.6306
  107OSM   H18S11003   4.363   1.350   8.906 -1.6025 -2.1277  0.9030
  107OSM   H18T11004   4.328   1.514   8.834  1.7004  0.4319  0.5823
  107OSM   H18U11005   4.193   1.421   8.896  0.0003 -0.1898  1.5623
  107OSM    C1F11006   4.758   1.952  10.512  0.1678 -0.4427 -0.3914
  107OSM     OF11007   4.827   1.890  10.598 -0.0784 -0.1689 -0.2589
  107OSM    C2F11008   4.821   2.038  10.406 -0.2358  1.0572 -0.5172
  107OSM    H2F11009   4.912   2.091  10.440 -1.0308  2.9848 -1.2842
  107OSM    H2G11010   4.742   2.105  10.365 -1.5866 -0.5977 -0.7808
  107OSM    C3F11011   4.858   1.942  10.296  0.4699  0.5668 -0.1955
  107OSM    H3F11012   4.771   1.880  10.265  1.2032  1.1077 -3.8257
  107OSM    H3G11013   4.935   1.866  10.322 -0.0775 -0.3108 -1.0809
  107OSM    C4F11014   4.905   2.026  10.175  0.5019 -0.3229 -0.1895
  107OSM    H4F11015   4.993   2.072  10.225  0.0275 -1.6980  2.0595
  107OSM    H4G11016   4.828   2.101  10.146  0.5923 -0.9889 -2.3059
  107OSM    C5F11017   4.949   1.937  10.054 -0.7038 -0.7924 -0.4965
  107OSM    H5F11018   4.860   1.884  10.014 -0.5062 -0.8706 -0.8336
  107OSM    H5G11019   5.007   1.848  10.087  1.4591  1.2164  1.5253
  107OSM    C6F11020   5.038   2.009   9.954  0.3385  0.0483  0.4804
  107OSM    H6F11021   5.089   1.948   9.876 -1.7701 -1.1757 -0.0307
  107OSM    H6G11022   5.117   2.066  10.007  0.5598  1.0886 -0.9108
  107OSM    C7F11023   4.956   2.111   9.869 -0.3298 -0.5175  0.6036
  107OSM    H7F11024   4.878   2.171   9.922 -0.6426 -0.2293 -0.1758
  107OSM    H7G11025   4.901   2.037   9.807 -0.6128  2.2914 -2.8157
  107OSM    C8F11026   5.049   2.204   9.790 -0.0767  0.0861  0.8420
  107OSM    H8F11027   5.140   2.148   9.762  0.1574 -0.4189  2.4830
  107OSM    H8G11028   5.090   2.278   9.862  2.0227 -1.1492  1.0001
  107OSM    C9F11029   4.990   2.274   9.669 -0.2599 -0.9356  0.6327
  107OSM    H9F11030   4.934   2.367   9.688  0.2164  0.6158 -4.2026
  107OSM   C10F11031   4.999   2.247   9.537  0.6687  0.4685  0.2436
  107OSM   H10F11032   4.947   2.311   9.464 -1.0266 -1.6964 -0.5816
  107OSM   C11F11033   5.061   2.118   9.482 -0.2168  0.1300 -0.2093
  107OSM   H11F11034   4.985   2.049   9.439  1.8796 -1.3198 -1.8201
  107OSM   H11G11035   5.103   2.059   9.566 -0.3032  1.8716  1.1065
  107OSM   C12F11036   5.171   2.149   9.380  0.2280  0.3253  0.2787
  107OSM   H12F11037   5.228   2.055   9.359  0.2779  0.5273 -0.5277
  107OSM   H12G11038   5.238   2.227   9.422 -0.1762  0.7227  0.1930
  107OSM   C13F11039   5.121   2.223   9.254 -0.0003  0.1556  0.4180
  107OSM   H13F11040   5.073   2.320   9.281 -2.1292 -0.9178  0.7360
  107OSM   H13G11041   5.038   2.159   9.217  0.8451 -1.8248  1.7709
  107OSM   C14F11042   5.223   2.244   9.143 -0.4993 -0.1435  0.6500
  107OSM   H14F11043   5.266   2.145   9.116 -3.1570 -1.3214  0.3757
  107OSM   H14G11044   5.293   2.317   9.189  0.1351 -1.0499  1.1419
  107OSM   C15F11045   5.170   2.306   9.011  0.3642 -0.0904 -0.1684
  107OSM   H15F11046   5.257   2.295   8.943 -0.1020 -0.7219 -0.6766
  107OSM   H15G11047   5.164   2.417   9.014  0.8577 -0.0835  1.3289
  107OSM   C16F11048   5.038   2.244   8.960 -0.7841 -0.0801 -0.6254
  107OSM   H16F11049   4.953   2.262   9.029 -1.1367  1.0705 -1.3276
  107OSM   H16G11050   5.047   2.133   8.960 -1.9957 -0.2258  1.0551
  107OSM   C17F11051   4.992   2.291   8.819  0.2006 -0.4986  0.2938
  107OSM   H17F11052   5.078   2.309   8.750  0.7919 -4.1964 -0.1366
  107OSM   H17G11053   4.950   2.394   8.824  1.4702  0.1413 -1.3205
  107OSM   C18F11054   4.908   2.183   8.750  0.2082 -0.4556  0.0416
  107OSM   H18F11055   4.967   2.093   8.721 -0.9188 -0.6075 -1.9443
  107OSM   H18G11056   4.856   2.219   8.659 -3.0425  0.8869  2.2366
  107OSM   H18H11057   4.832   2.145   8.821  2.0925 -0.9014  1.9408
  108OSM      N11058   4.342   5.763  11.224  0.7319  0.2788  0.0541
  108OSM    C1511059   4.268   5.638  11.273 -0.0631  0.8403  0.2317
  108OSM   H15A11060   4.181   5.619  11.212 -0.6122  0.7683  1.0197
  108OSM   H15B11061   4.231   5.645  11.375 -0.9586  2.5282 -0.1724
  108OSM   H15C11062   4.339   5.559  11.258 -0.9677  0.4319 -2.4157
  108OSM    C1411063   4.243   5.874  11.247  0.2265 -0.7498 -0.1855
  108OSM   H14A11064   4.203   5.858  11.346 -1.9794  1.8405 -0.5065
  108OSM   H14B11065   4.166   5.863  11.172  0.7220  1.7085 -1.1508
  108OSM   H14C11066   4.285   5.973  11.242 -0.9800  0.1643  3.8135
  108OSM    C1311067   4.461   5.787  11.312  0.2237  0.6041 -0.3828
  108OSM   H13A11068   4.424   5.794  11.413 -0.6478  0.3455 -0.6692
  108OSM   H13B11069   4.497   5.888  11.297  1.8537  0.1123  0.1443
  108OSM   H13C11070   4.531   5.707  11.296 -0.7309 -0.4169  0.3847
  108OSM    C1211071   4.389   5.753  11.078 -0.1245 -0.4635 -0.0458
  108OSM   H12A11072   4.300   5.756  11.017 -1.3860  0.3443  1.7608
  108OSM   H12B11073   4.437   5.657  11.065 -0.5268 -0.6214 -0.4001
  108OSM    C1111074   4.475   5.864  11.021  0.3961 -0.1847  0.1252
  108OSM   H11A11075   4.501   5.831  10.918  0.8236  0.2078  0.1031
  108OSM   H11B11076   4.568   5.873  11.081  0.0915  0.1219  0.5507
  108OSM      P11077   4.470   6.135  11.013  0.5578  0.3793  0.0979
  108OSM    O1311078   4.410   6.237  10.922  0.1463 -0.0459  0.3625
  108OSM    O1411079   4.492   6.171  11.151 -0.0818  0.1045  0.2436
  108OSM    O1111080   4.602   6.088  10.944 -0.0178  0.3097 -0.4965
  108OSM    O1211081   4.397   5.993  11.011  0.3087 -0.3444  0.2379
  108OSM    C1S11082   4.624   6.102  10.802 -0.1614  0.4852  0.2270
  108OSM    H1S11083   4.591   6.201  10.767 -1.9164 -0.5473 -1.2115
  108OSM    H1T11084   4.563   6.024  10.751  1.0219  0.5236 -1.3329
  108OSM     NF11085   4.796   6.064  10.620  0.6055  0.4991  0.1602
  108OSM    HNF11086   4.806   5.973  10.581 -0.1873 -0.2365  1.5715
  108OSM    C2S11087   4.777   6.070  10.757  0.1061 -0.4954  0.1154
  108OSM    H2S11088   4.845   6.153  10.786 -1.4016  2.1179 -3.0882
  108OSM    C3S11089   4.811   5.938  10.819 -0.5733 -0.0696 -0.2321
  108OSM    H3S11090   4.739   5.857  10.797 -2.3718  1.5608 -0.6304
  108OSM     O311091   4.831   5.951  10.959  0.2093 -0.4078 -0.3557
  108OSM    HO311092   4.801   6.041  10.975  2.0402  0.2254 -0.2323
  108OSM    C4S11093   4.946   5.892  10.769  0.1177  0.6273 -0.3055
  108OSM    H4S11094   5.036   5.948  10.799  0.1038 -0.0229  1.0208
  108OSM    C5S11095   4.956   5.782  10.685 -0.0981  0.7596  0.5145
  108OSM    H5S11096   4.874   5.720  10.645  1.0124 -0.8797  0.6886
  108OSM    C6S11097   5.097   5.743  10.644 -0.5799  0.2247 -0.3749
  108OSM    H6S11098   5.105   5.638  10.610 -1.3227  0.7015 -2.1231
  108OSM    H6T11099   5.167   5.754  10.730  0.3776 -0.1964 -1.0861
  108OSM    C7S11100   5.150   5.823  10.530 -0.5149 -0.0172  0.7999
  108OSM    H7S11101   5.248   5.774  10.509  0.6467  1.4013  2.5137
  108OSM    H7T11102   5.179   5.928  10.556  1.2089 -0.1271 -0.4811
  108OSM    C8S11103   5.051   5.814  10.411 -0.1260  1.3168  0.0729
  108OSM    H8S11104   4.952   5.864  10.415 -1.0935 -0.1972 -2.4737
  108OSM    H8T11105   5.030   5.707  10.392  0.4134  1.2369 -0.0895
  108OSM    C9S11106   5.104   5.884  10.287  0.2712  0.2585  0.5856
  108OSM    H9S11107   5.206   5.847  10.264 -0.1529  0.5356 -2.1740
  108OSM    H9T11108   5.099   5.995  10.291  1.0078  0.2852  0.9232
  108OSM   C10S11109   5.010   5.858  10.159 -0.2734  0.2657 -0.2806
  108OSM   H10S11110   4.908   5.891  10.190 -0.7341 -2.7368  1.7957
  108OSM   H10T11111   5.007   5.752  10.126  2.1521  0.5394 -1.5692
  108OSM   C11S11112   5.067   5.945  10.044 -0.8460  0.1725 -0.2321
  108OSM   H11S11113   5.168   5.901  10.030 -1.9001 -2.1885 -0.9322
  108OSM   H11T11114   5.073   6.051  10.078 -2.7838 -0.5173  2.5814
  108OSM   C12S11115   4.991   5.931   9.920  0.2184  0.5642 -0.1373
  108OSM   H12S11116   4.887   5.970   9.920  0.3422  1.0015 -2.2618
  108OSM   H12T11117   4.995   5.823   9.896 -1.6775 -0.3473  3.0484
  108OSM   C13S11118   5.048   6.015   9.803 -0.0273  0.3501  0.0843
  108OSM   H13S11119   5.155   5.993   9.785 -0.5612 -1.5441 -1.1076
  108OSM   H13T11120   5.026   6.124   9.811  0.7104  0.5360 -0.3580
  108OSM   C14S11121   4.988   5.961   9.672 -0.4165  0.1338 -0.3264
  108OSM   H14S11122   4.882   5.997   9.668 -0.7283 -0.8568 -2.3932
  108OSM   H14T11123   5.003   5.852   9.660  4.0649  0.5462  0.0519
  108OSM   C15S11124   5.057   6.011   9.551 -0.0438 -0.3850  0.1850
  108OSM   H15S11125   5.166   5.995   9.536  0.0503  0.4428 -0.0631
  108OSM   H15T11126   5.026   6.117   9.543  2.0687  0.4755  2.2103
  108OSM   C16S11127   5.004   5.920   9.427 -0.3920 -0.2528 -0.7303
  108OSM   H16S11128   4.893   5.920   9.437 -0.2720 -0.4886  0.8319
  108OSM   H16T11129   5.036   5.814   9.429 -0.5710 -0.3058  1.1374
  108OSM   C17S11130   5.031   5.989   9.289 -0.0896  0.2203  0.4269
  108OSM   H17S11131   5.138   5.999   9.262  0.3645  0.1955  2.1270
  108OSM   H17T11132   4.990   6.092   9.302 -0.6832 -0.1281  1.3425
  108OSM   C18S11133   4.959   5.907   9.176 -0.6985 -0.9398 -0.0416
  108OSM   H18S11134   4.853   5.892   9.204 -0.9021  1.6137  0.7619
  108OSM   H18T11135   5.019   5.815   9.154 -1.0310 -1.6351  1.8478
  108OSM   H18U11136   4.954   5.954   9.075 -0.3764 -1.3381 -0.2483
  108OSM    C1F11137   4.786   6.171  10.540 -0.0355 -0.2640  0.9158
  108OSM     OF11138   4.758   6.282  10.586  0.1014  0.2822 -0.7967
  108OSM    C2F11139   4.838   6.154  10.397  0.2775  0.0166 -0.2193
  108OSM    H2F11140   4.845   6.044  10.383 -0.3553 -0.0614  0.0572
  108OSM    H2G11141   4.943   6.190  10.402  0.0514  0.6442  0.0582
  108OSM    C3F11142   4.742   6.209  10.297  0.3128  0.1779  0.4727
  108OSM    H3F11143   4.746   6.320  10.298 -1.0001  0.2530  2.3650
  108OSM    H3G11144   4.634   6.196  10.318 -0.4160  0.4684 -2.5352
  108OSM    C4F11145   4.768   6.169  10.155  1.0593  0.0866  1.3130
  108OSM    H4F11146   4.767   6.059  10.143  0.7841  0.2630 -0.5170
  108OSM    H4G11147   4.866   6.211  10.125 -0.0670  2.0873  0.1734
  108OSM    C5F11148   4.661   6.224  10.059 -0.2421  0.2007  0.6214
  108OSM    H5F11149   4.634   6.330  10.077 -1.0952 -0.0961  1.1221
  108OSM    H5G11150   4.559   6.188  10.086 -0.3447  0.0325  0.0266
  108OSM    C6F11151   4.679   6.199   9.906  0.7545  1.0953 -0.0659
  108OSM    H6F11152   4.685   6.088   9.895 -0.2238  0.7677  2.1485
  108OSM    H6G11153   4.778   6.230   9.867  0.9897  0.7381  0.2422
  108OSM    C7F11154   4.576   6.267   9.817  0.4456 -0.4313  0.0285
  108OSM    H7F11155   4.602   6.375   9.823  0.6827 -0.3056 -2.3265
  108OSM    H7G11156   4.479   6.244   9.867  1.0870 -3.9071 -0.0500
  108OSM    C8F11157   4.579   6.225   9.666  0.0551  0.7197  0.7939
  108OSM    H8F11158   4.498   6.289   9.625  0.9085 -0.0988 -2.5367
  108OSM    H8G11159   4.559   6.116   9.656  0.7330  0.6206  0.4559
  108OSM    C9F11160   4.714   6.251   9.599 -0.4559 -0.0029 -0.4112
  108OSM    H9F11161   4.795   6.296   9.658 -1.3232 -1.1761  1.7706
  108OSM   C10F11162   4.742   6.223   9.466 -0.4645  0.4701 -0.5260
  108OSM   H10F11163   4.845   6.240   9.431 -0.1188 -2.8235 -1.4010
  108OSM   C11F11164   4.658   6.152   9.359 -1.0750 -0.1338  0.2015
  108OSM   H11F11165   4.570   6.097   9.398 -0.2904 -1.3651  0.3017
  108OSM   H11G11166   4.724   6.085   9.300 -1.0850  0.1096 -0.0898
  108OSM   C12F11167   4.610   6.249   9.246  0.3279  0.2339  0.4502
  108OSM   H12F11168   4.639   6.213   9.145 -1.3608 -0.2668  0.1209
  108OSM   H12G11169   4.648   6.354   9.248 -1.1895  0.9121 -1.8131
  108OSM   C13F11170   4.451   6.264   9.246 -0.0026  0.1262 -0.6599
  108OSM   H13F11171   4.439   6.320   9.341  0.7615  2.0216 -1.6201
  108OSM   H13G11172   4.400   6.166   9.245  1.8048 -0.8754 -0.3567
  108OSM   C14F11173   4.396   6.355   9.131 -0.1624  0.5058  0.0515
  108OSM   H14F11174   4.288   6.332   9.143  0.2704 -2.1059 -0.3250
  108OSM   H14G11175   4.439   6.310   9.039  0.4189  1.6238 -0.2380
  108OSM   C15F11176   4.418   6.503   9.160  0.5112  0.4403 -0.1449
  108OSM   H15F11177   4.412   6.551   9.060  0.8477 -0.3416 -0.5512
  108OSM   H15G11178   4.521   6.517   9.200  0.9543  0.2946 -1.2007
  108OSM   C16F11179   4.317   6.565   9.260 -1.1930  0.2258 -0.6504
  108OSM   H16F11180   4.278   6.484   9.325  0.1653  0.6933  0.8086
  108OSM   H16G11181   4.225   6.595   9.205 -1.5097 -2.2253 -1.6019
  108OSM   C17F11182   4.379   6.671   9.340 -0.2486  0.4874  0.6869
  108OSM   H17F11183   4.416   6.753   9.275  0.0837 -0.2371 -0.0733
  108OSM   H17G11184   4.463   6.630   9.400  0.3429  0.3477 -0.2022
  108OSM   C18F11185   4.274   6.736   9.429  0.1377  0.4089 -0.8791
  108OSM   H18F11186   4.325   6.811   9.493 -0.0491  1.6215 -2.0976
  108OSM   H18G11187   4.231   6.661   9.499  0.2011  0.0755 -1.1956
  108OSM   H18H11188   4.200   6.793   9.369  1.0348  2.9293  0.2994
  109OSM      N11189   0.855   0.170  11.026  0.1150 -0.7041 -0.0530
  109OSM    C1511190   0.733   0.219  11.090  0.5048 -0.2860  0.0698
  109OSM   H15A11191   0.741   0.217  11.198  0.1883  1.4292  0.1551
  109OSM   H15B11192   0.649   0.159  11.058  0.7862 -1.5632  1.5708
  109OSM   H15C11193   0.722   0.320  11.053  1.2159 -0.8356 -1.7231
  109OSM    C1411194   0.971   0.246  11.065 -0.0777 -0.5434  0.1166
  109OSM   H14A11195   1.007   0.213  11.161  1.5185 -0.7332 -0.5034
  109OSM   H14B11196   0.943   0.350  11.060 -1.4578 -0.9170 -0.4189
  109OSM   H14C11197   1.050   0.226  10.994  1.0442 -1.4102  1.5491
  109OSM    C1311198   0.876   0.022  11.064  0.4171 -0.0092 -0.7320
  109OSM   H13A11199   0.875   0.003  11.170  0.8528 -1.1317 -0.9159
  109OSM   H13B11200   0.964  -0.010  11.010  1.2356 -0.7351  0.9625
  109OSM   H13C11201   0.801  -0.042  11.019  2.5628 -1.7571 -2.0446
  109OSM    C1211202   0.833   0.185  10.878  0.2268  0.8561  0.3836
  109OSM   H12A11203   0.930   0.159  10.837  0.1755  0.4408  0.5191
  109OSM   H12B11204   0.811   0.288  10.853 -0.6151  1.7770  4.2189
  109OSM    C1111205   0.747   0.081  10.804 -0.4223 -0.2153 -0.8823
  109OSM   H11A11206   0.781  -0.015  10.847  3.0969  0.6284 -1.4868
  109OSM   H11B11207   0.763   0.084  10.694 -0.9390  1.2070 -0.9481
  109OSM      P11208   0.523  -0.030  10.774  0.1755 -0.4283  0.0477
  109OSM    O1311209   0.579  -0.157  10.810  0.1224  0.0757  0.1595
  109OSM    O1411210   0.376   0.001  10.798  0.2088  0.1416 -0.6801
  109OSM    O1111211   0.543  -0.002  10.625 -0.2125 -0.7267 -0.5760
  109OSM    O1211212   0.606   0.087  10.839 -0.4077 -0.2199 -0.0294
  109OSM    C1S11213   0.482   0.106  10.553 -0.1208  0.0988  0.6019
  109OSM    H1S11214   0.555   0.189  10.558  2.1476 -1.7466 -0.0652
  109OSM    H1T11215   0.383   0.137  10.593  0.5423  2.7202  0.4131
  109OSM     NF11216   0.455   0.212  10.325  1.2428 -0.2044 -0.4138
  109OSM    HNF11217   0.366   0.221  10.281 -0.9607 -1.5882  3.2924
  109OSM    C2S11218   0.473   0.087  10.399 -0.2426 -0.4329  0.1493
  109OSM    H2S11219   0.578   0.056  10.380  0.4616  2.5566 -1.3284
  109OSM    C3S11220   0.377  -0.028  10.366 -0.1560  0.8612  0.8798
  109OSM    H3S11221   0.277   0.008  10.399 -0.9124 -1.0398  0.7608
  109OSM     O311222   0.405  -0.146  10.446 -0.6653 -0.3111 -0.3471
  109OSM    HO311223   0.480  -0.117  10.499 -1.2257 -2.3101  1.6467
  109OSM    C4S11224   0.371  -0.064  10.209  0.5664 -0.0884 -0.3438
  109OSM    H4S11225   0.332   0.023  10.154 -0.8932 -0.5447 -0.0919
  109OSM    C5S11226   0.399  -0.179  10.149  0.3041  0.5727  0.1679
  109OSM    H5S11227   0.420  -0.258  10.222 -0.2255  2.3889  2.4248
  109OSM    C6S11228   0.395  -0.232  10.006  0.3752 -0.1141  0.3046
  109OSM    H6S11229   0.351  -0.334   9.999 -0.7048  0.2789  1.1195
  109OSM    H6T11230   0.496  -0.228   9.961  0.5921 -1.1658  0.6671
  109OSM    C7S11231   0.301  -0.154   9.906 -0.1361 -0.4144 -0.2496
  109OSM    H7S11232   0.352  -0.055   9.903  2.4750 -1.6351  0.4083
  109OSM    H7T11233   0.198  -0.135   9.941  0.3706  0.4915  0.8153
  109OSM    C8S11234   0.308  -0.226   9.769  0.3664 -0.7637  0.5641
  109OSM    H8S11235   0.228  -0.303   9.763 -0.5518  0.2759 -2.3896
  109OSM    H8T11236   0.406  -0.276   9.755  0.1625 -0.9772 -0.1313
  109OSM    C9S11237   0.275  -0.119   9.660  0.8361 -0.2769 -0.4052
  109OSM    H9S11238   0.320  -0.022   9.690  1.1003 -0.4809 -0.1377
  109OSM    H9T11239   0.165  -0.107   9.660  0.9271  1.3360 -3.0713
  109OSM   C10S11240   0.325  -0.161   9.521  0.4817  0.1384 -0.9391
  109OSM   H10S11241   0.261  -0.248   9.496 -0.6725  1.2909 -2.1896
  109OSM   H10T11242   0.435  -0.177   9.524  0.6720  1.4322  1.4352
  109OSM   C11S11243   0.290  -0.055   9.412  0.2698 -0.4012  0.4714
  109OSM   H11S11244   0.317   0.049   9.440 -0.6917 -0.4908  1.8226
  109OSM   H11T11245   0.181  -0.064   9.393  0.4002  0.4795 -0.8919
  109OSM   C12S11246   0.357  -0.081   9.280  0.6139  0.0210 -0.4119
  109OSM   H12S11247   0.323  -0.179   9.239  1.9639 -0.6307 -0.0206
  109OSM   H12T11248   0.465  -0.083   9.305  0.2911 -0.5931  1.0375
  109OSM   C13S11249   0.324   0.020   9.180 -0.3775  0.0244  0.3691
  109OSM   H13S11250   0.332   0.111   9.243  0.4543  0.3048 -0.1197
  109OSM   H13T11251   0.221   0.011   9.140 -0.7562 -2.4885  1.7513
  109OSM   C14S11252   0.425   0.027   9.062 -0.0309 -0.2308 -0.4436
  109OSM   H14S11253   0.425  -0.071   9.010  0.9416 -1.3006  1.4582
  109OSM   H14T11254   0.524   0.038   9.112 -0.9128  0.2521  1.2609
  109OSM   C15S11255   0.398   0.142   8.966 -0.3786 -0.0178  0.1098
  109OSM   H15S11256   0.355   0.228   9.022  0.6318 -0.0053  0.8974
  109OSM   H15T11257   0.317   0.112   8.897  0.0418  0.0757 -0.4327
  109OSM   C16S11258   0.519   0.176   8.883 -0.8772  0.4976 -0.1715
  109OSM   H16S11259   0.538   0.096   8.808 -0.4251  3.1239 -3.0951
  109OSM   H16T11260   0.612   0.187   8.943 -1.8295 -3.0227  2.2061
  109OSM   C17S11261   0.511   0.298   8.796  0.8363  0.2483 -1.0806
  109OSM   H17S11262   0.607   0.295   8.739  0.8426  0.8252 -1.1060
  109OSM   H17T11263   0.507   0.389   8.860 -0.7814 -0.7871  0.3869
  109OSM   C18S11264   0.408   0.296   8.688  0.8775  0.4898 -0.4137
  109OSM   H18S11265   0.403   0.395   8.639  2.8224  0.3673 -0.9602
  109OSM   H18T11266   0.313   0.276   8.743  0.8540  1.9881  0.1313
  109OSM   H18U11267   0.430   0.214   8.616  1.8528 -0.6754  1.1328
  109OSM    C1F11268   0.560   0.295  10.310  0.3155  0.3833  0.1301
  109OSM     OF11269   0.670   0.258  10.343 -0.0338  0.2996  0.6150
  109OSM    C2F11270   0.529   0.426  10.241 -0.5425  0.3275 -0.1515
  109OSM    H2F11271   0.494   0.470  10.337  1.9646  0.9411  0.5493
  109OSM    H2G11272   0.457   0.393  10.163  0.7761 -2.2854 -0.3835
  109OSM    C3F11273   0.643   0.516  10.177 -0.2689  0.4823 -0.2968
  109OSM    H3F11274   0.721   0.526  10.254  0.0410 -0.7712 -0.4159
  109OSM    H3G11275   0.610   0.619  10.150 -1.8292 -0.6508 -3.1860
  109OSM    C4F11276   0.700   0.453  10.053 -0.2810  0.0597  0.2345
  109OSM    H4F11277   0.739   0.352  10.078  0.9810  0.8594  1.6596
  109OSM    H4G11278   0.783   0.523  10.026  0.2238 -0.8267 -0.5671
  109OSM    C5F11279   0.607   0.455   9.924  0.2701  0.4300  0.6471
  109OSM    H5F11280   0.591   0.563   9.901  0.3772  0.3835  0.3530
  109OSM    H5G11281   0.507   0.413   9.948  0.2849  0.1542  0.2270
  109OSM    C6F11282   0.674   0.383   9.806  0.0492  0.1839 -0.4365
  109OSM    H6F11283   0.719   0.284   9.826 -0.2747  0.2205  0.4856
  109OSM    H6G11284   0.769   0.432   9.777  1.6920 -2.8547 -0.6305
  109OSM    C7F11285   0.579   0.366   9.684  0.3757 -0.3042  0.4392
  109OSM    H7F11286   0.548   0.467   9.649  0.0730 -0.7036 -0.4690
  109OSM    H7G11287   0.493   0.302   9.714  0.4114  0.3324  2.0390
  109OSM    C8F11288   0.647   0.311   9.560 -0.9127 -0.2075  0.0611
  109OSM    H8F11289   0.713   0.225   9.585  0.5800  1.0094  0.4904
  109OSM    H8G11290   0.725   0.382   9.525 -0.1944 -1.0393 -0.0437
  109OSM    C9F11291   0.546   0.276   9.456 -0.5168 -0.0984  0.4264
  109OSM    H9F11292   0.480   0.193   9.485  0.5487 -0.5105  1.7466
  109OSM   C10F11293   0.530   0.337   9.335 -0.1702  0.0940 -0.3417
  109OSM   H10F11294   0.435   0.312   9.285 -1.6346  3.6680  0.4203
  109OSM   C11F11295   0.613   0.453   9.281  0.5671  0.0975  0.2571
  109OSM   H11F11296   0.705   0.477   9.338  0.9878 -0.9416  0.0525
  109OSM   H11G11297   0.550   0.544   9.285  1.3706  0.7109 -0.4653
  109OSM   C12F11298   0.655   0.423   9.133 -0.0005  0.1212 -0.8960
  109OSM   H12F11299   0.559   0.407   9.081 -0.6444 -0.6051  0.4676
  109OSM   H12G11300   0.710   0.328   9.113 -0.2480 -0.6943  1.8179
  109OSM   C13F11301   0.721   0.545   9.068  0.7838  0.6349  0.1133
  109OSM   H13F11302   0.711   0.632   9.136  0.2367  0.2326  0.5576
  109OSM   H13G11303   0.671   0.557   8.969  2.9318  0.7300 -1.0177
  109OSM   C14F11304   0.865   0.514   9.045  0.0517  0.3864 -0.0362
  109OSM   H14F11305   0.879   0.411   9.004 -0.6055  0.6649 -1.0066
  109OSM   H14G11306   0.914   0.524   9.144 -0.1711  1.4675 -0.0229
  109OSM   C15F11307   0.940   0.599   8.953 -0.3585  0.2221  0.1855
  109OSM   H15F11308   1.049   0.575   8.943  0.0755  2.2155 -0.3031
  109OSM   H15G11309   0.949   0.699   8.999  0.9047 -0.8567  2.4490
  109OSM   C16F11310   0.888   0.619   8.807 -0.5554  0.2279 -0.9246
  109OSM   H16F11311   0.945   0.701   8.760 -0.1182  1.3523  1.4381
  109OSM   H16G11312   0.792   0.673   8.820  0.1635  1.2556  0.4484
  109OSM   C17F11313   0.862   0.500   8.727  0.0279  0.1735 -0.2329
  109OSM   H17F11314   0.800   0.422   8.776  0.5067  0.3106  0.5951
  109OSM   H17G11315   0.959   0.461   8.690 -1.7959 -0.7076 -4.8323
  109OSM   C18F11316   0.787   0.534   8.599 -0.1488  0.0069  0.8976
  109OSM   H18F11317   0.855   0.610   8.555  0.9599 -1.1908  0.4681
  109OSM   H18G11318   0.697   0.596   8.618  0.0144  0.5419 -0.0442
  109OSM   H18H11319   0.764   0.449   8.531  1.6217  0.1198  0.0960
  110OSM      N11320   2.151   0.406  10.969 -0.6650 -0.9912  0.3678
  110OSM    C1511321   2.207   0.279  11.025  0.2713 -0.7076  0.0169
  110OSM   H15A11322   2.145   0.237  11.103  2.5009 -1.4247  1.5340
  110OSM   H15B11323   2.307   0.304  11.058 -0.8306  0.7051  2.6016
  110OSM   H15C11324   2.204   0.201  10.950  1.2321  0.4431 -1.2897
  110OSM    C1411325   2.145   0.521  11.072  0.3227  0.2489  1.0379
  110OSM   H14A11326   2.109   0.616  11.034 -1.1053 -0.9110 -0.6446
  110OSM   H14B11327   2.245   0.539  11.110  0.2612  1.3434  0.7378
  110OSM   H14C11328   2.087   0.498  11.159 -0.7861 -0.9556  0.0105
  110OSM    C1311329   2.249   0.442  10.864 -0.5687 -1.1472  0.5032
  110OSM   H13A11330   2.272   0.356  10.802 -0.5790 -1.4681  0.9435
  110OSM   H13B11331   2.347   0.469  10.900 -0.9556  0.6065  0.3171
  110OSM   H13C11332   2.215   0.526  10.805  1.5570  0.1944  1.0787
  110OSM    C1211333   2.011   0.375  10.912 -0.0237 -0.2919 -0.1366
  110OSM   H12A11334   1.944   0.355  10.995 -0.2518 -0.4769 -0.3654
  110OSM   H12B11335   2.011   0.277  10.866 -2.7191 -0.9700  1.0699
  110OSM    C1111336   1.939   0.475  10.829  0.7665 -0.1457  0.7026
  110OSM   H11A11337   1.863   0.415  10.777 -0.6415 -0.6086  3.1290
  110OSM   H11B11338   2.005   0.523  10.753  1.3426  0.3297  1.4853
  110OSM      P11339   1.773   0.576  11.002  0.0319 -0.0084  0.6410
  110OSM    O1311340   1.777   0.462  11.093 -0.3617  0.1296 -0.1902
  110OSM    O1411341   1.754   0.707  11.065  0.1918 -0.0168 -0.4672
  110OSM    O1111342   1.652   0.556  10.900 -0.2548  0.0713  0.1895
  110OSM    O1211343   1.890   0.586  10.908 -0.1040 -0.7598  0.2451
  110OSM    C1S11344   1.609   0.664  10.816  0.0892  0.2824 -0.4149
  110OSM    H1S11345   1.651   0.760  10.853 -0.4613  0.1595  0.5495
  110OSM    H1T11346   1.500   0.677  10.830  0.1958  2.8108 -1.2838
  110OSM     NF11347   1.612   0.757  10.594 -0.1819 -0.9773  0.1752
  110OSM    HNF11348   1.518   0.757  10.559 -0.4518  0.2922  0.8259
  110OSM    C2S11349   1.637   0.636  10.667 -0.1489  0.3204  0.6176
  110OSM    H2S11350   1.739   0.593  10.656 -0.6010 -0.4075 -1.0026
  110OSM    C3S11351   1.540   0.518  10.621  0.4708  0.7923  0.2436
  110OSM    H3S11352   1.437   0.546  10.651  0.3496  0.1670  0.4310
  110OSM     O311353   1.558   0.396  10.691  0.4344 -0.5202 -0.1627
  110OSM    HO311354   1.587   0.425  10.778 -1.9901 -0.5788  0.7304
  110OSM    C4S11355   1.547   0.498  10.466  0.7699  0.4674  0.3346
  110OSM    H4S11356   1.644   0.531  10.427 -0.7134  2.8164 -1.6806
  110OSM    C5S11357   1.447   0.463  10.378  0.1291  0.4737 -0.0964
  110OSM    H5S11358   1.348   0.441  10.421  1.0585  0.3627  2.1281
  110OSM    C6S11359   1.466   0.463  10.232 -0.0152  0.5175  0.4904
  110OSM    H6S11360   1.365   0.482  10.190  0.0177 -0.6404 -0.1520
  110OSM    H6T11361   1.504   0.362  10.204  0.1395 -0.0199  2.5011
  110OSM    C7S11362   1.563   0.573  10.172  0.0473  0.0200  0.1929
  110OSM    H7S11363   1.663   0.532  10.196 -0.4076 -0.7677  0.8146
  110OSM    H7T11364   1.553   0.670  10.225 -0.1687  0.7642 -1.1780
  110OSM    C8S11365   1.562   0.612  10.025  0.1541 -0.3910 -0.3326
  110OSM    H8S11366   1.579   0.519   9.968 -4.6051 -1.8031  0.1904
  110OSM    H8T11367   1.654   0.673  10.009 -0.3808  0.1967 -1.2146
  110OSM    C9S11368   1.431   0.685   9.980 -0.4060 -0.7842 -1.1515
  110OSM    H9S11369   1.397   0.748  10.065 -1.5688 -0.3057 -1.9524
  110OSM    H9T11370   1.354   0.606   9.968  1.9063 -3.4668  0.5009
  110OSM   C10S11371   1.439   0.769   9.856  0.4722 -0.3299  0.0568
  110OSM   H10S11372   1.506   0.857   9.863 -1.1098  1.0675 -1.5701
  110OSM   H10T11373   1.335   0.802   9.834 -0.1950 -0.9239  2.0556
  110OSM   C11S11374   1.486   0.686   9.734  0.6054 -0.3471 -0.2832
  110OSM   H11S11375   1.411   0.610   9.704  1.1823 -0.5079 -1.3782
  110OSM   H11T11376   1.581   0.632   9.755  1.8751  1.3278 -1.4732
  110OSM   C12S11377   1.501   0.765   9.601 -0.2236 -0.5307 -0.1636
  110OSM   H12S11378   1.550   0.699   9.526 -2.6181 -2.1930 -0.3824
  110OSM   H12T11379   1.574   0.848   9.612  0.4182 -0.7241 -2.4425
  110OSM   C13S11380   1.381   0.829   9.549  0.2361  0.1038  0.3659
  110OSM   H13S11381   1.349   0.914   9.613 -0.3395  0.9897 -1.0627
  110OSM   H13T11382   1.297   0.758   9.564  0.4407  0.1890  2.2280
  110OSM   C14S11383   1.411   0.875   9.407 -0.3234  0.6453 -0.4703
  110OSM   H14S11384   1.454   0.789   9.351  2.2208  1.1867  0.5064
  110OSM   H14T11385   1.497   0.945   9.414 -0.1014  0.2345  1.1868
  110OSM   C15S11386   1.291   0.920   9.322 -0.1984 -0.0236 -0.0287
  110OSM   H15S11387   1.264   1.022   9.357  0.0525 -0.2239  0.7795
  110OSM   H15T11388   1.204   0.851   9.326  0.6442 -1.1052  3.3779
  110OSM   C16S11389   1.341   0.947   9.184  0.1809  0.9591 -0.1967
  110OSM   H16S11390   1.374   0.854   9.134  1.0561  0.6868  0.8311
  110OSM   H16T11391   1.431   1.011   9.187  0.7020  0.3161 -1.6603
  110OSM   C17S11392   1.239   1.017   9.091 -1.0554 -0.1189  0.4818
  110OSM   H17S11393   1.190   1.102   9.144  1.5562  0.8041  1.5754
  110OSM   H17T11394   1.160   0.941   9.073 -2.1920  1.1876 -0.2349
  110OSM   C18S11395   1.290   1.047   8.948 -0.6904 -1.3725 -0.7882
  110OSM   H18S11396   1.205   1.056   8.877  1.1672  0.8030 -2.9428
  110OSM   H18T11397   1.352   0.965   8.905 -0.2945 -0.5015 -1.9386
  110OSM   H18U11398   1.339   1.147   8.942 -0.0478 -1.5640  0.7823
  110OSM    C1F11399   1.703   0.847  10.580 -0.0652 -0.5188 -0.3823
  110OSM     OF11400   1.817   0.821  10.621 -0.1574  0.0788  0.0581
  110OSM    C2F11401   1.663   0.973  10.511 -0.1828 -0.1529 -0.7153
  110OSM    H2F11402   1.667   1.042  10.598  2.5749 -1.4937  0.3421
  110OSM    H2G11403   1.565   0.963  10.460  0.6392  0.9471 -2.6703
  110OSM    C3F11404   1.757   1.032  10.409 -0.6246  0.3586 -0.2884
  110OSM    H3F11405   1.859   1.038  10.453  0.0324  1.1122 -1.8484
  110OSM    H3G11406   1.718   1.133  10.384  1.4167  1.2415 -0.0471
  110OSM    C4F11407   1.747   0.949  10.281 -0.2440 -0.0376  0.6393
  110OSM    H4F11408   1.639   0.924  10.276  0.1560 -1.7104 -0.7656
  110OSM    H4G11409   1.804   0.853  10.286  1.2522  0.7211 -0.8445
  110OSM    C5F11410   1.796   1.021  10.156  0.2290 -0.4285 -0.2192
  110OSM    H5F11411   1.905   1.026  10.178  0.1857 -1.2095  0.2103
  110OSM    H5G11412   1.762   1.124  10.134  0.5133 -0.8101 -2.6860
  110OSM    C6F11413   1.767   0.932  10.035  1.0215  0.0204 -0.7388
  110OSM    H6F11414   1.663   0.937   9.995  0.6022  0.6849  0.3870
  110OSM    H6G11415   1.790   0.826  10.057 -1.0223  0.1382  2.7063
  110OSM    C7F11416   1.860   0.979   9.926  0.6349  0.3008 -0.0512
  110OSM    H7F11417   1.963   0.943   9.946  0.0147 -1.7349 -0.2896
  110OSM    H7G11418   1.861   1.090   9.915  2.0971  0.1423 -2.2568
  110OSM    C8F11419   1.824   0.934   9.780 -0.0310  0.4950 -0.3352
  110OSM    H8F11420   1.726   0.982   9.758  0.0149  2.4575  3.0422
  110OSM    H8G11421   1.805   0.826   9.763  0.7219  0.3536 -0.3090
  110OSM    C9F11422   1.937   0.985   9.684  0.3787  0.4710 -0.9416
  110OSM    H9F11423   2.032   1.007   9.734 -0.0865 -1.0982  0.7438
  110OSM   C10F11424   1.921   1.036   9.565 -0.8911 -0.4436 -0.8627
  110OSM   H10F11425   2.006   1.093   9.526  0.9070 -1.4932  1.2535
  110OSM   C11F11426   1.802   1.045   9.477  1.0666  0.0796 -0.5324
  110OSM   H11F11427   1.794   1.146   9.431  0.1565 -0.2690 -1.1859
  110OSM   H11G11428   1.712   1.013   9.533  3.4127 -2.0542  2.3485
  110OSM   C12F11429   1.816   0.947   9.364 -0.3978 -0.0928 -0.3860
  110OSM   H12F11430   1.718   0.947   9.312 -0.4049 -0.4130 -0.3764
  110OSM   H12G11431   1.832   0.846   9.408  0.0146  0.6668  1.3059
  110OSM   C13F11432   1.923   0.980   9.259  0.6948  0.2234 -0.1285
  110OSM   H13F11433   1.938   0.894   9.190 -0.6426 -1.7617  1.9354
  110OSM   H13G11434   2.020   0.990   9.311  1.2708 -0.6615 -0.9930
  110OSM   C14F11435   1.894   1.107   9.173 -0.4315  0.4526  0.2859
  110OSM   H14F11436   1.985   1.131   9.113  1.1081 -2.6780  1.1526
  110OSM   H14G11437   1.868   1.194   9.237  0.2831  1.7337 -1.0963
  110OSM   C15F11438   1.771   1.097   9.083 -0.3929  0.1854  0.9788
  110OSM   H15F11439   1.755   1.189   9.022  2.2660  0.2281  0.2215
  110OSM   H15G11440   1.682   1.088   9.149 -1.1528  3.7001  0.6663
  110OSM   C16F11441   1.783   0.981   8.976  0.0324 -0.0876  0.5421
  110OSM   H16F11442   1.776   0.887   9.034 -0.4631 -0.6113 -0.3436
  110OSM   H16G11443   1.879   0.989   8.921 -2.3799 -1.2256 -4.3876
  110OSM   C17F11444   1.666   0.985   8.876 -0.2452 -0.1207 -0.4698
  110OSM   H17F11445   1.659   1.090   8.841 -1.1026 -0.8633 -2.6677
  110OSM   H17G11446   1.573   0.963   8.932 -0.3292  0.0736 -0.5342
  110OSM   C18F11447   1.679   0.886   8.766  0.6305  0.2177  0.0122
  110OSM   H18F11448   1.707   0.786   8.805  0.5399 -1.0013 -2.7644
  110OSM   H18G11449   1.758   0.921   8.696  0.7790 -0.8801 -0.3993
  110OSM   H18H11450   1.586   0.880   8.704 -0.7377  5.7238  1.0628
  111OSM      N11451   2.122   4.567  11.056 -0.6592 -0.2911  1.0569
  111OSM    C1511452   2.155   4.577  11.199  0.1101 -0.3964  0.1967
  111OSM   H15A11453   2.199   4.675  11.216  1.3653 -0.8907 -0.0807
  111OSM   H15B11454   2.227   4.505  11.235 -0.5490 -1.1615 -0.0169
  111OSM   H15C11455   2.063   4.577  11.256  0.0253  1.2218  0.1221
  111OSM    C1411456   2.040   4.682  11.025  0.0425 -0.6644 -0.0303
  111OSM   H14A11457   2.005   4.685  10.923 -0.8398 -1.4715  0.2354
  111OSM   H14B11458   2.096   4.773  11.045  0.2438 -1.1036  1.5781
  111OSM   H14C11459   1.952   4.667  11.086 -2.0056  0.3589 -2.5642
  111OSM    C1311460   2.255   4.584  10.981  0.4546  0.1598  0.0390
  111OSM   H13A11461   2.232   4.565  10.877 -0.2632 -0.8299  0.3570
  111OSM   H13B11462   2.327   4.512  11.018 -0.1274  0.5099  1.9549
  111OSM   H13C11463   2.294   4.684  10.986  1.4019 -0.2332  0.7947
  111OSM    C1211464   2.052   4.435  11.032 -0.6773 -0.2244 -0.0217
  111OSM   H12A11465   1.964   4.435  11.095 -0.5422  0.4148  0.1721
  111OSM   H12B11466   2.118   4.352  11.050 -0.0202 -0.0298 -1.4231
  111OSM    C1111467   2.000   4.412  10.883  0.0221 -0.7604 -0.1069
  111OSM   H11A11468   1.935   4.501  10.865  0.6136  0.0761  1.6700
  111OSM   H11B11469   1.938   4.321  10.896 -0.8903  0.0467  1.6101
  111OSM      P11470   2.157   4.259  10.734  0.3900 -0.2718 -0.0767
  111OSM    O1311471   2.304   4.253  10.746 -0.2980 -0.1819  0.4746
  111OSM    O1411472   2.078   4.153  10.803  0.0339 -0.2954  0.0572
  111OSM    O1111473   2.119   4.263  10.583 -0.2937  0.5554 -0.5466
  111OSM    O1211474   2.103   4.401  10.789 -0.6218  0.2721  0.0148
  111OSM    C1S11475   2.104   4.389  10.516 -0.2097  0.4724  0.3821
  111OSM    H1S11476   2.188   4.454  10.550  0.5236  0.3223 -1.0648
  111OSM    H1T11477   2.008   4.431  10.552 -1.2292 -0.1169 -1.5226
  111OSM     NF11478   2.105   4.465  10.285 -0.2278  0.3407 -0.2245
  111OSM    HNF11479   2.033   4.485  10.219 -2.0107 -1.2216  1.1372
  111OSM    C2S11480   2.076   4.353  10.371 -0.5315 -0.2999 -0.0108
  111OSM    H2S11481   2.136   4.267  10.334  0.3762  1.2280 -2.3716
  111OSM    C3S11482   1.927   4.302  10.361 -0.1720  0.0957  0.6091
  111OSM    H3S11483   1.855   4.382  10.389 -2.3498 -1.3013 -0.6784
  111OSM     O311484   1.905   4.189  10.441 -0.3028 -0.5646  0.1069
  111OSM    HO311485   1.988   4.173  10.487 -1.3214 -0.2086  2.1860
  111OSM    C4S11486   1.888   4.276  10.221 -0.4225  0.1929  0.3049
  111OSM    H4S11487   1.803   4.336  10.187 -0.1398  0.3923 -0.0580
  111OSM    C5S11488   1.926   4.193  10.124 -0.2518  0.0039  0.0945
  111OSM    H5S11489   2.000   4.114  10.145 -3.2638 -2.6832  1.7486
  111OSM    C6S11490   1.873   4.187   9.988 -0.1381  1.3920  0.9688
  111OSM    H6S11491   1.762   4.195   9.982 -0.2129  0.4368  0.9649
  111OSM    H6T11492   1.890   4.088   9.942  0.7732  1.1993  1.6883
  111OSM    C7S11493   1.937   4.288   9.897 -0.6290  0.2591  0.9919
  111OSM    H7S11494   2.040   4.252   9.878 -1.3142 -1.0949 -0.3165
  111OSM    H7T11495   1.938   4.391   9.940  4.4957 -0.1444  2.4954
  111OSM    C8S11496   1.878   4.295   9.743  0.0376 -1.1475 -0.4410
  111OSM    H8S11497   1.963   4.337   9.683  0.0239 -0.1647  0.2021
  111OSM    H8T11498   1.790   4.362   9.736  0.4023 -0.3714  1.6987
  111OSM    C9S11499   1.841   4.165   9.683  0.1801 -0.4228 -0.0770
  111OSM    H9S11500   1.749   4.116   9.721  0.4050 -1.5704 -0.9667
  111OSM    H9T11501   1.930   4.099   9.695  0.2572 -0.6870 -1.8609
  111OSM   C10S11502   1.816   4.187   9.533  0.1745 -0.3795 -0.6139
  111OSM   H10S11503   1.885   4.257   9.482  0.9149 -0.3803  0.3597
  111OSM   H10T11504   1.712   4.225   9.520  0.9746  1.2761 -2.6202
  111OSM   C11S11505   1.804   4.060   9.449 -0.3612 -0.1675  0.8382
  111OSM   H11S11506   1.776   4.093   9.346 -2.1066  0.8679  1.5891
  111OSM   H11T11507   1.735   3.981   9.484 -0.4637 -0.8510 -0.8212
  111OSM   C12S11508   1.936   3.985   9.448  0.6099 -0.8109  0.5149
  111OSM   H12S11509   1.953   3.947   9.551  0.9254  0.2215  0.8562
  111OSM   H12T11510   2.025   4.045   9.418 -1.0700  1.7152  0.2759
  111OSM   C13S11511   1.927   3.866   9.346  0.0629 -0.0069  0.2108
  111OSM   H13S11512   1.923   3.904   9.242  0.1472  0.3566  0.3401
  111OSM   H13T11513   1.828   3.816   9.359 -0.2483  0.4140 -0.4932
  111OSM   C14S11514   2.048   3.774   9.343 -0.3252 -0.4661 -0.2363
  111OSM   H14S11515   2.079   3.758   9.449  1.4332  0.6885 -0.5248
  111OSM   H14T11516   2.129   3.832   9.295 -0.1458 -1.7828 -1.5639
  111OSM   C15S11517   2.033   3.637   9.271 -0.2990 -0.1644  0.4222
  111OSM   H15S11518   1.925   3.611   9.267 -0.7386  1.6861 -1.0481
  111OSM   H15T11519   2.086   3.563   9.335 -1.4743 -0.1860  1.4108
  111OSM   C16S11520   2.078   3.633   9.127 -0.4926 -0.2406  0.3299
  111OSM   H16S11521   2.188   3.650   9.122 -0.5526 -0.2435 -1.7224
  111OSM   H16T11522   2.042   3.721   9.070  1.0769  0.1193 -0.1537
  111OSM   C17S11523   2.067   3.500   9.049  1.0036 -1.0405  0.3960
  111OSM   H17S11524   1.960   3.476   9.062  1.1312 -1.5481  0.5439
  111OSM   H17T11525   2.134   3.428   9.101  2.5024 -0.1828 -0.2906
  111OSM   C18S11526   2.112   3.510   8.905 -0.2804 -0.3792  0.5815
  111OSM   H18S11527   2.210   3.563   8.899 -0.5974  0.3180  1.3249
  111OSM   H18T11528   2.045   3.575   8.847  0.0383  1.3002  2.0057
  111OSM   H18U11529   2.130   3.410   8.861  1.5294 -0.3128  1.0652
  111OSM    C1F11530   2.224   4.526  10.283  0.3598  0.1658 -0.5746
  111OSM     OF11531   2.327   4.470  10.316 -0.4219 -0.7823  0.0101
  111OSM    C2F11532   2.232   4.672  10.236  0.2220  0.2802 -0.2770
  111OSM    H2F11533   2.261   4.734  10.323  2.6259 -0.0382 -0.7736
  111OSM    H2G11534   2.130   4.709  10.211 -0.2192 -0.6219  0.1454
  111OSM    C3F11535   2.322   4.693  10.112  0.1784 -0.0463  0.1609
  111OSM    H3F11536   2.429   4.686  10.141  0.2534 -1.0497 -0.3355
  111OSM    H3G11537   2.317   4.797  10.071  0.4206  1.2743  3.1975
  111OSM    C4F11538   2.314   4.594   9.996  0.0344  0.0316  0.2229
  111OSM    H4F11539   2.311   4.488  10.027  1.0816  0.1610  0.8218
  111OSM    H4G11540   2.411   4.611   9.943 -0.3059 -0.0560 -0.4428
  111OSM    C5F11541   2.202   4.626   9.893 -0.6500  0.0322 -0.3400
  111OSM    H5F11542   2.201   4.735   9.869 -2.9599 -0.1038 -1.1017
  111OSM    H5G11543   2.108   4.609   9.949 -0.4036 -2.0573 -0.4978
  111OSM    C6F11544   2.200   4.538   9.769  0.1284  0.2840  0.1311
  111OSM    H6F11545   2.097   4.530   9.730  0.6053 -0.3588 -1.0514
  111OSM    H6G11546   2.230   4.433   9.791 -2.2660 -0.8164 -1.4884
  111OSM    C7F11547   2.285   4.600   9.656  0.8293 -0.2252 -0.7555
  111OSM    H7F11548   2.392   4.584   9.682  1.0156  0.3853 -1.1140
  111OSM    H7G11549   2.260   4.708   9.658 -0.6151 -0.5408 -0.9178
  111OSM    C8F11550   2.248   4.550   9.514  0.0375 -0.0476  0.3370
  111OSM    H8F11551   2.154   4.597   9.478  0.8191 -0.1961 -2.0731
  111OSM    H8G11552   2.237   4.439   9.520  1.0173 -0.1862 -0.3247
  111OSM    C9F11553   2.354   4.584   9.412  0.4840  0.0919 -0.0549
  111OSM    H9F11554   2.444   4.637   9.446  0.3651  1.3494 -1.5541
  111OSM   C10F11555   2.332   4.586   9.278 -0.5182  0.0101 -0.9466
  111OSM   H10F11556   2.415   4.614   9.212  0.9500  1.2180  1.2855
  111OSM   C11F11557   2.203   4.539   9.217 -0.5200 -0.9093  0.2415
  111OSM   H11F11558   2.176   4.597   9.126 -0.9803  0.9540  1.5136
  111OSM   H11G11559   2.120   4.557   9.289  0.0798  0.6993  0.5913
  111OSM   C12F11560   2.208   4.391   9.180  0.0401  0.0523  0.0104
  111OSM   H12F11561   2.217   4.320   9.265 -1.4931 -0.8129 -0.5123
  111OSM   H12G11562   2.296   4.368   9.117  1.6272  2.0346  1.3700
  111OSM   C13F11563   2.076   4.353   9.106  0.2454  0.0154 -0.1771
  111OSM   H13F11564   2.066   4.424   9.021  0.6470  0.1238 -0.1408
  111OSM   H13G11565   1.999   4.366   9.185  0.8693  3.2337  0.0528
  111OSM   C14F11566   2.102   4.216   9.041  0.4512  0.1690  0.2656
  111OSM   H14F11567   2.156   4.144   9.106  2.3582  1.6301  0.3998
  111OSM   H14G11568   2.166   4.237   8.953 -0.0081 -2.7732 -0.8618
  111OSM   C15F11569   1.970   4.149   8.985 -0.5359  0.1299 -0.1965
  111OSM   H15F11570   1.941   4.227   8.911  0.7702  0.2013 -0.6615
  111OSM   H15G11571   1.898   4.141   9.068 -1.4962 -1.0201 -1.1057
  111OSM   C16F11572   1.987   4.002   8.930 -0.3695  0.0707 -0.4377
  111OSM   H16F11573   2.044   3.939   9.001  0.1997  0.8486 -0.1882
  111OSM   H16G11574   2.049   4.006   8.838  0.1574 -0.7164 -0.1261
  111OSM   C17F11575   1.861   3.926   8.906  0.3990 -0.2297  0.2533
  111OSM   H17F11576   1.810   3.903   9.002  1.2854 -0.0782  0.7714
  111OSM   H17G11577   1.885   3.831   8.852  2.1978 -0.2083  0.9181
  111OSM   C18F11578   1.764   3.995   8.807 -0.4546  0.3265 -0.8848
  111OSM   H18F11579   1.832   4.041   8.733  0.7796  1.7218  1.0138
  111OSM   H18G11580   1.715   4.079   8.860 -0.9950 -0.6049  0.1444
  111OSM   H18H11581   1.681   3.943   8.755 -2.3993  0.8449  1.4932
  112OSM      N11582   3.173   2.282  11.162 -0.4329  0.2271  0.2348
  112OSM    C1511583   3.233   2.346  11.281 -0.0256  0.2865 -0.4642
  112OSM   H15A11584   3.252   2.277  11.362 -0.9248  0.5635 -0.0038
  112OSM   H15B11585   3.174   2.424  11.327  0.3026  0.8212 -0.9329
  112OSM   H15C11586   3.323   2.405  11.274  0.0867  0.5061  1.8788
  112OSM    C1411587   3.245   2.151  11.135  0.0547 -0.3097 -0.1238
  112OSM   H14A11588   3.352   2.168  11.132 -0.4235  3.5266  0.3471
  112OSM   H14B11589   3.224   2.113  11.036 -1.3902  1.7466 -0.6604
  112OSM   H14C11590   3.217   2.080  11.211 -2.0332 -2.2116 -2.5013
  112OSM    C1311591   3.029   2.250  11.183 -0.1481  0.5138  0.4839
  112OSM   H13A11592   2.984   2.195  11.101 -0.5565 -0.8496  1.5704
  112OSM   H13B11593   2.967   2.336  11.202 -1.8081  0.0943 -2.4795
  112OSM   H13C11594   3.028   2.182  11.267  0.2763 -2.0158 -1.4265
  112OSM    C1211595   3.178   2.370  11.036  1.0959  0.0954 -0.6431
  112OSM   H12A11596   3.108   2.452  11.046  0.2672 -0.7051  0.4276
  112OSM   H12B11597   3.139   2.314  10.953  0.0855  3.1049 -2.3770
  112OSM    C1111598   3.320   2.402  10.984 -0.7263 -0.3927 -0.4022
  112OSM   H11A11599   3.301   2.456  10.889 -1.5970  2.0446  1.0520
  112OSM   H11B11600   3.371   2.305  10.969 -1.6428 -0.9842  0.2026
  112OSM      P11601   3.539   2.475  11.080 -0.4025  0.1467  0.5064
  112OSM    O1311602   3.593   2.607  11.125 -0.7019 -0.7097  0.6291
  112OSM    O1411603   3.575   2.361  11.159 -0.4865 -0.0379 -0.1261
  112OSM    O1111604   3.572   2.451  10.939 -0.2407  0.3435 -0.5724
  112OSM    O1211605   3.386   2.490  11.074 -0.1984  0.4392 -0.3018
  112OSM    C1S11606   3.580   2.558  10.837  0.0049  0.4331 -0.5385
  112OSM    H1S11607   3.659   2.631  10.865 -2.0000  2.3993  0.3062
  112OSM    H1T11608   3.484   2.613  10.826 -1.2513 -0.3208  4.2287
  112OSM     NF11609   3.659   2.615  10.602  0.5371 -0.5185  0.4736
  112OSM    HNF11610   3.580   2.637  10.545  0.3759 -0.5898  0.6688
  112OSM    C2S11611   3.631   2.505  10.694  0.9191 -0.1546  0.1023
  112OSM    H2S11612   3.719   2.443  10.723  0.8416 -0.1702  0.3077
  112OSM    C3S11613   3.527   2.409  10.641 -0.2377 -0.0090  0.4646
  112OSM    H3S11614   3.427   2.458  10.632  0.0880  0.8615  1.4151
  112OSM     O311615   3.518   2.296  10.736  0.1697  0.2030  0.0411
  112OSM    HO311616   3.559   2.332  10.814  1.2966  0.0495 -0.4675
  112OSM    C4S11617   3.561   2.356  10.502 -0.1769 -0.6223  0.9985
  112OSM    H4S11618   3.520   2.434  10.436 -0.3654 -0.8397  0.8548
  112OSM    C5S11619   3.621   2.243  10.453 -0.4625 -0.2825 -0.0570
  112OSM    H5S11620   3.657   2.161  10.518 -0.4182 -1.8034 -1.8966
  112OSM    C6S11621   3.658   2.207  10.307  0.4224 -0.4707 -0.8788
  112OSM    H6S11622   3.661   2.098  10.290 -3.1760 -0.5406 -1.7412
  112OSM    H6T11623   3.760   2.250  10.295  0.7757 -0.7488  0.8299
  112OSM    C7S11624   3.560   2.256  10.196 -0.3405 -0.1946  0.3240
  112OSM    H7S11625   3.545   2.364  10.216  0.0891 -0.2105  0.7278
  112OSM    H7T11626   3.463   2.205  10.214 -0.3466 -0.6795 -0.9761
  112OSM    C8S11627   3.611   2.231  10.059  0.3584 -0.5137  0.3209
  112OSM    H8S11628   3.626   2.121  10.060  2.3856 -0.3055 -1.0641
  112OSM    H8T11629   3.709   2.282  10.046 -0.0284  0.1467 -0.0738
  112OSM    C9S11630   3.499   2.255   9.950 -0.5070 -0.2844 -0.1596
  112OSM    H9S11631   3.473   2.362   9.965  1.9752  0.3159  0.3420
  112OSM    H9T11632   3.418   2.182   9.973  0.8731 -0.9976  3.0573
  112OSM   C10S11633   3.562   2.240   9.811  0.4099 -0.0058  0.0913
  112OSM   H10S11634   3.608   2.140   9.815  1.1145  0.3202  0.2623
  112OSM   H10T11635   3.649   2.309   9.802  1.3270 -1.0765  0.5619
  112OSM   C11S11636   3.469   2.267   9.696  0.3105  0.4972  0.3959
  112OSM   H11S11637   3.428   2.370   9.701  1.4486  0.9837 -0.0383
  112OSM   H11T11638   3.378   2.202   9.700 -0.7645  1.9241  0.0565
  112OSM   C12S11639   3.537   2.250   9.553 -0.6314  0.1273 -0.8656
  112OSM   H12S11640   3.564   2.143   9.546  1.6302  0.4805  1.2162
  112OSM   H12T11641   3.625   2.317   9.550 -0.4852 -0.0579 -0.7025
  112OSM   C13S11642   3.452   2.289   9.432 -0.3911  0.2286 -0.7996
  112OSM   H13S11643   3.428   2.397   9.432 -2.8963 -0.2826 -0.2453
  112OSM   H13T11644   3.353   2.242   9.446 -1.0101  1.1815 -1.8601
  112OSM   C14S11645   3.508   2.247   9.298 -0.2113 -0.5586 -0.3633
  112OSM   H14S11646   3.421   2.218   9.236  0.4822 -0.2965 -1.4933
  112OSM   H14T11647   3.578   2.161   9.313 -0.3051 -0.2016  2.7762
  112OSM   C15S11648   3.575   2.370   9.228  0.2148  0.3652  0.1773
  112OSM   H15S11649   3.656   2.414   9.291  0.9790  0.1453 -0.6406
  112OSM   H15T11650   3.499   2.451   9.222 -0.5944 -0.3927  0.0501
  112OSM   C16S11651   3.643   2.353   9.087 -0.1263  0.3049 -0.6929
  112OSM   H16S11652   3.740   2.304   9.108  0.0903  0.8108 -0.5000
  112OSM   H16T11653   3.660   2.446   9.028  2.2023 -0.5268 -1.4332
  112OSM   C17S11654   3.565   2.256   8.995  0.1525 -0.1453 -0.6522
  112OSM   H17S11655   3.456   2.278   9.001 -0.2564 -1.7723 -1.5095
  112OSM   H17T11656   3.588   2.158   9.042 -1.6125 -0.3527 -0.1526
  112OSM   C18S11657   3.609   2.246   8.850 -0.3780  0.0410 -0.2765
  112OSM   H18S11658   3.707   2.197   8.861 -0.1219  0.9939  2.2749
  112OSM   H18T11659   3.625   2.341   8.794 -1.0444 -0.4357 -1.3114
  112OSM   H18U11660   3.553   2.165   8.798 -0.8843 -1.5139  2.5088
  112OSM    C1F11661   3.765   2.700  10.610  0.3419  0.2574  0.2168
  112OSM     OF11662   3.850   2.689  10.694 -0.5695  0.7785 -0.0759
  112OSM    C2F11663   3.767   2.816  10.513  0.1508 -0.4258  0.5463
  112OSM    H2F11664   3.687   2.882  10.554 -0.0543 -0.8186  0.7892
  112OSM    H2G11665   3.751   2.778  10.410  0.4538 -0.6399  0.5757
  112OSM    C3F11666   3.894   2.904  10.521  0.3037  0.0280 -0.0909
  112OSM    H3F11667   3.982   2.837  10.524 -0.9792 -1.6906  0.1176
  112OSM    H3G11668   3.886   2.959  10.617 -1.5217  0.0941 -0.2391
  112OSM    C4F11669   3.903   3.013  10.407  0.0471 -0.4084  0.0846
  112OSM    H4F11670   3.956   3.096  10.458 -0.5683 -0.0503  0.1512
  112OSM    H4G11671   3.801   3.034  10.369  0.2403 -0.1712 -0.3098
  112OSM    C5F11672   3.987   2.970  10.290  0.1067 -0.9440  0.3330
  112OSM    H5F11673   3.935   2.885  10.241  0.1699 -0.2097 -1.0600
  112OSM    H5G11674   4.090   2.944  10.321  0.7141  0.7131 -0.1983
  112OSM    C6F11675   4.013   3.070  10.180 -0.6048 -0.0339 -0.3509
  112OSM    H6F11676   4.110   3.037  10.136  0.4531  1.0582  1.1009
  112OSM    H6G11677   4.026   3.167  10.231 -4.1374  1.8813 -2.6545
  112OSM    C7F11678   3.902   3.099  10.081 -1.3682 -0.2614 -0.2258
  112OSM    H7F11679   3.822   3.153  10.137 -0.8812 -0.5148  0.7465
  112OSM    H7G11680   3.856   3.002  10.048  0.0821 -0.5808 -1.3940
  112OSM    C8F11681   3.948   3.169   9.947  0.0423 -0.1419  0.2258
  112OSM    H8F11682   4.010   3.254   9.981  1.5486 -0.7650 -0.9066
  112OSM    H8G11683   3.858   3.214   9.899  0.9780  1.7417  0.1701
  112OSM    C9F11684   4.022   3.070   9.854 -0.0782  0.6123 -0.3724
  112OSM    H9F11685   4.118   3.043   9.902 -0.3302 -1.0948 -0.7798
  112OSM   C10F11686   3.969   3.003   9.744 -0.5372 -0.4223  0.0630
  112OSM   H10F11687   4.033   2.935   9.685 -0.4316 -1.0429  0.8656
  112OSM   C11F11688   3.826   3.020   9.686 -0.1632  0.9194 -0.5662
  112OSM   H11F11689   3.754   3.072   9.752  1.2186  0.8160  1.0947
  112OSM   H11G11690   3.785   2.921   9.657 -0.3729  1.2568 -1.4612
  112OSM   C12F11691   3.824   3.104   9.562  0.3124  0.2611  0.4285
  112OSM   H12F11692   3.863   3.206   9.580  3.8296 -1.0712  1.0717
  112OSM   H12G11693   3.720   3.121   9.526 -0.4560 -2.0681  1.3521
  112OSM   C13F11694   3.913   3.050   9.446 -0.2192  0.4664  0.8123
  112OSM   H13F11695   3.897   2.943   9.422 -0.2041 -0.0466  2.8582
  112OSM   H13G11696   4.022   3.055   9.468  0.1647  1.4344 -1.1424
  112OSM   C14F11697   3.895   3.130   9.313 -0.5217  0.2909  0.5206
  112OSM   H14F11698   3.982   3.120   9.244  0.7082 -0.0445  2.0610
  112OSM   H14G11699   3.885   3.238   9.339 -0.2056  0.6327 -0.6874
  112OSM   C15F11700   3.766   3.084   9.232  1.2386  0.6743  0.4392
  112OSM   H15F11701   3.683   3.077   9.305  0.8142  0.0287 -0.0865
  112OSM   H15G11702   3.776   2.984   9.184 -1.3676  1.3755 -1.7722
  112OSM   C16F11703   3.730   3.173   9.108  0.3040 -1.1067  0.5930
  112OSM   H16F11704   3.727   3.281   9.134  1.2151 -0.6794 -0.9779
  112OSM   H16G11705   3.625   3.146   9.085 -0.2831 -0.7658  2.6321
  112OSM   C17F11706   3.835   3.163   9.003  0.2732 -0.9215 -0.4366
  112OSM   H17F11707   3.868   3.061   8.977 -0.0660 -1.3295  0.6788
  112OSM   H17G11708   3.919   3.230   9.033 -0.2529  0.8568 -2.6519
  112OSM   C18F11709   3.782   3.210   8.872 -0.2857 -0.8790 -0.1763
  112OSM   H18F11710   3.677   3.175   8.860 -0.5333 -0.7058  1.2692
  112OSM   H18G11711   3.846   3.183   8.786 -0.0149  1.9724 -0.9877
  112OSM   H18H11712   3.768   3.320   8.869  0.7811 -0.7570 -2.2925
  113OSM      N11713   0.759   4.554  10.865 -0.1585 -0.4717 -0.2906
  113OSM    C1511714   0.864   4.508  10.960  0.3244 -0.1242  0.1625
  113OSM   H15A11715   0.944   4.580  10.973  1.6709 -1.8114  1.9112
  113OSM   H15B11716   0.900   4.411  10.930  1.2291  0.1269  0.3910
  113OSM   H15C11717   0.817   4.502  11.057 -1.4782 -0.9190 -0.7328
  113OSM    C1411718   0.718   4.689  10.914 -0.6640  0.7648  0.4713
  113OSM   H14A11719   0.653   4.747  10.849  2.2915  3.3708 -0.4262
  113OSM   H14B11720   0.808   4.748  10.926  0.1070 -0.4477  0.7498
  113OSM   H14C11721   0.670   4.672  11.009 -2.3217 -0.7452 -0.5699
  113OSM    C1311722   0.829   4.567  10.734 -0.3217  0.4204  0.2068
  113OSM   H13A11723   0.861   4.471  10.697  0.9907  0.0551  2.1496
  113OSM   H13B11724   0.909   4.640  10.733  0.3786 -0.2728  1.7343
  113OSM   H13C11725   0.758   4.611  10.666 -0.0822 -0.6937 -0.8005
  113OSM    C1211726   0.631   4.469  10.868  0.1743  0.1377  0.6913
  113OSM   H12A11727   0.650   4.376  10.818  1.5297 -0.6744  2.6027
  113OSM   H12B11728   0.560   4.519  10.803 -0.0925 -1.4157 -0.2428
  113OSM    C1111729   0.550   4.438  11.002  0.0746  0.2238  0.4404
  113OSM   H11A11730   0.607   4.369  11.067  0.2580  0.8093  0.9114
  113OSM   H11B11731   0.467   4.380  10.956 -0.6423  3.2344 -2.4925
  113OSM      P11732   0.362   4.589  11.125  0.1287 -0.3322 -0.3712
  113OSM    O1311733   0.352   4.492  11.236 -0.2133 -0.3860 -0.5349
  113OSM    O1411734   0.340   4.729  11.161  0.1686  0.1501 -0.2751
  113OSM    O1111735   0.261   4.550  11.005  0.0808 -0.0693 -0.8674
  113OSM    O1211736   0.506   4.568  11.061 -0.4618 -0.4318 -0.5991
  113OSM    C1S11737   0.270   4.622  10.877  0.1297  0.2749 -0.0967
  113OSM    H1S11738   0.377   4.643  10.856 -0.1337 -0.0945 -1.8915
  113OSM    H1T11739   0.213   4.717  10.888  3.0903  2.1901 -0.0625
  113OSM     NF11740   0.253   4.590  10.642 -0.3462  0.7352  0.0475
  113OSM    HNF11741   0.186   4.659  10.614 -1.5873  0.4134  1.9801
  113OSM    C2S11742   0.215   4.530  10.764 -0.0534  0.7242  0.2046
  113OSM    H2S11743   0.266   4.432  10.765  0.6458  1.0238  3.0559
  113OSM    C3S11744   0.066   4.510  10.796  0.5496 -0.4159  0.4736
  113OSM    H3S11745   0.010   4.606  10.791 -1.3313 -1.4802  0.0467
  113OSM     O311746   0.032   4.467  10.931 -0.0164 -0.0382  0.3347
  113OSM    HO311747   0.123   4.448  10.957 -0.7810  0.0114  3.4630
  113OSM    C4S11748   0.010   4.403  10.697  0.3481 -0.0631 -0.0899
  113OSM    H4S11749   0.075   4.315  10.684  2.2401  1.1755  0.5843
  113OSM    C5S11750  -0.098   4.411  10.623  0.4051  0.5146 -0.3709
  113OSM    H5S11751  -0.154   4.506  10.614  1.1374  1.1195  1.1650
  113OSM    C6S11752  -0.146   4.310  10.517  0.2616 -0.0138  0.8905
  113OSM    H6S11753  -0.255   4.291  10.527 -0.1543  1.7883  0.2113
  113OSM    H6T11754  -0.102   4.208  10.526 -0.4870 -0.4003  0.3084
  113OSM    C7S11755  -0.116   4.365  10.371  0.2985 -0.3780 -0.8684
  113OSM    H7S11756  -0.013   4.405  10.357  0.0634  1.1657  1.3887
  113OSM    H7T11757  -0.186   4.447  10.344  0.8476 -0.3358 -2.2344
  113OSM    C8S11758  -0.140   4.258  10.268 -0.4764 -0.1432  0.0818
  113OSM    H8S11759  -0.249   4.237  10.270 -0.4053 -0.7939 -1.4969
  113OSM    H8T11760  -0.086   4.162  10.285 -1.6029 -1.2254 -2.0975
  113OSM    C9S11761  -0.120   4.308  10.129 -0.1709  0.2178  0.2065
  113OSM    H9S11762  -0.019   4.352  10.112 -1.1792  2.2034 -0.9107
  113OSM    H9T11763  -0.194   4.386  10.102  0.4073  0.9139  0.5925
  113OSM   C10S11764  -0.121   4.200  10.019  0.0805  0.1416 -0.9501
  113OSM   H10S11765  -0.224   4.160  10.021  0.0611  0.2410  0.2818
  113OSM   H10T11766  -0.040   4.133  10.055 -1.1538 -1.1052 -0.4007
  113OSM   C11S11767  -0.097   4.253   9.880  0.8310  1.0851  0.3605
  113OSM   H11S11768   0.002   4.302   9.876  0.7603  1.1665 -2.5464
  113OSM   H11T11769  -0.165   4.334   9.843 -0.1471  0.6501  1.1446
  113OSM   C12S11770  -0.100   4.151   9.769  0.0574  0.2546 -0.4060
  113OSM   H12S11771  -0.184   4.079   9.776 -1.0007  1.3954 -0.9754
  113OSM   H12T11772   0.001   4.105   9.768  0.3778  0.9290 -1.9727
  113OSM   C13S11773  -0.112   4.212   9.628 -1.0594 -0.7391 -0.4705
  113OSM   H13S11774  -0.036   4.293   9.619 -2.6042  0.8361  0.1099
  113OSM   H13T11775  -0.218   4.238   9.609 -1.0858 -0.8707 -0.5045
  113OSM   C14S11776  -0.099   4.114   9.512 -0.6509 -1.5190  0.1101
  113OSM   H14S11777  -0.188   4.049   9.501 -0.1934 -2.4652  1.5923
  113OSM   H14T11778  -0.021   4.041   9.543 -0.1976 -0.8187  0.6539
  113OSM   C15S11779  -0.041   4.179   9.381  0.3581 -0.4722 -0.0765
  113OSM   H15S11780  -0.028   4.100   9.304 -0.1468  0.5442 -1.2370
  113OSM   H15T11781   0.046   4.244   9.401 -1.5843  2.2481  0.0429
  113OSM   C16S11782  -0.145   4.271   9.314  0.5451 -0.3130  0.1361
  113OSM   H16S11783  -0.169   4.361   9.373  2.0045 -0.2954  0.7447
  113OSM   H16T11784  -0.242   4.218   9.299 -0.3625  1.4814 -0.6542
  113OSM   C17S11785  -0.108   4.307   9.168 -0.1954  0.0511  0.1948
  113OSM   H17S11786  -0.181   4.378   9.125 -0.8765 -0.5529  0.3365
  113OSM   H17T11787  -0.112   4.206   9.120 -0.7936  0.3109 -0.3136
  113OSM   C18S11788   0.034   4.353   9.157 -0.3377  0.4461  0.3790
  113OSM   H18S11789   0.054   4.449   9.208  2.4553  0.7937 -1.1495
  113OSM   H18T11790   0.064   4.368   9.051  0.9869  0.1964  0.7058
  113OSM   H18U11791   0.108   4.279   9.193 -0.4296  0.9458  1.6485
  113OSM    C1F11792   0.371   4.590  10.596 -0.4460 -0.1692  0.7379
  113OSM     OF11793   0.463   4.518  10.639 -0.3199  0.5691  0.3697
  113OSM    C2F11794   0.400   4.700  10.492 -0.6544  0.9623 -0.4664
  113OSM    H2F11795   0.440   4.786  10.550  2.7770 -0.8101  0.0652
  113OSM    H2G11796   0.303   4.721  10.441 -0.2555 -1.1705 -2.2578
  113OSM    C3F11797   0.509   4.645  10.399  0.5800 -0.6838  0.3062
  113OSM    H3F11798   0.481   4.548  10.351 -1.1572  0.3634 -0.9057
  113OSM    H3G11799   0.602   4.622  10.456 -0.9556 -3.8740  1.7723
  113OSM    C4F11800   0.558   4.751  10.292 -0.3679 -0.3117 -0.3026
  113OSM    H4F11801   0.651   4.711  10.247 -1.6201 -0.8835 -2.5561
  113OSM    H4G11802   0.587   4.843  10.348  0.3165 -2.1718  2.6323
  113OSM    C5F11803   0.463   4.789  10.185  0.0181 -0.0174 -0.8574
  113OSM    H5F11804   0.503   4.881  10.137  0.4669  2.3121  3.4617
  113OSM    H5G11805   0.373   4.832  10.234 -0.0827  0.2217 -1.2494
  113OSM    C6F11806   0.421   4.673  10.098  0.3976 -0.0467 -0.4106
  113OSM    H6F11807   0.357   4.611  10.164  2.8042 -0.7202  1.4228
  113OSM    H6G11808   0.512   4.619  10.063  0.5432 -0.5606  0.7116
  113OSM    C7F11809   0.339   4.708   9.969 -0.0602  0.1330 -0.7097
  113OSM    H7F11810   0.407   4.781   9.918  0.0596  1.0151  0.6636
  113OSM    H7G11811   0.243   4.756   9.995 -0.9833 -1.4023 -1.1963
  113OSM    C8F11812   0.311   4.591   9.869 -0.5823 -0.2229 -0.4701
  113OSM    H8F11813   0.305   4.500   9.931  0.8727  0.0941  0.1750
  113OSM    H8G11814   0.407   4.578   9.815 -1.0333 -1.5933 -0.9766
  113OSM    C9F11815   0.186   4.598   9.781  0.5409  0.8360 -0.7131
  113OSM    H9F11816   0.106   4.650   9.835 -0.2067  0.4641 -1.4591
  113OSM   C10F11817   0.183   4.571   9.652  0.8979  0.5951 -0.4582
  113OSM   H10F11818   0.087   4.583   9.598  1.8317  1.9656 -1.9220
  113OSM   C11F11819   0.298   4.514   9.568 -0.2449 -0.0023 -0.8349
  113OSM   H11F11820   0.257   4.430   9.508 -0.4491 -0.0985 -0.5686
  113OSM   H11G11821   0.376   4.466   9.630 -2.2258  0.5059  2.3054
  113OSM   C12F11822   0.350   4.621   9.469  0.1098  0.2207  0.5339
  113OSM   H12F11823   0.407   4.694   9.531 -0.7080  0.6776  0.7503
  113OSM   H12G11824   0.274   4.674   9.408  3.7278  4.4997 -0.8287
  113OSM   C13F11825   0.438   4.560   9.356  0.5942  0.4202  0.7172
  113OSM   H13F11826   0.523   4.500   9.395  0.6719  0.7154  0.9994
  113OSM   H13G11827   0.469   4.651   9.301  0.2712  1.0429  1.5587
  113OSM   C14F11828   0.356   4.481   9.257  1.0030  0.1510 -0.1170
  113OSM   H14F11829   0.281   4.547   9.209 -0.5609 -1.6702 -0.2956
  113OSM   H14G11830   0.294   4.405   9.310 -1.1918  3.0202  1.7481
  113OSM   C15F11831   0.444   4.425   9.135  0.1822  0.7027 -0.3394
  113OSM   H15F11832   0.370   4.368   9.074 -1.3760 -0.7366  2.6992
  113OSM   H15G11833   0.509   4.342   9.169 -1.8947 -0.8643  0.0058
  113OSM   C16F11834   0.546   4.527   9.063  0.7295  0.3921  0.3344
  113OSM   H16F11835   0.628   4.473   9.012  0.3836  0.3019 -0.1241
  113OSM   H16G11836   0.599   4.592   9.136  1.9512  1.1931 -1.2013
  113OSM   C17F11837   0.469   4.618   8.965  0.4208  0.4473  1.0762
  113OSM   H17F11838   0.397   4.675   9.027 -0.8739  0.0130  0.0183
  113OSM   H17G11839   0.398   4.555   8.906  1.7644 -2.5124  2.3905
  113OSM   C18F11840   0.549   4.714   8.873 -0.3729 -0.0133 -0.4515
  113OSM   H18F11841   0.607   4.646   8.808  2.9547  1.7152  0.4656
  113OSM   H18G11842   0.626   4.782   8.916  2.9964 -2.2697 -2.4272
  113OSM   H18H11843   0.481   4.771   8.807  2.0635  3.1397 -0.4572
  114OSM      N11844   2.707   0.463  11.508 -0.9739 -0.3768 -0.8490
  114OSM    C1511845   2.855   0.493  11.512  0.1503  0.5475  0.1175
  114OSM   H15A11846   2.908   0.423  11.575 -0.0872 -0.2806 -0.5734
  114OSM   H15B11847   2.855   0.592  11.554 -1.4730  0.6577 -0.0908
  114OSM   H15C11848   2.897   0.488  11.412 -1.1872 -1.2187 -0.4167
  114OSM    C1411849   2.691   0.321  11.459  0.6209 -0.7719  0.3744
  114OSM   H14A11850   2.591   0.280  11.463  1.1096 -1.9835  0.6393
  114OSM   H14B11851   2.766   0.255  11.500 -1.0581 -3.6557 -0.8281
  114OSM   H14C11852   2.708   0.333  11.353  0.7741  0.1521  0.4918
  114OSM    C1311853   2.649   0.483  11.649 -0.3054  0.3838 -0.5597
  114OSM   H13A11854   2.542   0.493  11.660  0.0213  1.2551  4.0813
  114OSM   H13B11855   2.694   0.568  11.699  0.3451  0.2109 -0.8463
  114OSM   H13C11856   2.666   0.390  11.702 -1.8194  0.6095  0.3990
  114OSM    C1211857   2.657   0.573  11.407  0.3148 -0.4644  0.9886
  114OSM   H12A11858   2.678   0.671  11.447  1.4717 -0.4933  0.4659
  114OSM   H12B11859   2.549   0.567  11.405  0.3942 -4.1797 -0.2684
  114OSM    C1111860   2.711   0.569  11.265  0.6158 -0.5827 -0.5459
  114OSM   H11A11861   2.822   0.564  11.263  0.5793 -1.0704 -1.4566
  114OSM   H11B11862   2.696   0.661  11.206  2.6293 -0.2937 -0.6926
  114OSM      P11863   2.537   0.441  11.129 -0.3370  0.6401  0.3551
  114OSM    O1311864   2.539   0.320  11.039  0.3722 -0.1694 -0.5521
  114OSM    O1411865   2.440   0.448  11.234  0.1256 -0.0288  0.3581
  114OSM    O1111866   2.520   0.570  11.044 -0.3184 -0.0376 -1.0324
  114OSM    O1211867   2.676   0.459  11.194  0.1929 -0.2784  0.4616
  114OSM    C1S11868   2.596   0.606  10.926 -0.4399 -0.3320  0.2201
  114OSM    H1S11869   2.600   0.514  10.864 -2.0550 -0.9381  0.9495
  114OSM    H1T11870   2.700   0.629  10.957 -0.6960  1.6225 -0.2136
  114OSM     NF11871   2.590   0.749  10.732  0.4339 -0.0986 -0.2761
  114OSM    HNF11872   2.646   0.829  10.711  1.7503 -1.0511 -0.5202
  114OSM    C2S11873   2.523   0.723  10.856  0.2030 -0.1789  0.3599
  114OSM    H2S11874   2.416   0.699  10.837  0.1970  0.8252 -1.1087
  114OSM    C3S11875   2.507   0.850  10.937  0.2079 -0.0251 -0.0087
  114OSM    H3S11876   2.611   0.872  10.969 -0.2669  0.9734  0.9291
  114OSM     O311877   2.435   0.825  11.064 -0.7781  0.1706  0.6375
  114OSM    HO311878   2.447   0.730  11.061 -2.4347 -0.0420 -1.2486
  114OSM    C4S11879   2.451   0.974  10.864 -0.1039 -0.4420 -0.1130
  114OSM    H4S11880   2.530   1.046  10.838 -1.2795  0.5292 -1.1569
  114OSM    C5S11881   2.328   1.010  10.829  0.3406  0.2279  0.3634
  114OSM    H5S11882   2.247   0.936  10.830  1.0936 -0.6082  2.0103
  114OSM    C6S11883   2.294   1.133  10.754 -1.1557  0.1779 -0.7493
  114OSM    H6S11884   2.361   1.218  10.779  1.7883 -1.1860 -3.3334
  114OSM    H6T11885   2.192   1.164  10.785  0.0009  1.4816  2.0810
  114OSM    C7S11886   2.290   1.099  10.605 -0.6108 -0.2309 -0.1494
  114OSM    H7S11887   2.243   1.000  10.585 -1.0074 -0.1651  0.4241
  114OSM    H7T11888   2.395   1.094  10.569  0.6094 -0.6689  3.1449
  114OSM    C8S11889   2.211   1.207  10.522  0.1932 -0.5071  0.0093
  114OSM    H8S11890   2.232   1.302  10.575 -1.2201  0.1693 -0.5930
  114OSM    H8T11891   2.102   1.190  10.525  0.1092 -0.2420 -1.1082
  114OSM    C9S11892   2.258   1.204  10.375 -0.2157  0.0193 -0.0273
  114OSM    H9S11893   2.368   1.186  10.376 -0.3668 -1.1774 -1.2146
  114OSM    H9T11894   2.234   1.297  10.320 -2.3392 -0.1714  0.4778
  114OSM   C10S11895   2.201   1.089  10.287 -0.0738  0.5619 -0.2102
  114OSM   H10S11896   2.092   1.087  10.306 -0.2180  0.1465 -1.0173
  114OSM   H10T11897   2.247   0.999  10.334  0.5234  0.7351 -0.4503
  114OSM   C11S11898   2.224   1.102  10.137 -0.8975  0.4016  0.1699
  114OSM   H11S11899   2.190   1.205  10.114 -1.4673  0.3374  0.6988
  114OSM   H11T11900   2.158   1.035  10.078  2.2271 -2.1903 -0.7129
  114OSM   C12S11901   2.369   1.095  10.085 -0.4432  0.1669 -0.0315
  114OSM   H12S11902   2.420   0.999  10.108 -0.4734  0.0542 -0.4314
  114OSM   H12T11903   2.432   1.178  10.125  0.7066 -0.3759 -0.6507
  114OSM   C13S11904   2.374   1.120   9.931  0.6585 -0.1059  0.3342
  114OSM   H13S11905   2.481   1.109   9.901 -0.1522  0.9165 -3.4764
  114OSM   H13T11906   2.346   1.227   9.917  2.3720  0.3741  0.2874
  114OSM   C14S11907   2.296   1.026   9.846 -0.3174 -0.4960 -0.1063
  114OSM   H14S11908   2.190   1.018   9.878  0.1082  1.6152  2.1692
  114OSM   H14T11909   2.339   0.925   9.863  1.6489  0.4484  0.9118
  114OSM   C15S11910   2.303   1.064   9.696  0.0300  0.4262 -0.0994
  114OSM   H15S11911   2.408   1.093   9.675  0.6305 -2.2279 -1.2581
  114OSM   H15T11912   2.229   1.142   9.669 -0.8282 -0.0538  0.8218
  114OSM   C16S11913   2.297   0.939   9.600  0.4334  0.2926 -0.3371
  114OSM   H16S11914   2.211   0.872   9.622  1.0594  0.0658  1.5974
  114OSM   H16T11915   2.388   0.878   9.615  0.1026  0.1531  1.2376
  114OSM   C17S11916   2.303   0.985   9.445 -0.1448 -0.4272 -0.2573
  114OSM   H17S11917   2.387   1.055   9.424  0.8781 -1.4826  0.1998
  114OSM   H17T11918   2.213   1.046   9.424 -0.8825 -1.2497  0.4858
  114OSM   C18S11919   2.301   0.883   9.344 -0.1131  0.0228 -0.0208
  114OSM   H18S11920   2.383   0.808   9.340 -1.0926 -1.0657 -0.0487
  114OSM   H18T11921   2.316   0.936   9.247 -0.1895  0.7880  0.3783
  114OSM   H18U11922   2.206   0.828   9.330  0.3138 -0.5517 -0.8008
  114OSM    C1F11923   2.581   0.656  10.634 -0.1237  0.4755 -0.4943
  114OSM     OF11924   2.488   0.571  10.629  0.3026 -0.0725  0.1553
  114OSM    C2F11925   2.699   0.652  10.534 -0.0873 -0.2350  0.0485
  114OSM    H2F11926   2.717   0.543  10.525 -1.8502 -0.4571 -1.2895
  114OSM    H2G11927   2.792   0.693  10.578 -0.5907 -0.9798  1.8635
  114OSM    C3F11928   2.662   0.704  10.396 -0.8743  0.0805  0.3341
  114OSM    H3F11929   2.663   0.815  10.395 -1.5825  0.0984  0.6270
  114OSM    H3G11930   2.558   0.673  10.370  0.5786 -3.5379 -1.8301
  114OSM    C4F11931   2.759   0.660  10.279  0.1812  0.2230  0.0712
  114OSM    H4F11932   2.832   0.587  10.320  0.3638 -1.2390 -2.5807
  114OSM    H4G11933   2.819   0.746  10.244  2.3243 -0.6642  1.4019
  114OSM    C5F11934   2.681   0.589  10.161  0.4006  0.3705  0.3362
  114OSM    H5F11935   2.588   0.537  10.195  1.3395 -0.6208  1.5379
  114OSM    H5G11936   2.753   0.515  10.119 -0.6670 -1.5243  1.6704
  114OSM    C6F11937   2.650   0.679  10.038 -1.2344  0.8068 -0.0851
  114OSM    H6F11938   2.748   0.724  10.012 -1.5812  1.3358 -0.4839
  114OSM    H6G11939   2.586   0.763  10.070  0.8219  2.3636  0.1826
  114OSM    C7F11940   2.586   0.604   9.925 -0.1874  0.4988  0.0328
  114OSM    H7F11941   2.493   0.554   9.960 -0.1232  0.8856  0.7749
  114OSM    H7G11942   2.657   0.529   9.885 -1.3234 -0.6865  0.1664
  114OSM    C8F11943   2.550   0.696   9.815  0.3548 -0.0354  0.5308
  114OSM    H8F11944   2.638   0.747   9.770 -0.9374 -0.7279 -3.1209
  114OSM    H8G11945   2.485   0.776   9.855 -0.7598 -1.2985  1.3040
  114OSM    C9F11946   2.470   0.629   9.701 -0.2301 -0.1580 -0.6272
  114OSM    H9F11947   2.365   0.611   9.730 -0.8662  1.6137 -1.6855
  114OSM   C10F11948   2.527   0.576   9.589  0.2011  0.6751  0.2620
  114OSM   H10F11949   2.467   0.534   9.507  0.2009  1.9020 -0.3788
  114OSM   C11F11950   2.675   0.586   9.562 -0.1339 -0.3917 -0.1579
  114OSM   H11F11951   2.723   0.536   9.648  1.3618 -0.8410 -1.2097
  114OSM   H11G11952   2.715   0.689   9.549 -0.2784 -0.1969  0.8997
  114OSM   C12F11953   2.717   0.495   9.444  0.7584  0.5721 -0.3647
  114OSM   H12F11954   2.666   0.397   9.447  1.4936  0.1934  0.7028
  114OSM   H12G11955   2.820   0.468   9.476  0.4893  2.9272  3.1477
  114OSM   C13F11956   2.719   0.576   9.317 -0.0797 -0.1722  0.4403
  114OSM   H13F11957   2.762   0.677   9.334  0.8024 -0.0195 -2.2761
  114OSM   H13G11958   2.611   0.586   9.293  0.5166  3.9036 -1.2199
  114OSM   C14F11959   2.796   0.510   9.203 -0.4562  0.8237  0.6645
  114OSM   H14F11960   2.756   0.408   9.186  1.7151 -0.2268  1.5230
  114OSM   H14G11961   2.894   0.474   9.241 -1.7601 -1.5049  2.0524
  114OSM   C15F11962   2.802   0.589   9.073  0.1722  0.5105  0.7853
  114OSM   H15F11963   2.829   0.514   8.996  2.2687  1.7332  0.2553
  114OSM   H15G11964   2.890   0.657   9.075  1.7509 -1.2827 -1.9321
  114OSM   C16F11965   2.668   0.660   9.037 -0.1816 -0.8763  0.8655
  114OSM   H16F11966   2.655   0.755   9.093  1.6192  1.1547 -1.8620
  114OSM   H16G11967   2.581   0.593   9.053 -0.4701 -0.6461  0.2898
  114OSM   C17F11968   2.670   0.703   8.894  0.0034  0.1389  0.6633
  114OSM   H17F11969   2.686   0.621   8.820 -0.2962  1.1046 -0.4950
  114OSM   H17G11970   2.741   0.785   8.871 -0.7863  1.3862  2.4619
  114OSM   C18F11971   2.534   0.752   8.851 -0.0882 -0.6182  0.3259
  114OSM   H18F11972   2.528   0.756   8.740  0.8211 -0.9344  0.2509
  114OSM   H18G11973   2.513   0.856   8.883  2.9454  1.0000 -2.3244
  114OSM   H18H11974   2.457   0.686   8.897  0.3993 -1.4075  0.0374
  115OSM      N11975   5.003   5.103  11.071 -0.5178  0.5290  0.6945
  115OSM    C1511976   5.067   5.227  11.005  0.2294 -0.0981 -1.2471
  115OSM   H15A11977   5.120   5.200  10.915  0.4493  0.0174 -1.1536
  115OSM   H15B11978   5.138   5.269  11.075  0.4716 -1.7539 -0.4616
  115OSM   H15C11979   4.994   5.302  10.978 -0.2376 -0.0546  0.0424
  115OSM    C1411980   5.117   5.014  11.113 -0.1028 -0.9134 -0.0695
  115OSM   H14A11981   5.172   5.060  11.194  0.2427 -1.4724  0.0199
  115OSM   H14B11982   5.186   4.981  11.038  0.0315 -0.4895 -0.1326
  115OSM   H14C11983   5.080   4.923  11.159  0.9912 -0.9747  0.7199
  115OSM    C1311984   4.920   5.133  11.193 -0.1453 -0.5559 -0.7251
  115OSM   H13A11985   4.968   5.200  11.263  0.2568 -0.9684 -0.6017
  115OSM   H13B11986   4.899   5.040  11.243  0.7079 -0.9589 -1.1101
  115OSM   H13C11987   4.833   5.189  11.164  0.1447  0.3488  0.0879
  115OSM    C1211988   4.922   5.025  10.966 -0.8772 -0.1261 -0.3795
  115OSM   H12A11989   4.872   4.941  11.012 -1.4906 -1.1352 -2.7192
  115OSM   H12B11990   4.984   4.980  10.890 -0.5323  1.8550 -1.3244
  115OSM    C1111991   4.811   5.109  10.896 -0.1793  0.4597  0.0164
  115OSM   H11A11992   4.772   5.058  10.806 -0.1812 -0.4496  0.5245
  115OSM   H11B11993   4.855   5.195  10.840  3.1765  0.4154  2.2908
  115OSM      P11994   4.592   5.065  11.032 -0.4770  0.5454  0.3107
  115OSM    O1311995   4.642   4.926  11.030 -0.0045 -0.3221  0.8300
  115OSM    O1411996   4.535   5.111  11.159 -0.3492 -0.3814  0.2866
  115OSM    O1111997   4.490   5.094  10.915 -0.1115  0.5826 -0.0631
  115OSM    O1211998   4.714   5.165  10.988  0.0486  0.0413 -0.4844
  115OSM    C1S11999   4.473   5.230  10.859 -0.1436  0.5193  0.5998
  115OSM    H1S12000   4.556   5.297  10.889 -0.3430  0.3491  1.5859
  115OSM    H1T12001   4.380   5.266  10.908 -0.0758  1.6183 -0.0762
  115OSM     NF12002   4.480   5.350  10.646 -0.1141 -0.0082  0.2491
  115OSM    HNF12003   4.393   5.387  10.614 -1.5655  0.1133  3.8615
  115OSM    C2S12004   4.474   5.219  10.701  0.2737  0.3377  0.2437
  115OSM    H2S12005   4.564   5.163  10.668  0.7272  0.3262  1.4420
  115OSM    C3S12006   4.346   5.145  10.652 -0.0643  0.5195 -0.1993
  115OSM    H3S12007   4.261   5.214  10.669  0.5634  0.7272  2.5107
  115OSM     O312008   4.302   5.036  10.731  0.3691 -0.5880  0.1962
  115OSM    HO312009   4.355   5.035  10.811 -2.3049  0.3151  2.0867
  115OSM    C4S12010   4.369   5.122  10.506 -0.9096 -0.0401  0.0694
  115OSM    H4S12011   4.328   5.208  10.452  0.1276  2.2116  2.6233
  115OSM    C5S12012   4.431   5.021  10.440  0.0152  0.4395  0.0680
  115OSM    H5S12013   4.467   4.943  10.509  0.2654  1.5115  1.1833
  115OSM    C6S12014   4.461   5.003  10.294 -0.2310 -0.7738 -0.2547
  115OSM    H6S12015   4.411   4.906  10.270 -1.4679 -0.0174 -0.8591
  115OSM    H6T12016   4.571   4.999  10.278 -0.3341  0.1071 -1.2819
  115OSM    C7S12017   4.393   5.105  10.206 -0.1957  0.4697  0.2562
  115OSM    H7S12018   4.435   5.206  10.226  3.0043 -0.6892  0.0739
  115OSM    H7T12019   4.283   5.108  10.195  0.0400 -0.6261 -4.8936
  115OSM    C8S12020   4.448   5.087  10.062 -0.6205 -0.2506  0.1821
  115OSM    H8S12021   4.399   4.993  10.030  0.0855 -0.5028 -0.1824
  115OSM    H8T12022   4.559   5.073  10.060 -0.1706  2.3847  1.5340
  115OSM    C9S12023   4.420   5.206   9.971 -0.0802 -0.1330  0.4047
  115OSM    H9S12024   4.476   5.291  10.016 -2.6758  0.3692  3.0366
  115OSM    H9T12025   4.311   5.230   9.976 -0.8436 -2.8054 -1.5628
  115OSM   C10S12026   4.451   5.171   9.824  0.1479  0.1215 -0.1669
  115OSM   H10S12027   4.386   5.088   9.791 -0.4301  0.2977  0.4933
  115OSM   H10T12028   4.555   5.132   9.817  0.8475  2.1794 -2.7271
  115OSM   C11S12029   4.425   5.287   9.731 -0.1355  0.6964  0.2100
  115OSM   H11S12030   4.516   5.351   9.725  1.1043 -1.1038 -1.1966
  115OSM   H11T12031   4.340   5.353   9.758 -1.1672 -0.7726  0.6347
  115OSM   C12S12032   4.395   5.232   9.593 -0.2893 -0.0333 -0.1088
  115OSM   H12S12033   4.308   5.167   9.612 -0.9243  0.6615 -0.5889
  115OSM   H12T12034   4.485   5.171   9.568 -1.5127 -2.0152  0.1792
  115OSM   C13S12035   4.372   5.336   9.494  0.0054 -0.0230 -0.3668
  115OSM   H13S12036   4.446   5.419   9.500  1.1597 -1.0235 -0.3747
  115OSM   H13T12037   4.268   5.374   9.505  0.3002  0.7269 -0.1331
  115OSM   C14S12038   4.399   5.284   9.351  0.1458 -0.4437  0.1851
  115OSM   H14S12039   4.316   5.212   9.335 -1.7268  1.4833  0.8124
  115OSM   H14T12040   4.497   5.232   9.340  0.7536  0.2740  1.9817
  115OSM   C15S12041   4.375   5.398   9.251  0.4441  0.2643 -0.8420
  115OSM   H15S12042   4.469   5.457   9.262  1.2309 -1.1343  0.4337
  115OSM   H15T12043   4.289   5.457   9.286  0.4864 -1.5450  2.7941
  115OSM   C16S12044   4.354   5.342   9.109  0.2332 -0.1014 -0.3061
  115OSM   H16S12045   4.270   5.271   9.099  0.4950 -0.1720 -2.7721
  115OSM   H16T12046   4.447   5.291   9.077  2.1161  1.7105  1.9261
  115OSM   C17S12047   4.344   5.453   8.998  0.4474 -0.0576 -0.6114
  115OSM   H17S12048   4.442   5.504   9.003  2.2131 -3.2816  0.3158
  115OSM   H17T12049   4.262   5.518   9.036  1.5072 -0.3509  2.5032
  115OSM   C18S12050   4.305   5.390   8.861  0.8571  0.1611  0.1405
  115OSM   H18S12051   4.387   5.340   8.804 -0.0715  0.9565 -2.0067
  115OSM   H18T12052   4.279   5.474   8.793 -0.7924 -0.4281  0.0019
  115OSM   H18U12053   4.219   5.320   8.872  1.5278 -1.0186 -1.6140
  115OSM    C1F12054   4.595   5.413  10.641 -0.4734 -0.0865 -0.2335
  115OSM     OF12055   4.707   5.359  10.643  0.6003  0.1547  0.4406
  115OSM    C2F12056   4.593   5.564  10.642  1.3152  0.2635 -0.3424
  115OSM    H2F12057   4.685   5.604  10.691  0.2556  1.1684  0.9948
  115OSM    H2G12058   4.512   5.605  10.706  2.8413  0.5215  1.5478
  115OSM    C3F12059   4.586   5.626  10.499 -0.2452  0.3455 -0.2931
  115OSM    H3F12060   4.491   5.600  10.448 -0.4118 -0.1467  0.2550
  115OSM    H3G12061   4.665   5.582  10.433  0.3714  1.0007 -0.0086
  115OSM    C4F12062   4.585   5.775  10.494 -0.0554 -0.2044 -0.0067
  115OSM    H4F12063   4.679   5.821  10.531  0.8556 -1.9147 -0.0991
  115OSM    H4G12064   4.496   5.818  10.543 -0.2219  1.2618 -1.5080
  115OSM    C5F12065   4.581   5.823  10.347  0.0155 -0.3564 -0.1783
  115OSM    H5F12066   4.670   5.787  10.291  0.1347  2.4420 -2.0208
  115OSM    H5G12067   4.596   5.933  10.355 -1.2839 -0.3226  3.8994
  115OSM    C6F12068   4.457   5.811  10.263  0.4911  0.4923  0.1812
  115OSM    H6F12069   4.378   5.850  10.330 -1.3977  0.2655 -1.8340
  115OSM    H6G12070   4.442   5.706  10.233 -1.8827  0.3902  1.5050
  115OSM    C7F12071   4.452   5.891  10.131  0.8327  0.0394  0.0409
  115OSM    H7F12072   4.459   5.999  10.157 -0.9924  0.4152 -0.8938
  115OSM    H7G12073   4.347   5.880  10.096  1.2733 -1.1368 -1.0083
  115OSM    C8F12074   4.552   5.850  10.022  0.0973 -0.7601 -0.2701
  115OSM    H8F12075   4.658   5.852  10.056 -0.0908  0.1861  0.2913
  115OSM    H8G12076   4.544   5.931   9.947  0.1521 -0.7770 -0.2948
  115OSM    C9F12077   4.525   5.714   9.961  0.4178 -0.9494 -0.9909
  115OSM    H9F12078   4.559   5.631  10.025  3.1845 -0.1645 -1.2997
  115OSM   C10F12079   4.469   5.699   9.842  0.3877  0.1134  0.6544
  115OSM   H10F12080   4.466   5.595   9.808  2.3592  0.3348 -0.3426
  115OSM   C11F12081   4.418   5.803   9.750 -0.0586  0.2182  0.7047
  115OSM   H11F12082   4.490   5.887   9.738 -0.3530  0.5224  1.0475
  115OSM   H11G12083   4.324   5.844   9.792 -1.2812 -0.8838 -0.8228
  115OSM   C12F12084   4.404   5.743   9.607 -0.4071  0.0682  0.2548
  115OSM   H12F12085   4.340   5.653   9.609 -0.2381 -0.1343 -1.5062
  115OSM   H12G12086   4.500   5.712   9.561 -0.5645 -1.2898  0.8026
  115OSM   C13F12087   4.347   5.842   9.501  0.1623  0.1102  0.1564
  115OSM   H13F12088   4.417   5.929   9.503  0.6884 -0.3031  1.7221
  115OSM   H13G12089   4.252   5.895   9.520 -0.0090  0.3780 -1.3342
  115OSM   C14F12090   4.350   5.789   9.356  0.5053 -0.6428 -0.0851
  115OSM   H14F12091   4.300   5.867   9.295  1.2398 -0.6566 -0.7270
  115OSM   H14G12092   4.294   5.695   9.338  2.3459 -1.7617 -0.2631
  115OSM   C15F12093   4.494   5.785   9.295  0.0018 -0.1646  0.4345
  115OSM   H15F12094   4.553   5.703   9.341 -0.3059 -1.2564 -1.0636
  115OSM   H15G12095   4.539   5.886   9.307  0.5180  0.0353 -2.4531
  115OSM   C16F12096   4.484   5.743   9.148  0.6072 -0.1522 -0.3198
  115OSM   H16F12097   4.408   5.804   9.093  0.3844 -0.5943 -0.5106
  115OSM   H16G12098   4.462   5.634   9.150 -1.0081  0.1560 -0.0813
  115OSM   C17F12099   4.611   5.766   9.071  0.5938  0.0069 -0.6392
  115OSM   H17F12100   4.698   5.712   9.114  0.8091 -1.2326 -2.5121
  115OSM   H17G12101   4.650   5.870   9.062  0.0862  0.3519  0.9542
  115OSM   C18F12102   4.604   5.710   8.923 -0.1432  0.3316 -0.4049
  115OSM   H18F12103   4.690   5.744   8.861  1.1587 -0.4768  0.9124
  115OSM   H18G12104   4.501   5.723   8.882 -0.2509 -1.0704 -0.6453
  115OSM   H18H12105   4.625   5.601   8.923  1.1117  0.5576 -0.7658
  116OSM      N12106   0.126   2.027  11.097 -0.1144  0.3023  0.7451
  116OSM    C1512107   0.182   1.904  11.161 -0.0106 -0.0317  0.7880
  116OSM   H15A12108   0.251   1.861  11.090 -0.7708  1.4615 -0.9389
  116OSM   H15B12109   0.109   1.831  11.194  0.5659 -0.1413  1.8351
  116OSM   H15C12110   0.237   1.933  11.249 -0.0327  1.0815  0.4479
  116OSM    C1412111   0.043   1.981  10.983 -0.8489 -0.1379  0.4456
  116OSM   H14A12112  -0.040   1.916  11.006 -2.2381  1.6246  0.6276
  116OSM   H14B12113   0.111   1.934  10.913 -3.5058 -0.7188 -1.9284
  116OSM   H14C12114   0.002   2.065  10.930 -2.5534  0.2155  2.2453
  116OSM    C1312115   0.038   2.106  11.187  0.2940 -0.2667  0.0693
  116OSM   H13A12116   0.080   2.138  11.280 -0.4739 -0.5586  0.5278
  116OSM   H13B12117  -0.048   2.050  11.222  0.0717  0.6537  1.0311
  116OSM   H13C12118   0.009   2.201  11.145 -2.0001 -0.4748  1.0142
  116OSM    C1212119   0.234   2.119  11.036  1.2665  0.1310  0.3994
  116OSM   H12A12120   0.296   2.153  11.118  0.8454  1.6091  0.1231
  116OSM   H12B12121   0.177   2.198  10.991 -0.6333 -1.9152 -1.0191
  116OSM    C1112122   0.335   2.063  10.931 -0.5372  0.3628 -0.0683
  116OSM   H11A12123   0.404   2.148  10.908  0.4471  0.0279  1.5065
  116OSM   H11B12124   0.297   2.035  10.831  1.3426  1.9953 -1.3306
  116OSM      P12125   0.532   1.972  11.084 -0.4065 -0.2727 -0.3637
  116OSM    O1312126   0.489   2.059  11.194  0.0677  0.5439 -0.1914
  116OSM    O1412127   0.584   1.841  11.134 -0.0317  0.8308 -0.6780
  116OSM    O1112128   0.645   2.045  10.995  1.0911  0.1784  0.7388
  116OSM    O1212129   0.409   1.952  10.985 -0.2123 -0.1859 -0.2375
  116OSM    C1S12130   0.666   1.977  10.866  0.1737 -0.1558 -0.1061
  116OSM    H1S12131   0.577   1.933  10.818 -0.1058  1.5288 -1.1890
  116OSM    H1T12132   0.736   1.891  10.869  1.2550  0.7025 -0.0206
  116OSM     NF12133   0.718   2.028  10.618  0.0992 -0.1843  0.8075
  116OSM    HNF12134   0.814   2.009  10.599 -0.5274 -4.6664  1.0287
  116OSM    C2S12135   0.709   2.082  10.751  0.2884  0.2539 -0.8575
  116OSM    H2S12136   0.632   2.162  10.755 -0.7881 -0.7553 -0.4896
  116OSM    C3S12137   0.845   2.148  10.807 -0.5777  0.6602  0.1617
  116OSM    H3S12138   0.922   2.071  10.828 -2.2770 -1.8915 -2.2056
  116OSM     O312139   0.828   2.213  10.938 -0.1681 -0.1607  0.2216
  116OSM    HO312140   0.755   2.170  10.983  0.3776  0.4252  1.7296
  116OSM    C4S12141   0.885   2.258  10.718  0.0316 -0.2287 -0.6085
  116OSM    H4S12142   0.809   2.333  10.692  0.1762 -0.3957 -1.5675
  116OSM    C5S12143   1.002   2.260  10.646 -0.0998  0.4380  0.5733
  116OSM    H5S12144   1.080   2.183  10.657 -0.6913 -0.2280  0.2418
  116OSM    C6S12145   1.021   2.368  10.539  0.1317 -0.0414 -0.1752
  116OSM    H6S12146   1.087   2.453  10.566  0.0975 -0.2557  0.6012
  116OSM    H6T12147   0.928   2.428  10.530  0.5081  0.2580 -2.6892
  116OSM    C7S12148   1.054   2.316  10.403  0.7851  0.0836  0.3138
  116OSM    H7S12149   1.149   2.259  10.398 -0.1511 -1.5199 -0.4329
  116OSM    H7T12150   1.074   2.402  10.336  1.8122  0.1000  0.6347
  116OSM    C8S12151   0.951   2.216  10.348 -0.6597 -0.8676  0.4034
  116OSM    H8S12152   0.855   2.270  10.330 -0.1583 -0.2092 -0.3474
  116OSM    H8T12153   0.932   2.125  10.410 -1.2455 -0.4492  0.8609
  116OSM    C9S12154   1.002   2.158  10.210 -0.3046 -0.2055 -0.2674
  116OSM    H9S12155   0.923   2.086  10.181 -1.0936  0.2667  0.6769
  116OSM    H9T12156   1.095   2.101  10.229  1.9179  3.5513  1.1565
  116OSM   C10S12157   1.027   2.264  10.094  0.2744 -0.2053 -0.1011
  116OSM   H10S12158   1.097   2.345  10.122 -1.6217  1.0336  1.2746
  116OSM   H10T12159   0.931   2.312  10.065  1.7481  1.0758 -3.2268
  116OSM   C11S12160   1.085   2.203   9.963 -0.1270  0.3635 -0.5036
  116OSM   H11S12161   1.047   2.100   9.946 -3.0904  1.2387  0.1692
  116OSM   H11T12162   1.195   2.193   9.977 -0.2925 -1.1202 -0.1231
  116OSM   C12S12163   1.054   2.280   9.837  0.1793 -0.2670 -0.7310
  116OSM   H12S12164   1.088   2.385   9.851 -1.2621 -0.0566  1.7000
  116OSM   H12T12165   0.947   2.294   9.811 -1.1545 -2.8097  2.6808
  116OSM   C13S12166   1.118   2.224   9.711  0.3770 -0.0539 -0.7485
  116OSM   H13S12167   1.083   2.119   9.705  0.8292 -0.1931 -0.8994
  116OSM   H13T12168   1.227   2.232   9.732  0.2823  1.8815 -0.8075
  116OSM   C14S12169   1.077   2.297   9.585  0.3753  0.2119 -0.1635
  116OSM   H14S12170   1.114   2.402   9.580  0.5748  0.1220 -0.6394
  116OSM   H14T12171   0.967   2.295   9.577  0.2467  0.7416  1.1576
  116OSM   C15S12172   1.141   2.225   9.465  0.3989  0.2558  0.0113
  116OSM   H15S12173   1.109   2.119   9.465  2.3890 -0.4043 -1.3209
  116OSM   H15T12174   1.249   2.242   9.490  0.4351 -0.0689  0.0696
  116OSM   C16S12175   1.116   2.296   9.331  0.4405 -0.1915 -0.3328
  116OSM   H16S12176   1.150   2.402   9.333 -0.9286  0.2991 -1.2725
  116OSM   H16T12177   1.007   2.301   9.311  0.3197  0.6603  0.4601
  116OSM   C17S12178   1.171   2.226   9.206 -0.1391 -0.1474  0.0303
  116OSM   H17S12179   1.132   2.127   9.173 -2.0541  0.8807 -0.9133
  116OSM   H17T12180   1.275   2.204   9.241  0.5620  1.9490 -0.5834
  116OSM   C18S12181   1.160   2.305   9.074  0.0366 -0.1454 -0.2927
  116OSM   H18S12182   1.154   2.415   9.086  0.5751 -0.1182 -0.2354
  116OSM   H18T12183   1.068   2.276   9.018 -0.2300  2.8803 -1.6268
  116OSM   H18U12184   1.241   2.272   9.005 -0.6872 -1.2455 -0.6422
  116OSM    C1F12185   0.620   1.989  10.534  0.0771  0.5134  0.1415
  116OSM     OF12186   0.500   2.014  10.556 -0.2252 -0.3376 -0.1306
  116OSM    C2F12187   0.665   1.915  10.413  0.1628 -0.8138  0.2144
  116OSM    H2F12188   0.614   1.817  10.405 -0.1561 -0.7828  1.5350
  116OSM    H2G12189   0.775   1.899  10.418  0.7902  2.6810  0.1936
  116OSM    C3F12190   0.634   1.989  10.279  0.6885 -1.0136 -1.0616
  116OSM    H3F12191   0.672   2.094  10.288  2.4754 -1.7121  0.1551
  116OSM    H3G12192   0.523   1.997  10.273  0.6369 -1.2138 -0.4619
  116OSM    C4F12193   0.677   1.918  10.162  0.2704  0.3913  0.0515
  116OSM    H4F12194   0.700   1.811  10.184  1.4907  0.5868 -0.2168
  116OSM    H4G12195   0.776   1.961  10.137 -0.0964  0.9686 -0.4195
  116OSM    C5F12196   0.602   1.936  10.029  0.4074  0.2935 -0.2917
  116OSM    H5F12197   0.577   2.042  10.009 -0.1485  0.3246  0.5341
  116OSM    H5G12198   0.516   1.867  10.045  1.4636 -0.7051  1.3730
  116OSM    C6F12199   0.681   1.882   9.901 -0.0420  0.1342 -0.1404
  116OSM    H6F12200   0.718   1.783   9.933  0.6070  1.2400  2.8462
  116OSM    H6G12201   0.757   1.962   9.891 -1.0655  1.1347 -0.1679
  116OSM    C7F12202   0.598   1.878   9.777  0.0878 -0.3273  0.2398
  116OSM    H7F12203   0.561   1.982   9.763  0.3698  0.1967  2.9206
  116OSM    H7G12204   0.507   1.816   9.789 -1.1932  1.1221 -1.4246
  116OSM    C8F12205   0.652   1.839   9.637 -0.8867 -0.1097  0.2150
  116OSM    H8F12206   0.567   1.853   9.567  1.0193  1.5540 -1.9093
  116OSM    H8G12207   0.693   1.736   9.641 -0.1057  0.2300  2.2806
  116OSM    C9F12208   0.768   1.926   9.590  0.3641  0.2529  0.0700
  116OSM    H9F12209   0.832   1.955   9.675 -0.7113  2.8248  0.1158
  116OSM   C10F12210   0.788   1.971   9.462  0.2769 -0.5285 -0.0893
  116OSM   H10F12211   0.866   2.048   9.450 -0.0796 -0.1215  0.1964
  116OSM   C11F12212   0.696   1.939   9.345 -0.1058 -0.3086  0.1158
  116OSM   H11F12213   0.623   2.024   9.342 -0.5114 -0.3145  4.2254
  116OSM   H11G12214   0.651   1.838   9.352  2.5786 -1.6127 -0.4495
  116OSM   C12F12215   0.791   1.921   9.221  0.1563  0.2054  0.0115
  116OSM   H12F12216   0.853   1.833   9.249 -1.8065 -1.0322  0.6625
  116OSM   H12G12217   0.844   2.018   9.213 -0.6634  0.6813  0.1999
  116OSM   C13F12218   0.718   1.898   9.087  0.3059  0.3808 -0.5850
  116OSM   H13F12219   0.781   1.932   9.002  1.5725  0.4211  0.3388
  116OSM   H13G12220   0.626   1.961   9.089  0.8749  1.2042  0.9991
  116OSM   C14F12221   0.671   1.754   9.073 -0.8138 -0.1471  0.1510
  116OSM   H14F12222   0.602   1.719   9.154 -1.2785 -1.9417 -0.9638
  116OSM   H14G12223   0.768   1.701   9.084 -1.4801 -1.2221  1.1162
  116OSM   C15F12224   0.623   1.716   8.936  0.3906 -0.1254 -0.3283
  116OSM   H15F12225   0.524   1.761   8.913 -0.6366 -1.3847  1.4154
  116OSM   H15G12226   0.608   1.606   8.938 -1.6297  0.1188  0.7875
  116OSM   C16F12227   0.725   1.738   8.825 -0.4900 -0.5191  0.0427
  116OSM   H16F12228   0.814   1.682   8.858 -1.0745 -1.5708 -0.1326
  116OSM   H16G12229   0.758   1.842   8.805 -0.5503 -0.6605 -0.8306
  116OSM   C17F12230   0.671   1.680   8.689 -0.2560 -0.6355 -0.0617
  116OSM   H17F12231   0.639   1.574   8.704 -0.1002 -0.7495 -0.5236
  116OSM   H17G12232   0.751   1.687   8.612 -2.7226 -2.0103 -2.9447
  116OSM   C18F12233   0.545   1.759   8.631  0.2659  0.6455 -0.5933
  116OSM   H18F12234   0.457   1.733   8.693  1.3887  0.3688  0.9344
  116OSM   H18G12235   0.529   1.726   8.526  2.2198  1.0523 -1.0489
  116OSM   H18H12236   0.566   1.868   8.633 -0.3192  0.7618 -0.5601
  117OSM      N12237   0.155   4.134  11.187 -0.3385  0.3563  0.3485
  117OSM    C1512238   0.037   4.206  11.121 -0.7157  0.1216 -0.1973
  117OSM   H15A12239   0.062   4.225  11.018  0.3827 -1.3854 -0.2337
  117OSM   H15B12240   0.014   4.295  11.178 -0.4504 -0.0370  0.1609
  117OSM   H15C12241  -0.057   4.152  11.123 -0.5594 -0.1818  2.2603
  117OSM    C1412242   0.284   4.206  11.160 -0.8418  0.1543  0.4228
  117OSM   H14A12243   0.364   4.144  11.198 -1.7290 -1.2762  0.0369
  117OSM   H14B12244   0.281   4.306  11.200  3.9777  0.3753  0.8029
  117OSM   H14C12245   0.304   4.212  11.054 -2.0611 -0.8120  0.1123
  117OSM    C1312246   0.126   4.137  11.331 -0.2549  0.2266 -0.0287
  117OSM   H13A12247   0.199   4.079  11.385 -1.2147  0.0229  1.0890
  117OSM   H13B12248   0.031   4.092  11.355  0.8098 -1.6577  0.8553
  117OSM   H13C12249   0.139   4.236  11.372  0.0473 -0.8218  2.6149
  117OSM    C1212250   0.172   3.986  11.150  0.5671 -0.7935 -0.0624
  117OSM   H12A12251   0.180   3.975  11.043  0.2525  3.7807 -0.7378
  117OSM   H12B12252   0.079   3.934  11.172  0.5776  0.2941  3.1106
  117OSM    C1112253   0.294   3.909  11.212 -0.6670 -0.0606 -0.0685
  117OSM   H11A12254   0.283   3.799  11.217 -2.6284  0.1417  1.9498
  117OSM   H11B12255   0.289   3.940  11.318  3.0679  1.2402 -0.1388
  117OSM      P12256   0.497   3.876  11.050 -0.2567  0.3315 -0.1571
  117OSM    O1312257   0.628   3.945  11.043  0.1412  0.2607 -0.5126
  117OSM    O1412258   0.503   3.729  11.077  0.6276 -0.4626 -0.0384
  117OSM    O1112259   0.411   3.912  10.926  0.3984 -0.2910 -0.2404
  117OSM    O1212260   0.417   3.956  11.161 -0.5795 -0.3980 -0.0511
  117OSM    C1S12261   0.465   3.894  10.797  0.1918 -0.3607 -0.0595
  117OSM    H1S12262   0.475   3.786  10.770 -1.0754 -0.5802  0.2864
  117OSM    H1T12263   0.567   3.939  10.790  0.7059 -1.7383 -2.6146
  117OSM     NF12264   0.446   3.922  10.555  0.2127  0.8864 -0.8254
  117OSM    HNF12265   0.518   3.975  10.511  0.5858 -0.3088 -1.7039
  117OSM    C2S12266   0.391   3.965  10.685  0.4650  0.3512 -0.4395
  117OSM    H2S12267   0.285   3.931  10.689  0.2818  0.8745 -0.7745
  117OSM    C3S12268   0.386   4.109  10.693  0.1887 -1.1505 -0.5888
  117OSM    H3S12269   0.491   4.144  10.706 -0.0153 -0.8618  0.4079
  117OSM     O312270   0.335   4.150  10.820  0.6765 -0.1615  0.8397
  117OSM    HO312271   0.336   4.069  10.872 -0.7153 -0.0352  1.1136
  117OSM    C4S12272   0.302   4.168  10.593  0.0278  1.4836  0.0821
  117OSM    H4S12273   0.205   4.117  10.587  1.0219 -0.4565 -0.3998
  117OSM    C5S12274   0.334   4.255  10.491 -0.4227  0.5934  0.2523
  117OSM    H5S12275   0.440   4.285  10.479 -0.0084 -0.3588  1.4191
  117OSM    C6S12276   0.233   4.304  10.388  0.6119 -0.2311 -0.0983
  117OSM    H6S12277   0.246   4.413  10.370  0.2568 -0.1978 -0.1643
  117OSM    H6T12278   0.135   4.283  10.437  1.3046 -1.5453  0.7720
  117OSM    C7S12279   0.233   4.215  10.258  0.3262 -0.0817  0.3543
  117OSM    H7S12280   0.137   4.237  10.207 -0.7959 -2.3646  1.3677
  117OSM    H7T12281   0.239   4.110  10.294 -0.7360 -0.7466 -1.2949
  117OSM    C8S12282   0.347   4.235  10.151  1.0525 -0.6670 -0.9915
  117OSM    H8S12283   0.429   4.288  10.203  0.1895 -1.8585  1.7594
  117OSM    H8T12284   0.315   4.314  10.080 -0.5931  0.3572  0.7752
  117OSM    C9S12285   0.403   4.108  10.097  0.3075  0.3734  0.3725
  117OSM    H9S12286   0.404   4.030  10.176  0.6068 -0.9175 -0.8622
  117OSM    H9T12287   0.506   4.125  10.061 -0.4409  1.3054 -1.4770
  117OSM   C10S12288   0.319   4.048   9.972  0.4900  0.1282  0.0711
  117OSM   H10S12289   0.213   4.052  10.004  0.7860  2.2197  0.9532
  117OSM   H10T12290   0.351   3.944   9.954  0.7140  0.2224 -0.0762
  117OSM   C11S12291   0.336   4.131   9.843 -0.0239 -0.6335  0.2222
  117OSM   H11S12292   0.439   4.171   9.835  0.9755 -3.0397  0.3151
  117OSM   H11T12293   0.272   4.221   9.833 -1.8691 -2.0944 -2.2788
  117OSM   C12S12294   0.316   4.046   9.716  0.1754 -0.2920 -0.4240
  117OSM   H12S12295   0.226   3.983   9.724  0.0154  0.0008  0.1873
  117OSM   H12T12296   0.400   3.973   9.712 -0.1127 -0.5580 -2.0449
  117OSM   C13S12297   0.310   4.124   9.583 -0.0200 -0.4597  0.0831
  117OSM   H13S12298   0.400   4.187   9.568  0.3197 -0.9122  0.1934
  117OSM   H13T12299   0.220   4.188   9.594 -2.0446 -2.9340 -0.8873
  117OSM   C14S12300   0.291   4.027   9.466  0.0032  0.3607 -0.0472
  117OSM   H14S12301   0.191   3.980   9.458  0.6898 -1.0035 -1.0913
  117OSM   H14T12302   0.361   3.941   9.480  0.2294  0.4970 -0.3293
  117OSM   C15S12303   0.331   4.094   9.339 -0.6522 -0.1246 -0.6776
  117OSM   H15S12304   0.434   4.123   9.370 -1.6676  0.0935  2.8409
  117OSM   H15T12305   0.273   4.186   9.319 -2.0809 -1.1083 -1.2120
  117OSM   C16S12306   0.324   3.991   9.228  0.0763 -0.3388  0.3828
  117OSM   H16S12307   0.220   3.961   9.203  1.0535 -0.3598 -4.8723
  117OSM   H16T12308   0.372   3.896   9.263  0.0939 -0.2528  0.5926
  117OSM   C17S12309   0.368   4.046   9.096 -0.4312 -0.3789 -0.4372
  117OSM   H17S12310   0.321   4.146   9.086  1.8829  0.7442 -0.7189
  117OSM   H17T12311   0.341   3.988   9.004 -1.0372 -0.7547 -0.0300
  117OSM   C18S12312   0.519   4.054   9.096  0.0472 -0.6370 -0.1078
  117OSM   H18S12313   0.570   4.079   9.001  1.6642 -2.2865  0.2817
  117OSM   H18T12314   0.557   3.950   9.106 -0.2644 -0.6595  0.9311
  117OSM   H18U12315   0.560   4.116   9.178 -0.2815 -2.4032  1.4596
  117OSM    C1F12316   0.415   3.804  10.499 -0.0344  0.2869 -0.0850
  117OSM     OF12317   0.325   3.736  10.547  0.1244  0.2559  0.1891
  117OSM    C2F12318   0.491   3.775  10.368  0.7283 -0.2555  0.2585
  117OSM    H2F12319   0.567   3.701  10.399 -2.0803 -3.5857 -0.2552
  117OSM    H2G12320   0.535   3.874  10.342 -1.6581  0.4393 -1.5253
  117OSM    C3F12321   0.391   3.713  10.265 -0.5067  0.2670  0.2951
  117OSM    H3F12322   0.303   3.781  10.269  0.9870  2.4910 -1.5939
  117OSM    H3G12323   0.346   3.618  10.300 -1.4011  0.7252  0.4198
  117OSM    C4F12324   0.464   3.698  10.130 -0.4449 -0.3006 -0.4694
  117OSM    H4F12325   0.523   3.605  10.146  0.9626  0.7102  0.5133
  117OSM    H4G12326   0.529   3.784  10.102  0.0705 -0.0319  1.3949
  117OSM    C5F12327   0.370   3.678  10.009  0.4950  0.2320 -0.1815
  117OSM    H5F12328   0.289   3.753  10.012 -0.3868 -0.6895 -0.2245
  117OSM    H5G12329   0.337   3.572  10.022  1.2823  0.1820  1.9172
  117OSM    C6F12330   0.451   3.691   9.878  0.0849  0.1164  0.2291
  117OSM    H6F12331   0.541   3.627   9.894 -0.2235 -1.3317 -2.9525
  117OSM    H6G12332   0.480   3.797   9.862  1.1798 -0.1939  0.0740
  117OSM    C7F12333   0.380   3.644   9.750 -0.1509  0.1215  0.2765
  117OSM    H7F12334   0.298   3.715   9.724 -0.4958 -0.9127 -1.7253
  117OSM    H7G12335   0.327   3.549   9.770  2.1812 -1.8370 -2.0616
  117OSM    C8F12336   0.474   3.612   9.630  0.7493 -0.2855 -0.2405
  117OSM    H8F12337   0.422   3.551   9.553  3.5127 -1.6518 -1.1480
  117OSM    H8G12338   0.548   3.541   9.672  1.0361  0.1658  0.0372
  117OSM    C9F12339   0.544   3.734   9.568 -0.8801  0.4449 -0.5253
  117OSM    H9F12340   0.562   3.825   9.627  0.0231 -1.2716  1.9870
  117OSM   C10F12341   0.600   3.733   9.448  0.2241  0.2118  0.3011
  117OSM   H10F12342   0.638   3.824   9.400  1.0801 -0.7098 -0.8302
  117OSM   C11F12343   0.592   3.622   9.352  0.8471 -0.4868  0.1790
  117OSM   H11F12344   0.533   3.535   9.387 -1.5327  2.1988  3.5089
  117OSM   H11G12345   0.692   3.579   9.328 -0.4191 -2.5333 -1.7818
  117OSM   C12F12346   0.538   3.675   9.211  0.2396  0.6117  0.7879
  117OSM   H12F12347   0.595   3.765   9.180 -2.2542  1.4100 -1.9534
  117OSM   H12G12348   0.431   3.703   9.223 -0.5310 -0.1592 -2.9569
  117OSM   C13F12349   0.528   3.575   9.099 -0.3039  1.1016  0.2340
  117OSM   H13F12350   0.510   3.642   9.012 -0.1299 -0.9457 -1.4903
  117OSM   H13G12351   0.442   3.506   9.111 -1.1669  2.4707  2.4195
  117OSM   C14F12352   0.650   3.483   9.068  0.1258 -0.1295  0.0963
  117OSM   H14F12353   0.661   3.398   9.140 -0.3291 -1.1164 -0.9666
  117OSM   H14G12354   0.735   3.553   9.080  1.4053 -1.6842  0.5846
  117OSM   C15F12355   0.625   3.433   8.928  0.0306  0.6932  0.1707
  117OSM   H15F12356   0.603   3.518   8.860  0.1584  1.8136  1.4646
  117OSM   H15G12357   0.543   3.359   8.940 -0.0042  0.0084 -3.3422
  117OSM   C16F12358   0.744   3.358   8.870 -0.3373  0.3078  0.6656
  117OSM   H16F12359   0.773   3.277   8.941 -0.3804 -0.8842 -0.6266
  117OSM   H16G12360   0.828   3.431   8.870  1.2242 -1.4005 -0.4008
  117OSM   C17F12361   0.745   3.293   8.734 -0.0892  0.3960 -0.0655
  117OSM   H17F12362   0.738   3.371   8.654  0.4202  1.1613  0.6111
  117OSM   H17G12363   0.658   3.226   8.726  0.5230 -0.4308  0.0941
  117OSM   C18F12364   0.875   3.211   8.716 -0.1971 -0.3475 -0.7866
  117OSM   H18F12365   0.893   3.124   8.784  0.2414  1.4934  1.6060
  117OSM   H18G12366   0.956   3.287   8.727  0.8391 -1.3204 -1.3989
  117OSM   H18H12367   0.883   3.166   8.615  2.7437 -1.8285 -0.0101
  118OSM      N12368   0.117   5.050  11.218  0.1746 -0.4465 -0.0974
  118OSM    C1512369   0.224   5.101  11.126  0.3572 -0.2282 -0.4354
  118OSM   H15A12370   0.190   5.083  11.025 -3.5755 -0.7648  0.8006
  118OSM   H15B12371   0.305   5.030  11.135  1.1096  0.6670 -0.0211
  118OSM   H15C12372   0.258   5.200  11.153 -2.8739  0.5675  1.1975
  118OSM    C1412373   0.174   5.050  11.349 -0.3040  0.8646 -0.1155
  118OSM   H14A12374   0.188   5.150  11.389  1.5580  1.2016 -1.4693
  118OSM   H14B12375   0.270   5.002  11.351 -1.2033 -0.9971  0.1980
  118OSM   H14C12376   0.115   5.006  11.428  1.7231  0.4454  1.2449
  118OSM    C1312377  -0.011   5.136  11.215  0.1064  0.4008 -0.0525
  118OSM   H13A12378   0.005   5.241  11.232 -2.5402  0.6743  1.3638
  118OSM   H13B12379  -0.074   5.110  11.299  1.1402 -0.3830  0.5108
  118OSM   H13C12380  -0.065   5.123  11.122  0.0487 -0.8182  0.1241
  118OSM    C1212381   0.087   4.905  11.185  0.2262  0.5399 -0.7465
  118OSM   H12A12382   0.010   4.866  11.250 -0.1181 -1.9605 -2.5142
  118OSM   H12B12383   0.176   4.848  11.205  0.5137  0.9121 -0.9437
  118OSM    C1112384   0.043   4.874  11.036  0.1937 -0.1138 -0.0275
  118OSM   H11A12385   0.025   4.767  11.012 -3.1405  0.4495 -0.5122
  118OSM   H11B12386   0.133   4.889  10.973  1.8392 -0.3868  2.1374
  118OSM      P12387  -0.211   4.910  11.005  0.0317  0.0415  0.4271
  118OSM    O1312388  -0.220   4.792  11.100 -0.3289 -0.0484  0.0005
  118OSM    O1412389  -0.291   5.027  11.035  0.2784  0.3316  0.1006
  118OSM    O1112390  -0.241   4.868  10.855  0.3778  0.6346  0.1835
  118OSM    O1212391  -0.063   4.956  10.997  0.1862  0.2803  0.6553
  118OSM    C1S12392  -0.151   4.904  10.751 -0.5551  0.9625  0.2288
  118OSM    H1S12393  -0.072   4.826  10.751 -2.0118 -0.6985 -2.8195
  118OSM    H1T12394  -0.098   5.001  10.759  1.7387 -0.2950  1.1656
  118OSM     NF12395  -0.118   4.911  10.512 -0.2092 -0.7006  0.1290
  118OSM    HNF12396  -0.131   4.996  10.462  1.7882 -0.7464 -0.5424
  118OSM    C2S12397  -0.217   4.887  10.610  0.3470  0.0870 -0.0022
  118OSM    H2S12398  -0.257   4.784  10.598  1.8414 -0.2938 -2.2929
  118OSM    C3S12399  -0.335   4.986  10.601 -0.2978  0.1154  0.4480
  118OSM    H3S12400  -0.296   5.090  10.608  1.5523 -0.6465  2.1458
  118OSM     O312401  -0.423   4.968  10.711 -0.2434 -0.5938  0.1670
  118OSM    HO312402  -0.373   4.904  10.762 -1.5801 -1.4353  0.4932
  118OSM    C4S12403  -0.411   4.984  10.466 -0.6695  0.9805  0.8687
  118OSM    H4S12404  -0.387   5.073  10.407  0.1854 -1.2704 -2.4752
  118OSM    C5S12405  -0.508   4.901  10.412  0.2997  0.3789 -0.4546
  118OSM    H5S12406  -0.546   4.818  10.473  1.9731 -0.7304 -0.8349
  118OSM    C6S12407  -0.568   4.920  10.278 -0.1566  0.8721  0.4053
  118OSM    H6S12408  -0.671   4.961  10.274 -1.7956 -2.8104  0.8407
  118OSM    H6T12409  -0.570   4.819  10.231  2.6619 -0.1877  2.2907
  118OSM    C7S12410  -0.474   5.007  10.179  0.2114  0.0403 -0.0381
  118OSM    H7S12411  -0.368   4.977  10.181 -0.3763 -2.1897  0.0229
  118OSM    H7T12412  -0.466   5.115  10.204 -0.3963  0.2512 -0.7179
  118OSM    C8S12413  -0.516   4.997  10.033  0.1536 -0.3663 -0.8010
  118OSM    H8S12414  -0.616   5.044  10.039  1.0801  1.5780  3.4270
  118OSM    H8T12415  -0.516   4.889  10.005  2.6335 -1.8510  3.7792
  118OSM    C9S12416  -0.445   5.087   9.933  0.0069 -0.3528  0.3025
  118OSM    H9S12417  -0.339   5.056   9.917  0.2998  1.3908 -1.5900
  118OSM    H9T12418  -0.440   5.192   9.969  0.0881 -0.7326  1.4267
  118OSM   C10S12419  -0.505   5.081   9.789 -0.0552  0.3843  0.1264
  118OSM   H10S12420  -0.583   5.160   9.786  1.5130  2.1223  1.7752
  118OSM   H10T12421  -0.547   4.978   9.792  0.8985  0.0012  2.0382
  118OSM   C11S12422  -0.394   5.095   9.678  0.3405 -0.0083  0.8540
  118OSM   H11S12423  -0.304   5.037   9.706  1.1926  1.2352  0.7957
  118OSM   H11T12424  -0.339   5.192   9.683  1.6766 -0.6817 -0.2350
  118OSM   C12S12425  -0.442   5.049   9.543 -0.0621 -1.2808  0.5376
  118OSM   H12S12426  -0.506   4.959   9.555 -1.1604 -0.5152  0.5779
  118OSM   H12T12427  -0.354   5.017   9.483  1.8372  0.7940  2.0362
  118OSM   C13S12428  -0.527   5.148   9.456 -0.4551 -0.6032  0.6013
  118OSM   H13S12429  -0.476   5.246   9.468 -0.8977 -0.3943  0.7912
  118OSM   H13T12430  -0.635   5.149   9.481 -0.4585 -4.5412  1.3544
  118OSM   C14S12431  -0.530   5.108   9.305 -0.7565  0.1615  0.1325
  118OSM   H14S12432  -0.627   5.138   9.259  0.3657  0.9448 -1.8960
  118OSM   H14T12433  -0.521   4.998   9.299 -0.2410  0.2582 -1.3316
  118OSM   C15S12434  -0.418   5.180   9.231 -0.0181 -0.4914  0.6451
  118OSM   H15S12435  -0.321   5.157   9.279  0.6260 -1.2511 -0.9402
  118OSM   H15T12436  -0.421   5.291   9.242  2.9409 -0.2722  0.0565
  118OSM   C16S12437  -0.411   5.153   9.078  0.8315  0.3537 -0.0680
  118OSM   H16S12438  -0.493   5.215   9.038  1.7116  1.5209 -0.1066
  118OSM   H16T12439  -0.425   5.043   9.071  0.0023  0.5308 -1.7337
  118OSM   C17S12440  -0.278   5.195   9.036 -0.3947  0.1515  0.0479
  118OSM   H17S12441  -0.199   5.151   9.100  1.0655  3.1924  0.4989
  118OSM   H17T12442  -0.272   5.306   9.040 -1.6649  0.2610 -0.4721
  118OSM   C18S12443  -0.243   5.159   8.890 -0.0479  0.0350  0.7162
  118OSM   H18S12444  -0.145   5.199   8.857 -1.1571  2.1102 -0.2146
  118OSM   H18T12445  -0.320   5.207   8.826 -0.0239 -0.6892  0.1222
  118OSM   H18U12446  -0.244   5.049   8.869 -1.8573  0.0690  0.4234
  118OSM    C1F12447  -0.022   4.827  10.484 -0.1441  0.5810  0.0992
  118OSM     OF12448  -0.002   4.722  10.546  0.1904 -0.2826  0.2130
  118OSM    C2F12449   0.071   4.866  10.370  0.2573  0.0736 -0.0174
  118OSM    H2F12450   0.171   4.894  10.407 -0.3877  0.9926  1.0852
  118OSM    H2G12451   0.029   4.947  10.306 -0.0779 -0.4555 -0.4809
  118OSM    C3F12452   0.080   4.769  10.257 -0.5026  0.7366  0.3387
  118OSM    H3F12453   0.133   4.680  10.300  0.4547  1.4994  0.7776
  118OSM    H3G12454   0.152   4.807  10.181  0.4515 -0.0589  0.8109
  118OSM    C4F12455  -0.046   4.716  10.186  0.0430 -0.0760  0.3038
  118OSM    H4F12456  -0.107   4.676  10.270  0.4948 -1.0420  0.1890
  118OSM    H4G12457  -0.018   4.630  10.121  0.4272 -0.0066  0.3742
  118OSM    C5F12458  -0.113   4.820  10.103 -0.3350  0.1872  0.1665
  118OSM    H5F12459  -0.054   4.850  10.014  1.1271 -2.2440  0.2410
  118OSM    H5G12460  -0.127   4.910  10.168  2.3589 -0.0241  1.1492
  118OSM    C6F12461  -0.243   4.765  10.028  0.2724 -0.7055 -0.4974
  118OSM    H6F12462  -0.299   4.847   9.980  0.6199 -1.0883 -1.5954
  118OSM    H6G12463  -0.306   4.716  10.105 -1.3333  0.5121 -0.9938
  118OSM    C7F12464  -0.205   4.662   9.925  0.6288  0.5922  0.8552
  118OSM    H7F12465  -0.273   4.574   9.926  1.8143 -0.3828  0.0680
  118OSM    H7G12466  -0.108   4.610   9.942  0.2031 -1.0196 -1.2323
  118OSM    C8F12467  -0.221   4.711   9.780 -0.0611 -0.1641 -0.2552
  118OSM    H8F12468  -0.149   4.795   9.776 -1.9303  1.5350  0.2895
  118OSM    H8G12469  -0.319   4.759   9.761  0.1305  0.1905 -0.3549
  118OSM    C9F12470  -0.189   4.614   9.673 -0.5261  0.3648  0.0767
  118OSM    H9F12471  -0.194   4.512   9.716 -2.4920  0.7359  0.8193
  118OSM   C10F12472  -0.184   4.638   9.544 -0.6997  0.4363  0.4915
  118OSM   H10F12473  -0.172   4.554   9.474  2.0227 -0.6387  2.0766
  118OSM   C11F12474  -0.205   4.774   9.487  0.1234 -0.0918  1.1713
  118OSM   H11F12475  -0.189   4.855   9.562  1.1415 -1.0014  1.9575
  118OSM   H11G12476  -0.313   4.783   9.461 -0.0069  0.5702  1.9219
  118OSM   C12F12477  -0.129   4.808   9.356 -0.3098 -0.3584  0.4709
  118OSM   H12F12478  -0.022   4.793   9.383 -0.1689  0.7652  0.5510
  118OSM   H12G12479  -0.149   4.915   9.337  2.2879  0.2375  0.6868
  118OSM   C13F12480  -0.177   4.726   9.236 -0.5212  0.5285  0.1764
  118OSM   H13F12481  -0.288   4.721   9.240 -0.5142  1.0303  3.0120
  118OSM   H13G12482  -0.150   4.620   9.255 -2.2267 -0.1670 -1.0639
  118OSM   C14F12483  -0.117   4.778   9.105 -0.2651  0.4089 -0.0159
  118OSM   H14F12484  -0.011   4.813   9.114 -0.0510 -0.1187 -0.4312
  118OSM   H14G12485  -0.177   4.864   9.070  0.5896  0.8601 -0.4116
  118OSM   C15F12486  -0.130   4.669   9.000 -0.3335 -0.4850  0.0072
  118OSM   H15F12487  -0.228   4.624   8.973 -0.5160 -0.2373  0.2445
  118OSM   H15G12488  -0.068   4.582   9.031 -2.2078 -1.7999  0.2494
  118OSM   C16F12489  -0.093   4.717   8.866  0.1106 -0.3214  0.0392
  118OSM   H16F12490  -0.014   4.793   8.886 -1.0485  0.6415  1.1416
  118OSM   H16G12491  -0.168   4.780   8.813  0.0420 -0.8232 -0.4676
  118OSM   C17F12492  -0.046   4.608   8.764  0.3960 -0.1369 -0.2835
  118OSM   H17F12493  -0.133   4.539   8.759 -0.5632  0.9448  0.8062
  118OSM   H17G12494   0.033   4.551   8.817  0.4835  2.0285  2.1221
  118OSM   C18F12495   0.010   4.667   8.633  0.3069  0.7769  0.6366
  118OSM   H18F12496  -0.072   4.727   8.587  0.9677  0.2707 -1.2835
  118OSM   H18G12497   0.028   4.582   8.564 -1.6881  1.6842 -1.1593
  118OSM   H18H12498   0.106   4.722   8.638  1.2062 -0.7583  0.7492
  119OSM      N12499   0.715   5.218  11.065 -0.6337  0.2347 -0.8511
  119OSM    C1512500   0.743   5.362  11.103 -0.4010 -0.2903  0.3998
  119OSM   H15A12501   0.849   5.379  11.097 -0.1277 -2.0135 -0.3137
  119OSM   H15B12502   0.697   5.389  11.198  1.4230  2.7904  0.5400
  119OSM   H15C12503   0.694   5.427  11.032 -0.9873 -0.8130  0.3111
  119OSM    C1412504   0.688   5.148  11.188 -0.4102 -0.0782 -0.3087
  119OSM   H14A12505   0.596   5.166  11.241  1.5378  0.6022  3.1302
  119OSM   H14B12506   0.769   5.172  11.255 -1.2879  0.7389  0.4844
  119OSM   H14C12507   0.693   5.043  11.162  1.9434 -0.2519  0.6436
  119OSM    C1312508   0.595   5.214  10.977  0.5270 -0.0786 -0.5604
  119OSM   H13A12509   0.623   5.255  10.881 -0.2436  2.5861  0.2708
  119OSM   H13B12510   0.512   5.264  11.025  0.0597 -1.2102 -0.1506
  119OSM   H13C12511   0.568   5.112  10.954  0.9797  0.3809 -3.4700
  119OSM    C1212512   0.840   5.159  11.002  0.2086 -0.3870 -0.9502
  119OSM   H12A12513   0.925   5.182  11.064 -0.6258  2.4076 -0.7107
  119OSM   H12B12514   0.857   5.210  10.908 -0.5732 -0.4140 -1.1165
  119OSM    C1112515   0.836   5.006  10.962 -0.2664 -0.7746  0.8159
  119OSM   H11A12516   0.899   4.994  10.871 -2.6399 -1.8333 -0.7817
  119OSM   H11B12517   0.731   4.980  10.937 -1.3503  0.4513  3.6781
  119OSM      P12518   1.030   4.889  11.095  0.3176 -0.1574 -0.4560
  119OSM    O1312519   1.083   4.972  11.207  0.3931 -0.1854  0.6147
  119OSM    O1412520   1.036   4.747  11.110 -0.0188  0.1940 -0.6014
  119OSM    O1112521   1.122   4.934  10.973  0.1223  0.6252 -0.4408
  119OSM    O1212522   0.880   4.925  11.065 -0.1201  0.2919  0.6018
  119OSM    C1S12523   1.126   4.859  10.855 -0.2669  0.2306 -0.2663
  119OSM    H1S12524   1.038   4.792  10.842  0.5484 -0.5560 -2.1900
  119OSM    H1T12525   1.217   4.796  10.867 -0.8491 -0.4081  1.0126
  119OSM     NF12526   1.177   4.865  10.611  0.4402 -0.1392 -0.7377
  119OSM    HNF12527   1.272   4.852  10.584  0.1101 -2.0597 -1.0893
  119OSM    C2S12528   1.161   4.946  10.725  0.2337 -0.2075 -0.5049
  119OSM    H2S12529   1.073   5.014  10.715 -1.0387 -1.2802  2.3313
  119OSM    C3S12530   1.284   5.037  10.751  0.4948  0.2839 -0.4615
  119OSM    H3S12531   1.370   4.980  10.794  1.2009  1.3171 -0.4539
  119OSM     O312532   1.265   5.142  10.840 -0.0685 -0.0225  0.1850
  119OSM    HO312533   1.184   5.118  10.886  0.1193  0.5890  0.8421
  119OSM    C4S12534   1.339   5.092  10.622 -0.3339 -0.2738 -0.6640
  119OSM    H4S12535   1.264   5.122  10.547  1.3705  1.9457 -1.5929
  119OSM    C5S12536   1.464   5.085  10.567  0.0343 -0.3262  0.5170
  119OSM    H5S12537   1.540   5.027  10.622  0.6392 -0.0371 -0.0127
  119OSM    C6S12538   1.499   5.132  10.427 -0.1806 -0.0296  0.8254
  119OSM    H6S12539   1.599   5.097  10.392 -0.4569  0.6920 -0.7597
  119OSM    H6T12540   1.507   5.243  10.432  2.7161 -0.0661 -0.6904
  119OSM    C7S12541   1.401   5.099  10.312  0.8194 -0.5188 -0.3670
  119OSM    H7S12542   1.420   5.183  10.242  1.7794  0.1226  0.6239
  119OSM    H7T12543   1.299   5.108  10.353  0.7084  0.7182 -0.8760
  119OSM    C8S12544   1.447   4.965  10.247 -0.6828 -0.5653  0.5915
  119OSM    H8S12545   1.469   4.884  10.320  0.3623 -0.9973 -0.1715
  119OSM    H8T12546   1.548   4.980  10.201  0.7383 -3.1696  2.5668
  119OSM    C9S12547   1.352   4.914  10.144  0.1224  0.3227 -0.9216
  119OSM    H9S12548   1.303   4.986  10.075  0.4611  1.3507 -0.1196
  119OSM    H9T12549   1.278   4.848  10.194  1.6506 -1.2848 -0.6977
  119OSM   C10S12550   1.420   4.809  10.054 -0.1332 -0.4091 -0.1195
  119OSM   H10S12551   1.462   4.729  10.118  1.9638  1.4081  0.8991
  119OSM   H10T12552   1.499   4.878  10.019 -1.5686  0.8851 -0.9797
  119OSM   C11S12553   1.324   4.766   9.940  0.1307 -0.4474  0.2111
  119OSM   H11S12554   1.225   4.812   9.963  0.5486 -0.3376  1.9176
  119OSM   H11T12555   1.314   4.656   9.943 -0.4515 -0.3739  1.3073
  119OSM   C12S12556   1.380   4.808   9.798 -0.2027  0.0274 -0.5928
  119OSM   H12S12557   1.475   4.758   9.767 -1.5528 -1.6186 -2.3384
  119OSM   H12T12558   1.387   4.918   9.802 -0.7095  0.0213  1.0337
  119OSM   C13S12559   1.290   4.769   9.680  0.4804 -0.5876  0.8681
  119OSM   H13S12560   1.182   4.788   9.698  0.3585 -1.4352  1.0737
  119OSM   H13T12561   1.294   4.659   9.666 -2.6011 -0.5633 -1.0224
  119OSM   C14S12562   1.304   4.869   9.560 -0.2437  0.1711  0.0819
  119OSM   H14S12563   1.296   4.974   9.595 -0.7093 -0.0418  0.6260
  119OSM   H14T12564   1.223   4.843   9.489 -0.7461 -1.0107  1.0463
  119OSM   C15S12565   1.439   4.844   9.488  0.4699 -0.3053  0.2285
  119OSM   H15S12566   1.463   4.735   9.490  3.6071  0.1939 -2.0556
  119OSM   H15T12567   1.509   4.889   9.562  0.9087  0.8731 -0.8716
  119OSM   C16S12568   1.442   4.911   9.353  1.2767  0.6577 -0.2187
  119OSM   H16S12569   1.546   4.935   9.322  2.1917 -1.0254  1.3309
  119OSM   H16T12570   1.385   5.006   9.350  1.2975  0.7041  0.5297
  119OSM   C17S12571   1.367   4.819   9.251 -0.1499  0.2362 -0.4539
  119OSM   H17S12572   1.272   4.779   9.292  0.8449 -3.0984 -1.0517
  119OSM   H17T12573   1.422   4.723   9.244  0.2631  0.4301  0.1240
  119OSM   C18S12574   1.334   4.883   9.116 -0.1033  0.0596  0.4929
  119OSM   H18S12575   1.277   4.813   9.052  0.9538  0.8909 -1.4117
  119OSM   H18T12576   1.425   4.906   9.057 -0.8054  0.9656 -0.2734
  119OSM   H18U12577   1.270   4.974   9.112  0.4468  0.3901 -1.7210
  119OSM    C1F12578   1.077   4.796  10.557  0.3182 -0.0172  0.2436
  119OSM     OF12579   0.970   4.801  10.615 -0.3297 -0.0787 -0.4187
  119OSM    C2F12580   1.101   4.718  10.434  0.0342 -0.3698  0.1168
  119OSM    H2F12581   1.116   4.610  10.458  1.1180 -1.0823 -3.2280
  119OSM    H2G12582   1.197   4.758  10.395  0.8741 -2.1871  0.1979
  119OSM    C3F12583   0.988   4.734  10.328 -0.0521 -0.3565 -0.0030
  119OSM    H3F12584   0.979   4.841  10.302  0.2382  0.3689  2.5594
  119OSM    H3G12585   0.891   4.687  10.357 -0.5300  0.4600 -0.2613
  119OSM    C4F12586   1.030   4.663  10.199  0.3120  0.1080 -0.5288
  119OSM    H4F12587   1.051   4.559  10.232 -0.5329 -0.0766 -0.5601
  119OSM    H4G12588   1.120   4.713  10.156  0.7110 -0.7030 -0.6587
  119OSM    C5F12589   0.919   4.660  10.095  0.1363  0.1696 -0.0314
  119OSM    H5F12590   0.833   4.610  10.146 -0.1597  0.4474 -0.2480
  119OSM    H5G12591   0.953   4.599  10.009 -0.3873 -2.7098  1.6628
  119OSM    C6F12592   0.864   4.799  10.043  0.2742  0.2669  0.5805
  119OSM    H6F12593   0.956   4.839   9.995 -0.5257  2.8163  1.0252
  119OSM    H6G12594   0.831   4.863  10.128 -0.8456  2.0647 -1.1211
  119OSM    C7F12595   0.747   4.792   9.938 -0.5380 -0.2954  0.0417
  119OSM    H7F12596   0.690   4.887   9.949  2.6922  1.5975  2.0430
  119OSM    H7G12597   0.676   4.719   9.983  0.0809 -1.2137 -0.4560
  119OSM    C8F12598   0.798   4.755   9.798  0.0493  0.1860 -0.1469
  119OSM    H8F12599   0.847   4.656   9.810 -2.4454 -1.2663 -1.2454
  119OSM    H8G12600   0.881   4.826   9.777  1.0734 -1.2136 -0.9853
  119OSM    C9F12601   0.699   4.736   9.689  0.1511  0.7574 -0.2157
  119OSM    H9F12602   0.595   4.758   9.719 -0.2562 -2.8887  1.5989
  119OSM   C10F12603   0.736   4.698   9.564  0.4978  0.2473 -0.5753
  119OSM   H10F12604   0.656   4.669   9.494  1.2005 -3.0375 -0.1885
  119OSM   C11F12605   0.879   4.680   9.517 -0.5706  0.4462  0.5889
  119OSM   H11F12606   0.953   4.698   9.597 -0.0277 -0.2026  0.2403
  119OSM   H11G12607   0.895   4.748   9.431 -0.1031  2.3293  2.0932
  119OSM   C12F12608   0.902   4.537   9.469 -0.3630  0.7504  0.8874
  119OSM   H12F12609   0.809   4.493   9.427 -0.7974  0.2795  2.2720
  119OSM   H12G12610   0.927   4.476   9.559 -0.9497  0.0152  0.5631
  119OSM   C13F12611   1.020   4.533   9.362 -0.3896  0.5730 -0.5863
  119OSM   H13F12612   1.064   4.431   9.360 -0.6606  0.3489  1.7759
  119OSM   H13G12613   1.101   4.603   9.394 -1.7284  1.5319  0.8504
  119OSM   C14F12614   0.981   4.573   9.215 -0.3906 -0.3906  0.5869
  119OSM   H14F12615   0.987   4.681   9.192  3.2850 -1.2550 -3.8670
  119OSM   H14G12616   0.873   4.545   9.206 -1.4089  2.7172  1.9400
  119OSM   C15F12617   1.061   4.500   9.110  0.4130 -0.7409 -0.2429
  119OSM   H15F12618   1.057   4.391   9.134 -0.5192 -0.6870 -0.1313
  119OSM   H15G12619   1.165   4.534   9.128 -0.4165  1.5553  0.4625
  119OSM   C16F12620   1.009   4.522   8.969 -0.2689 -0.3112  0.3094
  119OSM   H16F12621   1.002   4.632   8.956  0.6890 -0.0648  1.7108
  119OSM   H16G12622   0.912   4.469   8.958 -0.6000 -0.0540  1.7595
  119OSM   C17F12623   1.085   4.449   8.859 -0.6595  0.7861 -0.7130
  119OSM   H17F12624   1.086   4.340   8.882 -0.0092  1.3325  2.3426
  119OSM   H17G12625   1.192   4.473   8.881 -0.6823  0.6444 -0.4439
  119OSM   C18F12626   1.045   4.471   8.711 -0.8831  0.0876 -0.5879
  119OSM   H18F12627   1.117   4.419   8.645  0.6440 -1.2335  1.9501
  119OSM   H18G12628   1.059   4.577   8.679  1.9676  0.0191  0.1386
  119OSM   H18H12629   0.943   4.428   8.702 -1.0709  0.6155 -1.0272
  120OSM      N12630   4.904   0.807  10.799  0.0378  0.1487 -0.2558
  120OSM    C1512631   5.023   0.885  10.753  0.2300 -1.2149 -0.0537
  120OSM   H15A12632   5.040   0.974  10.813 -2.6144  2.2840 -3.7936
  120OSM   H15B12633   5.012   0.935  10.658  3.3121 -0.9019 -0.3588
  120OSM   H15C12634   5.113   0.827  10.737  0.5837 -0.7748  0.2793
  120OSM    C1412635   4.869   0.699  10.706  0.5244  0.3063  0.1594
  120OSM   H14A12636   4.805   0.737  10.627  0.0536  0.9253  0.8242
  120OSM   H14B12637   4.805   0.623  10.748  0.4247  1.4427  2.2356
  120OSM   H14C12638   4.958   0.648  10.674 -0.4173 -2.2137  1.3062
  120OSM    C1312639   4.936   0.755  10.930 -0.4757 -0.4589  0.2314
  120OSM   H13A12640   4.854   0.696  10.968  1.1812 -2.7356  0.4710
  120OSM   H13B12641   4.950   0.834  11.002  0.4567 -0.1425 -0.2643
  120OSM   H13C12642   5.018   0.685  10.932  2.0071  2.2216  2.3759
  120OSM    C1212643   4.778   0.897  10.810  0.4796 -0.2117 -0.4145
  120OSM   H12A12644   4.787   0.955  10.901  0.0748 -3.1469  1.6328
  120OSM   H12B12645   4.683   0.848  10.830 -1.0921  3.2293  1.4991
  120OSM    C1112646   4.750   0.991  10.688  0.5287 -0.3872  0.0305
  120OSM   H11A12647   4.744   0.935  10.592  0.6593 -1.5948  0.7151
  120OSM   H11B12648   4.838   1.059  10.685  0.7220 -0.6471 -0.3204
  120OSM      P12649   4.496   1.023  10.632  0.1554 -0.1452 -0.2556
  120OSM    O1312650   4.447   0.895  10.693  0.4530 -0.7259 -0.4542
  120OSM    O1412651   4.410   1.140  10.646  0.8762 -0.8519 -0.4880
  120OSM    O1112652   4.532   1.008  10.474 -0.4271  0.4606  0.2001
  120OSM    O1212653   4.623   1.060  10.707  0.1701  0.0029  0.4554
  120OSM    C1S12654   4.612   1.110  10.414 -0.2492  0.2365  0.1739
  120OSM    H1S12655   4.715   1.117  10.454 -1.3279  2.0739  2.9365
  120OSM    H1T12656   4.568   1.210  10.436  1.9033  1.1249  0.7543
  120OSM     NF12657   4.725   1.149  10.202  0.0022 -0.6225  0.1775
  120OSM    HNF12658   4.717   1.245  10.176  0.4251 -0.8934 -1.0146
  120OSM    C2S12659   4.605   1.093  10.265 -0.0388 -0.1182  0.0738
  120OSM    H2S12660   4.601   0.985  10.239 -0.8087  0.4045 -2.1261
  120OSM    C3S12661   4.466   1.146  10.213 -0.0909  0.4734 -0.1344
  120OSM    H3S12662   4.457   1.254  10.238  0.8720  0.7429 -0.8695
  120OSM     O312663   4.343   1.088  10.267 -0.4968 -0.2945  0.3907
  120OSM    HO312664   4.380   1.021  10.325 -1.0716 -0.3975  0.6392
  120OSM    C4S12665   4.459   1.116  10.064  0.5419  0.3742  0.9989
  120OSM    H4S12666   4.483   1.016  10.025  0.4520  1.8897 -3.5997
  120OSM    C5S12667   4.434   1.215   9.969  0.3777  1.0024 -0.5164
  120OSM    H5S12668   4.445   1.321   9.998 -0.7957  0.7853  0.7887
  120OSM    C6S12669   4.434   1.180   9.819 -0.5434  0.2061 -0.5441
  120OSM    H6S12670   4.337   1.226   9.790 -2.0333 -2.2192  0.3212
  120OSM    H6T12671   4.417   1.072   9.801 -1.1040  0.1321  0.3964
  120OSM    C7S12672   4.541   1.232   9.725 -0.6054 -0.1478 -0.3932
  120OSM    H7S12673   4.644   1.207   9.761 -0.4720  1.9231  0.8264
  120OSM    H7T12674   4.540   1.342   9.736 -0.3496  0.1084 -2.4583
  120OSM    C8S12675   4.540   1.186   9.579 -0.1364 -0.5965 -0.3451
  120OSM    H8S12676   4.436   1.209   9.548 -1.5395  2.6445  5.2711
  120OSM    H8T12677   4.546   1.076   9.575 -1.4013 -0.7181  0.6795
  120OSM    C9S12678   4.646   1.267   9.505 -0.9360 -1.0061 -0.5910
  120OSM    H9S12679   4.740   1.227   9.548 -0.0111  1.9297  0.3999
  120OSM    H9T12680   4.634   1.371   9.543 -2.8507 -1.9090  1.5730
  120OSM   C10S12681   4.639   1.242   9.360 -0.3499 -0.5306  0.3778
  120OSM   H10S12682   4.548   1.288   9.317 -1.2831 -1.5246  1.2257
  120OSM   H10T12683   4.627   1.132   9.349 -0.9378 -0.4417  0.0824
  120OSM   C11S12684   4.763   1.286   9.284 -0.6395  0.0598 -0.2970
  120OSM   H11S12685   4.855   1.235   9.320 -1.0731 -0.6807 -0.2178
  120OSM   H11T12686   4.782   1.391   9.314 -1.5000  0.1790 -0.1478
  120OSM   C12S12687   4.750   1.282   9.132 -0.3005 -0.1523  0.7136
  120OSM   H12S12688   4.692   1.369   9.095 -0.0632  0.1106  0.9568
  120OSM   H12T12689   4.690   1.198   9.090 -2.2356  1.1039  0.8389
  120OSM   C13S12690   4.902   1.279   9.060  0.5485  0.1835 -0.5684
  120OSM   H13S12691   4.950   1.186   9.097  1.4079  0.5296 -0.7754
  120OSM   H13T12692   4.950   1.363   9.115  0.3006  0.9895 -1.5625
  120OSM   C14S12693   4.892   1.282   8.905 -0.2376  0.7603  0.6518
  120OSM   H14S12694   4.843   1.376   8.872 -0.3164  1.4128  2.4882
  120OSM   H14T12695   4.833   1.199   8.861 -1.9376  1.4775  1.5025
  120OSM   C15S12696   5.025   1.279   8.836 -0.8337 -1.3538 -0.1502
  120OSM   H15S12697   5.089   1.204   8.887  0.1903 -0.7208 -0.4629
  120OSM   H15T12698   5.056   1.383   8.861 -1.8536 -1.3500  1.1408
  120OSM   C16S12699   5.011   1.266   8.690  0.0710  0.4448  0.0075
  120OSM   H16S12700   4.936   1.337   8.647  0.9608  0.9790 -0.6947
  120OSM   H16T12701   4.975   1.163   8.667 -2.1972  1.3186 -0.6539
  120OSM   C17S12702   5.139   1.289   8.609  0.3452  0.1240 -0.0265
  120OSM   H17S12703   5.214   1.209   8.628  0.8285  0.9849  1.8554
  120OSM   H17T12704   5.191   1.379   8.646 -0.8267  0.8282 -0.0433
  120OSM   C18S12705   5.112   1.305   8.459  0.0545  0.1078 -0.1563
  120OSM   H18S12706   5.122   1.207   8.409  0.9649  0.4764 -0.7230
  120OSM   H18T12707   5.189   1.369   8.410 -0.8100  2.1401  0.9947
  120OSM   H18U12708   5.013   1.349   8.435  0.4433  1.2785  0.2837
  120OSM    C1F12709   4.844   1.086  10.220  0.0308  0.0019 -0.4876
  120OSM     OF12710   4.850   0.976  10.272  0.8022  0.5871  0.3254
  120OSM    C2F12711   4.968   1.165  10.199 -0.3196  0.4833 -0.3179
  120OSM    H2F12712   5.023   1.175  10.295 -0.1027  1.2535 -0.5130
  120OSM    H2G12713   4.940   1.270  10.175 -1.0013  0.7164  1.2988
  120OSM    C3F12714   5.051   1.102  10.088  0.4877 -0.5768  0.4248
  120OSM    H3F12715   5.109   1.015  10.127 -1.5649 -1.5792  1.4490
  120OSM    H3G12716   5.125   1.175  10.050 -0.8820  0.5125 -0.2685
  120OSM    C4F12717   4.977   1.048   9.965  0.5402  0.1952  0.3620
  120OSM    H4F12718   4.915   1.128   9.920 -0.0063 -0.1557  0.4671
  120OSM    H4G12719   4.901   0.970   9.987  0.2826  1.1766  3.3276
  120OSM    C5F12720   5.073   0.974   9.865  0.1623 -0.6111  0.1725
  120OSM    H5F12721   5.136   0.905   9.924  2.0524 -0.3273 -1.3965
  120OSM    H5G12722   5.132   1.063   9.835  0.4146 -0.1419  1.9736
  120OSM    C6F12723   5.000   0.902   9.752 -0.1503 -0.5484 -0.4012
  120OSM    H6F12724   4.937   0.827   9.804  0.2997  0.6734  2.0420
  120OSM    H6G12725   5.068   0.850   9.682  0.7365 -0.8505  0.6683
  120OSM    C7F12726   4.910   0.992   9.653  0.1447  0.5078 -0.2262
  120OSM    H7F12727   4.966   1.018   9.561 -0.6408  0.2278 -0.7925
  120OSM    H7G12728   4.894   1.085   9.712  0.4383  0.2819  0.2134
  120OSM    C8F12729   4.784   0.932   9.610 -0.0301  0.4006  0.2321
  120OSM    H8F12730   4.747   1.007   9.537  0.7980  0.2702 -0.3416
  120OSM    H8G12731   4.711   0.926   9.693 -1.1105  0.5801 -0.6823
  120OSM    C9F12732   4.772   0.794   9.544 -0.0761 -1.0963  0.1584
  120OSM    H9F12733   4.733   0.720   9.616  2.5133 -2.2319  0.5424
  120OSM   C10F12734   4.768   0.756   9.415  0.2926 -0.0214  0.8356
  120OSM   H10F12735   4.725   0.658   9.390 -0.8830  0.6791  0.0122
  120OSM   C11F12736   4.759   0.868   9.307  0.0447 -0.2658 -0.0310
  120OSM   H11F12737   4.846   0.936   9.318  0.3851 -0.6002 -0.6070
  120OSM   H11G12738   4.669   0.925   9.339  1.9351  3.1551 -0.3985
  120OSM   C12F12739   4.734   0.813   9.161 -0.0680 -0.0469  0.2615
  120OSM   H12F12740   4.702   0.894   9.092  1.9724  3.1055  2.7252
  120OSM   H12G12741   4.644   0.748   9.163 -0.2552  0.1986 -0.1242
  120OSM   C13F12742   4.864   0.761   9.109 -0.4577  0.5059  0.1042
  120OSM   H13F12743   4.908   0.679   9.170 -1.7142 -0.9457 -0.8544
  120OSM   H13G12744   4.941   0.839   9.123  2.1972 -1.1107 -3.7607
  120OSM   C14F12745   4.860   0.703   8.972 -0.0531  0.4516  0.4464
  120OSM   H14F12746   4.788   0.619   8.970 -0.6596  0.8912  2.0606
  120OSM   H14G12747   4.958   0.659   8.944  0.9964  2.1814  1.2291
  120OSM   C15F12748   4.827   0.801   8.863  0.0289 -0.1402  0.1756
  120OSM   H15F12749   4.903   0.882   8.864 -2.4159  2.3041  0.4290
  120OSM   H15G12750   4.728   0.852   8.868  0.1200  0.2901 -1.7308
  120OSM   C16F12751   4.834   0.744   8.716 -0.3069 -0.7837  0.1402
  120OSM   H16F12752   4.941   0.714   8.704 -0.2889 -1.4111  1.6404
  120OSM   H16G12753   4.813   0.833   8.653  2.4955  0.9769  1.4768
  120OSM   C17F12754   4.737   0.629   8.685 -0.0191  0.7355 -0.2114
  120OSM   H17F12755   4.717   0.632   8.575 -1.5961  1.7725  0.0723
  120OSM   H17G12756   4.639   0.649   8.732 -0.8002 -0.6518 -1.1817
  120OSM   C18F12757   4.776   0.481   8.723  0.3194  0.5276 -0.5309
  120OSM   H18F12758   4.689   0.420   8.688  1.1228 -1.8135  1.2919
  120OSM   H18G12759   4.801   0.454   8.828  1.4593  0.9951 -0.6710
  120OSM   H18H12760   4.861   0.454   8.657  0.0752 -0.1775 -0.5613
  121OSM      N12761   6.745   3.164  11.236 -0.0045  0.1730  0.2047
  121OSM    C1512762   6.878   3.222  11.275 -0.1080 -0.3598 -0.0577
  121OSM   H15A12763   6.963   3.179  11.225  0.2954  2.5835 -2.1599
  121OSM   H15B12764   6.894   3.213  11.382 -2.1140 -0.2659  0.3040
  121OSM   H15C12765   6.872   3.328  11.254  1.8844 -0.3749 -0.9616
  121OSM    C1412766   6.775   3.014  11.236  0.1627  0.8997 -0.4200
  121OSM   H14A12767   6.824   2.988  11.144  0.0073  1.3405 -0.6320
  121OSM   H14B12768   6.692   2.946  11.221  1.6279 -1.1907  0.4979
  121OSM   H14C12769   6.833   2.982  11.321 -3.6096  0.1221  2.0978
  121OSM    C1312770   6.646   3.210  11.336  0.2858  0.0332 -0.9379
  121OSM   H13A12771   6.548   3.164  11.326  0.7581 -0.9478 -1.2180
  121OSM   H13B12772   6.634   3.316  11.321  0.3129  0.1268 -0.3420
  121OSM   H13C12773   6.681   3.183  11.435 -1.6872  2.7075  0.6240
  121OSM    C1212774   6.695   3.210  11.108 -0.0225  0.3023 -0.1839
  121OSM   H12A12775   6.588   3.199  11.097 -0.2024  1.9182 -0.3101
  121OSM   H12B12776   6.745   3.159  11.027  0.5205  1.1832 -0.4208
  121OSM    C1112777   6.737   3.359  11.070  0.8881  0.1606  0.3903
  121OSM   H11A12778   6.681   3.374  10.976 -1.1610 -1.4412  1.2925
  121OSM   H11B12779   6.847   3.358  11.054  1.0655  0.9819  1.4060
  121OSM      P12780   6.776   3.580  11.208 -0.0328 -0.1898  0.0488
  121OSM    O1312781   6.690   3.655  11.306 -0.0923 -0.0939 -0.2187
  121OSM    O1412782   6.917   3.548  11.253  0.5360 -0.2567 -0.2125
  121OSM    O1112783   6.788   3.651  11.071 -0.0851  0.7804  0.2805
  121OSM    O1212784   6.699   3.447  11.174  0.9150  0.2440 -0.0833
  121OSM    C1S12785   6.896   3.624  10.980 -0.1148 -0.0572 -0.1534
  121OSM    H1S12786   6.955   3.533  11.000  2.1693  1.0376 -1.5551
  121OSM    H1T12787   6.978   3.698  10.992 -0.0982  0.1202 -1.2563
  121OSM     NF12788   6.967   3.583  10.742 -0.5806 -0.3209 -0.2303
  121OSM    HNF12789   7.010   3.649  10.681 -2.3055 -0.1930 -1.3847
  121OSM    C2S12790   6.863   3.636  10.831  0.8128 -1.2266 -0.2764
  121OSM    H2S12791   6.771   3.575  10.815  0.6031 -0.9104 -0.2695
  121OSM    C3S12792   6.829   3.783  10.809  0.1568 -1.1338  0.7459
  121OSM    H3S12793   6.922   3.843  10.817 -0.4152 -0.0925 -0.1956
  121OSM     O312794   6.737   3.844  10.903  0.2565  0.3754  0.3309
  121OSM    HO312795   6.723   3.780  10.974 -1.3301  1.0749  0.6894
  121OSM    C4S12796   6.789   3.811  10.664  0.3213 -0.7074  0.0119
  121OSM    H4S12797   6.870   3.858  10.607  0.4781 -0.1297  0.6915
  121OSM    C5S12798   6.673   3.799  10.599  0.0929 -1.1339  0.2398
  121OSM    H5S12799   6.580   3.770  10.651  0.1399 -0.9923  0.4048
  121OSM    C6S12800   6.648   3.836  10.454  0.5465  0.3295 -0.3016
  121OSM    H6S12801   6.573   3.918  10.448 -0.8659 -0.9997 -1.6511
  121OSM    H6T12802   6.600   3.757  10.392 -0.8545  1.6147 -0.9290
  121OSM    C7S12803   6.779   3.878  10.376  0.0836 -0.0753 -0.1086
  121OSM    H7S12804   6.856   3.799  10.392  1.7811  1.4391 -0.4924
  121OSM    H7T12805   6.828   3.964  10.426  1.0821 -0.6422 -0.0919
  121OSM    C8S12806   6.764   3.915  10.231 -0.2505 -0.6165 -0.2953
  121OSM    H8S12807   6.857   3.967  10.198 -0.7625  1.3625  1.1769
  121OSM    H8T12808   6.674   3.979  10.223  2.6288  3.8949  0.0068
  121OSM    C9S12809   6.739   3.793  10.138  0.1600 -0.2626  0.3399
  121OSM    H9S12810   6.651   3.729  10.158 -0.1729  0.6897  2.0979
  121OSM    H9T12811   6.828   3.726  10.140 -0.1934 -0.7218  1.2612
  121OSM   C10S12812   6.722   3.836   9.994  0.1869 -0.7226  0.2861
  121OSM   H10S12813   6.806   3.902   9.963 -0.7818  1.5600  2.2045
  121OSM   H10T12814   6.631   3.898   9.984  0.7944  0.0188 -0.8561
  121OSM   C11S12815   6.735   3.720   9.894 -0.1528 -0.4937 -0.1547
  121OSM   H11S12816   6.678   3.631   9.927  1.6810 -1.1733  1.3521
  121OSM   H11T12817   6.844   3.697   9.898  0.1986  1.1893  1.6920
  121OSM   C12S12818   6.692   3.750   9.748  0.1313 -0.2419 -0.2087
  121OSM   H12S12819   6.734   3.850   9.725 -0.2744  0.2067  0.9093
  121OSM   H12T12820   6.582   3.760   9.732  0.0065  2.5679  1.5786
  121OSM   C13S12821   6.763   3.653   9.656 -0.1219 -0.1962  0.3180
  121OSM   H13S12822   6.725   3.551   9.676  0.2131 -0.3372  0.2575
  121OSM   H13T12823   6.874   3.647   9.668 -0.1593  1.2948  1.6025
  121OSM   C14S12824   6.730   3.691   9.508  0.2847  0.2103 -0.3094
  121OSM   H14S12825   6.759   3.798   9.496  0.0599  0.5106  1.4633
  121OSM   H14T12826   6.621   3.694   9.488  0.6201 -1.1182 -2.7539
  121OSM   C15S12827   6.811   3.605   9.411  0.2224 -0.0741  0.5652
  121OSM   H15S12828   6.761   3.506   9.401 -1.9278  0.8868  1.1481
  121OSM   H15T12829   6.917   3.591   9.440  0.8712 -0.2062 -1.7203
  121OSM   C16S12830   6.809   3.664   9.262  0.8315  0.6525 -0.1806
  121OSM   H16S12831   6.845   3.769   9.260  1.7853  0.3854  1.3872
  121OSM   H16T12832   6.705   3.665   9.221  0.2091 -1.4147  1.1709
  121OSM   C17S12833   6.893   3.568   9.174 -0.1446 -0.0592  0.6178
  121OSM   H17S12834   6.868   3.461   9.188 -0.5668  0.2494  2.4118
  121OSM   H17T12835   6.996   3.576   9.217 -0.3117 -0.6454  1.1384
  121OSM   C18S12836   6.877   3.595   9.027 -0.3034  0.0843 -0.1404
  121OSM   H18S12837   6.921   3.689   8.987  2.2871 -0.4727  1.2351
  121OSM   H18T12838   6.767   3.600   9.008 -0.3225  1.3624  0.2191
  121OSM   H18U12839   6.924   3.507   8.978  0.1626  0.1759  0.1427
  121OSM    C1F12840   7.001   3.455  10.736  0.5051 -0.0637 -0.4368
  121OSM     OF12841   6.926   3.378  10.793 -0.4413 -0.0100  0.3924
  121OSM    C2F12842   7.108   3.413  10.632 -0.4548  0.2268  0.3331
  121OSM    H2F12843   7.201   3.467  10.660  1.5229 -0.8732 -3.4379
  121OSM    H2G12844   7.073   3.447  10.532  0.0908  1.6972  0.6216
  121OSM    C3F12845   7.132   3.265  10.637  0.0209  0.1922  0.0475
  121OSM    H3F12846   7.039   3.206  10.625  0.4823 -0.3160 -1.1812
  121OSM    H3G12847   7.174   3.239  10.737  1.5535  0.4983 -0.4827
  121OSM    C4F12848   7.237   3.212  10.523 -0.7467 -1.1370 -0.5746
  121OSM    H4F12849   7.254   3.106  10.551 -0.5008 -1.1742 -0.8538
  121OSM    H4G12850   7.331   3.271  10.530 -1.0523 -0.5956 -0.9176
  121OSM    C5F12851   7.182   3.226  10.376  0.2968 -0.1407  0.6427
  121OSM    H5F12852   7.129   3.321  10.351 -2.5584 -1.4815  1.2263
  121OSM    H5G12853   7.100   3.152  10.367  0.8514 -0.6096 -0.7099
  121OSM    C6F12854   7.287   3.195  10.268 -0.4656 -0.7536  0.5013
  121OSM    H6F12855   7.308   3.086  10.276 -0.4375 -0.7581  0.3767
  121OSM    H6G12856   7.382   3.250  10.285 -0.8714 -0.1829  0.9563
  121OSM    C7F12857   7.242   3.219  10.117  0.2843  0.1931 -0.2512
  121OSM    H7F12858   7.243   3.329  10.103 -0.9556  0.2164 -0.1789
  121OSM    H7G12859   7.141   3.182  10.092 -0.0400  1.0178 -0.1631
  121OSM    C8F12860   7.353   3.174  10.017  0.3665 -1.1826 -0.5076
  121OSM    H8F12861   7.357   3.063  10.008  0.1067 -1.1494 -1.0855
  121OSM    H8G12862   7.440   3.210  10.074 -1.3666  0.8025  1.0170
  121OSM    C9F12863   7.337   3.232   9.875 -0.6082 -0.1421 -0.9450
  121OSM    H9F12864   7.297   3.335   9.870  0.0288  0.0325 -3.6226
  121OSM   C10F12865   7.355   3.176   9.752  0.2447  0.6688  0.1619
  121OSM   H10F12866   7.330   3.228   9.658  0.9985 -1.4652 -1.2892
  121OSM   C11F12867   7.398   3.033   9.726 -0.4123 -0.4279 -0.1584
  121OSM   H11F12868   7.377   2.963   9.810  0.3252  1.6305  1.8125
  121OSM   H11G12869   7.508   3.035   9.710  0.1288 -2.1839  2.5801
  121OSM   C12F12870   7.336   2.961   9.605  0.5494  0.2849 -0.6034
  121OSM   H12F12871   7.226   2.974   9.611  0.3697 -1.5732  0.9442
  121OSM   H12G12872   7.372   2.856   9.609  0.6671  0.2351 -2.1646
  121OSM   C13F12873   7.388   3.011   9.472  0.3370 -0.6223 -0.2169
  121OSM   H13F12874   7.498   3.022   9.485 -0.0666  0.9234  2.8116
  121OSM   H13G12875   7.331   3.105   9.457 -1.4763 -1.4883  0.8183
  121OSM   C14F12876   7.358   2.915   9.357  0.3704 -0.2307 -0.3959
  121OSM   H14F12877   7.248   2.911   9.348  0.0043 -1.7470  3.1311
  121OSM   H14G12878   7.392   2.811   9.377  1.4902 -0.1808 -1.7909
  121OSM   C15F12879   7.419   2.971   9.222 -0.8385 -0.9015 -0.6946
  121OSM   H15F12880   7.530   2.974   9.217 -0.7498  2.8397  0.6284
  121OSM   H15G12881   7.378   3.074   9.224 -0.5408 -0.7739  1.3535
  121OSM   C16F12882   7.367   2.895   9.103  1.1920 -0.3075 -0.4946
  121OSM   H16F12883   7.256   2.900   9.107  1.2525  0.8774  0.2160
  121OSM   H16G12884   7.400   2.789   9.113 -0.0164 -0.7091 -0.6419
  121OSM   C17F12885   7.408   2.967   8.977  1.2352  0.0404 -0.3866
  121OSM   H17F12886   7.519   2.965   8.979  1.3000  1.6495 -0.8701
  121OSM   H17G12887   7.376   3.074   8.974  2.8541  0.6949  2.4843
  121OSM   C18F12888   7.359   2.888   8.853  0.0875 -0.2225  0.3968
  121OSM   H18F12889   7.250   2.905   8.848  0.4438  2.0094 -1.3125
  121OSM   H18G12890   7.378   2.779   8.839 -2.1954 -0.5854 -0.2487
  121OSM   H18H12891   7.397   2.935   8.759  0.6766  0.9607  1.2074
  122OSM      N12892   1.543   6.210  11.096  0.2645 -0.3085 -0.3912
  122OSM    C1512893   1.423   6.143  11.161  0.0609 -0.3308 -0.1576
  122OSM   H15A12894   1.336   6.206  11.166 -0.1269 -0.3181 -2.4152
  122OSM   H15B12895   1.443   6.111  11.262 -0.3642 -0.1563 -0.0183
  122OSM   H15C12896   1.389   6.054  11.109 -0.8409 -0.1198  0.0591
  122OSM    C1412897   1.585   6.323  11.181  0.2528 -0.0119  0.0151
  122OSM   H14A12898   1.666   6.378  11.134  0.3207 -0.1075  0.0207
  122OSM   H14B12899   1.629   6.289  11.274 -0.6540 -0.2412  0.3645
  122OSM   H14C12900   1.504   6.377  11.226  1.4757  0.7117  1.4581
  122OSM    C1312901   1.659   6.119  11.082  0.1458 -0.1971  0.3182
  122OSM   H13A12902   1.628   6.024  11.042  0.2725  0.5227 -1.6034
  122OSM   H13B12903   1.699   6.084  11.176  2.0850 -2.0354 -1.1033
  122OSM   H13C12904   1.748   6.145  11.026  0.1965 -2.2550 -0.6473
  122OSM    C1212905   1.501   6.264  10.959 -0.0782 -0.1036  0.0278
  122OSM   H12A12906   1.595   6.302  10.922  0.6181 -0.1941  1.6172
  122OSM   H12B12907   1.441   6.353  10.966  0.7159  0.4750 -0.3359
  122OSM    C1112908   1.433   6.171  10.854  0.0504  0.5325 -0.3420
  122OSM   H11A12909   1.483   6.072  10.860  0.3848  0.7180 -0.0091
  122OSM   H11B12910   1.439   6.223  10.756  0.0521  2.5968  0.6917
  122OSM      P12911   1.189   6.268  10.904 -0.1086  0.2992 -0.1476
  122OSM    O1312912   1.056   6.215  10.934  0.1459  0.2884  0.0541
  122OSM    O1412913   1.235   6.388  10.977  0.2710 -0.0174 -0.2752
  122OSM    O1112914   1.178   6.293  10.750 -0.1697 -0.1543 -0.6947
  122OSM    O1212915   1.300   6.152  10.906  0.2458 -0.3330 -0.1443
  122OSM    C1S12916   1.093   6.400  10.713  0.6610 -0.0067 -0.0415
  122OSM    H1S12917   1.144   6.495  10.740 -0.7594  0.5031  0.9890
  122OSM    H1T12918   1.000   6.391  10.772  1.2804 -0.3412  0.9103
  122OSM     NF12919   0.963   6.509  10.527  0.2249 -0.3740 -0.3473
  122OSM    HNF12920   0.868   6.496  10.498 -0.7848  2.2684  1.3379
  122OSM    C2S12921   1.061   6.405  10.556 -0.0869 -0.2550 -0.0399
  122OSM    H2S12922   1.154   6.439  10.506 -1.1422  1.0110 -1.2146
  122OSM    C3S12923   1.017   6.261  10.503 -0.4262  0.1112  0.5356
  122OSM    H3S12924   0.920   6.245  10.554 -0.1857  0.2769  1.0598
  122OSM     O312925   1.105   6.156  10.524 -1.1018 -0.3386 -0.6319
  122OSM    HO312926   1.162   6.184  10.596 -2.1489 -2.5531  1.1655
  122OSM    C4S12927   0.983   6.269  10.359  0.3497 -0.2378  0.3822
  122OSM    H4S12928   0.874   6.263  10.351 -0.1268  2.3022  3.2595
  122OSM    C5S12929   1.063   6.280  10.245 -0.2749  0.1149  0.3108
  122OSM    H5S12930   1.172   6.274  10.253 -0.3073  0.4157  1.1214
  122OSM    C6S12931   1.014   6.283  10.103 -0.1837 -0.0052  0.2496
  122OSM    H6S12932   1.061   6.195  10.052  0.9319  1.3666 -1.1860
  122OSM    H6T12933   1.044   6.382  10.063 -4.4756  1.6044  0.5583
  122OSM    C7S12934   0.870   6.260  10.082  0.8180 -0.3822  0.7241
  122OSM    H7S12935   0.849   6.295   9.979 -0.4785  1.0808  1.4512
  122OSM    H7T12936   0.802   6.326  10.140  0.8500 -1.3129  1.8705
  122OSM    C8S12937   0.818   6.119  10.099  0.1322 -0.0476  0.5792
  122OSM    H8S12938   0.708   6.125  10.082 -0.1736  2.9867  2.8633
  122OSM    H8T12939   0.812   6.099  10.208  0.4789  0.5231  0.7083
  122OSM    C9S12940   0.879   6.013  10.016 -0.3545  0.2178  0.6766
  122OSM    H9S12941   0.810   5.926  10.016  0.7358 -0.7138 -0.6776
  122OSM    H9T12942   0.985   5.992  10.042  0.5858 -0.0945 -2.8173
  122OSM   C10S12943   0.883   6.054   9.868  0.1229 -0.1902  0.5972
  122OSM   H10S12944   0.935   5.984   9.799  0.4451  0.3632  0.2749
  122OSM   H10T12945   0.941   6.149   9.864 -0.5259  0.1740 -0.4473
  122OSM   C11S12946   0.748   6.086   9.811 -0.2547  0.4727  0.1073
  122OSM   H11S12947   0.693   6.153   9.880 -0.8474  0.0361  0.0664
  122OSM   H11T12948   0.686   5.993   9.809 -2.8207  2.0740 -0.3908
  122OSM   C12S12949   0.760   6.153   9.667  0.5752  0.5606 -0.7795
  122OSM   H12S12950   0.796   6.078   9.593  1.2339 -0.4573  0.5353
  122OSM   H12T12951   0.845   6.225   9.658  4.4726 -3.4022  0.5150
  122OSM   C13S12952   0.638   6.222   9.613  0.7353 -0.0325  0.6308
  122OSM   H13S12953   0.654   6.269   9.514 -4.3247 -0.0252 -0.4588
  122OSM   H13T12954   0.600   6.295   9.688 -3.5030 -0.4686 -0.8286
  122OSM   C14S12955   0.519   6.133   9.581 -0.2220  0.0476 -0.5222
  122OSM   H14S12956   0.500   6.085   9.679 -1.1494 -0.8828 -1.1389
  122OSM   H14T12957   0.542   6.056   9.504  0.2752  0.0058 -0.3323
  122OSM   C15S12958   0.392   6.212   9.544 -0.6318 -0.2465  0.0917
  122OSM   H15S12959   0.426   6.288   9.471  0.8040 -1.3335 -0.4289
  122OSM   H15T12960   0.350   6.251   9.639 -2.6400 -0.9715 -0.4409
  122OSM   C16S12961   0.295   6.123   9.464 -0.0833 -0.0633  0.1072
  122OSM   H16S12962   0.267   6.036   9.528  0.7876  0.0129  0.6090
  122OSM   H16T12963   0.351   6.075   9.380 -0.7969 -1.2406  0.2727
  122OSM   C17S12964   0.190   6.194   9.386 -0.4784  0.4923 -0.7932
  122OSM   H17S12965   0.132   6.274   9.438 -2.8955 -1.8239  0.2835
  122OSM   H17T12966   0.126   6.121   9.333  1.5911  0.6565 -3.7531
  122OSM   C18S12967   0.247   6.278   9.266  0.5884 -0.3837  0.0386
  122OSM   H18S12968   0.288   6.373   9.306  0.9228 -1.4723  2.5009
  122OSM   H18T12969   0.158   6.310   9.207 -0.5961 -2.7627  0.3822
  122OSM   H18U12970   0.305   6.221   9.191 -1.0821 -0.6450 -1.1009
  122OSM    C1F12971   0.997   6.640  10.533  0.3705 -0.4011 -1.2176
  122OSM     OF12972   1.105   6.681  10.569  0.0818  0.1729  0.2433
  122OSM    C2F12973   0.904   6.740  10.489  0.5425  0.7687  0.5009
  122OSM    H2F12974   0.910   6.827  10.557 -1.2269 -0.0533  1.8022
  122OSM    H2G12975   0.799   6.703  10.497  1.1846 -1.3763 -0.3355
  122OSM    C3F12976   0.930   6.768  10.341  0.0344  0.1752  0.1909
  122OSM    H3F12977   1.019   6.833  10.333  1.4203 -1.7788 -1.1988
  122OSM    H3G12978   0.842   6.831  10.316  0.0192  0.7907  1.7069
  122OSM    C4F12979   0.952   6.651  10.235 -1.0812  0.5390  0.2044
  122OSM    H4F12980   0.965   6.549  10.278 -0.4048  0.7946  0.6157
  122OSM    H4G12981   1.046   6.671  10.179 -1.2575  0.2735 -0.1900
  122OSM    C5F12982   0.851   6.647  10.118  0.5109 -0.5330  1.3624
  122OSM    H5F12983   0.751   6.625  10.161  1.2290 -2.0367  2.3985
  122OSM    H5G12984   0.870   6.553  10.061  1.4213  0.7669 -0.5673
  122OSM    C6F12985   0.837   6.766  10.020  0.0756 -0.1213  0.7014
  122OSM    H6F12986   0.938   6.782   9.977  0.4236 -3.2984  0.0356
  122OSM    H6G12987   0.802   6.859  10.069  0.0522  2.5145 -3.7455
  122OSM    C7F12988   0.740   6.736   9.904  0.2209  0.3590  1.0271
  122OSM    H7F12989   0.723   6.828   9.844  0.2007  0.7187  1.5735
  122OSM    H7G12990   0.638   6.715   9.943  0.4992 -2.6742  0.4180
  122OSM    C8F12991   0.785   6.627   9.804  0.4103 -0.3957 -0.1260
  122OSM    H8F12992   0.782   6.529   9.856 -2.6873 -1.3904 -1.9152
  122OSM    H8G12993   0.893   6.648   9.788  0.1396  2.3734  1.0762
  122OSM    C9F12994   0.701   6.618   9.677 -0.6196 -0.0494  0.7461
  122OSM    H9F12995   0.598   6.580   9.688 -0.4910 -0.3953  0.7612
  122OSM   C10F12996   0.746   6.656   9.556  0.4904  0.2184 -0.7572
  122OSM   H10F12997   0.677   6.654   9.471  0.8726 -1.3300 -1.0681
  122OSM   C11F12998   0.883   6.710   9.526  0.4424  0.1569 -0.2949
  122OSM   H11F12999   0.962   6.633   9.516 -0.2616 -0.3513 -2.6038
  122OSM   H11G13000   0.903   6.774   9.615  1.5443  0.0449 -0.4433
  122OSM   C12F13001   0.893   6.793   9.395  0.3280 -0.2245 -0.8447
  122OSM   H12F13002   0.970   6.872   9.407  0.2690 -0.2093 -0.5519
  122OSM   H12G13003   0.795   6.845   9.397  0.2968 -0.2055  2.3287
  122OSM   C13F13004   0.920   6.708   9.273  0.3465 -0.1726  0.8497
  122OSM   H13F13005   0.823   6.660   9.246 -0.3256  2.5382 -2.2137
  122OSM   H13G13006   1.005   6.637   9.283  1.0084 -0.3894 -4.0854
  122OSM   C14F13007   0.962   6.795   9.150 -0.9956  0.6235 -0.7015
  122OSM   H14F13008   0.928   6.901   9.148  3.2829  2.2389  0.8179
  122OSM   H14G13009   0.925   6.743   9.059  1.4835 -0.3833 -1.2010
  122OSM   C15F13010   1.117   6.797   9.146 -0.0808  0.8743 -0.6950
  122OSM   H15F13011   1.145   6.690   9.153 -0.5621  0.7870  0.0578
  122OSM   H15G13012   1.160   6.848   9.235 -0.6918  2.5852 -1.3434
  122OSM   C16F13013   1.173   6.852   9.015 -0.7795 -0.2047  0.2068
  122OSM   H16F13014   1.124   6.945   8.978 -0.0447 -0.2248 -0.8929
  122OSM   H16G13015   1.155   6.780   8.932 -1.7642 -0.5705  0.7329
  122OSM   C17F13016   1.324   6.898   9.029  0.5315 -0.0051  0.6798
  122OSM   H17F13017   1.392   6.810   9.039  1.4403  0.5485 -0.4203
  122OSM   H17G13018   1.324   6.967   9.116 -1.6213 -0.8217  1.3931
  122OSM   C18F13019   1.374   6.962   8.896  0.3329 -1.1739 -0.5959
  122OSM   H18F13020   1.371   6.880   8.822 -2.7549  0.6712 -2.7365
  122OSM   H18G13021   1.475   7.006   8.909 -0.3481  0.0842  0.8296
  122OSM   H18H13022   1.297   7.035   8.864 -1.4541 -3.5181 -1.9429
  123OSM      N13023   4.825   6.718   6.384  0.9687 -0.7743 -0.0947
  123OSM    C1513024   4.687   6.652   6.374 -0.6110 -0.2377 -1.4413
  123OSM   H15A13025   4.693   6.585   6.289  0.3816  0.1018 -1.6558
  123OSM   H15B13026   4.600   6.716   6.369 -0.4879  0.0162 -0.5192
  123OSM   H15C13027   4.670   6.592   6.462 -1.6364 -0.1731 -1.5871
  123OSM    C1413028   4.932   6.614   6.389  0.6002 -0.4807 -0.1686
  123OSM   H14A13029   4.934   6.580   6.287  1.0824 -0.8905 -0.0266
  123OSM   H14B13030   4.903   6.531   6.452  0.4276  0.8608  1.6010
  123OSM   H14C13031   5.020   6.660   6.432 -0.3480  0.5357  0.7647
  123OSM    C1313032   4.842   6.806   6.255  0.4478 -0.8936  0.0273
  123OSM   H13A13033   4.934   6.862   6.259  0.1328 -0.3085 -0.6755
  123OSM   H13B13034   4.758   6.873   6.263  0.8386 -0.3654 -0.2757
  123OSM   H13C13035   4.824   6.755   6.162 -0.6103  3.0672 -2.1640
  123OSM    C1213036   4.824   6.806   6.511  0.0303 -0.0166 -0.4528
  123OSM   H12A13037   4.805   6.747   6.599 -2.7789  2.2046  0.6279
  123OSM   H12B13038   4.731   6.861   6.505 -1.3022 -1.8996  1.6574
  123OSM    C1113039   4.942   6.900   6.539 -0.5405 -0.0492 -0.4705
  123OSM   H11A13040   5.032   6.835   6.546  1.3359  2.5372  0.7483
  123OSM   H11B13041   4.922   6.941   6.640  1.4564 -1.9185  0.7767
  123OSM      P13042   4.857   7.126   6.435  0.0401  0.2270 -0.5490
  123OSM    O1313043   4.891   7.211   6.321 -0.2434  0.4267  0.1959
  123OSM    O1413044   4.712   7.083   6.446  0.0930  0.2265 -0.0754
  123OSM    O1113045   4.890   7.203   6.563  0.2793  0.1011  0.5934
  123OSM    O1213046   4.957   7.003   6.439  0.3065  0.0633 -0.1681
  123OSM    C1S13047   5.024   7.226   6.601  0.2897  0.0758 -1.0780
  123OSM    H1S13048   5.075   7.291   6.527  0.0445  1.8266  0.1917
  123OSM    H1T13049   5.084   7.133   6.600 -0.8103 -0.6710 -0.3775
  123OSM     NF13050   5.160   7.353   6.767  0.6366  0.3885 -0.1271
  123OSM    HNF13051   5.233   7.306   6.818 -0.0170 -0.3850  0.1120
  123OSM    C2S13052   5.036   7.285   6.744 -0.1108  0.0114  0.3358
  123OSM    H2S13053   4.957   7.363   6.745  0.2966  0.4203  0.5428
  123OSM    C3S13054   5.003   7.186   6.860  0.7649  0.7796 -0.4064
  123OSM    H3S13055   5.077   7.103   6.861  0.4476  0.5022  0.1432
  123OSM     O313056   4.882   7.119   6.835 -1.2216 -0.1320 -0.1017
  123OSM    HO313057   4.856   7.153   6.749  0.7913  1.1634 -0.2938
  123OSM    C4S13058   5.015   7.259   6.986  0.0498 -0.3733  0.2145
  123OSM    H4S13059   4.957   7.352   6.989 -1.4413 -1.1393 -2.0339
  123OSM    C5S13060   5.103   7.228   7.085  0.0191  0.1875  0.4283
  123OSM    H5S13061   5.176   7.153   7.051  0.6389 -0.4571  2.9973
  123OSM    C6S13062   5.120   7.318   7.206  0.0589 -0.1779 -0.3664
  123OSM    H6S13063   5.227   7.345   7.208  0.1819 -0.6656 -0.2159
  123OSM    H6T13064   5.105   7.259   7.299 -0.3196  0.3904 -0.0629
  123OSM    C7S13065   5.024   7.441   7.222  0.0756  0.0499 -0.0813
  123OSM    H7S13066   4.917   7.416   7.212  0.2841 -0.9355  0.0724
  123OSM    H7T13067   5.045   7.516   7.142  0.3566 -1.6012 -1.6342
  123OSM    C8S13068   5.030   7.498   7.364  0.2461  0.3596  0.5773
  123OSM    H8S13069   4.981   7.419   7.426  0.3150 -1.1619 -1.2061
  123OSM    H8T13070   4.965   7.587   7.371 -0.7013 -0.3291  0.7864
  123OSM    C9S13071   5.165   7.537   7.418 -0.7801  0.1006 -0.1860
  123OSM    H9S13072   5.222   7.604   7.351  2.1892  0.0361  2.0705
  123OSM    H9T13073   5.227   7.446   7.430 -2.7677 -1.3725 -0.5531
  123OSM   C10S13074   5.159   7.602   7.555 -0.5362 -0.3454 -0.2239
  123OSM   H10S13075   5.086   7.685   7.540  0.4227  0.6418  0.4068
  123OSM   H10T13076   5.257   7.650   7.575 -1.8176  2.3374  0.1031
  123OSM   C11S13077   5.120   7.510   7.669 -0.6797 -0.2226 -0.1149
  123OSM   H11S13078   5.193   7.426   7.674  0.7837  0.9775 -0.7691
  123OSM   H11T13079   5.015   7.474   7.668 -0.2096 -1.9509  2.8324
  123OSM   C12S13080   5.141   7.571   7.806  0.3391  0.3446 -0.0150
  123OSM   H12S13081   5.097   7.673   7.812 -1.7067 -0.5061  0.1655
  123OSM   H12T13082   5.251   7.578   7.818  0.6048 -0.9978 -1.4414
  123OSM   C13S13083   5.082   7.482   7.912 -0.3125  0.6226  0.0334
  123OSM   H13S13084   5.118   7.525   8.008 -2.1893  1.4419  0.4234
  123OSM   H13T13085   5.123   7.379   7.903  1.0601  1.2360 -0.9813
  123OSM   C14S13086   4.930   7.478   7.915  0.7621 -0.1867  0.2195
  123OSM   H14S13087   4.904   7.390   7.852  0.9344  1.5503 -2.4509
  123OSM   H14T13088   4.879   7.569   7.877 -3.4766 -4.2592 -5.5025
  123OSM   C15S13089   4.851   7.449   8.053 -0.9697 -0.5119 -0.1862
  123OSM   H15S13090   4.742   7.454   8.033 -0.5118 -0.0496 -3.1384
  123OSM   H15T13091   4.882   7.531   8.121 -2.2693  0.6612 -0.9642
  123OSM   C16S13092   4.880   7.310   8.113 -0.0488  0.1869 -0.0718
  123OSM   H16S13093   4.990   7.293   8.104  0.1347  0.4224  1.4664
  123OSM   H16T13094   4.821   7.229   8.067  2.1638 -3.0721  2.3868
  123OSM   C17S13095   4.845   7.316   8.265  0.0218  0.4990 -0.0059
  123OSM   H17S13096   4.773   7.398   8.287 -1.6720 -0.1461 -2.7087
  123OSM   H17T13097   4.943   7.339   8.312  0.7712 -0.8497 -0.8509
  123OSM   C18S13098   4.805   7.183   8.328 -0.1439  0.1564 -0.5759
  123OSM   H18S13099   4.789   7.184   8.438  1.5636  0.8225 -0.3033
  123OSM   H18T13100   4.890   7.115   8.304  0.6179  0.3265  1.4301
  123OSM   H18U13101   4.727   7.131   8.269  0.3875  0.5080 -1.6230
  123OSM    C1F13102   5.192   7.472   6.718  1.1724  0.8956 -0.0132
  123OSM     OF13103   5.114   7.539   6.650  0.1520  0.6182  0.3781
  123OSM    C2F13104   5.330   7.518   6.749  0.9797 -0.1467  0.8021
  123OSM    H2F13105   5.399   7.486   6.668 -0.8078 -1.4307 -0.3039
  123OSM    H2G13106   5.368   7.481   6.846 -0.3343 -1.3765  0.8865
  123OSM    C3F13107   5.331   7.674   6.743  0.1295 -0.2879 -0.5548
  123OSM    H3F13108   5.273   7.714   6.657  0.6145 -0.2037 -0.8427
  123OSM    H3G13109   5.433   7.714   6.730  0.7007 -1.3117  0.5791
  123OSM    C4F13110   5.265   7.731   6.879  1.1233 -0.4071  0.7682
  123OSM    H4F13111   5.185   7.664   6.918 -0.0149 -0.1754 -1.0550
  123OSM    H4G13112   5.210   7.824   6.854  0.3576 -0.7582  1.1332
  123OSM    C5F13113   5.366   7.758   6.987 -0.1903  0.6774 -0.2310
  123OSM    H5F13114   5.454   7.804   6.937  0.0478 -1.6050 -2.1145
  123OSM    H5G13115   5.406   7.664   7.031 -2.6420  1.0623  3.1624
  123OSM    C6F13116   5.306   7.840   7.101  0.0578 -0.9654  0.7623
  123OSM    H6F13117   5.225   7.770   7.130 -2.0416  0.3333 -1.6288
  123OSM    H6G13118   5.254   7.932   7.067  0.3344 -1.0263  0.1553
  123OSM    C7F13119   5.399   7.884   7.216 -0.3369  0.0828 -0.6128
  123OSM    H7F13120   5.485   7.933   7.167  1.3378 -0.9665  1.1254
  123OSM    H7G13121   5.442   7.803   7.279  0.2790 -0.4081 -1.6525
  123OSM    C8F13122   5.340   7.986   7.312  0.4306 -0.2780  0.0820
  123OSM    H8F13123   5.322   8.087   7.269 -3.8106 -0.8680 -0.0181
  123OSM    H8G13124   5.412   8.005   7.394  1.6682 -1.5482 -0.6673
  123OSM    C9F13125   5.214   7.938   7.385 -0.7186  0.8159  0.2893
  123OSM    H9F13126   5.162   7.854   7.335  0.7440  0.7699 -1.2539
  123OSM   C10F13127   5.165   7.961   7.509  0.4731 -0.6150  0.4762
  123OSM   H10F13128   5.069   7.916   7.537  0.2673  0.3481  1.3628
  123OSM   C11F13129   5.228   8.058   7.606 -0.0008  0.2299  0.5323
  123OSM   H11F13130   5.163   8.146   7.627 -0.1843 -0.0157  1.0098
  123OSM   H11G13131   5.323   8.095   7.562  0.2035  0.2422  0.9807
  123OSM   C12F13132   5.251   8.005   7.752  0.2106 -0.2481 -0.1931
  123OSM   H12F13133   5.302   8.091   7.800  0.3489  0.8578 -2.2146
  123OSM   H12G13134   5.327   7.923   7.748  0.1860 -0.2897  0.1958
  123OSM   C13F13135   5.119   7.966   7.817  0.2567  0.3063  0.8142
  123OSM   H13F13136   5.075   7.880   7.761 -0.5750 -0.3143  2.3330
  123OSM   H13G13137   5.048   8.051   7.806  0.9443  0.6585 -1.2466
  123OSM   C14F13138   5.124   7.922   7.968 -0.3001  0.4127  0.0699
  123OSM   H14F13139   5.164   8.008   8.026 -1.6717  0.3006  1.2349
  123OSM   H14G13140   5.201   7.842   7.966 -1.1083 -0.3757 -2.0050
  123OSM   C15F13141   4.989   7.871   8.020  0.0204  0.4524 -0.6627
  123OSM   H15F13142   4.962   7.787   7.953 -1.0484  0.7758 -0.6525
  123OSM   H15G13143   4.917   7.955   8.017 -1.3370 -0.6568 -0.1397
  123OSM   C16F13144   4.994   7.820   8.163 -0.5729 -0.4880 -0.2080
  123OSM   H16F13145   5.069   7.880   8.220 -0.7871 -0.5682  0.1594
  123OSM   H16G13146   5.031   7.716   8.164 -1.3181 -0.7597  1.2252
  123OSM   C17F13147   4.854   7.820   8.237 -0.0826  0.1193 -0.3074
  123OSM   H17F13148   4.777   7.777   8.169 -0.2831  0.3359 -0.2192
  123OSM   H17G13149   4.818   7.922   8.263  1.3774  0.4041  0.7210
  123OSM   C18F13150   4.851   7.740   8.365  0.0960  0.2496  0.2729
  123OSM   H18F13151   4.861   7.631   8.344  1.0355  0.5138 -0.8043
  123OSM   H18G13152   4.751   7.739   8.413 -0.9493 -0.4335 -1.8132
  123OSM   H18H13153   4.931   7.775   8.434 -1.1965  1.9111  1.0097
  124OSM      N13154   0.543   6.327   6.187  0.5048 -0.8295  0.4594
  124OSM    C1513155   0.637   6.225   6.128  0.0244 -0.3840 -0.6467
  124OSM   H15A13156   0.687   6.165   6.203  1.7814  0.3538 -1.1619
  124OSM   H15B13157   0.719   6.273   6.076  0.4406  1.5749  1.5946
  124OSM   H15C13158   0.581   6.154   6.070  1.2219 -2.2206  0.3659
  124OSM    C1413159   0.489   6.422   6.085  0.0013  0.3641 -0.1189
  124OSM   H14A13160   0.425   6.376   6.011  0.0281  1.9878 -1.1863
  124OSM   H14B13161   0.567   6.473   6.031  1.6832 -1.1649  0.7302
  124OSM   H14C13162   0.426   6.494   6.134 -0.1569 -0.7795  1.4490
  124OSM    C1313163   0.426   6.255   6.242 -0.5464 -0.5792  0.4312
  124OSM   H13A13164   0.373   6.324   6.306 -0.3078  2.1951 -2.1190
  124OSM   H13B13165   0.449   6.168   6.301  1.5033 -0.4403 -0.0993
  124OSM   H13C13166   0.363   6.224   6.159 -0.6294 -0.9103  0.6180
  124OSM    C1213167   0.610   6.396   6.303  0.4878  0.3429  0.5583
  124OSM   H12A13168   0.696   6.445   6.261 -1.2919  1.3625 -2.1262
  124OSM   H12B13169   0.640   6.315   6.368 -0.9778 -0.1916  0.6071
  124OSM    C1113170   0.531   6.489   6.400 -0.8332 -0.8922 -0.3035
  124OSM   H11A13171   0.603   6.510   6.481 -0.0363 -1.9399 -0.7249
  124OSM   H11B13172   0.448   6.426   6.438  0.4634 -2.1827  0.4663
  124OSM      P13173   0.583   6.730   6.304  0.2073 -0.0335  0.1673
  124OSM    O1313174   0.723   6.675   6.298  0.0458  0.0063  0.0750
  124OSM    O1413175   0.530   6.795   6.179 -0.0014  0.2720 -0.0869
  124OSM    O1113176   0.570   6.832   6.421 -0.5001  0.1603  0.4857
  124OSM    O1213177   0.485   6.614   6.355  0.5417 -0.3007 -0.5597
  124OSM    C1S13178   0.459   6.911   6.452  0.3787 -0.4387 -0.1840
  124OSM    H1S13179   0.369   6.878   6.396 -0.4255  2.8702 -1.0868
  124OSM    H1T13180   0.477   7.020   6.437 -1.5702 -0.2118 -1.0803
  124OSM     NF13181   0.301   6.969   6.628 -0.0617 -1.0620  0.4436
  124OSM    HNF13182   0.306   7.060   6.669 -1.0741 -1.1609  0.8057
  124OSM    C2S13183   0.431   6.905   6.606 -0.3947 -0.0962 -0.0401
  124OSM    H2S13184   0.424   6.796   6.629  2.4031 -0.6854 -1.5316
  124OSM    C3S13185   0.559   6.965   6.685  0.2127 -0.1428  1.1745
  124OSM    H3S13186   0.577   7.064   6.638  0.1879  0.0729  1.6179
  124OSM     O313187   0.676   6.888   6.659  0.1158  0.2537 -0.6500
  124OSM    HO313188   0.652   6.848   6.575 -1.9917  0.7845 -0.3522
  124OSM    C4S13189   0.536   6.975   6.832 -0.2043 -0.2588  0.5413
  124OSM    H4S13190   0.522   6.876   6.878 -1.9771 -0.2752  0.0499
  124OSM    C5S13191   0.545   7.088   6.904 -0.5968 -0.4728 -0.2255
  124OSM    H5S13192   0.568   7.182   6.853  1.2925 -0.5549  0.3929
  124OSM    C6S13193   0.523   7.102   7.058  0.0885  0.3487 -0.0171
  124OSM    H6S13194   0.485   7.007   7.102  0.0563  1.4684  2.5590
  124OSM    H6T13195   0.440   7.174   7.071  0.7800  0.9601  1.2527
  124OSM    C7S13196   0.645   7.147   7.138  0.1691  0.3116 -0.3415
  124OSM    H7S13197   0.698   7.227   7.082 -0.1564  2.3111  2.0337
  124OSM    H7T13198   0.727   7.075   7.156  0.5652  0.8594  0.0627
  124OSM    C8S13199   0.607   7.203   7.282 -0.2685  0.0285 -0.4006
  124OSM    H8S13200   0.576   7.309   7.279  0.6061  0.4811  2.9989
  124OSM    H8T13201   0.695   7.215   7.349 -0.7203 -2.5509  0.7817
  124OSM    C9S13202   0.504   7.125   7.372 -0.3441 -0.5385 -0.1025
  124OSM    H9S13203   0.522   7.015   7.365 -1.2946 -0.7870  1.0876
  124OSM    H9T13204   0.403   7.133   7.326  0.0937  0.8941 -0.8808
  124OSM   C10S13205   0.501   7.168   7.524 -1.0611  0.1878  0.3622
  124OSM   H10S13206   0.482   7.277   7.532  2.1965  0.7585  1.9411
  124OSM   H10T13207   0.604   7.144   7.557  0.0696  2.2592 -1.3537
  124OSM   C11S13208   0.396   7.095   7.606 -0.0853  0.2862  0.2271
  124OSM   H11S13209   0.399   6.992   7.566 -2.7601  1.1718 -2.5680
  124OSM   H11T13210   0.297   7.142   7.585 -0.1818  0.4395  0.9827
  124OSM   C12S13211   0.435   7.089   7.753 -0.2469 -0.9141  0.6674
  124OSM   H12S13212   0.432   7.194   7.791 -1.4836 -0.7886  0.2542
  124OSM   H12T13213   0.539   7.056   7.773 -0.9602 -1.5673  3.7754
  124OSM   C13S13214   0.338   7.008   7.828  0.1312 -0.6366  0.4997
  124OSM   H13S13215   0.349   6.909   7.780  1.9716  0.4107 -1.4149
  124OSM   H13T13216   0.238   7.055   7.820 -0.1856 -1.0846  1.6255
  124OSM   C14S13217   0.363   6.998   7.982 -0.3785  1.2187  0.2505
  124OSM   H14S13218   0.370   7.094   8.037  1.0600  0.2454  1.8903
  124OSM   H14T13219   0.454   6.939   8.007 -0.6577  1.7633  2.8199
  124OSM   C15S13220   0.253   6.922   8.062 -0.5132  0.0905 -0.3622
  124OSM   H15S13221   0.242   6.825   8.008  1.6018  0.2640 -1.2043
  124OSM   H15T13222   0.161   6.983   8.054 -0.3094  0.3430 -0.8949
  124OSM   C16S13223   0.289   6.895   8.205 -0.4177  0.9057 -0.8145
  124OSM   H16S13224   0.305   6.981   8.273  1.1894  1.4202 -1.7867
  124OSM   H16T13225   0.390   6.849   8.199 -0.5734  0.4853 -0.3465
  124OSM   C17S13226   0.189   6.811   8.291 -0.1616  0.2559  0.3883
  124OSM   H17S13227   0.163   6.712   8.247 -2.5735  0.9237  0.1513
  124OSM   H17T13228   0.093   6.867   8.287 -0.2957  0.2380  2.3781
  124OSM   C18S13229   0.239   6.790   8.432 -0.5546 -0.6031  0.2484
  124OSM   H18S13230   0.171   6.725   8.491 -0.4789 -2.2519 -1.3918
  124OSM   H18T13231   0.256   6.883   8.489 -3.9031  0.3147 -0.0388
  124OSM   H18U13232   0.335   6.736   8.418 -1.0229 -0.9193 -2.2482
  124OSM    C1F13233   0.181   6.928   6.583 -0.1267  0.4198  0.0037
  124OSM     OF13234   0.165   6.831   6.507 -0.4565 -0.0076  0.2913
  124OSM    C2F13235   0.058   7.014   6.612 -0.2119 -0.7346 -0.6749
  124OSM    H2F13236  -0.013   7.005   6.527 -1.3593 -0.1828  0.2015
  124OSM    H2G13237   0.096   7.118   6.605 -0.6548 -0.5949 -1.1034
  124OSM    C3F13238   0.000   6.986   6.755  0.4669  0.0128  0.6470
  124OSM    H3F13239  -0.022   6.878   6.766 -0.1401  0.2376  1.7167
  124OSM    H3G13240  -0.092   7.046   6.773 -0.6240 -0.7296 -1.9749
  124OSM    C4F13241   0.098   7.004   6.885  0.3020 -0.1114  0.6177
  124OSM    H4F13242   0.170   7.081   6.850 -0.3784  0.3017  0.1089
  124OSM    H4G13243   0.156   6.910   6.891 -0.0987 -0.3838  0.2861
  124OSM    C5F13244   0.027   7.062   7.004  0.3825  0.0552 -0.2338
  124OSM    H5F13245  -0.061   7.003   7.039  1.0393  0.0470  1.5248
  124OSM    H5G13246  -0.028   7.157   6.987 -1.0134 -0.2397  2.0844
  124OSM    C6F13247   0.123   7.084   7.120 -0.7193  0.3385 -0.1120
  124OSM    H6F13248   0.207   7.145   7.080 -1.9801  1.0124 -1.8346
  124OSM    H6G13249   0.170   6.987   7.148  2.3397  1.5079 -0.7717
  124OSM    C7F13250   0.059   7.138   7.249  0.5011 -0.4530 -0.1303
  124OSM    H7F13251   0.123   7.113   7.337 -0.5807  1.5450  1.3229
  124OSM    H7G13252  -0.033   7.077   7.263  0.1085 -0.2493 -1.7151
  124OSM    C8F13253   0.027   7.290   7.258 -0.4094  1.1873 -0.0187
  124OSM    H8F13254  -0.040   7.304   7.346  0.5611 -1.8931  1.3465
  124OSM    H8G13255  -0.036   7.311   7.169  3.0853 -0.1253 -3.0819
  124OSM    C9F13256   0.149   7.375   7.269 -0.0518  0.2334  0.3729
  124OSM    H9F13257   0.205   7.373   7.175  1.2247  3.1380  0.9706
  124OSM   C10F13258   0.193   7.434   7.376 -0.0947  0.5471  0.6057
  124OSM   H10F13259   0.275   7.507   7.375  0.2190  0.4159  3.9437
  124OSM   C11F13260   0.123   7.438   7.508  0.2810 -0.7874  0.1516
  124OSM   H11F13261   0.049   7.356   7.524  1.4042 -1.4799  2.1998
  124OSM   H11G13262   0.075   7.538   7.510 -1.8677 -1.7287 -0.8794
  124OSM   C12F13263   0.217   7.432   7.633 -0.1284  0.4313 -0.1046
  124OSM   H12F13264   0.288   7.517   7.640  1.8492 -1.0433 -1.3571
  124OSM   H12G13265   0.277   7.339   7.642 -1.8106 -0.7333 -0.4939
  124OSM   C13F13266   0.143   7.432   7.771 -1.0598  0.1881  0.3353
  124OSM   H13F13267   0.064   7.355   7.763 -3.2651  2.0477  2.6839
  124OSM   H13G13268   0.105   7.536   7.778  1.2510  1.0313  1.4937
  124OSM   C14F13269   0.237   7.402   7.889  0.4511 -0.0258  0.0627
  124OSM   H14F13270   0.327   7.466   7.878 -0.8919  2.0597  0.8215
  124OSM   H14G13271   0.271   7.296   7.891  0.9121  0.1182 -0.0822
  124OSM   C15F13272   0.156   7.428   8.018 -1.1488  1.2272 -0.6562
  124OSM   H15F13273   0.054   7.383   8.014  0.2915 -2.2368 -1.2386
  124OSM   H15G13274   0.153   7.536   8.048 -1.0287  0.4692  2.4992
  124OSM   C16F13275   0.230   7.350   8.138 -0.0261 -0.0371  0.9125
  124OSM   H16F13276   0.331   7.395   8.139 -1.9749  4.9621  0.7844
  124OSM   H16G13277   0.240   7.248   8.095 -0.5969  0.2921 -0.0429
  124OSM   C17F13278   0.170   7.352   8.280 -0.1991 -0.7261 -0.2327
  124OSM   H17F13279   0.095   7.270   8.287 -0.4818 -0.4143  0.4560
  124OSM   H17G13280   0.118   7.450   8.276  0.3601 -0.3573  1.1102
  124OSM   C18F13281   0.260   7.345   8.396 -0.1787  0.3277  0.1247
  124OSM   H18F13282   0.205   7.321   8.489  0.4869 -1.8760  0.0079
  124OSM   H18G13283   0.308   7.445   8.399  0.3281  0.0892  3.0091
  124OSM   H18H13284   0.332   7.261   8.384 -0.4512  0.0181  0.6448
  125OSM      N13285   5.712   0.803   6.267  0.1876 -0.1680 -0.4332
  125OSM    C1513286   5.778   0.669   6.236  0.1508  0.1095  0.4084
  125OSM   H15A13287   5.880   0.668   6.272  0.0637  2.0241  0.8218
  125OSM   H15B13288   5.772   0.636   6.134  2.3206 -0.3687  0.3946
  125OSM   H15C13289   5.728   0.600   6.303 -1.8481  1.9133  0.8926
  125OSM    C1413290   5.800   0.912   6.211 -0.7808 -0.7261  0.6005
  125OSM   H14A13291   5.902   0.894   6.240 -0.4803  2.3662  1.8917
  125OSM   H14B13292   5.762   1.009   6.241  0.6289 -0.0866  0.3901
  125OSM   H14C13293   5.785   0.916   6.104 -0.8769  1.9634  0.6324
  125OSM    C1313294   5.583   0.812   6.198  0.4291  0.5447 -0.4622
  125OSM   H13A13295   5.520   0.735   6.238  1.3840  0.8316  1.7980
  125OSM   H13B13296   5.598   0.806   6.091 -0.2993 -0.9622 -0.4964
  125OSM   H13C13297   5.539   0.909   6.218  0.2775  0.0953  1.6288
  125OSM    C1213298   5.683   0.831   6.408  0.3844  0.4684 -0.3566
  125OSM   H12A13299   5.656   0.934   6.427  2.6388  1.1706 -0.6644
  125OSM   H12B13300   5.773   0.814   6.466  0.4149 -0.5032 -0.6797
  125OSM    C1113301   5.572   0.744   6.476 -0.5272 -0.1696  0.8224
  125OSM   H11A13302   5.469   0.774   6.447 -0.2197 -1.9691 -2.7994
  125OSM   H11B13303   5.594   0.769   6.582 -0.3088  0.7639  0.5717
  125OSM      P13304   5.491   0.501   6.387  0.0468  0.0449  0.3393
  125OSM    O1313305   5.389   0.576   6.306 -0.0329 -0.3195 -0.4005
  125OSM    O1413306   5.567   0.392   6.320 -0.4889  0.5362  0.4407
  125OSM    O1113307   5.410   0.448   6.517 -0.4957  0.3922  0.1261
  125OSM    O1213308   5.594   0.605   6.464 -0.4087 -0.0434  0.0200
  125OSM    C1S13309   5.482   0.390   6.628 -0.4286 -0.7603 -0.1379
  125OSM    H1S13310   5.503   0.474   6.698 -0.5656  0.2642 -1.2723
  125OSM    H1T13311   5.578   0.339   6.607 -1.1772 -1.9107 -0.8751
  125OSM     NF13312   5.443   0.268   6.834  0.4069 -0.2250 -0.3477
  125OSM    HNF13313   5.464   0.173   6.858 -0.2827  0.3655  3.0309
  125OSM    C2S13314   5.391   0.292   6.698  0.6422  0.5155  0.4492
  125OSM    H2S13315   5.291   0.340   6.707  0.0807 -0.3554 -0.9033
  125OSM    C3S13316   5.372   0.164   6.627 -0.8276  0.4754 -0.2150
  125OSM    H3S13317   5.470   0.110   6.629 -0.5522  0.9732 -0.2354
  125OSM     O313318   5.340   0.171   6.490  0.1246 -0.1192  0.0176
  125OSM    HO313319   5.361   0.261   6.464 -1.5615 -0.4197 -2.7556
  125OSM    C4S13320   5.267   0.084   6.696  0.0849 -0.4193  0.2208
  125OSM    H4S13321   5.171   0.134   6.677  0.5365 -0.0618 -1.2153
  125OSM    C5S13322   5.269  -0.026   6.760 -0.3948 -0.0758  0.2823
  125OSM    H5S13323   5.366  -0.078   6.773 -0.5320 -0.1872  0.9051
  125OSM    C6S13324   5.143  -0.080   6.823 -0.0577 -0.6237  0.3854
  125OSM    H6S13325   5.163  -0.183   6.859 -0.4887 -0.6545  0.5458
  125OSM    H6T13326   5.072  -0.099   6.740 -1.2622 -1.8972  1.6581
  125OSM    C7S13327   5.069   0.012   6.927 -0.1837 -0.9768 -0.0423
  125OSM    H7S13328   4.986  -0.056   6.956 -1.5082 -0.3090 -2.0889
  125OSM    H7T13329   5.025   0.107   6.891 -0.3297 -0.3810  1.6011
  125OSM    C8S13330   5.144   0.048   7.055 -0.2487  0.0947 -0.3256
  125OSM    H8S13331   5.242   0.096   7.039  1.0028 -1.5246  1.8576
  125OSM    H8T13332   5.177  -0.050   7.095  0.3250 -0.4141 -1.9897
  125OSM    C9S13333   5.053   0.117   7.155  0.5960 -0.5245 -0.6644
  125OSM    H9S13334   4.954   0.069   7.169  1.4087 -1.8557  0.8950
  125OSM    H9T13335   5.028   0.216   7.110  0.4116 -0.3279 -0.1389
  125OSM   C10S13336   5.116   0.136   7.295 -0.0995 -0.4863 -0.1147
  125OSM   H10S13337   5.201   0.205   7.274 -1.5493  1.4328  0.0554
  125OSM   H10T13338   5.165   0.044   7.334  0.3390  0.1629  0.9102
  125OSM   C11S13339   5.025   0.203   7.396  0.7003 -0.0746  0.0340
  125OSM   H11S13340   4.944   0.132   7.424  1.3739 -1.3505 -1.1116
  125OSM   H11T13341   4.980   0.298   7.360 -0.6494 -0.9322 -0.6436
  125OSM   C12S13342   5.110   0.238   7.526 -0.8635  0.1271  0.9030
  125OSM   H12S13343   5.176   0.325   7.506 -2.5918  0.9445 -1.9311
  125OSM   H12T13344   5.165   0.147   7.557 -0.5612 -0.2810 -0.7289
  125OSM   C13S13345   5.025   0.290   7.640 -0.8191 -0.2163  0.3198
  125OSM   H13S13346   4.950   0.359   7.597 -0.3870  0.2246  0.2651
  125OSM   H13T13347   5.086   0.350   7.711 -1.2105  1.4913 -0.7331
  125OSM   C14S13348   4.945   0.176   7.698  0.3193 -0.6192 -0.6746
  125OSM   H14S13349   5.013   0.091   7.723  1.5448  0.7775  0.9997
  125OSM   H14T13350   4.877   0.142   7.617 -0.8011  0.1970 -0.1044
  125OSM   C15S13351   4.870   0.218   7.832 -1.0954 -0.2848 -0.5298
  125OSM   H15S13352   4.762   0.199   7.813 -1.7212  1.8246  0.7318
  125OSM   H15T13353   4.887   0.327   7.847 -1.2292 -0.3143 -0.1755
  125OSM   C16S13354   4.931   0.119   7.940 -0.3232  0.1819  0.1057
  125OSM   H16S13355   4.913   0.014   7.908 -0.7121  0.8183 -1.8942
  125OSM   H16T13356   4.880   0.141   8.037  0.1460  1.7679  0.0139
  125OSM   C17S13357   5.079   0.144   7.977 -0.0071  0.4490 -0.2369
  125OSM   H17S13358   5.083   0.249   8.014 -2.5423  0.4792  0.1285
  125OSM   H17T13359   5.147   0.143   7.889 -1.2970 -0.5661 -1.2679
  125OSM   C18S13360   5.135   0.051   8.083  0.0695  0.0398 -0.3471
  125OSM   H18S13361   5.161  -0.052   8.051 -2.3474 -1.0105  0.8145
  125OSM   H18T13362   5.057   0.037   8.161  0.0042  1.4885 -0.1278
  125OSM   H18U13363   5.218   0.102   8.137 -2.0981  0.5309  2.8312
  125OSM    C1F13364   5.458   0.371   6.924  0.4493  0.3341 -0.6719
  125OSM     OF13365   5.398   0.476   6.917 -0.0573 -0.5701  0.0041
  125OSM    C2F13366   5.549   0.337   7.039  0.7759 -0.3019 -0.5877
  125OSM    H2F13367   5.630   0.413   7.025  0.5152  0.7560  2.6754
  125OSM    H2G13368   5.583   0.232   7.028  1.8267  0.1687 -2.1685
  125OSM    C3F13369   5.478   0.354   7.174 -0.3780  0.2689 -0.6576
  125OSM    H3F13370   5.394   0.285   7.193  0.1914  0.2893  2.3677
  125OSM    H3G13371   5.429   0.452   7.190  0.2927  0.6669 -0.9603
  125OSM    C4F13372   5.578   0.351   7.289  0.2756 -0.0335  0.2813
  125OSM    H4F13373   5.655   0.431   7.282  1.4614 -1.1430  0.2254
  125OSM    H4G13374   5.644   0.263   7.304  2.6694  1.7212  0.7474
  125OSM    C5F13375   5.509   0.389   7.423  0.1815  0.4501 -0.8298
  125OSM    H5F13376   5.429   0.314   7.440  0.2160  0.2611 -1.4927
  125OSM    H5G13377   5.469   0.493   7.423 -0.5484  0.1787 -0.2508
  125OSM    C6F13378   5.604   0.370   7.545 -0.3670 -0.4965  0.2332
  125OSM    H6F13379   5.705   0.402   7.511 -0.2501  1.0828  1.8691
  125OSM    H6G13380   5.620   0.262   7.565 -0.9306 -0.6602 -0.1923
  125OSM    C7F13381   5.571   0.461   7.661  0.3554  0.1589  0.1454
  125OSM    H7F13382   5.561   0.565   7.623 -0.8639  0.9186  2.3409
  125OSM    H7G13383   5.653   0.457   7.735 -0.2874  3.1111  1.1123
  125OSM    C8F13384   5.426   0.444   7.726 -0.2617 -0.4495  0.3766
  125OSM    H8F13385   5.354   0.480   7.650  0.9796 -0.2148 -0.7385
  125OSM    H8G13386   5.416   0.510   7.815 -2.5639 -1.7579  1.1621
  125OSM    C9F13387   5.396   0.300   7.768  0.3040 -0.3846 -0.7555
  125OSM    H9F13388   5.356   0.232   7.692  0.2800 -0.9386 -0.2488
  125OSM   C10F13389   5.410   0.251   7.896 -0.0545 -0.3887  0.0925
  125OSM   H10F13390   5.370   0.153   7.926 -0.5310  0.4160  2.2824
  125OSM   C11F13391   5.455   0.324   8.015  0.2861 -0.5721  0.3208
  125OSM   H11F13392   5.498   0.425   7.996 -2.3037  0.5270 -0.2124
  125OSM   H11G13393   5.540   0.267   8.058  0.2305  0.9057  2.5928
  125OSM   C12F13394   5.354   0.360   8.125  0.1443 -0.3336  0.6473
  125OSM   H12F13395   5.282   0.276   8.134  1.1358 -1.3738 -0.6472
  125OSM   H12G13396   5.300   0.448   8.083 -0.3247 -0.2731  1.3658
  125OSM   C13F13397   5.407   0.409   8.262 -0.4635 -0.1865  0.4542
  125OSM   H13F13398   5.464   0.504   8.248  0.0196 -0.0390  2.8862
  125OSM   H13G13399   5.459   0.330   8.321 -1.5284  0.6770  2.7037
  125OSM   C14F13400   5.292   0.459   8.351 -0.4824 -0.1295  0.1400
  125OSM   H14F13401   5.235   0.365   8.365 -0.0150 -0.4280  0.0805
  125OSM   H14G13402   5.222   0.522   8.292 -0.5258 -0.7583 -0.5060
  125OSM   C15F13403   5.330   0.513   8.484  0.0266  0.0362  0.0020
  125OSM   H15F13404   5.418   0.580   8.473 -1.1727  1.9536  1.3462
  125OSM   H15G13405   5.346   0.422   8.546  0.5001  0.8492  1.0971
  125OSM   C16F13406   5.226   0.596   8.546 -0.2627 -0.0011 -0.2801
  125OSM   H16F13407   5.142   0.526   8.563  0.9246 -1.0297  1.7522
  125OSM   H16G13408   5.188   0.667   8.469  0.4426 -0.5376 -1.1442
  125OSM   C17F13409   5.262   0.657   8.683  0.0161  0.4339  0.3654
  125OSM   H17F13410   5.179   0.727   8.709 -0.3221  1.0075 -2.0695
  125OSM   H17G13411   5.353   0.720   8.675  0.0510  0.6757  2.1165
  125OSM   C18F13412   5.283   0.549   8.794  0.1712 -0.6726 -0.2516
  125OSM   H18F13413   5.366   0.482   8.763 -0.4795 -0.8571 -1.6467
  125OSM   H18G13414   5.191   0.487   8.801 -0.4592  0.3769  1.6609
  125OSM   H18H13415   5.292   0.579   8.901 -1.1158  0.0397 -0.3258
  126OSM      N13416   3.549   6.723   6.397 -0.4830 -0.0538  0.7475
  126OSM    C1513417   3.559   6.876   6.379 -0.6712  0.6527  0.8297
  126OSM   H15A13418   3.470   6.900   6.322 -0.6041 -0.7289  0.0894
  126OSM   H15B13419   3.649   6.892   6.321 -1.6762  0.0490 -0.9903
  126OSM   H15C13420   3.563   6.920   6.477 -1.4820 -0.8274  1.5732
  126OSM    C1413421   3.520   6.672   6.261  0.0703 -0.2604 -0.5276
  126OSM   H14A13422   3.587   6.707   6.184  1.9735 -2.7342 -0.1370
  126OSM   H14B13423   3.417   6.689   6.234 -0.0784  2.6222  1.4824
  126OSM   H14C13424   3.540   6.566   6.271 -1.0557 -0.3135  1.6713
  126OSM    C1313425   3.680   6.664   6.436 -0.0144 -0.3028  0.5564
  126OSM   H13A13426   3.757   6.694   6.366  0.0364 -0.9776  0.3154
  126OSM   H13B13427   3.671   6.557   6.433  1.3299 -0.5146  2.3345
  126OSM   H13C13428   3.712   6.693   6.535 -1.1548 -0.8229  1.0968
  126OSM    C1213429   3.438   6.682   6.484 -0.4032 -0.0919 -0.6574
  126OSM   H12A13430   3.444   6.574   6.488  0.7884 -0.1770 -3.1329
  126OSM   H12B13431   3.349   6.706   6.428  0.0272  0.4601 -1.1095
  126OSM    C1113432   3.428   6.740   6.631 -0.2680  0.2432 -0.3178
  126OSM   H11A13433   3.532   6.716   6.663  0.7658  0.9336 -2.8777
  126OSM   H11B13434   3.353   6.681   6.687 -0.1765  0.1751 -0.2656
  126OSM      P13435   3.253   6.932   6.596 -0.1738 -0.0457 -0.2743
  126OSM    O1313436   3.255   7.075   6.561 -0.0675 -0.0905  0.1676
  126OSM    O1413437   3.185   6.832   6.507 -0.1944 -0.0210  0.4356
  126OSM    O1113438   3.201   6.925   6.744  0.2404  0.5409  0.2263
  126OSM    O1213439   3.404   6.880   6.625  0.3491 -0.7256 -0.1501
  126OSM    C1S13440   3.268   7.015   6.845 -0.0891  0.3448  0.2719
  126OSM    H1S13441   3.232   7.119   6.826 -1.7550 -0.1672  0.4100
  126OSM    H1T13442   3.378   7.003   6.840  0.2661  2.2934  2.0837
  126OSM     NF13443   3.277   7.052   7.078  0.1349  0.0727 -0.1872
  126OSM    HNF13444   3.353   7.016   7.131  0.2680  1.3279  0.5265
  126OSM    C2S13445   3.216   6.968   6.981 -0.5951 -0.1324 -0.3495
  126OSM    H2S13446   3.106   6.985   6.983 -1.0255 -2.5534  0.6652
  126OSM    C3S13447   3.245   6.817   7.003  0.1461  0.1408 -0.2819
  126OSM    H3S13448   3.351   6.791   7.026  0.4663  0.9426 -0.8086
  126OSM     O313449   3.203   6.716   6.905 -0.1212  0.3150  0.0408
  126OSM    HO313450   3.167   6.767   6.832 -0.4972  1.3606  0.9153
  126OSM    C4S13451   3.177   6.785   7.133 -0.1133 -0.6422 -0.0835
  126OSM    H4S13452   3.244   6.790   7.220  1.0623  0.7594 -1.0276
  126OSM    C5S13453   3.050   6.746   7.151 -0.8391 -0.4228  0.2867
  126OSM    H5S13454   2.990   6.738   7.059 -1.6048  0.8047  0.6514
  126OSM    C6S13455   2.980   6.709   7.281  0.0331  0.4289 -0.1601
  126OSM    H6S13456   2.930   6.610   7.278 -1.7457  1.3087 -1.1536
  126OSM    H6T13457   2.903   6.788   7.294 -2.2508 -1.5865 -0.7182
  126OSM    C7S13458   3.060   6.710   7.411 -0.5159 -0.4471  0.8969
  126OSM    H7S13459   3.114   6.806   7.419 -1.7659  0.3135  0.5172
  126OSM    H7T13460   3.144   6.639   7.397  1.4872  1.6295  1.8087
  126OSM    C8S13461   2.978   6.671   7.528  0.1689 -0.1806 -0.4171
  126OSM    H8S13462   2.951   6.565   7.508  2.4456 -1.0047  0.4758
  126OSM    H8T13463   2.897   6.747   7.530  0.0307 -0.3372 -0.0043
  126OSM    C9S13464   3.060   6.687   7.655 -0.5258 -0.7507  0.3583
  126OSM    H9S13465   3.088   6.794   7.664 -2.0152 -0.0073 -2.4430
  126OSM    H9T13466   3.148   6.620   7.662  0.4043  0.3443 -0.3513
  126OSM   C10S13467   2.980   6.671   7.786  0.3039  0.0289 -0.3306
  126OSM   H10S13468   2.940   6.567   7.780  1.0352 -0.2034 -1.4161
  126OSM   H10T13469   2.896   6.743   7.772 -1.4251 -1.8513 -0.1229
  126OSM   C11S13470   3.060   6.701   7.904  0.0204  0.1499  0.0059
  126OSM   H11S13471   3.118   6.795   7.893  1.1704 -0.3595  1.4066
  126OSM   H11T13472   3.138   6.621   7.901  0.0371  0.1875 -0.6117
  126OSM   C12S13473   2.974   6.684   8.031  0.1370  0.1586  0.4463
  126OSM   H12S13474   2.908   6.597   8.010  1.6735 -0.6658 -1.2205
  126OSM   H12T13475   2.906   6.769   8.053 -1.9874 -1.2078 -0.5202
  126OSM   C13S13476   3.074   6.647   8.143 -0.0219  1.2286 -0.2118
  126OSM   H13S13477   3.162   6.714   8.154  1.7044 -1.0772  0.7831
  126OSM   H13T13478   3.125   6.555   8.109  1.2861  1.2024  1.6771
  126OSM   C14S13479   3.012   6.606   8.284  0.0279 -0.9639  0.5630
  126OSM   H14S13480   3.078   6.535   8.338  0.7137 -0.2647  0.6552
  126OSM   H14T13481   2.921   6.547   8.258 -0.7982  0.6888 -0.4357
  126OSM   C15S13482   2.987   6.724   8.379  0.3098  0.3127  0.6282
  126OSM   H15S13483   2.910   6.686   8.450  0.2863 -1.1929 -0.1634
  126OSM   H15T13484   2.947   6.812   8.323  0.4482 -0.3446 -0.5393
  126OSM   C16S13485   3.116   6.757   8.458 -0.5638  1.2341  0.5240
  126OSM   H16S13486   3.196   6.741   8.382  0.1320  0.1660  1.4664
  126OSM   H16T13487   3.127   6.681   8.538 -1.4029  0.6585  0.1086
  126OSM   C17S13488   3.123   6.893   8.526 -0.4043  0.1945  0.1098
  126OSM   H17S13489   3.095   6.967   8.448  2.5449  0.0340 -1.1906
  126OSM   H17T13490   3.224   6.906   8.569  0.7150 -4.8543 -0.3729
  126OSM   C18S13491   3.023   6.917   8.644 -0.3507  0.0472 -1.0189
  126OSM   H18S13492   3.027   7.026   8.668  1.4159 -0.1600 -0.2060
  126OSM   H18T13493   3.054   6.852   8.728  1.3007  0.6843 -1.1007
  126OSM   H18U13494   2.922   6.890   8.606  0.6756 -0.8235 -3.2946
  126OSM    C1F13495   3.229   7.172   7.108  0.4545  0.1964 -0.1005
  126OSM     OF13496   3.137   7.216   7.042 -0.2924  0.0520  0.3296
  126OSM    C2F13497   3.300   7.243   7.226 -0.6772 -0.0845  0.1581
  126OSM    H2F13498   3.359   7.325   7.181 -1.0206  0.3000  0.3967
  126OSM    H2G13499   3.382   7.179   7.264  2.4845  2.0067 -2.5898
  126OSM    C3F13500   3.195   7.292   7.324 -0.9831  0.1912 -0.0271
  126OSM    H3F13501   3.165   7.200   7.377  0.6623 -0.4422 -0.1442
  126OSM    H3G13502   3.104   7.336   7.278  0.7368  0.7247 -3.1932
  126OSM    C4F13503   3.259   7.381   7.436 -0.1097 -0.1954 -0.0641
  126OSM    H4F13504   3.269   7.475   7.377 -0.3464 -0.6675 -0.8604
  126OSM    H4G13505   3.362   7.345   7.458  0.9707  0.1155 -3.8420
  126OSM    C5F13506   3.168   7.397   7.558 -0.4233 -0.4141  0.2981
  126OSM    H5F13507   3.180   7.313   7.630 -0.3494 -0.8904 -0.2683
  126OSM    H5G13508   3.063   7.395   7.522 -0.5499  3.5354 -0.0550
  126OSM    C6F13509   3.184   7.523   7.640 -0.1007 -0.7913 -0.2671
  126OSM    H6F13510   3.135   7.519   7.740  1.7328  1.0588  0.7943
  126OSM    H6G13511   3.143   7.609   7.583  0.0156 -1.3188 -1.1530
  126OSM    C7F13512   3.340   7.538   7.675  0.2308  0.8910 -0.5786
  126OSM    H7F13513   3.390   7.573   7.582  1.1819 -0.6770 -0.6843
  126OSM    H7G13514   3.382   7.439   7.699 -1.7843  0.3266  0.8234
  126OSM    C8F13515   3.374   7.624   7.799  0.1259 -0.4759 -0.0807
  126OSM    H8F13516   3.347   7.731   7.782  0.7566 -0.3287 -0.1802
  126OSM    H8G13517   3.483   7.606   7.808  0.0514 -0.0717  2.4401
  126OSM    C9F13518   3.300   7.561   7.917 -0.1086  0.3337 -0.2097
  126OSM    H9F13519   3.303   7.451   7.907 -1.6908  0.1712  0.7862
  126OSM   C10F13520   3.241   7.618   8.024 -0.5411 -0.0452  0.0086
  126OSM   H10F13521   3.189   7.545   8.087  1.4926 -3.0132 -1.4924
  126OSM   C11F13522   3.227   7.769   8.042 -0.3574 -0.0108 -1.0170
  126OSM   H11F13523   3.122   7.787   8.073  0.2719  0.8112  0.7694
  126OSM   H11G13524   3.237   7.819   7.944 -0.6894  2.0139 -0.0587
  126OSM   C12F13525   3.329   7.835   8.133  0.3309 -0.2573  0.2124
  126OSM   H12F13526   3.431   7.803   8.101  0.1721  0.2989 -0.8882
  126OSM   H12G13527   3.322   7.808   8.241  0.2058  0.5730  0.4223
  126OSM   C13F13528   3.326   7.990   8.124  0.9782  0.1099  0.1484
  126OSM   H13F13529   3.222   8.023   8.143  1.3479  0.8945  0.8306
  126OSM   H13G13530   3.360   8.030   8.026 -1.2840 -1.1797 -1.2424
  126OSM   C14F13531   3.403   8.049   8.246  0.2319  0.2904 -0.0391
  126OSM   H14F13532   3.388   7.977   8.329 -1.3930  1.1343  0.4392
  126OSM   H14G13533   3.361   8.144   8.285  1.1380  0.7113 -0.0627
  126OSM   C15F13534   3.553   8.049   8.215 -0.5358 -0.6128  0.0744
  126OSM   H15F13535   3.583   8.124   8.138  1.3597 -0.4278  0.9381
  126OSM   H15G13536   3.573   7.954   8.161 -0.8548 -1.2949  1.1343
  126OSM   C16F13537   3.643   8.042   8.334 -0.3602 -0.4547 -0.1195
  126OSM   H16F13538   3.593   8.086   8.423  0.1027 -1.1294  0.4831
  126OSM   H16G13539   3.732   8.105   8.317 -1.2609  0.9674  0.2471
  126OSM   C17F13540   3.700   7.895   8.363  0.4539 -0.0481  0.2607
  126OSM   H17F13541   3.769   7.867   8.281  0.5647 -2.7365  1.1660
  126OSM   H17G13542   3.614   7.825   8.356  1.8121 -1.7172 -0.3410
  126OSM   C18F13543   3.779   7.888   8.490  0.2160  0.5413  0.0045
  126OSM   H18F13544   3.805   7.781   8.508 -0.3650  0.2315 -0.8717
  126OSM   H18G13545   3.714   7.920   8.574  0.9536  1.2453  0.3149
  126OSM   H18H13546   3.871   7.950   8.490  0.1622  0.7178 -2.3499
  127OSM      N13547   0.052   5.281   6.019  0.0365 -0.4044  0.2007
  127OSM    C1513548   0.051   5.137   5.982 -0.0385 -0.7591  0.0328
  127OSM   H15A13549   0.015   5.118   5.882  2.6191 -3.2054 -0.6014
  127OSM   H15B13550  -0.009   5.090   6.058 -0.1118 -1.8176 -0.6626
  127OSM   H15C13551   0.148   5.091   5.991  0.2026 -0.2986 -0.1399
  127OSM    C1413552   0.143   5.355   5.929  0.4115  0.1512  0.3175
  127OSM   H14A13553   0.107   5.370   5.828  3.3219  0.4415 -0.7834
  127OSM   H14B13554   0.236   5.300   5.926 -0.8243 -2.0953  1.1925
  127OSM   H14C13555   0.159   5.458   5.959 -2.7428  1.5214 -2.0578
  127OSM    C1313556  -0.087   5.340   5.992  0.0656  0.4855  0.1415
  127OSM   H13A13557  -0.119   5.305   5.894  1.9722  0.2631 -0.4504
  127OSM   H13B13558  -0.096   5.447   5.995 -3.4541  0.3111 -0.1183
  127OSM   H13C13559  -0.153   5.293   6.064 -1.5438 -2.1646 -2.7946
  127OSM    C1213560   0.102   5.294   6.157  0.1201  0.2685 -0.2482
  127OSM   H12A13561   0.094   5.401   6.174 -0.7414  0.1719 -0.0075
  127OSM   H12B13562   0.205   5.264   6.170 -0.7036 -2.2741  1.0247
  127OSM    C1113563   0.032   5.215   6.273  0.1842  0.2346 -0.5241
  127OSM   H11A13564  -0.068   5.262   6.285  0.9434  1.4882  1.3119
  127OSM   H11B13565   0.082   5.239   6.370 -0.3690  3.8517 -1.0099
  127OSM      P13566   0.129   4.965   6.297 -0.2261  0.0417 -0.0081
  127OSM    O1313567   0.109   4.849   6.201 -0.3384 -0.2415 -0.1928
  127OSM    O1413568   0.265   5.029   6.299  0.0354 -0.0574  0.5689
  127OSM    O1113569   0.088   4.923   6.438  0.6913 -0.4499 -0.7544
  127OSM    O1213570   0.019   5.073   6.255  0.2914  0.0866  0.6017
  127OSM    C1S13571  -0.045   4.862   6.446 -0.2569  0.6610  0.8078
  127OSM    H1S13572  -0.043   4.762   6.397  0.2588  1.2151 -0.3316
  127OSM    H1T13573  -0.121   4.919   6.390  1.6729  0.0814 -2.6804
  127OSM     NF13574  -0.158   4.730   6.620 -0.4858  1.0736  0.3565
  127OSM    HNF13575  -0.249   4.739   6.579  0.5295  1.6822 -1.9418
  127OSM    C2S13576  -0.076   4.842   6.601  0.1668 -0.2103  0.3622
  127OSM    H2S13577   0.017   4.826   6.659 -0.6073 -0.6611  1.5130
  127OSM    C3S13578  -0.132   4.979   6.653  0.1518  0.5666  0.8548
  127OSM    H3S13579  -0.219   5.013   6.593 -0.9394 -3.2633 -0.0387
  127OSM     O313580  -0.041   5.092   6.653 -0.6195 -0.1985  0.1562
  127OSM    HO313581   0.035   5.067   6.601 -0.4864 -2.5721  1.3498
  127OSM    C4S13582  -0.187   4.962   6.796 -0.3763  0.2278  0.0414
  127OSM    H4S13583  -0.294   4.937   6.798  0.0995 -2.3901 -1.8474
  127OSM    C5S13584  -0.109   4.968   6.906  0.5892 -0.1468 -0.1328
  127OSM    H5S13585  -0.000   4.984   6.913  0.5317 -0.4480  2.1500
  127OSM    C6S13586  -0.162   4.935   7.044 -0.1521  0.2083 -0.1524
  127OSM    H6S13587  -0.187   4.827   7.056 -2.6652  0.8273  0.8465
  127OSM    H6T13588  -0.256   4.990   7.065 -0.5646 -1.2696  2.3512
  127OSM    C7S13589  -0.077   4.977   7.161  0.1626  0.5931 -0.0209
  127OSM    H7S13590  -0.070   5.088   7.165 -0.5879  0.6977 -1.0598
  127OSM    H7T13591   0.020   4.923   7.160 -0.8655 -1.6049  3.2368
  127OSM    C8S13592  -0.139   4.920   7.295  0.3197 -0.0065  1.3723
  127OSM    H8S13593  -0.144   4.810   7.285  0.7718 -0.0347  1.4100
  127OSM    H8T13594  -0.247   4.943   7.297 -0.8526 -3.7966 -2.4958
  127OSM    C9S13595  -0.080   4.978   7.426 -0.4146  0.2680  0.2531
  127OSM    H9S13596  -0.119   5.082   7.424  0.1928  0.5064  0.5354
  127OSM    H9T13597   0.030   4.966   7.422 -0.4909 -0.0531 -1.6927
  127OSM   C10S13598  -0.133   4.902   7.553 -0.9565 -0.0220  0.3652
  127OSM   H10S13599  -0.118   4.792   7.553  1.0510  0.1915  1.2787
  127OSM   H10T13600  -0.241   4.926   7.564 -1.5960 -1.9588 -1.2380
  127OSM   C11S13601  -0.058   4.939   7.684 -1.1442  0.2053  0.0102
  127OSM   H11S13602  -0.044   5.049   7.688  1.1343 -0.0505  2.8793
  127OSM   H11T13603   0.043   4.894   7.673 -0.8355  0.4570  1.5322
  127OSM   C12S13604  -0.142   4.895   7.800 -0.5162 -0.1725 -0.8738
  127OSM   H12S13605  -0.160   4.786   7.794  2.3926 -0.8825  1.2200
  127OSM   H12T13606  -0.237   4.952   7.792 -0.2726  0.2235 -0.9692
  127OSM   C13S13607  -0.073   4.944   7.927 -0.3308 -0.3542 -0.1862
  127OSM   H13S13608  -0.049   5.051   7.908  3.3263 -0.7358  1.3504
  127OSM   H13T13609   0.018   4.884   7.950 -0.1267  0.3306  0.8781
  127OSM   C14S13610  -0.163   4.935   8.052 -0.2012  0.4998 -0.3365
  127OSM   H14S13611  -0.186   4.827   8.063  1.0326  0.4159  2.1893
  127OSM   H14T13612  -0.253   4.996   8.029  1.2422  2.1534 -1.9338
  127OSM   C15S13613  -0.085   4.971   8.181 -0.0775  0.1608  0.8017
  127OSM   H15S13614  -0.075   5.081   8.174  0.9812 -0.0403 -2.2714
  127OSM   H15T13615   0.012   4.918   8.178  0.3834  1.0447 -1.0811
  127OSM   C16S13616  -0.160   4.925   8.306 -0.2018  0.1968 -0.2327
  127OSM   H16S13617  -0.166   4.815   8.319  2.1549  0.1417  0.9118
  127OSM   H16T13618  -0.267   4.953   8.290 -0.4985 -0.0239  1.1905
  127OSM   C17S13619  -0.096   5.006   8.414  0.5191  0.4813  0.5434
  127OSM   H17S13620  -0.099   5.113   8.383 -2.9700  0.2395 -0.3109
  127OSM   H17T13621   0.011   4.977   8.422  0.1569 -1.1080 -0.0602
  127OSM   C18S13622  -0.171   4.998   8.552 -0.5521 -0.0169  0.1655
  127OSM   H18S13623  -0.274   5.039   8.560 -0.4320  0.0446  1.8203
  127OSM   H18T13624  -0.108   5.050   8.628  0.1861  1.6918 -1.5323
  127OSM   H18U13625  -0.184   4.895   8.590 -1.4564  0.6912  1.9012
  127OSM    C1F13626  -0.099   4.602   6.608  0.8314  0.0474  0.6811
  127OSM     OF13627   0.017   4.596   6.587 -1.2870  0.2546 -0.3764
  127OSM    C2F13628  -0.192   4.478   6.618  0.1031 -0.3020 -0.0729
  127OSM    H2F13629  -0.186   4.435   6.516  2.1885  2.4089 -1.2101
  127OSM    H2G13630  -0.296   4.513   6.637  0.6980  1.1196  0.7896
  127OSM    C3F13631  -0.125   4.365   6.705 -0.3259 -0.3510  0.2740
  127OSM    H3F13632  -0.041   4.310   6.658 -0.4238  0.5766 -1.0357
  127OSM    H3G13633  -0.199   4.282   6.710  2.9670 -3.5248  0.9764
  127OSM    C4F13634  -0.091   4.404   6.853 -0.0306 -0.4799 -0.3942
  127OSM    H4F13635   0.006   4.458   6.852 -0.4991  0.4603  1.4247
  127OSM    H4G13636  -0.078   4.302   6.897 -0.3787 -1.1663 -1.8069
  127OSM    C5F13637  -0.194   4.484   6.922 -0.7583  0.1722 -0.3360
  127OSM    H5F13638  -0.298   4.445   6.918 -0.4265 -0.6485 -1.4890
  127OSM    H5G13639  -0.195   4.585   6.877 -0.6010  0.7990  1.0024
  127OSM    C6F13640  -0.149   4.506   7.068 -0.0155  0.3658 -0.1579
  127OSM    H6F13641  -0.203   4.596   7.105 -0.3964 -0.0252  0.2593
  127OSM    H6G13642  -0.041   4.526   7.081  0.3447 -1.7460  0.5074
  127OSM    C7F13643  -0.188   4.389   7.154  0.0765 -0.2034 -0.2428
  127OSM    H7F13644  -0.163   4.297   7.098  0.7882  0.1861 -0.5728
  127OSM    H7G13645  -0.299   4.383   7.158  0.0248  0.5121 -0.3997
  127OSM    C8F13646  -0.110   4.380   7.286  0.3051 -0.5830 -0.4606
  127OSM    H8F13647  -0.005   4.409   7.265 -0.3063  0.9088 -1.7412
  127OSM    H8G13648  -0.115   4.275   7.322 -0.2637 -0.5172 -0.3336
  127OSM    C9F13649  -0.171   4.473   7.388  0.6402  0.0526  0.2051
  127OSM    H9F13650  -0.188   4.575   7.350 -0.5883 -0.4114 -0.5884
  127OSM   C10F13651  -0.215   4.446   7.506  0.5068  0.1602 -0.3156
  127OSM   H10F13652  -0.268   4.531   7.553  1.1838  1.5388 -1.9347
  127OSM   C11F13653  -0.207   4.318   7.580 -0.8514 -0.8285 -0.4934
  127OSM   H11F13654  -0.156   4.239   7.522 -0.6298 -0.0815 -1.3401
  127OSM   H11G13655  -0.313   4.291   7.602 -0.7707 -0.7241  0.0547
  127OSM   C12F13656  -0.145   4.318   7.722 -0.1227  0.0891 -0.2523
  127OSM   H12F13657  -0.062   4.392   7.729  1.1280 -1.2202 -0.6817
  127OSM   H12G13658  -0.101   4.220   7.746 -1.9644 -0.5893  0.5535
  127OSM   C13F13659  -0.242   4.363   7.834  0.1657 -0.0675  0.6436
  127OSM   H13F13660  -0.351   4.342   7.825  0.6423 -2.6036  0.0209
  127OSM   H13G13661  -0.232   4.473   7.839 -0.1516  0.0275 -0.4687
  127OSM   C14F13662  -0.201   4.289   7.959 -1.0276  0.1725 -0.9538
  127OSM   H14F13663  -0.092   4.298   7.978 -0.6764  0.5128 -2.9370
  127OSM   H14G13664  -0.215   4.178   7.957 -0.4785 -0.0797  2.5759
  127OSM   C15F13665  -0.265   4.336   8.089  0.2676 -0.9340 -0.6126
  127OSM   H15F13666  -0.366   4.288   8.091 -0.4864  0.5021 -2.0877
  127OSM   H15G13667  -0.283   4.444   8.074  2.1954 -0.2903  1.2250
  127OSM   C16F13668  -0.177   4.310   8.211  0.1469 -0.3496  0.3149
  127OSM   H16F13669  -0.073   4.335   8.179  0.1361  0.1237  0.6208
  127OSM   H16G13670  -0.183   4.200   8.223  2.3270 -0.9027 -2.5542
  127OSM   C17F13671  -0.215   4.372   8.345  0.0353  0.1419  0.3560
  127OSM   H17F13672  -0.157   4.321   8.425 -1.4623  0.0113  1.3998
  127OSM   H17G13673  -0.322   4.344   8.361  0.1494 -1.3682 -1.2122
  127OSM   C18F13674  -0.190   4.522   8.337  0.0162 -0.2809 -0.2539
  127OSM   H18F13675  -0.226   4.570   8.431  1.1705 -0.3165  0.2259
  127OSM   H18G13676  -0.246   4.567   8.252  1.1191  1.3766 -0.1345
  127OSM   H18H13677  -0.080   4.537   8.335  0.0512 -0.4850  0.0446
  128OSM      N13678   0.881   1.661   6.229  0.1069  0.0376 -0.0877
  128OSM    C1513679   0.977   1.738   6.317 -1.0524  0.2557 -0.5935
  128OSM   H15A13680   1.012   1.832   6.276  0.2589  0.9610  1.9337
  128OSM   H15B13681   1.069   1.681   6.325 -0.8691  0.6638  0.2765
  128OSM   H15C13682   0.941   1.760   6.416  0.1809 -0.1520 -0.0360
  128OSM    C1413683   0.940   1.593   6.111  0.9530  0.0982  0.2733
  128OSM   H14A13684   1.025   1.641   6.064  1.4199 -0.3554  0.6540
  128OSM   H14B13685   0.864   1.566   6.038  1.3026 -1.8135  0.5856
  128OSM   H14C13686   0.991   1.505   6.146 -0.1832 -1.0437 -0.8146
  128OSM    C1313687   0.826   1.556   6.327  0.7125  0.9961 -1.1691
  128OSM   H13A13688   0.905   1.501   6.375 -0.0373 -0.4175 -1.5118
  128OSM   H13B13689   0.738   1.502   6.294 -0.8660  1.7286  1.5071
  128OSM   H13C13690   0.782   1.610   6.410 -0.2637 -0.6524 -0.5615
  128OSM    C1213691   0.762   1.759   6.191  0.2908  0.5247  0.1617
  128OSM   H12A13692   0.799   1.853   6.155 -0.7012  1.2244  0.9169
  128OSM   H12B13693   0.716   1.779   6.287  1.0623 -1.1732  0.9350
  128OSM    C1113694   0.655   1.701   6.099 -0.8152  0.3515  0.0611
  128OSM   H11A13695   0.716   1.669   6.012  0.3226  2.8756 -0.1539
  128OSM   H11B13696   0.582   1.780   6.071 -0.6976  1.2524  2.1368
  128OSM      P13697   0.473   1.610   6.242 -0.2278  0.3730  0.3555
  128OSM    O1313698   0.369   1.661   6.156 -0.2575  0.1383 -0.2994
  128OSM    O1413699   0.454   1.484   6.325  0.7042 -0.2413  0.1768
  128OSM    O1113700   0.517   1.716   6.344 -0.2979  0.4519 -0.0548
  128OSM    O1213701   0.600   1.583   6.159 -0.4910 -0.1563 -0.1478
  128OSM    C1S13702   0.443   1.831   6.380 -0.6394  0.6434 -0.4016
  128OSM    H1S13703   0.336   1.801   6.382 -0.6149  0.5987  0.3305
  128OSM    H1T13704   0.475   1.917   6.317  0.6007 -0.0859 -0.8065
  128OSM     NF13705   0.381   1.983   6.570 -0.5818 -0.4436 -0.1095
  128OSM    HNF13706   0.422   2.074   6.576 -2.7402  0.7420 -1.8030
  128OSM    C2S13707   0.475   1.878   6.526  0.0227 -0.0089 -0.5563
  128OSM    H2S13708   0.460   1.790   6.592  2.0716  1.6850  2.3730
  128OSM    C3S13709   0.619   1.907   6.542 -0.3870 -0.0738  0.2359
  128OSM    H3S13710   0.648   1.989   6.473 -1.5493 -0.1336 -0.3594
  128OSM     O313711   0.707   1.798   6.511 -0.2206 -0.1064  0.4000
  128OSM    HO313712   0.642   1.740   6.471  0.7362  0.6023 -2.3511
  128OSM    C4S13713   0.652   1.963   6.676 -0.0453  0.2135 -0.3767
  128OSM    H4S13714   0.672   2.071   6.669 -0.4881  0.4524  1.3360
  128OSM    C5S13715   0.673   1.902   6.795 -0.6977 -0.1822  0.5925
  128OSM    H5S13716   0.670   1.793   6.809  1.8407 -0.6751 -1.7555
  128OSM    C6S13717   0.714   1.980   6.918 -0.1775 -0.5581  0.6489
  128OSM    H6S13718   0.708   2.090   6.903 -2.0263 -0.9075 -1.8643
  128OSM    H6T13719   0.817   1.953   6.948  0.0700 -0.1109  0.2014
  128OSM    C7S13720   0.624   1.933   7.031  0.1988  0.0390  1.0107
  128OSM    H7S13721   0.630   1.822   7.030 -0.8004 -0.0490 -1.1983
  128OSM    H7T13722   0.525   1.979   7.012  0.3776  0.4907  1.1649
  128OSM    C8S13723   0.688   1.987   7.158  0.2388 -0.1038 -0.3151
  128OSM    H8S13724   0.690   2.098   7.161  0.7410 -0.0939  3.2510
  128OSM    H8T13725   0.793   1.954   7.169  0.3574  0.1288 -0.7230
  128OSM    C9S13726   0.607   1.940   7.276  0.8242  0.3944  0.0496
  128OSM    H9S13727   0.614   1.829   7.283  2.7746  0.1990 -3.1179
  128OSM    H9T13728   0.502   1.975   7.275  1.0394  1.0769  0.6092
  128OSM   C10S13729   0.645   1.993   7.412  0.6402 -0.5307 -0.7347
  128OSM   H10S13730   0.646   2.104   7.414 -1.6656 -0.4688  0.6856
  128OSM   H10T13731   0.750   1.964   7.435  0.1970 -0.6079  1.3807
  128OSM   C11S13732   0.560   1.938   7.522 -0.4393  0.2799  0.2087
  128OSM   H11S13733   0.561   1.827   7.526 -3.1960  0.2327  1.5891
  128OSM   H11T13734   0.452   1.961   7.515 -0.6643 -1.2045 -1.9302
  128OSM   C12S13735   0.622   1.970   7.662  0.1222  0.5806  0.3801
  128OSM   H12S13736   0.646   2.077   7.680 -0.4811  0.6843  0.5992
  128OSM   H12T13737   0.716   1.911   7.661 -1.1915 -1.7012 -1.3303
  128OSM   C13S13738   0.522   1.919   7.768 -0.8910 -0.4769 -0.5758
  128OSM   H13S13739   0.507   1.809   7.755 -0.4082 -0.3120 -2.7947
  128OSM   H13T13740   0.418   1.951   7.746 -0.7870  0.5226  0.3138
  128OSM   C14S13741   0.568   1.962   7.903 -0.3900 -0.5957  0.4410
  128OSM   H14S13742   0.568   2.073   7.899 -0.1934 -0.6336 -1.7124
  128OSM   H14T13743   0.674   1.930   7.921 -0.2800  0.6090  2.2596
  128OSM   C15S13744   0.490   1.907   8.018  0.3071 -0.1342 -0.0002
  128OSM   H15S13745   0.500   1.796   8.021 -2.6573 -0.4972  0.0967
  128OSM   H15T13746   0.385   1.940   8.003  0.2171 -1.3419 -2.5200
  128OSM   C16S13747   0.545   1.958   8.158  0.4274 -0.0815  0.1743
  128OSM   H16S13748   0.538   2.068   8.174  0.0968 -0.0861  0.0656
  128OSM   H16T13749   0.655   1.941   8.159  0.1485 -2.1032  0.8408
  128OSM   C17S13750   0.481   1.897   8.281 -0.6381  0.1707 -0.3157
  128OSM   H17S13751   0.532   1.939   8.370  2.4054 -0.4640 -1.6325
  128OSM   H17T13752   0.499   1.788   8.294  0.8754  0.5952  1.7803
  128OSM   C18S13753   0.331   1.929   8.298  0.1303  0.0697  0.2256
  128OSM   H18S13754   0.308   2.026   8.249 -2.5074 -0.7578 -0.3131
  128OSM   H18T13755   0.301   1.951   8.402 -0.3270  1.4026 -0.1603
  128OSM   H18U13756   0.267   1.857   8.242 -1.2637  1.8918 -0.6413
  128OSM    C1F13757   0.254   1.964   6.587 -0.0766 -0.5262 -0.3226
  128OSM     OF13758   0.209   1.851   6.595  0.4162  0.0487  0.0461
  128OSM    C2F13759   0.179   2.092   6.599  0.1657  0.7095  0.7026
  128OSM    H2F13760   0.082   2.085   6.545 -0.1445 -1.3524  1.4281
  128OSM    H2G13761   0.245   2.176   6.570 -1.1605  2.1319  1.6532
  128OSM    C3F13762   0.149   2.124   6.747  0.3723 -0.2791  0.0488
  128OSM    H3F13763   0.101   2.031   6.785 -0.5955 -0.3632 -1.3181
  128OSM    H3G13764   0.079   2.209   6.753  2.5049  1.6574 -1.0499
  128OSM    C4F13765   0.262   2.153   6.845 -0.3256  0.3648  0.1214
  128OSM    H4F13766   0.335   2.223   6.799  1.6969 -2.0508 -0.5849
  128OSM    H4G13767   0.329   2.064   6.856  0.9021  1.1224 -0.9136
  128OSM    C5F13768   0.221   2.211   6.981 -0.1923 -0.5680 -0.2650
  128OSM    H5F13769   0.145   2.137   7.015 -0.6886 -0.9034 -2.0287
  128OSM    H5G13770   0.180   2.314   6.972  2.4338  0.4176 -2.4749
  128OSM    C6F13771   0.334   2.225   7.081  0.1464  0.5328  0.0275
  128OSM    H6F13772   0.359   2.133   7.137  1.8171  1.9991  1.7947
  128OSM    H6G13773   0.303   2.289   7.166  3.0167  0.1092  1.5024
  128OSM    C7F13774   0.459   2.286   7.020 -0.3309 -0.3246  0.0170
  128OSM    H7F13775   0.443   2.371   6.950  0.3769 -0.4503 -0.3133
  128OSM    H7G13776   0.525   2.215   6.965  1.6189 -0.6136  2.5436
  128OSM    C8F13777   0.550   2.347   7.131 -0.3398 -0.5660 -0.5721
  128OSM    H8F13778   0.652   2.364   7.090  0.3906  1.7122  1.9042
  128OSM    H8G13779   0.551   2.260   7.201 -1.8344  0.3803  0.6849
  128OSM    C9F13780   0.515   2.475   7.202  0.8627  0.1698  0.6343
  128OSM    H9F13781   0.522   2.569   7.145 -0.5021  0.5709  1.0927
  128OSM   C10F13782   0.464   2.479   7.325  0.0427 -0.3208  0.4307
  128OSM   H10F13783   0.441   2.578   7.367 -2.1677 -0.3212 -0.6435
  128OSM   C11F13784   0.445   2.362   7.420 -0.0232  0.8973 -0.3796
  128OSM   H11F13785   0.549   2.334   7.449 -0.3759  0.2004  0.2368
  128OSM   H11G13786   0.397   2.272   7.377 -0.4345  0.1661  1.5311
  128OSM   C12F13787   0.378   2.384   7.558  0.7268 -0.6134 -0.0894
  128OSM   H12F13788   0.271   2.394   7.531  0.4061 -0.2799  1.2404
  128OSM   H12G13789   0.421   2.478   7.598  0.6217 -0.1052 -1.1474
  128OSM   C13F13790   0.415   2.269   7.646  0.6910 -0.1056  0.4245
  128OSM   H13F13791   0.524   2.274   7.666  0.4030  0.4535  1.9725
  128OSM   H13G13792   0.392   2.176   7.590 -1.1683  0.7127 -0.2812
  128OSM   C14F13793   0.340   2.287   7.774  0.4334  0.1534 -0.0795
  128OSM   H14F13794   0.300   2.389   7.792 -0.9725 -0.2363 -0.8308
  128OSM   H14G13795   0.421   2.250   7.840  1.2656  1.5767 -0.2628
  128OSM   C15F13796   0.217   2.203   7.785  0.1651  0.3132 -0.7012
  128OSM   H15F13797   0.236   2.100   7.750  1.3126  0.8637 -1.7647
  128OSM   H15G13798   0.136   2.246   7.722 -1.1781 -0.5344  0.3883
  128OSM   C16F13799   0.167   2.208   7.937 -0.5050  0.1277 -0.9265
  128OSM   H16F13800   0.134   2.310   7.965  0.9391 -0.2017  2.4501
  128OSM   H16G13801   0.250   2.177   8.005 -1.1681 -0.4452 -0.3720
  128OSM   C17F13802   0.045   2.120   7.961 -0.7945 -0.4373 -0.4034
  128OSM   H17F13803   0.055   2.014   7.928  1.4258 -0.9673  1.7335
  128OSM   H17G13804  -0.025   2.169   7.890  0.4830  1.6990 -0.2797
  128OSM   C18F13805  -0.019   2.127   8.104  0.1068  0.1838  0.1059
  128OSM   H18F13806   0.058   2.116   8.184 -1.2862 -1.7399  1.2862
  128OSM   H18G13807  -0.086   2.040   8.122  2.7113 -2.1313 -0.7252
  128OSM   H18H13808  -0.059   2.228   8.123  0.2187  0.1474  0.5527
  129OSM      N13809   5.476   5.032   6.364 -0.0444  0.4028 -0.1924
  129OSM    C1513810   5.563   5.159   6.349  0.2027  0.3855  1.2533
  129OSM   H15A13811   5.615   5.154   6.254  0.6568  0.5982  1.4916
  129OSM   H15B13812   5.647   5.154   6.416  0.7247 -0.2071  0.5700
  129OSM   H15C13813   5.507   5.251   6.350 -0.4809 -0.0280  2.4653
  129OSM    C1413814   5.416   5.038   6.504 -0.9230  0.1120 -0.1954
  129OSM   H14A13815   5.375   5.134   6.532 -2.5192 -0.7737  0.6453
  129OSM   H14B13816   5.494   5.003   6.570  1.0454 -0.3231 -2.6086
  129OSM   H14C13817   5.337   4.968   6.528 -2.7065  2.6562  2.0769
  129OSM    C1313818   5.362   5.045   6.266 -0.2350 -0.8541 -0.6348
  129OSM   H13A13819   5.302   5.128   6.299  0.1448 -1.1481  0.8726
  129OSM   H13B13820   5.303   4.955   6.271 -0.0473 -0.9005  2.2340
  129OSM   H13C13821   5.400   5.053   6.165  0.7068 -0.3513 -0.2631
  129OSM    C1213822   5.550   4.907   6.346 -0.2249 -0.2306  0.0374
  129OSM   H12A13823   5.483   4.825   6.366  0.4877 -0.1316  3.3419
  129OSM   H12B13824   5.622   4.905   6.426 -1.5356 -1.6902  1.2524
  129OSM    C1113825   5.619   4.885   6.207 -0.1834 -0.5761 -0.3295
  129OSM   H11A13826   5.533   4.896   6.138 -0.5042  0.5770  0.2311
  129OSM   H11B13827   5.661   4.783   6.195  4.1359  0.7851  1.2557
  129OSM      P13828   5.850   4.987   6.224  0.2144  0.2939  0.2083
  129OSM    O1313829   5.939   5.042   6.127 -0.0460  0.2665 -0.0692
  129OSM    O1413830   5.854   5.047   6.361 -0.1067 -0.2454 -0.1934
  129OSM    O1113831   5.885   4.832   6.235 -0.2706  0.1587 -0.4168
  129OSM    O1213832   5.709   4.988   6.164  0.2350 -0.4409  0.4191
  129OSM    C1S13833   5.993   4.793   6.323 -0.1912 -0.5756  0.8710
  129OSM    H1S13834   6.076   4.867   6.318 -0.8759  0.1076 -2.1549
  129OSM    H1T13835   6.049   4.705   6.282 -0.6251  0.0219 -1.1091
  129OSM     NF13836   6.069   4.764   6.549 -0.5502 -0.1502 -0.4410
  129OSM    HNF13837   6.101   4.673   6.574  0.9236  0.2507 -0.7808
  129OSM    C2S13838   5.951   4.770   6.473 -0.0297  0.1693 -0.2103
  129OSM    H2S13839   5.877   4.844   6.508 -1.9840 -0.8095 -2.0710
  129OSM    C3S13840   5.861   4.647   6.477 -0.8367 -0.1973 -0.6962
  129OSM    H3S13841   5.908   4.550   6.450 -0.3383 -0.3496  0.6387
  129OSM     O313842   5.759   4.659   6.387 -0.2069  0.6585 -0.4313
  129OSM    HO313843   5.788   4.727   6.325  1.3157  0.7389  0.3301
  129OSM    C4S13844   5.815   4.622   6.618  0.1052  0.7789  0.1698
  129OSM    H4S13845   5.729   4.683   6.651 -0.4760 -0.8460  1.8294
  129OSM    C5S13846   5.846   4.512   6.695  0.1315 -0.5324  0.8977
  129OSM    H5S13847   5.911   4.435   6.651 -2.0273 -1.0403 -1.7194
  129OSM    C6S13848   5.794   4.480   6.833 -0.2695 -0.6383 -0.1713
  129OSM    H6S13849   5.779   4.371   6.840  1.7800 -0.8796  1.2354
  129OSM    H6T13850   5.692   4.523   6.845  0.9493  2.5172  0.0216
  129OSM    C7S13851   5.886   4.535   6.945 -0.7322 -0.6932 -0.2273
  129OSM    H7S13852   5.891   4.646   6.939 -0.9200 -0.7160 -0.8411
  129OSM    H7T13853   5.989   4.497   6.926  0.4257  1.7106  0.8843
  129OSM    C8S13854   5.831   4.481   7.075 -1.0170  0.2176  0.1644
  129OSM    H8S13855   5.853   4.372   7.076  0.7919  0.3012 -4.7197
  129OSM    H8T13856   5.721   4.490   7.086 -1.2378  0.4454 -1.8374
  129OSM    C9S13857   5.886   4.552   7.201 -0.2919  0.1394  0.4129
  129OSM    H9S13858   5.863   4.661   7.196 -0.0956  0.1098 -2.2776
  129OSM    H9T13859   5.995   4.533   7.215 -0.2243  0.6280  0.5954
  129OSM   C10S13860   5.825   4.491   7.326  0.8474 -0.5603  0.0017
  129OSM   H10S13861   5.867   4.388   7.327 -0.5732 -1.1566  0.2768
  129OSM   H10T13862   5.714   4.490   7.321  0.5472  0.6404  3.3877
  129OSM   C11S13863   5.862   4.569   7.448 -0.2829  0.6662 -0.3370
  129OSM   H11S13864   5.855   4.680   7.438  0.7047  0.7914  0.1804
  129OSM   H11T13865   5.968   4.549   7.476 -0.4219  1.4102  0.7984
  129OSM   C12S13866   5.785   4.532   7.577  0.2651 -0.2017  0.3908
  129OSM   H12S13867   5.770   4.422   7.589  2.4951 -0.5195  0.8725
  129OSM   H12T13868   5.680   4.565   7.572 -0.1591 -1.6431 -1.9662
  129OSM   C13S13869   5.861   4.575   7.704 -0.0637  0.2577  0.2281
  129OSM   H13S13870   5.889   4.682   7.692 -0.5666  0.5617  1.5887
  129OSM   H13T13871   5.950   4.509   7.700 -1.8405 -2.2714 -1.9174
  129OSM   C14S13872   5.776   4.551   7.825 -0.2431  0.0127  0.0395
  129OSM   H14S13873   5.739   4.446   7.827  2.7725 -1.1440  0.1610
  129OSM   H14T13874   5.690   4.620   7.807 -1.5170 -0.5770  3.0428
  129OSM   C15S13875   5.842   4.583   7.959  0.3405  0.5509  0.3168
  129OSM   H15S13876   5.897   4.679   7.953  0.2274  0.5951 -0.0152
  129OSM   H15T13877   5.909   4.499   7.988  1.0389  0.9774 -0.0314
  129OSM   C16S13878   5.737   4.588   8.073  0.1332  0.3109  0.5846
  129OSM   H16S13879   5.679   4.494   8.083  1.5641 -0.3886  3.3396
  129OSM   H16T13880   5.657   4.658   8.043 -0.6106  0.5534  2.9288
  129OSM   C17S13881   5.798   4.627   8.207  0.6430  0.2448  0.6782
  129OSM   H17S13882   5.810   4.737   8.200  0.3166  0.2078 -1.1954
  129OSM   H17T13883   5.890   4.566   8.220 -0.0255 -0.5292  1.9852
  129OSM   C18S13884   5.703   4.591   8.321  0.4344 -0.1092  0.0839
  129OSM   H18S13885   5.760   4.601   8.416  1.0434  1.1266 -0.3921
  129OSM   H18T13886   5.676   4.484   8.308 -0.4976  0.1068  0.1430
  129OSM   H18U13887   5.618   4.663   8.321 -0.9842 -1.7065 -0.4766
  129OSM    C1F13888   6.129   4.875   6.584  0.0239 -0.6249  0.4514
  129OSM     OF13889   6.118   4.981   6.522 -0.5170 -0.6699  0.0534
  129OSM    C2F13890   6.221   4.866   6.704  0.3882 -0.0279  0.9387
  129OSM    H2F13891   6.265   4.967   6.712 -0.1638  0.0903  3.3504
  129OSM    H2G13892   6.303   4.792   6.691 -0.3084 -0.7131  0.3742
  129OSM    C3F13893   6.154   4.828   6.844  0.5486  0.7171 -0.8542
  129OSM    H3F13894   6.074   4.754   6.828  0.0821  0.9539  0.2824
  129OSM    H3G13895   6.098   4.918   6.876 -1.7418 -0.1884 -2.1221
  129OSM    C4F13896   6.244   4.766   6.944  0.2814  0.7994 -0.7722
  129OSM    H4F13897   6.312   4.851   6.968  1.0245  1.1451 -3.6971
  129OSM    H4G13898   6.305   4.678   6.917  1.8604  1.6381 -0.1020
  129OSM    C5F13899   6.167   4.752   7.081 -0.2241  0.0925  0.4066
  129OSM    H5F13900   6.090   4.672   7.069  1.3955 -1.5929  0.7161
  129OSM    H5G13901   6.118   4.850   7.095  2.1461  1.8194 -2.2181
  129OSM    C6F13902   6.248   4.735   7.211 -0.1549  0.6004  0.0795
  129OSM    H6F13903   6.351   4.774   7.197 -0.0470  0.8341  1.3900
  129OSM    H6G13904   6.269   4.628   7.230 -1.8319  0.4111  1.1550
  129OSM    C7F13905   6.182   4.801   7.334 -0.6081 -0.3661  0.0185
  129OSM    H7F13906   6.081   4.755   7.344  0.0384 -1.8792 -0.0810
  129OSM    H7G13907   6.180   4.909   7.308 -1.5243 -0.3881 -0.0222
  129OSM    C8F13908   6.273   4.787   7.457  0.0564 -0.3799  0.4711
  129OSM    H8F13909   6.246   4.868   7.528 -1.1421 -0.2898 -0.0606
  129OSM    H8G13910   6.378   4.794   7.422 -0.2820 -0.8712 -0.6875
  129OSM    C9F13911   6.249   4.649   7.516 -0.1347 -0.4099  0.2064
  129OSM    H9F13912   6.267   4.566   7.446 -3.9714 -3.1809  2.1495
  129OSM   C10F13913   6.216   4.637   7.645  0.7312 -0.3114  0.3238
  129OSM   H10F13914   6.227   4.533   7.680 -1.0074 -0.7844 -0.4201
  129OSM   C11F13915   6.183   4.736   7.759  0.1109  0.0375 -0.6344
  129OSM   H11F13916   6.079   4.722   7.795  0.3808  0.2850  0.2736
  129OSM   H11G13917   6.200   4.839   7.719  1.3674  0.1761  0.1651
  129OSM   C12F13918   6.276   4.729   7.882  0.0381  0.2108 -0.4410
  129OSM   H12F13919   6.383   4.735   7.853  0.2366  2.0942  0.5078
  129OSM   H12G13920   6.259   4.630   7.928 -1.8630  0.1587 -1.1850
  129OSM   C13F13921   6.238   4.838   7.981 -0.1547 -0.9504  0.6873
  129OSM   H13F13922   6.236   4.932   7.922  0.6836 -0.7220  1.0046
  129OSM   H13G13923   6.319   4.853   8.055 -0.2542  0.8423  0.4959
  129OSM   C14F13924   6.106   4.820   8.055  0.3954 -0.0651  1.2103
  129OSM   H14F13925   6.079   4.713   8.045 -1.0205  0.2747  1.1054
  129OSM   H14G13926   6.021   4.879   8.015  0.6888  1.1720  2.3395
  129OSM   C15F13927   6.118   4.864   8.201  0.4005  0.0060 -0.1610
  129OSM   H15F13928   6.017   4.878   8.245  0.6924 -2.0243  1.3193
  129OSM   H15G13929   6.170   4.962   8.213 -0.6182  0.4868  0.4685
  129OSM   C16F13930   6.192   4.764   8.289  0.1259  0.3602 -0.2352
  129OSM   H16F13931   6.302   4.773   8.270 -0.0468  1.2056 -0.9311
  129OSM   H16G13932   6.169   4.664   8.248  0.7191  0.9346 -2.0863
  129OSM   C17F13933   6.158   4.770   8.438  0.4292 -0.2782  0.0175
  129OSM   H17F13934   6.047   4.766   8.444  0.4673  0.1944  1.4339
  129OSM   H17G13935   6.187   4.862   8.492 -0.3092 -0.4963  0.8156
  129OSM   C18F13936   6.225   4.659   8.513 -0.6745 -0.1929  0.1737
  129OSM   H18F13937   6.168   4.658   8.609 -4.7645  3.8601 -1.8406
  129OSM   H18G13938   6.335   4.673   8.511 -0.8650  1.7406 -2.6043
  129OSM   H18H13939   6.206   4.557   8.473  0.0795 -0.7085  1.0857
  130OSM      N13940   0.603   0.358   5.989 -0.4930  0.4638  0.7008
  130OSM    C1513941   0.665   0.488   5.964 -0.6768 -0.3767  0.2167
  130OSM   H15A13942   0.768   0.487   5.930 -1.2769  0.7394 -1.8082
  130OSM   H15B13943   0.661   0.552   6.051  0.4598 -1.4021  1.0525
  130OSM   H15C13944   0.601   0.540   5.893 -0.6887  0.2936  0.7101
  130OSM    C1413945   0.457   0.397   6.010  0.5124  0.4718 -0.2346
  130OSM   H14A13946   0.450   0.467   6.092 -0.2613  0.0940  0.0300
  130OSM   H14B13947   0.402   0.307   6.032 -1.9183  1.2962 -2.3270
  130OSM   H14C13948   0.417   0.453   5.927 -0.7863  0.5072  0.3893
  130OSM    C1313949   0.608   0.275   5.864 -0.4701  0.2153  0.3016
  130OSM   H13A13950   0.708   0.243   5.839 -1.0978 -1.8935  0.2545
  130OSM   H13B13951   0.559   0.325   5.782 -2.7354 -1.0578  0.7803
  130OSM   H13C13952   0.544   0.188   5.874 -1.6155  0.9718 -0.2786
  130OSM    C1213953   0.665   0.301   6.117 -0.2848 -0.5656  0.6759
  130OSM   H12A13954   0.761   0.259   6.091  0.8543  0.0222  3.6261
  130OSM   H12B13955   0.618   0.214   6.161  2.6086 -1.5622  2.0424
  130OSM    C1113956   0.693   0.391   6.242  0.1773 -0.1783 -0.3453
  130OSM   H11A13957   0.783   0.447   6.208 -0.3852  0.1903 -1.2706
  130OSM   H11B13958   0.723   0.325   6.326  0.8146 -1.0066 -1.1986
  130OSM      P13959   0.598   0.591   6.362  0.0524 -0.4766  0.6445
  130OSM    O1313960   0.642   0.706   6.283 -0.5994 -0.3145  0.2582
  130OSM    O1413961   0.472   0.601   6.437  1.1853  0.1772 -0.0597
  130OSM    O1113962   0.717   0.548   6.464 -0.4420  0.2457 -0.5148
  130OSM    O1213963   0.578   0.470   6.270  0.4800  0.4426 -0.5475
  130OSM    C1S13964   0.751   0.651   6.559 -0.0338 -0.8670 -0.6005
  130OSM    H1S13965   0.665   0.713   6.592 -1.5567 -2.1565 -1.9848
  130OSM    H1T13966   0.835   0.713   6.519  0.1529 -0.5372  0.2801
  130OSM     NF13967   0.806   0.664   6.803 -0.3707 -0.3764 -0.0594
  130OSM    HNF13968   0.895   0.701   6.831  0.6404 -1.2648 -1.9184
  130OSM    C2S13969   0.800   0.577   6.691  0.1251  0.7217 -0.1883
  130OSM    H2S13970   0.720   0.501   6.708 -0.1277  0.9941 -0.1564
  130OSM    C3S13971   0.928   0.496   6.660 -0.7526  0.1402  0.9002
  130OSM    H3S13972   1.012   0.567   6.646  0.7651 -1.3441  2.0981
  130OSM     O313973   0.937   0.428   6.533 -0.0157  0.0212 -0.1011
  130OSM    HO313974   0.869   0.472   6.481  1.5141  1.8601 -0.6404
  130OSM    C4S13975   0.957   0.394   6.769 -0.5214 -0.6343  0.1009
  130OSM    H4S13976   0.883   0.314   6.760 -2.2032  0.9838 -1.1979
  130OSM    C5S13977   1.045   0.390   6.867 -0.3564 -0.4897  0.2081
  130OSM    H5S13978   1.113   0.476   6.880 -1.0016  0.1438 -0.5091
  130OSM    C6S13979   1.045   0.285   6.972 -0.3961  0.0531 -0.1282
  130OSM    H6S13980   1.132   0.217   6.961 -1.6185 -1.4165 -1.2858
  130OSM    H6T13981   0.961   0.213   6.966 -0.6968  0.3572  0.3583
  130OSM    C7S13982   1.063   0.358   7.104 -0.7685  0.6617  0.2888
  130OSM    H7S13983   0.975   0.418   7.136  0.7670  2.3153  1.6665
  130OSM    H7T13984   1.145   0.432   7.095 -0.0502 -0.3508 -2.3104
  130OSM    C8S13985   1.098   0.260   7.213 -0.4997  0.6178 -0.0552
  130OSM    H8S13986   1.190   0.201   7.192 -2.0938 -2.2415  0.4194
  130OSM    H8T13987   1.018   0.182   7.216 -0.9990  0.9664 -2.3344
  130OSM    C9S13988   1.101   0.335   7.349 -0.5736 -0.1022 -0.2790
  130OSM    H9S13989   1.033   0.421   7.331 -2.1081 -1.4493 -1.1425
  130OSM    H9T13990   1.197   0.382   7.380 -2.0227  0.4689  4.1701
  130OSM   C10S13991   1.057   0.258   7.475 -1.0157 -0.5465 -0.3226
  130OSM   H10S13992   1.134   0.178   7.480 -2.1508 -1.5998  0.6764
  130OSM   H10T13993   0.955   0.218   7.457 -1.3976  0.7512 -1.2188
  130OSM   C11S13994   1.072   0.328   7.618 -0.5880  0.3619  0.3783
  130OSM   H11S13995   1.031   0.429   7.601 -0.8013 -0.1281 -2.7430
  130OSM   H11T13996   1.180   0.347   7.638 -0.8842  1.6499  0.8553
  130OSM   C12S13997   1.014   0.249   7.738  0.3693 -0.6663  0.7623
  130OSM   H12S13998   1.065   0.151   7.753  3.5404  0.5457 -1.0055
  130OSM   H12T13999   0.905   0.232   7.729  0.4602 -0.3675 -1.5472
  130OSM   C13S14000   1.015   0.329   7.871 -0.1756 -0.7812 -0.3945
  130OSM   H13S14001   0.978   0.433   7.858  2.5228  0.5882  1.8199
  130OSM   H13T14002   1.120   0.317   7.902  0.4078 -0.2358 -2.0257
  130OSM   C14S14003   0.929   0.266   7.988  0.1176 -0.2351  0.3923
  130OSM   H14S14004   0.975   0.179   8.038  0.6648  0.8146  1.7750
  130OSM   H14T14005   0.830   0.237   7.945 -1.0113  0.8041  2.1467
  130OSM   C15S14006   0.911   0.377   8.089  0.3982  0.4003 -0.3851
  130OSM   H15S14007   0.839   0.456   8.061  0.2966  0.4484  0.0077
  130OSM   H15T14008   1.007   0.427   8.111  1.3611 -0.5405 -2.2014
  130OSM   C16S14009   0.865   0.332   8.229  0.4815 -0.5457  0.1879
  130OSM   H16S14010   0.853   0.425   8.289 -1.4100 -1.6432  1.6300
  130OSM   H16T14011   0.931   0.258   8.280  0.5593  0.3579  1.4600
  130OSM   C17S14012   0.721   0.264   8.215 -0.2658 -0.8156 -0.2485
  130OSM   H17S14013   0.731   0.184   8.139  4.0061  0.1037 -0.9140
  130OSM   H17T14014   0.654   0.345   8.179 -0.4434 -1.4172 -1.3083
  130OSM   C18S14015   0.677   0.204   8.349 -0.2901 -1.0341 -0.0092
  130OSM   H18S14016   0.698   0.271   8.436 -1.5691  0.3543 -0.7308
  130OSM   H18T14017   0.738   0.115   8.377  1.0361 -0.6705 -1.6239
  130OSM   H18U14018   0.572   0.169   8.357  0.0300 -1.6984  1.9511
  130OSM    C1F14019   0.703   0.722   6.861  1.0802 -0.0979 -0.0889
  130OSM     OF14020   0.590   0.716   6.813 -0.3467  0.0784  0.4123
  130OSM    C2F14021   0.724   0.784   6.996  0.0308  0.3494 -0.1676
  130OSM    H2F14022   0.810   0.736   7.049  1.1031  0.9377 -1.3262
  130OSM    H2G14023   0.632   0.760   7.054  0.3971 -1.3618 -0.2388
  130OSM    C3F14024   0.732   0.934   7.005  0.2470 -0.4299 -0.4219
  130OSM    H3F14025   0.661   0.980   6.932  0.6651 -0.5525 -0.9151
  130OSM    H3G14026   0.829   0.971   6.967 -1.2647  2.3665 -1.9462
  130OSM    C4F14027   0.696   0.980   7.145  0.4552  0.1933  0.1837
  130OSM    H4F14028   0.598   0.939   7.175 -0.5931  1.6127 -1.1436
  130OSM    H4G14029   0.692   1.091   7.143 -2.1064  0.2724  3.3669
  130OSM    C5F14030   0.806   0.954   7.245  0.4821  0.5934  0.3072
  130OSM    H5F14031   0.882   1.033   7.223  0.7226  0.7397  1.5636
  130OSM    H5G14032   0.847   0.855   7.215  1.4291  1.6457 -2.1907
  130OSM    C6F14033   0.760   0.971   7.391 -0.0248 -0.1548  0.6257
  130OSM    H6F14034   0.675   0.902   7.409 -0.6379  0.5580  0.4615
  130OSM    H6G14035   0.737   1.078   7.409  0.0559 -0.0924  0.3591
  130OSM    C7F14036   0.875   0.937   7.486 -1.1206 -0.0698 -0.1436
  130OSM    H7F14037   0.831   0.948   7.587 -1.6910 -0.9181 -0.2833
  130OSM    H7G14038   0.960   1.006   7.467 -0.3561 -0.7277  0.8399
  130OSM    C8F14039   0.927   0.795   7.473 -0.4645 -0.0144 -0.4126
  130OSM    H8F14040   1.022   0.793   7.531  0.6104 -2.1352 -2.1016
  130OSM    H8G14041   0.972   0.772   7.374  1.2282 -2.5701  0.8575
  130OSM    C9F14042   0.834   0.679   7.520  0.2826  0.0882  0.2097
  130OSM    H9F14043   0.809   0.597   7.450  1.9000 -0.4548  0.2075
  130OSM   C10F14044   0.798   0.661   7.653 -0.6485  0.1863 -0.1754
  130OSM   H10F14045   0.724   0.583   7.674 -1.6965  1.1653 -0.1239
  130OSM   C11F14046   0.827   0.744   7.777  0.9808 -0.1229 -0.0542
  130OSM   H11F14047   0.902   0.818   7.743  0.5565  0.3784  0.0949
  130OSM   H11G14048   0.884   0.684   7.851  0.6933  1.8590  1.8783
  130OSM   C12F14049   0.709   0.810   7.850  0.0002  0.6522 -0.5636
  130OSM   H12F14050   0.635   0.733   7.881 -0.1810  0.5104 -1.3418
  130OSM   H12G14051   0.664   0.892   7.792 -1.1703  1.6743  1.6720
  130OSM   C13F14052   0.760   0.882   7.972  0.0596 -0.4616 -0.1321
  130OSM   H13F14053   0.682   0.938   8.028  1.1245  2.1917 -1.1390
  130OSM   H13G14054   0.826   0.960   7.929  1.0442 -1.4658 -0.4789
  130OSM   C14F14055   0.839   0.806   8.074  0.5134 -0.2370  0.3395
  130OSM   H14F14056   0.893   0.877   8.140  0.4079  0.3573 -0.2097
  130OSM   H14G14057   0.909   0.729   8.034 -1.6508 -2.0420 -0.1768
  130OSM   C15F14058   0.750   0.736   8.174  0.0073 -0.5520 -0.2778
  130OSM   H15F14059   0.793   0.641   8.212  1.9491  0.6408  0.6752
  130OSM   H15G14060   0.651   0.718   8.126 -0.5570  1.2878  0.1013
  130OSM   C16F14061   0.727   0.824   8.304 -0.5804 -0.3339  0.9533
  130OSM   H16F14062   0.719   0.931   8.276 -0.6544 -0.1828  1.5309
  130OSM   H16G14063   0.814   0.817   8.373 -0.4361  1.5935  1.0200
  130OSM   C17F14064   0.597   0.776   8.360  0.2134 -0.7132 -0.2073
  130OSM   H17F14065   0.589   0.666   8.375 -2.6620 -0.3873  1.3155
  130OSM   H17G14066   0.523   0.807   8.283 -0.0676  1.4270  0.8573
  130OSM   C18F14067   0.547   0.836   8.491 -0.0911 -0.4677 -0.2548
  130OSM   H18F14068   0.628   0.900   8.533 -0.4386 -0.8760  1.0691
  130OSM   H18G14069   0.519   0.760   8.566 -1.3554  0.1750 -0.0486
  130OSM   H18H14070   0.460   0.901   8.469  0.7962  1.1437  0.7956
  131OSM      N14071   6.391   4.541   5.807 -0.5670  0.0802 -0.3155
  131OSM    C1514072   6.537   4.572   5.843 -0.6128  0.4200 -0.0719
  131OSM   H15A14073   6.534   4.608   5.945 -0.7197 -0.9827  0.4550
  131OSM   H15B14074   6.587   4.653   5.792  2.9939 -1.3917  0.2595
  131OSM   H15C14075   6.599   4.483   5.842  1.2404  1.6527  0.3884
  131OSM    C1414076   6.318   4.679   5.797 -1.0938 -0.2241 -0.3119
  131OSM   H14A14077   6.305   4.726   5.893 -1.8862  0.3389 -0.6808
  131OSM   H14B14078   6.217   4.668   5.760 -1.1493 -0.8454  0.0133
  131OSM   H14C14079   6.363   4.755   5.735 -0.7711  1.0432  1.3997
  131OSM    C1314080   6.402   4.481   5.675  0.6738 -0.3544  0.7177
  131OSM   H13A14081   6.458   4.541   5.605 -2.7306  1.9107 -0.2999
  131OSM   H13B14082   6.302   4.465   5.638  0.9065  1.4020 -0.8109
  131OSM   H13C14083   6.435   4.378   5.673 -2.8959 -1.6509 -0.9943
  131OSM    C1214084   6.308   4.452   5.899 -0.5018  0.6772 -0.6013
  131OSM   H12A14085   6.350   4.354   5.914 -0.1971  0.9871  0.7198
  131OSM   H12B14086   6.215   4.431   5.848 -0.7360  1.5566 -0.5553
  131OSM    C1114087   6.283   4.511   6.041  0.0808  0.4356  0.4082
  131OSM   H11A14088   6.194   4.456   6.078  1.1967 -1.4882  0.3146
  131OSM   H11B14089   6.247   4.616   6.037  1.1501  0.8161  0.4322
  131OSM      P14090   6.425   4.569   6.250 -0.2021  0.3430  0.2228
  131OSM    O1314091   6.571   4.565   6.278 -0.3003  0.6948  0.4142
  131OSM    O1414092   6.367   4.701   6.246 -0.1379 -0.1240  0.1623
  131OSM    O1114093   6.356   4.487   6.366 -0.0939  0.0077  0.0734
  131OSM    O1214094   6.395   4.475   6.126 -0.4261 -0.3924 -0.0622
  131OSM    C1S14095   6.351   4.345   6.352  0.5098 -0.3561  0.1533
  131OSM    H1S14096   6.448   4.294   6.337  2.3151  2.9872 -0.4553
  131OSM    H1T14097   6.283   4.319   6.268  1.7679 -0.7159 -0.7711
  131OSM     NF14098   6.234   4.155   6.449 -0.5704  0.4665  0.3851
  131OSM    HNF14099   6.135   4.144   6.460 -0.3934 -1.2804  0.3772
  131OSM    C2S14100   6.292   4.286   6.486 -0.5721 -0.2750  0.0139
  131OSM    H2S14101   6.369   4.263   6.562  0.6973  1.6529 -0.6220
  131OSM    C3S14102   6.184   4.372   6.560 -0.1921 -0.7768 -0.5464
  131OSM    H3S14103   6.091   4.386   6.500 -1.3587  3.3718  1.8176
  131OSM     O314104   6.221   4.509   6.581 -0.6624 -0.5169 -0.2875
  131OSM    HO314105   6.271   4.526   6.501  1.9087 -0.9686  1.1206
  131OSM    C4S14106   6.130   4.310   6.686  0.0902  0.5261 -0.1672
  131OSM    H4S14107   6.035   4.255   6.685 -0.1718  0.9602  0.3292
  131OSM    C5S14108   6.187   4.305   6.803  0.0502  0.0426 -0.4314
  131OSM    H5S14109   6.289   4.343   6.814  1.0142 -2.0087 -1.7744
  131OSM    C6S14110   6.120   4.246   6.924  0.0759  0.5743  0.3379
  131OSM    H6S14111   6.130   4.135   6.926 -1.0473  0.4140 -1.4267
  131OSM    H6T14112   6.010   4.258   6.931 -0.1711 -1.4855  0.5904
  131OSM    C7S14113   6.183   4.290   7.057 -0.0403  0.5002  0.9574
  131OSM    H7S14114   6.181   4.400   7.074  0.2349  0.6692 -0.0326
  131OSM    H7T14115   6.292   4.269   7.052 -0.2758 -0.4761 -1.6879
  131OSM    C8S14116   6.120   4.213   7.173 -0.7234 -0.1822  0.4310
  131OSM    H8S14117   6.160   4.109   7.173 -1.2067 -0.4319 -1.8098
  131OSM    H8T14118   6.009   4.206   7.177 -0.6416 -1.7374  4.2827
  131OSM    C9S14119   6.146   4.278   7.308  0.1306 -0.1857  0.0308
  131OSM    H9S14120   6.103   4.381   7.309 -2.4586 -1.1355  2.5757
  131OSM    H9T14121   6.253   4.293   7.334 -0.0415  1.6567 -0.1799
  131OSM   C10S14122   6.083   4.199   7.426 -0.9996 -0.0310  0.2822
  131OSM   H10S14123   6.108   4.093   7.404 -0.3310  0.4887 -1.6390
  131OSM   H10T14124   5.973   4.216   7.423 -0.6943  2.1148 -1.7640
  131OSM   C11S14125   6.148   4.254   7.554 -0.2118  0.5584  0.7357
  131OSM   H11S14126   6.155   4.365   7.549  2.5960  0.4267 -1.1766
  131OSM   H11T14127   6.255   4.223   7.547 -0.2273  0.6036  0.2862
  131OSM   C12S14128   6.071   4.214   7.671 -0.0083 -0.6979 -0.7256
  131OSM   H12S14129   6.072   4.106   7.694 -0.0942 -0.1051  2.5230
  131OSM   H12T14130   5.965   4.244   7.656 -0.1617  0.2661  1.8168
  131OSM   C13S14131   6.123   4.274   7.801  0.5347 -0.8317 -0.3629
  131OSM   H13S14132   6.112   4.384   7.807  0.8087 -0.7985 -0.4313
  131OSM   H13T14133   6.231   4.255   7.819  0.4979 -0.6777  0.0198
  131OSM   C14S14134   6.033   4.237   7.922  0.4706 -0.8645  0.6691
  131OSM   H14S14135   6.029   4.126   7.920  2.4366 -0.9861 -2.0065
  131OSM   H14T14136   5.929   4.276   7.922 -0.8024 -3.9391 -0.7806
  131OSM   C15S14137   6.105   4.290   8.053  0.0404 -0.1276  0.6658
  131OSM   H15S14138   6.104   4.400   8.040  0.9860 -0.1915 -0.1191
  131OSM   H15T14139   6.209   4.250   8.056  0.1009  0.0356  0.7903
  131OSM   C16S14140   6.025   4.254   8.178  0.0628 -0.4169  0.1929
  131OSM   H16S14141   6.032   4.144   8.183 -0.4851 -0.4526  0.2524
  131OSM   H16T14142   5.917   4.275   8.160  0.4739  0.5973 -1.2353
  131OSM   C17S14143   6.071   4.324   8.304  0.3365  0.2094  0.2140
  131OSM   H17S14144   6.084   4.431   8.280  0.2700  0.0047 -0.7899
  131OSM   H17T14145   6.174   4.291   8.332 -0.1985 -1.2682  0.5259
  131OSM   C18S14146   5.969   4.292   8.416  0.5638  0.3450  0.2028
  131OSM   H18S14147   6.011   4.340   8.506  2.8857  0.1409 -0.7212
  131OSM   H18T14148   5.956   4.182   8.432  0.7195  0.1585 -0.8461
  131OSM   H18U14149   5.870   4.333   8.386 -0.2864 -0.7984  1.2985
  131OSM    C1F14150   6.314   4.055   6.421  0.5309 -0.2801  0.0588
  131OSM     OF14151   6.436   4.057   6.437 -0.1228  0.4028 -0.0782
  131OSM    C2F14152   6.245   3.928   6.358  0.4748  0.1241  0.1938
  131OSM    H2F14153   6.291   3.911   6.259 -0.8342 -2.2788 -0.0808
  131OSM    H2G14154   6.140   3.958   6.340  0.4381 -0.7402 -1.1182
  131OSM    C3F14155   6.264   3.789   6.427 -0.0678 -0.1642  0.5417
  131OSM    H3F14156   6.371   3.774   6.452  0.0644 -0.7973 -0.3695
  131OSM    H3G14157   6.224   3.716   6.354 -1.1430  1.6890 -0.8319
  131OSM    C4F14158   6.180   3.767   6.559  0.1411  0.0473 -0.1958
  131OSM    H4F14159   6.196   3.671   6.612  1.1665  1.4796  2.2521
  131OSM    H4G14160   6.075   3.762   6.523  0.5257 -0.6080 -1.2705
  131OSM    C5F14161   6.200   3.872   6.672  0.0099 -0.4166  0.1085
  131OSM    H5F14162   6.126   3.870   6.755  0.5615  0.6819  0.6415
  131OSM    H5G14163   6.191   3.971   6.623  0.8918 -0.1353  0.5048
  131OSM    C6F14164   6.328   3.847   6.742 -0.8371  0.1740  0.5538
  131OSM    H6F14165   6.414   3.827   6.673  0.0915 -0.8114  1.9373
  131OSM    H6G14166   6.331   3.757   6.807 -0.4317 -0.6633 -0.5881
  131OSM    C7F14167   6.367   3.965   6.834  0.0970  0.0687  0.4048
  131OSM    H7F14168   6.313   3.986   6.929  1.4817  2.4549  0.7520
  131OSM    H7G14169   6.357   4.061   6.780  2.2772  1.4513  2.3149
  131OSM    C8F14170   6.513   3.972   6.869 -0.2681  0.9381 -0.1539
  131OSM    H8F14171   6.524   4.065   6.930  1.2640 -0.1594  1.3358
  131OSM    H8G14172   6.574   3.985   6.778 -0.3285  2.0331 -0.0551
  131OSM    C9F14173   6.571   3.865   6.951  0.6231  0.6921  0.2232
  131OSM    H9F14174   6.646   3.798   6.906 -0.4207 -1.5501  1.5930
  131OSM   C10F14175   6.561   3.848   7.081 -0.1224  0.0412  0.8776
  131OSM   H10F14176   6.635   3.782   7.128  0.9268 -0.4290 -1.3146
  131OSM   C11F14177   6.482   3.932   7.182  0.1097  1.1225 -0.1263
  131OSM   H11F14178   6.377   3.913   7.153  0.4994 -0.3444 -0.6675
  131OSM   H11G14179   6.488   4.043   7.173 -1.0845  1.4760  2.5122
  131OSM   C12F14180   6.512   3.885   7.322 -0.2343  1.0191  0.1165
  131OSM   H12F14181   6.619   3.897   7.348  0.0824  0.3329 -0.8350
  131OSM   H12G14182   6.484   3.777   7.325  1.0448  0.5828 -1.8715
  131OSM   C13F14183   6.441   3.962   7.427 -0.0742  0.0451  0.4568
  131OSM   H13F14184   6.330   3.960   7.414 -0.0785  1.7172 -0.0521
  131OSM   H13G14185   6.464   4.069   7.410 -0.5380 -0.1968 -2.1498
  131OSM   C14F14186   6.476   3.909   7.570 -0.4401  0.1263  0.8212
  131OSM   H14F14187   6.584   3.923   7.594 -0.1648 -3.0586  1.9329
  131OSM   H14G14188   6.451   3.802   7.559 -0.2471  0.0480  1.1232
  131OSM   C15F14189   6.391   3.975   7.679  0.8744 -0.0017 -0.1950
  131OSM   H15F14190   6.285   3.950   7.659  1.3967 -2.3319 -0.4134
  131OSM   H15G14191   6.398   4.085   7.667 -2.8974  0.1673 -2.8617
  131OSM   C16F14192   6.427   3.915   7.814  0.4244 -0.1388  0.3059
  131OSM   H16F14193   6.529   3.949   7.842  0.6911  0.7205 -1.5728
  131OSM   H16G14194   6.422   3.804   7.817 -0.6190 -0.1764 -1.4230
  131OSM   C17F14195   6.327   3.974   7.915 -0.3920  0.5942  0.3825
  131OSM   H17F14196   6.229   3.929   7.889  0.3196 -0.7915 -0.0158
  131OSM   H17G14197   6.333   4.080   7.882 -0.7395  0.0659 -1.5233
  131OSM   C18F14198   6.376   3.949   8.057 -0.0994 -1.0313 -0.5637
  131OSM   H18F14199   6.475   3.998   8.071 -0.1675 -1.1041  0.2441
  131OSM   H18G14200   6.391   3.840   8.070  0.3574 -0.9392 -0.3261
  131OSM   H18H14201   6.309   3.983   8.140  0.3547 -0.7384 -0.3142
  132OSM      N14202   1.134   3.465   5.949  0.1000  0.4374  0.0342
  132OSM    C1514203   1.026   3.360   5.937  0.3125  0.0604  0.0684
  132OSM   H15A14204   0.968   3.383   5.849  0.4234 -0.9715 -0.2872
  132OSM   H15B14205   0.965   3.372   6.025  0.3843  0.9904  0.0036
  132OSM   H15C14206   1.069   3.264   5.915  0.1048 -0.1408  0.5306
  132OSM    C1414207   1.227   3.433   5.838  0.2947  0.2174 -0.6450
  132OSM   H14A14208   1.269   3.333   5.836 -1.6934 -0.6783  0.1131
  132OSM   H14B14209   1.315   3.492   5.860  0.0893 -0.4564  2.5574
  132OSM   H14C14210   1.195   3.459   5.739 -0.2662  0.1599 -0.4786
  132OSM    C1314211   1.060   3.592   5.926  0.0599  0.1420  0.6121
  132OSM   H13A14212   0.981   3.597   6.000 -0.4447 -1.8940  0.2730
  132OSM   H13B14213   1.014   3.586   5.828 -0.7043  0.3117  0.9514
  132OSM   H13C14214   1.120   3.681   5.922  2.1701 -1.2339 -0.7495
  132OSM    C1214215   1.197   3.471   6.086 -1.2417 -0.0284  0.2579
  132OSM   H12A14216   1.276   3.544   6.083 -0.5799 -0.6169  2.2098
  132OSM   H12B14217   1.243   3.377   6.108  0.6407  0.8920  0.4126
  132OSM    C1114218   1.111   3.507   6.214  0.0286 -0.0262 -0.1458
  132OSM   H11A14219   1.095   3.616   6.203  1.9812  0.3070 -0.0626
  132OSM   H11B14220   1.168   3.514   6.309 -1.5322 -0.3533  0.8576
  132OSM      P14221   0.977   3.320   6.337  0.5287  0.2798 -0.1084
  132OSM    O1314222   0.833   3.282   6.353 -0.1016 -0.0449 -0.3071
  132OSM    O1414223   1.072   3.213   6.306 -0.3625  0.2291  0.1201
  132OSM    O1114224   1.017   3.395   6.471  0.0296 -0.5122  0.0553
  132OSM    O1214225   0.988   3.432   6.223  0.5644  0.5180  0.9916
  132OSM    C1S14226   0.952   3.529   6.491 -0.0315  0.1884 -0.2319
  132OSM    H1S14227   0.857   3.540   6.436  0.9792  0.1710 -2.0545
  132OSM    H1T14228   1.021   3.611   6.460 -0.6840  1.5096  1.6192
  132OSM     NF14229   0.841   3.674   6.674  0.5799  0.2314 -0.3873
  132OSM    HNF14230   0.881   3.764   6.690 -1.5145  0.9508  1.3433
  132OSM    C2S14231   0.933   3.565   6.647 -0.3935  0.1527  0.6143
  132OSM    H2S14232   0.886   3.473   6.689  0.8395 -0.9313 -0.2865
  132OSM    C3S14233   1.067   3.588   6.715  0.3360  0.5347 -0.0526
  132OSM    H3S14234   1.106   3.681   6.669  0.0396  1.3276  1.2514
  132OSM     O314235   1.154   3.477   6.689 -0.1463 -0.1425 -0.7212
  132OSM    HO314236   1.106   3.414   6.635  0.7619 -1.7586  0.2973
  132OSM    C4S14237   1.051   3.610   6.867  0.0556 -0.4737 -0.4405
  132OSM    H4S14238   1.014   3.529   6.932 -2.3296  0.4353 -0.5747
  132OSM    C5S14239   1.081   3.729   6.930  0.0522 -0.7335  0.1186
  132OSM    H5S14240   1.130   3.810   6.874  0.2101 -0.5661  0.4986
  132OSM    C6S14241   1.065   3.767   7.077  0.3792  0.8813 -0.0777
  132OSM    H6S14242   0.993   3.850   7.093  1.2618  1.3599  1.6111
  132OSM    H6T14243   1.164   3.797   7.118  0.6177  0.2401 -0.1706
  132OSM    C7S14244   0.988   3.674   7.167  0.1197  0.9992 -0.4133
  132OSM    H7S14245   1.047   3.584   7.194  0.6617  0.4022 -3.2657
  132OSM    H7T14246   0.900   3.632   7.113  0.9799 -0.6541 -0.6117
  132OSM    C8S14247   0.929   3.727   7.305 -0.2503 -0.0060  0.5447
  132OSM    H8S14248   0.866   3.648   7.351 -0.8925  0.9380  1.3360
  132OSM    H8T14249   0.859   3.808   7.277  0.9371  1.3536  1.3542
  132OSM    C9S14250   1.032   3.776   7.402 -1.0428  0.1794 -0.1049
  132OSM    H9S14251   0.982   3.833   7.483  0.8516  1.6537  0.1151
  132OSM    H9T14252   1.101   3.851   7.357 -0.4287 -0.8394 -0.8895
  132OSM   C10S14253   1.127   3.664   7.459  0.0924 -0.7123 -0.3440
  132OSM   H10S14254   1.188   3.621   7.377 -2.0993  0.0682 -2.4848
  132OSM   H10T14255   1.055   3.583   7.482 -1.4201  0.3913 -1.0047
  132OSM   C11S14256   1.192   3.699   7.593 -0.0696  0.5600  0.0927
  132OSM   H11S14257   1.258   3.788   7.588 -0.8343  1.2287  1.5102
  132OSM   H11T14258   1.251   3.609   7.622 -0.9732  0.1970  0.8424
  132OSM   C12S14259   1.090   3.737   7.711  0.9535  0.3363  0.4095
  132OSM   H12S14260   1.010   3.662   7.694 -0.3028  1.4064  1.3442
  132OSM   H12T14261   1.055   3.842   7.698  1.1839  0.1339 -2.4021
  132OSM   C13S14262   1.154   3.711   7.851  0.2699 -0.7530 -0.2094
  132OSM   H13S14263   1.223   3.797   7.866  0.1089 -0.8613  1.2926
  132OSM   H13T14264   1.208   3.614   7.848  2.0294  0.1674  0.1945
  132OSM   C14S14265   1.056   3.714   7.968  0.7697  0.9211  0.6734
  132OSM   H14S14266   0.968   3.652   7.939  1.3066  0.4861 -0.0817
  132OSM   H14T14267   1.013   3.816   7.978  0.1342  0.5507  1.8349
  132OSM   C15S14268   1.117   3.673   8.098 -0.4462 -0.5084 -0.2610
  132OSM   H15S14269   1.197   3.748   8.120 -1.2706  1.0442 -2.2074
  132OSM   H15T14270   1.171   3.577   8.098  0.9452  0.1620  2.7352
  132OSM   C16S14271   1.013   3.679   8.210  0.8038 -0.5149 -0.2669
  132OSM   H16S14272   0.924   3.624   8.172  1.2784 -1.7062  0.2666
  132OSM   H16T14273   0.994   3.784   8.240  1.8788  0.2329 -2.0499
  132OSM   C17S14274   1.052   3.621   8.349 -0.4180  0.1899  1.1471
  132OSM   H17S14275   1.133   3.683   8.392  2.0796 -2.0418 -0.0535
  132OSM   H17T14276   1.086   3.516   8.341 -3.7175 -0.9217 -0.2746
  132OSM   C18S14277   0.934   3.624   8.444  0.5212  0.1276  0.0691
  132OSM   H18S14278   0.973   3.599   8.545  2.7273 -1.4236 -1.0768
  132OSM   H18T14279   0.871   3.533   8.433 -1.0704  1.3375 -1.2894
  132OSM   H18U14280   0.872   3.716   8.445 -1.8424 -1.3866  0.7790
  132OSM    C1F14281   0.707   3.672   6.634 -0.0086  0.4815  0.3184
  132OSM     OF14282   0.645   3.569   6.594  1.1487 -0.6922 -0.4101
  132OSM    C2F14283   0.645   3.815   6.644  0.1725 -0.0153  0.4331
  132OSM    H2F14284   0.590   3.832   6.549 -0.8363  2.2890  1.3576
  132OSM    H2G14285   0.735   3.881   6.641 -0.6839  1.1563 -1.4011
  132OSM    C3F14286   0.564   3.843   6.769  0.1879  0.0910 -0.4198
  132OSM    H3F14287   0.481   3.769   6.778 -0.0224  0.6002  4.0150
  132OSM    H3G14288   0.526   3.946   6.756  2.0018  0.7999 -0.3425
  132OSM    C4F14289   0.637   3.846   6.908  0.7307  0.5207 -0.9392
  132OSM    H4F14290   0.698   3.939   6.906 -0.2378  1.2692  1.2987
  132OSM    H4G14291   0.683   3.747   6.926 -3.8483 -1.8371 -0.7090
  132OSM    C5F14292   0.538   3.868   7.030 -0.2315  0.2500  0.1113
  132OSM    H5F14293   0.452   3.798   7.022 -1.6026  1.9482 -0.6303
  132OSM    H5G14294   0.497   3.971   7.026  0.0443  0.3671  0.2570
  132OSM    C6F14295   0.601   3.845   7.168 -0.7159 -0.1280 -0.1913
  132OSM    H6F14296   0.701   3.891   7.163 -1.6309  1.9590 -0.1453
  132OSM    H6G14297   0.611   3.738   7.199 -0.8493  0.5823  2.5783
  132OSM    C7F14298   0.520   3.912   7.278  0.5518 -0.4006 -0.1684
  132OSM    H7F14299   0.417   3.872   7.288 -0.0258  1.1242  0.0780
  132OSM    H7G14300   0.514   4.019   7.250  1.4102 -0.2690  0.1196
  132OSM    C8F14301   0.586   3.893   7.411 -0.5197  0.0837 -0.8649
  132OSM    H8F14302   0.552   3.976   7.476 -0.2546  0.0004 -0.6192
  132OSM    H8G14303   0.696   3.901   7.400 -0.5970  1.0823 -1.0317
  132OSM    C9F14304   0.554   3.761   7.474 -0.4509  0.0303 -0.0124
  132OSM    H9F14305   0.555   3.673   7.408 -0.5000  0.5462 -0.7113
  132OSM   C10F14306   0.528   3.748   7.601  0.6801 -0.5357  0.2342
  132OSM   H10F14307   0.505   3.647   7.640 -0.7664 -0.8881 -1.4441
  132OSM   C11F14308   0.522   3.858   7.706  0.1372 -0.2495  0.0171
  132OSM   H11F14309   0.419   3.888   7.735  0.1470 -0.7444  0.5862
  132OSM   H11G14310   0.578   3.946   7.667 -0.4921  0.7177  1.2109
  132OSM   C12F14311   0.599   3.833   7.839 -0.6332  0.2784  0.9054
  132OSM   H12F14312   0.686   3.767   7.819 -0.6814  0.1836  1.0059
  132OSM   H12G14313   0.540   3.766   7.906  0.2652 -1.1704  0.2939
  132OSM   C13F14314   0.621   3.963   7.915 -0.2234 -0.1990 -0.7034
  132OSM   H13F14315   0.527   3.995   7.966  0.0179 -1.9469  0.9375
  132OSM   H13G14316   0.676   4.040   7.856  0.4161 -0.3985 -0.3736
  132OSM   C14F14317   0.717   3.934   8.039  0.3073  1.1030 -0.2390
  132OSM   H14F14318   0.729   4.021   8.108  0.7066 -0.4676  1.7566
  132OSM   H14G14319   0.814   3.904   7.993 -0.2612  0.6594 -1.1634
  132OSM   C15F14320   0.665   3.835   8.147  0.3858  0.1940 -0.1666
  132OSM   H15F14321   0.748   3.801   8.214  0.1804  2.0134  1.0814
  132OSM   H15G14322   0.629   3.745   8.093  0.4376  0.0874 -0.0250
  132OSM   C16F14323   0.541   3.883   8.224 -0.7355  0.3332  0.0395
  132OSM   H16F14324   0.445   3.840   8.190 -1.6881  2.1698  0.2982
  132OSM   H16G14325   0.537   3.994   8.222 -0.6364  0.3297 -0.3072
  132OSM   C17F14326   0.539   3.843   8.371  0.0263  0.6531 -0.2225
  132OSM   H17F14327   0.636   3.877   8.413 -0.3421  0.8767  0.4536
  132OSM   H17G14328   0.529   3.733   8.385  0.5982  0.5568 -0.5341
  132OSM   C18F14329   0.439   3.922   8.457 -0.1265 -0.3393  0.1531
  132OSM   H18F14330   0.332   3.897   8.440 -0.1988  1.5503 -2.9845
  132OSM   H18G14331   0.430   4.023   8.410 -1.3783 -0.7612 -0.5404
  132OSM   H18H14332   0.474   3.930   8.562  0.7728 -1.7634 -0.0111
  133OSM      N14333   0.949   4.574   6.181 -0.2289 -0.4174  0.2682
  133OSM    C1514334   1.049   4.675   6.135  0.0200  0.4808  0.0328
  133OSM   H15A14335   1.040   4.700   6.030 -1.7457  2.5405  0.6044
  133OSM   H15B14336   1.146   4.632   6.152 -0.7567 -1.1369  0.6293
  133OSM   H15C14337   1.047   4.775   6.176  0.0410  0.9352 -1.0312
  133OSM    C1414338   0.816   4.626   6.153  0.5014 -0.6189  0.0622
  133OSM   H14A14339   0.811   4.648   6.047  1.1497 -2.0474 -0.2779
  133OSM   H14B14340   0.805   4.717   6.210  0.0517 -0.8086  0.2834
  133OSM   H14C14341   0.731   4.567   6.183 -0.3182  1.1923  1.5323
  133OSM    C1314342   0.963   4.442   6.121  0.0411 -0.1711  0.0654
  133OSM   H13A14343   0.892   4.367   6.153 -0.0356 -0.4292 -0.6861
  133OSM   H13B14344   1.064   4.404   6.122 -0.1632 -0.7162  0.1320
  133OSM   H13C14345   0.941   4.449   6.016 -1.3372 -0.4100  0.3238
  133OSM    C1214346   0.959   4.558   6.333  0.0552  0.1590 -0.3644
  133OSM   H12A14347   0.877   4.500   6.374 -1.0946  2.1736  0.3618
  133OSM   H12B14348   0.955   4.656   6.378 -2.4708 -0.0243 -0.0002
  133OSM    C1114349   1.084   4.501   6.395  0.3495  0.2662 -0.1540
  133OSM   H11A14350   1.103   4.533   6.500 -1.7244 -1.0603  0.6729
  133OSM   H11B14351   1.168   4.541   6.333 -0.1339  2.5629  0.5925
  133OSM      P14352   0.992   4.273   6.479 -0.0903  0.0675  0.4787
  133OSM    O1314353   0.854   4.324   6.474  0.6732 -0.5125  0.3141
  133OSM    O1414354   1.013   4.125   6.450 -0.0974 -0.3982  0.5845
  133OSM    O1114355   1.062   4.301   6.619  0.4718  0.2187 -0.4999
  133OSM    O1214356   1.082   4.359   6.383  0.0291  0.3013 -0.4505
  133OSM    C1S14357   1.205   4.287   6.652  0.7266 -0.2583  0.5195
  133OSM    H1S14358   1.264   4.363   6.596 -0.1981  0.8023  0.9356
  133OSM    H1T14359   1.217   4.180   6.626 -4.2345 -0.6617 -1.3440
  133OSM     NF14360   1.356   4.359   6.831  0.0556 -0.2566 -0.4725
  133OSM    HNF14361   1.427   4.296   6.862  0.3474 -0.3637 -1.3236
  133OSM    C2S14362   1.225   4.305   6.804 -0.2283 -0.6675  0.0854
  133OSM    H2S14363   1.147   4.380   6.831  0.9845 -0.0716  2.1933
  133OSM    C3S14364   1.189   4.182   6.878 -0.2773 -0.6604 -0.7212
  133OSM    H3S14365   1.265   4.105   6.852  0.6986  0.5380 -1.5615
  133OSM     O314366   1.058   4.127   6.849 -0.2274  0.1630  0.6500
  133OSM    HO314367   1.023   4.183   6.779  0.7799 -0.3643 -0.2982
  133OSM    C4S14368   1.197   4.202   7.024 -0.4235  0.6256 -0.0462
  133OSM    H4S14369   1.139   4.281   7.073 -0.6306 -0.6750  1.9414
  133OSM    C5S14370   1.271   4.120   7.098  0.1443 -0.1949 -0.3264
  133OSM    H5S14371   1.334   4.041   7.055  2.5144 -0.2709  2.9839
  133OSM    C6S14372   1.296   4.137   7.251  0.1997  0.3418  0.0829
  133OSM    H6S14373   1.401   4.132   7.284  0.0638 -1.9854  0.3746
  133OSM    H6T14374   1.233   4.064   7.308 -1.1441 -0.3331 -2.0995
  133OSM    C7S14375   1.254   4.275   7.303  0.8937 -0.0472 -0.1805
  133OSM    H7S14376   1.145   4.283   7.286  0.8791  0.2865  0.0676
  133OSM    H7T14377   1.319   4.350   7.253  1.7626  0.1404  1.1881
  133OSM    C8S14378   1.285   4.286   7.448 -0.6000  0.1756  0.2207
  133OSM    H8S14379   1.395   4.272   7.458 -0.6903 -1.8585 -1.1701
  133OSM    H8T14380   1.238   4.196   7.492  0.5989 -0.5347  0.0769
  133OSM    C9S14381   1.244   4.415   7.529  0.2037 -0.4532  0.3350
  133OSM    H9S14382   1.255   4.385   7.636  3.2722  0.7400  0.4444
  133OSM    H9T14383   1.143   4.450   7.499 -0.6876 -1.3957  2.0698
  133OSM   C10S14384   1.343   4.530   7.508  0.6336 -0.2179  0.7358
  133OSM   H10S14385   1.369   4.546   7.401  1.9402  1.7153  1.2859
  133OSM   H10T14386   1.437   4.504   7.559  2.5466 -1.8879 -3.2287
  133OSM   C11S14387   1.283   4.653   7.565 -0.7036  0.2012 -0.1623
  133OSM   H11S14388   1.175   4.667   7.544 -0.4026  0.6094 -1.5295
  133OSM   H11T14389   1.329   4.746   7.527 -0.4860 -0.2773 -1.0884
  133OSM   C12S14390   1.303   4.664   7.720  0.1020  0.0228  0.2966
  133OSM   H12S14391   1.404   4.630   7.752 -0.6287 -2.1074  0.5208
  133OSM   H12T14392   1.220   4.608   7.769  0.8371  0.9851  2.8069
  133OSM   C13S14393   1.304   4.809   7.773 -0.0112  0.4056  0.2847
  133OSM   H13S14394   1.204   4.846   7.744  0.0722  0.2807 -0.1805
  133OSM   H13T14395   1.380   4.879   7.733 -0.2291  0.4392 -0.0774
  133OSM   C14S14396   1.321   4.821   7.925 -0.2711  0.1784  0.0887
  133OSM   H14S14397   1.248   4.756   7.978 -2.6770 -0.3437 -3.5055
  133OSM   H14T14398   1.277   4.918   7.955 -1.6383 -0.6372  0.8316
  133OSM   C15S14399   1.459   4.802   7.981 -0.0443  0.1002 -0.2890
  133OSM   H15S14400   1.526   4.884   7.948  0.2265  0.2381  0.5832
  133OSM   H15T14401   1.506   4.706   7.949 -2.6090 -0.9902 -1.0803
  133OSM   C16S14402   1.470   4.809   8.134 -0.1197 -0.3507 -0.2162
  133OSM   H16S14403   1.428   4.709   8.160 -0.4783  0.1663  1.2523
  133OSM   H16T14404   1.397   4.887   8.164 -1.0475 -1.1870 -0.2407
  133OSM   C17S14405   1.607   4.817   8.196  0.0328  0.0122  0.3722
  133OSM   H17S14406   1.659   4.907   8.158 -0.4243  0.2622  0.3277
  133OSM   H17T14407   1.668   4.733   8.156 -0.5964  0.5974 -1.9837
  133OSM   C18S14408   1.601   4.813   8.350  0.1078  0.1193 -0.2568
  133OSM   H18S14409   1.705   4.809   8.390 -0.5034 -1.6130  1.2922
  133OSM   H18T14410   1.549   4.725   8.393  0.8918  0.7568  2.1716
  133OSM   H18U14411   1.546   4.902   8.389  1.1787  0.2417  1.0557
  133OSM    C1F14412   1.399   4.482   6.782 -0.0183 -0.7491 -0.4443
  133OSM     OF14413   1.309   4.553   6.739  0.0002 -0.1363 -0.4026
  133OSM    C2F14414   1.542   4.516   6.791 -0.1999 -0.2929 -0.2225
  133OSM    H2F14415   1.566   4.604   6.728  0.7113 -0.3796 -0.0149
  133OSM    H2G14416   1.619   4.444   6.757  0.7178  0.1296  0.8990
  133OSM    C3F14417   1.587   4.543   6.941  0.0473  0.7183 -0.6225
  133OSM    H3F14418   1.696   4.556   6.927 -0.1341  0.2343 -2.9886
  133OSM    H3G14419   1.570   4.439   6.977  0.5733  0.3962 -1.2778
  133OSM    C4F14420   1.510   4.651   7.015 -0.3813 -0.0369  0.6943
  133OSM    H4F14421   1.531   4.651   7.124 -1.7127  3.6616  1.0940
  133OSM    H4G14422   1.400   4.633   7.005  0.1006 -2.3972 -1.1569
  133OSM    C5F14423   1.561   4.796   6.967 -0.0739  0.0557  0.4114
  133OSM    H5F14424   1.561   4.798   6.856  0.9232  1.3325  0.4142
  133OSM    H5G14425   1.666   4.808   6.999  0.0091  2.1015 -0.4530
  133OSM    C6F14426   1.472   4.906   7.026  0.2147  0.2687 -0.4195
  133OSM    H6F14427   1.374   4.905   6.975 -0.4506 -0.8140  0.8190
  133OSM    H6G14428   1.521   4.999   6.991  2.2260 -1.2516 -1.8805
  133OSM    C7F14429   1.458   4.903   7.176 -0.6978  0.1405  0.3221
  133OSM    H7F14430   1.555   4.882   7.227 -0.0051  1.0143 -0.5914
  133OSM    H7G14431   1.384   4.825   7.203  0.3085 -2.3954 -3.4512
  133OSM    C8F14432   1.400   5.036   7.233 -0.3973  0.2563  0.7601
  133OSM    H8F14433   1.366   5.001   7.333  1.0504  2.2736  2.0470
  133OSM    H8G14434   1.308   5.065   7.179  0.6455  2.6847  0.1824
  133OSM    C9F14435   1.489   5.155   7.250 -0.4333  0.2156 -0.5768
  133OSM    H9F14436   1.574   5.171   7.181 -0.4240  0.5082 -0.4997
  133OSM   C10F14437   1.474   5.241   7.350 -0.0129  0.1527  0.7124
  133OSM   H10F14438   1.531   5.335   7.347  2.3751 -1.2265  0.0708
  133OSM   C11F14439   1.370   5.237   7.459  0.3584 -0.2255 -0.1893
  133OSM   H11F14440   1.273   5.190   7.433 -0.2387  1.0945 -0.4472
  133OSM   H11G14441   1.328   5.338   7.476 -0.6351 -0.6125 -0.2718
  133OSM   C12F14442   1.441   5.175   7.583  0.4461  0.5804 -0.3443
  133OSM   H12F14443   1.480   5.076   7.552 -3.0492 -1.4590  1.1987
  133OSM   H12G14444   1.362   5.145   7.656 -0.4997 -2.3414 -2.3644
  133OSM   C13F14445   1.547   5.260   7.646  0.4624  0.9099 -0.8207
  133OSM   H13F14446   1.511   5.364   7.659 -1.3194  0.2629 -0.1881
  133OSM   H13G14447   1.626   5.270   7.569  0.8354 -0.2358 -0.6101
  133OSM   C14F14448   1.612   5.205   7.775  0.5528  0.3207 -0.2450
  133OSM   H14F14449   1.671   5.293   7.810 -2.6341  1.5223  2.7709
  133OSM   H14G14450   1.671   5.120   7.736  0.9154  0.4351  0.0520
  133OSM   C15F14451   1.512   5.164   7.886 -0.7216  0.1041 -0.5975
  133OSM   H15F14452   1.575   5.109   7.959  0.0257 -0.2928 -1.5241
  133OSM   H15G14453   1.440   5.087   7.851 -0.1810 -1.2551  1.1682
  133OSM   C16F14454   1.433   5.277   7.950  0.3240  0.1040  0.1326
  133OSM   H16F14455   1.385   5.326   7.863 -0.2149  0.3617  0.5674
  133OSM   H16G14456   1.492   5.362   7.989  0.4980 -0.1624  0.4572
  133OSM   C17F14457   1.331   5.210   8.041  0.1574  0.0205  0.2258
  133OSM   H17F14458   1.385   5.156   8.121  0.9364  0.8614  0.2920
  133OSM   H17G14459   1.259   5.150   7.983  1.0599  1.1619 -2.2281
  133OSM   C18F14460   1.251   5.302   8.126  0.4337  0.0165  0.2693
  133OSM   H18F14461   1.320   5.373   8.176 -1.3035  2.2161 -0.2804
  133OSM   H18G14462   1.189   5.251   8.203  0.6197  1.6774  1.5847
  133OSM   H18H14463   1.190   5.368   8.061  0.3425 -2.8079 -2.7792
  134OSM      N14464   1.601   1.022   6.370  0.0976 -0.4347 -0.5324
  134OSM    C1514465   1.547   0.930   6.267  0.0911 -0.0212 -0.7766
  134OSM   H15A14466   1.625   0.881   6.210  1.2447  2.2098 -1.2149
  134OSM   H15B14467   1.484   0.980   6.195 -2.6209  0.8243  1.9542
  134OSM   H15C14468   1.483   0.857   6.315  1.4577 -2.2050 -2.0845
  134OSM    C1414469   1.685   1.131   6.299 -0.1484 -0.0204  0.7958
  134OSM   H14A14470   1.642   1.197   6.225  0.7264  0.7509  0.9667
  134OSM   H14B14471   1.771   1.090   6.249  0.5149  1.3471  0.7745
  134OSM   H14C14472   1.721   1.202   6.372 -3.0931  1.4937  0.9225
  134OSM    C1314473   1.492   1.099   6.447 -0.4019 -0.0386 -0.3353
  134OSM   H13A14474   1.431   1.149   6.373  1.1104  1.2605 -0.7870
  134OSM   H13B14475   1.543   1.176   6.503  1.9252 -0.0477 -2.2259
  134OSM   H13C14476   1.434   1.036   6.512 -1.4818 -0.2065 -1.4179
  134OSM    C1214477   1.685   0.945   6.469 -0.1039  0.3229  0.3325
  134OSM   H12A14478   1.768   0.896   6.419 -1.9621 -2.4674 -0.2668
  134OSM   H12B14479   1.624   0.869   6.514  0.0774 -0.4689 -0.7192
  134OSM    C1114480   1.748   1.025   6.585  1.0852  0.7763 -0.4527
  134OSM   H11A14481   1.777   0.940   6.651  1.7473  2.9661  2.2314
  134OSM   H11B14482   1.670   1.082   6.639 -1.5157 -1.0765 -2.0067
  134OSM      P14483   1.885   1.264   6.579 -0.2034 -0.4972  0.2098
  134OSM    O1314484   2.018   1.297   6.522  0.5564  0.5800 -0.0121
  134OSM    O1414485   1.774   1.349   6.536  0.0835  0.4320 -0.4460
  134OSM    O1114486   1.893   1.283   6.736  0.1638 -0.0542 -0.1443
  134OSM    O1214487   1.858   1.111   6.554 -0.4065 -0.0004 -0.0489
  134OSM    C1S14488   1.981   1.190   6.805  0.2328 -0.5608  0.1124
  134OSM    H1S14489   2.083   1.232   6.795 -0.9089  2.0552 -1.6175
  134OSM    H1T14490   1.988   1.086   6.767 -1.0217 -0.5326 -0.2617
  134OSM     NF14491   2.004   1.078   7.026 -0.6053  0.1546 -0.2405
  134OSM    HNF14492   1.987   0.986   6.991 -1.5217  0.7840 -1.5339
  134OSM    C2S14493   1.927   1.173   6.951 -0.0405  0.1556 -0.2803
  134OSM    H2S14494   1.918   1.265   7.013 -1.1702 -1.2429  1.7340
  134OSM    C3S14495   1.781   1.128   6.945 -0.5308  0.6956 -0.2810
  134OSM    H3S14496   1.774   1.046   6.871 -1.6845 -0.2107  0.7856
  134OSM     O314497   1.692   1.221   6.890 -0.2641  0.1105  0.2862
  134OSM    HO314498   1.754   1.274   6.839 -0.5859 -1.0523 -1.4425
  134OSM    C4S14499   1.728   1.090   7.076  0.0299 -0.3472 -0.0550
  134OSM    H4S14500   1.767   1.161   7.151 -0.4734  1.4852 -1.4692
  134OSM    C5S14501   1.661   0.975   7.101 -0.3365 -0.5707  0.2126
  134OSM    H5S14502   1.629   0.905   7.022 -0.3269 -1.6438  1.1222
  134OSM    C6S14503   1.613   0.927   7.232 -0.2999 -0.2237 -0.3994
  134OSM    H6S14504   1.637   0.819   7.242  1.7671  0.0189 -2.0277
  134OSM    H6T14505   1.503   0.937   7.239 -0.4862 -2.0365 -0.4646
  134OSM    C7S14506   1.671   0.998   7.362 -0.0633  0.7517  0.1513
  134OSM    H7S14507   1.639   1.104   7.369 -0.6316  0.4755  2.2780
  134OSM    H7T14508   1.781   1.003   7.343  0.5102 -4.4136  0.6299
  134OSM    C8S14509   1.654   0.933   7.499 -0.2208  0.0019  0.6188
  134OSM    H8S14510   1.545   0.922   7.521 -0.1534 -0.6085  0.6592
  134OSM    H8T14511   1.683   1.008   7.575  0.8940  0.9158 -0.6693
  134OSM    C9S14512   1.749   0.817   7.532 -0.3544 -0.1855  0.2793
  134OSM    H9S14513   1.858   0.840   7.537  0.0142 -2.0138  2.9119
  134OSM    H9T14514   1.756   0.756   7.439 -0.8713 -0.5158  0.4536
  134OSM   C10S14515   1.715   0.733   7.652  0.1462  0.2127  0.1407
  134OSM   H10S14516   1.625   0.675   7.622  1.1934 -1.3083 -0.1601
  134OSM   H10T14517   1.695   0.796   7.741 -0.7833 -0.1685  0.2133
  134OSM   C11S14518   1.826   0.635   7.693  1.3535  0.2059  0.3898
  134OSM   H11S14519   1.926   0.681   7.707  1.2269  0.9060 -0.8457
  134OSM   H11T14520   1.837   0.560   7.612  0.9765 -2.9796  3.0510
  134OSM   C12S14521   1.788   0.557   7.822  0.4766 -0.2509  0.8895
  134OSM   H12S14522   1.845   0.462   7.824 -1.5236 -1.5117  1.0845
  134OSM   H12T14523   1.682   0.523   7.824  0.8985 -1.9704 -1.5564
  134OSM   C13S14524   1.813   0.637   7.954 -0.2464  0.1926  0.5230
  134OSM   H13S14525   1.744   0.724   7.958 -1.5964 -0.6344 -2.1911
  134OSM   H13T14526   1.922   0.661   7.953  0.3054 -2.0209  1.2912
  134OSM   C14S14527   1.798   0.550   8.075 -0.0968  0.1785  1.1372
  134OSM   H14S14528   1.863   0.584   8.159 -1.9799  3.7328  1.3215
  134OSM   H14T14529   1.807   0.442   8.049 -0.8035  0.2347  0.6575
  134OSM   C15S14530   1.661   0.566   8.135  0.0571  0.0488  0.1218
  134OSM   H15S14531   1.586   0.516   8.071 -0.3545 -0.1000  0.7058
  134OSM   H15T14532   1.621   0.670   8.143 -1.1698 -0.5506  4.3088
  134OSM   C16S14533   1.639   0.515   8.278  0.8677 -0.5523 -0.3526
  134OSM   H16S14534   1.667   0.408   8.286  0.6370 -0.4916  1.7183
  134OSM   H16T14535   1.529   0.521   8.294  0.9620 -2.1930  1.1042
  134OSM   C17S14536   1.711   0.597   8.383 -0.3436 -0.1763  0.0236
  134OSM   H17S14537   1.698   0.706   8.364  1.6962  0.5067  2.0328
  134OSM   H17T14538   1.820   0.583   8.397 -0.2644  0.9174  0.6802
  134OSM   C18S14539   1.656   0.581   8.519 -0.2624 -0.2947 -0.4592
  134OSM   H18S14540   1.715   0.640   8.592 -1.1964 -0.3765  0.3810
  134OSM   H18T14541   1.634   0.476   8.549 -2.1161  0.2575  0.2364
  134OSM   H18U14542   1.557   0.630   8.518  0.2280  0.7752  0.6073
  134OSM    C1F14543   2.129   1.110   7.065  0.3679  0.1879  0.4296
  134OSM     OF14544   2.173   1.218   7.034 -0.1474  0.1015  0.2197
  134OSM    C2F14545   2.213   1.016   7.139 -0.4855  0.3887 -0.7250
  134OSM    H2F14546   2.308   1.009   7.081 -0.4670  2.3096 -0.9973
  134OSM    H2G14547   2.177   0.911   7.136  1.6080 -0.3705 -0.9214
  134OSM    C3F14548   2.235   1.056   7.284 -0.0205  0.1508  0.3913
  134OSM    H3F14549   2.281   1.157   7.291  2.2778 -0.7522 -0.7041
  134OSM    H3G14550   2.302   0.980   7.329 -1.4353 -0.2942  1.8595
  134OSM    C4F14551   2.114   1.068   7.371  0.0158 -0.8786 -0.0474
  134OSM    H4F14552   2.049   0.978   7.363 -1.5074  0.3801 -3.7918
  134OSM    H4G14553   2.051   1.147   7.324 -1.1756 -1.9046 -0.2253
  134OSM    C5F14554   2.149   1.113   7.512  0.3776 -0.0837  0.0913
  134OSM    H5F14555   2.209   1.207   7.514 -2.6459  1.9813  2.2279
  134OSM    H5G14556   2.202   1.027   7.559 -1.1430 -1.0447  0.1126
  134OSM    C6F14557   2.031   1.130   7.609 -0.2503  0.2354 -0.0320
  134OSM    H6F14558   1.981   1.031   7.603 -1.3631  0.8492 -1.7539
  134OSM    H6G14559   1.962   1.209   7.573 -1.4637 -1.3754 -1.4477
  134OSM    C7F14560   2.076   1.168   7.750 -0.4715  0.7713  0.1144
  134OSM    H7F14561   2.142   1.256   7.755  1.0317 -0.3045 -0.1528
  134OSM    H7G14562   2.138   1.083   7.787  1.2774  2.3619  0.9596
  134OSM    C8F14563   1.959   1.181   7.849 -0.2973  0.1110  0.1352
  134OSM    H8F14564   1.926   1.077   7.873  3.1175 -0.8030  1.5622
  134OSM    H8G14565   1.867   1.225   7.805 -1.2748 -1.2034  0.7947
  134OSM    C9F14566   1.983   1.256   7.981 -0.5723  0.3475  0.4188
  134OSM    H9F14567   1.991   1.365   7.968 -2.9373  0.3816 -1.2448
  134OSM   C10F14568   1.996   1.199   8.103 -0.1603 -0.3595  0.4522
  134OSM   H10F14569   2.027   1.254   8.192 -1.6239  0.2256  0.6378
  134OSM   C11F14570   1.989   1.057   8.134  0.3882 -0.3074 -0.0148
  134OSM   H11F14571   2.062   0.996   8.076 -0.3133  1.3206 -2.7983
  134OSM   H11G14572   1.889   1.018   8.102  0.0356 -4.7619  4.9772
  134OSM   C12F14573   1.984   1.034   8.286  0.6542 -0.0652 -0.2541
  134OSM   H12F14574   1.903   1.099   8.327  0.4009 -0.7096  0.2861
  134OSM   H12G14575   2.079   1.062   8.335  0.6375 -0.4264 -0.0136
  134OSM   C13F14576   1.952   0.890   8.323 -0.3286 -0.1759 -0.0514
  134OSM   H13F14577   2.015   0.823   8.260 -0.9671 -0.7589 -0.0803
  134OSM   H13G14578   1.844   0.873   8.302 -0.0474  0.2702 -2.0884
  134OSM   C14F14579   1.988   0.857   8.469 -0.3534 -0.1174 -0.2705
  134OSM   H14F14580   1.952   0.753   8.480 -0.1147  0.0316  2.8976
  134OSM   H14G14581   1.926   0.912   8.543  0.0670  1.3054 -0.9315
  134OSM   C15F14582   2.139   0.853   8.505  1.4003 -0.3783  0.3728
  134OSM   H15F14583   2.152   0.809   8.606  1.9908  0.0167  0.4753
  134OSM   H15G14584   2.169   0.960   8.515 -2.3574  0.9606 -0.7054
  134OSM   C16F14585   2.221   0.762   8.413  0.6215  0.2791 -0.3858
  134OSM   H16F14586   2.252   0.819   8.323 -1.1782  1.1400 -0.5087
  134OSM   H16G14587   2.155   0.680   8.380  0.7311  0.0775 -0.1082
  134OSM   C17F14588   2.340   0.704   8.486 -0.8537 -0.2568  0.0723
  134OSM   H17F14589   2.299   0.641   8.568  1.7013 -1.7586  0.3239
  134OSM   H17G14590   2.402   0.783   8.534 -1.0569 -0.7511  1.1877
  134OSM   C18F14591   2.439   0.620   8.394  0.7989 -0.5708 -0.3696
  134OSM   H18F14592   2.388   0.526   8.366 -0.0881 -0.0267 -0.6208
  134OSM   H18G14593   2.524   0.590   8.459 -0.1718 -3.3566 -0.2638
  134OSM   H18H14594   2.469   0.680   8.306  2.7496 -0.3887  0.3706
  135OSM      N14595   0.500   1.003   6.499 -0.3602  0.5610 -0.0958
  135OSM    C1514596   0.588   0.996   6.621  0.2360  0.0492  0.3125
  135OSM   H15A14597   0.635   0.900   6.640 -0.7680 -0.0882  2.3498
  135OSM   H15B14598   0.526   1.018   6.707 -0.9158 -0.8351 -0.2703
  135OSM   H15C14599   0.674   1.058   6.600  0.8905 -1.2971 -1.2222
  135OSM    C1414600   0.405   0.889   6.495  0.3417  0.1273 -0.2021
  135OSM   H14A14601   0.327   0.908   6.422  0.7305  1.6173 -0.2560
  135OSM   H14B14602   0.346   0.872   6.584 -1.7135  0.0401 -1.4970
  135OSM   H14C14603   0.441   0.789   6.472 -0.6854 -0.2241 -0.3340
  135OSM    C1314604   0.423   1.134   6.509 -0.5482 -0.4856 -0.1384
  135OSM   H13A14605   0.490   1.219   6.516  0.9796 -1.5205 -1.4269
  135OSM   H13B14606   0.352   1.134   6.591 -0.6381  1.2207 -0.1684
  135OSM   H13C14607   0.366   1.148   6.418  3.9108  1.7969 -2.9951
  135OSM    C1214608   0.579   1.006   6.368 -0.6053 -0.1124  0.5005
  135OSM   H12A14609   0.517   0.978   6.284 -1.5411  2.9063  0.0399
  135OSM   H12B14610   0.652   0.927   6.365 -0.3286  0.1221 -2.9475
  135OSM    C1114611   0.663   1.124   6.337 -0.0867  0.0427 -0.1821
  135OSM   H11A14612   0.598   1.214   6.334 -3.4754 -2.2442 -1.7369
  135OSM   H11B14613   0.708   1.107   6.237  4.7722 -2.3359  2.1033
  135OSM      P14614   0.905   1.077   6.416 -0.1388  0.0080  0.2754
  135OSM    O1314615   0.894   0.952   6.335 -0.2803  0.5732 -0.1241
  135OSM    O1414616   0.990   1.187   6.368  0.1320 -0.3134  0.1939
  135OSM    O1114617   0.949   1.043   6.568 -0.1819 -0.4710  0.0134
  135OSM    O1214618   0.764   1.140   6.441  0.3211  0.0768  0.0623
  135OSM    C1S14619   1.047   1.128   6.636 -0.0044 -0.3234  0.8538
  135OSM    H1S14620   1.012   1.233   6.645  3.4350  1.0039  0.5459
  135OSM    H1T14621   1.145   1.131   6.584 -0.1005 -1.7709  0.5750
  135OSM     NF14622   1.189   1.154   6.842 -0.0038 -0.2516 -0.2277
  135OSM    HNF14623   1.279   1.114   6.857 -0.1440 -0.1719  0.9230
  135OSM    C2S14624   1.092   1.071   6.775 -0.7696  0.8628  0.0513
  135OSM    H2S14625   1.001   1.070   6.839 -0.6519  0.3354  0.2179
  135OSM    C3S14626   1.137   0.924   6.765  0.5066 -0.0242 -0.2503
  135OSM    H3S14627   1.234   0.922   6.711 -0.1839 -0.8277 -1.5081
  135OSM     O314628   1.038   0.833   6.709 -0.2541 -0.5227  0.1765
  135OSM    HO314629   0.992   0.894   6.651 -0.2217  0.9876  1.6357
  135OSM    C4S14630   1.164   0.881   6.904 -0.0571  0.5360  0.3362
  135OSM    H4S14631   1.270   0.880   6.932  0.3018 -1.4077 -0.9075
  135OSM    C5S14632   1.081   0.836   6.998  0.1481 -0.5491  0.5119
  135OSM    H5S14633   0.973   0.825   6.983  0.1886 -1.5749  0.8349
  135OSM    C6S14634   1.134   0.788   7.133 -1.3130  0.0063 -0.0228
  135OSM    H6S14635   1.076   0.696   7.154 -0.5226 -0.5485 -0.2207
  135OSM    H6T14636   1.109   0.861   7.213 -2.9265  1.3953 -1.7073
  135OSM    C7S14637   1.289   0.768   7.150  0.2474 -0.2319  0.1802
  135OSM    H7S14638   1.347   0.863   7.155  1.9963 -1.2488 -0.3804
  135OSM    H7T14639   1.331   0.724   7.058 -1.5367  1.1888 -1.3975
  135OSM    C8S14640   1.315   0.679   7.272 -0.8244  0.1454 -0.0459
  135OSM    H8S14641   1.424   0.657   7.265 -1.0315 -0.6865 -0.9307
  135OSM    H8T14642   1.253   0.587   7.272 -1.0480  0.2859 -0.8287
  135OSM    C9S14643   1.289   0.743   7.406 -0.0364 -0.6072 -0.7213
  135OSM    H9S14644   1.183   0.774   7.420  0.3389  0.0978  0.7560
  135OSM    H9T14645   1.353   0.831   7.429  0.5851 -1.0885 -0.5593
  135OSM   C10S14646   1.328   0.638   7.517 -0.2530 -0.3546  1.1220
  135OSM   H10S14647   1.435   0.610   7.504 -0.1296  0.1332  1.0771
  135OSM   H10T14648   1.254   0.554   7.518 -0.2242 -0.3803  1.0955
  135OSM   C11S14649   1.329   0.692   7.656  0.4413 -0.5196 -0.5118
  135OSM   H11S14650   1.246   0.765   7.646  0.6006 -0.3185 -0.3835
  135OSM   H11T14651   1.418   0.757   7.670 -0.6961  1.0611 -0.3572
  135OSM   C12S14652   1.307   0.596   7.771  0.2096 -0.3366 -0.2018
  135OSM   H12S14653   1.395   0.531   7.792  0.7350  0.4869  0.1984
  135OSM   H12T14654   1.210   0.545   7.751 -0.1341  0.6013 -1.0249
  135OSM   C13S14655   1.303   0.682   7.905  0.3697 -0.3943 -0.0986
  135OSM   H13S14656   1.238   0.772   7.895  2.2852  1.1002  0.2933
  135OSM   H13T14657   1.407   0.717   7.919 -0.5372  1.8174  1.8760
  135OSM   C14S14658   1.261   0.599   8.024  0.2467 -0.0110 -0.1089
  135OSM   H14S14659   1.317   0.504   8.038 -0.4534 -0.3162  0.7318
  135OSM   H14T14660   1.151   0.587   8.012  0.4727 -1.3674 -1.0198
  135OSM   C15S14661   1.293   0.677   8.149  0.1504 -0.3256 -0.5934
  135OSM   H15S14662   1.269   0.785   8.143 -1.8804 -0.6409  0.8253
  135OSM   H15T14663   1.401   0.683   8.173 -0.1944  1.9078  0.7164
  135OSM   C16S14664   1.229   0.618   8.276 -0.5282 -0.0955 -0.4699
  135OSM   H16S14665   1.250   0.512   8.301 -2.5291 -0.0831  1.6634
  135OSM   H16T14666   1.118   0.618   8.272 -0.5937  0.4688  0.7762
  135OSM   C17S14667   1.278   0.705   8.391 -0.4524  0.2935  0.7111
  135OSM   H17S14668   1.231   0.806   8.387 -1.2444  0.0396  2.6511
  135OSM   H17T14669   1.388   0.721   8.387  0.1036 -2.8657  0.9325
  135OSM   C18S14670   1.233   0.659   8.527  0.1610  0.0743  0.1974
  135OSM   H18S14671   1.294   0.712   8.603  2.6336  0.2997 -1.7898
  135OSM   H18T14672   1.239   0.549   8.538 -2.4399  0.0102  1.9240
  135OSM   H18U14673   1.126   0.686   8.537  0.1767 -0.2346  1.2885
  135OSM    C1F14674   1.173   1.283   6.867  0.0985 -0.4257 -0.4196
  135OSM     OF14675   1.063   1.332   6.864 -0.0189 -0.5277 -0.0197
  135OSM    C2F14676   1.294   1.355   6.901  0.4644  0.5308 -0.3831
  135OSM    H2F14677   1.290   1.451   6.845 -1.2109  1.0312  0.5281
  135OSM    H2G14678   1.382   1.292   6.876 -0.9705 -2.4095  1.3694
  135OSM    C3F14679   1.311   1.380   7.049  0.0598 -0.1935 -0.6474
  135OSM    H3F14680   1.229   1.435   7.100  0.7549  0.6896 -0.4614
  135OSM    H3G14681   1.405   1.436   7.066  0.6439 -1.3967  0.1969
  135OSM    C4F14682   1.334   1.251   7.138  0.2057  0.2866  1.0410
  135OSM    H4F14683   1.419   1.195   7.094  0.3086  2.2786 -1.5177
  135OSM    H4G14684   1.248   1.182   7.133  0.5957 -0.0885 -0.8536
  135OSM    C5F14685   1.366   1.291   7.280 -0.2108 -0.2864  0.5753
  135OSM    H5F14686   1.316   1.386   7.307  0.9674 -0.1822  2.6126
  135OSM    H5G14687   1.477   1.302   7.280 -0.1873  0.2347  3.2587
  135OSM    C6F14688   1.328   1.171   7.372 -0.5881  0.1019 -0.2855
  135OSM    H6F14689   1.403   1.092   7.350 -0.5029  0.4221 -1.1910
  135OSM    H6G14690   1.225   1.138   7.350 -0.5795 -0.2992  0.2710
  135OSM    C7F14691   1.332   1.208   7.520 -0.2810  0.9594  0.7101
  135OSM    H7F14692   1.258   1.290   7.531  1.7304  3.2694 -1.7447
  135OSM    H7G14693   1.430   1.250   7.550 -0.2762 -0.2192  2.5074
  135OSM    C8F14694   1.287   1.084   7.609 -0.2053 -0.3869  0.2397
  135OSM    H8F14695   1.361   1.003   7.590  1.2989  1.1029 -0.5853
  135OSM    H8G14696   1.196   1.049   7.557  0.0916 -1.4748  0.4256
  135OSM    C9F14697   1.264   1.106   7.759  0.2331  0.1672  0.0981
  135OSM    H9F14698   1.169   1.070   7.801  0.9397 -0.0473  1.5674
  135OSM   C10F14699   1.356   1.123   7.854  0.4212 -0.0335 -0.3280
  135OSM   H10F14700   1.325   1.132   7.960  2.5361  0.2947  0.3148
  135OSM   C11F14701   1.507   1.133   7.846 -0.2765 -0.2038 -0.3493
  135OSM   H11F14702   1.546   1.221   7.901  1.0663 -1.6494  1.1150
  135OSM   H11G14703   1.541   1.144   7.740 -1.7281  2.1024 -0.6520
  135OSM   C12F14704   1.584   1.012   7.900 -0.5690  0.4223  0.0088
  135OSM   H12F14705   1.692   1.016   7.872 -0.8314  1.2423 -0.9822
  135OSM   H12G14706   1.547   0.928   7.838  0.3091 -0.9511  1.2670
  135OSM   C13F14707   1.569   0.983   8.051 -0.0861  0.2296  0.1108
  135OSM   H13F14708   1.643   0.910   8.090  0.8179  0.7838 -0.5245
  135OSM   H13G14709   1.467   0.939   8.061 -0.2695  0.4526 -0.6747
  135OSM   C14F14710   1.582   1.099   8.156  0.1880 -0.2369 -0.3436
  135OSM   H14F14711   1.511   1.179   8.126 -2.3101 -1.9884  0.6495
  135OSM   H14G14712   1.687   1.134   8.145 -0.4408  1.5008 -1.3386
  135OSM   C15F14713   1.566   1.046   8.297 -0.6720  0.0092  0.3318
  135OSM   H15F14714   1.625   0.952   8.309  0.7072  0.7342 -0.5186
  135OSM   H15G14715   1.459   1.020   8.301 -1.6054  2.5822 -3.0561
  135OSM   C16F14716   1.603   1.145   8.415 -0.2683 -0.3085 -0.7943
  135OSM   H16F14717   1.706   1.181   8.393 -0.6050  0.4046 -1.2148
  135OSM   H16G14718   1.605   1.074   8.501  0.2446 -0.6634 -1.0935
  135OSM   C17F14719   1.501   1.261   8.435 -0.6513 -0.0623 -0.4816
  135OSM   H17F14720   1.469   1.294   8.334 -3.5137  0.7007  0.5724
  135OSM   H17G14721   1.561   1.336   8.491  0.2652 -0.1330 -1.3435
  135OSM   C18F14722   1.382   1.215   8.525  0.2607  0.3914 -0.4498
  135OSM   H18F14723   1.339   1.120   8.486  0.5283 -1.1493  2.6658
  135OSM   H18G14724   1.303   1.291   8.543 -1.0687 -0.7201 -1.3590
  135OSM   H18H14725   1.416   1.190   8.628 -0.0415 -5.1176 -1.3820
  136OSM      N14726   0.734   2.882   6.041  0.2342  0.1595 -0.6138
  136OSM    C1514727   0.827   2.990   6.075 -0.6846 -0.3984  0.0030
  136OSM   H15A14728   0.781   3.086   6.092  0.5511  0.2767 -0.2978
  136OSM   H15B14729   0.905   3.001   6.000  0.5672 -4.1486  0.5456
  136OSM   H15C14730   0.880   2.964   6.166  0.3147  1.7906  0.1059
  136OSM    C1414731   0.615   2.928   5.955 -0.6999  0.2247 -0.2003
  136OSM   H14A14732   0.647   2.946   5.854 -0.3761 -0.2306 -0.1818
  136OSM   H14B14733   0.566   3.016   5.993 -0.2709  0.3818 -0.0034
  136OSM   H14C14734   0.552   2.841   5.942  0.5080 -0.5194 -1.3289
  136OSM    C1314735   0.803   2.773   5.960  0.1224 -0.0685 -0.2711
  136OSM   H13A14736   0.845   2.809   5.867  0.0798 -1.2590 -0.7755
  136OSM   H13B14737   0.729   2.696   5.944 -2.8963  2.7234 -0.6513
  136OSM   H13C14738   0.886   2.736   6.019 -1.2699 -0.3416  1.5807
  136OSM    C1214739   0.673   2.802   6.159 -0.1501 -0.5628 -0.7093
  136OSM   H12A14740   0.595   2.731   6.133  0.8952 -2.7750  1.7190
  136OSM   H12B14741   0.632   2.873   6.229  1.7283 -0.6324  0.5414
  136OSM    C1114742   0.776   2.716   6.246  0.8016 -0.5203  0.2637
  136OSM   H11A14743   0.802   2.628   6.184  1.0484  1.0008 -1.9311
  136OSM   H11B14744   0.721   2.682   6.337 -1.0052 -0.5838 -0.7948
  136OSM      P14745   1.018   2.700   6.320 -0.0199  0.5402 -0.1920
  136OSM    O1314746   0.996   2.553   6.302  0.1835  0.3313 -0.4314
  136OSM    O1414747   1.130   2.756   6.231 -0.1896 -0.5630 -0.2877
  136OSM    O1114748   1.050   2.724   6.475  0.5681 -0.0682  0.4803
  136OSM    O1214749   0.887   2.783   6.286  0.0797 -0.1452 -0.1961
  136OSM    C1S14750   1.043   2.853   6.536  0.0863  0.3549  0.8309
  136OSM    H1S14751   0.984   2.920   6.470  0.8303  1.0033  0.8036
  136OSM    H1T14752   1.138   2.908   6.553  0.8664  0.4390 -2.9025
  136OSM     NF14753   0.952   2.973   6.730  0.1929  0.2412  0.1290
  136OSM    HNF14754   1.023   3.020   6.782 -0.2364  0.7824  0.2274
  136OSM    C2S14755   0.971   2.843   6.673  0.1470 -0.8749  0.7423
  136OSM    H2S14756   0.873   2.790   6.666 -1.1710  1.2721  2.0204
  136OSM    C3S14757   1.064   2.755   6.758 -0.7265 -0.1026 -0.2209
  136OSM    H3S14758   1.167   2.797   6.766 -0.7708 -0.0395  0.0508
  136OSM     O314759   1.080   2.620   6.720 -0.3179 -0.3327 -0.0799
  136OSM    HO314760   1.040   2.611   6.634 -0.9749  0.7832  0.0937
  136OSM    C4S14761   1.006   2.757   6.902  0.4752  0.8107  0.3906
  136OSM    H4S14762   0.899   2.731   6.907 -0.3085  3.0276 -2.2776
  136OSM    C5S14763   1.078   2.771   7.016  0.0273 -0.0926  0.4074
  136OSM    H5S14764   1.186   2.790   7.004 -0.1845  1.1378  0.2688
  136OSM    C6S14765   0.997   2.768   7.149 -0.9732 -0.1917 -0.1578
  136OSM    H6S14766   0.921   2.687   7.155 -1.0367 -0.3045 -2.0747
  136OSM    H6T14767   0.955   2.870   7.166  2.4526  1.5516 -1.2269
  136OSM    C7S14768   1.096   2.756   7.266  0.2431 -0.1054  0.9300
  136OSM    H7S14769   1.178   2.831   7.258  0.1255 -0.0570 -0.0060
  136OSM    H7T14770   1.134   2.652   7.264 -0.1001 -0.2559 -1.6416
  136OSM    C8S14771   1.041   2.787   7.404  0.0946  0.8886  0.4771
  136OSM    H8S14772   0.966   2.709   7.427  1.6898 -1.5813 -2.0349
  136OSM    H8T14773   0.995   2.888   7.417 -0.6200  0.3927  2.1752
  136OSM    C9S14774   1.147   2.761   7.512  0.1176  0.1061 -0.3048
  136OSM    H9S14775   1.230   2.835   7.510  1.4493 -1.3427 -1.2692
  136OSM    H9T14776   1.196   2.662   7.500  0.4906  0.2508  0.0094
  136OSM   C10S14777   1.082   2.757   7.650 -0.4623  0.1654 -0.0829
  136OSM   H10S14778   1.020   2.665   7.654 -1.9163  1.1237  3.9259
  136OSM   H10T14779   1.012   2.840   7.671  0.4238  0.9005  0.0357
  136OSM   C11S14780   1.182   2.749   7.769 -0.7956 -0.4292  0.6054
  136OSM   H11S14781   1.226   2.849   7.784 -0.4504  0.4527 -4.4588
  136OSM   H11T14782   1.258   2.677   7.733 -2.2595 -0.4460 -2.8327
  136OSM   C12S14783   1.118   2.704   7.895 -0.2034  0.1495  0.7099
  136OSM   H12S14784   1.059   2.612   7.877  1.1238 -0.6498  0.2373
  136OSM   H12T14785   1.037   2.769   7.934  1.2407  2.6061 -0.1018
  136OSM   C13S14786   1.219   2.686   8.006  0.2309 -0.4420 -0.2083
  136OSM   H13S14787   1.292   2.770   8.004 -0.9174  0.6705  1.4463
  136OSM   H13T14788   1.274   2.590   7.995 -1.8203 -1.9543  1.5788
  136OSM   C14S14789   1.153   2.687   8.145 -0.0082  0.1451 -0.3162
  136OSM   H14S14790   1.086   2.598   8.150 -0.1151  0.1579 -1.3637
  136OSM   H14T14791   1.091   2.775   8.173  0.1532 -0.2759  1.4866
  136OSM   C15S14792   1.259   2.666   8.253  0.0275  0.4665 -0.1195
  136OSM   H15S14793   1.318   2.760   8.266  2.7803 -1.0927 -0.5331
  136OSM   H15T14794   1.327   2.584   8.221 -1.4894 -0.7096 -0.4756
  136OSM   C16S14795   1.189   2.624   8.385  0.4703 -0.2819 -0.3017
  136OSM   H16S14796   1.115   2.545   8.361 -1.1057  0.6994  1.1069
  136OSM   H16T14797   1.123   2.710   8.409  1.0947  1.1220 -3.1228
  136OSM   C17S14798   1.277   2.594   8.504 -0.4476 -0.7472  0.6590
  136OSM   H17S14799   1.221   2.546   8.587  0.0962  0.9159  2.0241
  136OSM   H17T14800   1.322   2.684   8.549  0.2323 -1.9663  2.5451
  136OSM   C18S14801   1.389   2.500   8.472 -0.0372  0.0535  0.3781
  136OSM   H18S14802   1.349   2.409   8.421  0.1585  1.0518 -1.6647
  136OSM   H18T14803   1.447   2.465   8.560  0.7980  3.0609  1.1478
  136OSM   H18U14804   1.458   2.539   8.394 -0.3785 -0.0597  0.0197
  136OSM    C1F14805   0.846   3.040   6.682 -0.2436  0.3115 -0.3373
  136OSM     OF14806   0.772   2.987   6.600 -0.6045 -0.0459  0.0188
  136OSM    C2F14807   0.838   3.176   6.729  1.4347 -0.4481 -0.1007
  136OSM    H2F14808   0.873   3.245   6.649 -1.9889 -0.4425 -1.7845
  136OSM    H2G14809   0.890   3.191   6.825  1.3514 -2.3413  0.2782
  136OSM    C3F14810   0.683   3.214   6.739  0.1934  0.3387 -0.2374
  136OSM    H3F14811   0.629   3.126   6.780  0.7237  0.4482  0.7376
  136OSM    H3G14812   0.654   3.242   6.636 -0.7635  0.2451 -0.0066
  136OSM    C4F14813   0.650   3.332   6.830 -0.7221 -0.1319  0.7854
  136OSM    H4F14814   0.544   3.364   6.818 -1.1838 -2.4519 -3.8281
  136OSM    H4G14815   0.716   3.416   6.801  2.1603 -2.6204 -0.4459
  136OSM    C5F14816   0.675   3.298   6.987  0.1924 -0.4409  0.5260
  136OSM    H5F14817   0.783   3.271   6.987 -0.2393 -2.4152  2.2147
  136OSM    H5G14818   0.617   3.213   7.030 -0.8435 -0.7539 -1.3983
  136OSM    C6F14819   0.673   3.427   7.071 -0.2039  0.4838  0.7082
  136OSM    H6F14820   0.566   3.446   7.094 -0.9946 -3.0787  0.6417
  136OSM    H6G14821   0.708   3.516   7.016  0.3755 -0.5406 -0.6410
  136OSM    C7F14822   0.731   3.399   7.210 -0.2978  0.4102 -0.0665
  136OSM    H7F14823   0.752   3.493   7.265  2.3413 -0.6351  0.8728
  136OSM    H7G14824   0.831   3.359   7.182 -0.4633  0.5936 -0.9498
  136OSM    C8F14825   0.646   3.307   7.298 -0.1281  0.5241  0.2760
  136OSM    H8F14826   0.600   3.224   7.239 -0.9053  2.2923 -1.7367
  136OSM    H8G14827   0.565   3.369   7.342 -0.2368  0.7993 -0.3035
  136OSM    C9F14828   0.737   3.245   7.405 -0.1701  0.0856  0.9888
  136OSM    H9F14829   0.813   3.176   7.366  0.6076  0.2905  2.0661
  136OSM   C10F14830   0.732   3.282   7.532  0.2253 -0.6866  0.0730
  136OSM   H10F14831   0.798   3.237   7.608 -1.6605 -1.3036  1.4045
  136OSM   C11F14832   0.626   3.373   7.599 -1.2480 -0.2569  0.6950
  136OSM   H11F14833   0.522   3.362   7.561 -1.7024  0.5602  1.6436
  136OSM   H11G14834   0.644   3.480   7.575 -0.4517 -1.0540 -2.6382
  136OSM   C12F14835   0.629   3.363   7.754 -0.3558 -0.4328  0.6872
  136OSM   H12F14836   0.735   3.374   7.784  0.5507 -0.1588 -2.3163
  136OSM   H12G14837   0.589   3.264   7.786  1.0347 -0.8161  1.3143
  136OSM   C13F14838   0.560   3.480   7.822  0.0553  0.1371 -0.7781
  136OSM   H13F14839   0.460   3.504   7.779 -0.3784  2.6903  1.3870
  136OSM   H13G14840   0.620   3.572   7.803  1.8042 -1.2620 -2.3624
  136OSM   C14F14841   0.526   3.470   7.973  0.3853  0.8568 -0.0636
  136OSM   H14F14842   0.463   3.384   8.005  1.4269  0.7024  1.7328
  136OSM   H14G14843   0.469   3.551   8.021 -1.8130 -1.1302  0.8400
  136OSM   C15F14844   0.653   3.462   8.067  0.0446  0.1309  0.2353
  136OSM   H15F14845   0.726   3.542   8.039  1.3189 -0.7560  0.9432
  136OSM   H15G14846   0.704   3.369   8.035 -2.0506 -1.1930  0.5804
  136OSM   C16F14847   0.628   3.464   8.210  0.8606  0.2585 -0.1668
  136OSM   H16F14848   0.543   3.531   8.233  0.0630 -1.0588  0.8253
  136OSM   H16G14849   0.722   3.499   8.258  0.6686 -1.6500  1.7170
  136OSM   C17F14850   0.590   3.327   8.268  0.0717 -0.4454  0.4699
  136OSM   H17F14851   0.663   3.246   8.244  0.8271 -1.2577  4.7014
  136OSM   H17G14852   0.496   3.308   8.212  0.9916  1.3304 -1.8566
  136OSM   C18F14853   0.566   3.340   8.419  0.9173  0.7225  0.6114
  136OSM   H18F14854   0.498   3.258   8.450 -0.3277  1.2988 -0.4647
  136OSM   H18G14855   0.508   3.433   8.435  0.3619  0.4805  0.0661
  136OSM   H18H14856   0.658   3.340   8.480  1.4139 -1.4443 -0.0542
  137OSM      N14857   2.669   0.578   6.234  0.6061  0.0072  0.5939
  137OSM    C1514858   2.781   0.647   6.159  0.0807 -0.1917  0.1097
  137OSM   H15A14859   2.788   0.748   6.197 -1.7411  0.6039 -1.5273
  137OSM   H15B14860   2.777   0.643   6.051  0.2649 -2.4768  0.1521
  137OSM   H15C14861   2.873   0.597   6.185 -0.0215  0.1087  1.1219
  137OSM    C1414862   2.535   0.630   6.218 -0.1245 -0.3452 -0.0795
  137OSM   H14A14863   2.461   0.587   6.284  0.2246  0.4262  0.8233
  137OSM   H14B14864   2.502   0.624   6.115  1.2333  0.5814 -0.5965
  137OSM   H14C14865   2.531   0.738   6.229  0.2627 -0.3913  0.5659
  137OSM    C1314866   2.668   0.438   6.171 -0.1007  0.2628  0.0082
  137OSM   H13A14867   2.604   0.372   6.228  0.2336  1.9987  2.5908
  137OSM   H13B14868   2.765   0.392   6.171  0.5261  1.4794  1.4229
  137OSM   H13C14869   2.619   0.447   6.075  1.3113  0.6329 -0.6951
  137OSM    C1214870   2.703   0.578   6.385 -0.0583  0.3281  0.3212
  137OSM   H12A14871   2.700   0.680   6.419  0.5478  0.7449 -0.8069
  137OSM   H12B14872   2.805   0.544   6.394  0.2404  1.3438  0.9366
  137OSM    C1114873   2.600   0.498   6.474  0.1271  0.6872 -0.3925
  137OSM   H11A14874   2.497   0.536   6.458  0.1370  0.1732 -1.7896
  137OSM   H11B14875   2.622   0.519   6.581 -0.0002  1.5743 -0.5354
  137OSM      P14876   2.738   0.269   6.524  0.0725  0.1553 -0.1451
  137OSM    O1314877   2.710   0.125   6.524  0.4581  0.7233  0.1757
  137OSM    O1414878   2.870   0.316   6.475 -0.0536  0.3318  0.0794
  137OSM    O1114879   2.736   0.311   6.674  0.0582  0.2604  0.2308
  137OSM    O1214880   2.617   0.354   6.450  0.2892 -0.7658 -0.1582
  137OSM    C1S14881   2.826   0.411   6.716 -0.0610  0.5745 -0.0448
  137OSM    H1S14882   2.814   0.504   6.657 -1.0299  0.1126 -0.5905
  137OSM    H1T14883   2.928   0.367   6.705 -0.7346 -1.3275  0.8910
  137OSM     NF14884   2.884   0.558   6.909  0.1710  0.3982 -0.5404
  137OSM    HNF14885   2.961   0.526   6.964 -0.5296 -0.5561 -0.0865
  137OSM    C2S14886   2.801   0.447   6.865 -0.1852  0.0232 -0.6806
  137OSM    H2S14887   2.692   0.471   6.861  0.0674  1.4981  0.5227
  137OSM    C3S14888   2.810   0.315   6.953 -0.3093 -0.3398  0.1259
  137OSM    H3S14889   2.914   0.277   6.949  1.3267  3.6395 -0.1203
  137OSM     O314890   2.726   0.216   6.908 -0.0842 -0.1040 -0.1670
  137OSM    HO314891   2.733   0.236   6.814  2.8183  0.5420  0.1164
  137OSM    C4S14892   2.777   0.345   7.093 -0.4058  0.1577 -0.2218
  137OSM    H4S14893   2.671   0.372   7.106  0.1645  2.0084  0.8443
  137OSM    C5S14894   2.860   0.332   7.191  0.1623  0.5675  0.5027
  137OSM    H5S14895   2.960   0.298   7.158 -0.9296  0.0490 -2.6323
  137OSM    C6S14896   2.808   0.357   7.327  0.4095  0.2946  0.2586
  137OSM    H6S14897   2.698   0.357   7.342  0.6217 -1.2282  2.3040
  137OSM    H6T14898   2.836   0.462   7.351 -0.8186  0.7429 -0.2092
  137OSM    C7S14899   2.848   0.244   7.429  0.0736  0.1757 -0.0656
  137OSM    H7S14900   2.956   0.220   7.420 -0.0844 -0.7080  0.3652
  137OSM    H7T14901   2.797   0.150   7.401 -0.3676  0.1357  0.8295
  137OSM    C8S14902   2.803   0.281   7.569 -0.0575  0.2026 -0.9316
  137OSM    H8S14903   2.770   0.188   7.620 -0.5180 -0.1760 -1.8900
  137OSM    H8T14904   2.713   0.345   7.551 -1.3017 -1.2072  0.0007
  137OSM    C9S14905   2.914   0.351   7.641  0.3624 -0.6013  0.0128
  137OSM    H9S14906   2.949   0.439   7.582  1.8683 -1.5027 -0.5014
  137OSM    H9T14907   3.003   0.285   7.646  1.4383  0.7227 -0.8468
  137OSM   C10S14908   2.870   0.386   7.786  0.2971 -0.0665 -0.7557
  137OSM   H10S14909   2.837   0.302   7.851  3.1034 -0.6169  0.0889
  137OSM   H10T14910   2.777   0.444   7.764 -0.4929 -1.3647 -0.9324
  137OSM   C11S14911   2.967   0.468   7.874  0.1622  0.4761 -0.5738
  137OSM   H11S14912   2.912   0.537   7.942  0.6460 -0.6248  1.0152
  137OSM   H11T14913   3.029   0.530   7.807  0.4831 -0.0449 -0.7647
  137OSM   C12S14914   3.065   0.393   7.964 -0.4632 -0.2055  0.1064
  137OSM   H12S14915   3.154   0.384   7.897 -1.0633 -0.3951 -0.6819
  137OSM   H12T14916   3.022   0.294   7.986 -0.1021 -0.3029  0.3863
  137OSM   C13S14917   3.113   0.444   8.102  0.1525 -0.0572  0.2950
  137OSM   H13S14918   3.042   0.423   8.185  0.7739  0.6063  1.0162
  137OSM   H13T14919   3.122   0.553   8.083  1.1204  0.0606  1.3271
  137OSM   C14S14920   3.245   0.388   8.141  0.1742  0.0410  0.7679
  137OSM   H14S14921   3.323   0.398   8.063 -0.2507 -0.9826  0.1899
  137OSM   H14T14922   3.226   0.279   8.159 -2.6101  0.6644  2.1503
  137OSM   C15S14923   3.293   0.432   8.282  0.0776 -0.3292  0.0627
  137OSM   H15S14924   3.199   0.432   8.341  0.0892 -2.5466  0.1393
  137OSM   H15T14925   3.337   0.535   8.281  0.7919 -0.6312 -0.2186
  137OSM   C16S14926   3.405   0.343   8.341  0.7382  0.5946  0.9536
  137OSM   H16S14927   3.489   0.334   8.269 -0.0450 -2.2901  0.2551
  137OSM   H16T14928   3.357   0.244   8.358  0.9548  0.2210 -0.4280
  137OSM   C17S14929   3.459   0.406   8.472  0.6208  0.8758 -0.2897
  137OSM   H17S14930   3.383   0.420   8.552 -0.9949 -2.7546 -0.9767
  137OSM   H17T14931   3.515   0.501   8.458  0.9575  0.7299  0.0226
  137OSM   C18S14932   3.562   0.305   8.534 -0.2751 -0.3005 -0.6640
  137OSM   H18S14933   3.644   0.286   8.460 -1.7688 -0.6702 -2.2857
  137OSM   H18T14934   3.504   0.213   8.556  0.7441 -0.6842  0.5457
  137OSM   H18U14935   3.591   0.349   8.632 -0.4556 -0.6143 -0.4703
  137OSM    C1F14936   2.865   0.685   6.874 -0.6812 -0.4874 -1.4177
  137OSM     OF14937   2.782   0.717   6.792  0.9000 -0.0028 -0.6649
  137OSM    C2F14938   2.955   0.799   6.921  0.3135  0.8355 -0.0150
  137OSM    H2F14939   3.020   0.829   6.836  0.5123  0.3382 -0.0412
  137OSM    H2G14940   3.022   0.759   7.001 -0.5903 -0.3366  0.1810
  137OSM    C3F14941   2.872   0.920   6.960  0.3564 -0.2161 -0.3297
  137OSM    H3F14942   2.796   0.879   7.030  0.7751  0.3788  0.4838
  137OSM    H3G14943   2.811   0.971   6.882  1.2581 -0.9024 -1.5178
  137OSM    C4F14944   2.952   1.026   7.036 -0.2532 -1.2003 -0.2940
  137OSM    H4F14945   2.890   1.118   7.043  2.7368  1.0056 -0.5043
  137OSM    H4G14946   3.039   1.060   6.975 -0.4657  1.1873  0.6102
  137OSM    C5F14947   2.981   0.994   7.177  0.2517  0.9388 -0.7010
  137OSM    H5F14948   3.071   0.930   7.190 -0.5175 -0.4226 -1.7912
  137OSM    H5G14949   2.892   0.953   7.230  0.3788 -0.6219 -1.6588
  137OSM    C6F14950   3.011   1.107   7.277 -0.1278 -0.3578  0.1720
  137OSM    H6F14951   2.933   1.186   7.266  2.4694  2.8664  2.6350
  137OSM    H6G14952   3.106   1.160   7.251 -1.3132  1.5214 -0.5428
  137OSM    C7F14953   3.034   1.070   7.427 -0.1030 -0.2442  0.7945
  137OSM    H7F14954   3.098   0.980   7.435 -0.0072 -0.2118  0.4127
  137OSM    H7G14955   2.935   1.046   7.471 -0.7094  0.0359 -0.3721
  137OSM    C8F14956   3.112   1.184   7.497 -0.1418 -0.2652 -0.0963
  137OSM    H8F14957   3.200   1.223   7.441 -0.9651 -0.5441 -1.6511
  137OSM    H8G14958   3.152   1.150   7.595  1.6363  0.4379 -0.5380
  137OSM    C9F14959   3.009   1.287   7.523  0.7173 -0.5329 -0.8396
  137OSM    H9F14960   2.919   1.289   7.459  0.2776 -2.0042 -0.3014
  137OSM   C10F14961   3.018   1.391   7.613  0.1618  0.2099  0.2230
  137OSM   H10F14962   2.936   1.464   7.613  2.4320  2.9675  0.7101
  137OSM   C11F14963   3.137   1.417   7.703 -0.1870  0.4385 -0.2634
  137OSM   H11F14964   3.157   1.527   7.703  0.4818  0.3293 -1.2198
  137OSM   H11G14965   3.232   1.371   7.668 -0.3576 -1.0443  1.0968
  137OSM   C12F14966   3.117   1.371   7.851  0.8009  0.4414 -0.2115
  137OSM   H12F14967   3.206   1.405   7.908  1.5821  0.0704 -1.1793
  137OSM   H12G14968   3.099   1.262   7.846  0.5628  0.2889  2.4232
  137OSM   C13F14969   2.995   1.440   7.919 -0.2381 -0.4565  0.5296
  137OSM   H13F14970   2.904   1.382   7.892 -0.8874  0.4747  0.6825
  137OSM   H13G14971   2.986   1.538   7.868  2.2155  0.1220  1.0725
  137OSM   C14F14972   3.001   1.456   8.071  0.1757  0.2559  0.2602
  137OSM   H14F14973   2.922   1.529   8.098  0.1712  0.3791 -0.0814
  137OSM   H14G14974   3.092   1.513   8.100 -0.3494  0.1697  2.2219
  137OSM   C15F14975   2.951   1.333   8.145  0.0880 -0.1423 -0.1679
  137OSM   H15F14976   3.010   1.244   8.114  0.6803 -1.0485  3.1623
  137OSM   H15G14977   2.848   1.329   8.104  0.1479  0.2080 -0.3554
  137OSM   C16F14978   2.944   1.346   8.298  0.4583  0.3828  0.1012
  137OSM   H16F14979   3.043   1.330   8.346  1.0407  1.8883 -0.4977
  137OSM   H16G14980   2.871   1.272   8.336 -1.6496  2.0016 -0.5648
  137OSM   C17F14981   2.881   1.469   8.362 -0.0555  0.1081 -0.5616
  137OSM   H17F14982   2.941   1.556   8.328  1.1237 -0.3648  0.2770
  137OSM   H17G14983   2.896   1.456   8.471  3.0253  0.5555 -0.8512
  137OSM   C18F14984   2.732   1.485   8.335  0.5637 -0.7814  0.1766
  137OSM   H18F14985   2.707   1.485   8.226 -3.1778 -1.7857  0.8914
  137OSM   H18G14986   2.696   1.577   8.385  1.8762 -0.9092  1.4117
  137OSM   H18H14987   2.673   1.403   8.382  0.4242  0.2059  1.7942
  138OSM      N14988   3.935   2.640   6.096  0.3134 -0.2556 -0.3501
  138OSM    C1514989   3.810   2.591   6.170  0.2324  0.6980  1.2029
  138OSM   H15A14990   3.732   2.580   6.096  1.0662  0.5047  0.3359
  138OSM   H15B14991   3.784   2.656   6.252 -1.2611 -1.2131  2.3329
  138OSM   H15C14992   3.833   2.495   6.215  0.9065  0.1940 -0.1340
  138OSM    C1414993   3.968   2.545   5.991 -0.4043  0.2133  1.4128
  138OSM   H14A14994   4.046   2.592   5.933 -0.2941 -0.6772  0.8158
  138OSM   H14B14995   3.888   2.523   5.923  0.4967 -1.5481  0.8493
  138OSM   H14C14996   4.010   2.448   6.015  0.3115 -0.8899 -3.3352
  138OSM    C1314997   3.908   2.772   6.028 -0.8269  0.6190 -0.1045
  138OSM   H13A14998   3.893   2.859   6.091  1.4135  1.0820 -0.1094
  138OSM   H13B14999   3.829   2.769   5.955 -0.0226 -0.3928 -0.9629
  138OSM   H13C15000   3.996   2.786   5.967 -1.9436  0.5914 -1.7872
  138OSM    C1215001   4.056   2.657   6.184  0.9102  0.1189  0.0367
  138OSM   H12A15002   4.132   2.709   6.128  0.6492  1.1862  0.6477
  138OSM   H12B15003   4.087   2.561   6.223 -2.0299 -1.3597 -0.9399
  138OSM    C1115004   4.055   2.742   6.310  0.3919 -0.5486 -0.3112
  138OSM   H11A15005   4.146   2.724   6.372 -0.7201 -1.9702  0.9767
  138OSM   H11B15006   3.973   2.707   6.376 -0.5449  2.2252  0.1159
  138OSM      P15007   4.167   2.964   6.234 -0.1376  0.0793  0.4758
  138OSM    O1315008   4.260   2.890   6.148  0.3578  0.8497  0.2523
  138OSM    O1415009   4.125   3.094   6.181  0.9902  0.5547 -0.2961
  138OSM    O1115010   4.240   2.974   6.375 -0.7242 -0.6076 -0.2158
  138OSM    O1215011   4.040   2.874   6.269 -0.5051 -0.3990  0.0906
  138OSM    C1S15012   4.161   3.000   6.494  0.3819 -0.2649  0.8011
  138OSM    H1S15013   4.064   2.946   6.490 -0.3833  1.0890 -1.5865
  138OSM    H1T15014   4.137   3.109   6.504  1.4843 -0.0161  0.8577
  138OSM     NF15015   4.127   2.926   6.719 -0.1274 -0.2234  0.5774
  138OSM    HNF15016   4.118   3.001   6.785  0.0398 -1.6883  2.3390
  138OSM    C2S15017   4.224   2.935   6.612  0.4077  0.3611 -0.4329
  138OSM    H2S15018   4.246   2.829   6.587  1.9280  0.8475 -1.3042
  138OSM    C3S15019   4.360   3.001   6.645 -0.2288 -0.3499 -0.2193
  138OSM    H3S15020   4.333   3.107   6.662  0.3863 -0.4857  1.9417
  138OSM     O315021   4.459   3.007   6.540  0.1758  0.0393  1.0439
  138OSM    HO315022   4.412   2.974   6.463 -0.7143 -0.4415  1.7743
  138OSM    C4S15023   4.421   2.945   6.765  0.1249  0.1587 -0.5374
  138OSM    H4S15024   4.465   2.846   6.750 -0.1919  0.1355 -1.4066
  138OSM    C5S15025   4.452   3.021   6.871  0.7170  0.4462 -0.2548
  138OSM    H5S15026   4.428   3.128   6.875  0.7158  0.4991 -1.2589
  138OSM    C6S15027   4.515   2.954   6.992  0.3343 -0.2360  0.2267
  138OSM    H6S15028   4.550   3.037   7.057 -1.6342  1.9010 -1.3076
  138OSM    H6T15029   4.598   2.884   6.967  1.0012  0.1021  1.4276
  138OSM    C7S15030   4.405   2.885   7.077  0.5785 -0.7098 -0.2508
  138OSM    H7S15031   4.356   2.805   7.018 -0.3611 -1.7188  1.7802
  138OSM    H7T15032   4.325   2.956   7.108 -0.7064 -1.8051 -0.9539
  138OSM    C8S15033   4.462   2.832   7.205  0.0990  0.2505  0.1594
  138OSM    H8S15034   4.559   2.791   7.171 -0.0057 -0.0378  0.2050
  138OSM    H8T15035   4.399   2.749   7.245 -0.6527  1.4758  1.6295
  138OSM    C9S15036   4.476   2.934   7.321 -0.5026 -0.0750  0.7193
  138OSM    H9S15037   4.373   2.942   7.362 -0.1775 -1.5728  1.9072
  138OSM    H9T15038   4.520   3.032   7.290 -0.4871 -0.1258  0.5823
  138OSM   C10S15039   4.558   2.866   7.432 -0.4720 -0.2204  0.4409
  138OSM   H10S15040   4.661   2.850   7.393  0.5764 -0.3567  3.0314
  138OSM   H10T15041   4.515   2.767   7.457  1.5807 -0.8788  1.7002
  138OSM   C11S15042   4.564   2.937   7.564 -0.6120  0.2109 -0.0207
  138OSM   H11S15043   4.465   2.966   7.603 -0.7574 -1.4728  0.9509
  138OSM   H11T15044   4.610   3.035   7.536  0.5951 -0.6194 -1.0910
  138OSM   C12S15045   4.645   2.855   7.666  0.2552 -0.5097  0.1251
  138OSM   H12S15046   4.749   2.879   7.636  0.5914  0.2522  1.7873
  138OSM   H12T15047   4.624   2.746   7.669 -1.0520 -0.2611  1.7041
  138OSM   C13S15048   4.623   2.909   7.808 -0.4373 -0.1124 -0.0284
  138OSM   H13S15049   4.517   2.889   7.831 -0.2235 -1.6574 -0.2907
  138OSM   H13T15050   4.644   3.018   7.804 -1.3148  0.0928  0.7714
  138OSM   C14S15051   4.715   2.844   7.907  0.0487  0.2040 -0.0784
  138OSM   H14S15052   4.819   2.861   7.872 -0.1775  0.9776 -0.3914
  138OSM   H14T15053   4.695   2.735   7.892 -2.4010  0.6554 -0.5909
  138OSM   C15S15054   4.690   2.887   8.049  0.1293  0.9942 -0.2148
  138OSM   H15S15055   4.599   2.842   8.094  0.3092 -1.5425 -2.1908
  138OSM   H15T15056   4.685   2.998   8.051 -1.3199  1.0187 -2.1064
  138OSM   C16S15057   4.807   2.844   8.137  0.0176  1.0438  0.3703
  138OSM   H16S15058   4.900   2.884   8.092 -0.0883  0.9625  0.0756
  138OSM   H16T15059   4.820   2.734   8.132  0.7657  1.1626 -0.5724
  138OSM   C17S15060   4.788   2.876   8.288 -0.2201 -0.3348  0.9537
  138OSM   H17S15061   4.698   2.825   8.328 -1.7070  0.2399 -1.4152
  138OSM   H17T15062   4.756   2.982   8.294 -0.3030 -0.2937  0.0124
  138OSM   C18S15063   4.914   2.860   8.383  0.3300 -0.6701 -0.6715
  138OSM   H18S15064   4.999   2.924   8.352  1.2202 -1.7031 -0.4344
  138OSM   H18T15065   4.948   2.754   8.389 -3.3282 -1.9788 -0.2851
  138OSM   H18U15066   4.893   2.898   8.486  2.6623 -0.0651 -0.3654
  138OSM    C1F15067   4.025   2.842   6.723 -0.5207 -0.8242 -0.7012
  138OSM     OF15068   4.013   2.752   6.641 -0.1733 -0.4454  0.0531
  138OSM    C2F15069   3.913   2.863   6.819  0.0756 -0.7307 -0.4568
  138OSM    H2F15070   3.814   2.847   6.772  0.0405  0.5633 -0.8585
  138OSM    H2G15071   3.914   2.970   6.848  1.2004 -1.1720  1.3037
  138OSM    C3F15072   3.931   2.781   6.948  0.3057  0.0833 -0.0158
  138OSM    H3F15073   3.920   2.672   6.934  1.8368 -0.3698  1.8289
  138OSM    H3G15074   3.853   2.824   7.015  0.5666 -0.0798  0.4010
  138OSM    C4F15075   4.061   2.805   7.013 -0.2795 -1.1572 -1.0849
  138OSM    H4F15076   4.101   2.908   7.005 -2.5233 -0.2012 -0.8700
  138OSM    H4G15077   4.139   2.742   6.966  0.3622  0.1259 -1.7860
  138OSM    C5F15078   4.058   2.756   7.166 -0.3752  0.0623 -0.3475
  138OSM    H5F15079   4.160   2.723   7.193  0.0909  1.5386 -0.1701
  138OSM    H5G15080   3.993   2.671   7.194  0.2070  0.2558  1.7853
  138OSM    C6F15081   4.009   2.872   7.259 -0.3506  0.0744 -0.4709
  138OSM    H6F15082   3.907   2.900   7.223 -0.5333 -1.0805 -0.8889
  138OSM    H6G15083   4.068   2.966   7.252 -1.2145  0.8128  1.4078
  138OSM    C7F15084   3.981   2.820   7.400  0.4080  0.3243  0.2125
  138OSM    H7F15085   3.942   2.717   7.390 -2.0030  1.1952 -0.1696
  138OSM    H7G15086   3.907   2.887   7.449 -0.3575 -0.1811 -0.2315
  138OSM    C8F15087   4.105   2.810   7.495  0.1723  0.1276  0.3984
  138OSM    H8F15088   4.179   2.763   7.426  0.1762 -1.1278  1.2352
  138OSM    H8G15089   4.088   2.737   7.576  1.9234 -1.4123 -0.5299
  138OSM    C9F15090   4.151   2.952   7.529 -0.7082 -0.0897  0.1171
  138OSM    H9F15091   4.130   3.022   7.446  1.3348 -0.0590 -0.4144
  138OSM   C10F15092   4.204   2.998   7.647  0.4242  0.5268 -1.1155
  138OSM   H10F15093   4.253   3.096   7.654  2.0273 -0.3538  1.2498
  138OSM   C11F15094   4.211   2.920   7.770 -0.4169  0.4091 -0.3399
  138OSM   H11F15095   4.319   2.900   7.789 -0.4395 -1.5603 -1.9341
  138OSM   H11G15096   4.189   2.812   7.753  2.6074  0.0214 -2.5776
  138OSM   C12F15097   4.158   3.002   7.900 -0.2523  0.2189  0.2082
  138OSM   H12F15098   4.052   3.028   7.880 -0.7955 -0.4082  1.9986
  138OSM   H12G15099   4.221   3.093   7.900  0.0113  0.0404 -0.3963
  138OSM   C13F15100   4.183   2.940   8.037 -0.5900  0.3942  1.0904
  138OSM   H13F15101   4.291   2.913   8.031 -0.7434  0.0149 -0.5127
  138OSM   H13G15102   4.138   2.839   8.030  0.2864  0.0206  0.5644
  138OSM   C14F15103   4.149   3.041   8.145 -0.8674  0.0918 -0.7197
  138OSM   H14F15104   4.039   3.028   8.143 -0.8184 -0.3248 -1.5959
  138OSM   H14G15105   4.176   3.145   8.120 -0.4864 -0.3659 -2.3359
  138OSM   C15F15106   4.202   2.998   8.289  0.3584 -0.1514 -0.3858
  138OSM   H15F15107   4.199   2.887   8.286 -1.3206 -0.2616  2.1337
  138OSM   H15G15108   4.119   3.037   8.351 -0.2635  0.7809 -1.7567
  138OSM   C16F15109   4.338   3.036   8.332  0.7215 -0.5675  0.0542
  138OSM   H16F15110   4.348   3.137   8.376  0.9008 -0.8140  0.5787
  138OSM   H16G15111   4.392   3.040   8.234 -0.7876 -2.0446 -0.9087
  138OSM   C17F15112   4.408   2.931   8.426  0.4112  0.6045  0.1640
  138OSM   H17F15113   4.504   2.978   8.455 -0.2520  0.9840  1.8570
  138OSM   H17G15114   4.425   2.838   8.367 -1.9436 -0.3256  0.8011
  138OSM   C18F15115   4.327   2.897   8.550  0.1563  0.3519 -0.7162
  138OSM   H18F15116   4.387   2.856   8.634 -0.0660  1.2070 -0.1283
  138OSM   H18G15117   4.240   2.831   8.530  1.3992 -2.0235  1.1241
  138OSM   H18H15118   4.284   2.989   8.594  1.9101  0.6803  0.4362
  139OSM      N15119   1.297   2.430   6.427 -0.1370 -0.0592 -0.0394
  139OSM    C1515120   1.168   2.422   6.500  0.6740  0.8915  0.0656
  139OSM   H15A15121   1.169   2.449   6.604 -1.9651  3.5520 -0.4697
  139OSM   H15B15122   1.138   2.320   6.482 -1.0064  0.8894  2.4232
  139OSM   H15C15123   1.108   2.495   6.448 -1.0762 -0.5155 -0.0058
  139OSM    C1415124   1.357   2.564   6.448  0.4429 -0.8443  1.5384
  139OSM   H14A15125   1.386   2.571   6.552  0.1141  1.0233  1.5320
  139OSM   H14B15126   1.309   2.652   6.408  2.8426 -0.6536 -1.2076
  139OSM   H14C15127   1.451   2.568   6.396 -2.0035  1.0742 -3.4201
  139OSM    C1315128   1.393   2.330   6.478  0.1940  0.9789 -0.5626
  139OSM   H13A15129   1.363   2.227   6.468 -0.8961  1.3020 -0.7242
  139OSM   H13B15130   1.415   2.337   6.584 -0.7728 -2.1377 -0.0693
  139OSM   H13C15131   1.483   2.334   6.418  1.5290 -2.8287  0.9008
  139OSM    C1215132   1.270   2.403   6.278 -0.2632  0.3646 -0.4960
  139OSM   H12A15133   1.361   2.410   6.220  1.2997 -1.0370  1.6250
  139OSM   H12B15134   1.205   2.481   6.242 -0.0701  1.6906  1.7952
  139OSM    C1115135   1.196   2.271   6.232 -0.1296 -0.3056  0.3997
  139OSM   H11A15136   1.155   2.272   6.129 -0.4719  0.0235  0.5364
  139OSM   H11B15137   1.115   2.259   6.307  0.7927  0.6164  1.5992
  139OSM      P15138   1.259   2.027   6.310  0.0310 -0.0873  0.2419
  139OSM    O1315139   1.145   1.965   6.242 -0.5733 -0.2326 -0.0853
  139OSM    O1415140   1.385   1.949   6.310  0.0106 -0.0589 -0.3121
  139OSM    O1115141   1.212   2.072   6.462 -0.1342  0.4975  0.5149
  139OSM    O1215142   1.293   2.167   6.244 -0.2763 -0.2582 -0.3468
  139OSM    C1S15143   1.274   2.005   6.579  0.7316  0.7437 -0.4104
  139OSM    H1S15144   1.384   1.995   6.562  0.5899  0.5431 -1.2602
  139OSM    H1T15145   1.248   1.899   6.594 -1.7044  1.6266  2.3038
  139OSM     NF15146   1.322   2.027   6.830 -0.0532  0.6745 -0.3055
  139OSM    HNF15147   1.263   1.991   6.902  0.9885 -0.2211  0.1246
  139OSM    C2S15148   1.246   2.088   6.713 -0.1619  0.9335 -1.0942
  139OSM    H2S15149   1.285   2.192   6.704 -1.5637  1.7269  1.2043
  139OSM    C3S15150   1.094   2.090   6.728 -0.1300  0.2580 -0.7859
  139OSM    H3S15151   1.048   1.989   6.737 -0.7361  0.6648  1.0424
  139OSM     O315152   1.011   2.128   6.618  0.0588  0.3531 -0.7387
  139OSM    HO315153   1.070   2.111   6.544  0.2308 -1.2532 -0.2528
  139OSM    C4S15154   1.052   2.162   6.854  0.1427 -0.3687  0.5329
  139OSM    H4S15155   1.040   2.101   6.945 -0.1541  1.9949  2.1581
  139OSM    C5S15156   1.018   2.294   6.854 -0.9432  0.5159 -0.0963
  139OSM    H5S15157   1.016   2.359   6.765 -0.6741  0.8839  0.1674
  139OSM    C6S15158   0.978   2.363   6.976  1.2177 -1.4228  0.3853
  139OSM    H6S15159   0.872   2.394   6.964  1.9454  1.4813  0.8180
  139OSM    H6T15160   1.038   2.455   6.990 -0.0852 -0.6990  1.3649
  139OSM    C7S15161   0.991   2.294   7.117  0.2837  0.3572 -0.1444
  139OSM    H7S15162   1.100   2.278   7.132  0.1115 -1.3252 -0.5103
  139OSM    H7T15163   0.934   2.199   7.120 -0.2619  0.6214 -1.4625
  139OSM    C8S15164   0.952   2.390   7.235 -0.0947 -0.7397 -0.4616
  139OSM    H8S15165   0.861   2.436   7.191 -0.3184 -1.3850 -0.6896
  139OSM    H8T15166   1.033   2.465   7.250 -0.6928 -0.5752  2.3823
  139OSM    C9S15167   0.920   2.307   7.356  0.2379  0.8734  1.1855
  139OSM    H9S15168   0.983   2.216   7.351 -0.2010  0.4300  3.1046
  139OSM    H9T15169   0.818   2.263   7.355  0.9383 -0.8268  0.0160
  139OSM   C10S15170   0.954   2.376   7.485 -0.3707  0.0581 -0.9990
  139OSM   H10S15171   0.876   2.444   7.527  0.9962  0.9693  0.1307
  139OSM   H10T15172   1.039   2.442   7.459 -1.6905  1.6433 -1.5002
  139OSM   C11S15173   0.992   2.275   7.591  0.2418  0.1212 -0.0880
  139OSM   H11S15174   1.092   2.236   7.562  0.1829  0.0619 -0.2096
  139OSM   H11T15175   0.913   2.198   7.603  0.7558 -0.4566 -0.3578
  139OSM   C12S15176   0.996   2.353   7.727 -0.3388  0.1355  0.1072
  139OSM   H12S15177   0.901   2.404   7.755  0.9982  1.0501  3.4486
  139OSM   H12T15178   1.069   2.437   7.729 -1.5944  1.2734  1.6622
  139OSM   C13S15179   1.032   2.256   7.846  0.7242 -0.0054  0.2679
  139OSM   H13S15180   1.139   2.227   7.839  1.1145  1.1741  1.0500
  139OSM   H13T15181   0.952   2.182   7.828  0.4435  0.3575  0.0187
  139OSM   C14S15182   1.033   2.310   7.987  0.0111 -0.3038  0.5439
  139OSM   H14S15183   0.940   2.370   8.002  1.9798  3.0244  0.4081
  139OSM   H14T15184   1.113   2.385   8.005 -0.9406  1.8033 -2.9938
  139OSM   C15S15185   1.052   2.205   8.094  0.0701 -0.8166  0.6953
  139OSM   H15S15186   1.149   2.153   8.079  0.9065  0.6930  0.6379
  139OSM   H15T15187   0.969   2.132   8.087  0.6991 -1.3691 -3.5615
  139OSM   C16S15188   1.040   2.247   8.241  0.2107 -0.2360  0.6408
  139OSM   H16S15189   0.937   2.286   8.258  1.6743  2.8645  3.6312
  139OSM   H16T15190   1.111   2.326   8.274 -1.0775  0.5715  1.5802
  139OSM   C17S15191   1.051   2.130   8.343  0.4062 -0.1071  0.3552
  139OSM   H17S15192   1.148   2.083   8.317 -0.7451 -0.8568 -2.9392
  139OSM   H17T15193   0.972   2.053   8.335  1.3413 -1.0316 -0.1506
  139OSM   C18S15194   1.046   2.176   8.488  0.6681 -0.4453  1.0364
  139OSM   H18S15195   0.959   2.244   8.500  1.6850  1.1984 -0.3992
  139OSM   H18T15196   1.129   2.241   8.524 -0.2279  0.7354  1.0555
  139OSM   H18U15197   1.027   2.096   8.562  3.0161  0.1738  2.4260
  139OSM    C1F15198   1.451   2.020   6.840 -0.2949 -0.2040  0.2708
  139OSM     OF15199   1.520   2.033   6.739 -0.1763  0.0863 -0.4268
  139OSM    C2F15200   1.504   1.971   6.971 -0.1789  0.3111 -0.0648
  139OSM    H2F15201   1.516   1.861   6.959 -3.9918 -0.2382 -0.1911
  139OSM    H2G15202   1.430   1.978   7.053 -1.6716  1.4405 -1.4190
  139OSM    C3F15203   1.639   2.017   7.022 -0.1662 -0.5830 -0.8494
  139OSM    H3F15204   1.635   2.128   7.029  0.4938 -0.5422 -1.1077
  139OSM    H3G15205   1.719   1.982   6.954 -0.5413 -1.6571 -0.7608
  139OSM    C4F15206   1.677   1.954   7.149 -0.3324 -0.2745 -0.9866
  139OSM    H4F15207   1.754   1.875   7.132 -0.1451 -0.4395  0.4875
  139OSM    H4G15208   1.593   1.900   7.197 -1.2889  2.1794  0.2582
  139OSM    C5F15209   1.745   2.049   7.248 -0.3269  0.7474 -0.5929
  139OSM    H5F15210   1.680   2.129   7.288  1.6359  0.8618  2.8213
  139OSM    H5G15211   1.826   2.105   7.197 -0.4463  0.1639 -1.4364
  139OSM    C6F15212   1.796   1.986   7.375  0.7868  0.7735 -0.2232
  139OSM    H6F15213   1.843   1.887   7.358  1.5414  1.3439 -1.6863
  139OSM    H6G15214   1.725   1.969   7.458 -0.8736  1.4286 -1.4370
  139OSM    C7F15215   1.894   2.078   7.434  0.7439  0.1251  0.0909
  139OSM    H7F15216   1.857   2.183   7.444 -2.8983 -0.8706 -1.2878
  139OSM    H7G15217   1.984   2.082   7.370  0.7593  0.8061  0.1480
  139OSM    C8F15218   1.950   2.045   7.569 -0.9352 -0.1912  0.1470
  139OSM    H8F15219   2.046   2.100   7.573  0.1576 -2.0130  0.3008
  139OSM    H8G15220   1.985   1.939   7.575 -1.1194 -0.1837  3.8075
  139OSM    C9F15221   1.869   2.081   7.692  0.3241  0.1715 -0.1812
  139OSM    H9F15222   1.792   2.007   7.718 -0.0325 -0.2606 -2.2712
  139OSM   C10F15223   1.860   2.203   7.760 -0.1005  0.5419  0.0621
  139OSM   H10F15224   1.799   2.202   7.851 -1.1239 -3.6494 -0.4917
  139OSM   C11F15225   1.946   2.327   7.747  0.9568  0.2038  0.3649
  139OSM   H11F15226   1.885   2.402   7.693  0.4216  0.1030  0.8244
  139OSM   H11G15227   2.038   2.311   7.687 -0.3099  0.1273 -1.6058
  139OSM   C12F15228   1.980   2.410   7.876 -0.5275  0.7624 -0.1201
  139OSM   H12F15229   2.026   2.506   7.845 -0.0216  0.7860  0.6725
  139OSM   H12G15230   2.063   2.353   7.922 -0.1341  0.0456 -1.6561
  139OSM   C13F15231   1.867   2.435   7.977 -0.3014  1.0535 -0.1949
  139OSM   H13F15232   1.826   2.337   8.010  1.7495  0.1391 -0.2020
  139OSM   H13G15233   1.795   2.502   7.925  0.6354  2.0906 -0.1932
  139OSM   C14F15234   1.897   2.522   8.104  0.3886  0.0012  0.4664
  139OSM   H14F15235   1.918   2.627   8.072 -0.8397  0.8666  2.3245
  139OSM   H14G15236   1.988   2.479   8.151 -0.0477 -0.8029  0.5892
  139OSM   C15F15237   1.782   2.511   8.206  0.0166  0.3131 -0.7426
  139OSM   H15F15238   1.736   2.413   8.179 -1.1972  0.6713 -0.0093
  139OSM   H15G15239   1.711   2.594   8.185  0.9096  1.4584  0.6219
  139OSM   C16F15240   1.820   2.538   8.351 -0.3616  0.1847  0.0172
  139OSM   H16F15241   1.926   2.508   8.366 -0.7929 -1.3011  0.2647
  139OSM   H16G15242   1.749   2.486   8.418 -1.0652 -0.6200 -1.2931
  139OSM   C17F15243   1.812   2.689   8.383 -0.0443 -0.5703  0.1164
  139OSM   H17F15244   1.717   2.737   8.354  1.6346  2.7144 -0.4625
  139OSM   H17G15245   1.892   2.736   8.321  0.5735 -0.1497  1.1908
  139OSM   C18F15246   1.836   2.724   8.530 -0.5344  0.1858 -0.1889
  139OSM   H18F15247   1.931   2.688   8.576 -0.6951  2.3445  2.0671
  139OSM   H18G15248   1.759   2.705   8.607  1.1424 -2.3853  1.0211
  139OSM   H18H15249   1.868   2.830   8.529  0.5817 -0.1151  0.8661
  140OSM      N15250   2.097   6.089   6.484 -0.1590 -0.4446  0.4401
  140OSM    C1515251   2.220   6.166   6.490  0.5189 -0.3241 -0.2198
  140OSM   H15A15252   2.254   6.178   6.592  0.2988 -3.5398  0.3563
  140OSM   H15B15253   2.209   6.264   6.447  2.1444  1.3115  2.7428
  140OSM   H15C15254   2.303   6.113   6.445 -1.4409 -2.8515 -1.1223
  140OSM    C1415255   2.103   5.958   6.554 -0.0293  0.3735  0.3723
  140OSM   H14A15256   2.154   5.884   6.494  0.0547 -0.6524  1.6415
  140OSM   H14B15257   2.012   5.902   6.571  0.5740 -0.4436  1.0599
  140OSM   H14C15258   2.153   5.973   6.649 -1.3905  1.9350  0.8724
  140OSM    C1315259   1.991   6.174   6.549  0.1747 -0.3182 -0.0437
  140OSM   H13A15260   1.979   6.275   6.514  1.4552  0.2170  1.0060
  140OSM   H13B15261   2.025   6.188   6.651  2.2171  1.1309 -0.8563
  140OSM   H13C15262   1.900   6.116   6.547  0.6667 -1.1016 -2.1351
  140OSM    C1215263   2.050   6.066   6.336  0.1452 -0.2355  0.2577
  140OSM   H12A15264   2.141   6.040   6.284 -0.5638  1.2719 -1.9017
  140OSM   H12B15265   2.014   6.157   6.291 -0.7871 -0.8391 -0.2481
  140OSM    C1115266   1.931   5.970   6.310  0.6380  0.3240  0.2244
  140OSM   H11A15267   1.975   5.868   6.319  1.0877  0.6533  2.0869
  140OSM   H11B15268   1.895   5.992   6.207 -2.1987 -1.4159  0.7186
  140OSM      P15269   1.684   5.896   6.363 -0.0815  0.2405  0.2018
  140OSM    O1315270   1.624   5.979   6.259  0.2967  0.3501 -0.0619
  140OSM    O1415271   1.707   5.757   6.324 -0.1989 -0.1170  0.3856
  140OSM    O1115272   1.609   5.900   6.491  0.2146  0.2556 -0.3059
  140OSM    O1215273   1.818   5.969   6.407 -0.2402  0.0480  0.1411
  140OSM    C1S15274   1.665   5.851   6.612  0.4364  0.1330 -0.1190
  140OSM    H1S15275   1.775   5.864   6.619  0.3928 -0.0133  1.1313
  140OSM    H1T15276   1.639   5.743   6.621 -0.4977  0.3227 -0.5009
  140OSM     NF15277   1.700   5.877   6.851  0.4018 -0.4121  0.0207
  140OSM    HNF15278   1.693   5.791   6.901 -0.5696 -0.8134 -0.7798
  140OSM    C2S15279   1.609   5.910   6.749  0.2071  0.9817  0.1761
  140OSM    H2S15280   1.627   6.017   6.726  2.2700  1.0880  1.8869
  140OSM    C3S15281   1.468   5.862   6.771  0.8314 -0.4783 -0.0671
  140OSM    H3S15282   1.447   5.755   6.787 -2.1389  0.2927  1.8439
  140OSM     O315283   1.378   5.888   6.656 -0.7013  0.3100 -0.1964
  140OSM    HO315284   1.437   5.913   6.584 -0.4092  0.2500  0.0216
  140OSM    C4S15285   1.414   5.940   6.893 -0.2346 -0.3273  0.4285
  140OSM    H4S15286   1.402   5.876   6.982  0.5115 -1.1898 -0.0637
  140OSM    C5S15287   1.375   6.070   6.884  0.4136  0.0803  0.4623
  140OSM    H5S15288   1.389   6.125   6.790  2.2161 -1.2508 -0.1186
  140OSM    C6S15289   1.323   6.141   7.003 -0.0868 -0.4658  0.5056
  140OSM    H6S15290   1.212   6.147   7.002 -0.0775 -0.2357  0.6733
  140OSM    H6T15291   1.356   6.247   6.995  0.8051 -0.7805 -0.2424
  140OSM    C7S15292   1.376   6.092   7.132  0.1230  0.3877 -0.1966
  140OSM    H7S15293   1.487   6.090   7.135  0.1222 -0.5436 -0.4392
  140OSM    H7T15294   1.350   5.985   7.144 -1.9219  0.6219 -1.8760
  140OSM    C8S15295   1.326   6.167   7.256 -0.4132 -0.1706  0.1057
  140OSM    H8S15296   1.216   6.165   7.249 -0.4758 -1.1113  1.1164
  140OSM    H8T15297   1.362   6.273   7.252 -1.9791  0.4945  1.9234
  140OSM    C9S15298   1.371   6.102   7.388 -0.1669 -0.1101 -0.6666
  140OSM    H9S15299   1.482   6.102   7.390 -0.1578 -1.3456 -0.2871
  140OSM    H9T15300   1.332   5.998   7.388 -2.2082  0.6102 -0.6845
  140OSM   C10S15301   1.314   6.166   7.517 -0.0934  0.7095  0.9299
  140OSM   H10S15302   1.203   6.160   7.512  0.0338 -1.2970 -1.3582
  140OSM   H10T15303   1.344   6.273   7.511  4.2024 -0.2663  1.6135
  140OSM   C11S15304   1.365   6.105   7.646 -0.6035  0.5877 -0.5205
  140OSM   H11S15305   1.471   6.137   7.657  0.3224 -2.4888  0.5352
  140OSM   H11T15306   1.376   5.995   7.637 -1.1425  0.3855  0.9954
  140OSM   C12S15307   1.288   6.152   7.771 -0.1454  0.1170  0.1038
  140OSM   H12S15308   1.193   6.095   7.767 -0.6326  0.9804 -1.4563
  140OSM   H12T15309   1.267   6.261   7.764  0.8295  0.6475  3.6437
  140OSM   C13S15310   1.369   6.138   7.901  0.5692 -0.4023  0.3856
  140OSM   H13S15311   1.473   6.152   7.867  0.9291 -1.6951  0.8936
  140OSM   H13T15312   1.373   6.034   7.940  1.5658 -0.9522 -1.1154
  140OSM   C14S15313   1.340   6.249   8.008 -0.0055  0.2464  0.0373
  140OSM   H14S15314   1.234   6.253   8.039 -0.6150 -3.4881 -0.9990
  140OSM   H14T15315   1.374   6.350   7.975  0.9757 -0.5353 -1.4913
  140OSM   C15S15316   1.431   6.207   8.136 -0.0890  0.8038 -0.4942
  140OSM   H15S15317   1.539   6.197   8.111 -0.1946 -1.9879 -0.1331
  140OSM   H15T15318   1.406   6.102   8.164 -2.4223  1.7153  1.1455
  140OSM   C16S15319   1.419   6.301   8.248  0.0849 -0.1087 -1.0486
  140OSM   H16S15320   1.317   6.313   8.291  1.3265 -1.3378  2.6936
  140OSM   H16T15321   1.443   6.404   8.213 -0.3569 -0.9179 -3.9384
  140OSM   C17S15322   1.505   6.262   8.375  0.0066 -0.0744 -0.2931
  140OSM   H17S15323   1.502   6.350   8.443 -0.0678 -0.0547 -0.3215
  140OSM   H17T15324   1.615   6.259   8.360  0.2380  0.7655  1.0051
  140OSM   C18S15325   1.455   6.145   8.460  0.2770  0.4707 -0.4838
  140OSM   H18S15326   1.480   6.164   8.566  0.5875  1.0460 -0.6576
  140OSM   H18T15327   1.510   6.055   8.423  2.4482  1.3977  0.3078
  140OSM   H18U15328   1.347   6.120   8.454  0.4372 -0.4035  0.0553
  140OSM    C1F15329   1.812   5.943   6.872 -0.1920  0.3674 -0.0149
  140OSM     OF15330   1.832   6.045   6.801 -0.3429 -0.2606 -0.0076
  140OSM    C2F15331   1.899   5.874   6.966 -0.1553 -0.8478 -0.5098
  140OSM    H2F15332   1.903   5.765   6.942 -3.0482 -1.2525  0.4009
  140OSM    H2G15333   1.855   5.887   7.067 -1.0801  0.1741 -1.0263
  140OSM    C3F15334   2.038   5.941   6.981 -0.7110 -0.8841 -0.1435
  140OSM    H3F15335   2.013   6.042   7.020  0.9068 -0.7348  0.5760
  140OSM    H3G15336   2.088   5.943   6.881  0.8463 -2.5521  0.5382
  140OSM    C4F15337   2.127   5.864   7.086  0.8597  0.0863  0.1024
  140OSM    H4F15338   2.231   5.902   7.092  0.7990  0.0471  2.1491
  140OSM    H4G15339   2.142   5.766   7.037 -1.3170 -0.4790  0.4843
  140OSM    C5F15340   2.078   5.841   7.226 -0.5123 -0.0355  0.5495
  140OSM    H5F15341   2.015   5.750   7.225 -1.9827  0.9580 -0.3759
  140OSM    H5G15342   2.019   5.928   7.261  0.1454 -0.0308  1.6912
  140OSM    C6F15343   2.194   5.828   7.329 -0.1606  0.8413  0.0280
  140OSM    H6F15344   2.243   5.928   7.326 -0.1021  0.9020  2.0444
  140OSM    H6G15345   2.261   5.750   7.287 -1.8126 -0.8052  0.3508
  140OSM    C7F15346   2.142   5.808   7.472  0.1325  0.3072  0.2914
  140OSM    H7F15347   2.089   5.711   7.482 -0.2754  0.3964 -0.8883
  140OSM    H7G15348   2.070   5.891   7.488  1.0650  1.6517 -2.1457
  140OSM    C8F15349   2.250   5.797   7.575 -0.1345 -0.5781 -0.0149
  140OSM    H8F15350   2.320   5.882   7.561 -1.4642  0.4132 -0.9509
  140OSM    H8G15351   2.317   5.716   7.540 -1.4276 -0.6094 -2.6807
  140OSM    C9F15352   2.226   5.768   7.719  0.2802 -0.7451  0.8974
  140OSM    H9F15353   2.127   5.802   7.754  0.9457  2.2181  0.1692
  140OSM   C10F15354   2.309   5.697   7.801 -0.5837  0.0004 -0.5285
  140OSM   H10F15355   2.280   5.681   7.906  0.6749 -0.3670 -0.2196
  140OSM   C11F15356   2.444   5.635   7.767  0.2655 -0.1408 -0.4799
  140OSM   H11F15357   2.528   5.679   7.826  0.0825  0.8270 -0.9222
  140OSM   H11G15358   2.471   5.654   7.661  0.5695 -3.2605 -1.0632
  140OSM   C12F15359   2.473   5.484   7.775 -0.1150  0.3147  0.5730
  140OSM   H12F15360   2.567   5.467   7.718 -1.5555  0.3497 -1.9125
  140OSM   H12G15361   2.391   5.423   7.732 -0.3557 -1.3687  3.2046
  140OSM   C13F15362   2.497   5.426   7.916 -0.3537 -1.0839 -0.0765
  140OSM   H13F15363   2.408   5.446   7.979  0.9088  1.8380  0.9313
  140OSM   H13G15364   2.585   5.474   7.963  0.2992 -0.6246 -1.6810
  140OSM   C14F15365   2.533   5.277   7.904 -0.6458 -0.9849  0.3390
  140OSM   H14F15366   2.625   5.255   7.846 -0.3343  2.6989 -0.7695
  140OSM   H14G15367   2.450   5.242   7.838 -1.5276  1.6073 -0.0161
  140OSM   C15F15368   2.530   5.210   8.039  0.1987 -0.4388 -0.0769
  140OSM   H15F15369   2.435   5.229   8.092  0.2275 -0.5009 -0.0021
  140OSM   H15G15370   2.611   5.249   8.104  0.0320 -0.2701  0.0265
  140OSM   C16F15371   2.531   5.057   8.030  0.4480 -0.4311  0.3562
  140OSM   H16F15372   2.572   5.000   8.116 -1.1767 -1.3574  0.5479
  140OSM   H16G15373   2.596   5.039   7.942 -0.4533  2.0063 -0.8982
  140OSM   C17F15374   2.397   4.984   8.001 -0.1899  0.3270  0.1765
  140OSM   H17F15375   2.351   5.028   7.909 -0.2547 -0.8173 -0.3513
  140OSM   H17G15376   2.341   4.999   8.096  0.7380  0.5561  0.6986
  140OSM   C18F15377   2.418   4.844   7.974 -0.6271 -0.4988  0.1946
  140OSM   H18F15378   2.486   4.826   7.888 -0.0993 -3.6245  1.1529
  140OSM   H18G15379   2.330   4.784   7.943  0.1551 -1.0322 -1.0914
  140OSM   H18H15380   2.445   4.791   8.068 -1.4905 -0.6394  0.3659
  141OSM      N15381   2.660   6.171   6.058  0.9731  0.4640  0.2945
  141OSM    C1515382   2.649   6.108   5.924 -0.1805  0.0008  0.4464
  141OSM   H15A15383   2.554   6.058   5.928  0.4088 -1.0948  1.1518
  141OSM   H15B15384   2.739   6.052   5.905 -0.5848 -0.8982  1.1151
  141OSM   H15C15385   2.647   6.189   5.852  1.9546 -0.1427  0.1571
  141OSM    C1415386   2.786   6.261   6.056 -0.0746  0.4563 -0.2396
  141OSM   H14A15387   2.758   6.354   6.009 -2.1145 -0.5949 -1.2341
  141OSM   H14B15388   2.862   6.214   5.995  0.9751  0.4030  1.0666
  141OSM   H14C15389   2.830   6.275   6.153  2.7750 -0.7456 -1.2549
  141OSM    C1315390   2.549   6.259   6.083  0.0930  0.5549  0.2089
  141OSM   H13A15391   2.545   6.339   6.010  0.8267 -0.1677 -0.6437
  141OSM   H13B15392   2.570   6.308   6.177 -2.5350  1.2534  0.5214
  141OSM   H13C15393   2.456   6.204   6.093  1.1114 -1.6265 -1.5078
  141OSM    C1215394   2.679   6.062   6.164 -0.6224  0.2165  0.3673
  141OSM   H12A15395   2.764   5.996   6.151 -0.3456  0.5593  0.4301
  141OSM   H12B15396   2.595   5.996   6.146 -1.3709  1.2687 -0.0880
  141OSM    C1115397   2.688   6.106   6.306  0.0572  0.2660 -0.5486
  141OSM   H11A15398   2.597   6.153   6.351  0.0254 -1.1935  1.0399
  141OSM   H11B15399   2.767   6.182   6.324  0.9357 -0.3651 -1.6511
  141OSM      P15400   2.619   5.909   6.467 -0.0748  0.2868 -0.1136
  141OSM    O1315401   2.509   5.873   6.388  0.5947 -0.8768 -0.0918
  141OSM    O1415402   2.686   5.801   6.541 -0.4507 -0.0448 -0.0941
  141OSM    O1115403   2.573   6.016   6.569  0.5156 -0.2547  0.5110
  141OSM    O1215404   2.725   5.988   6.373 -0.5134  0.5202  0.0826
  141OSM    C1S15405   2.654   6.054   6.680 -0.1935  0.7400 -0.2088
  141OSM    H1S15406   2.736   6.117   6.639 -0.9613  1.5991 -0.4637
  141OSM    H1T15407   2.701   5.965   6.728  0.5217  0.0468 -2.1091
  141OSM     NF15408   2.675   6.182   6.894  0.1207  0.3951  0.1811
  141OSM    HNF15409   2.688   6.130   6.978  0.7280  0.8083  0.3564
  141OSM    C2S15410   2.579   6.134   6.792  0.4410  0.1629 -0.2193
  141OSM    H2S15411   2.527   6.217   6.741  1.5009  0.4178 -0.9071
  141OSM    C3S15412   2.462   6.045   6.854 -0.2286  0.0269  0.9943
  141OSM    H3S15413   2.517   5.952   6.879  0.0411 -0.6504 -1.8481
  141OSM     O315414   2.362   6.005   6.753  0.1980  0.2418 -0.1764
  141OSM    HO315415   2.401   6.017   6.666  0.2038 -0.7785 -0.3321
  141OSM    C4S15416   2.401   6.114   6.973 -0.3535  0.2977  0.0748
  141OSM    H4S15417   2.470   6.108   7.059 -0.1549 -0.0318 -0.1070
  141OSM    C5S15418   2.280   6.168   6.990 -0.0337 -0.7010 -0.6303
  141OSM    H5S15419   2.204   6.143   6.914 -0.8936 -1.2497  0.3854
  141OSM    C6S15420   2.223   6.234   7.115 -0.2913  0.8609  0.2921
  141OSM    H6S15421   2.128   6.182   7.139 -1.2822  2.3878 -0.1370
  141OSM    H6T15422   2.205   6.339   7.083 -0.4860  0.7352 -0.0105
  141OSM    C7S15423   2.310   6.224   7.240 -0.1033  0.4252  0.2489
  141OSM    H7S15424   2.409   6.274   7.229  0.8026 -1.0047  1.4847
  141OSM    H7T15425   2.339   6.119   7.262  3.9145  1.7391  2.1323
  141OSM    C8S15426   2.255   6.279   7.371 -0.0264 -1.0012  0.6099
  141OSM    H8S15427   2.152   6.240   7.389 -0.1379 -0.8092  0.3861
  141OSM    H8T15428   2.264   6.389   7.366  0.3513 -1.0099  1.0984
  141OSM    C9S15429   2.330   6.232   7.496  0.0514  0.0902  0.3250
  141OSM    H9S15430   2.423   6.291   7.505 -0.2382  0.4204  1.1923
  141OSM    H9T15431   2.357   6.124   7.486  0.8493  0.3599 -0.5219
  141OSM   C10S15432   2.240   6.248   7.614  0.0604 -0.3638 -0.1411
  141OSM   H10S15433   2.157   6.175   7.601 -0.7048  0.5260 -0.3363
  141OSM   H10T15434   2.193   6.348   7.616 -1.2121 -0.9005 -1.2341
  141OSM   C11S15435   2.309   6.228   7.746  0.2415  0.0982 -0.2637
  141OSM   H11S15436   2.409   6.277   7.747  0.5587 -0.5119  2.1249
  141OSM   H11T15437   2.333   6.120   7.757  1.1734  0.4885  2.3625
  141OSM   C12S15438   2.230   6.274   7.867  0.4445  0.3734 -0.4788
  141OSM   H12S15439   2.128   6.231   7.864  0.8776 -0.6330 -2.5821
  141OSM   H12T15440   2.225   6.385   7.860  1.9089  0.4100 -1.2951
  141OSM   C13S15441   2.291   6.235   8.007 -0.5001  0.0108 -0.4648
  141OSM   H13S15442   2.396   6.270   8.013 -0.1491 -1.2318  2.1846
  141OSM   H13T15443   2.289   6.124   8.002  1.8144 -0.0436 -1.1761
  141OSM   C14S15444   2.205   6.285   8.121  0.1261 -0.2863 -0.8860
  141OSM   H14S15445   2.108   6.233   8.136 -0.5330  0.6643 -1.7151
  141OSM   H14T15446   2.177   6.391   8.102 -0.8620 -0.4389 -0.3393
  141OSM   C15S15447   2.275   6.280   8.260  0.4463  0.9436  0.1696
  141OSM   H15S15448   2.375   6.320   8.233 -0.4548  1.8723 -2.0930
  141OSM   H15T15449   2.297   6.175   8.289 -1.6866  0.5509  0.5589
  141OSM   C16S15450   2.198   6.344   8.377 -0.3143 -0.4150 -0.2776
  141OSM   H16S15451   2.104   6.285   8.389 -0.0363 -0.5877  1.2269
  141OSM   H16T15452   2.170   6.449   8.354 -0.3118 -0.5911 -1.1156
  141OSM   C17S15453   2.266   6.332   8.510  0.1714 -0.6373  0.1002
  141OSM   H17S15454   2.364   6.384   8.505  0.1836 -0.3417  2.3748
  141OSM   H17T15455   2.291   6.226   8.531  1.7746 -0.7887 -2.1763
  141OSM   C18S15456   2.180   6.378   8.625  0.4725  0.1517  0.1428
  141OSM   H18S15457   2.234   6.361   8.721 -0.2686 -0.8167  0.3989
  141OSM   H18T15458   2.089   6.317   8.641  0.1205  0.5512 -0.3166
  141OSM   H18U15459   2.153   6.486   8.626 -0.5102 -0.0474 -1.5793
  141OSM    C1F15460   2.754   6.285   6.859 -0.1304 -0.1111 -0.2757
  141OSM     OF15461   2.740   6.344   6.754  0.3979 -0.9267 -0.6655
  141OSM    C2F15462   2.866   6.322   6.952 -0.0891  0.0465 -0.1558
  141OSM    H2F15463   2.964   6.281   6.918  0.1900 -0.9394  1.6997
  141OSM    H2G15464   2.854   6.276   7.052 -0.9016  2.0835  0.7395
  141OSM    C3F15465   2.872   6.476   6.969 -0.3193 -0.2554 -0.8733
  141OSM    H3F15466   2.890   6.529   6.873 -1.1974 -1.4336 -1.7210
  141OSM    H3G15467   2.949   6.505   7.043 -2.3931 -0.4747  1.5167
  141OSM    C4F15468   2.744   6.540   7.040 -0.1844  0.9033  0.0620
  141OSM    H4F15469   2.650   6.532   6.981 -0.4278  1.3245  0.3826
  141OSM    H4G15470   2.770   6.647   7.050 -0.2615  0.7586  2.3892
  141OSM    C5F15471   2.728   6.468   7.175 -0.5934 -0.3074 -0.2138
  141OSM    H5F15472   2.830   6.446   7.213 -0.0147  0.0022 -1.5471
  141OSM    H5G15473   2.695   6.363   7.159 -1.2707 -0.1893  0.3515
  141OSM    C6F15474   2.631   6.531   7.279  0.0737 -0.8373  0.4288
  141OSM    H6F15475   2.527   6.513   7.245  0.0561  0.1973 -0.0857
  141OSM    H6G15476   2.669   6.635   7.281 -0.6204 -0.5859  2.2183
  141OSM    C7F15477   2.628   6.481   7.425  0.1315  0.6356 -0.1238
  141OSM    H7F15478   2.732   6.487   7.462  0.6137  2.3663 -1.6307
  141OSM    H7G15479   2.581   6.380   7.422 -0.0516  0.7242 -0.2941
  141OSM    C8F15480   2.544   6.558   7.523 -0.8137 -0.0563 -0.3819
  141OSM    H8F15481   2.496   6.481   7.586 -1.8075  1.1875  0.4375
  141OSM    H8G15482   2.465   6.602   7.458 -0.2355  0.2594 -0.8894
  141OSM    C9F15483   2.614   6.667   7.597 -0.5916  0.1890 -0.2613
  141OSM    H9F15484   2.661   6.748   7.539  1.2771  0.7428  1.9039
  141OSM   C10F15485   2.629   6.678   7.734  0.6553 -0.0990  0.3849
  141OSM   H10F15486   2.671   6.771   7.775 -0.4033  2.3167 -3.4215
  141OSM   C11F15487   2.575   6.584   7.837 -0.3699  0.3594  0.3072
  141OSM   H11F15488   2.654   6.509   7.861 -0.0118  0.2471 -1.1239
  141OSM   H11G15489   2.496   6.519   7.793 -1.7291  3.9155 -3.0215
  141OSM   C12F15490   2.520   6.664   7.954 -0.1446 -0.0967  0.3413
  141OSM   H12F15491   2.469   6.756   7.919  1.4754  0.3505 -0.9993
  141OSM   H12G15492   2.605   6.708   8.011  1.5686  0.4480 -2.4131
  141OSM   C13F15493   2.421   6.576   8.034  0.4298 -0.3153 -0.2525
  141OSM   H13F15494   2.465   6.479   8.064  2.7676  0.1460 -1.8663
  141OSM   H13G15495   2.325   6.561   7.981  0.0590 -1.6233  0.7507
  141OSM   C14F15496   2.399   6.648   8.172 -0.0564  0.1240 -0.1000
  141OSM   H14F15497   2.298   6.631   8.216  0.1093  1.3048  0.7886
  141OSM   H14G15498   2.425   6.756   8.160  2.2419 -0.2812  0.8449
  141OSM   C15F15499   2.503   6.597   8.275  0.3864 -0.1144 -0.6116
  141OSM   H15F15500   2.600   6.643   8.245  0.9321  0.1228  1.3698
  141OSM   H15G15501   2.515   6.486   8.277 -0.1230 -0.2326  3.1600
  141OSM   C16F15502   2.464   6.642   8.407  0.4725  0.3717  0.3869
  141OSM   H16F15503   2.355   6.623   8.418 -0.2428  2.6745 -1.6104
  141OSM   H16G15504   2.472   6.753   8.404 -1.7092  0.5569 -0.3351
  141OSM   C17F15505   2.537   6.583   8.527  1.0161 -0.6996 -0.2277
  141OSM   H17F15506   2.645   6.608   8.537  0.4651  1.5973  0.6604
  141OSM   H17G15507   2.536   6.473   8.511  0.7935 -0.8260  0.5871
  141OSM   C18F15508   2.465   6.616   8.660 -0.0748 -0.3545 -0.3874
  141OSM   H18F15509   2.496   6.561   8.752 -0.7589  3.0507  2.0680
  141OSM   H18G15510   2.362   6.576   8.653 -0.2411 -0.6563  2.5482
  141OSM   H18H15511   2.455   6.726   8.674 -0.4628 -0.2104 -1.6403
  142OSM      N15512   3.204   3.216   6.171  0.3584 -0.1965  0.4160
  142OSM    C1515513   3.086   3.119   6.167  0.0518 -0.1689  0.8685
  142OSM   H15A15514   3.000   3.146   6.226  0.0511  1.5049  0.1588
  142OSM   H15B15515   3.130   3.025   6.195  2.9744  0.4154 -1.2727
  142OSM   H15C15516   3.056   3.105   6.064 -0.0566 -0.0809  0.8880
  142OSM    C1415517   3.254   3.224   6.310 -0.5440  0.3075 -0.0809
  142OSM   H14A15518   3.333   3.296   6.325  0.4345  0.4913 -4.5145
  142OSM   H14B15519   3.291   3.125   6.332 -0.5392  0.4648  0.6282
  142OSM   H14C15520   3.168   3.239   6.373 -0.8080  1.4567 -0.6818
  142OSM    C1315521   3.308   3.174   6.080  0.0057  0.2618  0.9455
  142OSM   H13A15522   3.379   3.254   6.066 -0.3447  0.2705 -1.0260
  142OSM   H13B15523   3.263   3.145   5.986 -2.4298  0.0717  2.0856
  142OSM   H13C15524   3.376   3.096   6.111  1.4725  1.2235  0.2450
  142OSM    C1215525   3.150   3.349   6.130 -0.2568  0.6981  0.2256
  142OSM   H12A15526   3.130   3.351   6.023 -0.3356  1.5926  0.2465
  142OSM   H12B15527   3.225   3.423   6.153  0.6877 -0.1140 -0.1659
  142OSM    C1115528   3.023   3.402   6.206 -0.1599  0.1733 -0.5367
  142OSM   H11A15529   2.936   3.345   6.166  0.1005 -1.7193  1.4368
  142OSM   H11B15530   2.997   3.504   6.171  0.2552  0.2463 -0.6343
  142OSM      P15531   2.923   3.389   6.443  0.2615 -0.2435  0.0180
  142OSM    O1315532   2.809   3.473   6.405 -0.6436  0.1727  0.0439
  142OSM    O1415533   2.906   3.239   6.441  0.5600  0.0700 -0.4918
  142OSM    O1115534   2.980   3.445   6.581  0.4632 -0.0294 -0.1395
  142OSM    O1215535   3.041   3.419   6.345  0.0537  0.3136 -0.3157
  142OSM    C1S15536   3.115   3.492   6.606  0.7892  0.6285 -0.1032
  142OSM    H1S15537   3.123   3.598   6.574 -2.0209  1.0406  0.3029
  142OSM    H1T15538   3.192   3.432   6.551  1.5541  1.3369  0.1759
  142OSM     NF15539   3.275   3.560   6.780 -0.1277 -0.0662  0.1807
  142OSM    HNF15540   3.355   3.502   6.793  0.4838  0.3722 -1.4445
  142OSM    C2S15541   3.154   3.490   6.760  0.2803  0.6431  0.2587
  142OSM    H2S15542   3.074   3.542   6.818  0.1426  2.1114 -1.1803
  142OSM    C3S15543   3.154   3.337   6.798  0.5269  0.8229  0.3387
  142OSM    H3S15544   3.223   3.281   6.732 -1.1630  1.5067 -2.1577
  142OSM     O315545   3.024   3.267   6.777 -0.1262  0.7380 -0.2522
  142OSM    HO315546   2.980   3.326   6.715  0.2575  1.1481 -0.1404
  142OSM    C4S15547   3.196   3.330   6.936  0.2998  0.2742  0.0058
  142OSM    H4S15548   3.305   3.319   6.938  0.3337  0.5625  2.5486
  142OSM    C5S15549   3.121   3.344   7.046 -0.3783  0.0789 -0.4370
  142OSM    H5S15550   3.012   3.331   7.034 -0.0651 -4.2696 -0.2110
  142OSM    C6S15551   3.157   3.341   7.190  0.5146 -0.3136  0.7008
  142OSM    H6S15552   3.103   3.256   7.237  1.2226 -0.4735  1.2511
  142OSM    H6T15553   3.132   3.437   7.239  0.7714  1.2319 -1.9911
  142OSM    C7S15554   3.304   3.309   7.232 -0.7652  0.2526  0.4757
  142OSM    H7S15555   3.365   3.387   7.181 -2.6121  2.2277  1.1551
  142OSM    H7T15556   3.341   3.207   7.208  3.3189  1.8417 -0.8468
  142OSM    C8S15557   3.303   3.332   7.382 -1.1481  0.2591 -1.0482
  142OSM    H8S15558   3.204   3.292   7.413 -0.4376  0.7694  2.3855
  142OSM    H8T15559   3.297   3.442   7.400 -0.5734  0.4435 -1.9184
  142OSM    C9S15560   3.406   3.266   7.478  0.3722 -0.1262 -0.3516
  142OSM    H9S15561   3.511   3.286   7.447  0.3813 -1.8836 -1.6566
  142OSM    H9T15562   3.401   3.155   7.485  1.3008 -0.2355 -1.1433
  142OSM   C10S15563   3.394   3.324   7.625  0.1255  0.3278  0.4065
  142OSM   H10S15564   3.434   3.427   7.614  1.2506 -0.3667 -3.2720
  142OSM   H10T15565   3.458   3.261   7.690  0.8661  0.4059 -0.2347
  142OSM   C11S15566   3.254   3.317   7.689  0.2880  0.2296  0.9966
  142OSM   H11S15567   3.193   3.379   7.621 -0.8173  0.0007  1.7574
  142OSM   H11T15568   3.255   3.374   7.784 -1.7397  2.7649 -0.4020
  142OSM   C12S15569   3.196   3.176   7.712  0.3909  0.4352 -0.4499
  142OSM   H12S15570   3.236   3.146   7.810 -0.6485  0.0966 -0.1101
  142OSM   H12T15571   3.230   3.106   7.633  0.0592  0.8714 -0.9920
  142OSM   C13S15572   3.045   3.168   7.729  0.3293 -0.3010 -0.6838
  142OSM   H13S15573   3.006   3.164   7.625  0.1432  0.0194 -0.6277
  142OSM   H13T15574   2.997   3.255   7.780 -1.9626 -1.8238 -0.0908
  142OSM   C14S15575   2.997   3.043   7.815  0.0527 -0.2243  0.1234
  142OSM   H14S15576   3.022   3.076   7.919 -1.8248 -1.2444  0.9572
  142OSM   H14T15577   3.049   2.947   7.795 -1.2719 -0.8382 -0.5240
  142OSM   C15S15578   2.849   3.024   7.805 -0.0572  0.2741 -0.1776
  142OSM   H15S15579   2.844   3.002   7.696 -0.3959  3.5792 -0.9266
  142OSM   H15T15580   2.809   3.126   7.826  2.1200  1.6360 -2.0956
  142OSM   C16S15581   2.800   2.912   7.901  0.3089  0.0757  0.5560
  142OSM   H16S15582   2.813   2.950   8.004  0.9374  0.8172  0.2117
  142OSM   H16T15583   2.863   2.821   7.889 -0.9038 -1.5729  4.9109
  142OSM   C17S15584   2.654   2.878   7.875 -0.2121  0.5433 -0.3382
  142OSM   H17S15585   2.646   2.860   7.766  1.4274 -1.0164 -0.2332
  142OSM   H17T15586   2.588   2.965   7.895 -1.7252 -0.6370 -0.0108
  142OSM   C18S15587   2.588   2.759   7.950  0.4580 -0.3951  0.8433
  142OSM   H18S15588   2.642   2.663   7.933  0.3993 -0.0989 -1.2478
  142OSM   H18T15589   2.481   2.753   7.921  0.8274  0.6853 -0.8792
  142OSM   H18U15590   2.603   2.790   8.056  0.9041 -1.2655  1.0408
  142OSM    C1F15591   3.288   3.692   6.778 -0.1529 -0.3258 -0.5061
  142OSM     OF15592   3.186   3.764   6.762  0.2240  0.3488  0.4025
  142OSM    C2F15593   3.430   3.753   6.795  0.2942 -0.7266  0.7831
  142OSM    H2F15594   3.444   3.813   6.703 -0.4551 -1.3820  0.2182
  142OSM    H2G15595   3.496   3.665   6.784  2.5498  1.1008 -1.1969
  142OSM    C3F15596   3.447   3.830   6.927 -0.2421 -0.4494  0.0231
  142OSM    H3F15597   3.388   3.924   6.933  0.1574 -0.1969  0.0352
  142OSM    H3G15598   3.555   3.857   6.931 -0.3066 -0.3665  2.3300
  142OSM    C4F15599   3.410   3.749   7.055 -0.8903  0.7714 -1.0133
  142OSM    H4F15600   3.471   3.657   7.055  0.0265  1.3614 -0.8947
  142OSM    H4G15601   3.304   3.716   7.043 -0.5759 -0.4231 -0.6230
  142OSM    C5F15602   3.444   3.825   7.191 -0.0588  0.3905 -0.7152
  142OSM    H5F15603   3.382   3.918   7.188 -0.4551  0.2052 -5.2654
  142OSM    H5G15604   3.547   3.865   7.178 -0.5899  1.5959 -1.4360
  142OSM    C6F15605   3.422   3.732   7.315 -0.6382  0.7162  0.2818
  142OSM    H6F15606   3.476   3.637   7.295  1.5099  1.8188  0.5702
  142OSM    H6G15607   3.314   3.706   7.319 -1.0092  1.1153 -3.3651
  142OSM    C7F15608   3.471   3.798   7.444 -0.1598  0.6346 -0.0950
  142OSM    H7F15609   3.423   3.898   7.433 -2.1250 -0.2514  0.0140
  142OSM    H7G15610   3.582   3.803   7.435 -0.2529  0.3255 -1.8406
  142OSM    C8F15611   3.430   3.738   7.583  0.0295  0.5967  0.5052
  142OSM    H8F15612   3.486   3.642   7.587 -1.3528 -0.2500  0.1190
  142OSM    H8G15613   3.323   3.709   7.588  0.4534 -0.8208  3.4289
  142OSM    C9F15614   3.460   3.827   7.706  0.4395 -0.3734  0.7247
  142OSM    H9F15615   3.512   3.921   7.685  2.0268 -1.8613 -2.7509
  142OSM   C10F15616   3.426   3.806   7.835  0.3767  0.8540  0.1414
  142OSM   H10F15617   3.470   3.877   7.907  2.0389  2.0224 -1.8916
  142OSM   C11F15618   3.352   3.689   7.889 -0.1360  1.0227 -0.4213
  142OSM   H11F15619   3.354   3.606   7.815 -1.0151  0.9516 -0.3800
  142OSM   H11G15620   3.242   3.701   7.900 -0.2417  0.0700 -0.3401
  142OSM   C12F15621   3.414   3.633   8.016 -0.4369 -0.1565  0.6177
  142OSM   H12F15622   3.446   3.717   8.081  1.8684  0.1396 -0.8037
  142OSM   H12G15623   3.513   3.584   8.004  0.9851  2.5799  0.4080
  142OSM   C13F15624   3.309   3.543   8.083 -0.2628  0.3432  0.0887
  142OSM   H13F15625   3.272   3.458   8.021 -2.0568  0.2547  1.2137
  142OSM   H13G15626   3.215   3.597   8.108  0.2882  1.0953  0.5742
  142OSM   C14F15627   3.365   3.500   8.223  0.0006 -0.7002  0.6078
  142OSM   H14F15628   3.372   3.601   8.270 -0.6764  0.1588 -1.0634
  142OSM   H14G15629   3.465   3.452   8.211  1.4103  1.5226  2.4200
  142OSM   C15F15630   3.276   3.407   8.305  0.0737  0.5660  0.5158
  142OSM   H15F15631   3.331   3.357   8.387 -0.3212 -0.1399  0.3489
  142OSM   H15G15632   3.248   3.324   8.237 -1.0283  0.3417  1.2357
  142OSM   C16F15633   3.142   3.461   8.355  0.0654  0.6772  0.0412
  142OSM   H16F15634   3.092   3.489   8.259  0.7795  0.5957 -0.3656
  142OSM   H16G15635   3.163   3.553   8.414 -0.5747  0.7568  0.1471
  142OSM   C17F15636   3.080   3.345   8.434  0.1400 -0.5773 -0.1972
  142OSM   H17F15637   3.151   3.301   8.508 -0.1524 -0.8896 -0.0995
  142OSM   H17G15638   3.075   3.257   8.366 -0.3345 -2.0579  1.6581
  142OSM   C18F15639   2.946   3.378   8.492  0.1316  0.1762  0.0197
  142OSM   H18F15640   2.879   3.387   8.403  0.0251 -0.8311 -0.0072
  142OSM   H18G15641   2.935   3.471   8.551 -1.2362  1.0634 -1.5507
  142OSM   H18H15642   2.911   3.288   8.545 -1.6405  0.1856 -1.0407
  143OSM      N15643   4.586   3.950   6.078 -0.5825 -0.3611 -0.3736
  143OSM    C1515644   4.452   3.900   6.103  0.3108 -0.5812 -0.6838
  143OSM   H15A15645   4.449   3.797   6.136  5.8658 -1.6963 -2.5996
  143OSM   H15B15646   4.397   3.912   6.011  0.3102 -1.5417 -0.8202
  143OSM   H15C15647   4.411   3.965   6.179 -1.6067 -2.3224 -0.1381
  143OSM    C1415648   4.693   3.848   6.044  0.1492  0.1592  0.2892
  143OSM   H14A15649   4.714   3.778   6.123 -0.5645 -1.4468 -0.8827
  143OSM   H14B15650   4.780   3.899   6.007 -1.0634  1.7653 -0.4697
  143OSM   H14C15651   4.672   3.785   5.959  1.5627  0.0375  0.0037
  143OSM    C1315652   4.574   4.053   5.968  0.5115  0.0024  0.6783
  143OSM   H13A15653   4.495   4.123   5.992 -0.0920 -0.9325  1.4762
  143OSM   H13B15654   4.548   4.008   5.873  0.6481  2.3963 -0.5712
  143OSM   H13C15655   4.663   4.115   5.966 -0.1319  0.9367  0.6892
  143OSM    C1215656   4.619   4.022   6.207 -0.2406 -0.6952  0.1573
  143OSM   H12A15657   4.532   4.078   6.240  0.1517 -1.3685  2.5919
  143OSM   H12B15658   4.693   4.096   6.181 -1.6226  0.1865 -1.4651
  143OSM    C1115659   4.673   3.934   6.317  0.1031 -0.2684 -0.2395
  143OSM   H11A15660   4.598   3.853   6.331 -1.8967  1.8157  1.9555
  143OSM   H11B15661   4.658   4.001   6.404  0.9558  0.0632 -0.3370
  143OSM      P15662   4.934   3.961   6.292 -0.2698  0.0661 -0.1058
  143OSM    O1315663   5.034   3.914   6.386 -0.3133  0.7718 -0.1005
  143OSM    O1415664   4.979   3.975   6.152  0.2517 -0.0986  0.2888
  143OSM    O1115665   4.881   4.096   6.345 -0.1024  0.2517 -0.2353
  143OSM    O1215666   4.806   3.876   6.296  0.2632  0.1470  0.5221
  143OSM    C1S15667   4.880   4.140   6.484 -0.3989 -0.0380 -0.2081
  143OSM    H1S15668   4.872   4.051   6.550  2.5473 -0.6514 -0.5059
  143OSM    H1T15669   4.799   4.215   6.492 -1.0785 -0.7646 -0.1215
  143OSM     NF15670   5.015   4.261   6.664 -0.0722 -0.0437 -0.2564
  143OSM    HNF15671   5.025   4.360   6.676  0.3998  0.0275 -1.1618
  143OSM    C2S15672   5.019   4.210   6.530  1.1706  0.4399  0.6332
  143OSM    H2S15673   5.097   4.133   6.515 -0.0248 -0.5580 -0.7222
  143OSM    C3S15674   5.065   4.323   6.431 -0.4243 -0.2657  0.1519
  143OSM    H3S15675   4.997   4.407   6.456 -0.1765  0.3176 -1.0441
  143OSM     O315676   5.061   4.294   6.291  0.7551 -0.3306  0.3446
  143OSM    HO315677   5.001   4.219   6.289  1.0853 -0.6409  1.3344
  143OSM    C4S15678   5.207   4.366   6.456  0.0105 -0.3854  0.4006
  143OSM    H4S15679   5.290   4.306   6.414  1.1300  2.0724 -1.0973
  143OSM    C5S15680   5.234   4.491   6.502 -0.2784  0.0685  0.2739
  143OSM    H5S15681   5.151   4.563   6.512 -0.5342  0.0535 -1.4990
  143OSM    C6S15682   5.371   4.548   6.526  0.6460 -0.0059 -0.0198
  143OSM    H6S15683   5.389   4.627   6.449 -0.8758  0.9479  0.5574
  143OSM    H6T15684   5.458   4.480   6.514  1.8341  1.7424 -1.9853
  143OSM    C7S15685   5.377   4.617   6.660  0.5737  0.2676  0.0570
  143OSM    H7S15686   5.288   4.681   6.674  0.0101 -0.0430 -1.7718
  143OSM    H7T15687   5.460   4.692   6.660  0.8030  0.0160  0.0191
  143OSM    C8S15688   5.397   4.527   6.786 -0.1459  0.1858  0.0300
  143OSM    H8S15689   5.504   4.504   6.800  0.0917  0.3684 -1.2955
  143OSM    H8T15690   5.352   4.429   6.760  0.1538 -0.0612  0.4486
  143OSM    C9S15691   5.339   4.561   6.920 -0.2593  0.2086 -0.4017
  143OSM    H9S15692   5.246   4.501   6.927 -0.4897  0.6325  0.3296
  143OSM    H9T15693   5.301   4.666   6.917  0.4110  0.4807  0.2866
  143OSM   C10S15694   5.434   4.535   7.044 -0.5065 -0.9779  0.2328
  143OSM   H10S15695   5.515   4.611   7.038 -2.0801  0.7034 -0.3471
  143OSM   H10T15696   5.490   4.439   7.031 -0.1878 -0.8159  0.4020
  143OSM   C11S15697   5.346   4.537   7.164 -0.3772 -0.3891 -0.1788
  143OSM   H11S15698   5.288   4.442   7.170 -1.3213  0.1050 -1.2241
  143OSM   H11T15699   5.268   4.616   7.154 -1.4508 -1.2497  1.0077
  143OSM   C12S15700   5.426   4.561   7.286  0.0335 -0.7198  0.4180
  143OSM   H12S15701   5.473   4.661   7.288  0.2496 -0.8326  1.4096
  143OSM   H12T15702   5.503   4.482   7.301  0.8453  0.1848  1.1573
  143OSM   C13S15703   5.334   4.551   7.416 -0.0784 -0.2212 -0.4008
  143OSM   H13S15704   5.287   4.450   7.420  1.4183 -0.9005  1.2673
  143OSM   H13T15705   5.255   4.628   7.405  0.1984 -0.2156 -3.1511
  143OSM   C14S15706   5.410   4.591   7.542  0.4647  0.3987  0.5306
  143OSM   H14S15707   5.479   4.678   7.535  0.6311  0.3607  1.5289
  143OSM   H14T15708   5.480   4.507   7.562  1.7479  1.2713 -0.1901
  143OSM   C15S15709   5.313   4.588   7.656  0.3260  0.1749  0.2656
  143OSM   H15S15710   5.280   4.485   7.683  0.8807 -0.1202 -0.1567
  143OSM   H15T15711   5.225   4.646   7.621  1.0018  1.3345  0.4532
  143OSM   C16S15712   5.363   4.660   7.776  0.1431 -0.0585 -0.0078
  143OSM   H16S15713   5.348   4.768   7.754 -1.2742  0.0854  1.4864
  143OSM   H16T15714   5.468   4.639   7.806  0.1543  0.1322  0.0887
  143OSM   C17S15715   5.296   4.620   7.911 -0.7040  0.4189  0.4415
  143OSM   H17S15716   5.371   4.653   7.986  1.8099  0.6399 -2.0239
  143OSM   H17T15717   5.296   4.509   7.921 -0.4541  0.4320  0.5901
  143OSM   C18S15718   5.157   4.682   7.938  0.5957  0.3275  0.2387
  143OSM   H18S15719   5.158   4.793   7.934 -2.1094  0.4534  0.9952
  143OSM   H18T15720   5.127   4.649   8.040 -1.7736 -0.5350 -0.6554
  143OSM   H18U15721   5.088   4.641   7.860  0.0558  0.1387  0.8054
  143OSM    C1F15722   4.981   4.175   6.766  1.6761 -0.7926 -0.1382
  143OSM     OF15723   4.990   4.052   6.762  0.4199  0.5321 -0.1855
  143OSM    C2F15724   4.906   4.236   6.880 -0.4301  0.0861  0.4244
  143OSM    H2F15725   4.818   4.169   6.893 -1.0956  0.5857 -1.2572
  143OSM    H2G15726   4.872   4.340   6.859 -2.7600 -0.8677 -0.9305
  143OSM    C3F15727   5.005   4.236   7.000 -0.0345  0.1874  0.8646
  143OSM    H3F15728   5.078   4.318   6.981 -0.3104  0.6256  1.6445
  143OSM    H3G15729   5.056   4.138   7.005 -3.2549 -1.6576  0.1300
  143OSM    C4F15730   4.934   4.261   7.131 -0.1672 -0.1899 -0.6268
  143OSM    H4F15731   4.882   4.164   7.146 -2.2672  0.7443 -1.4976
  143OSM    H4G15732   4.855   4.337   7.113  0.7411  0.6245 -1.2560
  143OSM    C5F15733   5.014   4.311   7.258  0.8936 -0.2983  0.2279
  143OSM    H5F15734   5.079   4.399   7.241 -0.6258  0.7693 -0.3246
  143OSM    H5G15735   5.090   4.231   7.272 -1.2572 -2.4053  0.6002
  143OSM    C6F15736   4.937   4.341   7.386 -0.0026 -0.0871  0.6194
  143OSM    H6F15737   4.892   4.246   7.423 -1.4912  0.3807  0.0862
  143OSM    H6G15738   4.861   4.417   7.358  0.8326 -0.1112 -1.8903
  143OSM    C7F15739   5.033   4.393   7.491  0.2088  0.5678 -0.8844
  143OSM    H7F15740   5.067   4.492   7.451 -1.2647  0.7274 -1.8392
  143OSM    H7G15741   5.125   4.332   7.505  0.4906  1.2482  0.4034
  143OSM    C8F15742   4.970   4.414   7.623 -0.3511  0.2849 -0.4729
  143OSM    H8F15743   4.881   4.480   7.615  1.2747  2.3993 -2.7165
  143OSM    H8G15744   5.056   4.456   7.680  2.7668 -2.0628 -3.0462
  143OSM    C9F15745   4.931   4.281   7.693 -0.0843 -0.0973  0.8750
  143OSM    H9F15746   4.920   4.193   7.628  1.8295  0.2849 -0.0497
  143OSM   C10F15747   4.924   4.266   7.826 -0.5080 -0.1378  0.3089
  143OSM   H10F15748   4.903   4.166   7.868  0.2876  0.0184  1.0990
  143OSM   C11F15749   4.939   4.388   7.918 -0.2321  1.1334  1.0520
  143OSM   H11F15750   4.942   4.487   7.869  0.0599 -0.6850 -3.0122
  143OSM   H11G15751   5.042   4.390   7.958  1.4896 -1.8753 -2.5583
  143OSM   C12F15752   4.841   4.384   8.031  0.6260 -0.6748 -0.9116
  143OSM   H12F15753   4.839   4.287   8.085  2.0476 -1.2001 -1.7254
  143OSM   H12G15754   4.739   4.409   7.996  1.2894  1.0132 -1.7213
  143OSM   C13F15755   4.885   4.485   8.142  0.1509  0.3808 -0.1336
  143OSM   H13F15756   4.807   4.499   8.219  0.4610 -0.4996  0.3562
  143OSM   H13G15757   4.901   4.583   8.092  0.7675 -0.8353 -2.5299
  143OSM   C14F15758   5.018   4.459   8.222  0.8998  0.5208 -0.0215
  143OSM   H14F15759   5.111   4.463   8.162  0.5845  1.3690 -0.4593
  143OSM   H14G15760   5.018   4.355   8.262 -1.4596  0.3952 -0.2341
  143OSM   C15F15761   5.027   4.562   8.339  0.0676  0.7979 -0.8910
  143OSM   H15F15762   4.981   4.655   8.301 -0.0189  1.4982  0.8410
  143OSM   H15G15763   5.135   4.580   8.359  0.2636 -1.1013  0.0449
  143OSM   C16F15764   4.962   4.513   8.468 -0.2449 -0.0976 -0.2856
  143OSM   H16F15765   4.853   4.504   8.446 -0.4474 -0.3164  0.7582
  143OSM   H16G15766   4.978   4.592   8.544 -0.9775 -0.9154  0.7572
  143OSM   C17F15767   5.010   4.378   8.532 -0.3316 -0.4728  0.4011
  143OSM   H17F15768   4.980   4.298   8.462  0.7594 -0.4895 -0.0748
  143OSM   H17G15769   4.946   4.356   8.620 -1.3391 -0.9861 -0.4398
  143OSM   C18F15770   5.160   4.355   8.567 -0.3782  0.4593 -0.1125
  143OSM   H18F15771   5.222   4.385   8.480  0.2106  0.4626  0.3009
  143OSM   H18G15772   5.184   4.247   8.580 -0.1536  0.8146  3.8563
  143OSM   H18H15773   5.191   4.413   8.657 -0.7842 -1.0069  1.0131
  144OSM      N15774   4.305   3.565   6.615  0.2221  0.3501 -0.1476
  144OSM    C1515775   4.176   3.538   6.538  0.3552 -0.5591  0.6392
  144OSM   H15A15776   4.189   3.510   6.435  1.5912 -1.4755  1.0291
  144OSM   H15B15777   4.098   3.613   6.536 -1.1649 -2.0630 -1.4450
  144OSM   H15C15778   4.124   3.450   6.575 -0.3392 -1.2765 -1.8290
  144OSM    C1415779   4.285   3.613   6.752 -0.3816  0.4932  0.2160
  144OSM   H14A15780   4.227   3.704   6.751 -2.5663 -0.8247  0.4513
  144OSM   H14B15781   4.379   3.634   6.801  0.7214 -1.1202 -1.1261
  144OSM   H14C15782   4.231   3.539   6.809  0.3797  0.5967  1.1015
  144OSM    C1315783   4.360   3.430   6.639  0.2719  0.3702 -0.6184
  144OSM   H13A15784   4.466   3.423   6.657  0.2852  1.1663 -0.3147
  144OSM   H13B15785   4.325   3.371   6.556 -2.3004 -0.5453  0.9885
  144OSM   H13C15786   4.309   3.386   6.724  2.2039  1.0210  0.9592
  144OSM    C1215787   4.408   3.646   6.543  0.1866 -0.1603  0.9100
  144OSM   H12A15788   4.401   3.606   6.443 -3.9930  2.3379 -0.0276
  144OSM   H12B15789   4.505   3.638   6.590  0.1576  3.0598  1.7623
  144OSM    C1115790   4.385   3.798   6.520 -0.4037 -0.3467 -0.6982
  144OSM   H11A15791   4.468   3.850   6.469  1.7680 -1.4238  1.4858
  144OSM   H11B15792   4.386   3.848   6.619  0.1638  0.9118 -1.3308
  144OSM      P15793   4.206   3.956   6.412  0.2875  0.2134  0.3595
  144OSM    O1315794   4.305   4.031   6.334  0.2440 -0.1076  0.1391
  144OSM    O1415795   4.073   3.938   6.347 -0.5748 -0.0483  0.2416
  144OSM    O1115796   4.189   4.041   6.545  0.2704 -0.5908 -0.1265
  144OSM    O1215797   4.261   3.811   6.450 -0.5602  0.0618  0.0540
  144OSM    C1S15798   4.095   3.992   6.648 -0.2812 -0.1989  0.4028
  144OSM    H1S15799   4.111   3.884   6.668 -0.2685 -0.6264 -1.6373
  144OSM    H1T15800   3.990   4.009   6.615 -0.4033 -0.5810  0.5934
  144OSM     NF15801   4.012   4.000   6.876 -0.1457  0.2545  0.3556
  144OSM    HNF15802   3.940   4.068   6.891 -1.1912 -0.3668 -1.4584
  144OSM    C2S15803   4.112   4.051   6.788  0.4834  0.0992 -0.0187
  144OSM    H2S15804   4.208   4.026   6.839 -1.1123  0.3971  3.4244
  144OSM    C3S15805   4.114   4.204   6.768  0.1987 -0.8712 -0.0583
  144OSM    H3S15806   4.026   4.249   6.719  2.6030  5.2809  0.3402
  144OSM     O315807   4.228   4.239   6.692 -0.4989 -0.5691 -0.0521
  144OSM    HO315808   4.253   4.154   6.655  0.6546  0.3330 -1.4283
  144OSM    C4S15809   4.129   4.276   6.899  0.0206 -0.1978  0.2997
  144OSM    H4S15810   4.213   4.234   6.956 -0.3375 -0.5455  0.5800
  144OSM    C5S15811   4.055   4.374   6.952 -0.5685  0.0812 -0.2190
  144OSM    H5S15812   3.978   4.419   6.888 -1.0140 -1.5430 -0.9001
  144OSM    C6S15813   4.078   4.434   7.086  0.4303  0.5558  0.5472
  144OSM    H6S15814   3.981   4.473   7.122  0.0477 -1.3232  1.7080
  144OSM    H6T15815   4.134   4.526   7.060 -0.5779  1.8000  2.5357
  144OSM    C7S15816   4.141   4.351   7.203 -0.6017 -0.3017  0.7227
  144OSM    H7S15817   4.239   4.300   7.185 -0.6479 -0.4242  0.8164
  144OSM    H7T15818   4.064   4.273   7.219 -0.9611 -0.5571 -1.7703
  144OSM    C8S15819   4.156   4.443   7.336  0.1639 -0.2374  1.1944
  144OSM    H8S15820   4.077   4.521   7.338  0.5254  0.3059 -1.4960
  144OSM    H8T15821   4.250   4.495   7.307 -0.7517 -0.1453 -1.9042
  144OSM    C9S15822   4.138   4.369   7.465 -0.0978 -0.3382  0.3042
  144OSM    H9S15823   4.223   4.298   7.473  0.0916 -0.2815 -0.9778
  144OSM    H9T15824   4.053   4.298   7.470 -0.4360  0.1468  1.9073
  144OSM   C10S15825   4.119   4.461   7.587  0.9240  0.7821  0.3337
  144OSM   H10S15826   4.024   4.511   7.559  0.9729  0.5517 -0.2536
  144OSM   H10T15827   4.192   4.545   7.583 -0.2095  1.7596 -1.7964
  144OSM   C11S15828   4.115   4.365   7.706  0.0149 -0.0175  0.0261
  144OSM   H11S15829   4.223   4.346   7.721  0.3298  0.9975 -0.8524
  144OSM   H11T15830   4.051   4.275   7.693 -0.7646  0.2701  1.6212
  144OSM   C12S15831   4.064   4.447   7.819  0.5643  0.5138  0.0319
  144OSM   H12S15832   3.968   4.497   7.792 -1.4087 -1.6716  2.4667
  144OSM   H12T15833   4.145   4.522   7.833 -1.1167  2.0985  1.9155
  144OSM   C13S15834   4.041   4.367   7.944 -0.1484 -0.1705 -0.8018
  144OSM   H13S15835   4.124   4.294   7.954 -0.8628 -0.6936  2.4054
  144OSM   H13T15836   3.939   4.322   7.936 -0.6198  0.9538 -1.3381
  144OSM   C14S15837   4.031   4.466   8.064 -0.2498  0.7254 -0.6767
  144OSM   H14S15838   3.933   4.519   8.053 -0.6314 -0.1512 -1.5771
  144OSM   H14T15839   4.124   4.525   8.049  1.3320 -1.8013 -1.2498
  144OSM   C15S15840   4.039   4.390   8.199 -0.7840  0.0735  0.0326
  144OSM   H15S15841   4.139   4.343   8.201 -0.7094  0.2513  0.9835
  144OSM   H15T15842   3.971   4.303   8.209 -0.3265 -0.4157 -1.0157
  144OSM   C16S15843   4.042   4.495   8.311  0.0820 -0.4880 -0.2290
  144OSM   H16S15844   3.939   4.537   8.310 -0.3041 -1.0955 -4.3115
  144OSM   H16T15845   4.108   4.579   8.281  0.6320 -1.2513 -1.2232
  144OSM   C17S15846   4.093   4.437   8.441 -0.1370 -0.2446  0.0070
  144OSM   H17S15847   4.185   4.379   8.421  1.4244  1.4633  1.7966
  144OSM   H17T15848   4.019   4.369   8.488  1.1461 -1.0264  0.9126
  144OSM   C18S15849   4.132   4.542   8.548  0.7389  0.0783 -0.0060
  144OSM   H18S15850   4.040   4.594   8.582  0.7599 -0.1680  0.4275
  144OSM   H18T15851   4.205   4.616   8.509  0.2805  0.3484 -0.3647
  144OSM   H18U15852   4.175   4.493   8.637  1.6361 -0.0115 -0.4792
  144OSM    C1F15853   4.012   3.876   6.931 -0.1513 -0.0205 -0.4620
  144OSM     OF15854   4.095   3.796   6.893  0.2784 -0.3870  0.0884
  144OSM    C2F15855   3.916   3.850   7.041  0.8177 -0.0532  0.0343
  144OSM    H2F15856   3.814   3.836   6.999  0.4070  1.9302  0.2570
  144OSM    H2G15857   3.927   3.938   7.108  2.9346 -0.0751 -0.2117
  144OSM    C3F15858   3.944   3.718   7.110  0.5359 -0.1959 -0.9571
  144OSM    H3F15859   4.053   3.710   7.128  0.4989  1.0521 -0.0573
  144OSM    H3G15860   3.925   3.628   7.048 -0.9223 -1.1499  0.7774
  144OSM    C4F15861   3.869   3.710   7.247  0.1995  0.1432 -0.5680
  144OSM    H4F15862   3.897   3.617   7.300 -1.5763 -0.6061 -0.8692
  144OSM    H4G15863   3.763   3.701   7.215 -0.3025  0.8404  0.8131
  144OSM    C5F15864   3.907   3.825   7.347 -0.4799  0.4210  0.0271
  144OSM    H5F15865   3.839   3.909   7.321  0.7955  1.3944 -0.2435
  144OSM    H5G15866   4.013   3.854   7.329  0.1817 -2.2289 -0.7721
  144OSM    C6F15867   3.885   3.785   7.494 -0.3797 -0.4667 -0.4348
  144OSM    H6F15868   3.962   3.707   7.513  0.7535  0.7884  0.3356
  144OSM    H6G15869   3.782   3.745   7.501 -1.3373  1.9170 -0.1292
  144OSM    C7F15870   3.897   3.903   7.590 -0.8083 -0.7722  0.0203
  144OSM    H7F15871   3.820   3.979   7.567  0.3967  0.6680  0.5903
  144OSM    H7G15872   3.997   3.945   7.567 -0.1338 -1.7111  1.1440
  144OSM    C8F15873   3.900   3.861   7.739  0.3878 -0.4449 -0.5034
  144OSM    H8F15874   3.965   3.771   7.748 -0.0202 -0.6940 -0.0030
  144OSM    H8G15875   3.800   3.820   7.766  0.0483  0.5739 -0.1678
  144OSM    C9F15876   3.948   3.979   7.818  0.0308  0.3818 -0.5172
  144OSM    H9F15877   4.039   4.032   7.788 -1.3518  2.1668 -1.7699
  144OSM   C10F15878   3.897   4.019   7.936  0.4126 -0.5818  0.3392
  144OSM   H10F15879   3.947   4.104   7.986  1.1459 -1.7904  1.7190
  144OSM   C11F15880   3.776   3.954   8.005 -0.2123 -1.1581 -0.2024
  144OSM   H11F15881   3.787   3.846   8.028  2.1705 -0.8934  0.0871
  144OSM   H11G15882   3.689   3.963   7.936 -1.4528 -2.3035  1.1348
  144OSM   C12F15883   3.723   4.020   8.133 -0.1284  0.1108 -0.1683
  144OSM   H12F15884   3.620   3.989   8.163 -0.9000  2.7452  0.1330
  144OSM   H12G15885   3.708   4.128   8.113  0.1041 -0.0418 -1.2134
  144OSM   C13F15886   3.817   3.992   8.252  0.6985  0.4847 -0.3111
  144OSM   H13F15887   3.923   4.000   8.220  0.7635 -0.7112 -0.4437
  144OSM   H13G15888   3.796   3.887   8.281  0.8738  0.4763 -0.2119
  144OSM   C14F15889   3.778   4.083   8.369  0.1095 -0.2300  0.5639
  144OSM   H14F15890   3.670   4.082   8.396  0.5612 -0.5076  2.5860
  144OSM   H14G15891   3.801   4.186   8.335 -0.9537 -1.0210 -2.9089
  144OSM   C15F15892   3.873   4.049   8.485  0.2951  0.1936 -0.2281
  144OSM   H15F15893   3.977   4.027   8.454  1.4716  1.0311  2.7615
  144OSM   H15G15894   3.836   3.959   8.538  1.6236 -0.3733 -0.2243
  144OSM   C16F15895   3.866   4.165   8.593  0.8503  0.3114 -0.0643
  144OSM   H16F15896   3.762   4.158   8.632  1.2708 -0.6440  0.9351
  144OSM   H16G15897   3.881   4.266   8.550  1.8455  0.3395  0.3383
  144OSM   C17F15898   3.965   4.142   8.708 -0.9145  0.1351  0.0678
  144OSM   H17F15899   3.939   4.044   8.752 -2.6671  0.0192 -1.1366
  144OSM   H17G15900   3.945   4.217   8.789 -1.7401  0.4328 -0.3979
  144OSM   C18F15901   4.113   4.158   8.669  0.1101  0.3214 -0.1919
  144OSM   H18F15902   4.163   4.120   8.761 -1.3150 -2.6797 -0.5260
  144OSM   H18G15903   4.131   4.267   8.659 -1.4348  0.5736 -0.5629
  144OSM   H18H15904   4.135   4.097   8.579 -0.9907 -2.3321  1.2278
  145SAPE     N15905   2.986   4.356  10.712 -0.4419  0.1657 -0.2047
  145SAPE   HN115906   3.034   4.430  10.767 -1.2935 -0.3859  1.3551
  145SAPE   HN215907   2.904   4.401  10.667 -1.2217 -0.8224  0.1747
  145SAPE   HN315908   2.949   4.286  10.779  0.4242  0.5310  0.6951
  145SAPE   C1215909   3.087   4.286  10.623  0.3651  0.4317 -0.5886
  145SAPE  H12A15910   3.157   4.357  10.576  3.1293 -1.5735  0.2632
  145SAPE  H12B15911   3.034   4.238  10.537  2.0598 -0.0779 -1.3832
  145SAPE   C1115912   3.167   4.172  10.698 -0.0902 -0.6018 -0.9483
  145SAPE  H11A15913   3.243   4.223  10.761  0.3212 -0.6730 -1.3797
  145SAPE  H11B15914   3.214   4.102  10.625  2.2844  1.3680 -1.4554
  145SAPE     P15915   3.094   3.981  10.858 -0.0727  0.1286  0.0175
  145SAPE   O1315916   3.210   3.909  10.799 -0.8540  0.8923 -0.1989
  145SAPE   O1415917   3.104   4.006  11.002  0.9127 -0.0978 -0.2114
  145SAPE   O1215918   3.072   4.111  10.785  0.0258  0.2980 -0.1249
  145SAPE   O1115919   2.970   3.887  10.828  0.7457  0.3420  0.2150
  145SAPE    C115920   2.872   3.927  10.732  0.1691 -0.5448 -0.0966
  145SAPE    HA15921   2.772   3.904  10.773 -0.7550  2.0960 -0.6737
  145SAPE    HB15922   2.862   4.036  10.712  0.4567 -0.4785  0.1255
  145SAPE    C215923   2.894   3.862  10.597  0.0831  0.1922 -0.1680
  145SAPE    HS15924   2.916   3.756  10.619 -0.3187  0.2465  0.5096
  145SAPE   O2115925   3.002   3.935  10.531  0.0196  0.2866  0.2861
  145SAPE   C2115926   3.059   3.853  10.438  0.6874  0.0810  0.2403
  145SAPE   O2215927   3.025   3.740  10.414 -0.0773  0.1878 -0.8746
  145SAPE   C2215928   3.170   3.925  10.361  0.1428 -0.5338 -0.0464
  145SAPE   H2R15929   3.146   4.031  10.383 -1.8508 -0.5504 -1.8506
  145SAPE   H2S15930   3.263   3.887  10.409 -0.1542  0.7479  1.6421
  145SAPE    C315931   2.762   3.859  10.514  0.0856  0.5536 -0.5032
  145SAPE    HX15932   2.689   3.809  10.582 -0.2701  0.0331 -1.2544
  145SAPE    HY15933   2.769   3.790  10.427 -0.8004  0.8115 -0.7903
  145SAPE   O3115934   2.721   3.998  10.487 -0.5582 -0.0046 -0.9535
  145SAPE   C3115935   2.744   4.037  10.365 -0.0082  0.3230 -0.2911
  145SAPE   O3215936   2.799   3.974  10.279 -0.1661 -0.2500 -0.2852
  145SAPE   C3215937   2.693   4.181  10.345 -0.0782  0.3232 -0.1223
  145SAPE   H2X15938   2.743   4.246  10.419  1.2619 -1.3444  0.5130
  145SAPE   H2Y15939   2.583   4.189  10.359 -0.2173 -1.2801 -0.1438
  145SAPE   C2315940   3.165   3.909  10.201 -0.5250 -0.4160 -0.0877
  145SAPE   H3R15941   3.196   4.007  10.159 -3.0778 -0.1953 -1.6268
  145SAPE   H3S15942   3.058   3.903  10.173 -0.4786  1.2701 -0.7254
  145SAPE   C2415943   3.238   3.794  10.127 -0.0269  0.4197  0.0668
  145SAPE   H4R15944   3.230   3.814  10.018 -0.7075  0.1038  0.0595
  145SAPE   H4S15945   3.193   3.695  10.150  2.1025 -0.8096 -0.7275
  145SAPE   C2515946   3.385   3.790  10.153  0.3965  0.4446  0.1022
  145SAPE   H5R15947   3.417   3.741  10.246  1.4485 -0.7174 -0.8383
  145SAPE   C2615948   3.486   3.834  10.073  0.0200 -0.3115 -0.6271
  145SAPE   H6R15949   3.590   3.816  10.103  0.1822  0.0148 -0.9950
  145SAPE   C2715950   3.461   3.920   9.949 -0.0662  0.7740  0.0663
  145SAPE   H7R15951   3.493   4.024   9.972  0.9270  0.1110  1.9325
  145SAPE   H7S15952   3.358   3.910   9.907  0.8678  0.3508 -2.2347
  145SAPE   C2815953   3.566   3.877   9.841 -0.5413  0.1299  0.1349
  145SAPE   H8R15954   3.670   3.856   9.872 -0.4395  0.8082  0.2691
  145SAPE   C2915955   3.549   3.897   9.706  0.1875 -0.3934  0.2212
  145SAPE   H9R15956   3.627   3.863   9.637 -0.8392  1.0166 -1.6904
  145SAPE  C21015957   3.422   3.938   9.638  0.2128  0.2232  0.1788
  145SAPE  H10R15958   3.428   4.033   9.581 -2.7112  0.8088  0.6785
  145SAPE  H10S15959   3.346   3.968   9.713  1.7630 -0.3653  2.0645
  145SAPE  C21115960   3.373   3.829   9.550  0.1229  1.2914 -0.0769
  145SAPE  H11R15961   3.322   3.745   9.600 -0.5301  2.0658  0.5956
  145SAPE  C21215962   3.389   3.813   9.416 -0.1948 -0.2066  0.2113
  145SAPE  H12R15963   3.336   3.731   9.365 -0.2533 -0.9463  1.4441
  145SAPE  C21315964   3.455   3.915   9.329 -0.6949 -0.2477  0.0346
  145SAPE  H13R15965   3.538   3.859   9.281 -0.6850  0.9046 -1.3358
  145SAPE  H13S15966   3.503   3.999   9.385  1.3821 -0.3507 -1.4798
  145SAPE  C21415967   3.359   3.968   9.228  0.5229 -1.1075  0.0536
  145SAPE  H14R15968   3.254   3.934   9.235  0.4663 -1.1140 -0.7341
  145SAPE  C21515969   3.391   4.045   9.119 -0.1222  0.6619 -0.2079
  145SAPE  H15R15970   3.314   4.075   9.047  0.0553  1.6799  0.0044
  145SAPE  C21615971   3.531   4.074   9.074  0.4801 -0.7819 -0.8427
  145SAPE  H16R15972   3.589   4.061   9.168 -2.6481 -1.2785  1.1487
  145SAPE  H16S15973   3.550   4.183   9.058  0.1731 -0.5388  0.3188
  145SAPE  C21715974   3.587   3.993   8.960  0.2019  0.4243  0.5944
  145SAPE  H17R15975   3.563   3.885   8.971 -3.6988  1.0133 -0.5072
  145SAPE  H17S15976   3.697   4.008   8.963  0.3570 -0.2880 -0.8663
  145SAPE  C21815977   3.539   4.024   8.815  0.6125 -0.4509  0.6558
  145SAPE  H18R15978   3.603   3.966   8.745  0.6796 -0.1853  0.5005
  145SAPE  H18S15979   3.560   4.132   8.803 -0.3894 -0.3030  0.1264
  145SAPE  C21915980   3.391   3.986   8.797 -0.1736  0.5537  0.2641
  145SAPE  H19R15981   3.338   4.071   8.845 -0.9909 -0.7651  1.8146
  145SAPE  H19S15982   3.360   3.899   8.859 -0.5162  0.8451  0.5082
  145SAPE  C22015983   3.353   3.978   8.652 -0.2127  0.2783 -0.6757
  145SAPE  H20R15984   3.341   3.868   8.637 -0.7590  0.3167 -0.5656
  145SAPE  H20S15985   3.435   3.998   8.580  1.4840 -0.0969  1.0536
  145SAPE  H20T15986   3.261   4.033   8.624 -1.7838 -1.1704  1.2671
  145SAPE   C3315987   2.708   4.242  10.203 -0.0886  0.0060 -0.3003
  145SAPE   H3X15988   2.654   4.181  10.127 -1.3056  1.1703 -0.4030
  145SAPE   H3Y15989   2.815   4.240  10.174 -0.1592 -1.0120 -0.5623
  145SAPE   C3415990   2.656   4.388  10.212  0.4836  0.1922  0.3203
  145SAPE   H4X15991   2.693   4.442  10.302 -0.5599  1.6205 -0.0752
  145SAPE   H4Y15992   2.547   4.378  10.228  0.5087 -0.2755  0.2166
  145SAPE   C3515993   2.690   4.479  10.093 -0.4697  0.2450 -0.6429
  145SAPE   H5X15994   2.795   4.515  10.104  0.3790 -2.7095  2.7846
  145SAPE   H5Y15995   2.618   4.563  10.096 -1.7085 -0.8033  0.8136
  145SAPE   C3615996   2.664   4.411   9.964  0.1838 -0.5582 -0.4589
  145SAPE   H6X15997   2.554   4.394   9.955 -0.2583  1.3965  0.6980
  145SAPE   H6Y15998   2.726   4.319   9.961  0.4639 -0.4152  0.5740
  145SAPE   C3715999   2.709   4.493   9.840  0.3661 -0.4376  0.5491
  145SAPE   H7X16000   2.814   4.529   9.845 -0.3906  2.1616 -0.4431
  145SAPE   H7Y16001   2.639   4.578   9.823 -1.8649 -2.5615 -1.6804
  145SAPE   C3816002   2.712   4.408   9.710  0.1083  0.4688 -0.3034
  145SAPE   H8X16003   2.619   4.356   9.679  0.0930  0.8976 -0.9815
  145SAPE   H8Y16004   2.777   4.318   9.714  0.5249  0.6511 -2.2245
  145SAPE   C3916005   2.761   4.487   9.589  0.1315  0.0159 -0.2693
  145SAPE   H9X16006   2.871   4.505   9.585  0.1948 -0.1338  0.6302
  145SAPE   H9Y16007   2.701   4.580   9.583 -1.2775 -0.9248 -1.1890
  145SAPE  C31016008   2.714   4.411   9.462  0.0977  0.6642  0.1638
  145SAPE  H10X16009   2.604   4.416   9.445  0.4599  0.0720 -2.9404
  145SAPE  H10Y16010   2.745   4.304   9.462 -1.6630  0.1198 -0.8492
  145SAPE  C31116011   2.773   4.466   9.331  0.5537 -0.1142  0.4120
  145SAPE  H11X16012   2.884   4.464   9.328  0.5580  0.0307  0.4399
  145SAPE  H11Y16013   2.745   4.571   9.308 -1.3787 -0.9788 -1.6285
  145SAPE  C31216014   2.730   4.388   9.201 -0.2157  0.1467 -0.2361
  145SAPE  H12X16015   2.619   4.390   9.196 -0.3165  1.0288  1.6435
  145SAPE  H12Y16016   2.764   4.283   9.214  0.8605  0.3384 -1.3056
  145SAPE  C31316017   2.794   4.463   9.080 -0.0083 -0.5203 -0.3122
  145SAPE  H13X16018   2.903   4.446   9.087 -0.0229 -0.6095 -0.2916
  145SAPE  H13Y16019   2.787   4.573   9.092 -0.1394 -0.2569 -2.4444
  145SAPE  C31416020   2.736   4.417   8.948  0.8843 -0.3444 -0.4890
  145SAPE  H14X16021   2.626   4.424   8.958  0.7870 -0.4030 -1.4023
  145SAPE  H14Y16022   2.780   4.318   8.922  0.8524 -0.1975 -1.1320
  145SAPE  C31516023   2.763   4.499   8.821 -0.3415 -0.0199 -0.6170
  145SAPE  H15X16024   2.722   4.441   8.735 -1.3278 -1.5302  0.8280
  145SAPE  H15Y16025   2.870   4.528   8.821 -1.3206  4.5860  2.0628
  145SAPE  C31616026   2.690   4.639   8.843 -0.2592 -0.1960  0.5917
  145SAPE  H16X16027   2.740   4.687   8.930  0.9908  0.2896 -0.3661
  145SAPE  H16Y16028   2.581   4.627   8.861 -0.4435 -2.0905 -1.4038
  145SAPE  C31716029   2.712   4.738   8.719  0.2835 -0.3326 -0.6462
  145SAPE  H17X16030   2.656   4.825   8.759  1.7808 -0.1094  1.1690
  145SAPE  H17Y16031   2.673   4.695   8.625  1.3015  0.2872 -1.3719
  145SAPE  C31816032   2.858   4.755   8.694  0.0077 -0.0198 -0.3664
  145SAPE  H18X16033   2.910   4.771   8.791 -0.3074  0.1323 -0.2200
  145SAPE  H18Y16034   2.876   4.843   8.629  1.7239  1.4508  1.9398
  145SAPE  H18Z16035   2.892   4.659   8.650  0.3295 -0.2301  0.3142
  146SAPE     N16036   5.571   5.268  10.948 -0.0038 -0.2121 -0.0424
  146SAPE   HN116037   5.616   5.304  10.861 -1.1031 -2.3285 -1.5837
  146SAPE   HN216038   5.493   5.335  10.961  0.1224 -0.1027  0.1453
  146SAPE   HN316039   5.634   5.279  11.029 -1.0187 -4.0597  1.4708
  146SAPE   C1216040   5.540   5.122  10.929  0.3032 -0.1931 -0.3790
  146SAPE  H12A16041   5.482   5.092  11.020 -0.3441  0.9846 -0.3890
  146SAPE  H12B16042   5.631   5.059  10.931  1.2628  1.1073  2.5110
  146SAPE   C1116043   5.446   5.102  10.813  0.4299 -0.0054 -0.2110
  146SAPE  H11A16044   5.408   4.998  10.817  0.7540 -0.0875  1.8570
  146SAPE  H11B16045   5.485   5.109  10.710 -2.8649  1.1401 -1.5190
  146SAPE     P16046   5.280   5.266  10.714  0.5948  0.1167 -0.1569
  146SAPE   O1316047   5.263   5.176  10.601 -0.7299  0.6714 -0.1191
  146SAPE   O1416048   5.159   5.337  10.755 -0.5790  0.0060 -0.2369
  146SAPE   O1216049   5.329   5.188  10.834 -0.5217  0.3828 -0.2611
  146SAPE   O1116050   5.391   5.378  10.693 -0.2753  0.3995 -0.3584
  146SAPE    C116051   5.426   5.396  10.553  0.4296 -0.5786 -0.1062
  146SAPE    HA16052   5.491   5.312  10.520 -0.7094 -2.9105  3.0770
  146SAPE    HB16053   5.332   5.410  10.496  0.4067  1.2992  0.3088
  146SAPE    C216054   5.492   5.530  10.514 -0.9979  0.1307 -0.1306
  146SAPE    HS16055   5.425   5.604  10.562 -0.7751 -0.4481  1.1198
  146SAPE   O2116056   5.505   5.522  10.366 -0.1669 -0.7454 -0.2990
  146SAPE   C2116057   5.503   5.641  10.316 -0.1315  0.0752  0.5935
  146SAPE   O2216058   5.489   5.746  10.378 -0.0270 -0.1541  0.4061
  146SAPE   C2216059   5.516   5.637  10.162  0.2168  0.7028  0.7521
  146SAPE   H2R16060   5.572   5.544  10.137 -2.1709 -0.8409  0.8156
  146SAPE   H2S16061   5.410   5.619  10.136 -0.3756 -0.3480  3.5298
  146SAPE    C316062   5.632   5.557  10.582 -0.3694 -1.0219 -0.0640
  146SAPE    HX16063   5.621   5.575  10.691  1.0905  0.4139 -0.1174
  146SAPE    HY16064   5.652   5.661  10.547  2.2853 -0.8384  1.6770
  146SAPE   O3116065   5.746   5.472  10.553  0.3024 -0.4199 -0.3493
  146SAPE   C3116066   5.791   5.389  10.646 -0.3798 -0.0393 -0.8155
  146SAPE   O3216067   5.727   5.354  10.746  0.0929 -0.0919  0.2141
  146SAPE   C3216068   5.936   5.344  10.619  0.2669  0.1529  0.3860
  146SAPE   H2X16069   5.987   5.316  10.713  1.2196  0.3840 -0.0547
  146SAPE   H2Y16070   5.999   5.430  10.586  1.1044 -0.3960  0.5370
  146SAPE   C2316071   5.596   5.756  10.105 -0.2187  0.2392 -0.4821
  146SAPE   H3R16072   5.692   5.744  10.159 -0.7779  0.7671  0.6705
  146SAPE   H3S16073   5.564   5.855  10.144  0.0573  0.0491  0.2467
  146SAPE   C2416074   5.607   5.743   9.953  0.1783  0.0633 -0.5337
  146SAPE   H4R16075   5.648   5.641   9.939  1.6210 -0.0163  3.3250
  146SAPE   H4S16076   5.661   5.829   9.909  0.1865 -0.1388 -0.9328
  146SAPE   C2516077   5.471   5.745   9.881  0.1953  0.3267  0.2717
  146SAPE   H5R16078   5.389   5.784   9.942 -0.1107 -2.3841  1.7133
  146SAPE   C2616079   5.458   5.703   9.757 -0.3339  1.0159 -0.0312
  146SAPE   H6R16080   5.364   5.729   9.706  0.2088 -0.2114 -1.7353
  146SAPE   C2716081   5.558   5.644   9.666  0.1692 -0.0895  0.6551
  146SAPE   H7R16082   5.516   5.553   9.617  1.2996  0.0574 -0.6579
  146SAPE   H7S16083   5.644   5.602   9.721 -0.6921 -2.5331  0.2800
  146SAPE   C2816084   5.612   5.758   9.578  0.1145 -0.4723 -0.2553
  146SAPE   H8R16085   5.704   5.809   9.612 -1.1609  2.0693 -0.4241
  146SAPE   C2916086   5.553   5.806   9.466 -0.0779  0.5012  0.1200
  146SAPE   H9R16087   5.603   5.892   9.420  0.6656  0.9636  1.7294
  146SAPE  C21016088   5.421   5.763   9.402 -0.3146 -0.4748  0.0320
  146SAPE  H10R16089   5.392   5.846   9.334  1.8544 -0.3618 -0.8466
  146SAPE  H10S16090   5.347   5.759   9.485 -0.1106  1.1264  0.3202
  146SAPE  C21116091   5.434   5.634   9.323 -0.6187  0.5536 -0.2057
  146SAPE  H11R16092   5.436   5.541   9.382  1.7934 -0.6776 -2.0267
  146SAPE  C21216093   5.468   5.624   9.192 -0.3283  0.5040 -0.2432
  146SAPE  H12R16094   5.488   5.525   9.148 -1.0040  0.9110 -1.5183
  146SAPE  C21316095   5.484   5.736   9.094  1.1489 -0.4782  0.5410
  146SAPE  H13R16096   5.570   5.734   9.025  1.2988  0.1526  0.7033
  146SAPE  H13S16097   5.505   5.827   9.155  3.1295  0.4946 -1.4525
  146SAPE  C21416098   5.353   5.752   9.013 -0.7044  0.3333  0.1532
  146SAPE  H14R16099   5.257   5.729   9.060 -0.8134  1.4712  0.5075
  146SAPE  C21516100   5.347   5.791   8.886  0.0640  0.2680  0.6199
  146SAPE  H15R16101   5.249   5.819   8.846  0.1835  2.5636  1.7891
  146SAPE  C21616102   5.462   5.827   8.805 -0.5577  0.2180 -0.0298
  146SAPE  H16R16103   5.548   5.845   8.873 -0.5931  0.3395 -0.0170
  146SAPE  H16S16104   5.442   5.918   8.745 -0.5534  0.8349  0.8760
  146SAPE  C21716105   5.481   5.712   8.702 -0.1818  0.1741 -0.4642
  146SAPE  H17R16106   5.514   5.622   8.758  1.8127  0.6328 -0.8126
  146SAPE  H17S16107   5.561   5.745   8.632 -1.1810 -1.2440 -2.3689
  146SAPE  C21816108   5.365   5.685   8.604  0.0198 -0.0108 -0.0415
  146SAPE  H18R16109   5.317   5.778   8.567 -0.3868 -0.5087 -0.8026
  146SAPE  H18S16110   5.283   5.624   8.649  0.2049 -0.7767 -0.7220
  146SAPE  C21916111   5.402   5.604   8.476 -0.4763  0.0590 -0.4515
  146SAPE  H19R16112   5.431   5.500   8.500 -0.2108  0.1416 -0.4098
  146SAPE  H19S16113   5.493   5.657   8.440 -0.9337  0.5705 -0.8694
  146SAPE  C22016114   5.294   5.613   8.368  0.1474 -0.0167  0.0480
  146SAPE  H20R16115   5.202   5.561   8.401  0.7718 -1.4923 -0.4422
  146SAPE  H20S16116   5.325   5.575   8.269 -1.3278  0.2249 -0.5302
  146SAPE  H20T16117   5.266   5.718   8.344  0.0441 -0.3597 -1.4552
  146SAPE   C3316118   5.945   5.219  10.526 -0.4215 -0.2835 -0.1821
  146SAPE   H3X16119   5.912   5.130  10.584  0.0905  0.5337  1.4217
  146SAPE   H3Y16120   6.054   5.204  10.510 -0.1656  0.5472  0.7012
  146SAPE   C3416121   5.870   5.217  10.394 -0.0710 -0.2393 -0.4997
  146SAPE   H4X16122   5.774   5.273  10.406  0.2040 -0.1963  2.0057
  146SAPE   H4Y16123   5.858   5.110  10.370 -0.3338 -0.6237  1.1872
  146SAPE   C3516124   5.952   5.282  10.287 -0.0903  0.1404 -0.6514
  146SAPE   H5X16125   6.056   5.244  10.287 -0.1596 -0.1285  1.4423
  146SAPE   H5Y16126   5.944   5.391  10.308  0.3120 -0.1274  1.0232
  146SAPE   C3616127   5.901   5.254  10.149 -0.0471 -0.0119 -0.7065
  146SAPE   H6X16128   5.804   5.303  10.127 -0.3004 -0.5284 -0.7624
  146SAPE   H6Y16129   5.895   5.143  10.147  2.3816 -0.2137  0.0937
  146SAPE   C3716130   5.992   5.309  10.036  0.2113  0.4412 -0.4933
  146SAPE   H7X16131   6.083   5.246  10.030  0.9389  1.4725 -0.4759
  146SAPE   H7Y16132   6.008   5.416  10.061 -2.4820  0.8211 -0.0934
  146SAPE   C3816133   5.915   5.306   9.905 -0.7972 -0.2683 -0.3632
  146SAPE   H8X16134   5.811   5.345   9.914 -0.7076 -0.4424  2.1370
  146SAPE   H8Y16135   5.904   5.210   9.852  0.3488  0.7268 -2.5308
  146SAPE   C3916136   5.991   5.399   9.797 -0.3101  0.0337 -0.6482
  146SAPE   H9X16137   6.090   5.351   9.782 -0.5377 -0.0190 -2.0957
  146SAPE   H9Y16138   5.998   5.502   9.839 -1.5044  0.0137 -0.3820
  146SAPE  C31016139   5.926   5.421   9.651 -0.6512 -0.2268 -0.3699
  146SAPE  H10X16140   5.821   5.447   9.677 -0.3041  0.4946  0.3765
  146SAPE  H10Y16141   5.930   5.328   9.591 -1.6344  1.7078 -3.6756
  146SAPE  C31116142   5.977   5.536   9.563  0.1992  0.0110 -0.5040
  146SAPE  H11X16143   6.081   5.516   9.529  0.4566  0.0949  0.2169
  146SAPE  H11Y16144   5.966   5.627   9.626  3.2215  0.6436 -0.7374
  146SAPE  C31216145   5.880   5.570   9.450  0.1803 -0.0783  0.0129
  146SAPE  H12X16146   5.904   5.673   9.416 -1.0110  0.3578  0.4136
  146SAPE  H12Y16147   5.776   5.566   9.489  0.3326  0.0990  0.4447
  146SAPE  C31316148   5.889   5.468   9.337 -0.8175  0.0907  0.0291
  146SAPE  H13X16149   5.855   5.369   9.373  0.8636  0.0272  1.5739
  146SAPE  H13Y16150   5.997   5.460   9.311 -0.9808  0.1573 -0.6935
  146SAPE  C31416151   5.811   5.493   9.212 -0.7438  0.2020 -0.6457
  146SAPE  H14X16152   5.835   5.598   9.186  0.8983 -0.2273 -0.9787
  146SAPE  H14Y16153   5.703   5.491   9.237 -0.5718  0.9035  0.1894
  146SAPE  C31516154   5.837   5.394   9.094 -0.0605 -0.2878 -0.3490
  146SAPE  H15X16155   5.740   5.339   9.097 -0.8022  0.9180  3.0965
  146SAPE  H15Y16156   5.918   5.329   9.133 -0.3193  0.6798  1.9973
  146SAPE  C31616157   5.866   5.458   8.959  0.2761 -0.3779  0.6113
  146SAPE  H16X16158   5.800   5.547   8.965  0.4673 -0.1912  0.0661
  146SAPE  H16Y16159   5.828   5.396   8.875  0.8151 -0.9857  0.8193
  146SAPE  C31716160   6.012   5.504   8.946  0.1460  0.1563  0.0174
  146SAPE  H17X16161   6.039   5.518   9.053 -0.7113  1.0168  0.1364
  146SAPE  H17Y16162   6.023   5.604   8.899 -3.2655  1.5185  1.7553
  146SAPE  C31816163   6.111   5.396   8.888  0.0709  0.0186 -0.0589
  146SAPE  H18X16164   6.219   5.425   8.891  0.3745 -0.4615 -3.0943
  146SAPE  H18Y16165   6.071   5.365   8.790 -0.1962 -1.8638  0.6180
  146SAPE  H18Z16166   6.101   5.298   8.938 -0.5283 -0.6494 -1.4598
  147SAPE     N16167   4.477   2.384  11.266 -1.1995 -0.4367 -0.3873
  147SAPE   HN116168   4.406   2.460  11.263  0.1953  0.8840 -0.7368
  147SAPE   HN216169   4.456   2.306  11.201 -1.5733 -0.9535  0.3376
  147SAPE   HN316170   4.477   2.341  11.361  0.5697  1.5914  0.6077
  147SAPE   C1216171   4.609   2.457  11.247 -0.2079 -0.0439  0.5403
  147SAPE  H12A16172   4.636   2.445  11.140 -0.2454 -2.7661  0.7602
  147SAPE  H12B16173   4.688   2.410  11.310 -1.5585 -1.2293  1.4171
  147SAPE   C1116174   4.619   2.610  11.274 -0.0403  0.2877  0.6751
  147SAPE  H11A16175   4.722   2.652  11.265  0.0328 -0.0594 -0.2976
  147SAPE  H11B16176   4.604   2.617  11.383 -0.3146  0.2569  0.6391
  147SAPE     P16177   4.551   2.748  11.055  0.0818  0.4454  0.3463
  147SAPE   O1316178   4.423   2.793  11.001  0.4792 -0.0734  0.6957
  147SAPE   O1416179   4.669   2.840  11.056  0.3188 -0.0029 -0.0454
  147SAPE   O1216180   4.524   2.681  11.199  0.4697  0.1399 -0.2795
  147SAPE   O1116181   4.594   2.620  10.973  0.6270 -0.3375  0.0246
  147SAPE    C116182   4.520   2.551  10.878 -0.3729 -0.2207  0.0482
  147SAPE    HA16183   4.421   2.523  10.919 -0.4790  0.1605  0.0530
  147SAPE    HB16184   4.504   2.611  10.786 -0.4170 -3.8098 -2.4777
  147SAPE    C216185   4.590   2.420  10.824 -0.5659  0.7271 -0.3817
  147SAPE    HS16186   4.635   2.376  10.916 -1.7751 -0.1714 -0.1990
  147SAPE   O2116187   4.689   2.457  10.724  0.3895  0.3802 -0.0324
  147SAPE   C2116188   4.803   2.389  10.705  0.3582  0.3313 -0.1200
  147SAPE   O2216189   4.835   2.290  10.769  0.3082  0.0746  0.2422
  147SAPE   C2216190   4.881   2.453  10.595 -0.3209  0.2288 -0.1154
  147SAPE   H2R16191   4.883   2.563  10.614 -0.1508  0.2177 -0.0623
  147SAPE   H2S16192   4.981   2.403  10.594 -0.7799 -0.7847 -2.2389
  147SAPE    C316193   4.481   2.328  10.759 -0.0494 -0.2033  0.2621
  147SAPE    HX16194   4.419   2.277  10.835 -1.8629  1.6977  0.1435
  147SAPE    HY16195   4.532   2.251  10.697  1.1511 -0.6111  1.7186
  147SAPE   O3116196   4.385   2.411  10.686  0.3126  0.2717  0.1983
  147SAPE   C3116197   4.312   2.338  10.600 -0.2276 -0.4203  0.4053
  147SAPE   O3216198   4.335   2.221  10.570 -0.4296 -0.1678 -0.1322
  147SAPE   C3216199   4.206   2.435  10.534 -0.0875 -0.1049 -0.9449
  147SAPE   H2X16200   4.171   2.500  10.617  0.1777 -2.1664  0.8717
  147SAPE   H2Y16201   4.124   2.370  10.497  0.3289 -0.6807 -0.8816
  147SAPE   C2316202   4.823   2.431  10.453  0.3868 -0.2551  0.3976
  147SAPE   H3R16203   4.730   2.488  10.436  0.3746 -0.8444 -1.8799
  147SAPE   H3S16204   4.790   2.325  10.441  1.1249 -0.2476 -2.4298
  147SAPE   C2416205   4.924   2.467  10.343  0.3826 -0.3119  0.2375
  147SAPE   H4R16206   5.021   2.416  10.361  0.9597  0.4632 -0.5844
  147SAPE   H4S16207   4.957   2.574  10.345 -0.0811 -0.1755  1.0735
  147SAPE   C2516208   4.886   2.416  10.200 -0.4131  1.0887  0.2064
  147SAPE   H5R16209   4.816   2.332  10.193 -0.1146  0.8242  0.3554
  147SAPE   C2616210   4.918   2.473  10.084 -0.3251 -0.4045  0.7759
  147SAPE   H6R16211   4.904   2.418   9.990  0.4113  2.1204 -0.9173
  147SAPE   C2716212   5.001   2.601  10.069 -0.2571  0.4747  0.6475
  147SAPE   H7R16213   5.058   2.602   9.973 -0.8307 -0.5500  0.2805
  147SAPE   H7S16214   5.090   2.596  10.135  0.1269 -1.5695  0.0303
  147SAPE   C2816215   4.924   2.731  10.084  0.1898 -0.1265  0.9812
  147SAPE   H8R16216   4.917   2.755  10.191 -0.5306 -0.0792  0.9263
  147SAPE   C2916217   4.856   2.800   9.988  0.1732 -0.3699 -0.3395
  147SAPE   H9R16218   4.792   2.882  10.024  1.7833 -0.0769  2.1627
  147SAPE  C21016219   4.848   2.775   9.845 -0.1597 -0.6636 -0.0648
  147SAPE  H10R16220   4.745   2.799   9.810  0.8737  2.3797 -1.3548
  147SAPE  H10S16221   4.860   2.665   9.836  0.5674 -0.7983  1.9284
  147SAPE  C21116222   4.944   2.830   9.741  0.2337 -0.1676  0.0922
  147SAPE  H11R16223   5.013   2.908   9.776 -0.2156  0.8566 -1.1871
  147SAPE  C21216224   4.954   2.795   9.611  0.2653  0.3114 -0.0853
  147SAPE  H12R16225   5.022   2.851   9.545 -0.3002  2.9880  1.4154
  147SAPE  C21316226   4.877   2.684   9.545  0.1934  0.2182  0.1044
  147SAPE  H13R16227   4.776   2.723   9.521 -0.5595 -2.1520 -0.8684
  147SAPE  H13S16228   4.845   2.604   9.616 -2.4148  0.4891 -0.6674
  147SAPE  C21416229   4.955   2.616   9.433 -0.0287  0.2919  0.1098
  147SAPE  H14R16230   5.003   2.525   9.470 -0.3457 -0.3283 -0.9368
  147SAPE  C21516231   4.952   2.650   9.302 -0.1524  0.6367  0.0260
  147SAPE  H15R16232   5.009   2.592   9.228  1.4190  1.2146  0.7371
  147SAPE  C21616233   4.883   2.769   9.238 -0.1588  0.2219 -1.0284
  147SAPE  H16R16234   4.859   2.843   9.317 -1.4008  3.9428 -4.5275
  147SAPE  H16S16235   4.786   2.739   9.194 -0.7739  0.7264 -0.0388
  147SAPE  C21716236   4.954   2.856   9.137 -0.7361  0.0389  0.5761
  147SAPE  H17R16237   5.060   2.870   9.168 -0.1338 -1.3777 -0.7223
  147SAPE  H17S16238   4.901   2.952   9.124 -2.6736 -0.9534  0.7550
  147SAPE  C21816239   4.944   2.809   8.987  0.4745  0.0931  0.8507
  147SAPE  H18R16240   4.839   2.791   8.956  0.3054 -2.0538  2.4690
  147SAPE  H18S16241   4.995   2.710   8.985  1.0825  0.4014  0.6765
  147SAPE  C21916242   5.022   2.893   8.893 -0.6168 -0.2902 -0.1248
  147SAPE  H19R16243   5.130   2.869   8.905 -0.2985 -0.9529 -3.3538
  147SAPE  H19S16244   5.018   3.002   8.911 -0.6309 -0.0696 -1.3430
  147SAPE  C22016245   4.979   2.875   8.747  0.3609 -0.2642 -0.4098
  147SAPE  H20R16246   4.999   2.959   8.677 -3.0361  0.9476 -0.1595
  147SAPE  H20S16247   4.868   2.866   8.755  0.2168 -0.3161 -2.0976
  147SAPE  H20T16248   5.008   2.776   8.706  0.3631 -2.6106  4.5199
  147SAPE   C3316249   4.255   2.516  10.419  0.1948  0.8736  0.0337
  147SAPE   H3X16250   4.283   2.437  10.347 -2.4421 -0.4721  0.3614
  147SAPE   H3Y16251   4.332   2.595  10.436  0.9844  0.5547 -1.8371
  147SAPE   C3416252   4.146   2.590  10.341  0.1904 -0.3508 -0.1774
  147SAPE   H4X16253   4.194   2.650  10.261  0.5563 -0.1324  0.1953
  147SAPE   H4Y16254   4.111   2.674  10.405  0.6779 -0.2047 -0.0945
  147SAPE   C3516255   4.034   2.503  10.285 -0.0915  0.5449 -0.6489
  147SAPE   H5X16256   3.972   2.485  10.375  2.4848  0.4329  1.2119
  147SAPE   H5Y16257   4.073   2.408  10.242 -0.5352 -0.1522  0.4581
  147SAPE   C3616258   3.938   2.562  10.182 -1.0171  0.2164  0.4584
  147SAPE   H6X16259   3.898   2.661  10.210  2.4540  1.7087  0.7150
  147SAPE   H6Y16260   3.857   2.487  10.167 -0.3256  0.0155 -3.7296
  147SAPE   C3716261   3.988   2.565  10.041 -0.6623 -0.5185  0.4189
  147SAPE   H7X16262   4.087   2.615  10.037 -0.4639 -0.8418  1.0915
  147SAPE   H7Y16263   3.928   2.625   9.970 -0.2351 -2.2426 -1.4829
  147SAPE   C3816264   4.019   2.432   9.977  0.0474 -0.6769 -0.1931
  147SAPE   H8X16265   3.928   2.369   9.989  0.0720 -1.0678 -1.8296
  147SAPE   H8Y16266   4.108   2.383  10.021  2.2928  1.7164 -1.7550
  147SAPE   C3916267   4.028   2.459   9.820  0.0380  0.3469 -0.0132
  147SAPE   H9X16268   3.929   2.507   9.805 -0.7405 -1.3201 -0.4410
  147SAPE   H9Y16269   4.024   2.359   9.772  2.1124  0.5853 -0.7595
  147SAPE  C31016270   4.138   2.543   9.761  0.5033  0.3714 -0.4350
  147SAPE  H10X16271   4.225   2.497   9.813 -1.7890 -1.9274  1.6126
  147SAPE  H10Y16272   4.122   2.648   9.796  0.7758 -0.1359  1.3161
  147SAPE  C31116273   4.142   2.551   9.611 -0.0871 -0.2581  0.1991
  147SAPE  H11X16274   4.161   2.453   9.563 -0.3661  0.2889 -1.0921
  147SAPE  H11Y16275   4.222   2.623   9.583  0.7372 -1.4229 -0.5294
  147SAPE  C31216276   4.007   2.597   9.549  0.2746  0.1053  0.1303
  147SAPE  H12X16277   3.970   2.695   9.587 -2.0320  0.0179 -1.6988
  147SAPE  H12Y16278   3.935   2.514   9.565  1.6803 -1.1175  0.3784
  147SAPE  C31316279   4.025   2.595   9.396  0.2285 -0.4348  0.1072
  147SAPE  H13X16280   4.062   2.494   9.369  0.2975 -0.5433  0.5954
  147SAPE  H13Y16281   4.099   2.674   9.372  0.4421 -0.5675  0.3290
  147SAPE  C31416282   3.897   2.639   9.335  0.0391 -0.1097  0.7417
  147SAPE  H14X16283   3.856   2.717   9.402 -1.9416 -1.8790  1.6817
  147SAPE  H14Y16284   3.817   2.563   9.330 -0.2197  0.2275 -0.6297
  147SAPE  C31516285   3.918   2.698   9.189 -0.0983 -0.7063  0.4826
  147SAPE  H15X16286   3.973   2.794   9.187  0.2587 -0.9035  0.7092
  147SAPE  H15Y16287   3.821   2.712   9.137  0.2952 -1.6930 -0.5526
  147SAPE  C31616288   3.990   2.602   9.103 -0.2466  0.1564 -0.1141
  147SAPE  H16X16289   3.931   2.508   9.106 -0.8178  0.5273  2.3412
  147SAPE  H16Y16290   4.090   2.573   9.143 -0.9416 -1.1074  0.7935
  147SAPE  C31716291   4.012   2.650   8.970 -0.1300  0.0695 -0.2307
  147SAPE  H17X16292   4.105   2.606   8.929  0.4440 -1.0577  2.1418
  147SAPE  H17Y16293   4.037   2.759   8.973  1.7520 -0.2682 -1.6746
  147SAPE  C31816294   3.908   2.629   8.854 -0.7233  0.2237 -0.1572
  147SAPE  H18X16295   3.956   2.633   8.754  1.0477 -0.9914  0.5957
  147SAPE  H18Y16296   3.822   2.699   8.855 -0.2183  0.8587 -0.4872
  147SAPE  H18Z16297   3.859   2.530   8.866 -1.1169  0.4867  0.4741
  148SAPE     N16298   5.362   2.829  11.072  0.4676  0.0432  0.5167
  148SAPE   HN116299   5.431   2.754  11.052  0.1826  0.3183 -1.7940
  148SAPE   HN216300   5.405   2.881  11.151 -3.5401  0.6178  2.5964
  148SAPE   HN316301   5.271   2.793  11.107 -0.0713  0.2713 -0.5983
  148SAPE   C1216302   5.333   2.929  10.968 -0.1724  0.5907  0.7489
  148SAPE  H12A16303   5.427   2.983  10.943  0.2964 -1.1416 -1.6276
  148SAPE  H12B16304   5.259   3.002  11.007 -0.0501  0.3446  1.4523
  148SAPE   C1116305   5.280   2.876  10.835 -0.0315  0.4490  0.1210
  148SAPE  H11A16306   5.364   2.818  10.791 -0.0240  0.3127  0.3151
  148SAPE  H11B16307   5.257   2.960  10.766 -1.8587  0.9145  1.2357
  148SAPE     P16308   5.107   2.726  10.724  0.1110  0.2545  0.0443
  148SAPE   O1316309   5.166   2.794  10.602 -0.6056 -0.2898 -0.4343
  148SAPE   O1416310   5.130   2.577  10.740  0.3485  0.1800  0.1528
  148SAPE   O1216311   5.161   2.797  10.853 -0.7378 -0.1166  0.3717
  148SAPE   O1116312   4.953   2.755  10.740 -0.8948  0.1285  0.4831
  148SAPE    C116313   4.892   2.881  10.736 -0.0758 -0.4438 -0.1481
  148SAPE    HA16314   4.884   2.918  10.840 -0.6215 -0.8250 -0.0518
  148SAPE    HB16315   4.940   2.955  10.669 -1.7378  3.3495  2.5269
  148SAPE    C216316   4.739   2.870  10.683 -0.3767 -0.0385  0.3534
  148SAPE    HS16317   4.705   2.777  10.734  2.0029 -0.2399  1.7115
  148SAPE   O2116318   4.753   2.845  10.541  0.2596 -0.2389  0.4815
  148SAPE   C2116319   4.641   2.796  10.490  0.7814  1.0555  0.4819
  148SAPE   O2216320   4.541   2.769  10.557 -0.0179 -0.0274  0.7101
  148SAPE   C2216321   4.653   2.784  10.336  0.4657  0.1420  0.5204
  148SAPE   H2R16322   4.706   2.877  10.307  0.6334  0.8515  2.8878
  148SAPE   H2S16323   4.711   2.693  10.307 -1.8349 -0.6148 -2.2204
  148SAPE    C316324   4.656   2.994  10.719  0.5553  0.3452  0.5223
  148SAPE    HX16325   4.648   3.024  10.825 -0.7510  2.7641 -0.1793
  148SAPE    HY16326   4.552   2.962  10.698  0.6196 -1.3117  2.4281
  148SAPE   O3116327   4.704   3.111  10.648 -0.1407 -0.1313 -0.4510
  148SAPE   C3116328   4.631   3.141  10.536  0.2268 -0.0433  0.2077
  148SAPE   O3216329   4.528   3.089  10.500 -0.2502  0.7580  0.8708
  148SAPE   C3216330   4.712   3.241  10.447 -0.4918 -0.2290  0.0558
  148SAPE   H2X16331   4.795   3.287  10.506  0.4617 -2.2258  0.3400
  148SAPE   H2Y16332   4.642   3.319  10.409 -1.7848 -0.4089  1.9326
  148SAPE   C2316333   4.516   2.788  10.262  0.1118 -0.5885  0.4452
  148SAPE   H3R16334   4.461   2.880  10.290 -1.3172 -1.3628  0.2804
  148SAPE   H3S16335   4.455   2.699  10.289  1.5998 -2.1436 -1.0346
  148SAPE   C2416336   4.526   2.804  10.113  0.1508 -0.8662 -0.0570
  148SAPE   H4R16337   4.611   2.743  10.075 -0.2756 -0.2879 -2.0774
  148SAPE   H4S16338   4.558   2.910  10.098  1.3444 -0.6995  3.0242
  148SAPE   C2516339   4.395   2.775  10.041 -0.1603 -0.8011 -0.1519
  148SAPE   H5R16340   4.338   2.706  10.104  0.5180  0.5527  2.0722
  148SAPE   C2616341   4.356   2.846   9.930 -0.6207  0.4846  0.1752
  148SAPE   H6R16342   4.266   2.824   9.871  0.1137  0.5704 -1.0234
  148SAPE   C2716343   4.441   2.948   9.855  0.0795 -0.8757 -0.0498
  148SAPE   H7R16344   4.511   3.004   9.920 -1.1846 -1.0231  1.4828
  148SAPE   H7S16345   4.377   3.028   9.812  1.8425  0.0832 -1.0263
  148SAPE   C2816346   4.508   2.868   9.743  0.7370 -0.4091  0.2781
  148SAPE   H8R16347   4.548   2.771   9.776  2.1722 -0.3519 -1.2024
  148SAPE   C2916348   4.515   2.895   9.616  0.0569  0.5388 -0.5339
  148SAPE   H9R16349   4.574   2.818   9.563  0.3544 -0.2149  0.8368
  148SAPE  C21016350   4.460   3.016   9.541 -1.0435 -0.0073 -0.2333
  148SAPE  H10R16351   4.523   3.035   9.451  1.3005  0.2091  1.3802
  148SAPE  H10S16352   4.470   3.112   9.596  1.2139 -1.4472  2.0592
  148SAPE  C21116353   4.319   2.988   9.500  0.3657  0.1610 -0.1987
  148SAPE  H11R16354   4.246   3.026   9.573  0.7911 -0.8237  0.7852
  148SAPE  C21216355   4.281   2.918   9.396  0.6251  0.2076  0.4520
  148SAPE  H12R16356   4.175   2.891   9.398  0.8338 -0.6109  2.3624
  148SAPE  C21316357   4.366   2.858   9.290  0.0039  0.2623  0.7340
  148SAPE  H13R16358   4.369   2.750   9.315  1.7795 -0.2608 -1.3707
  148SAPE  H13S16359   4.464   2.912   9.291 -0.7304  1.8821 -2.2383
  148SAPE  C21416360   4.312   2.865   9.146 -0.9984 -0.3222 -0.3771
  148SAPE  H14R16361   4.202   2.872   9.146 -1.0956 -1.6101  0.2271
  148SAPE  C21516362   4.385   2.878   9.036  0.0902  0.6858 -0.4507
  148SAPE  H15R16363   4.338   2.864   8.937 -1.0740 -0.2591  0.2178
  148SAPE  C21616364   4.537   2.872   9.031  0.2395 -0.5992  0.4023
  148SAPE  H16R16365   4.566   2.782   8.973 -0.2466 -0.8370  0.5275
  148SAPE  H16S16366   4.580   2.848   9.130  0.8443  0.3834  0.3906
  148SAPE  C21716367   4.608   2.995   8.988 -0.3249  0.0901  0.2870
  148SAPE  H17R16368   4.718   2.977   8.993 -0.4041 -0.8357 -0.9918
  148SAPE  H17S16369   4.572   3.067   9.064 -0.7262  1.0866 -0.8133
  148SAPE  C21816370   4.577   3.046   8.847 -0.5599  0.3867  0.5578
  148SAPE  H18R16371   4.467   3.045   8.834 -0.4678 -1.1093 -0.5048
  148SAPE  H18S16372   4.604   2.972   8.768  2.4733  1.0047  0.8987
  148SAPE  C21916373   4.635   3.182   8.809  0.1481 -0.2846  0.5127
  148SAPE  H19R16374   4.737   3.194   8.850 -0.3042  0.6901  1.4294
  148SAPE  H19S16375   4.578   3.264   8.860 -0.8995  0.2224 -1.3695
  148SAPE  C22016376   4.641   3.209   8.655 -0.0149 -0.5128 -0.3229
  148SAPE  H20R16377   4.674   3.313   8.632 -1.7213  0.1224 -0.0335
  148SAPE  H20S16378   4.539   3.189   8.615 -0.7221  2.3255 -0.1648
  148SAPE  H20T16379   4.725   3.147   8.617 -0.7386 -0.1663 -2.6853
  148SAPE   C3316380   4.763   3.171  10.315  0.8269 -0.3480  0.1514
  148SAPE   H3X16381   4.671   3.155  10.255  2.1296  1.6051 -2.5865
  148SAPE   H3Y16382   4.806   3.071  10.337  2.2913  0.0435 -0.7921
  148SAPE   C3416383   4.869   3.257  10.251 -0.3681  0.0161  0.1099
  148SAPE   H4X16384   4.955   3.239  10.319 -0.0177 -0.1224 -0.3666
  148SAPE   H4Y16385   4.851   3.367  10.249  1.2494  0.3361  0.8308
  148SAPE   C3516386   4.906   3.215  10.110  0.2701 -0.0286  0.0714
  148SAPE   H5X16387   4.927   3.106  10.110 -0.8361 -0.2931 -1.6891
  148SAPE   H5Y16388   5.001   3.268  10.086 -0.0983  0.0033 -1.4149
  148SAPE   C3616389   4.792   3.236  10.014 -0.3232 -1.3326 -0.4084
  148SAPE   H6X16390   4.738   3.332  10.027  0.7706 -0.8738  0.9045
  148SAPE   H6Y16391   4.707   3.169  10.041 -1.3876  0.2682  0.3146
  148SAPE   C3716392   4.826   3.226   9.867 -0.0058  0.9807 -0.4534
  148SAPE   H7X16393   4.868   3.124   9.859  1.6301  1.6519 -0.6995
  148SAPE   H7Y16394   4.903   3.298   9.831 -1.3817  1.2028 -3.2436
  148SAPE   C3816395   4.703   3.249   9.784 -0.2137 -0.2474 -0.5620
  148SAPE   H8X16396   4.642   3.326   9.837  1.2011 -0.5025  1.5739
  148SAPE   H8Y16397   4.650   3.154   9.806 -0.0990 -0.2567 -0.3243
  148SAPE   C3916398   4.728   3.269   9.637 -0.5914  0.4767 -0.0525
  148SAPE   H9X16399   4.767   3.373   9.633 -2.0426  0.9922 -1.8327
  148SAPE   H9Y16400   4.635   3.259   9.576 -1.1758  1.5016  0.6280
  148SAPE  C31016401   4.827   3.164   9.586  0.2003  0.1903  0.0293
  148SAPE  H10X16402   4.792   3.064   9.616  1.4560  0.2202  1.7404
  148SAPE  H10Y16403   4.931   3.164   9.626 -0.1487  1.0170  0.9619
  148SAPE  C31116404   4.851   3.162   9.436  0.3729 -0.4790  0.4617
  148SAPE  H11X16405   4.761   3.121   9.387  0.8789 -1.3430  0.2330
  148SAPE  H11Y16406   4.928   3.082   9.428 -0.8345 -1.6000 -0.3161
  148SAPE  C31216407   4.902   3.299   9.378 -0.4700  0.1626 -0.0774
  148SAPE  H12X16408   4.991   3.334   9.435  0.3314  3.1786 -2.8768
  148SAPE  H12Y16409   4.832   3.385   9.375  0.4022  0.8737 -2.0772
  148SAPE  C31316410   4.944   3.292   9.226 -0.1194  0.1866 -0.3819
  148SAPE  H13X16411   4.869   3.245   9.159  1.0814 -0.9402 -0.9674
  148SAPE  H13Y16412   5.029   3.220   9.227 -0.2611  0.0150  0.5164
  148SAPE  C31416413   4.989   3.434   9.180 -0.0649  0.5020 -0.1265
  148SAPE  H14X16414   5.071   3.467   9.248  0.3055 -1.3504  0.3989
  148SAPE  H14Y16415   4.898   3.495   9.196 -0.0873  0.0921  1.5741
  148SAPE  C31516416   5.038   3.441   9.031  0.2556 -0.2362  1.0803
  148SAPE  H15X16417   4.947   3.462   8.971  0.0072 -1.2694  1.0766
  148SAPE  H15Y16418   5.066   3.337   9.005  2.1287  0.6555 -0.7501
  148SAPE  C31616419   5.140   3.553   9.017 -0.2046  0.4523  0.5416
  148SAPE  H16X16420   5.221   3.544   9.093  2.9096  4.1373 -1.9234
  148SAPE  H16Y16421   5.091   3.649   9.045  0.8699  0.5961  2.0454
  148SAPE  C31716422   5.204   3.551   8.884  0.1836 -0.1453 -0.1711
  148SAPE  H17X16423   5.124   3.575   8.810  0.5482  2.1999  0.1083
  148SAPE  H17Y16424   5.217   3.446   8.852 -1.5922 -0.3758 -0.2480
  148SAPE  C31816425   5.318   3.644   8.873 -0.8261 -0.2640 -0.1222
  148SAPE  H18X16426   5.385   3.625   8.960 -0.8067 -1.9640 -0.4764
  148SAPE  H18Y16427   5.279   3.748   8.878 -1.2988 -0.5031  1.6581
  148SAPE  H18Z16428   5.373   3.642   8.776 -2.5938  1.6488 -1.2529
  149SAPE     N16429   4.540   4.096  11.288  0.0714 -0.1081  0.2991
  149SAPE   HN116430   4.627   4.153  11.277  0.9770 -0.6332  3.6854
  149SAPE   HN216431   4.550   4.034  11.371 -0.3934 -2.3638 -1.2381
  149SAPE   HN316432   4.530   4.040  11.201 -0.8934  2.3247 -1.2656
  149SAPE   C1216433   4.414   4.174  11.304  0.2543  0.5315 -0.2089
  149SAPE  H12A16434   4.418   4.210  11.409  1.9003  0.6641 -0.2892
  149SAPE  H12B16435   4.335   4.096  11.301  0.9459 -0.1748 -0.2253
  149SAPE   C1116436   4.400   4.288  11.201  0.4316  0.8532  0.0593
  149SAPE  H11A16437   4.306   4.346  11.214  1.8052  3.2844 -0.1914
  149SAPE  H11B16438   4.417   4.248  11.099 -2.2140  1.2460 -0.6090
  149SAPE     P16439   4.549   4.507  11.159 -0.0869 -0.1680  0.0968
  149SAPE   O1316440   4.444   4.608  11.194 -0.9410 -0.0228 -0.0185
  149SAPE   O1416441   4.683   4.544  11.185  0.1235 -0.4751 -0.4503
  149SAPE   O1216442   4.510   4.368  11.228 -0.3125  0.2056 -0.5385
  149SAPE   O1116443   4.526   4.464  11.006 -0.0653  0.0925  0.0265
  149SAPE    C116444   4.610   4.385  10.923 -0.3503  0.0462 -0.5681
  149SAPE    HA16445   4.643   4.295  10.980 -0.8896 -0.2645 -0.7326
  149SAPE    HB16446   4.562   4.349  10.830  0.6036 -0.2003 -0.9759
  149SAPE    C216447   4.728   4.467  10.867  0.2680  0.5820  0.6312
  149SAPE    HS16448   4.782   4.498  10.959 -2.0465 -0.2770  2.3720
  149SAPE   O2116449   4.670   4.574  10.792 -0.5662  0.1807  0.4047
  149SAPE   C2116450   4.749   4.678  10.792 -0.3942 -0.2119 -0.4079
  149SAPE   O2216451   4.852   4.698  10.857  0.6409 -0.2153  0.5110
  149SAPE   C2216452   4.696   4.773  10.686 -0.2005 -0.2029  0.0626
  149SAPE   H2R16453   4.595   4.806  10.720 -0.2875 -1.9263  1.6517
  149SAPE   H2S16454   4.757   4.866  10.679  0.8605 -0.9193 -0.5499
  149SAPE    C316455   4.814   4.379  10.780  0.3347 -0.6919  0.1483
  149SAPE    HX16456   4.848   4.284  10.826 -1.0213 -1.9313 -1.2947
  149SAPE    HY16457   4.915   4.419  10.754  1.7916 -1.6616  3.7276
  149SAPE   O3116458   4.741   4.342  10.663 -0.1387 -0.2183 -0.0261
  149SAPE   C3116459   4.804   4.254  10.582  0.0381 -0.0220 -0.0418
  149SAPE   O3216460   4.903   4.193  10.603  0.0530 -0.9126 -0.2802
  149SAPE   C3216461   4.721   4.250  10.449 -0.4854 -0.1355  0.4196
  149SAPE   H2X16462   4.703   4.355  10.418  1.7160  0.4669  0.9903
  149SAPE   H2Y16463   4.620   4.207  10.465 -0.6246  0.0810  0.1523
  149SAPE   C2316464   4.685   4.706  10.546  0.1363  0.1061  0.2327
  149SAPE   H3R16465   4.616   4.758  10.477 -2.0145 -1.5416  1.0221
  149SAPE   H3S16466   4.627   4.612  10.559  0.0238  0.2226  0.5955
  149SAPE   C2416467   4.810   4.672  10.461 -0.2352 -0.4506  0.2785
  149SAPE   H4R16468   4.777   4.609  10.376 -0.8870 -0.7014  0.7032
  149SAPE   H4S16469   4.879   4.602  10.515  0.1703 -0.3958 -0.1631
  149SAPE   C2516470   4.886   4.794  10.433  0.1511 -0.4590 -0.5044
  149SAPE   H5R16471   4.929   4.838  10.525 -3.2042  0.9398  0.5317
  149SAPE   C2616472   4.931   4.838  10.316  0.2885 -0.1974  0.1404
  149SAPE   H6R16473   5.002   4.921  10.318  0.9449 -0.7530  1.6883
  149SAPE   C2716474   4.900   4.789  10.172 -0.0693  0.0809 -0.3088
  149SAPE   H7R16475   4.922   4.872  10.102 -1.6411  0.4815 -0.3694
  149SAPE   H7S16476   4.793   4.757  10.172 -0.1117 -0.0410  2.4050
  149SAPE   C2816477   4.957   4.659  10.126  0.2711  0.7121  0.2407
  149SAPE   H8R16478   5.013   4.606  10.205 -0.4452  1.0940  1.0272
  149SAPE   C2916479   4.963   4.624   9.999  0.3751 -0.1111 -0.2963
  149SAPE   H9R16480   5.001   4.523   9.980 -3.1023 -1.5417 -0.4461
  149SAPE  C21016481   4.922   4.701   9.877 -0.2737 -0.0327 -0.0891
  149SAPE  H10R16482   4.926   4.811   9.892  1.8962  0.0965 -1.1671
  149SAPE  H10S16483   4.821   4.677   9.838 -1.3737 -1.3554  3.2130
  149SAPE  C21116484   5.012   4.688   9.758 -0.3167 -0.0785  0.5199
  149SAPE  H11R16485   5.107   4.638   9.781 -0.7988 -0.0605  2.7586
  149SAPE  C21216486   4.985   4.734   9.632  0.3517 -0.2333  0.5183
  149SAPE  H12R16487   5.065   4.720   9.558  1.8180 -1.0262  2.1740
  149SAPE  C21316488   4.866   4.811   9.592 -0.4897  0.7099 -0.1716
  149SAPE  H13R16489   4.789   4.798   9.672 -0.5854 -0.1242 -0.3840
  149SAPE  H13S16490   4.838   4.771   9.493  1.4372  1.3113 -1.0075
  149SAPE  C21416491   4.899   4.961   9.592 -0.1181  0.2327  0.6726
  149SAPE  H14R16492   4.912   5.017   9.686 -1.3703 -1.7464  2.1123
  149SAPE  C21516493   4.917   5.027   9.475  0.3007 -0.4644 -0.4079
  149SAPE  H15R16494   4.948   5.132   9.486  0.1314 -0.4750  0.1942
  149SAPE  C21616495   4.903   4.981   9.330 -0.6409  0.5291 -0.0609
  149SAPE  H16R16496   4.875   4.873   9.328 -1.4742  0.7266  0.4685
  149SAPE  H16S16497   4.998   4.997   9.275 -0.7710  0.7292 -0.2309
  149SAPE  C21716498   4.801   5.081   9.267  0.0987  0.0583 -0.2115
  149SAPE  H17R16499   4.857   5.176   9.271  1.3215 -0.6701  3.5066
  149SAPE  H17S16500   4.711   5.086   9.331  0.1693  2.7074 -0.2253
  149SAPE  C21816501   4.755   5.066   9.121 -0.1405 -0.0789 -0.5950
  149SAPE  H18R16502   4.835   5.078   9.045 -0.6559  0.1712 -1.1057
  149SAPE  H18S16503   4.675   5.137   9.089  0.1963 -0.1129 -1.5404
  149SAPE  C21916504   4.686   4.928   9.096 -0.2805 -0.3602  0.3484
  149SAPE  H19R16505   4.596   4.926   9.161 -1.5436  0.4685 -1.3015
  149SAPE  H19S16506   4.762   4.847   9.108 -0.4759 -0.8170 -1.2974
  149SAPE  C22016507   4.631   4.927   8.949  0.2983 -0.2480  0.6893
  149SAPE  H20R16508   4.549   5.000   8.931  1.4852  0.5697 -1.9764
  149SAPE  H20S16509   4.585   4.828   8.927 -1.0595  0.9009 -2.0925
  149SAPE  H20T16510   4.718   4.949   8.884  0.4820  1.9049  1.5822
  149SAPE   C3316511   4.787   4.190  10.326 -0.2829  0.5108  0.6218
  149SAPE   H3X16512   4.789   4.079  10.322  3.1199  0.4812  0.0290
  149SAPE   H3Y16513   4.893   4.225  10.330  0.9890 -3.0082  1.3143
  149SAPE   C3416514   4.728   4.241  10.195  0.9373  0.1240  0.0163
  149SAPE   H4X16515   4.765   4.339  10.159  1.8353 -0.1387  0.1899
  149SAPE   H4Y16516   4.619   4.256  10.209  1.0955 -0.9594  3.3548
  149SAPE   C3516517   4.755   4.146  10.080 -0.4428 -0.3217 -0.1398
  149SAPE   H5X16518   4.696   4.053  10.096 -0.4726 -0.4466 -0.9340
  149SAPE   H5Y16519   4.865   4.133  10.077 -0.2812 -0.3485  2.6506
  149SAPE   C3616520   4.727   4.214   9.944  0.4545  0.1224  0.2649
  149SAPE   H6X16521   4.773   4.314   9.933  1.7436 -0.5740 -1.1695
  149SAPE   H6Y16522   4.618   4.235   9.946  0.3575 -0.0043 -1.7206
  149SAPE   C3716523   4.788   4.141   9.823  0.2075  0.2536  0.2891
  149SAPE   H7X16524   4.759   4.034   9.822 -1.4824  0.6636 -1.4499
  149SAPE   H7Y16525   4.899   4.151   9.825  0.7174 -2.5720 -3.0054
  149SAPE   C3816526   4.742   4.200   9.687  0.6713  0.3596 -0.5482
  149SAPE   H8X16527   4.633   4.222   9.684  0.6165  0.1689 -0.0324
  149SAPE   H8Y16528   4.741   4.122   9.608 -0.3666 -0.9016  0.6516
  149SAPE   C3916529   4.820   4.325   9.640 -0.1991  0.0234 -0.0367
  149SAPE   H9X16530   4.929   4.302   9.637  0.1993  1.6695  0.9914
  149SAPE   H9Y16531   4.808   4.402   9.718 -0.4671  0.2708 -0.3212
  149SAPE  C31016532   4.764   4.379   9.507  0.1378  0.5596  0.1656
  149SAPE  H10X16533   4.675   4.440   9.533  0.7990  1.1834  1.0246
  149SAPE  H10Y16534   4.724   4.293   9.449 -0.2763  0.1010  1.1049
  149SAPE  C31116535   4.867   4.449   9.426 -0.5633 -0.1128 -0.0311
  149SAPE  H11X16536   4.962   4.393   9.440 -0.6403  0.1326  1.6761
  149SAPE  H11Y16537   4.869   4.555   9.457 -0.5085  0.6434 -2.4425
  149SAPE  C31216538   4.846   4.453   9.271  0.1392  0.2311  0.8009
  149SAPE  H12X16539   4.741   4.475   9.241  0.0657 -2.0588 -0.9000
  149SAPE  H12Y16540   4.867   4.349   9.237 -0.8428  0.2250  0.1492
  149SAPE  C31316541   4.938   4.551   9.209  0.9190 -0.5453 -0.2184
  149SAPE  H13X16542   5.044   4.532   9.236  0.5281 -0.0974  1.8370
  149SAPE  H13Y16543   4.934   4.655   9.247 -1.1758 -0.7813  0.3194
  149SAPE  C31416544   4.923   4.559   9.051  0.0152  0.0920 -0.3137
  149SAPE  H14X16545   4.818   4.588   9.032 -0.4591 -0.8922  0.6959
  149SAPE  H14Y16546   4.953   4.465   9.000 -2.3763 -0.7814 -0.2174
  149SAPE  C31516547   5.020   4.665   8.992 -0.0335  0.4479 -0.3170
  149SAPE  H15X16548   5.123   4.654   9.033  0.2024 -1.8707 -1.3710
  149SAPE  H15Y16549   4.984   4.764   9.028  1.0166  0.6605  0.2192
  149SAPE  C31616550   5.032   4.644   8.840  0.7902 -0.1700 -0.3635
  149SAPE  H16X16551   4.927   4.634   8.803  1.0508 -0.8866 -0.9257
  149SAPE  H16Y16552   5.089   4.553   8.814 -0.9325 -1.0110 -1.3590
  149SAPE  C31716553   5.094   4.760   8.776 -0.1127 -0.7669  0.0975
  149SAPE  H17X16554   5.090   4.860   8.825 -1.5819 -0.8846  0.2555
  149SAPE  H17Y16555   5.038   4.780   8.682  2.2407  1.2998 -0.9939
  149SAPE  C31816556   5.237   4.741   8.727 -0.0480  0.0745 -0.0925
  149SAPE  H18X16557   5.292   4.717   8.821  0.7938 -0.0297 -0.5972
  149SAPE  H18Y16558   5.291   4.829   8.687 -1.1922  0.7802 -0.1016
  149SAPE  H18Z16559   5.245   4.660   8.651 -1.0229 -0.2102  0.0970
  150SAPE     N16560   2.712   4.873  11.167 -0.0138 -0.0200 -0.4673
  150SAPE   HN116561   2.771   4.859  11.252 -0.4616  0.6236 -0.0434
  150SAPE   HN216562   2.634   4.805  11.163  0.0824 -0.1458 -0.2699
  150SAPE   HN316563   2.768   4.868  11.079 -1.2156 -0.6474 -1.2278
  150SAPE   C1216564   2.659   5.008  11.173 -0.3807 -0.7254  0.6664
  150SAPE  H12A16565   2.737   5.087  11.169 -0.6723 -0.2799  2.8557
  150SAPE  H12B16566   2.607   5.024  11.270 -0.3487  0.3534  0.5202
  150SAPE   C1116567   2.566   5.042  11.058  1.0625 -0.2729 -0.0768
  150SAPE  H11A16568   2.632   5.050  10.969  1.0660 -0.5975 -0.1025
  150SAPE  H11B16569   2.539   5.149  11.070  1.1212 -0.3424  0.7013
  150SAPE     P16570   2.362   4.942  10.927  0.1920  0.3290 -0.0252
  150SAPE   O1316571   2.402   4.834  10.832 -0.3743  0.1233  0.4427
  150SAPE   O1416572   2.219   4.938  10.974 -0.2488 -0.3245  0.5420
  150SAPE   O1216573   2.457   4.938  11.047 -0.4546 -0.6633  0.5765
  150SAPE   O1116574   2.392   5.080  10.851  0.1258 -0.0643 -0.8572
  150SAPE    C116575   2.305   5.198  10.841  0.1915  0.0197 -0.4118
  150SAPE    HA16576   2.196   5.176  10.833 -0.5299  1.1345  3.7861
  150SAPE    HB16577   2.317   5.262  10.931  0.8699  1.2876 -1.3729
  150SAPE    C216578   2.329   5.287  10.713  0.3567  0.1489  0.1130
  150SAPE    HS16579   2.261   5.374  10.701 -0.6906 -0.8058 -1.1479
  150SAPE   O2116580   2.309   5.197  10.597  0.0481 -0.0662 -0.0417
  150SAPE   C2116581   2.189   5.201  10.544 -0.1342  1.0114  0.0585
  150SAPE   O2216582   2.097   5.273  10.577  0.5251 -0.0104 -0.0311
  150SAPE   C2216583   2.184   5.100  10.422  0.0415  0.1317 -0.5366
  150SAPE   H2R16584   2.282   5.053  10.399 -0.6840 -1.2100 -1.0501
  150SAPE   H2S16585   2.103   5.026  10.444 -1.7184  1.9327 -0.6741
  150SAPE    C316586   2.471   5.334  10.709  0.5609  0.2949 -0.8965
  150SAPE    HX16587   2.542   5.252  10.730 -1.6414 -1.6130 -0.6089
  150SAPE    HY16588   2.480   5.407  10.793  1.0222 -1.4912  0.6558
  150SAPE   O3116589   2.492   5.408  10.587  0.0742  0.1773  0.4127
  150SAPE   C3116590   2.606   5.375  10.526  0.5400  0.6120  0.5750
  150SAPE   O3216591   2.709   5.332  10.570 -0.6102  0.2977  0.1253
  150SAPE   C3216592   2.572   5.393  10.374 -0.0120 -0.1818 -0.2200
  150SAPE   H2X16593   2.642   5.465  10.326 -2.2373  0.5424 -2.6733
  150SAPE   H2Y16594   2.476   5.450  10.372 -1.5270 -2.6310 -0.8335
  150SAPE   C2316595   2.130   5.176  10.299 -0.4811 -0.3958  0.5143
  150SAPE   H3R16596   2.208   5.249  10.270 -1.7416  1.1955  0.9238
  150SAPE   H3S16597   2.042   5.243  10.312 -1.0887 -1.5818  2.9309
  150SAPE   C2416598   2.083   5.077  10.190  0.0591 -0.1548 -0.2139
  150SAPE   H4R16599   2.159   4.996  10.195 -0.4608 -0.7372 -1.3079
  150SAPE   H4S16600   2.090   5.127  10.091 -0.1351  1.5580  0.6178
  150SAPE   C2516601   1.938   5.035  10.216 -0.2533 -0.4269 -0.2552
  150SAPE   H5R16602   1.923   4.952  10.286 -2.5903 -0.0081 -0.1930
  150SAPE   C2616603   1.836   5.086  10.139  0.6259  0.1006  0.2623
  150SAPE   H6R16604   1.736   5.052  10.168  0.4251  0.7595  0.3492
  150SAPE   C2716605   1.847   5.178  10.018 -0.5382  0.0269 -1.2542
  150SAPE   H7R16606   1.914   5.264  10.039 -1.6947  0.4256  1.1605
  150SAPE   H7S16607   1.752   5.231   9.998  0.4084  1.8813 -1.0065
  150SAPE   C2816608   1.894   5.106   9.894 -0.4670 -0.4695 -0.2873
  150SAPE   H8R16609   1.985   5.044   9.904 -0.3456 -0.3485 -0.6473
  150SAPE   C2916610   1.848   5.125   9.770  0.2075 -0.5360  0.2286
  150SAPE   H9R16611   1.901   5.064   9.695  0.6417 -0.6183  0.5997
  150SAPE  C21016612   1.722   5.210   9.732  0.0985  0.3422 -0.0477
  150SAPE  H10R16613   1.687   5.270   9.818 -0.2480  0.0828 -0.0038
  150SAPE  H10S16614   1.644   5.138   9.700 -0.2161  0.5263  0.3004
  150SAPE  C21116615   1.749   5.308   9.622 -0.5128  0.7159  0.5931
  150SAPE  H11R16616   1.774   5.409   9.656  0.6622  0.4262  0.6275
  150SAPE  C21216617   1.740   5.279   9.487  0.3277 -0.4024  0.3541
  150SAPE  H12R16618   1.764   5.359   9.416 -0.3861 -1.2199 -0.8569
  150SAPE  C21316619   1.705   5.151   9.426 -0.4536 -0.4479 -0.0179
  150SAPE  H13R16620   1.595   5.140   9.413 -0.6289  0.7658  0.2893
  150SAPE  H13S16621   1.742   5.074   9.497  1.4754  1.3848  1.1062
  150SAPE  C21416622   1.761   5.129   9.281 -0.3534  0.2761 -0.2548
  150SAPE  H14R16623   1.856   5.073   9.279 -1.4916 -1.8148  0.6093
  150SAPE  C21516624   1.696   5.144   9.168  0.7007 -0.0543  0.1990
  150SAPE  H15R16625   1.744   5.129   9.070 -1.1946 -2.1795 -0.4848
  150SAPE  C21616626   1.556   5.202   9.142  0.3934  0.0953  0.2717
  150SAPE  H16R16627   1.506   5.237   9.235  0.0048  1.1642 -0.3280
  150SAPE  H16S16628   1.481   5.132   9.099 -2.8307  0.1800  4.9972
  150SAPE  C21716629   1.565   5.333   9.059  0.0851 -0.1787  0.3232
  150SAPE  H17R16630   1.468   5.382   9.036 -0.1147 -0.2462  1.0148
  150SAPE  H17S16631   1.601   5.302   8.958  0.1297 -2.2607  0.9380
  150SAPE  C21816632   1.651   5.444   9.121 -0.2205 -0.0322 -0.4925
  150SAPE  H18R16633   1.757   5.412   9.129 -0.0099  0.9843  1.4725
  150SAPE  H18S16634   1.626   5.466   9.227  2.1599 -1.1138  0.3770
  150SAPE  C21916635   1.642   5.563   9.031 -0.2126  0.0963 -0.5500
  150SAPE  H19R16636   1.538   5.596   9.008  0.5467  2.3157 -1.0555
  150SAPE  H19S16637   1.682   5.553   8.928  0.4228 -1.4953 -0.1841
  150SAPE  C22016638   1.708   5.680   9.094  0.5000 -0.5487  0.0179
  150SAPE  H20R16639   1.799   5.655   9.153 -1.5535 -2.9304  2.3839
  150SAPE  H20S16640   1.645   5.741   9.162  1.4001  0.6788 -0.2194
  150SAPE  H20T16641   1.736   5.749   9.011  0.4995  1.2404  1.4643
  150SAPE   C3316642   2.572   5.261  10.295 -0.3815  0.3045 -0.4568
  150SAPE   H3X16643   2.521   5.177  10.348  0.6754  0.0315  0.1418
  150SAPE   H3Y16644   2.673   5.217  10.287 -1.4472 -2.1344 -1.9005
  150SAPE   C3416645   2.499   5.285  10.162 -0.8999  0.0502 -0.6740
  150SAPE   H4X16646   2.548   5.352  10.088  0.4430 -0.9666 -0.7658
  150SAPE   H4Y16647   2.399   5.330  10.178 -0.5888  1.1820 -1.7207
  150SAPE   C3516648   2.471   5.157  10.085 -0.0800  0.0558 -0.9692
  150SAPE   H5X16649   2.423   5.089  10.159 -1.2009  0.7608 -1.0178
  150SAPE   H5Y16650   2.556   5.102  10.040 -1.2922 -1.3966 -1.5809
  150SAPE   C3616651   2.381   5.194   9.962  0.7025 -0.7220  0.6108
  150SAPE   H6X16652   2.454   5.234   9.888 -1.3433 -2.6636 -2.7592
  150SAPE   H6Y16653   2.303   5.266   9.996 -0.2319 -1.9461  1.1286
  150SAPE   C3716654   2.319   5.076   9.888 -0.1546 -0.1543  0.3163
  150SAPE   H7X16655   2.249   5.034   9.963  0.3504 -0.1543  0.7945
  150SAPE   H7Y16656   2.402   5.004   9.873 -0.6305 -0.8769  1.0339
  150SAPE   C3816657   2.243   5.118   9.764  0.0329  0.5345  0.3103
  150SAPE   H8X16658   2.300   5.197   9.711 -0.0667  0.7890  0.5722
  150SAPE   H8Y16659   2.150   5.178   9.779 -0.4607  0.2103 -1.2869
  150SAPE   C3916660   2.219   5.001   9.675  0.1749 -0.5406  0.1818
  150SAPE   H9X16661   2.124   4.951   9.704  0.7850 -2.8210 -1.5073
  150SAPE   H9Y16662   2.293   4.919   9.683 -1.5998 -2.4778 -1.8949
  150SAPE  C31016663   2.209   5.047   9.526  0.4389 -0.2926  0.7405
  150SAPE  H10X16664   2.313   5.064   9.491  1.5856  0.0388  3.9634
  150SAPE  H10Y16665   2.149   5.141   9.519  0.4342 -0.3101  0.5517
  150SAPE  C31116666   2.143   4.952   9.425 -0.1660  0.1806  0.1181
  150SAPE  H11X16667   2.037   4.947   9.457  0.2912  0.2834  1.7472
  150SAPE  H11Y16668   2.193   4.853   9.437  0.1696  0.6291  3.2437
  150SAPE  C31216669   2.152   5.000   9.289  0.5977 -0.1760  0.4560
  150SAPE  H12X16670   2.260   5.007   9.265  0.5219 -0.9481 -0.1374
  150SAPE  H12Y16671   2.106   5.101   9.281  0.0007 -0.2981  2.0182
  150SAPE  C31316672   2.070   4.912   9.185 -0.3071  0.5876  0.1073
  150SAPE  H13X16673   1.965   4.901   9.219 -0.2904  0.4269  0.1101
  150SAPE  H13Y16674   2.126   4.816   9.186 -0.8525  0.2579 -0.3018
  150SAPE  C31416675   2.066   4.969   9.044  0.4019 -0.5547 -0.5357
  150SAPE  H14X16676   2.159   5.010   8.999  1.1969 -1.7805 -0.0332
  150SAPE  H14Y16677   2.001   5.058   9.055  0.6393  0.0153 -3.0022
  150SAPE  C31516678   2.012   4.868   8.938 -0.2265  0.4280 -0.1503
  150SAPE  H15X16679   1.918   4.829   8.982  0.0499 -0.4285 -0.3010
  150SAPE  H15Y16680   2.084   4.784   8.927  1.7825  1.4967  3.2064
  150SAPE  C31616681   1.984   4.926   8.802 -0.1971  0.1429  0.6515
  150SAPE  H16X16682   2.070   4.979   8.756 -0.2444  0.7003  1.1893
  150SAPE  H16Y16683   1.921   5.018   8.801  2.1305  1.8302  1.2391
  150SAPE  C31716684   1.923   4.830   8.698 -0.6940 -0.1648  0.1676
  150SAPE  H17X16685   1.896   4.883   8.604  0.0939  1.9872  1.0792
  150SAPE  H17Y16686   1.827   4.787   8.734  0.2813 -1.0487  1.8167
  150SAPE  C31816687   2.018   4.715   8.659 -0.4806  0.1748 -0.0305
  150SAPE  H18X16688   1.958   4.634   8.613 -0.4427  0.7283 -1.0805
  150SAPE  H18Y16689   2.068   4.671   8.748  0.1104  0.4085 -0.2448
  150SAPE  H18Z16690   2.100   4.745   8.590 -0.4192  0.6068  0.2255
  151SAPE     N16691   6.462   0.785  10.804  0.2805 -0.6235  0.2185
  151SAPE   HN116692   6.491   0.685  10.802 -1.5548 -1.2980  2.4097
  151SAPE   HN216693   6.536   0.847  10.842  1.8845 -0.4361 -2.8794
  151SAPE   HN316694   6.383   0.789  10.871  0.3974 -1.9869  0.4745
  151SAPE   C1216695   6.403   0.843  10.676  0.0026 -0.3669  0.4654
  151SAPE  H12A16696   6.299   0.802  10.674  0.0470 -0.4821  0.4853
  151SAPE  H12B16697   6.471   0.808  10.595  0.8182 -1.4094  1.5617
  151SAPE   C1116698   6.408   0.997  10.683  0.6320 -0.5915  0.4599
  151SAPE  H11A16699   6.343   1.038  10.764 -0.6825 -0.3528 -0.6924
  151SAPE  H11B16700   6.374   1.039  10.586 -0.2209  0.1127  1.0486
  151SAPE     P16701   6.568   1.201  10.692  0.0064  0.1507 -0.5824
  151SAPE   O1316702   6.478   1.274  10.783  0.1003  0.2355  0.4493
  151SAPE   O1416703   6.712   1.238  10.704  0.1185 -0.5589 -0.2019
  151SAPE   O1216704   6.545   1.044  10.706  0.1569  0.2712  1.1694
  151SAPE   O1116705   6.532   1.237  10.545  0.1025  0.8502 -0.1730
  151SAPE    C116706   6.594   1.159  10.436 -0.3434  0.2611 -0.2049
  151SAPE    HA16707   6.697   1.197  10.418 -0.7639  1.7206  0.3261
  151SAPE    HB16708   6.593   1.050  10.455 -2.2820  0.4147  0.8405
  151SAPE    C216709   6.512   1.185  10.308 -0.2930  0.9336 -0.7022
  151SAPE    HS16710   6.578   1.163  10.221 -1.7620 -1.0553 -1.3961
  151SAPE   O2116711   6.466   1.317  10.292 -0.1210 -0.1636  0.2506
  151SAPE   C2116712   6.538   1.418  10.294 -0.4676 -0.3689 -0.8949
  151SAPE   O2216713   6.656   1.439  10.277  0.1611  0.0235  0.2676
  151SAPE   C2216714   6.450   1.540  10.328  0.2090 -0.2247 -0.6942
  151SAPE   H2R16715   6.352   1.536  10.276  0.2667  1.1254 -0.9460
  151SAPE   H2S16716   6.439   1.524  10.438  3.2491  1.5257 -0.0280
  151SAPE    C316717   6.393   1.082  10.304 -0.2585 -0.2665 -0.0042
  151SAPE    HX16718   6.320   1.133  10.371  0.6554  1.1743 -0.0603
  151SAPE    HY16719   6.424   0.980  10.334 -1.2388 -0.6738 -0.3380
  151SAPE   O3116720   6.350   1.081  10.161  0.0740  0.2373 -0.8141
  151SAPE   C3116721   6.235   1.023  10.139 -0.6022 -0.5645 -0.0587
  151SAPE   O3216722   6.158   0.984  10.222 -0.2673  0.4325 -0.4246
  151SAPE   C3216723   6.220   1.018   9.986  0.0786 -0.2750  0.1290
  151SAPE   H2X16724   6.291   0.937   9.959  2.0723  0.9765  1.3774
  151SAPE   H2Y16725   6.251   1.109   9.930 -2.0408 -0.1006 -0.8484
  151SAPE   C2316726   6.522   1.683  10.306 -0.3816  0.3328 -0.0515
  151SAPE   H3R16727   6.626   1.679  10.344 -0.0499 -2.5680 -1.0014
  151SAPE   H3S16728   6.468   1.757  10.369 -1.9697  0.8839 -1.9442
  151SAPE   C2416729   6.491   1.734  10.156 -0.1019  0.8241  0.5810
  151SAPE   H4R16730   6.427   1.821  10.183  0.4923  1.2390  0.6737
  151SAPE   H4S16731   6.429   1.661  10.100 -1.6970  0.3417  2.8369
  151SAPE   C2516732   6.607   1.776  10.072  0.0690 -0.3646  0.7290
  151SAPE   H5R16733   6.693   1.708  10.068  2.3449  2.3208  0.1716
  151SAPE   C2616734   6.635   1.894  10.009  0.2140 -0.3546 -0.5144
  151SAPE   H6R16735   6.732   1.899   9.959 -0.5561  3.0634 -1.9480
  151SAPE   C2716736   6.571   2.032  10.001  0.2172  0.3646 -0.8429
  151SAPE   H7R16737   6.571   2.048   9.891  0.9235 -2.1355 -1.2733
  151SAPE   H7S16738   6.639   2.107  10.046  0.1865 -1.1210  1.8839
  151SAPE   C2816739   6.434   2.055  10.052  0.1821 -0.2014  0.3397
  151SAPE   H8R16740   6.418   2.075  10.159 -2.4825 -1.4788  0.2601
  151SAPE   C2916741   6.325   2.051   9.973 -0.1712 -0.1595  0.6725
  151SAPE   H9R16742   6.226   2.053  10.021 -0.4997 -0.6616  0.0329
  151SAPE  C21016743   6.324   2.033   9.823  0.1471 -0.8451  1.1238
  151SAPE  H10R16744   6.401   2.109   9.794 -2.6070  1.5488 -0.4685
  151SAPE  H10S16745   6.228   2.069   9.780  0.6245  0.4703  1.0931
  151SAPE  C21116746   6.333   1.895   9.779  0.2638 -0.3328 -0.5449
  151SAPE  H11R16747   6.312   1.816   9.853 -1.5921 -0.6983 -1.4056
  151SAPE  C21216748   6.375   1.855   9.657  0.4731 -0.1492 -0.0028
  151SAPE  H12R16749   6.368   1.752   9.621 -2.1411  0.2922 -0.9367
  151SAPE  C21316750   6.406   1.947   9.541 -0.2253 -0.6100 -0.3340
  151SAPE  H13R16751   6.390   2.054   9.566  0.2990  0.0034 -2.4131
  151SAPE  H13S16752   6.339   1.931   9.454 -0.4648 -0.9151 -0.0969
  151SAPE  C21416753   6.549   1.925   9.503  0.5519 -1.1017 -0.4650
  151SAPE  H14R16754   6.620   1.961   9.579  1.1223 -0.7934 -1.1372
  151SAPE  C21516755   6.594   1.879   9.386  0.7552 -0.1107  0.0814
  151SAPE  H15R16756   6.703   1.875   9.368  0.7204 -1.1395  0.0085
  151SAPE  C21616757   6.499   1.838   9.275 -0.3021  0.1386  0.6466
  151SAPE  H16R16758   6.492   1.918   9.198  1.4639  2.1076  2.3722
  151SAPE  H16S16759   6.395   1.823   9.311 -0.0081 -0.2247  1.3705
  151SAPE  C21716760   6.545   1.710   9.206  0.1183 -0.0402  0.6569
  151SAPE  H17R16761   6.584   1.635   9.279 -1.6289 -2.4896 -0.7735
  151SAPE  H17S16762   6.623   1.745   9.136  0.4182 -1.2184  0.3868
  151SAPE  C21816763   6.432   1.646   9.127  0.4793 -0.8607  0.6178
  151SAPE  H18R16764   6.456   1.594   9.032 -1.7224 -0.3692 -0.2944
  151SAPE  H18S16765   6.374   1.736   9.096 -1.3430 -1.6098  1.7061
  151SAPE  C21916766   6.337   1.554   9.211 -0.0065 -0.7304 -0.3140
  151SAPE  H19R16767   6.321   1.598   9.312  0.9347 -1.6138  0.2397
  151SAPE  H19S16768   6.394   1.464   9.243  0.8642  0.4550  1.7490
  151SAPE  C22016769   6.201   1.514   9.143  0.4952  0.2067  0.4947
  151SAPE  H20R16770   6.147   1.610   9.132 -1.6821 -0.8743  1.2361
  151SAPE  H20S16771   6.132   1.462   9.213 -1.6120  0.3691 -1.3329
  151SAPE  H20T16772   6.215   1.460   9.047 -2.3505 -0.0677  0.1350
  151SAPE   C3316773   6.075   0.981   9.933 -0.4424 -0.1363  0.0088
  151SAPE   H3X16774   6.008   1.067   9.958 -0.1394 -0.2469  1.2307
  151SAPE   H3Y16775   6.027   0.899   9.991 -2.2690  0.6800 -0.2863
  151SAPE   C3416776   6.087   0.940   9.787  0.3329 -0.0183 -0.0997
  151SAPE   H4X16777   6.159   0.855   9.780  2.7930  2.0018 -0.5202
  151SAPE   H4Y16778   6.137   1.017   9.725 -1.4539  2.9851  1.9859
  151SAPE   C3516779   5.956   0.913   9.717 -0.5066  0.5244 -0.7379
  151SAPE   H5X16780   5.907   1.013   9.715  2.8699  2.3740  0.6303
  151SAPE   H5Y16781   5.883   0.846   9.767 -2.2149  2.2850 -0.7217
  151SAPE   C3616782   5.981   0.872   9.573 -0.6259 -0.8654 -0.3800
  151SAPE   H6X16783   5.981   0.761   9.565 -0.5598 -0.7775 -1.8903
  151SAPE   H6Y16784   6.078   0.910   9.535 -0.7814  0.9341  0.9329
  151SAPE   C3716785   5.864   0.914   9.485 -0.1462  0.6596 -0.3120
  151SAPE   H7X16786   5.831   1.016   9.517  0.6690  0.5644  0.9210
  151SAPE   H7Y16787   5.779   0.848   9.510  1.6584 -1.6466  0.0286
  151SAPE   C3816788   5.903   0.907   9.335  0.2474 -0.2917  0.3031
  151SAPE   H8X16789   5.954   0.809   9.325 -0.6043 -0.9309  1.8788
  151SAPE   H8Y16790   5.980   0.986   9.319  0.9552 -0.2466  3.3299
  151SAPE   C3916791   5.780   0.918   9.241 -0.8597  0.5852 -0.4802
  151SAPE   H9X16792   5.701   0.986   9.281 -1.2086  1.3173 -2.2976
  151SAPE   H9Y16793   5.726   0.821   9.247 -3.1933  1.7371 -1.4525
  151SAPE  C31016794   5.826   0.935   9.092 -0.3358 -0.3119  0.1157
  151SAPE  H10X16795   5.739   0.908   9.028 -0.3898  0.3003 -0.0733
  151SAPE  H10Y16796   5.915   0.870   9.082  0.8310  0.9594  1.7531
  151SAPE  C31116797   5.882   1.070   9.044 -0.5129 -0.9262 -0.1540
  151SAPE  H11X16798   5.966   1.092   9.114 -2.1584  1.6590  1.1463
  151SAPE  H11Y16799   5.811   1.155   9.055  1.4473  1.1330 -2.2499
  151SAPE  C31216800   5.950   1.072   8.905  0.0326  0.0572  0.3421
  151SAPE  H12X16801   5.879   1.037   8.827 -0.8685 -1.0822  1.6185
  151SAPE  H12Y16802   6.049   1.022   8.917 -0.7770 -1.2715  1.8231
  151SAPE  C31316803   5.976   1.219   8.865 -0.0677 -0.6722 -0.2999
  151SAPE  H13X16804   6.059   1.259   8.927  0.4424 -2.9041  0.5628
  151SAPE  H13Y16805   5.887   1.284   8.882  1.5857  1.3994  0.9570
  151SAPE  C31416806   6.013   1.227   8.717  0.6929 -0.0549 -0.2671
  151SAPE  H14X16807   5.923   1.199   8.658 -0.2234 -0.2057  1.1465
  151SAPE  H14Y16808   6.097   1.160   8.690  0.3434 -0.2053 -1.0090
  151SAPE  C31516809   6.061   1.374   8.680  0.7283 -0.3567  0.1920
  151SAPE  H15X16810   6.145   1.394   8.749 -0.8795  0.4536  2.0028
  151SAPE  H15Y16811   5.989   1.454   8.706  0.0299 -0.9215  0.0401
  151SAPE  C31616812   6.092   1.373   8.527 -0.2306 -0.2929  0.8102
  151SAPE  H16X16813   6.008   1.324   8.475  0.0459  0.9172 -0.8630
  151SAPE  H16Y16814   6.185   1.316   8.504 -0.0444  0.7870 -1.4019
  151SAPE  C31716815   6.108   1.520   8.469 -0.1993  0.3817  0.3020
  151SAPE  H17X16816   6.158   1.524   8.370 -0.5123  0.4446  0.1433
  151SAPE  H17Y16817   6.176   1.567   8.543 -0.3704  0.0063  0.7005
  151SAPE  C31816818   5.978   1.603   8.455  0.1241 -0.3225  0.1658
  151SAPE  H18X16819   5.925   1.605   8.552 -0.4560 -1.1397 -0.1312
  151SAPE  H18Y16820   5.914   1.567   8.372 -0.3839  2.2140 -0.6093
  151SAPE  H18Z16821   6.007   1.707   8.428 -1.3980  0.2039  0.4592
  152SAPE     N16822   5.988   0.372  10.717 -0.3126 -0.6676 -0.1811
  152SAPE   HN116823   6.077   0.358  10.768 -0.4132 -0.9623 -0.0854
  152SAPE   HN216824   5.917   0.413  10.780 -0.4551  1.2075 -1.4851
  152SAPE   HN316825   5.946   0.282  10.687 -0.4195 -0.4686 -0.6335
  152SAPE   C1216826   6.021   0.474  10.616  0.5923 -0.5603  0.4401
  152SAPE  H12A16827   5.936   0.545  10.603  1.4749  0.1429 -2.1273
  152SAPE  H12B16828   6.036   0.416  10.522 -2.1555  0.5325 -0.7836
  152SAPE   C1116829   6.153   0.551  10.641 -0.5586  0.0113  0.0765
  152SAPE  H11A16830   6.119   0.628  10.714  0.5109 -0.2456  0.8791
  152SAPE  H11B16831   6.188   0.610  10.553 -1.1016 -1.3333 -1.0708
  152SAPE     P16832   6.377   0.418  10.621  0.0484 -0.2500  0.0569
  152SAPE   O1316833   6.432   0.528  10.542  0.3565 -0.3401 -0.0631
  152SAPE   O1416834   6.473   0.347  10.712  0.1138  0.8982  0.2496
  152SAPE   O1216835   6.258   0.471  10.707  0.6591 -0.1263 -0.4869
  152SAPE   O1116836   6.304   0.317  10.520  0.3851  0.3172 -0.2376
  152SAPE    C116837   6.387   0.208  10.467 -0.0229 -0.4155 -0.7616
  152SAPE    HA16838   6.487   0.251  10.447 -0.0388  1.0033  1.8240
  152SAPE    HB16839   6.391   0.133  10.548 -1.0196  1.6978  1.3588
  152SAPE    C216840   6.330   0.161  10.332 -0.1537  0.0490 -0.1469
  152SAPE    HS16841   6.404   0.120  10.260 -0.6225 -0.0955 -0.5575
  152SAPE   O2116842   6.268   0.269  10.261  0.3742 -0.2332  0.1549
  152SAPE   C2116843   6.347   0.342  10.186  0.1799  0.3355  0.3220
  152SAPE   O2216844   6.465   0.315  10.164 -0.0484 -0.0752 -0.0457
  152SAPE   C2216845   6.265   0.450  10.113 -0.3830 -0.4349  0.2914
  152SAPE   H2R16846   6.181   0.408  10.053  0.5330 -2.4108  0.3146
  152SAPE   H2S16847   6.219   0.517  10.188 -1.9021  2.7226 -3.0919
  152SAPE    C316848   6.228   0.044  10.351  0.6839 -0.2696 -0.1856
  152SAPE    HX16849   6.156   0.086  10.424  1.7393 -0.2576  0.8848
  152SAPE    HY16850   6.280  -0.035  10.410  2.0845 -0.1323 -1.1822
  152SAPE   O3116851   6.176  -0.009  10.223 -0.1981  0.5334 -0.5047
  152SAPE   C3116852   6.047  -0.037  10.225  0.2830  0.1430 -0.5880
  152SAPE   O3216853   5.967  -0.013  10.315  0.2349 -0.1188  0.2105
  152SAPE   C3216854   6.011  -0.114  10.095 -0.0378  0.0652 -0.4186
  152SAPE   H2X16855   6.020  -0.224  10.109 -1.8369 -0.2680 -1.6300
  152SAPE   H2Y16856   6.083  -0.083  10.016 -0.1942  0.9440 -0.2262
  152SAPE   C2316857   6.357   0.536  10.025  0.2667 -0.6199 -0.3709
  152SAPE   H3R16858   6.423   0.469   9.966 -0.2252 -0.3273 -1.2605
  152SAPE   H3S16859   6.432   0.598  10.080  2.4548 -0.7892 -2.9474
  152SAPE   C2416860   6.280   0.633   9.936 -0.1212  0.0449  0.1963
  152SAPE   H4R16861   6.368   0.694   9.906  1.1542 -2.2753 -1.0110
  152SAPE   H4S16862   6.214   0.694  10.001  0.8750  0.9060  0.4209
  152SAPE   C2516863   6.210   0.572   9.824 -0.2661 -0.0349 -0.0577
  152SAPE   H5R16864   6.117   0.521   9.852 -0.4444 -0.3434 -1.1653
  152SAPE   C2616865   6.253   0.580   9.696  0.9219  0.5269 -0.3949
  152SAPE   H6R16866   6.192   0.533   9.617  3.1318 -1.1812 -1.1889
  152SAPE   C2716867   6.373   0.647   9.650  0.2516 -0.0895 -0.0091
  152SAPE   H7R16868   6.427   0.572   9.589 -0.1251  0.1382 -0.6251
  152SAPE   H7S16869   6.450   0.674   9.726 -0.4802 -0.4052  0.8607
  152SAPE   C2816870   6.332   0.763   9.566 -0.3530  0.0957  0.3501
  152SAPE   H8R16871   6.286   0.847   9.620 -3.0179  0.4867 -2.2222
  152SAPE   C2916872   6.347   0.787   9.435 -0.4244  0.3642  1.0156
  152SAPE   H9R16873   6.313   0.883   9.394  0.5887  0.0626 -0.5720
  152SAPE  C21016874   6.400   0.691   9.329 -0.1416  0.1073 -0.1502
  152SAPE  H10R16875   6.485   0.642   9.382  0.8572 -0.1718 -1.9008
  152SAPE  H10S16876   6.452   0.745   9.247 -1.6368  0.4807 -0.8818
  152SAPE  C21116877   6.314   0.578   9.280  1.2883 -0.8783  0.5226
  152SAPE  H11R16878   6.237   0.544   9.351 -0.3477  0.1449 -0.6766
  152SAPE  C21216879   6.308   0.531   9.157  0.3194 -0.1905  1.7290
  152SAPE  H12R16880   6.263   0.433   9.135  1.8066 -0.3804 -0.9641
  152SAPE  C21316881   6.386   0.579   9.036 -0.2103 -0.4584 -0.0452
  152SAPE  H13R16882   6.434   0.487   8.995 -1.4579 -0.8520 -0.6620
  152SAPE  H13S16883   6.466   0.648   9.071 -0.6558 -0.8548  1.8737
  152SAPE  C21416884   6.315   0.647   8.923  0.4645  0.1359  0.6949
  152SAPE  H14R16885   6.322   0.755   8.903  0.1823  0.1269  0.5406
  152SAPE  C21516886   6.237   0.579   8.831  0.1555 -0.1161  0.4108
  152SAPE  H15R16887   6.179   0.633   8.755 -0.8574 -0.4027  0.9553
  152SAPE  C21616888   6.213   0.435   8.831 -0.0480 -0.0179 -0.5499
  152SAPE  H16R16889   6.104   0.416   8.840  0.0551 -1.2038 -1.5057
  152SAPE  H16S16890   6.262   0.384   8.917 -1.2962 -2.5004 -1.2138
  152SAPE  C21716891   6.258   0.362   8.706 -0.9504  0.6770  0.1226
  152SAPE  H17R16892   6.364   0.388   8.684 -1.7059  1.8401 -2.6261
  152SAPE  H17S16893   6.200   0.388   8.615  0.7989 -0.8390 -1.5198
  152SAPE  C21816894   6.253   0.208   8.711  0.2919  0.2237  0.1286
  152SAPE  H18R16895   6.153   0.163   8.728  0.9041 -1.3963 -0.3235
  152SAPE  H18S16896   6.322   0.180   8.794  1.2122 -0.1778 -0.7501
  152SAPE  C21916897   6.303   0.142   8.577  0.6084  0.1330  0.0125
  152SAPE  H19R16898   6.390   0.199   8.537  1.3951 -0.1509  1.2700
  152SAPE  H19S16899   6.219   0.152   8.505 -0.0139 -1.1952  0.5159
  152SAPE  C22016900   6.334  -0.010   8.584 -0.2080  0.0424 -0.5836
  152SAPE  H20R16901   6.360  -0.053   8.484 -1.5418 -2.4245  0.0618
  152SAPE  H20S16902   6.251  -0.072   8.623 -0.3806  0.9660  0.5652
  152SAPE  H20T16903   6.425  -0.015   8.648 -2.5300  2.5121  3.2163
  152SAPE   C3316904   5.875  -0.075  10.035  0.1637 -0.2103  0.0841
  152SAPE   H3X16905   5.871   0.036  10.030  2.9674 -0.0948 -3.5556
  152SAPE   H3Y16906   5.793  -0.098  10.107 -0.6748 -0.3641 -0.9008
  152SAPE   C3416907   5.864  -0.122   9.895  0.5072 -0.5086 -0.3280
  152SAPE   H4X16908   5.941  -0.201   9.881  0.9091 -0.1951  0.0976
  152SAPE   H4Y16909   5.887  -0.039   9.826 -0.5281 -0.3211 -0.4705
  152SAPE   C3516910   5.727  -0.182   9.851 -0.4251  0.2927 -0.6213
  152SAPE   H5X16911   5.664  -0.092   9.866  0.3862  1.0241 -1.4791
  152SAPE   H5Y16912   5.698  -0.267   9.916  0.8323 -0.5534 -1.1272
  152SAPE   C3616913   5.737  -0.235   9.710 -0.4370 -0.5767  0.0778
  152SAPE   H6X16914   5.631  -0.252   9.681  0.0150 -1.5239 -1.0893
  152SAPE   H6Y16915   5.788  -0.333   9.705 -1.8990 -1.3014 -1.6676
  152SAPE   C3716916   5.802  -0.141   9.602 -0.4028 -0.4582  0.3833
  152SAPE   H7X16917   5.908  -0.131   9.636 -0.1432 -3.0662  0.5033
  152SAPE   H7Y16918   5.749  -0.044   9.615 -0.8574 -0.7839  1.0037
  152SAPE   C3816919   5.788  -0.210   9.470  0.6029 -0.7056 -0.1460
  152SAPE   H8X16920   5.683  -0.240   9.449  0.3963  0.8820 -1.5673
  152SAPE   H8Y16921   5.849  -0.303   9.474 -0.5859 -1.6993 -2.7890
  152SAPE   C3916922   5.827  -0.125   9.346  0.1957  0.6032 -0.0162
  152SAPE   H9X16923   5.936  -0.105   9.357  0.1668  1.1592 -0.7192
  152SAPE   H9Y16924   5.781  -0.025   9.362 -0.2066  0.3433  0.5204
  152SAPE  C31016925   5.803  -0.173   9.203 -0.1815  0.5146 -0.1798
  152SAPE  H10X16926   5.700  -0.150   9.167  0.6076  1.6295 -1.8455
  152SAPE  H10Y16927   5.828  -0.281   9.207 -1.2660  0.1018 -2.5782
  152SAPE  C31116928   5.870  -0.090   9.087 -0.4974 -0.4026  0.4241
  152SAPE  H11X16929   5.978  -0.117   9.086 -0.1359  0.9562  0.5313
  152SAPE  H11Y16930   5.879   0.013   9.127 -2.7891 -0.1160  0.2993
  152SAPE  C31216931   5.812  -0.093   8.946 -0.7155 -1.2010 -0.2135
  152SAPE  H12X16932   5.708  -0.058   8.963 -0.3174  0.4672 -0.9521
  152SAPE  H12Y16933   5.816  -0.192   8.896 -0.7905 -1.3222  0.0228
  152SAPE  C31316934   5.886   0.016   8.863 -0.4577  0.0415  0.4544
  152SAPE  H13X16935   5.988  -0.022   8.842 -0.6033  0.4600 -1.1722
  152SAPE  H13Y16936   5.883   0.116   8.912  0.6950  0.3432 -0.0505
  152SAPE  C31416937   5.811   0.050   8.736  1.5108  0.2325  0.3090
  152SAPE  H14X16938   5.715   0.103   8.751  1.8938  1.4241 -1.1463
  152SAPE  H14Y16939   5.793  -0.046   8.682  0.3521  0.6546 -0.0740
  152SAPE  C31516940   5.891   0.140   8.649 -0.4855 -0.1448 -0.2355
  152SAPE  H15X16941   5.985   0.087   8.622  1.1277  1.4373  1.9660
  152SAPE  H15Y16942   5.918   0.234   8.701  1.3221  0.0314 -1.4353
  152SAPE  C31616943   5.807   0.176   8.521 -0.0494  0.4825  0.2547
  152SAPE  H16X16944   5.719   0.239   8.549 -1.9111 -1.5120 -0.7422
  152SAPE  H16Y16945   5.777   0.086   8.463 -0.7202  0.5177  0.5303
  152SAPE  C31716946   5.881   0.263   8.427 -0.4708  0.2782 -0.4384
  152SAPE  H17X16947   5.954   0.203   8.369 -1.4066 -1.0299 -0.3003
  152SAPE  H17Y16948   5.946   0.334   8.484 -0.0443 -0.1848 -0.3423
  152SAPE  C31816949   5.795   0.328   8.321  0.0944  0.2120 -0.6763
  152SAPE  H18X16950   5.848   0.377   8.237 -0.1299 -1.0376 -1.5752
  152SAPE  H18Y16951   5.733   0.410   8.363  0.5105  0.4299 -0.4760
  152SAPE  H18Z16952   5.723   0.262   8.268 -2.9284  2.5891  0.1905
  153SAPE     N16953   2.271   2.194  10.864  0.3283  0.3427  0.2363
  153SAPE   HN116954   2.359   2.139  10.852  0.9922  1.6784 -1.4753
  153SAPE   HN216955   2.215   2.119  10.909 -1.7339  2.7687  2.0119
  153SAPE   HN316956   2.240   2.221  10.769  2.5707 -0.5854 -0.8338
  153SAPE   C1216957   2.297   2.300  10.972  0.1727  0.2784  1.2829
  153SAPE  H12A16958   2.195   2.330  11.003 -0.4732 -0.0877 -0.3869
  153SAPE  H12B16959   2.344   2.385  10.917  0.7999 -1.5994 -1.2720
  153SAPE   C1116960   2.385   2.262  11.094  0.2015 -0.0135 -1.2063
  153SAPE  H11A16961   2.329   2.182  11.146  0.7576  1.8055  2.5460
  153SAPE  H11B16962   2.388   2.351  11.160 -1.1673 -0.3867 -0.6188
  153SAPE     P16963   2.569   2.087  11.049  0.2820  0.2213 -0.2168
  153SAPE   O1316964   2.714   2.104  11.061  0.1607  0.4841  0.2677
  153SAPE   O1416965   2.495   1.999  11.140  0.0052  0.2160  0.2088
  153SAPE   O1216966   2.511   2.228  11.063 -0.3373  0.0216 -0.0734
  153SAPE   O1116967   2.525   2.048  10.900 -0.0427  0.2545  0.1845
  153SAPE    C116968   2.614   1.958  10.832 -0.5244  0.0931  0.4440
  153SAPE    HA16969   2.703   1.925  10.889  0.9898 -1.1330 -2.3985
  153SAPE    HB16970   2.559   1.864  10.811  0.5432 -0.3302 -0.5570
  153SAPE    C216971   2.668   2.028  10.701 -0.5952  0.0679 -0.3026
  153SAPE    HS16972   2.699   2.132  10.726 -0.2473  0.3336 -1.7092
  153SAPE   O2116973   2.557   2.021  10.611 -0.2175  0.1205  0.1527
  153SAPE   C2116974   2.547   2.119  10.524 -0.2557  0.0069  0.5993
  153SAPE   O2216975   2.615   2.224  10.518 -0.5971  0.3940 -0.0911
  153SAPE   C2216976   2.434   2.080  10.429 -0.0430 -0.2112 -0.7030
  153SAPE   H2R16977   2.459   1.973  10.410 -0.3679 -0.7459  1.5519
  153SAPE   H2S16978   2.344   2.089  10.494 -0.3988 -0.9642 -1.0846
  153SAPE    C316979   2.783   1.952  10.629 -0.3853  0.1000  0.0880
  153SAPE    HX16980   2.753   1.846  10.612  0.2569 -0.0451 -0.1707
  153SAPE    HY16981   2.861   1.953  10.708  2.1829 -0.3925 -2.2832
  153SAPE   O3116982   2.829   2.024  10.515  0.0877 -0.2131  0.1538
  153SAPE   C3116983   2.897   1.958  10.424  0.3014 -0.0228  0.3439
  153SAPE   O3216984   2.921   1.840  10.432  0.3326 -0.0294  0.3455
  153SAPE   C3216985   2.932   2.044  10.304 -0.5434 -0.0647 -0.3173
  153SAPE   H2X16986   3.010   1.991  10.245  0.2539  1.0263 -0.2683
  153SAPE   H2Y16987   2.983   2.133  10.345 -1.3399 -0.3058  1.2769
  153SAPE   C2316988   2.423   2.164  10.299  0.2911  0.3017  0.5329
  153SAPE   H3R16989   2.517   2.155  10.241  1.2151  1.3881  1.8082
  153SAPE   H3S16990   2.404   2.273  10.311  1.5555  0.4990  0.8692
  153SAPE   C2416991   2.312   2.109  10.204 -0.9435 -0.0768 -0.2566
  153SAPE   H4R16992   2.279   2.196  10.144  0.2492  1.5900  1.3834
  153SAPE   H4S16993   2.222   2.076  10.261 -0.4886 -1.3530 -0.2616
  153SAPE   C2516994   2.355   2.020  10.096 -0.8132 -0.4307  0.3932
  153SAPE   H5R16995   2.335   1.913  10.114 -0.7082 -0.2116  2.0150
  153SAPE   C2616996   2.428   2.055   9.983 -0.3030 -0.0113  0.2138
  153SAPE   H6R16997   2.468   1.970   9.927  1.1936 -0.1707  1.4462
  153SAPE   C2716998   2.477   2.191   9.930 -0.3720  0.0691 -0.8096
  153SAPE   H7R16999   2.474   2.257  10.019 -0.5115  1.0415 -1.5145
  153SAPE   H7S17000   2.389   2.224   9.870  0.1241 -0.7256 -2.0262
  153SAPE   C2817001   2.612   2.182   9.858  0.6487  0.0196  0.6333
  153SAPE   H8R17002   2.698   2.231   9.906  2.0768 -0.4091 -1.3746
  153SAPE   C2917003   2.636   2.122   9.741  0.0323 -0.4139 -0.3717
  153SAPE   H9R17004   2.739   2.124   9.702 -0.4409  0.8746 -1.6122
  153SAPE  C21017005   2.540   2.040   9.658  0.4518 -0.2735  0.3300
  153SAPE  H10R17006   2.437   2.056   9.696 -0.5673 -1.3597 -1.7924
  153SAPE  H10S17007   2.566   1.932   9.662  0.9203 -0.1284  1.6027
  153SAPE  C21117008   2.546   2.085   9.515 -0.2684 -0.5453 -0.2230
  153SAPE  H11R17009   2.526   2.193   9.512 -0.2463 -0.4633  1.3743
  153SAPE  C21217010   2.566   2.013   9.404 -0.0845 -0.4573  0.3609
  153SAPE  H12R17011   2.569   2.058   9.303  2.6377 -1.6913 -0.1836
  153SAPE  C21317012   2.576   1.867   9.383 -0.2844  0.0232  0.0799
  153SAPE  H13R17013   2.604   1.849   9.277  0.6752  3.5746 -0.4016
  153SAPE  H13S17014   2.477   1.818   9.397  0.0774 -0.0553  2.8875
  153SAPE  C21417015   2.672   1.794   9.472  0.0004 -0.0670 -0.1179
  153SAPE  H14R17016   2.720   1.849   9.554 -2.5326  0.0132  1.4065
  153SAPE  C21517017   2.713   1.669   9.460  0.8966  0.4975  0.3895
  153SAPE  H15R17018   2.777   1.638   9.544  0.8176  1.1052  0.6805
  153SAPE  C21617019   2.661   1.570   9.354  0.3940 -0.4562  0.4371
  153SAPE  H16R17020   2.561   1.608   9.325  0.9798  0.5373 -0.3695
  153SAPE  H16S17021   2.647   1.469   9.397 -0.4627 -0.4261  0.2312
  153SAPE  C21717022   2.756   1.567   9.233  0.2627  0.3223 -0.5031
  153SAPE  H17R17023   2.859   1.550   9.272  0.5939  0.5544 -1.2623
  153SAPE  H17S17024   2.756   1.665   9.181 -1.1784 -0.4051 -1.9368
  153SAPE  C21817025   2.723   1.453   9.134 -0.2212 -0.1160  0.1155
  153SAPE  H18R17026   2.654   1.498   9.059 -0.8430  0.1481  0.8348
  153SAPE  H18S17027   2.672   1.375   9.195 -1.1431  1.0528  0.8981
  153SAPE  C21917028   2.849   1.393   9.057 -0.1220  0.4805 -0.2226
  153SAPE  H19R17029   2.819   1.312   8.988 -1.2253  0.5842  0.1172
  153SAPE  H19S17030   2.905   1.326   9.126  0.6446  0.2868 -1.0123
  153SAPE  C22017031   2.943   1.485   8.984  0.4587  0.3832  0.7733
  153SAPE  H20R17032   3.043   1.437   8.980  0.0313 -0.4767  0.1506
  153SAPE  H20S17033   2.938   1.590   9.021 -1.4986  1.0748 -1.2382
  153SAPE  H20T17034   2.908   1.490   8.879 -0.5466 -1.8369  0.9462
  153SAPE   C3317035   2.809   2.075  10.221 -0.5960 -0.1476 -0.0765
  153SAPE   H3X17036   2.842   2.165  10.166 -0.2081 -0.1937  0.0716
  153SAPE   H3Y17037   2.713   2.098  10.271 -0.8869 -1.0366 -0.1990
  153SAPE   C3417038   2.772   1.973  10.116 -0.5356  0.7623  0.0023
  153SAPE   H4X17039   2.690   2.010  10.052 -0.2904  1.5986  0.1609
  153SAPE   H4Y17040   2.729   1.891  10.177 -1.8126  2.5402  1.6093
  153SAPE   C3517041   2.883   1.921  10.024 -0.2536  0.1919  0.3061
  153SAPE   H5X17042   2.835   1.856   9.948 -0.4742 -1.3210  1.6795
  153SAPE   H5Y17043   2.952   1.853  10.079  0.2404 -0.0465 -0.5759
  153SAPE   C3617044   2.960   2.035   9.950 -0.2082 -0.0709 -0.0880
  153SAPE   H6X17045   3.007   2.105  10.023  0.0437 -0.4222  0.0891
  153SAPE   H6Y17046   2.892   2.093   9.884  1.3940 -1.0024 -2.7330
  153SAPE   C3717047   3.067   1.981   9.857  0.3660  0.4043  0.1994
  153SAPE   H7X17048   3.116   1.896   9.910 -0.8912 -0.3291  0.2268
  153SAPE   H7Y17049   3.148   2.055   9.841  1.5410 -0.1078  3.1492
  153SAPE   C3817050   3.010   1.933   9.723 -0.1297 -0.4839  1.0784
  153SAPE   H8X17051   2.926   2.004   9.710  0.7705  0.2242 -1.4984
  153SAPE   H8Y17052   2.962   1.833   9.725  0.4339 -0.9296 -1.9826
  153SAPE   C3917053   3.099   1.960   9.605 -0.0369  0.5802  0.9708
  153SAPE   H9X17054   3.184   1.889   9.598 -1.0666 -0.5897 -0.2286
  153SAPE   H9Y17055   3.153   2.053   9.636  0.4016 -0.1605  2.5418
  153SAPE  C31017056   3.036   1.957   9.464  0.0925  0.2959 -0.0989
  153SAPE  H10X17057   2.958   2.037   9.465  0.3615  0.5553  0.0981
  153SAPE  H10Y17058   2.986   1.861   9.440 -2.6238  1.6900 -0.5409
  153SAPE  C31117059   3.124   2.002   9.344  0.1877 -0.2152  0.6923
  153SAPE  H11X17060   3.206   1.931   9.318  1.7446  1.6928  0.1643
  153SAPE  H11Y17061   3.177   2.096   9.372  1.1065 -0.6964  0.6094
  153SAPE  C31217062   3.046   2.026   9.205  0.1384  0.4657 -0.0917
  153SAPE  H12X17063   3.121   2.055   9.129  1.2284 -1.7191  0.0666
  153SAPE  H12Y17064   2.980   2.114   9.220  0.7086  1.0206 -0.8338
  153SAPE  C31317065   2.959   1.907   9.165  0.0939  0.4672  0.2111
  153SAPE  H13X17066   2.908   1.856   9.250  1.0362  2.8503  2.3364
  153SAPE  H13Y17067   3.043   1.839   9.137  1.6591  0.8987  3.4015
  153SAPE  C31417068   2.865   1.937   9.043  0.0432 -0.1754 -0.4469
  153SAPE  H14X17069   2.783   2.004   9.078  2.3330  2.4406  0.2972
  153SAPE  H14Y17070   2.834   1.838   9.003  2.3045 -0.8706 -0.5685
  153SAPE  C31517071   2.950   1.995   8.929  0.5571  0.2464  0.6515
  153SAPE  H15X17072   3.047   1.941   8.927  0.3747 -0.1054  1.1046
  153SAPE  H15Y17073   2.959   2.104   8.945 -1.6612  0.5028  0.5265
  153SAPE  C31617074   2.888   1.983   8.792 -0.5950  0.7479 -0.1981
  153SAPE  H16X17075   2.935   2.056   8.721  0.5059  0.0235 -0.2406
  153SAPE  H16Y17076   2.779   2.007   8.795 -0.9233 -0.7460  1.7848
  153SAPE  C31717077   2.909   1.841   8.725 -0.1067 -0.0404 -0.0754
  153SAPE  H17X17078   2.822   1.828   8.658 -1.2123 -0.9618  1.4669
  153SAPE  H17Y17079   2.891   1.765   8.804 -1.2743 -1.2000 -1.4093
  153SAPE  C31817080   3.041   1.834   8.648  0.0968  0.0461 -0.1627
  153SAPE  H18X17081   3.055   1.731   8.609 -2.3293 -0.4374  0.0643
  153SAPE  H18Y17082   3.125   1.869   8.711 -0.8346  0.6782  0.7641
  153SAPE  H18Z17083   3.020   1.909   8.568 -2.6397 -0.0459  0.3749
  154SAPE     N17084   3.523   5.078  10.949 -0.2809 -0.2523  0.2658
  154SAPE   HN117085   3.506   5.180  10.940 -0.9906 -0.2601  1.3026
  154SAPE   HN217086   3.609   5.060  11.005  0.6579 -1.6092 -1.5367
  154SAPE   HN317087   3.534   5.034  10.856 -1.1178 -3.7113  1.6468
  154SAPE   C1217088   3.406   5.020  11.018  0.2829  0.2178 -0.7603
  154SAPE  H12A17089   3.391   5.070  11.117  1.9414  0.2996 -0.5229
  154SAPE  H12B17090   3.419   4.913  11.044  1.2857  0.6872  0.8513
  154SAPE   C1117091   3.273   5.040  10.939 -0.1515 -0.0452 -0.3235
  154SAPE  H11A17092   3.259   5.149  10.923 -1.9041 -0.3610 -1.2053
  154SAPE  H11B17093   3.187   5.010  11.003  1.5957 -4.2985  0.3902
  154SAPE     P17094   3.192   4.844  10.800 -0.2451 -0.1076 -0.0960
  154SAPE   O1317095   3.253   4.745  10.893  0.2457 -0.3482  1.1006
  154SAPE   O1417096   3.045   4.870  10.809 -0.1196  0.3122 -0.8065
  154SAPE   O1217097   3.271   4.985  10.808 -0.2932  0.4821  0.2497
  154SAPE   O1117098   3.234   4.797  10.657 -0.2439  0.3333  0.6684
  154SAPE    C117099   3.225   4.895  10.551 -0.0357  0.5124  0.1361
  154SAPE    HA17100   3.228   5.001  10.584 -0.7892  0.3134  0.8647
  154SAPE    HB17101   3.313   4.889  10.483 -0.4808  2.9867 -0.7752
  154SAPE    C217102   3.102   4.881  10.453 -0.3827 -0.4017  0.1144
  154SAPE    HS17103   3.034   4.838  10.529  2.4269 -1.1019  2.4060
  154SAPE   O2117104   3.130   4.784  10.352  0.3779 -0.0294  0.1104
  154SAPE   C2117105   3.114   4.660  10.382  0.0771  0.2639  0.2909
  154SAPE   O2217106   3.069   4.606  10.477 -0.4951 -0.3797 -0.1575
  154SAPE   C2217107   3.134   4.575  10.250  0.1278 -0.5900  0.0548
  154SAPE   H2R17108   3.068   4.605  10.166  0.4123  0.9899  0.3725
  154SAPE   H2S17109   3.240   4.597  10.225  0.4105 -1.4714  0.4310
  154SAPE    C317110   3.055   5.021  10.397  0.1770 -0.1880  0.0796
  154SAPE    HX17111   3.147   5.065  10.354  1.5938 -1.8468  1.2334
  154SAPE    HY17112   3.025   5.087  10.481 -0.4798 -0.2292 -0.1189
  154SAPE   O3117113   2.956   5.015  10.289 -0.2246  0.2398  0.7484
  154SAPE   C3117114   2.831   4.976  10.328  0.5425 -0.5196  0.8688
  154SAPE   O3217115   2.788   4.977  10.445 -0.0432  0.1195 -0.9281
  154SAPE   C3217116   2.756   4.906  10.220 -0.5341  0.1962 -0.4406
  154SAPE   H2X17117   2.650   4.939  10.233 -0.5925 -0.3634  0.5677
  154SAPE   H2Y17118   2.763   4.797  10.237 -0.5241  0.2936  0.1894
  154SAPE   C2317119   3.126   4.423  10.263 -0.1013  0.2486 -0.0637
  154SAPE   H3R17120   3.031   4.398  10.315 -0.1249  1.5420  0.5474
  154SAPE   H3S17121   3.195   4.391  10.344 -1.4531 -0.8012  0.7289
  154SAPE   C2417122   3.128   4.328  10.138 -0.8946 -0.0092 -0.2328
  154SAPE   H4R17123   3.061   4.370  10.059  0.7370  2.0901 -0.5819
  154SAPE   H4S17124   3.079   4.235  10.175 -0.7941  0.2574  0.5710
  154SAPE   C2517125   3.274   4.308  10.092 -0.1761  0.5546 -0.1653
  154SAPE   H5R17126   3.339   4.282  10.176  0.1439  0.3360 -0.4771
  154SAPE   C2617127   3.308   4.321   9.960 -0.6189 -0.7886  0.3308
  154SAPE   H6R17128   3.416   4.326   9.939 -0.6676 -0.0418  0.2347
  154SAPE   C2717129   3.211   4.349   9.849 -0.4099 -0.4135 -0.0857
  154SAPE   H7R17130   3.270   4.391   9.765  1.1999  0.5524  1.4706
  154SAPE   H7S17131   3.140   4.432   9.867 -0.0084 -0.4118  1.5870
  154SAPE   C2817132   3.139   4.234   9.789  0.3232 -0.2479  0.3630
  154SAPE   H8R17133   3.136   4.147   9.857  1.9173 -1.2872 -0.8346
  154SAPE   C2917134   3.095   4.218   9.663 -0.0544  0.3187 -0.5749
  154SAPE   H9R17135   3.048   4.122   9.640  0.2402 -0.4341  1.6556
  154SAPE  C21017136   3.112   4.321   9.552 -0.4318 -0.3327  0.0846
  154SAPE  H10R17137   3.103   4.425   9.589 -2.2317  0.0967 -1.3945
  154SAPE  H10S17138   3.027   4.322   9.480 -1.5017 -0.0237  1.3199
  154SAPE  C21117139   3.240   4.296   9.474 -0.1253  1.0253 -0.4691
  154SAPE  H11R17140   3.326   4.276   9.539  0.4637  1.8554 -0.9803
  154SAPE  C21217141   3.257   4.296   9.340  0.1029 -0.4088 -0.5427
  154SAPE  H12R17142   3.356   4.268   9.303 -0.7516 -2.3653 -1.4899
  154SAPE  C21317143   3.141   4.315   9.238  0.4986  0.5678 -0.1262
  154SAPE  H13R17144   3.042   4.280   9.272  2.2358 -1.2127  3.6398
  154SAPE  H13S17145   3.158   4.236   9.162 -1.1052  1.0248 -1.0104
  154SAPE  C21417146   3.134   4.458   9.181 -0.1036  0.1638 -0.4297
  154SAPE  H14R17147   3.058   4.525   9.224 -1.6115 -1.6321 -0.1678
  154SAPE  C21517148   3.221   4.500   9.088 -0.5930 -0.0931 -0.2886
  154SAPE  H15R17149   3.223   4.604   9.051  0.6265 -0.6985 -2.0702
  154SAPE  C21617150   3.336   4.419   9.032  0.0503 -0.1125  0.1152
  154SAPE  H16R17151   3.348   4.317   9.074 -0.9614 -0.2582  0.0551
  154SAPE  H16S17152   3.427   4.475   9.065 -0.3905 -0.0351  1.2757
  154SAPE  C21717153   3.341   4.411   8.875  0.8644 -0.1582 -0.9317
  154SAPE  H17R17154   3.434   4.352   8.855  0.0852 -2.7901  2.2705
  154SAPE  H17S17155   3.341   4.515   8.837  0.4758 -0.3869 -1.5811
  154SAPE  C21817156   3.224   4.342   8.816 -0.0806  0.2259  0.4128
  154SAPE  H18R17157   3.125   4.391   8.831 -0.6825 -0.7971 -0.0362
  154SAPE  H18S17158   3.209   4.238   8.852 -3.6446  0.4126 -0.1470
  154SAPE  C21917159   3.257   4.339   8.665 -0.2719  0.1962 -0.6018
  154SAPE  H19R17160   3.352   4.285   8.647  0.8174  1.8942 -0.1728
  154SAPE  H19S17161   3.269   4.446   8.638  1.0058  0.0024 -0.8766
  154SAPE  C22017162   3.146   4.292   8.575 -1.3030 -0.3552  0.3415
  154SAPE  H20R17163   3.124   4.184   8.590  1.3956 -0.6822  3.0147
  154SAPE  H20S17164   3.173   4.310   8.469  0.0774 -1.3585  0.4942
  154SAPE  H20T17165   3.054   4.351   8.594 -0.5136  0.4473  1.8606
  154SAPE   C3317166   2.796   4.943  10.076  0.5754 -0.2509 -0.1572
  154SAPE   H3X17167   2.905   4.920  10.077  0.8116  0.8162 -0.5485
  154SAPE   H3Y17168   2.789   5.053  10.064 -2.7259 -0.3423  0.2487
  154SAPE   C3417169   2.711   4.880   9.962 -0.2351 -0.0685 -0.2200
  154SAPE   H4X17170   2.602   4.867   9.982 -0.4320 -0.5018 -1.4494
  154SAPE   H4Y17171   2.755   4.778   9.954 -0.3826  0.0020 -2.5389
  154SAPE   C3517172   2.729   4.951   9.824 -0.1917  0.1122 -0.3816
  154SAPE   H5X17173   2.834   4.965   9.790 -0.4461 -0.2620 -1.3612
  154SAPE   H5Y17174   2.681   5.051   9.832 -1.9369 -0.7409  0.4466
  154SAPE   C3617175   2.664   4.870   9.719 -0.3942 -0.2058  0.7305
  154SAPE   H6X17176   2.565   4.831   9.753  0.9893 -3.5972  1.3384
  154SAPE   H6Y17177   2.721   4.778   9.692  0.1903  0.2261  0.4807
  154SAPE   C3717178   2.649   4.962   9.594 -0.1081 -0.7278 -0.6061
  154SAPE   H7X17179   2.747   5.012   9.577 -1.1822  2.1820  1.0637
  154SAPE   H7Y17180   2.585   5.050   9.616  0.8135 -0.1196 -0.2787
  154SAPE   C3817181   2.595   4.889   9.467 -0.7596  0.9181 -1.4755
  154SAPE   H8X17182   2.493   4.851   9.491 -0.4140  0.4216 -0.7650
  154SAPE   H8Y17183   2.666   4.806   9.448 -1.1851  1.2761 -5.5914
  154SAPE   C3917184   2.583   4.981   9.343 -0.8497  0.4638 -0.2993
  154SAPE   H9X17185   2.686   5.016   9.322 -1.0613  1.0137 -0.4345
  154SAPE   H9Y17186   2.530   5.072   9.380  0.2439 -0.2367  3.3429
  154SAPE  C31017187   2.513   4.926   9.218 -0.3107  0.1346 -0.2666
  154SAPE  H10X17188   2.412   4.889   9.246 -0.3506  1.4428  1.5501
  154SAPE  H10Y17189   2.576   4.839   9.191 -0.4171 -0.5511  1.5103
  154SAPE  C31117190   2.497   5.027   9.110 -0.7060 -0.3367 -0.4391
  154SAPE  H11X17191   2.599   5.068   9.096 -0.5742 -0.8285 -0.9882
  154SAPE  H11Y17192   2.424   5.109   9.128  1.3075  1.4195  0.1451
  154SAPE  C31217193   2.453   4.959   8.982  0.3259  0.2597  1.0167
  154SAPE  H12X17194   2.364   4.892   8.993 -0.3490  0.4486 -2.2237
  154SAPE  H12Y17195   2.541   4.898   8.953 -1.9013 -3.1280  0.7932
  154SAPE  C31317196   2.434   5.065   8.869  0.0922  0.3464  0.1089
  154SAPE  H13X17197   2.527   5.121   8.845  0.5710 -0.4450  0.0876
  154SAPE  H13Y17198   2.360   5.139   8.906  1.1650  1.5018  0.0084
  154SAPE  C31417199   2.380   5.007   8.746  0.1442  0.1095  1.1625
  154SAPE  H14X17200   2.290   4.942   8.753 -0.9852  1.5807  0.7752
  154SAPE  H14Y17201   2.459   4.937   8.710  0.7789  2.1604 -1.8757
  154SAPE  C31517202   2.357   5.113   8.636  0.6429 -0.0402 -0.2023
  154SAPE  H15X17203   2.458   5.156   8.618  0.0919  1.2318 -0.3302
  154SAPE  H15Y17204   2.283   5.188   8.671  1.0809  0.3501 -0.0976
  154SAPE  C31617205   2.318   5.057   8.494 -0.2081 -0.5360 -0.1638
  154SAPE  H16X17206   2.228   4.993   8.507 -0.7717  0.0473 -1.0248
  154SAPE  H16Y17207   2.402   5.010   8.439  0.4519  0.9472 -0.4787
  154SAPE  C31717208   2.267   5.172   8.401  0.6589 -0.5282  0.4125
  154SAPE  H17X17209   2.170   5.211   8.439  1.6509  0.6189  1.9021
  154SAPE  H17Y17210   2.249   5.141   8.296 -0.3548 -3.9922  1.4979
  154SAPE  C31817211   2.355   5.299   8.403 -0.1108 -0.2844 -0.0014
  154SAPE  H18X17212   2.314   5.380   8.339 -0.0390 -0.0071  0.2985
  154SAPE  H18Y17213   2.454   5.260   8.370 -0.6303 -2.7978  1.2224
  154SAPE  H18Z17214   2.370   5.333   8.508  0.4368  0.6374 -0.3592
  155SAPE     N17215   2.699   6.267  11.336  0.5219  0.5753  0.1755
  155SAPE   HN117216   2.785   6.247  11.282  0.7358  0.3946  0.5753
  155SAPE   HN217217   2.668   6.365  11.323 -1.0898  0.3293  1.6942
  155SAPE   HN317218   2.708   6.248  11.438  2.1885  0.5351  0.0413
  155SAPE   C1217219   2.590   6.179  11.283 -0.9116  0.4329 -0.3358
  155SAPE  H12A17220   2.571   6.204  11.176 -0.5537 -1.4528 -0.8945
  155SAPE  H12B17221   2.498   6.193  11.343 -0.1030  4.1205  0.2746
  155SAPE   C1117222   2.634   6.026  11.301  0.1537  0.6219 -0.1893
  155SAPE  H11A17223   2.538   5.971  11.286  0.1351  0.6024 -0.0057
  155SAPE  H11B17224   2.670   6.004  11.404 -1.7874  0.1603  0.4534
  155SAPE     P17225   2.749   5.839  11.163  0.0194  0.2615 -0.0649
  155SAPE   O1317226   2.896   5.795  11.179 -0.5678 -0.0323 -0.2519
  155SAPE   O1417227   2.639   5.757  11.228 -0.8906 -0.1357 -0.4648
  155SAPE   O1217228   2.740   5.993  11.204 -0.0822 -0.1576 -0.1142
  155SAPE   O1117229   2.713   5.827  11.009 -0.0266 -0.7234 -0.6167
  155SAPE    C117230   2.633   5.928  10.943  0.2131 -0.6555  0.6317
  155SAPE    HA17231   2.547   5.949  11.010  1.8677  0.7038  2.4375
  155SAPE    HB17232   2.687   6.024  10.938  0.0835 -0.6336 -2.8373
  155SAPE    C217233   2.576   5.896  10.801  0.1914 -0.9172  0.1687
  155SAPE    HS17234   2.519   5.803  10.819  0.4988 -1.4567 -1.4690
  155SAPE   O2117235   2.686   5.861  10.715 -0.0038 -0.0259 -0.0975
  155SAPE   C2117236   2.714   5.728  10.705 -1.0039  0.1119  0.4102
  155SAPE   O2217237   2.648   5.639  10.748 -0.0391  1.1051 -0.8046
  155SAPE   C2217238   2.843   5.702  10.620  0.7041  0.1777 -0.0127
  155SAPE   H2R17239   2.930   5.698  10.688 -0.8400  0.8271  2.1261
  155SAPE   H2S17240   2.830   5.601  10.577 -0.6309  0.3991 -0.1794
  155SAPE    C317241   2.494   6.007  10.729 -0.0120 -0.4870  0.3214
  155SAPE    HX17242   2.570   6.085  10.706  0.4386 -0.9723  0.1457
  155SAPE    HY17243   2.414   6.046  10.795 -0.8269 -1.6881  0.0692
  155SAPE   O3117244   2.445   5.947  10.612  0.0287  0.0139 -0.2418
  155SAPE   C3117245   2.320   5.903  10.610 -0.3585  0.0050  0.2667
  155SAPE   O3217246   2.232   5.922  10.690  0.2860 -0.2390 -0.8000
  155SAPE   C3217247   2.298   5.817  10.486  0.7230  0.4383 -0.2436
  155SAPE   H2X17248   2.390   5.760  10.464  0.7451  1.0125 -1.7229
  155SAPE   H2Y17249   2.276   5.881  10.398  0.9866  2.0935  0.8501
  155SAPE   C2317250   2.860   5.791  10.499  0.5669 -0.0826 -0.1671
  155SAPE   H3R17251   2.953   5.766  10.444  1.1150  1.8823 -0.2120
  155SAPE   H3S17252   2.879   5.893  10.539 -0.6766 -0.4517  1.5062
  155SAPE   C2417253   2.744   5.774  10.400 -0.0202 -0.5859  0.6301
  155SAPE   H4R17254   2.654   5.831  10.433  0.2803 -1.2152  2.6942
  155SAPE   H4S17255   2.723   5.666  10.393  3.7591 -1.3280 -2.5609
  155SAPE   C2517256   2.781   5.814  10.257  0.5571 -0.4842  0.3345
  155SAPE   H5R17257   2.888   5.793  10.238  0.9754 -0.5142  2.4660
  155SAPE   C2617258   2.698   5.849  10.157 -0.1854 -0.6831 -0.0778
  155SAPE   H6R17259   2.744   5.876  10.060 -2.1008  1.2122 -0.5481
  155SAPE   C2717260   2.555   5.866  10.164  0.6223 -0.1082 -0.1697
  155SAPE   H7R17261   2.538   5.975  10.150 -3.4610 -0.6848 -1.0808
  155SAPE   H7S17262   2.517   5.844  10.266  0.2524 -0.8860 -0.4625
  155SAPE   C2817263   2.482   5.775  10.072  0.3633  0.7586 -0.3038
  155SAPE   H8R17264   2.434   5.688  10.119  1.0698 -0.5222 -1.8433
  155SAPE   C2917265   2.452   5.792   9.940  0.3629  0.0992 -0.0239
  155SAPE   H9R17266   2.381   5.721   9.897  0.2562  0.8601 -1.1459
  155SAPE  C21017267   2.490   5.911   9.856  0.0281 -0.4060 -0.3408
  155SAPE  H10R17268   2.576   5.888   9.789 -1.1359  0.0189 -2.0675
  155SAPE  H10S17269   2.520   5.993   9.925 -2.0835 -0.6271  0.9458
  155SAPE  C21117270   2.374   5.942   9.770 -0.8713  0.1725 -0.4529
  155SAPE  H11R17271   2.278   5.923   9.820 -1.7242  1.0258 -1.6893
  155SAPE  C21217272   2.383   5.970   9.638  0.2222  0.2694  0.0772
  155SAPE  H12R17273   2.290   5.977   9.581  1.0012 -1.4995 -1.5134
  155SAPE  C21317274   2.509   5.984   9.552 -0.6203 -0.4766 -0.1956
  155SAPE  H13R17275   2.551   5.886   9.523 -1.5195 -1.9682  3.1019
  155SAPE  H13S17276   2.587   6.027   9.619 -0.9238  2.2107 -1.4155
  155SAPE  C21417277   2.488   6.081   9.442  0.2258 -0.1253 -0.3920
  155SAPE  H14R17278   2.542   6.177   9.454  2.1137 -1.2459  0.4676
  155SAPE  C21517279   2.428   6.049   9.328  0.2991 -0.2140 -0.3138
  155SAPE  H15R17280   2.408   6.118   9.245  2.1741  1.2609  0.4011
  155SAPE  C21617281   2.364   5.913   9.302  0.1105 -0.3016 -0.5938
  155SAPE  H16R17282   2.254   5.927   9.295  0.3986  2.7481 -0.1766
  155SAPE  H16S17283   2.382   5.850   9.392  0.6900  2.7513  1.5566
  155SAPE  C21717284   2.402   5.845   9.173  1.1095 -0.1118  0.1954
  155SAPE  H17R17285   2.401   5.735   9.192  0.3290 -0.0638  0.4514
  155SAPE  H17S17286   2.508   5.845   9.141  0.7515 -0.7886 -1.0345
  155SAPE  C21817287   2.316   5.869   9.039  0.1780  0.3594  0.4050
  155SAPE  H18R17288   2.212   5.833   9.050  0.4911 -0.7911 -0.3249
  155SAPE  H18S17289   2.375   5.813   8.963  1.2429  0.7259  0.9345
  155SAPE  C21917290   2.305   6.020   9.002  0.2428 -0.1251  0.3503
  155SAPE  H19R17291   2.406   6.064   9.010 -0.9876  3.1844 -0.6421
  155SAPE  H19S17292   2.248   6.077   9.078 -2.0403  0.5649 -1.7332
  155SAPE  C22017293   2.237   6.045   8.868  0.2615  0.3860  0.0567
  155SAPE  H20R17294   2.209   6.152   8.862 -1.4493 -0.1135 -2.2528
  155SAPE  H20S17295   2.139   5.995   8.883  0.7977 -0.2504  1.6594
  155SAPE  H20T17296   2.310   6.021   8.788 -0.6566 -0.7156 -0.4850
  155SAPE   C3317297   2.182   5.708  10.508  0.2295  0.4426 -0.8378
  155SAPE   H3X17298   2.089   5.765  10.487 -1.2383 -2.0140 -1.4419
  155SAPE   H3Y17299   2.174   5.671  10.612  2.3808 -1.6817 -1.3274
  155SAPE   C3417300   2.205   5.591  10.411  0.6686 -0.0307  0.4619
  155SAPE   H4X17301   2.121   5.521  10.432  1.4972 -1.9271 -2.0207
  155SAPE   H4Y17302   2.307   5.549  10.420  1.9332  2.8218  0.3811
  155SAPE   C3517303   2.196   5.643  10.265 -0.3785 -0.2176  0.8249
  155SAPE   H5X17304   2.275   5.715  10.236 -1.3414  0.2691 -0.6753
  155SAPE   H5Y17305   2.101   5.701  10.264  0.2667  0.8556  0.7999
  155SAPE   C3617306   2.176   5.531  10.156 -0.6420 -0.1509 -0.6197
  155SAPE   H6X17307   2.114   5.442  10.181  0.4614 -0.8509 -0.3512
  155SAPE   H6Y17308   2.276   5.495  10.125  0.7784 -0.5342  3.7754
  155SAPE   C3717309   2.109   5.586  10.020 -0.4131 -0.2075  0.0493
  155SAPE   H7X17310   2.179   5.664   9.983 -0.2796  0.2487  1.2133
  155SAPE   H7Y17311   2.012   5.635  10.042  0.9001  1.0469  3.8701
  155SAPE   C3817312   2.103   5.483   9.900  1.1596  0.2313  0.2858
  155SAPE   H8X17313   2.022   5.409   9.916 -2.9678  3.8545 -1.7168
  155SAPE   H8Y17314   2.200   5.429   9.900  1.2212  0.3145 -0.8613
  155SAPE   C3917315   2.063   5.558   9.772  0.4215  0.5514 -0.4181
  155SAPE   H9X17316   2.105   5.660   9.762  0.1643  0.7265  0.2844
  155SAPE   H9Y17317   1.954   5.578   9.770  0.2498 -0.2439  0.5048
  155SAPE  C31017318   2.098   5.473   9.653 -0.5670  0.2403 -0.4342
  155SAPE  H10X17319   2.050   5.373   9.648  0.2008 -0.1226 -0.6823
  155SAPE  H10Y17320   2.209   5.465   9.642 -0.4059  1.0666  0.4578
  155SAPE  C31117321   2.042   5.533   9.522  0.0930  0.3899 -0.0537
  155SAPE  H11X17322   2.079   5.637   9.525  0.9428  0.0717  1.4019
  155SAPE  H11Y17323   1.931   5.523   9.522  0.2076 -1.1083 -0.2319
  155SAPE  C31217324   2.091   5.440   9.403 -0.2771 -0.2961  0.5032
  155SAPE  H12X17325   2.041   5.343   9.421  0.9766 -0.9413  0.6428
  155SAPE  H12Y17326   2.201   5.427   9.411 -0.4210 -0.7347  2.3009
  155SAPE  C31317327   2.050   5.499   9.269 -0.1080 -0.1287 -0.2023
  155SAPE  H13X17328   2.114   5.584   9.238  0.7165 -1.0809 -1.2134
  155SAPE  H13Y17329   1.945   5.537   9.269  0.0827  0.4663  1.3859
  155SAPE  C31417330   2.058   5.393   9.160  0.2390 -0.4768  0.0886
  155SAPE  H14X17331   1.966   5.331   9.158 -1.1504  1.2250  3.2195
  155SAPE  H14Y17332   2.139   5.321   9.184 -1.8158 -2.7896  0.4304
  155SAPE  C31517333   2.058   5.443   9.019  0.0432 -0.5710  0.1728
  155SAPE  H15X17334   2.151   5.495   8.989 -0.8646  1.6096  0.9408
  155SAPE  H15Y17335   1.975   5.516   9.023  1.9316  1.6428  1.5541
  155SAPE  C31617336   2.036   5.332   8.912  1.0413  0.1327  0.1154
  155SAPE  H16X17337   1.946   5.268   8.923  1.6670 -0.8345 -0.3087
  155SAPE  H16Y17338   2.122   5.266   8.933  0.9192 -0.2708 -0.6572
  155SAPE  C31717339   2.058   5.384   8.766 -0.4638  0.1504  0.2539
  155SAPE  H17X17340   2.056   5.292   8.704  0.5279  0.7343 -0.6778
  155SAPE  H17Y17341   2.161   5.427   8.767  0.1986 -1.3379  2.3829
  155SAPE  C31817342   1.949   5.477   8.709  0.1938 -1.1185  0.2415
  155SAPE  H18X17343   1.953   5.570   8.770 -1.0817  0.0594 -1.3700
  155SAPE  H18Y17344   1.847   5.436   8.724 -0.7928  1.6595  1.7790
  155SAPE  H18Z17345   1.954   5.491   8.599 -0.5738 -1.7248  0.1171
  156SAPE     N17346   5.430   0.957  10.521  0.4551  0.4263 -0.4550
  156SAPE   HN117347   5.349   0.918  10.573  1.0011  0.3768  0.3727
  156SAPE   HN217348   5.495   0.885  10.483  0.2707  0.3584 -0.6391
  156SAPE   HN317349   5.488   1.019  10.581  0.3352  0.6251 -0.5433
  156SAPE   C1217350   5.371   1.037  10.409  0.1885  0.7121  0.1531
  156SAPE  H12A17351   5.302   0.965  10.360  3.0699 -1.0130 -1.7081
  156SAPE  H12B17352   5.450   1.048  10.332 -0.7766  0.9447 -0.8388
  156SAPE   C1117353   5.294   1.167  10.451 -0.2798 -0.2257  0.1225
  156SAPE  H11A17354   5.249   1.213  10.361 -1.2308 -1.7054 -0.2002
  156SAPE  H11B17355   5.368   1.232  10.501 -0.1833  0.7940 -1.3053
  156SAPE     P17356   5.123   1.253  10.628 -0.2857  0.0983  0.0115
  156SAPE   O1317357   5.013   1.203  10.716  0.1750 -0.4390 -0.5998
  156SAPE   O1417358   5.227   1.352  10.681  0.6650  0.0176  0.3552
  156SAPE   O1217359   5.194   1.127  10.548  0.4030  0.3166 -0.4786
  156SAPE   O1117360   5.069   1.317  10.494 -0.3368  0.1912  0.0219
  156SAPE    C117361   4.944   1.388  10.500 -0.3419 -0.0079  0.4497
  156SAPE    HA17362   4.866   1.310  10.486  1.6821 -1.7968 -1.8418
  156SAPE    HB17363   4.937   1.441  10.597  0.1439 -0.2087  0.5950
  156SAPE    C217364   4.930   1.492  10.380 -0.3437 -0.1072 -0.0213
  156SAPE    HS17365   4.951   1.437  10.286 -0.1139  1.8167 -1.1470
  156SAPE   O2117366   5.021   1.595  10.403  0.5576 -0.1432 -0.1481
  156SAPE   C2117367   5.075   1.651  10.297  0.1733 -0.1256 -0.1685
  156SAPE   O2217368   5.054   1.619  10.182 -0.5213 -0.0677  0.2260
  156SAPE   C2217369   5.188   1.745  10.343  0.1263  0.3372  0.1927
  156SAPE   H2R17370   5.170   1.810  10.431  1.2669  2.7405 -1.2574
  156SAPE   H2S17371   5.268   1.678  10.382 -0.6648 -0.3003  0.7424
  156SAPE    C317372   4.788   1.556  10.373  0.0901 -0.4695 -0.4201
  156SAPE    HX17373   4.785   1.632  10.454  0.0930  0.0535 -0.9017
  156SAPE    HY17374   4.712   1.475  10.382 -1.5486  1.0093 -0.4567
  156SAPE   O3117375   4.769   1.624  10.247 -0.3477 -0.3873 -0.2905
  156SAPE   C3117376   4.740   1.550  10.141  0.5601 -0.2899 -0.9862
  156SAPE   O3217377   4.735   1.429  10.148  0.2433 -0.0283  0.3859
  156SAPE   C3217378   4.719   1.631  10.018  0.3045  0.2127 -0.1825
  156SAPE   H2X17379   4.814   1.682   9.993  0.2413 -1.0385 -3.3486
  156SAPE   H2Y17380   4.641   1.710  10.032 -0.6197 -0.2650 -2.3187
  156SAPE   C2317381   5.244   1.835  10.230 -0.3176 -0.3377 -0.6590
  156SAPE   H3R17382   5.172   1.912  10.196  0.1918  0.3519 -0.2087
  156SAPE   H3S17383   5.286   1.769  10.151  1.1416 -0.1767 -0.0604
  156SAPE   C2417384   5.370   1.917  10.276 -0.0933 -0.3257  0.2820
  156SAPE   H4R17385   5.336   1.978  10.363 -0.5876 -0.2306  0.0267
  156SAPE   H4S17386   5.374   1.978  10.184  0.9319 -2.7176 -1.3633
  156SAPE   C2517387   5.495   1.839  10.302  0.4768 -0.1949  0.7171
  156SAPE   H5R17388   5.501   1.812  10.408 -2.4359 -2.9379  0.3123
  156SAPE   C2617389   5.594   1.807  10.216 -0.1140 -0.4449 -0.4831
  156SAPE   H6R17390   5.680   1.760  10.266 -0.1237 -1.2884 -1.2475
  156SAPE   C2717391   5.614   1.845  10.072 -0.1285  0.9103 -0.4638
  156SAPE   H7R17392   5.599   1.954  10.063 -1.2513  1.0827  2.3275
  156SAPE   H7S17393   5.540   1.781  10.019 -2.3338  2.1342  0.9992
  156SAPE   C2817394   5.753   1.817  10.015 -0.3850 -0.2983  0.3608
  156SAPE   H8R17395   5.836   1.881  10.046  1.0671 -1.8842 -0.1265
  156SAPE   C2917396   5.783   1.728   9.911  0.0205  0.3549 -1.0127
  156SAPE   H9R17397   5.889   1.729   9.880  0.4881 -1.4669  0.3721
  156SAPE  C21017398   5.704   1.638   9.821 -0.0211 -0.2217 -0.0935
  156SAPE  H10R17399   5.717   1.677   9.718  0.0262 -1.6989 -0.6754
  156SAPE  H10S17400   5.595   1.637   9.838 -0.3808 -0.1808 -2.1252
  156SAPE  C21117401   5.741   1.488   9.826 -0.5431 -0.8306  0.3953
  156SAPE  H11R17402   5.764   1.449   9.926 -0.6705 -4.0565 -0.7181
  156SAPE  C21217403   5.732   1.396   9.724 -0.1392 -0.1100  0.8576
  156SAPE  H12R17404   5.775   1.295   9.733 -1.1170 -0.3228  5.3448
  156SAPE  C21317405   5.673   1.436   9.591 -0.2415  0.1241 -0.0305
  156SAPE  H13R17406   5.750   1.503   9.547 -1.5522  0.5838 -1.7654
  156SAPE  H13S17407   5.582   1.498   9.607 -0.9734 -0.8657 -0.2727
  156SAPE  C21417408   5.643   1.311   9.506 -0.3181  0.4937 -0.0604
  156SAPE  H14R17409   5.550   1.262   9.541  0.1716 -0.4600 -0.0480
  156SAPE  C21517410   5.710   1.267   9.400 -0.1856 -0.3041  0.5164
  156SAPE  H15R17411   5.684   1.169   9.357 -0.7966 -0.1325  0.4874
  156SAPE  C21617412   5.831   1.331   9.333 -0.3182 -0.1733 -0.2276
  156SAPE  H16R17413   5.909   1.260   9.299  0.7767  0.3957  1.0107
  156SAPE  H16S17414   5.889   1.401   9.396  0.2827 -1.4758  0.7142
  156SAPE  C21717415   5.794   1.409   9.207 -0.3734 -0.2632 -0.1211
  156SAPE  H17R17416   5.708   1.354   9.163  0.1425 -0.1776 -1.2842
  156SAPE  H17S17417   5.882   1.391   9.142  0.7782  2.1166  0.6725
  156SAPE  C21817418   5.745   1.547   9.215 -0.2092 -0.0488  1.0643
  156SAPE  H18R17419   5.822   1.617   9.253  0.0286  0.2235  0.1045
  156SAPE  H18S17420   5.659   1.567   9.283 -1.2738  1.2568 -0.5753
  156SAPE  C21917421   5.714   1.611   9.084  0.0662 -0.7291 -0.2375
  156SAPE  H19R17422   5.798   1.591   9.014 -0.5637 -3.4001 -0.3333
  156SAPE  H19S17423   5.711   1.722   9.089 -1.7944 -0.8156  1.3507
  156SAPE  C22017424   5.574   1.572   9.029 -0.9396  0.4428 -0.0664
  156SAPE  H20R17425   5.490   1.591   9.099  0.3351 -1.6965  2.2059
  156SAPE  H20S17426   5.579   1.462   9.012  0.4158  0.3412  0.7973
  156SAPE  H20T17427   5.564   1.622   8.930  0.8612  1.0319  0.0136
  156SAPE   C3317428   4.688   1.554   9.885  0.3318  0.7976  0.7841
  156SAPE   H3X17429   4.595   1.495   9.903  0.5421  0.4670  0.7826
  156SAPE   H3Y17430   4.768   1.480   9.866 -1.8393 -1.3198 -0.7972
  156SAPE   C3417431   4.666   1.654   9.764  0.1276 -0.5226 -0.1020
  156SAPE   H4X17432   4.594   1.735   9.787  0.9548  0.1544  0.1460
  156SAPE   H4Y17433   4.624   1.586   9.686  0.8720 -1.8587  0.6231
  156SAPE   C3517434   4.798   1.708   9.713 -0.0427  0.8143 -0.6729
  156SAPE   H5X17435   4.874   1.629   9.695 -0.9180  0.3746 -2.7993
  156SAPE   H5Y17436   4.838   1.777   9.790 -2.1874  0.5705  0.7406
  156SAPE   C3617437   4.797   1.774   9.569  0.2662  0.1024 -0.3225
  156SAPE   H6X17438   4.884   1.843   9.566  1.1765 -0.9861  0.3135
  156SAPE   H6Y17439   4.699   1.827   9.571 -1.1371 -2.3164 -1.0781
  156SAPE   C3717440   4.802   1.684   9.445 -0.4130  1.1489 -0.5959
  156SAPE   H7X17441   4.722   1.608   9.460  0.4526  0.5680  1.4070
  156SAPE   H7Y17442   4.903   1.638   9.439 -0.0198  1.6877  1.1699
  156SAPE   C3817443   4.780   1.766   9.320  0.2106 -0.4474 -0.0698
  156SAPE   H8X17444   4.865   1.834   9.300  0.9920 -2.3858 -4.3458
  156SAPE   H8Y17445   4.691   1.829   9.341  1.0510  0.0349  2.3411
  156SAPE   C3917446   4.735   1.670   9.204 -0.3956 -0.6909  0.5966
  156SAPE   H9X17447   4.651   1.607   9.241 -2.2583  0.9710 -0.5902
  156SAPE   H9Y17448   4.814   1.596   9.177  0.1982 -0.6665  2.1333
  156SAPE  C31017449   4.705   1.749   9.077  0.9406  0.2896  0.0855
  156SAPE  H10X17450   4.766   1.841   9.061 -1.5962  1.7070 -2.3419
  156SAPE  H10Y17451   4.597   1.775   9.080  0.8695  0.1234  3.3718
  156SAPE  C31117452   4.705   1.659   8.952 -0.3603  0.3487  0.5497
  156SAPE  H11X17453   4.632   1.576   8.948 -0.1962  0.2113  0.3836
  156SAPE  H11Y17454   4.809   1.621   8.946 -0.7696 -0.5476 -2.0543
  156SAPE  C31217455   4.674   1.737   8.825 -0.1403 -0.4677  0.0989
  156SAPE  H12X17456   4.709   1.693   8.729 -1.3141 -0.5419 -0.3134
  156SAPE  H12Y17457   4.732   1.831   8.838 -1.2290  0.1362  0.7372
  156SAPE  C31317458   4.531   1.778   8.811  0.1951 -0.1154 -0.4038
  156SAPE  H13X17459   4.511   1.848   8.896  0.8937  0.2128 -0.4957
  156SAPE  H13Y17460   4.468   1.688   8.822  0.7517 -0.3219  1.4139
  156SAPE  C31417461   4.496   1.853   8.682 -0.4468 -0.0428  0.4895
  156SAPE  H14X17462   4.408   1.802   8.637  0.1879 -0.6052 -0.1475
  156SAPE  H14Y17463   4.580   1.816   8.619  0.5464  1.6505  0.7383
  156SAPE  C31517464   4.501   2.004   8.684  0.4080  0.7252 -0.6107
  156SAPE  H15X17465   4.607   2.034   8.696  0.1881  1.1130  0.5106
  156SAPE  H15Y17466   4.435   2.034   8.768  0.6623 -1.0949  0.2998
  156SAPE  C31617467   4.437   2.056   8.554 -0.3958 -0.7559  0.1976
  156SAPE  H16X17468   4.447   2.166   8.551 -0.1310 -0.6503  2.7731
  156SAPE  H16Y17469   4.331   2.023   8.555 -0.0229 -2.0669 -0.4148
  156SAPE  C31717470   4.477   1.991   8.418  0.1276 -0.2940  0.3898
  156SAPE  H17X17471   4.416   2.045   8.342 -1.1357 -0.4415  1.2760
  156SAPE  H17Y17472   4.443   1.886   8.422  0.1085 -0.3176 -0.2303
  156SAPE  C31817473   4.629   2.008   8.380  0.7286  0.8195 -0.4346
  156SAPE  H18X17474   4.653   1.948   8.290 -1.2859  2.7726 -2.4000
  156SAPE  H18Y17475   4.685   1.967   8.467 -1.5201 -2.3880 -0.3436
  156SAPE  H18Z17476   4.656   2.115   8.366  1.5193  0.4215 -2.2327
  157SAPE     N17477   5.906   2.531  10.868 -0.5150 -0.1807  0.1319
  157SAPE   HN117478   6.002   2.564  10.844 -1.2158  0.2773 -2.3142
  157SAPE   HN217479   5.846   2.572  10.794 -0.5317  0.3669  0.4390
  157SAPE   HN317480   5.879   2.567  10.962  2.5576  1.6528  0.4656
  157SAPE   C1217481   5.901   2.382  10.879  1.2248  0.1587 -0.1286
  157SAPE  H12A17482   5.795   2.352  10.896  1.7081 -2.1103 -0.7679
  157SAPE  H12B17483   5.955   2.343  10.968 -0.6850 -1.0858  0.5396
  157SAPE   C1117484   5.939   2.320  10.743  0.2439  0.1641  0.2109
  157SAPE  H11A17485   5.858   2.333  10.668  0.4810 -0.3292 -0.1361
  157SAPE  H11B17486   5.947   2.210  10.751 -1.7693  0.1215  3.5189
  157SAPE     P17487   6.198   2.303  10.708  0.4423 -0.2870 -0.2899
  157SAPE   O1317488   6.313   2.390  10.673  0.1495 -0.5166  0.3019
  157SAPE   O1417489   6.201   2.235  10.840  0.2241  0.1093 -0.2308
  157SAPE   O1217490   6.062   2.378  10.695 -0.2864 -0.4045  0.2173
  157SAPE   O1117491   6.198   2.192  10.594 -0.1664  0.4564  0.0425
  157SAPE    C117492   6.240   2.063  10.611  0.4921  0.6548  0.1516
  157SAPE    HA17493   6.325   2.069  10.682  1.2337  2.1489 -0.8042
  157SAPE    HB17494   6.151   2.007  10.648 -1.3052  2.7134 -0.7950
  157SAPE    C217495   6.276   1.995  10.477 -0.0058 -0.2190 -0.1325
  157SAPE    HS17496   6.303   1.888  10.489  0.7982  0.1337  1.4047
  157SAPE   O2117497   6.398   2.057  10.416 -0.0677  0.1361 -0.4129
  157SAPE   C2117498   6.514   2.014  10.472  0.1662  0.4273 -0.0893
  157SAPE   O2217499   6.519   1.949  10.576  0.4655  0.3148  0.2555
  157SAPE   C2217500   6.634   2.037  10.373 -0.7079 -0.1619 -0.0157
  157SAPE   H2R17501   6.597   2.003  10.275  2.2000  3.4569 -2.6777
  157SAPE   H2S17502   6.663   2.145  10.371  0.0122 -0.3303 -2.7552
  157SAPE    C317503   6.160   2.003  10.370  0.5135 -0.1575  0.0062
  157SAPE    HX17504   6.168   2.102  10.320 -0.6329  0.0170  0.1470
  157SAPE    HY17505   6.064   1.995  10.425  0.1157 -1.0332 -0.7682
  157SAPE   O3117506   6.171   1.901  10.273  0.1348  0.7097  0.5547
  157SAPE   C3117507   6.105   1.789  10.292 -0.0697  0.8097  0.3403
  157SAPE   O3217508   6.031   1.762  10.387  0.8190 -0.8250 -0.6113
  157SAPE   C3217509   6.124   1.707  10.171 -0.0350  0.3222 -0.4875
  157SAPE   H2X17510   6.234   1.689  10.166  0.1732  1.3860 -0.0689
  157SAPE   H2Y17511   6.083   1.767  10.087 -0.7961  1.0947  0.4163
  157SAPE   C2317512   6.756   1.948  10.408 -0.4242 -0.6645 -0.0792
  157SAPE   H3R17513   6.726   1.841  10.416 -1.0886 -0.4383  0.6118
  157SAPE   H3S17514   6.790   1.968  10.512  1.1111  1.2097 -0.8991
  157SAPE   C2417515   6.879   1.963  10.318  0.4157 -0.9709  0.2163
  157SAPE   H4R17516   6.844   1.939  10.215  2.9680 -0.0880 -0.9490
  157SAPE   H4S17517   6.940   1.874  10.344  1.3163 -0.4395 -0.0219
  157SAPE   C2517518   6.960   2.090  10.333 -0.3646 -0.2016 -0.0942
  157SAPE   H5R17519   7.001   2.111  10.432 -1.8790 -1.5750  0.8857
  157SAPE   C2617520   6.984   2.180  10.237  0.0031 -0.2547 -0.4570
  157SAPE   H6R17521   7.042   2.270  10.261  2.6555 -1.3346 -2.4006
  157SAPE   C2717522   6.937   2.172  10.091 -0.4123  0.7577 -0.0433
  157SAPE   H7R17523   6.962   2.269  10.042 -1.2194  0.7780 -0.4320
  157SAPE   H7S17524   6.829   2.146  10.080 -0.0237 -0.5383 -0.9737
  157SAPE   C2817525   7.011   2.058  10.025  0.3211 -0.4907 -0.3595
  157SAPE   H8R17526   7.038   1.972  10.088 -2.0361  1.0064  2.9853
  157SAPE   C2917527   7.044   2.059   9.894 -0.0050  0.1925 -0.2126
  157SAPE   H9R17528   7.090   1.965   9.858  4.4507  2.2269 -0.4592
  157SAPE  C21017529   7.019   2.175   9.794  0.2846 -0.2943 -0.4572
  157SAPE  H10R17530   7.084   2.166   9.705  0.8863 -0.4573 -0.0067
  157SAPE  H10S17531   7.042   2.274   9.839  4.6766 -2.0856  1.8355
  157SAPE  C21117532   6.876   2.172   9.731 -0.4200  0.3740  0.0566
  157SAPE  H11R17533   6.793   2.131   9.790  0.2152 -0.4124  0.4134
  157SAPE  C21217534   6.847   2.219   9.608 -0.4664 -0.1858  0.0151
  157SAPE  H12R17535   6.753   2.189   9.560  0.8871 -0.2342 -2.7709
  157SAPE  C21317536   6.931   2.281   9.511 -0.1942 -0.4393 -0.3250
  157SAPE  H13R17537   6.979   2.206   9.445  1.5661  1.6716 -1.5616
  157SAPE  H13S17538   7.018   2.337   9.550 -0.3702  0.1746 -0.8008
  157SAPE  C21417539   6.851   2.361   9.406  0.3031 -0.5014  1.3734
  157SAPE  H14R17540   6.750   2.389   9.438  0.4948 -0.0513  1.5958
  157SAPE  C21517541   6.892   2.404   9.283 -0.0268 -0.9060 -0.0703
  157SAPE  H15R17542   6.822   2.465   9.226  0.3693 -1.4358 -1.1495
  157SAPE  C21617543   7.032   2.380   9.235 -0.1138  0.2511  0.0746
  157SAPE  H16R17544   7.064   2.274   9.232 -1.8707 -0.3027 -0.3250
  157SAPE  H16S17545   7.108   2.435   9.294 -0.6335 -1.1966  2.2193
  157SAPE  C21717546   7.047   2.422   9.084  1.0172 -0.4060 -0.2009
  157SAPE  H17R17547   6.971   2.362   9.028 -0.1935  0.1390  0.7924
  157SAPE  H17S17548   7.148   2.395   9.046  1.3212  1.1627 -0.5582
  157SAPE  C21817549   7.024   2.572   9.055 -0.0416  0.1897  0.4589
  157SAPE  H18R17550   7.079   2.646   9.116  1.3899  0.3719 -0.9745
  157SAPE  H18S17551   6.914   2.587   9.053 -0.5333 -2.6046 -1.9571
  157SAPE  C21917552   7.066   2.601   8.908  0.3920  1.4786 -0.2174
  157SAPE  H19R17553   7.166   2.558   8.891  0.6545  1.0094  2.2051
  157SAPE  H19S17554   7.065   2.711   8.891 -4.6072  1.7809  0.4006
  157SAPE  C22017555   6.974   2.540   8.806 -0.5523 -0.2023 -0.2886
  157SAPE  H20R17556   6.871   2.582   8.811 -0.1197  0.9356 -0.7200
  157SAPE  H20S17557   6.969   2.429   8.814  0.3125 -0.2671 -0.5052
  157SAPE  H20T17558   7.016   2.563   8.706 -0.0065 -0.9568 -0.2425
  157SAPE   C3317559   6.049   1.566  10.193  0.2465  0.0584 -0.2079
  157SAPE   H3X17560   5.940   1.573  10.174  0.4762 -2.6980 -3.4775
  157SAPE   H3Y17561   6.067   1.531  10.297 -0.2502  1.2306  0.2865
  157SAPE   C3417562   6.094   1.451  10.099  0.0247  1.0606 -0.2762
  157SAPE   H4X17563   6.020   1.368  10.112 -0.9798  2.0418  0.4942
  157SAPE   H4Y17564   6.198   1.426  10.128  0.1686  2.7102  0.7305
  157SAPE   C3517565   6.092   1.492   9.951  0.2960 -0.8506  0.0099
  157SAPE   H5X17566   6.170   1.571   9.940  1.3067 -0.8594  4.6895
  157SAPE   H5Y17567   5.996   1.543   9.934  2.0067  2.2317 -1.2133
  157SAPE   C3617568   6.114   1.373   9.862 -0.3212 -0.6420 -0.6371
  157SAPE   H6X17569   6.026   1.306   9.863  0.1073 -1.3044 -2.8272
  157SAPE   H6Y17570   6.199   1.314   9.903  0.1326  2.0764  2.8903
  157SAPE   C3717571   6.127   1.418   9.716  0.2409  0.1181 -0.1882
  157SAPE   H7X17572   6.219   1.480   9.709  1.1837 -1.2764 -0.6612
  157SAPE   H7Y17573   6.044   1.480   9.675  1.0021  0.8430 -0.6608
  157SAPE   C3817574   6.125   1.286   9.634 -0.2646 -0.4327 -0.2852
  157SAPE   H8X17575   6.028   1.232   9.641 -0.2997 -0.6556 -1.9302
  157SAPE   H8Y17576   6.206   1.231   9.686  1.5711  1.5364 -0.9627
  157SAPE   C3917577   6.163   1.304   9.489  0.0686  0.3320  0.2767
  157SAPE   H9X17578   6.244   1.381   9.492 -0.7925  1.2467  2.7245
  157SAPE   H9Y17579   6.073   1.351   9.445  0.0932  2.5924  2.4495
  157SAPE  C31017580   6.200   1.175   9.411  0.1275 -0.0643  0.1355
  157SAPE  H10X17581   6.108   1.113   9.417 -1.0117  1.5455  0.0640
  157SAPE  H10Y17582   6.282   1.120   9.462  0.5689 -0.6655 -1.1755
  157SAPE  C31117583   6.233   1.198   9.263 -0.2781 -0.3982  0.2195
  157SAPE  H11X17584   6.314   1.274   9.261  0.6260 -1.3603 -0.9864
  157SAPE  H11Y17585   6.141   1.234   9.214 -1.8626 -0.9368  2.6248
  157SAPE  C31217586   6.295   1.084   9.187 -0.1157  0.5099  0.8068
  157SAPE  H12X17587   6.214   1.011   9.165 -0.4949  0.2028  2.9853
  157SAPE  H12Y17588   6.368   1.029   9.250  0.3649  1.0082  0.6860
  157SAPE  C31317589   6.368   1.133   9.064 -0.1949 -0.2452  0.0048
  157SAPE  H13X17590   6.440   1.209   9.101  0.8378 -1.1715 -0.0450
  157SAPE  H13Y17591   6.297   1.182   8.995 -0.1664 -1.3077 -0.8080
  157SAPE  C31417592   6.447   1.022   8.994  0.1443 -0.3867  0.7967
  157SAPE  H14X17593   6.375   0.942   8.968 -0.0875 -0.5679  1.9294
  157SAPE  H14Y17594   6.525   0.996   9.069  1.7601 -1.4828 -1.1577
  157SAPE  C31517595   6.521   1.069   8.873 -0.0287 -0.8955 -0.9219
  157SAPE  H15X17596   6.613   1.121   8.906 -1.0475 -0.3010  1.0850
  157SAPE  H15Y17597   6.444   1.133   8.826 -1.5890 -0.7706  1.6392
  157SAPE  C31617598   6.546   0.964   8.773  0.1721  0.1332 -0.0729
  157SAPE  H16X17599   6.603   1.006   8.688 -0.1725  0.8588  0.0499
  157SAPE  H16Y17600   6.456   0.914   8.730 -0.5327  1.1704  0.1720
  157SAPE  C31717601   6.633   0.845   8.827  0.2665  0.0440  0.7474
  157SAPE  H17X17602   6.588   0.808   8.922  1.1904  2.0076  2.0013
  157SAPE  H17Y17603   6.728   0.889   8.862 -0.5681  2.1293  0.4899
  157SAPE  C31817604   6.672   0.725   8.731  0.1702 -0.7556  0.1901
  157SAPE  H18X17605   6.714   0.644   8.796 -2.7722 -0.4549  2.7191
  157SAPE  H18Y17606   6.744   0.748   8.650  0.3070 -0.1452  0.4790
  157SAPE  H18Z17607   6.582   0.688   8.677 -0.4253  1.2960 -0.2738
  158SAPE     N17608   0.150   1.313  10.848 -0.2366  0.2510 -0.7045
  158SAPE   HN117609   0.182   1.215  10.857  0.4587  0.4359 -1.0629
  158SAPE   HN217610   0.137   1.351  10.944  1.1160 -1.5710  0.2643
  158SAPE   HN317611   0.059   1.306  10.798 -0.0825 -1.6935 -0.7841
  158SAPE   C1217612   0.245   1.404  10.772 -0.5863 -0.6446 -0.4659
  158SAPE  H12A17613   0.313   1.456  10.843  0.4656 -0.1104 -1.8188
  158SAPE  H12B17614   0.184   1.483  10.724  2.2853  1.6312 -0.6463
  158SAPE   C1117615   0.325   1.321  10.672 -0.5016  0.3456 -0.7521
  158SAPE  H11A17616   0.375   1.392  10.602  1.9939 -1.4974 -0.9744
  158SAPE  H11B17617   0.259   1.258  10.609 -0.0076 -0.1650 -0.7640
  158SAPE     P17618   0.553   1.289  10.788 -0.0579 -0.3662  0.5375
  158SAPE   O1317619   0.535   1.399  10.882 -0.1435  0.4275 -0.5428
  158SAPE   O1417620   0.629   1.170  10.840  0.0499 -0.3066  1.1927
  158SAPE   O1217621   0.419   1.235  10.732  0.1757 -0.7552 -0.5690
  158SAPE   O1117622   0.625   1.346  10.663  0.4077 -0.2195  0.6490
  158SAPE    C117623   0.669   1.242  10.574 -0.2135  0.1538 -0.3677
  158SAPE    HA17624   0.768   1.205  10.608  0.5858  0.5891 -2.1282
  158SAPE    HB17625   0.596   1.160  10.555 -2.8977  2.0269  1.2913
  158SAPE    C217626   0.695   1.304  10.429 -0.1472 -0.1379  0.5296
  158SAPE    HS17627   0.774   1.381  10.441 -0.5711  0.1051  1.9071
  158SAPE   O2117628   0.570   1.362  10.391  0.7444  0.0604  0.0710
  158SAPE   C2117629   0.573   1.462  10.303 -0.4289 -0.6302 -0.4221
  158SAPE   O2217630   0.673   1.518  10.253 -0.5024  0.1101 -0.7239
  158SAPE   C2217631   0.434   1.525  10.288  0.7464 -0.3836 -0.4234
  158SAPE   H2R17632   0.363   1.442  10.304 -0.7604  1.1859  1.5188
  158SAPE   H2S17633   0.419   1.594  10.373 -0.2097 -2.7547  1.4329
  158SAPE    C317634   0.739   1.194  10.327  0.5120  0.8746  0.1249
  158SAPE    HX17635   0.662   1.115  10.336 -1.2299  2.5343  0.4432
  158SAPE    HY17636   0.836   1.147  10.353 -0.0906  0.2681  1.3882
  158SAPE   O3117637   0.731   1.248  10.194  0.1181  0.1971 -0.0786
  158SAPE   C3117638   0.847   1.300  10.141  0.8626 -0.4283  0.0335
  158SAPE   O3217639   0.956   1.306  10.195 -0.6392  0.4090  0.4484
  158SAPE   C3217640   0.804   1.375  10.015  0.4487 -0.3941 -0.1749
  158SAPE   H2X17641   0.833   1.481  10.028 -2.1790  0.4722 -0.7134
  158SAPE   H2Y17642   0.694   1.358  10.007  0.5643 -0.7576 -1.0572
  158SAPE   C2317643   0.420   1.603  10.152 -0.3588  0.8973 -0.2734
  158SAPE   H3R17644   0.452   1.541  10.065  0.7882  2.8844 -1.3215
  158SAPE   H3S17645   0.491   1.688  10.154  1.7925 -0.8133  1.4876
  158SAPE   C2417646   0.280   1.659  10.123 -0.2621 -0.0267  0.3445
  158SAPE   H4R17647   0.299   1.737  10.046 -0.6532  0.2670  0.5452
  158SAPE   H4S17648   0.237   1.708  10.212 -3.6388  0.3013 -1.3087
  158SAPE   C2517649   0.179   1.562  10.074 -0.4060 -0.1082  0.2053
  158SAPE   H5R17650   0.128   1.510  10.156  0.0107  1.0505  1.2260
  158SAPE   C2617651   0.150   1.532   9.940 -0.5944 -0.5699  0.0906
  158SAPE   H6R17652   0.065   1.467   9.916  0.1118 -0.8508 -1.9044
  158SAPE   C2717653   0.198   1.605   9.816 -1.1066  0.2320 -0.0742
  158SAPE   H7R17654   0.209   1.532   9.733 -0.4978  0.8151 -0.5126
  158SAPE   H7S17655   0.299   1.646   9.835 -1.8443  0.9996  2.6778
  158SAPE   C2817656   0.111   1.720   9.783 -0.1990  0.1360 -0.1392
  158SAPE   H8R17657   0.008   1.717   9.824 -0.4312 -1.6883 -0.7617
  158SAPE   C2917658   0.139   1.808   9.683  0.0398  0.3530  0.1201
  158SAPE   H9R17659   0.075   1.897   9.685 -0.7080 -0.1526  2.3489
  158SAPE  C21017660   0.255   1.815   9.590  0.0094  0.6906 -0.7237
  158SAPE  H10R17661   0.341   1.757   9.631 -0.9730 -2.7667 -3.0657
  158SAPE  H10S17662   0.289   1.921   9.582  0.1582  0.8399  1.4305
  158SAPE  C21117663   0.233   1.728   9.465 -0.0094 -0.3014  0.1345
  158SAPE  H11R17664   0.190   1.630   9.487  1.5578 -1.2156 -0.7119
  158SAPE  C21217665   0.256   1.754   9.332  0.1630 -0.6857  0.0902
  158SAPE  H12R17666   0.216   1.684   9.257 -0.3240 -0.0881 -0.2249
  158SAPE  C21317667   0.304   1.892   9.278 -0.3359 -0.5162 -0.2935
  158SAPE  H13R17668   0.392   1.862   9.218  0.6939 -0.9040  1.3349
  158SAPE  H13S17669   0.357   1.943   9.361 -0.1908 -1.6518  0.3318
  158SAPE  C21417670   0.190   1.966   9.216 -0.2114  0.3477  0.5677
  158SAPE  H14R17671   0.098   1.983   9.274 -1.2262 -1.4354 -0.4334
  158SAPE  C21517672   0.188   2.001   9.089  0.0039  0.0253  0.7103
  158SAPE  H15R17673   0.099   2.054   9.052  0.1856  0.2268  0.5614
  158SAPE  C21617674   0.294   1.998   8.981 -0.6996  0.5976 -0.3733
  158SAPE  H16R17675   0.375   1.930   9.014 -1.1989  0.0845 -0.1991
  158SAPE  H16S17676   0.343   2.097   8.965  1.9319 -0.3518  1.1700
  158SAPE  C21717677   0.238   1.958   8.848 -0.2678  0.4907 -0.0029
  158SAPE  H17R17678   0.319   1.965   8.772 -0.6695  0.6930 -0.4227
  158SAPE  H17S17679   0.167   2.035   8.812 -0.3383  1.3559  1.8692
  158SAPE  C21817680   0.199   1.813   8.827  0.5226 -0.1351  0.1162
  158SAPE  H18R17681   0.118   1.787   8.899  0.0239  0.6907 -0.1262
  158SAPE  H18S17682   0.281   1.741   8.849  2.9231  2.7081  1.2180
  158SAPE  C21917683   0.153   1.788   8.685 -0.2774  0.9190  0.7557
  158SAPE  H19R17684   0.120   1.683   8.671  1.4697  0.3661  0.5264
  158SAPE  H19S17685   0.236   1.804   8.613  0.1838 -0.7958  0.8764
  158SAPE  C22017686   0.031   1.861   8.638  0.2227  0.0808  0.8250
  158SAPE  H20R17687  -0.004   1.827   8.538 -1.3415 -0.9904  1.6851
  158SAPE  H20S17688   0.061   1.967   8.627  1.0600 -0.1084  1.2302
  158SAPE  H20T17689  -0.056   1.841   8.704  1.6038 -3.0770  1.8705
  158SAPE   C3317690   0.868   1.320   9.889 -0.7627  0.3294  0.2822
  158SAPE   H3X17691   0.839   1.213   9.877 -0.6019  0.4207 -1.0561
  158SAPE   H3Y17692   0.977   1.336   9.903 -1.0131  2.9485 -0.3296
  158SAPE   C3417693   0.828   1.378   9.754  0.3725 -0.2311  0.8223
  158SAPE   H4X17694   0.848   1.487   9.759  0.8425 -0.3552  2.1052
  158SAPE   H4Y17695   0.719   1.360   9.745  0.6638 -2.0142  0.3152
  158SAPE   C3517696   0.905   1.327   9.630  0.1704 -0.2610  0.1632
  158SAPE   H5X17697   0.898   1.217   9.633 -1.7647 -0.1491  0.6478
  158SAPE   H5Y17698   1.010   1.362   9.639  0.3336 -0.4489 -0.8203
  158SAPE   C3617699   0.860   1.380   9.494 -0.4304  0.2029 -0.3104
  158SAPE   H6X17700   0.908   1.479   9.476  2.2939 -1.2461 -1.5375
  158SAPE   H6Y17701   0.749   1.392   9.494 -0.7265 -2.0554  0.7852
  158SAPE   C3717702   0.898   1.290   9.381  0.6885  0.5902  0.3364
  158SAPE   H7X17703   0.838   1.198   9.390  1.4345  0.1656  1.1243
  158SAPE   H7Y17704   1.006   1.262   9.381  0.8399  1.0717 -1.4196
  158SAPE   C3817705   0.866   1.351   9.245 -0.7706  0.4554  0.2629
  158SAPE   H8X17706   0.949   1.423   9.231  0.5371 -1.2257 -0.9600
  158SAPE   H8Y17707   0.765   1.397   9.249 -1.5132 -0.9523 -1.1820
  158SAPE   C3917708   0.842   1.246   9.134 -0.1549 -0.0034  0.0290
  158SAPE   H9X17709   0.756   1.184   9.167 -0.4263  0.0554 -0.5607
  158SAPE   H9Y17710   0.929   1.177   9.130  1.2186  1.2253  3.8632
  158SAPE  C31017711   0.815   1.303   9.002 -0.5067 -0.1099  0.4628
  158SAPE  H10X17712   0.907   1.354   8.966 -0.4929 -1.3213 -1.3482
  158SAPE  H10Y17713   0.737   1.379   9.026 -1.1424 -0.8436  0.7603
  158SAPE  C31117714   0.768   1.211   8.897 -0.2529  0.2508 -0.7402
  158SAPE  H11X17715   0.731   1.277   8.816 -4.3885 -1.2508 -0.3064
  158SAPE  H11Y17716   0.673   1.158   8.918 -1.1001  0.9031 -2.6596
  158SAPE  C31217717   0.877   1.124   8.843 -0.0104  0.6062 -0.0308
  158SAPE  H12X17718   0.934   1.075   8.925  1.8966 -0.2054 -1.7671
  158SAPE  H12Y17719   0.958   1.195   8.815  1.3158 -1.0943 -0.6940
  158SAPE  C31317720   0.838   1.002   8.745  0.0633  0.4310  0.3270
  158SAPE  H13X17721   0.749   1.033   8.686  0.0689 -1.5482 -0.8305
  158SAPE  H13Y17722   0.801   0.917   8.807 -3.1926  2.1421  0.9450
  158SAPE  C31417723   0.949   0.966   8.647 -0.7485 -0.2022 -0.5595
  158SAPE  H14X17724   0.934   0.869   8.596  2.4432 -0.6351 -0.8793
  158SAPE  H14Y17725   1.045   0.964   8.704 -1.4816  0.3977  0.7438
  158SAPE  C31517726   0.978   1.073   8.534  0.5633 -0.5848  0.1926
  158SAPE  H15X17727   1.047   1.155   8.565 -0.9439  1.4619 -1.6102
  158SAPE  H15Y17728   0.885   1.124   8.502  1.7827  1.1152 -0.7734
  158SAPE  C31617729   1.051   0.997   8.424  0.5389 -0.6893 -0.6814
  158SAPE  H16X17730   0.994   0.906   8.393 -1.4232 -0.0443  0.8384
  158SAPE  H16Y17731   1.152   0.963   8.455 -0.4328 -1.4073  1.9307
  158SAPE  C31717732   1.051   1.080   8.294  0.3370  0.0834  0.5777
  158SAPE  H17X17733   1.086   1.183   8.316 -0.1668  0.9405 -2.2150
  158SAPE  H17Y17734   0.947   1.084   8.255  1.4362  1.8135 -2.5135
  158SAPE  C31817735   1.141   1.022   8.183 -0.6023 -0.2979 -0.5760
  158SAPE  H18X17736   1.248   1.008   8.208  0.2406  0.3700 -3.3721
  158SAPE  H18Y17737   1.143   1.085   8.091 -0.4520  0.6899  0.0975
  158SAPE  H18Z17738   1.089   0.928   8.154 -0.0899 -0.4547 -1.0188
  159SAPE     N17739   2.224   1.168   6.372 -0.4731  0.2061 -0.0688
  159SAPE   HN117740   2.158   1.229   6.426  0.1061  2.8257 -2.1000
  159SAPE   HN217741   2.318   1.213   6.368 -0.5052  0.2153 -0.8482
  159SAPE   HN317742   2.203   1.160   6.271  2.2761 -0.0459 -0.6931
  159SAPE   C1217743   2.237   1.038   6.449 -0.1639 -0.4761 -0.1446
  159SAPE  H12A17744   2.144   0.985   6.419 -0.2082  0.4694 -1.8238
  159SAPE  H12B17745   2.237   1.062   6.557 -0.6864  0.0217 -0.2454
  159SAPE   C1117746   2.359   0.951   6.405 -0.0583 -0.2118 -0.1204
  159SAPE  H11A17747   2.342   0.911   6.303  0.0196  1.7231 -0.9468
  159SAPE  H11B17748   2.367   0.861   6.469 -0.9479 -0.0908  0.1732
  159SAPE     P17749   2.621   0.991   6.392  0.2289  0.1836  0.1444
  159SAPE   O1317750   2.622   0.849   6.429  0.5902 -0.2759 -0.6082
  159SAPE   O1417751   2.677   1.038   6.263  0.3253 -0.3104 -0.0345
  159SAPE   O1217752   2.472   1.040   6.392 -0.7330 -0.1068 -0.9465
  159SAPE   O1117753   2.698   1.081   6.505  0.1411 -0.4244  0.3124
  159SAPE    C117754   2.695   1.224   6.500  0.6906  0.2516 -1.0077
  159SAPE    HA17755   2.796   1.262   6.474  0.2473  2.5037  0.2893
  159SAPE    HB17756   2.619   1.274   6.437 -0.2371  0.5985  0.3242
  159SAPE    C217757   2.660   1.281   6.641  0.2953 -0.6210 -0.2178
  159SAPE    HS17758   2.610   1.379   6.626  1.9913  0.3175  0.0043
  159SAPE   O2117759   2.791   1.305   6.716  0.1212  0.1199  0.2947
  159SAPE   C2117760   2.843   1.424   6.693 -0.1711 -0.8029 -0.5307
  159SAPE   O2217761   2.806   1.508   6.611 -0.5076  0.0042  0.2726
  159SAPE   C2217762   2.973   1.433   6.773 -1.0352  0.0468  0.1245
  159SAPE   H2R17763   3.027   1.526   6.744 -3.0668  0.4139 -3.0275
  159SAPE   H2S17764   2.944   1.454   6.878  0.0481  1.7846  0.1160
  159SAPE    C317765   2.554   1.194   6.711  0.2836 -0.3945 -0.7225
  159SAPE    HX17766   2.621   1.108   6.728  0.8922  0.2421  0.2420
  159SAPE    HY17767   2.464   1.168   6.651 -1.3343 -1.0969  1.8369
  159SAPE   O3117768   2.512   1.268   6.832  0.4822 -0.4711  0.3112
  159SAPE   C3117769   2.510   1.205   6.942 -0.3874 -0.1533  0.6222
  159SAPE   O3217770   2.520   1.083   6.955  0.3446 -0.6706  0.0022
  159SAPE   C3217771   2.521   1.303   7.061 -0.1863 -0.7758 -0.4875
  159SAPE   H2X17772   2.424   1.355   7.068  0.6825  1.2307 -2.2433
  159SAPE   H2Y17773   2.598   1.378   7.034 -0.9839  0.2235 -0.0106
  159SAPE   C2317774   3.073   1.318   6.743 -0.4098  0.2454 -0.0287
  159SAPE   H3R17775   3.097   1.293   6.637 -0.0766  0.3218  0.0272
  159SAPE   H3S17776   3.021   1.227   6.778  0.7654 -0.6273 -0.4825
  159SAPE   C2417777   3.205   1.342   6.815  0.4165  0.7343  0.9602
  159SAPE   H4R17778   3.185   1.347   6.925  0.6455  1.3803  0.9739
  159SAPE   H4S17779   3.229   1.445   6.783 -2.3917  1.2490  0.2695
  159SAPE   C2517780   3.311   1.245   6.771 -0.3706 -0.0760  0.1725
  159SAPE   H5R17781   3.323   1.252   6.662 -2.4381  0.3089 -0.0655
  159SAPE   C2617782   3.382   1.158   6.842 -0.2406 -0.0281 -0.4107
  159SAPE   H6R17783   3.462   1.107   6.787  0.6710 -0.9093  1.6257
  159SAPE   C2717784   3.377   1.125   6.992 -0.4693 -0.3306 -0.3901
  159SAPE   H7R17785   3.299   1.188   7.041 -0.8572 -2.2496  1.6068
  159SAPE   H7S17786   3.467   1.155   7.049 -0.4280 -0.7096 -0.2547
  159SAPE   C2817787   3.346   0.978   7.025 -0.2863  0.4944 -0.7588
  159SAPE   H8R17788   3.310   0.909   6.948  1.7769  1.1735 -2.4081
  159SAPE   C2917789   3.369   0.928   7.151  0.2446 -0.3165 -0.5812
  159SAPE   H9R17790   3.347   0.822   7.173 -0.0803 -0.5098 -1.7692
  159SAPE  C21017791   3.434   1.001   7.265  0.3152 -0.0009 -0.1557
  159SAPE  H10R17792   3.386   0.973   7.361  1.7414  0.5218  0.7533
  159SAPE  H10S17793   3.430   1.111   7.253  1.8445 -0.0826 -1.7352
  159SAPE  C21117794   3.583   0.986   7.282 -1.2218  0.3105 -0.4907
  159SAPE  H11R17795   3.642   0.963   7.192  2.0137  0.5393  1.4205
  159SAPE  C21217796   3.663   1.011   7.391 -0.2220 -0.4455  0.2651
  159SAPE  H12R17797   3.772   1.006   7.380 -0.1090  0.0066  1.0836
  159SAPE  C21317798   3.607   1.050   7.523 -0.7102  0.1075 -0.2963
  159SAPE  H13R17799   3.695   1.048   7.590 -0.6058  0.8455 -0.3944
  159SAPE  H13S17800   3.533   0.972   7.550 -1.9377  1.8097  1.5641
  159SAPE  C21417801   3.535   1.185   7.507  0.1828  0.1111  0.2396
  159SAPE  H14R17802   3.492   1.216   7.411 -1.5820  1.5271  1.4349
  159SAPE  C21517803   3.509   1.269   7.606 -0.0572 -0.0005  0.9100
  159SAPE  H15R17804   3.466   1.363   7.569  1.0775  0.6459  1.1973
  159SAPE  C21617805   3.528   1.251   7.755  0.2368  0.2361  0.2145
  159SAPE  H16R17806   3.594   1.164   7.776  0.1603  0.1177 -0.0332
  159SAPE  H16S17807   3.423   1.238   7.789 -1.5794  1.5142 -4.2309
  159SAPE  C21717808   3.586   1.373   7.825 -0.1516  1.0451 -0.3251
  159SAPE  H17R17809   3.629   1.335   7.920 -2.6846  2.6846  1.6241
  159SAPE  H17S17810   3.517   1.457   7.849  0.0149  1.2586 -0.5886
  159SAPE  C21817811   3.705   1.441   7.750  0.3147 -1.1125  0.2472
  159SAPE  H18R17812   3.664   1.497   7.663  0.8691 -0.9439  0.0859
  159SAPE  H18S17813   3.768   1.359   7.709  0.5275 -0.1895 -1.3504
  159SAPE  C21917814   3.787   1.547   7.823 -1.0077  0.1669  0.1597
  159SAPE  H19R17815   3.837   1.485   7.900 -2.1600 -1.6925 -0.5270
  159SAPE  H19S17816   3.717   1.622   7.867 -1.6050  0.1077 -0.6622
  159SAPE  C22017817   3.879   1.623   7.740 -0.4501 -0.2786  0.4088
  159SAPE  H20R17818   3.830   1.709   7.691  0.0145 -0.3823 -0.2634
  159SAPE  H20S17819   3.910   1.562   7.652 -0.6675  0.1198  0.0504
  159SAPE  H20T17820   3.968   1.650   7.801  0.6276  0.3395 -1.3520
  159SAPE   C3317821   2.578   1.221   7.173 -0.1457  0.2181 -0.7847
  159SAPE   H3X17822   2.689   1.226   7.162 -0.0310  0.5442  0.3728
  159SAPE   H3Y17823   2.538   1.117   7.175  0.7563 -0.1769  2.5780
  159SAPE   C3417824   2.540   1.288   7.301 -0.4579  0.4096  0.0905
  159SAPE   H4X17825   2.430   1.305   7.302 -0.2425  2.1348 -0.6623
  159SAPE   H4Y17826   2.586   1.389   7.302  0.4807 -0.0116  0.6848
  159SAPE   C3517827   2.586   1.212   7.426  0.1608  0.0056  0.4337
  159SAPE   H5X17828   2.697   1.203   7.430  0.6281  3.2751 -1.3765
  159SAPE   H5Y17829   2.550   1.107   7.421  0.5562 -0.2176  1.8352
  159SAPE   C3617830   2.552   1.293   7.552  0.1970  0.4794  0.0454
  159SAPE   H6X17831   2.442   1.309   7.549  0.1804  0.3943 -2.8206
  159SAPE   H6Y17832   2.606   1.390   7.551 -0.3477  0.7865 -0.0537
  159SAPE   C3717833   2.593   1.213   7.676  0.9345 -0.0614 -0.1268
  159SAPE   H7X17834   2.700   1.188   7.655  0.1203 -1.4487 -3.1919
  159SAPE   H7Y17835   2.544   1.114   7.674  0.3696  0.2225 -0.4030
  159SAPE   C3817836   2.568   1.293   7.804 -0.2770 -0.6203  0.3112
  159SAPE   H8X17837   2.474   1.346   7.778 -0.2965 -2.2467 -3.5334
  159SAPE   H8Y17838   2.649   1.366   7.822  0.8346 -2.2027  2.1952
  159SAPE   C3917839   2.562   1.208   7.938 -0.3045 -0.7885 -0.4497
  159SAPE   H9X17840   2.579   1.278   8.021  2.2596 -0.5338 -1.0970
  159SAPE   H9Y17841   2.650   1.139   7.940  0.6448  0.4049  1.8579
  159SAPE  C31017842   2.419   1.143   7.953  0.2966  0.6688  0.5998
  159SAPE  H10X17843   2.395   1.089   7.859  2.6478  2.3186 -1.0652
  159SAPE  H10Y17844   2.354   1.232   7.942 -0.0923  0.0709 -3.7152
  159SAPE  C31117845   2.399   1.064   8.075  0.6508 -0.0888 -0.2598
  159SAPE  H11X17846   2.445   0.970   8.041 -0.8102  0.5554 -4.6755
  159SAPE  H11Y17847   2.289   1.046   8.076  0.7546 -0.8333 -1.2578
  159SAPE  C31217848   2.464   1.113   8.205  0.3145  0.0650 -0.1268
  159SAPE  H12X17849   2.451   1.222   8.221 -0.7094  0.1674 -1.4776
  159SAPE  H12Y17850   2.573   1.102   8.187 -0.1926 -0.5819 -3.3147
  159SAPE  C31317851   2.413   1.033   8.328  1.1478 -0.0776  0.1658
  159SAPE  H13X17852   2.451   0.929   8.333  0.3611 -0.4824 -1.4501
  159SAPE  H13Y17853   2.302   1.023   8.324  1.0147  1.3750 -0.5600
  159SAPE  C31417854   2.439   1.093   8.467 -0.2137  0.1961 -0.2037
  159SAPE  H14X17855   2.394   1.037   8.551 -1.6295  0.3007 -0.8576
  159SAPE  H14Y17856   2.380   1.187   8.476 -1.5246 -0.5029 -1.2199
  159SAPE  C31517857   2.588   1.111   8.488 -1.1155  0.8057 -0.5606
  159SAPE  H15X17858   2.636   1.160   8.400 -1.7534 -1.2808 -2.1548
  159SAPE  H15Y17859   2.647   1.017   8.484 -1.1223  0.7222  0.8841
  159SAPE  C31617860   2.619   1.173   8.623 -0.1912  0.9170 -0.5103
  159SAPE  H16X17861   2.599   1.100   8.704  3.7864 -0.7440 -0.7867
  159SAPE  H16Y17862   2.556   1.264   8.636 -1.2394  0.6508 -3.1935
  159SAPE  C31717863   2.773   1.200   8.648  0.2586 -0.3224 -0.1330
  159SAPE  H17X17864   2.783   1.231   8.755  3.1246 -2.6126  0.3649
  159SAPE  H17Y17865   2.805   1.288   8.589 -0.2463  1.0504  1.5268
  159SAPE  C31817866   2.870   1.084   8.626 -0.6123  0.5255 -0.5550
  159SAPE  H18X17867   2.972   1.119   8.654  1.1687 -3.8617 -0.6991
  159SAPE  H18Y17868   2.875   1.064   8.517 -1.8799  1.1822 -0.7414
  159SAPE  H18Z17869   2.844   0.985   8.670  2.1459  0.3304  0.8777
  160SAPE     N17870   3.706   1.597   6.468 -0.6235 -0.3575 -0.5781
  160SAPE   HN117871   3.798   1.631   6.435 -1.6316  0.3857 -2.8033
  160SAPE   HN217872   3.708   1.493   6.463 -0.4395 -0.4903  1.5363
  160SAPE   HN317873   3.625   1.620   6.408 -2.3881  0.0716  1.8114
  160SAPE   C1217874   3.668   1.653   6.600 -0.4220 -0.3280 -0.2419
  160SAPE  H12A17875   3.644   1.760   6.583  0.4595  0.3051  2.1503
  160SAPE  H12B17876   3.758   1.651   6.664 -0.0836 -1.4544 -0.7334
  160SAPE   C1117877   3.554   1.576   6.659  0.3458  0.4417  0.9330
  160SAPE  H11A17878   3.540   1.612   6.763 -1.7479 -1.4836  1.3916
  160SAPE  H11B17879   3.575   1.467   6.671  0.6306  0.1975 -1.3125
  160SAPE     P17880   3.324   1.700   6.605 -0.0419 -0.5074 -0.1401
  160SAPE   O1317881   3.403   1.828   6.617  0.9994 -0.1063 -0.5061
  160SAPE   O1417882   3.213   1.686   6.508  1.0368 -0.1575  0.3798
  160SAPE   O1217883   3.432   1.584   6.584  0.0475  0.0100 -0.6799
  160SAPE   O1117884   3.265   1.670   6.750 -0.1074  0.1222  0.2653
  160SAPE    C117885   3.237   1.770   6.840  0.3505  0.1030  0.1280
  160SAPE    HA17886   3.222   1.871   6.796  2.4979  0.7491  0.7782
  160SAPE    HB17887   3.135   1.753   6.880  1.2603 -0.7282  2.1967
  160SAPE    C217888   3.344   1.787   6.953  0.2038 -0.1144  0.2861
  160SAPE    HS17889   3.443   1.818   6.913  1.4022 -0.1820  2.9407
  160SAPE   O2117890   3.361   1.665   7.029 -0.0664 -0.6205 -0.0476
  160SAPE   C2117891   3.483   1.632   7.056 -0.7558  0.0243  1.0276
  160SAPE   O2217892   3.585   1.681   7.013 -0.4278 -0.4608  0.4026
  160SAPE   C2217893   3.478   1.503   7.139  0.1410 -0.1374  0.2691
  160SAPE   H2R17894   3.373   1.480   7.167 -0.2784  2.4350  1.0900
  160SAPE   H2S17895   3.527   1.418   7.087 -0.7160 -1.3363  1.3500
  160SAPE    C317896   3.303   1.905   7.049 -0.1378 -0.0281  0.0071
  160SAPE    HX17897   3.209   1.874   7.100 -0.5346 -2.4180 -1.9634
  160SAPE    HY17898   3.270   1.991   6.988 -0.7178 -1.1395 -1.3057
  160SAPE   O3117899   3.414   1.925   7.147  0.4749  0.1776  0.2545
  160SAPE   C3117900   3.506   2.005   7.105 -0.5894 -0.5776  0.4240
  160SAPE   O3217901   3.506   2.058   6.992  0.2129 -0.2775 -0.4268
  160SAPE   C3217902   3.613   2.033   7.214 -0.5927  0.1709 -0.6869
  160SAPE   H2X17903   3.704   1.982   7.177 -0.5154 -1.5247  1.6019
  160SAPE   H2Y17904   3.597   1.987   7.314 -1.2708  0.5155 -0.6276
  160SAPE   C2317905   3.555   1.514   7.281 -0.1775 -0.0369  0.3603
  160SAPE   H3R17906   3.631   1.594   7.265 -0.9880  1.0580  1.8030
  160SAPE   H3S17907   3.616   1.421   7.292  0.2311  0.0750 -0.8134
  160SAPE   C2417908   3.459   1.549   7.406 -0.8934 -0.5623  0.0813
  160SAPE   H4R17909   3.520   1.557   7.498 -0.8971 -1.1599  0.1374
  160SAPE   H4S17910   3.378   1.473   7.409 -4.2074  2.4523 -2.8580
  160SAPE   C2517911   3.392   1.684   7.373  0.2956  0.5852  0.3262
  160SAPE   H5R17912   3.328   1.681   7.284 -1.0780  0.6807  1.2782
  160SAPE   C2617913   3.416   1.789   7.448 -0.0697 -0.8971 -0.4243
  160SAPE   H6R17914   3.364   1.884   7.428 -0.7466 -1.3329 -0.7603
  160SAPE   C2717915   3.502   1.793   7.572 -0.0804 -0.2054 -0.3851
  160SAPE   H7R17916   3.513   1.697   7.626  0.3857 -0.7903 -1.5059
  160SAPE   H7S17917   3.444   1.859   7.641 -0.5395 -0.5944 -0.3954
  160SAPE   C2817918   3.640   1.844   7.545 -0.6942 -0.1683 -0.2110
  160SAPE   H8R17919   3.694   1.808   7.456 -1.1172  0.9990 -0.9672
  160SAPE   C2917920   3.691   1.944   7.623  0.5772 -0.4580 -0.1112
  160SAPE   H9R17921   3.790   1.989   7.604  0.4803 -0.4985 -0.7247
  160SAPE  C21017922   3.619   1.991   7.750 -0.2095  0.0559 -0.3800
  160SAPE  H10R17923   3.691   2.061   7.798 -1.6417  0.0996  1.8336
  160SAPE  H10S17924   3.594   1.911   7.823  2.0386 -1.0517 -0.7110
  160SAPE  C21117925   3.502   2.079   7.731  0.9425  1.0778  0.1557
  160SAPE  H11R17926   3.494   2.131   7.634  1.3010 -1.2750 -1.2198
  160SAPE  C21217927   3.401   2.102   7.818  0.3859 -0.2034 -1.1491
  160SAPE  H12R17928   3.315   2.166   7.789  1.5166  0.5583 -3.0086
  160SAPE  C21317929   3.392   2.030   7.957  0.0620  0.1542  0.3970
  160SAPE  H13R17930   3.320   2.090   8.017  0.4830 -1.3501  2.5024
  160SAPE  H13S17931   3.495   2.041   7.997  0.5375  4.4462 -1.4013
  160SAPE  C21417932   3.354   1.882   7.963  0.8955  0.4887  0.2260
  160SAPE  H14R17933   3.322   1.839   7.866 -0.3706  0.8291  0.4767
  160SAPE  C21517934   3.341   1.810   8.078  0.0843  0.3266  0.0026
  160SAPE  H15R17935   3.302   1.708   8.071 -2.0791  0.8119  2.9331
  160SAPE  C21617936   3.378   1.852   8.218 -0.1555  0.5111  0.0107
  160SAPE  H16R17937   3.288   1.865   8.282  0.4384 -0.1287  1.0048
  160SAPE  H16S17938   3.431   1.949   8.217  2.6535 -0.8539 -2.2701
  160SAPE  C21717939   3.484   1.757   8.289 -0.4481  0.3687  0.1555
  160SAPE  H17R17940   3.438   1.656   8.300  1.1381 -0.4430 -0.3804
  160SAPE  H17S17941   3.495   1.796   8.392  0.8793  1.0590 -0.2179
  160SAPE  C21817942   3.612   1.743   8.207 -0.2434 -0.4064 -0.1601
  160SAPE  H18R17943   3.656   1.843   8.192  0.5062 -1.1305 -3.5150
  160SAPE  H18S17944   3.586   1.698   8.109 -1.7248 -3.8848  1.6460
  160SAPE  C21917945   3.715   1.652   8.280  0.0675  0.3074  0.1067
  160SAPE  H19R17946   3.668   1.555   8.305  0.2049  0.1717 -0.1645
  160SAPE  H19S17947   3.744   1.709   8.372  3.9324  1.8687 -1.8593
  160SAPE  C22017948   3.846   1.627   8.205  0.5485  0.5001 -0.1813
  160SAPE  H20R17949   3.901   1.719   8.176 -2.4024  1.5658 -2.8399
  160SAPE  H20S17950   3.816   1.563   8.119  1.9065  1.6794 -1.5874
  160SAPE  H20T17951   3.919   1.565   8.262 -0.3624 -0.2044  0.2507
  160SAPE   C3317952   3.643   2.178   7.232  0.1781  0.8605  0.5815
  160SAPE   H3X17953   3.545   2.227   7.247 -1.5739 -1.5803 -1.8339
  160SAPE   H3Y17954   3.702   2.215   7.146  2.0367 -0.0395  1.3992
  160SAPE   C3417955   3.717   2.205   7.366  0.2888 -0.2796  0.0520
  160SAPE   H4X17956   3.820   2.163   7.362  1.3154  2.1391 -2.9551
  160SAPE   H4Y17957   3.660   2.171   7.455 -0.3292  0.2925 -0.1187
  160SAPE   C3517958   3.729   2.357   7.402  0.6517 -0.4019 -0.4490
  160SAPE   H5X17959   3.627   2.400   7.394  1.2876  1.4379  0.7526
  160SAPE   H5Y17960   3.792   2.406   7.325 -1.0388  1.2805 -0.8333
  160SAPE   C3617961   3.801   2.375   7.534  0.2030 -0.0508 -0.0281
  160SAPE   H6X17962   3.894   2.315   7.539  0.4298  0.3406  0.5629
  160SAPE   H6Y17963   3.739   2.330   7.614 -1.0413  0.0537 -0.9062
  160SAPE   C3717964   3.855   2.513   7.577 -0.2100  0.7571  0.2344
  160SAPE   H7X17965   3.791   2.600   7.550 -0.5034  0.4341 -0.1282
  160SAPE   H7Y17966   3.953   2.521   7.527  0.2852 -1.9401  0.6028
  160SAPE   C3817967   3.886   2.507   7.729  0.3083 -0.6368 -0.4100
  160SAPE   H8X17968   3.944   2.595   7.764  1.6271 -0.9509 -1.7000
  160SAPE   H8Y17969   3.938   2.411   7.752  0.5416 -0.3299  0.3628
  160SAPE   C3917970   3.758   2.510   7.818 -0.2855 -0.1262 -0.0604
  160SAPE   H9X17971   3.688   2.424   7.815  1.0641 -1.3639  2.0081
  160SAPE   H9Y17972   3.700   2.601   7.788 -0.9614 -0.5277  0.0128
  160SAPE  C31017973   3.793   2.532   7.965 -0.6053  0.0405 -0.7626
  160SAPE  H10X17974   3.881   2.468   7.985  0.9003  2.7665  2.1396
  160SAPE  H10Y17975   3.718   2.498   8.040 -1.2630  0.6281 -1.1423
  160SAPE  C31117976   3.846   2.680   7.993 -0.1250 -0.2700  0.2287
  160SAPE  H11X17977   3.804   2.756   7.924  0.7688 -0.6954 -0.8257
  160SAPE  H11Y17978   3.956   2.675   7.976 -0.1533 -0.1844  0.0266
  160SAPE  C31217979   3.833   2.737   8.134  0.1658  0.0803  0.0605
  160SAPE  H12X17980   3.727   2.760   8.159  0.7101  1.6325  1.0801
  160SAPE  H12Y17981   3.884   2.834   8.148  1.6308 -0.5700 -0.5844
  160SAPE  C31317982   3.884   2.640   8.246  0.0469 -0.3672  0.3394
  160SAPE  H13X17983   3.993   2.623   8.239  0.5581  2.9147 -2.1252
  160SAPE  H13Y17984   3.846   2.536   8.242  0.2796 -0.4390 -2.4699
  160SAPE  C31417985   3.849   2.708   8.388 -0.2516  0.4329 -0.0266
  160SAPE  H14X17986   3.848   2.624   8.460 -2.9171  0.3571 -0.0711
  160SAPE  H14Y17987   3.744   2.742   8.398 -0.0565  2.2869 -2.9071
  160SAPE  C31517988   3.936   2.825   8.421  0.4990 -0.2535  0.2969
  160SAPE  H15X17989   3.905   2.900   8.345  2.2472  1.4853  1.2016
  160SAPE  H15Y17990   4.037   2.782   8.406  1.0073  0.6618  0.9550
  160SAPE  C31617991   3.936   2.882   8.568  0.2244 -0.1922  0.4622
  160SAPE  H16X17992   3.997   2.974   8.560  0.5193 -0.3680  0.6914
  160SAPE  H16Y17993   3.993   2.816   8.637 -0.0609 -1.8138 -0.7742
  160SAPE  C31717994   3.795   2.910   8.618  0.5420 -0.2773  0.1059
  160SAPE  H17X17995   3.797   2.924   8.728 -1.3908 -2.0047  0.4129
  160SAPE  H17Y17996   3.729   2.822   8.605 -1.7785  1.3371  0.5173
  160SAPE  C31817997   3.728   3.027   8.548  0.8265  0.0379  0.3429
  160SAPE  H18X17998   3.691   3.009   8.444 -0.9075 -0.1740  0.9626
  160SAPE  H18Y17999   3.795   3.110   8.519  2.0239 -0.7242  0.8739
  160SAPE  H18Z18000   3.639   3.064   8.603 -1.5417  0.2841 -3.3029
  161SAPE     N18001   5.695   0.149   6.325  0.3381  0.4304  0.3795
  161SAPE   HN118002   5.632   0.232   6.315 -0.5760 -0.4229 -1.6884
  161SAPE   HN218003   5.639   0.066   6.298  2.1486 -0.2880 -1.4840
  161SAPE   HN318004   5.715   0.130   6.425 -0.6260 -1.9239  0.1945
  161SAPE   C1218005   5.818   0.141   6.246 -0.1063 -0.0209  0.0275
  161SAPE  H12A18006   5.789   0.135   6.139  0.4999  0.1086 -0.1454
  161SAPE  H12B18007   5.877   0.051   6.271  0.9375  0.4019 -0.8350
  161SAPE   C1118008   5.910   0.259   6.254 -0.2462 -0.3229  0.4603
  161SAPE  H11A18009   5.861   0.353   6.222  0.6696  0.2614  0.7157
  161SAPE  H11B18010   5.994   0.258   6.181  1.5827 -1.0453  2.4639
  161SAPE     P18011   6.024   0.403   6.447 -0.0713 -0.0223  0.2281
  161SAPE   O1318012   6.157   0.363   6.497  0.0684  0.4733 -0.1589
  161SAPE   O1418013   6.028   0.508   6.347  0.2920 -0.0761 -0.0915
  161SAPE   O1218014   5.965   0.272   6.385 -0.2142  0.0115 -0.0510
  161SAPE   O1118015   5.929   0.441   6.574 -0.6621  0.3762  0.2444
  161SAPE    C118016   5.914   0.576   6.615  0.7532 -0.2689  0.6166
  161SAPE    HA18017   5.986   0.649   6.572  1.4567  0.1634  2.4193
  161SAPE    HB18018   5.811   0.617   6.604  1.1503  0.2286 -1.5401
  161SAPE    C218019   5.935   0.584   6.771 -0.3852  0.7478 -0.5333
  161SAPE    HS18020   5.942   0.687   6.810 -1.6470 -0.2521  2.6994
  161SAPE   O2118021   6.053   0.504   6.801  0.7841 -0.2073 -0.2751
  161SAPE   C2118022   6.168   0.562   6.783  0.2948  0.2551  0.3899
  161SAPE   O2218023   6.185   0.679   6.750 -0.1758 -0.2709 -0.7281
  161SAPE   C2218024   6.278   0.452   6.815  0.2051  0.3614  0.7674
  161SAPE   H2R18025   6.237   0.376   6.884  1.9603  0.6679  2.2287
  161SAPE   H2S18026   6.294   0.398   6.719 -2.2459 -1.3533  1.2406
  161SAPE    C318027   5.805   0.523   6.843 -0.1110  0.4356 -0.5331
  161SAPE    HX18028   5.804   0.412   6.842 -0.1662  0.4084 -2.7964
  161SAPE    HY18029   5.722   0.565   6.782  1.2419  0.5141 -2.3993
  161SAPE   O3118030   5.798   0.569   6.978 -0.3535  0.1269  0.5474
  161SAPE   C3118031   5.737   0.689   6.996 -0.0682 -0.8571 -0.4428
  161SAPE   O3218032   5.691   0.759   6.914  0.3314 -0.6932  0.5172
  161SAPE   C3218033   5.739   0.719   7.141 -0.3361  0.3766  0.0498
  161SAPE   H2X18034   5.717   0.626   7.198  3.0151 -0.9157 -0.4871
  161SAPE   H2Y18035   5.659   0.790   7.172 -0.9146  1.1172 -2.8405
  161SAPE   C2318036   6.413   0.507   6.852  0.3257 -0.6619 -0.2015
  161SAPE   H3R18037   6.456   0.582   6.782  0.1346  0.9071  1.2913
  161SAPE   H3S18038   6.498   0.436   6.841  2.8661  1.9991  0.7305
  161SAPE   C2418039   6.429   0.550   6.999 -1.1887  0.2557 -0.4535
  161SAPE   H4R18040   6.352   0.626   7.023 -0.9172  0.5935 -0.6528
  161SAPE   H4S18041   6.529   0.590   7.025 -0.8625  0.0409 -1.3445
  161SAPE   C2518042   6.390   0.441   7.096  0.1488  0.0885 -0.7782
  161SAPE   H5R18043   6.386   0.341   7.052  0.2577 -0.9771  1.5110
  161SAPE   C2618044   6.377   0.447   7.232 -0.6595 -0.8427 -0.0876
  161SAPE   H6R18045   6.356   0.357   7.291  1.6559 -1.8287 -0.6798
  161SAPE   C2718046   6.404   0.571   7.319 -1.2487  0.6565  0.1457
  161SAPE   H7R18047   6.438   0.665   7.271  0.4448  0.9015  1.6776
  161SAPE   H7S18048   6.490   0.544   7.385 -0.3386 -0.8057 -1.5722
  161SAPE   C2818049   6.281   0.608   7.399  0.0015  0.2406 -0.0072
  161SAPE   H8R18050   6.195   0.641   7.339 -1.2844 -0.0014  1.6506
  161SAPE   C2918051   6.268   0.615   7.533  0.4168  0.4912 -0.0655
  161SAPE   H9R18052   6.176   0.653   7.579 -0.2395 -1.2694  0.1515
  161SAPE  C21018053   6.386   0.586   7.626  0.2870  0.0135  0.5086
  161SAPE  H10R18054   6.456   0.673   7.625 -1.4785  1.6520  3.6182
  161SAPE  H10S18055   6.440   0.496   7.590 -0.1204 -0.2432  0.5269
  161SAPE  C21118056   6.342   0.558   7.771  0.1250 -0.6714 -0.6309
  161SAPE  H11R18057   6.247   0.503   7.781 -0.8580  1.1192  0.3288
  161SAPE  C21218058   6.411   0.598   7.887  0.1257 -0.1669  0.3197
  161SAPE  H12R18059   6.370   0.554   7.980  3.5533 -0.0392  2.0204
  161SAPE  C21318060   6.545   0.663   7.904  0.7429  0.6564  0.6438
  161SAPE  H13R18061   6.600   0.669   7.807  0.9453  2.5335  0.8398
  161SAPE  H13S18062   6.597   0.592   7.972 -0.1143  0.4940  1.1442
  161SAPE  C21418063   6.535   0.795   7.966 -0.1293 -0.5541 -0.0352
  161SAPE  H14R18064   6.533   0.880   7.897  0.8204  0.2559  0.8965
  161SAPE  C21518065   6.539   0.829   8.100 -0.3789 -0.1054 -0.2546
  161SAPE  H15R18066   6.540   0.935   8.128  0.0861 -0.6403  1.9320
  161SAPE  C21618067   6.549   0.737   8.221  0.2677 -0.0194  1.0382
  161SAPE  H16R18068   6.639   0.763   8.281  1.3184 -0.7865 -0.1350
  161SAPE  H16S18069   6.575   0.632   8.194  1.3576 -0.7182  4.3459
  161SAPE  C21718070   6.423   0.717   8.317 -0.0570 -0.3930 -0.1695
  161SAPE  H17R18071   6.440   0.633   8.388 -0.0370 -0.5438 -0.3504
  161SAPE  H17S18072   6.342   0.687   8.246 -0.7903 -1.4509  1.0703
  161SAPE  C21818073   6.380   0.829   8.410  0.1414 -0.4876  0.2019
  161SAPE  H18R18074   6.353   0.925   8.362 -0.5899  0.0528  1.6269
  161SAPE  H18S18075   6.463   0.858   8.477 -0.0936 -2.6119  1.5263
  161SAPE  C21918076   6.257   0.798   8.499  0.2900  0.0888 -0.0165
  161SAPE  H19R18077   6.300   0.738   8.582  3.2447 -0.8973 -2.1024
  161SAPE  H19S18078   6.186   0.729   8.448  0.3223 -1.4986  1.9239
  161SAPE  C22018079   6.190   0.920   8.553 -0.1526  0.0148 -0.6017
  161SAPE  H20R18080   6.254   0.960   8.634  0.5232 -2.9677  0.4481
  161SAPE  H20S18081   6.092   0.894   8.599 -0.6372 -1.2643 -2.2649
  161SAPE  H20T18082   6.184   0.998   8.474 -1.2198  0.7866  0.1962
  161SAPE   C3318083   5.877   0.769   7.192 -0.9222 -0.2984 -0.3434
  161SAPE   H3X18084   5.907   0.857   7.132 -4.1717  2.4814  1.6938
  161SAPE   H3Y18085   5.953   0.691   7.170 -0.2911  0.0532  0.5240
  161SAPE   C3418086   5.885   0.798   7.344 -0.3219 -0.5573 -0.4805
  161SAPE   H4X18087   5.802   0.869   7.364 -1.5461 -1.7574 -1.1429
  161SAPE   H4Y18088   5.982   0.843   7.374 -0.8438 -0.9834  2.0938
  161SAPE   C3518089   5.854   0.676   7.426  0.1699  0.0211 -0.5797
  161SAPE   H5X18090   5.932   0.597   7.413  0.7683  0.6307 -0.7166
  161SAPE   H5Y18091   5.755   0.634   7.398 -0.3420  0.0887  1.0230
  161SAPE   C3618092   5.843   0.704   7.579  0.1522 -0.0000  0.2443
  161SAPE   H6X18093   5.939   0.740   7.623  1.4117 -2.9106  0.1237
  161SAPE   H6Y18094   5.829   0.609   7.636  1.0574 -0.3382 -0.0716
  161SAPE   C3718095   5.727   0.803   7.612 -0.7918  0.3415  1.0367
  161SAPE   H7X18096   5.639   0.764   7.556 -0.4265  0.7267  0.1757
  161SAPE   H7Y18097   5.753   0.905   7.577 -1.7925 -0.2094 -1.6240
  161SAPE   C3818098   5.692   0.802   7.759 -0.2413 -0.2156  0.4785
  161SAPE   H8X18099   5.784   0.802   7.823 -0.4215 -0.6865  0.7424
  161SAPE   H8Y18100   5.636   0.709   7.783 -1.7370 -0.1135 -2.3176
  161SAPE   C3918101   5.594   0.919   7.786  0.3187 -0.4480  0.1874
  161SAPE   H9X18102   5.496   0.897   7.739 -0.1200 -2.4065  1.8473
  161SAPE   H9Y18103   5.635   1.009   7.737 -0.6728 -0.2743 -0.3418
  161SAPE  C31018104   5.577   0.957   7.933  0.2319 -0.4148 -0.2594
  161SAPE  H10X18105   5.536   1.060   7.935 -0.9632 -0.8874  1.0303
  161SAPE  H10Y18106   5.679   0.955   7.978  0.1816  0.1516 -0.1106
  161SAPE  C31118107   5.485   0.856   8.002  0.8655  0.7088  0.0535
  161SAPE  H11X18108   5.521   0.754   7.976  0.3825  0.6979 -0.5957
  161SAPE  H11Y18109   5.383   0.864   7.959 -0.0103  1.4718  2.1281
  161SAPE  C31218110   5.485   0.880   8.157  0.0987  0.7869 -0.1074
  161SAPE  H12X18111   5.591   0.889   8.190 -0.4645 -1.3515  2.6506
  161SAPE  H12Y18112   5.440   0.791   8.208  0.6465  0.1429 -0.7231
  161SAPE  C31318113   5.395   0.991   8.209 -0.2827 -0.2019  0.3340
  161SAPE  H13X18114   5.298   0.966   8.163  0.1609 -0.3079 -0.5667
  161SAPE  H13Y18115   5.425   1.092   8.171 -2.7153  0.6240  0.4673
  161SAPE  C31418116   5.368   0.999   8.360 -0.5054  0.1356 -0.0835
  161SAPE  H14X18117   5.314   0.909   8.395 -2.2356 -0.4493 -3.8330
  161SAPE  H14Y18118   5.301   1.087   8.373 -0.2975  0.2705  0.0816
  161SAPE  C31518119   5.484   1.036   8.454  0.4110  0.4286  0.0231
  161SAPE  H15X18120   5.568   0.965   8.438 -0.8676 -1.3761  0.9239
  161SAPE  H15Y18121   5.462   1.016   8.561 -1.0768  1.3468 -0.0773
  161SAPE  C31618122   5.510   1.185   8.440 -0.5065 -0.0674  0.8241
  161SAPE  H16X18123   5.428   1.230   8.501 -1.4197 -2.1869  1.2608
  161SAPE  H16Y18124   5.508   1.218   8.334  0.9588  1.9954  1.3710
  161SAPE  C31718125   5.643   1.225   8.494 -1.1366  0.6178  0.2595
  161SAPE  H17X18126   5.728   1.179   8.439  0.3986  2.8324  0.6346
  161SAPE  H17Y18127   5.645   1.187   8.598  0.9159 -2.3933 -0.7428
  161SAPE  C31818128   5.658   1.380   8.482 -0.1825 -0.5723 -0.6164
  161SAPE  H18X18129   5.634   1.419   8.380 -1.2959  0.5398  0.0445
  161SAPE  H18Y18130   5.758   1.421   8.507 -1.3427  1.4552  1.0306
  161SAPE  H18Z18131   5.585   1.431   8.548  1.6227 -0.1338  1.1480
  162SAPE     N18132   4.514   0.436   6.313  0.5872  1.1111  0.2546
  162SAPE   HN118133   4.579   0.369   6.359 -2.0194 -0.5700  1.7145
  162SAPE   HN218134   4.459   0.481   6.390 -0.4480 -0.7978  0.6773
  162SAPE   HN318135   4.447   0.375   6.262  0.8903 -0.9356  2.1416
  162SAPE   C1218136   4.590   0.539   6.234 -0.0684 -0.0844  0.4929
  162SAPE  H12A18137   4.516   0.563   6.155  0.5291 -0.6184 -0.2476
  162SAPE  H12B18138   4.681   0.490   6.192  0.9743  0.3664  2.1247
  162SAPE   C1118139   4.627   0.659   6.324  0.4227  0.0008 -0.4863
  162SAPE  H11A18140   4.653   0.734   6.247 -1.6575  0.6684 -0.5871
  162SAPE  H11B18141   4.719   0.627   6.379 -0.4185 -1.6666  0.0139
  162SAPE     P18142   4.420   0.812   6.383  0.5205  0.3932  0.2004
  162SAPE   O1318143   4.503   0.927   6.332  0.2112  0.0332 -0.0868
  162SAPE   O1418144   4.310   0.764   6.300 -0.4172  0.0655  0.2111
  162SAPE   O1218145   4.516   0.695   6.406 -0.2188  0.4198 -0.4528
  162SAPE   O1118146   4.362   0.856   6.522  0.5371 -0.1953 -0.0643
  162SAPE    C118147   4.318   0.758   6.617  0.1179 -0.3030 -0.2362
  162SAPE    HA18148   4.210   0.777   6.639 -0.0435  0.2734 -1.4254
  162SAPE    HB18149   4.318   0.654   6.578 -1.0168 -0.6934  0.7412
  162SAPE    C218150   4.401   0.763   6.744  0.9172  0.5844  0.1969
  162SAPE    HS18151   4.360   0.686   6.813  3.0124 -1.8421 -1.0533
  162SAPE   O2118152   4.400   0.887   6.802  0.4384  0.0706 -0.0475
  162SAPE   C2118153   4.298   0.916   6.885  0.8071  0.0414  0.0481
  162SAPE   O2218154   4.207   0.835   6.907  0.1692  0.0163  0.3095
  162SAPE   C2218155   4.289   1.055   6.939  0.1208 -0.0416 -0.2488
  162SAPE   H2R18156   4.378   1.101   6.891  0.4604 -0.0776  0.3323
  162SAPE   H2S18157   4.201   1.105   6.895 -0.8946 -0.7338  0.9204
  162SAPE    C318158   4.552   0.724   6.710 -0.1274 -0.7684  0.0458
  162SAPE    HX18159   4.584   0.797   6.632  2.0136 -0.3751  1.2315
  162SAPE    HY18160   4.543   0.621   6.670 -1.5189 -0.1253 -1.4359
  162SAPE   O3118161   4.629   0.733   6.836  0.6112 -0.1784  0.0669
  162SAPE   C3118162   4.715   0.838   6.843 -0.4312  0.7304 -0.5743
  162SAPE   O3218163   4.741   0.920   6.756 -0.0906  0.1581 -0.1460
  162SAPE   C3218164   4.745   0.860   6.990 -0.2075 -0.0389  0.0706
  162SAPE   H2X18165   4.779   0.761   7.029 -2.5378 -0.4775  1.1723
  162SAPE   H2Y18166   4.647   0.878   7.038  0.5099 -0.4013  1.7304
  162SAPE   C2318167   4.278   1.058   7.095 -0.2674  0.1322 -0.6376
  162SAPE   H3R18168   4.206   0.988   7.143  0.7367 -0.2128  0.4466
  162SAPE   H3S18169   4.244   1.158   7.131 -1.6265 -0.4162 -0.3412
  162SAPE   C2418170   4.411   1.012   7.168  0.1593 -0.4389 -0.3878
  162SAPE   H4R18171   4.497   1.073   7.134 -0.5166  0.0722 -1.2295
  162SAPE   H4S18172   4.434   0.907   7.141  0.0504 -0.2222 -1.3732
  162SAPE   C2518173   4.396   1.037   7.314  0.3619 -0.7174  0.3450
  162SAPE   H5R18174   4.303   1.087   7.344 -0.5449 -1.4682 -1.1312
  162SAPE   C2618175   4.487   1.004   7.407 -0.1263 -0.2488  0.0546
  162SAPE   H6R18176   4.472   1.019   7.515  0.3461 -1.1331  0.2602
  162SAPE   C2718177   4.617   0.928   7.380 -0.1929 -1.3562 -0.0458
  162SAPE   H7R18178   4.681   0.996   7.320  0.4171 -2.9812 -1.3267
  162SAPE   H7S18179   4.588   0.839   7.320 -1.1254 -0.1528 -1.4226
  162SAPE   C2818180   4.695   0.880   7.502  0.7742 -0.0186 -0.5792
  162SAPE   H8R18181   4.694   0.771   7.519  0.2215  0.3331  2.2513
  162SAPE   C2918182   4.765   0.958   7.586 -0.1028 -0.3639 -1.0456
  162SAPE   H9R18183   4.809   0.898   7.666 -0.5654 -0.3331 -0.7628
  162SAPE  C21018184   4.801   1.107   7.577 -0.4053  0.0603  0.2684
  162SAPE  H10R18185   4.802   1.130   7.468 -2.2069  0.4377  0.3011
  162SAPE  H10S18186   4.905   1.124   7.611 -0.5573 -0.8648  1.2420
  162SAPE  C21118187   4.714   1.217   7.641  0.6140  0.1089 -0.3036
  162SAPE  H11R18188   4.718   1.311   7.584 -1.9221  0.8739  0.6379
  162SAPE  C21218189   4.645   1.214   7.754 -0.3985  0.2915  0.5657
  162SAPE  H12R18190   4.582   1.300   7.782  0.5808  1.8366 -1.7386
  162SAPE  C21318191   4.631   1.097   7.853  0.2647 -0.1032 -0.2556
  162SAPE  H13R18192   4.627   1.132   7.958 -2.6480  1.8191 -0.9065
  162SAPE  H13S18193   4.725   1.036   7.850  0.9352  0.8144  0.9908
  162SAPE  C21418194   4.514   1.015   7.817 -0.4665  0.0099 -0.3231
  162SAPE  H14R18195   4.518   0.966   7.718  1.0458 -3.1089  1.1386
  162SAPE  C21518196   4.419   0.974   7.901 -0.3594  0.1102 -0.6219
  162SAPE  H15R18197   4.347   0.897   7.869 -0.5228  0.2722 -0.6496
  162SAPE  C21618198   4.394   1.007   8.049 -0.0070 -0.0780  0.6803
  162SAPE  H16R18199   4.287   1.025   8.076  0.4584  2.1681  1.2206
  162SAPE  H16S18200   4.440   1.102   8.085 -1.8835  0.6580  1.2784
  162SAPE  C21718201   4.451   0.897   8.137 -1.2037 -0.5488 -0.4327
  162SAPE  H17R18202   4.551   0.867   8.100 -0.5984  2.4848 -1.5923
  162SAPE  H17S18203   4.385   0.808   8.130 -2.4252  0.3604 -0.9251
  162SAPE  C21818204   4.485   0.945   8.275 -0.6440 -0.3856 -0.4545
  162SAPE  H18R18205   4.392   0.992   8.315 -0.2174 -0.6820  0.9515
  162SAPE  H18S18206   4.558   1.027   8.260 -3.9791  2.8760 -0.4745
  162SAPE  C21918207   4.515   0.830   8.374  0.2994 -0.5465  0.3491
  162SAPE  H19R18208   4.620   0.794   8.362  0.3305 -1.4996  2.7579
  162SAPE  H19S18209   4.455   0.739   8.352 -0.5034 -0.0386  0.4145
  162SAPE  C22018210   4.501   0.886   8.517 -0.6562 -0.6255 -0.1545
  162SAPE  H20R18211   4.579   0.961   8.540 -3.0472  1.8851  0.1854
  162SAPE  H20S18212   4.534   0.809   8.591 -2.7788  0.9141  2.5970
  162SAPE  H20T18213   4.401   0.931   8.537  0.1425  1.5671 -0.8781
  162SAPE   C3318214   4.864   0.957   7.027  0.0470  0.3676 -0.2584
  162SAPE   H3X18215   4.955   0.921   6.975  0.2131  0.9891 -0.4123
  162SAPE   H3Y18216   4.889   0.948   7.135  3.0221  0.1353 -0.8838
  162SAPE   C3418217   4.849   1.101   6.983 -0.0658 -0.3446 -0.0908
  162SAPE   H4X18218   4.740   1.105   6.961 -1.1053 -4.2072  3.1046
  162SAPE   H4Y18219   4.904   1.112   6.887 -1.3323 -1.5014 -0.9830
  162SAPE   C3518220   4.908   1.208   7.079 -0.0301  0.3084 -0.0599
  162SAPE   H5X18221   4.927   1.307   7.033 -1.5713  0.4298 -0.4689
  162SAPE   H5Y18222   4.997   1.155   7.121 -0.9877 -0.6427  0.8250
  162SAPE   C3618223   4.812   1.233   7.196 -0.2160 -0.3454 -0.1980
  162SAPE   H6X18224   4.867   1.264   7.287 -0.0771 -1.8669  0.2677
  162SAPE   H6Y18225   4.782   1.129   7.224 -0.4871 -0.1750  0.1446
  162SAPE   C3718226   4.682   1.308   7.170 -0.3092  0.3041 -0.9250
  162SAPE   H7X18227   4.623   1.259   7.089  0.3296  1.0488 -1.8589
  162SAPE   H7Y18228   4.711   1.407   7.131  2.0437  0.1415  0.2231
  162SAPE   C3818229   4.606   1.344   7.300 -0.3439 -0.5514  0.1408
  162SAPE   H8X18230   4.687   1.393   7.358 -0.9419 -0.7416  1.1638
  162SAPE   H8Y18231   4.591   1.245   7.349 -1.7170 -0.1199  0.6312
  162SAPE   C3918232   4.482   1.429   7.277  0.5324  0.3520  0.6062
  162SAPE   H9X18233   4.407   1.365   7.226  2.2222 -2.2341  1.1300
  162SAPE   H9Y18234   4.508   1.514   7.210 -0.7159 -0.3494 -0.8286
  162SAPE  C31018235   4.424   1.473   7.405  0.8579 -0.0513 -0.2291
  162SAPE  H10X18236   4.352   1.556   7.385 -0.4755 -1.2689 -0.7042
  162SAPE  H10Y18237   4.494   1.525   7.474  2.2376 -1.7625 -0.2811
  162SAPE  C31118238   4.349   1.364   7.484  0.2394 -0.1582 -0.1202
  162SAPE  H11X18239   4.420   1.290   7.527  1.9551  0.5462 -1.5998
  162SAPE  H11Y18240   4.282   1.311   7.412  0.1017 -0.0933 -0.0401
  162SAPE  C31218241   4.255   1.433   7.598  0.2016 -0.8589 -0.8162
  162SAPE  H12X18242   4.166   1.370   7.624 -0.9144 -0.1273 -2.6234
  162SAPE  H12Y18243   4.207   1.524   7.556  0.2998 -0.2887  0.2902
  162SAPE  C31318244   4.339   1.486   7.717  0.2149 -0.2308 -1.0705
  162SAPE  H13X18245   4.421   1.555   7.686 -0.3550  0.7886 -0.3704
  162SAPE  H13Y18246   4.380   1.398   7.772  1.7277  0.7858 -0.4915
  162SAPE  C31418247   4.260   1.575   7.817 -0.5748  0.3762  0.0199
  162SAPE  H14X18248   4.165   1.526   7.845 -0.6059  0.2344 -0.3317
  162SAPE  H14Y18249   4.224   1.673   7.778  0.1781  1.2474  1.4211
  162SAPE  C31518250   4.317   1.608   7.960 -0.1240  0.0015 -0.4210
  162SAPE  H15X18251   4.412   1.665   7.955  0.3001 -0.6423  0.1137
  162SAPE  H15Y18252   4.346   1.511   8.007  2.3540  0.6753 -0.4035
  162SAPE  C31618253   4.223   1.681   8.051  0.8751 -0.1530  0.1042
  162SAPE  H16X18254   4.136   1.614   8.070  1.6791 -1.5680 -1.0435
  162SAPE  H16Y18255   4.183   1.767   7.993  1.1433  1.1573  1.7708
  162SAPE  C31718256   4.277   1.739   8.176 -0.0714  0.6026 -0.6439
  162SAPE  H17X18257   4.345   1.821   8.145  1.7049 -0.8442 -0.7574
  162SAPE  H17Y18258   4.338   1.657   8.221  0.9220  1.1995 -0.8692
  162SAPE  C31818259   4.177   1.771   8.293  0.3508  0.1063  0.4681
  162SAPE  H18X18260   4.227   1.806   8.386  0.2881  0.3168  0.4237
  162SAPE  H18Y18261   4.127   1.674   8.311 -2.3262  0.6633 -2.8379
  162SAPE  H18Z18262   4.104   1.848   8.260  1.1150  2.1045  3.0609
  163SAPE     N18263   5.944   5.213   6.548  0.6592 -0.2647  0.3053
  163SAPE   HN118264   5.851   5.212   6.595  1.1517 -0.5219  1.2939
  163SAPE   HN218265   5.945   5.135   6.479 -0.2444 -0.1278  0.1255
  163SAPE   HN318266   6.019   5.211   6.620  1.7961  0.9280 -0.7787
  163SAPE   C1218267   5.937   5.346   6.492 -0.4031  0.0195  0.2383
  163SAPE  H12A18268   5.887   5.346   6.393  0.4564 -0.6428 -0.2043
  163SAPE  H12B18269   6.038   5.390   6.477  0.6730 -2.5287 -0.4194
  163SAPE   C1118270   5.850   5.442   6.579 -0.4612 -0.6269  0.3775
  163SAPE  H11A18271   5.862   5.547   6.546 -1.3401 -0.7376 -0.2965
  163SAPE  H11B18272   5.892   5.458   6.681  1.9693  0.6933 -0.7352
  163SAPE     P18273   5.647   5.302   6.689  0.3985 -0.2850  0.3908
  163SAPE   O1318274   5.500   5.312   6.696  0.0978 -0.3128  0.0034
  163SAPE   O1418275   5.709   5.169   6.669  0.2025 -0.1500  0.3489
  163SAPE   O1218276   5.713   5.401   6.580  0.5319 -0.0947 -0.5317
  163SAPE   O1118277   5.705   5.371   6.819 -0.4278  0.2296  0.2763
  163SAPE    C118278   5.635   5.464   6.903 -0.4608 -0.3109 -0.1919
  163SAPE    HA18279   5.532   5.427   6.921 -0.8241  0.7803  0.0836
  163SAPE    HB18280   5.694   5.470   6.997  1.6918  2.0323 -1.5552
  163SAPE    C218281   5.642   5.611   6.851  0.0763 -0.4746 -0.4475
  163SAPE    HS18282   5.601   5.610   6.748 -0.7924  1.0237 -0.1435
  163SAPE   O2118283   5.781   5.649   6.853  0.0989  0.4751 -0.0166
  163SAPE   C2118284   5.803   5.756   6.785  0.1124  0.3771 -0.3816
  163SAPE   O2218285   5.720   5.814   6.717 -0.2022 -0.1555  0.0401
  163SAPE   C2218286   5.945   5.803   6.815  0.3646 -0.4145 -0.2104
  163SAPE   H2R18287   6.010   5.717   6.843  0.1829 -0.6646 -0.5591
  163SAPE   H2S18288   5.990   5.848   6.723 -0.3767  0.3721 -0.1991
  163SAPE    C318289   5.553   5.706   6.938  0.3348  0.2236 -0.3675
  163SAPE    HX18290   5.534   5.796   6.876 -0.1729  0.8130  0.6154
  163SAPE    HY18291   5.603   5.731   7.034 -1.5754 -2.2659  1.4104
  163SAPE   O3118292   5.421   5.656   6.968  0.1596  0.2520  0.1057
  163SAPE   C3118293   5.332   5.664   6.875  0.4163  0.4020  0.6616
  163SAPE   O3218294   5.353   5.697   6.757  0.1215 -0.4229 -0.4544
  163SAPE   C3218295   5.190   5.627   6.921  1.2301  0.3926  0.0092
  163SAPE   H2X18296   5.195   5.558   7.008 -0.5613  1.3132  0.9174
  163SAPE   H2Y18297   5.156   5.562   6.838  0.1733  0.4251  0.3992
  163SAPE   C2318298   5.952   5.909   6.936 -0.8305  0.8315 -0.0949
  163SAPE   H3R18299   5.886   5.872   7.017 -2.0471  2.4848 -0.2712
  163SAPE   H3S18300   5.901   6.004   6.907  1.8610  3.1327  2.1442
  163SAPE   C2418301   6.095   5.940   6.992 -0.0218 -0.2955 -0.3281
  163SAPE   H4R18302   6.076   6.021   7.066 -0.3424 -0.6296 -0.0408
  163SAPE   H4S18303   6.156   6.006   6.927 -0.0708 -0.7342 -0.8258
  163SAPE   C2518304   6.180   5.821   7.029 -0.4123 -1.1898  0.0875
  163SAPE   H5R18305   6.216   5.769   6.939  0.9433  2.3613 -1.6368
  163SAPE   C2618306   6.228   5.784   7.148 -0.4364 -0.5532  0.0984
  163SAPE   H6R18307   6.290   5.693   7.151  2.0035  1.0020  2.3246
  163SAPE   C2718308   6.213   5.844   7.288 -0.0771 -0.7715 -0.6517
  163SAPE   H7R18309   6.218   5.955   7.288  2.2010 -0.8089  0.3897
  163SAPE   H7S18310   6.302   5.810   7.345  0.3861  1.8339  0.3010
  163SAPE   C2818311   6.092   5.791   7.363  0.1121  0.0433  0.2916
  163SAPE   H8R18312   6.045   5.699   7.326  0.4587  0.7354 -2.0252
  163SAPE   C2918313   6.032   5.841   7.468 -0.2936  0.5157  0.5712
  163SAPE   H9R18314   5.950   5.785   7.514 -0.1950 -0.1604 -0.0557
  163SAPE  C21018315   6.065   5.966   7.547 -0.3032 -0.5298  0.2774
  163SAPE  H10R18316   6.144   6.024   7.496 -1.4270  0.3411 -0.5270
  163SAPE  H10S18317   6.110   5.936   7.644 -0.3701 -1.3204  0.0699
  163SAPE  C21118318   5.937   6.048   7.556 -0.5080 -0.1565 -0.2331
  163SAPE  H11R18319   5.927   6.125   7.477  1.3796 -0.3915 -0.7481
  163SAPE  C21218320   5.853   6.041   7.666 -0.1069 -0.5386 -0.1831
  163SAPE  H12R18321   5.771   6.113   7.682  1.1352  0.5138  1.9831
  163SAPE  C21318322   5.862   5.952   7.785 -0.0697 -0.5409  0.2891
  163SAPE  H13R18323   5.895   5.854   7.744 -0.4982  0.0094 -1.4763
  163SAPE  H13S18324   5.759   5.930   7.821 -0.2848  0.7192  0.4878
  163SAPE  C21418325   5.957   6.004   7.888  0.4578  0.4923 -0.6275
  163SAPE  H14R18326   6.060   6.023   7.853  0.5412 -1.1914 -1.3875
  163SAPE  C21518327   5.923   6.035   8.017  0.2864 -0.7089  0.5093
  163SAPE  H15R18328   6.007   6.059   8.085 -0.0336 -0.5576  0.8558
  163SAPE  C21618329   5.787   6.032   8.081  0.6047 -0.3220  0.3029
  163SAPE  H16R18330   5.769   5.935   8.132 -2.6233  0.3988  0.8038
  163SAPE  H16S18331   5.706   6.049   8.006 -1.4778 -0.9023  2.3024
  163SAPE  C21718332   5.763   6.146   8.182  0.1337  0.9015  0.1222
  163SAPE  H17R18333   5.778   6.243   8.130 -2.9575  1.3203 -0.1810
  163SAPE  H17S18334   5.846   6.146   8.256  0.0780  1.7008  0.1908
  163SAPE  C21818335   5.624   6.156   8.255 -0.4507  0.8802 -0.4222
  163SAPE  H18R18336   5.541   6.156   8.181  1.5382  0.7319 -2.7905
  163SAPE  H18S18337   5.624   6.258   8.300  0.2087  0.0525  1.5683
  163SAPE  C21918338   5.607   6.054   8.369  0.0827  0.5280  0.2497
  163SAPE  H19R18339   5.707   6.039   8.416  0.1781  0.1659 -0.0551
  163SAPE  H19S18340   5.575   5.959   8.320  0.9436 -0.2157  1.0757
  163SAPE  C22018341   5.512   6.088   8.475 -0.1094 -0.5773 -0.8279
  163SAPE  H20R18342   5.511   6.025   8.566 -0.0417 -0.4323 -0.7256
  163SAPE  H20S18343   5.409   6.100   8.436 -1.0746 -1.0745  1.4405
  163SAPE  H20T18344   5.542   6.185   8.520 -0.0834 -1.1574  0.4556
  163SAPE   C3318345   5.098   5.749   6.941  0.1591  0.6704 -0.5831
  163SAPE   H3X18346   4.992   5.718   6.942  0.5014 -0.5728 -0.4041
  163SAPE   H3Y18347   5.113   5.829   6.866  0.2590  1.4095  0.2082
  163SAPE   C3418348   5.128   5.816   7.080  0.6383 -0.2266 -0.6191
  163SAPE   H4X18349   5.239   5.823   7.086  0.7074 -1.9553  1.3385
  163SAPE   H4Y18350   5.082   5.759   7.163 -1.6748 -0.2857 -1.8597
  163SAPE   C3518351   5.079   5.965   7.078 -0.4005 -0.3572 -0.5889
  163SAPE   H5X18352   4.970   5.957   7.055 -0.7556 -1.5266  1.2963
  163SAPE   H5Y18353   5.129   6.002   6.986 -2.5407 -2.1918 -2.6202
  163SAPE   C3618354   5.111   6.043   7.210 -0.4208  0.7259 -0.7165
  163SAPE   H6X18355   5.052   6.136   7.200 -1.1174  0.7302  2.4486
  163SAPE   H6Y18356   5.218   6.069   7.222 -0.8257  2.4017 -0.5622
  163SAPE   C3718357   5.069   5.968   7.335  0.0263 -0.4896 -0.0347
  163SAPE   H7X18358   5.132   5.877   7.349 -0.0904 -1.1582 -3.1309
  163SAPE   H7Y18359   4.967   5.925   7.331  0.8942 -2.6282 -1.0815
  163SAPE   C3818360   5.074   6.054   7.461 -0.1487 -0.4706  0.8286
  163SAPE   H8X18361   4.990   6.127   7.466  0.2914  0.2572 -1.2657
  163SAPE   H8Y18362   5.161   6.124   7.453 -0.2032 -0.1172  2.7500
  163SAPE   C3918363   5.075   5.976   7.596 -0.5149 -0.5682 -0.2020
  163SAPE   H9X18364   5.008   5.891   7.570 -0.7682 -0.6769  0.7669
  163SAPE   H9Y18365   5.022   6.045   7.666 -0.8684 -0.4399 -0.5928
  163SAPE  C31018366   5.216   5.929   7.634  0.2395 -0.0588  0.4159
  163SAPE  H10X18367   5.292   6.010   7.629 -1.3104  1.4113 -0.2713
  163SAPE  H10Y18368   5.253   5.856   7.559 -0.2740 -1.7195  1.7220
  163SAPE  C31118369   5.208   5.868   7.772 -0.3033  0.1889 -0.4955
  163SAPE  H11X18370   5.164   5.766   7.764  0.2533 -0.0230 -0.9068
  163SAPE  H11Y18371   5.133   5.917   7.838  1.5433 -0.4483  2.2349
  163SAPE  C31218372   5.339   5.855   7.848  0.0227  0.4597 -0.2949
  163SAPE  H12X18373   5.380   5.956   7.868  1.1762 -0.3776  1.8713
  163SAPE  H12Y18374   5.410   5.798   7.784  1.7639  1.0319  1.0772
  163SAPE  C31318375   5.335   5.775   7.977  0.2006 -0.4817  0.7772
  163SAPE  H13X18376   5.321   5.666   7.958  2.1740 -0.8055  1.0191
  163SAPE  H13Y18377   5.249   5.808   8.039  0.3706  0.9039  0.3014
  163SAPE  C31418378   5.457   5.796   8.065 -0.0848 -0.3669  0.3822
  163SAPE  H14X18379   5.438   5.737   8.158 -4.0020  0.9783  0.6297
  163SAPE  H14Y18380   5.449   5.905   8.087 -2.2192  0.4640 -3.5940
  163SAPE  C31518381   5.582   5.747   8.005  0.2252 -0.0038  0.3680
  163SAPE  H15X18382   5.663   5.760   8.081  0.6285 -1.9705  0.3287
  163SAPE  H15Y18383   5.612   5.805   7.915 -1.5376  0.1323 -0.1636
  163SAPE  C31618384   5.586   5.597   7.968  0.2952 -0.1210  0.5226
  163SAPE  H16X18385   5.494   5.574   7.911 -0.6171  0.9338  1.4916
  163SAPE  H16Y18386   5.594   5.543   8.065  2.7434 -1.9641 -0.6179
  163SAPE  C31718387   5.702   5.549   7.880  0.1709 -0.2290 -0.2868
  163SAPE  H17X18388   5.680   5.593   7.781 -1.1858 -1.3722 -0.5333
  163SAPE  H17Y18389   5.684   5.441   7.862 -0.1113 -0.5261  1.5551
  163SAPE  C31818390   5.840   5.589   7.947 -0.4153  0.5954 -0.6227
  163SAPE  H18X18391   5.923   5.571   7.875  0.1634  0.1373  0.1373
  163SAPE  H18Y18392   5.849   5.534   8.043 -0.4458  1.7694  0.0736
  163SAPE  H18Z18393   5.834   5.697   7.971 -3.1539  0.1512  1.2172
  164SAPE     N18394   6.644   3.192   6.055  0.0224 -0.7778 -0.3635
  164SAPE   HN118395   6.635   3.292   6.083  1.8765 -0.7374  0.2020
  164SAPE   HN218396   6.577   3.137   6.112  0.4323  0.1684  1.0791
  164SAPE   HN318397   6.743   3.169   6.077  0.3105  1.0657  0.3857
  164SAPE   C1218398   6.632   3.159   5.911 -0.1641  0.1378  0.0642
  164SAPE  H12A18399   6.658   3.056   5.881 -0.3718  0.5875 -1.7641
  164SAPE  H12B18400   6.703   3.229   5.862  0.5489  0.3926  1.4133
  164SAPE   C1118401   6.490   3.170   5.870  0.0043 -0.0597 -0.0078
  164SAPE  H11A18402   6.478   3.147   5.762 -0.2390 -1.6766  0.3396
  164SAPE  H11B18403   6.464   3.275   5.894  3.4020  0.5546  1.7390
  164SAPE     P18404   6.308   3.093   6.051  0.2994  0.1093  0.1099
  164SAPE   O1318405   6.259   3.236   6.049  0.1121 -0.1593  0.2981
  164SAPE   O1418406   6.212   2.978   6.046 -0.0395  0.0023 -0.3146
  164SAPE   O1218407   6.413   3.073   5.939  0.8051 -0.2206  0.1668
  164SAPE   O1118408   6.396   3.086   6.174  0.8313  0.0173  0.7162
  164SAPE    C118409   6.354   3.038   6.302  0.5249  0.0734  0.0031
  164SAPE    HA18410   6.408   3.106   6.372  1.7056  0.4276 -1.2042
  164SAPE    HB18411   6.246   3.045   6.327  1.2468  0.8188  3.3238
  164SAPE    C218412   6.399   2.895   6.337 -0.5689 -0.1628  0.3720
  164SAPE    HS18413   6.332   2.823   6.286  2.2381 -2.6900 -0.0313
  164SAPE   O2118414   6.407   2.880   6.480  0.4443 -0.1408 -0.8963
  164SAPE   C2118415   6.402   2.750   6.526  0.2122 -0.2167  0.5113
  164SAPE   O2218416   6.416   2.648   6.459  0.2426  0.1712 -1.0816
  164SAPE   C2218417   6.365   2.749   6.672  0.2844 -0.1259 -0.5336
  164SAPE   H2R18418   6.268   2.802   6.676  1.2898  1.7883 -0.1706
  164SAPE   H2S18419   6.353   2.644   6.706  1.9053 -0.9730 -2.3516
  164SAPE    C318420   6.540   2.860   6.274 -0.2176  0.0995 -0.3107
  164SAPE    HX18421   6.535   2.880   6.165  0.2342  0.5481 -0.2521
  164SAPE    HY18422   6.548   2.749   6.284 -0.4193  0.1188  0.0565
  164SAPE   O3118423   6.655   2.933   6.314  0.0966  0.1489  0.3850
  164SAPE   C3118424   6.747   2.871   6.387 -0.1599  0.1971 -0.2034
  164SAPE   O3218425   6.738   2.756   6.424  0.0009  0.1822 -0.2200
  164SAPE   C3218426   6.855   2.961   6.442  0.7607  0.2514  0.8549
  164SAPE   H2X18427   6.842   3.069   6.416  0.8790  0.0055 -0.3040
  164SAPE   H2Y18428   6.950   2.931   6.393 -0.8365 -1.5865 -1.3507
  164SAPE   C2318429   6.482   2.819   6.744  0.1656  0.4916 -0.0358
  164SAPE   H3R18430   6.567   2.835   6.674 -1.2348 -0.3489 -2.0367
  164SAPE   H3S18431   6.524   2.748   6.818  2.3361 -0.4003 -2.0253
  164SAPE   C2418432   6.417   2.936   6.831  0.1770  0.1155 -0.6159
  164SAPE   H4R18433   6.335   2.891   6.892  0.4508 -1.7009 -1.5041
  164SAPE   H4S18434   6.366   3.007   6.762 -2.0019 -2.3033 -1.6794
  164SAPE   C2518435   6.526   3.002   6.906 -0.3239 -0.2972 -0.2600
  164SAPE   H5R18436   6.607   3.053   6.853  1.5637 -1.8503  0.9684
  164SAPE   C2618437   6.527   3.015   7.044  0.4248  0.0644 -0.2297
  164SAPE   H6R18438   6.612   3.065   7.092  0.6852 -0.4424 -0.1491
  164SAPE   C2718439   6.422   2.976   7.148  0.4266 -0.7072 -0.1477
  164SAPE   H7R18440   6.443   2.878   7.197 -2.7759 -1.0148  0.8092
  164SAPE   H7S18441   6.329   2.954   7.091  0.9283  1.2482 -1.8412
  164SAPE   C2818442   6.406   3.082   7.260 -0.0240  0.4450  0.6199
  164SAPE   H8R18443   6.333   3.160   7.232  0.0355 -0.0535 -1.0250
  164SAPE   C2918444   6.447   3.072   7.389 -0.2251  0.3936  0.9285
  164SAPE   H9R18445   6.419   3.151   7.460  3.1729  0.2177  2.6734
  164SAPE  C21018446   6.526   2.953   7.450 -0.7153 -0.1467  0.2936
  164SAPE  H10R18447   6.572   2.892   7.369 -0.1926  0.6025  0.0104
  164SAPE  H10S18448   6.447   2.884   7.485 -1.1073 -0.0875 -0.4598
  164SAPE  C21118449   6.629   3.001   7.558  0.1133  0.5397  0.1008
  164SAPE  H11R18450   6.721   3.033   7.505 -2.0175  2.3916 -2.8043
  164SAPE  C21218451   6.614   3.021   7.690  0.1050 -0.0460 -0.1116
  164SAPE  H12R18452   6.696   3.066   7.748  0.2452  0.2766 -0.5534
  164SAPE  C21318453   6.489   2.988   7.766 -0.5802 -0.1098 -0.0196
  164SAPE  H13R18454   6.414   2.947   7.695 -0.6667  2.1152 -1.3032
  164SAPE  H13S18455   6.442   3.081   7.806 -0.2292  0.7783 -1.6078
  164SAPE  C21418456   6.521   2.893   7.876  0.3268 -0.3784 -0.0249
  164SAPE  H14R18457   6.523   2.787   7.846 -0.2726 -0.0840 -1.1439
  164SAPE  C21518458   6.583   2.944   7.988  0.1207  0.4541 -0.0243
  164SAPE  H15R18459   6.602   2.874   8.071  1.5254  0.0170 -0.6944
  164SAPE  C21618460   6.629   3.087   8.028  0.2360  0.0054 -0.3331
  164SAPE  H16R18461   6.633   3.157   7.942 -1.8027  0.9102  0.2416
  164SAPE  H16S18462   6.730   3.085   8.075  0.7196 -0.7278 -1.3687
  164SAPE  C21718463   6.533   3.149   8.135  0.5296  0.5968 -0.3203
  164SAPE  H17R18464   6.431   3.170   8.096  0.6225  1.9445  0.1084
  164SAPE  H17S18465   6.580   3.242   8.172 -1.1399  1.5541 -0.5429
  164SAPE  C21818466   6.513   3.059   8.255 -0.0877 -0.6277 -0.2406
  164SAPE  H18R18467   6.611   3.016   8.286 -0.8052 -1.5469  0.8703
  164SAPE  H18S18468   6.454   2.969   8.229 -0.3923 -0.3528 -0.5100
  164SAPE  C21918469   6.441   3.123   8.379  0.3621 -0.1962  0.3572
  164SAPE  H19R18470   6.333   3.136   8.356  0.6413  0.1439 -0.8582
  164SAPE  H19S18471   6.475   3.229   8.388 -2.0867  0.7315 -0.5193
  164SAPE  C22018472   6.457   3.055   8.513  0.0772 -0.5914 -0.3175
  164SAPE  H20R18473   6.563   3.029   8.534  0.9444  1.9587 -1.1285
  164SAPE  H20S18474   6.380   2.975   8.519 -1.4312  0.7605 -0.9356
  164SAPE  H20T18475   6.423   3.127   8.590  2.0392  0.8609 -0.7453
  164SAPE   C3318476   6.872   2.930   6.589 -0.5044 -0.5059 -0.1520
  164SAPE   H3X18477   6.887   2.820   6.591 -3.5999 -1.0051  1.1014
  164SAPE   H3Y18478   6.784   2.966   6.647 -1.3775 -0.4326 -1.4774
  164SAPE   C3418479   7.000   2.988   6.647  0.2270 -0.1578 -0.7271
  164SAPE   H4X18480   7.095   2.946   6.608  0.4014 -0.7686  0.3376
  164SAPE   H4Y18481   7.000   2.952   6.752 -1.4125 -0.7492 -0.9040
  164SAPE   C3518482   7.013   3.144   6.653 -0.2439 -0.3249  0.9570
  164SAPE   H5X18483   7.028   3.174   6.547 -0.6818 -1.5198  0.5382
  164SAPE   H5Y18484   7.096   3.187   6.713  0.2816  1.4097 -0.9022
  164SAPE   C3618485   6.884   3.223   6.702  0.2910 -0.3543 -0.6047
  164SAPE   H6X18486   6.796   3.207   6.636 -0.2414 -2.9897  0.6398
  164SAPE   H6Y18487   6.896   3.333   6.691 -2.5754  0.8197  4.4100
  164SAPE   C3718488   6.835   3.178   6.841 -1.0941 -0.3035 -0.4248
  164SAPE   H7X18489   6.800   3.073   6.837  1.5062 -1.3004  0.5040
  164SAPE   H7Y18490   6.749   3.243   6.864 -1.5677 -1.3122  0.7733
  164SAPE   C3818491   6.937   3.202   6.955  0.0273  0.8497  0.5712
  164SAPE   H8X18492   6.964   3.309   6.974  0.5429  0.9010 -0.4255
  164SAPE   H8Y18493   7.030   3.148   6.929 -0.7645 -1.8309  2.7615
  164SAPE   C3918494   6.891   3.137   7.092  0.3615  0.4491  0.0966
  164SAPE   H9X18495   6.907   3.027   7.084 -2.1444  0.0121  0.2886
  164SAPE   H9Y18496   6.784   3.160   7.109  0.6822  0.5260  2.3111
  164SAPE  C31018497   6.976   3.177   7.213 -0.1091 -0.4455  0.6434
  164SAPE  H10X18498   6.990   3.288   7.213 -2.4876 -0.0850 -0.5867
  164SAPE  H10Y18499   7.078   3.135   7.199  0.5674  0.6379  2.0472
  164SAPE  C31118500   6.916   3.155   7.348  0.5645  0.6771  0.2745
  164SAPE  H11X18501   6.875   3.051   7.343  1.9125  0.1607 -1.5461
  164SAPE  H11Y18502   6.824   3.215   7.363  1.3289  1.8113  0.5086
  164SAPE  C31218503   7.008   3.186   7.472 -0.2390  0.0614 -0.0373
  164SAPE  H12X18504   7.050   3.288   7.463  2.6480 -0.7105  2.9347
  164SAPE  H12Y18505   7.095   3.118   7.460 -0.3751 -0.2441  0.6860
  164SAPE  C31318506   6.949   3.169   7.616 -0.6337 -0.4881 -0.1881
  164SAPE  H13X18507   6.896   3.072   7.629 -2.9535  0.4217 -2.0189
  164SAPE  H13Y18508   6.874   3.251   7.620 -0.0380  0.0350  0.2941
  164SAPE  C31418509   7.056   3.174   7.727  0.5642  0.3059 -0.7054
  164SAPE  H14X18510   7.086   3.280   7.742  0.0349  0.7845 -2.7324
  164SAPE  H14Y18511   7.142   3.119   7.683 -0.7820 -2.7743  0.2612
  164SAPE  C31518512   7.009   3.101   7.855 -0.7375 -0.2611  0.5072
  164SAPE  H15X18513   7.017   2.992   7.832 -2.5293 -0.3695  0.3247
  164SAPE  H15Y18514   6.900   3.105   7.874 -1.0742 -1.3370 -0.9926
  164SAPE  C31618515   7.094   3.120   7.989  0.3609  0.8701  0.1751
  164SAPE  H16X18516   7.053   3.208   8.043 -3.5528 -0.2727 -0.5955
  164SAPE  H16Y18517   7.192   3.156   7.953 -0.4534  2.9069 -0.1166
  164SAPE  C31718518   7.095   2.989   8.072  0.2248 -0.0146 -0.1516
  164SAPE  H17X18519   7.144   2.903   8.021  0.1983 -1.1235  1.6132
  164SAPE  H17Y18520   6.992   2.950   8.083  0.0526  0.7946  1.3854
  164SAPE  C31818521   7.166   3.008   8.201 -0.3992  0.0960  0.0343
  164SAPE  H18X18522   7.147   3.105   8.251  0.4950  0.3955 -0.1935
  164SAPE  H18Y18523   7.275   2.995   8.182  0.0181  3.3749 -0.4616
  164SAPE  H18Z18524   7.141   2.939   8.285  1.0592  0.8343  1.1117
  165SAPE     N18525   6.704   1.305   6.069 -0.6808 -0.4293 -0.6959
  165SAPE   HN118526   6.710   1.388   6.007 -0.5974  1.0850  1.2916
  165SAPE   HN218527   6.800   1.266   6.073  0.0343  1.2839 -0.5300
  165SAPE   HN318528   6.633   1.242   6.026 -0.6288 -0.7463 -0.3297
  165SAPE   C1218529   6.664   1.333   6.213 -0.0211  0.0107  0.0744
  165SAPE  H12A18530   6.573   1.396   6.214  0.0331  0.1388 -1.1762
  165SAPE  H12B18531   6.749   1.392   6.254  0.1527  0.3137 -0.6949
  165SAPE   C1118532   6.648   1.200   6.286  1.7007  0.3322 -0.3848
  165SAPE  H11A18533   6.548   1.158   6.259  2.0734 -1.1023  0.3678
  165SAPE  H11B18534   6.635   1.222   6.394 -0.7229 -1.0592 -0.3182
  165SAPE     P18535   6.883   1.097   6.310  0.0556  0.2271 -0.0155
  165SAPE   O1318536   6.939   0.963   6.292 -0.4017  0.0104 -0.4730
  165SAPE   O1418537   6.963   1.215   6.259 -0.5057  0.4671 -0.5006
  165SAPE   O1218538   6.738   1.096   6.254  0.8044 -0.5480  0.4751
  165SAPE   O1118539   6.857   1.127   6.465  0.5746  0.2912 -0.7845
  165SAPE    C118540   6.806   1.023   6.555 -0.1276  0.0987 -0.1427
  165SAPE    HA18541   6.817   0.924   6.507  2.6003 -0.2458  1.0346
  165SAPE    HB18542   6.875   1.014   6.642 -0.0836  1.5857  0.0126
  165SAPE    C218543   6.662   1.055   6.610  0.3586 -0.4449  0.6516
  165SAPE    HS18544   6.592   1.060   6.523 -0.8005 -3.0300  1.3503
  165SAPE   O2118545   6.677   1.170   6.696 -0.2291 -0.5623 -0.7500
  165SAPE   C2118546   6.565   1.243   6.696 -0.4101  0.3453 -0.6193
  165SAPE   O2218547   6.461   1.205   6.639  0.1982 -0.1252 -0.1350
  165SAPE   C2218548   6.596   1.378   6.758  0.5834 -0.5252 -0.2243
  165SAPE   H2R18549   6.671   1.360   6.837 -0.5967  0.7491  1.2387
  165SAPE   H2S18550   6.644   1.438   6.677 -0.0414  1.6065  0.9102
  165SAPE    C318551   6.605   0.936   6.697  0.1044  0.8035  0.1087
  165SAPE    HX18552   6.602   0.847   6.630 -0.9506  1.5969 -0.9295
  165SAPE    HY18553   6.502   0.972   6.719 -0.1486 -0.5784  1.3707
  165SAPE   O3118554   6.687   0.918   6.815  0.0039 -0.2881 -0.3617
  165SAPE   C3118555   6.619   0.853   6.915  0.5240 -0.1888  0.1921
  165SAPE   O3218556   6.501   0.822   6.895 -0.1749  0.6441 -0.3632
  165SAPE   C3218557   6.706   0.812   7.035 -0.3148  0.5352  0.5040
  165SAPE   H2X18558   6.790   0.751   6.995 -2.1329 -1.2173 -0.7905
  165SAPE   H2Y18559   6.649   0.740   7.097  0.4989  0.0546  0.7113
  165SAPE   C2318560   6.467   1.455   6.815 -0.3912  0.4896  0.0117
  165SAPE   H3R18561   6.401   1.488   6.732  0.3545  0.1832 -0.7189
  165SAPE   H3S18562   6.509   1.548   6.858 -2.1749  1.7023 -0.7025
  165SAPE   C2418563   6.389   1.381   6.932  0.7487 -0.4163  0.2221
  165SAPE   H4R18564   6.345   1.282   6.906 -1.8174  0.9476 -0.9463
  165SAPE   H4S18565   6.305   1.450   6.951  0.4866 -0.5832 -0.3059
  165SAPE   C2518566   6.480   1.367   7.051  0.2039  0.1867  0.7113
  165SAPE   H5R18567   6.570   1.311   7.021  0.1056  0.3534  0.0783
  165SAPE   C2618568   6.463   1.392   7.180  0.3776 -0.9505  0.0522
  165SAPE   H6R18569   6.542   1.364   7.251 -0.0523  1.0426  1.4147
  165SAPE   C2718570   6.332   1.447   7.238  0.1909 -0.1065 -0.0547
  165SAPE   H7R18571   6.294   1.377   7.315 -1.3214 -1.6209 -2.0739
  165SAPE   H7S18572   6.251   1.439   7.163 -1.1352 -0.4104  1.3633
  165SAPE   C2818573   6.345   1.583   7.299 -0.2371 -0.0103 -0.4102
  165SAPE   H8R18574   6.393   1.656   7.232 -0.5464 -0.6402 -1.3420
  165SAPE   C2918575   6.334   1.617   7.432  0.7742  0.5387 -0.3103
  165SAPE   H9R18576   6.363   1.715   7.474  0.0689  1.3818 -1.6937
  165SAPE  C21018577   6.296   1.525   7.543  0.3241 -0.1087 -0.7529
  165SAPE  H10R18578   6.380   1.536   7.615 -0.5427 -0.9452  0.3941
  165SAPE  H10S18579   6.274   1.426   7.498 -0.5051  0.1731 -0.9827
  165SAPE  C21118580   6.162   1.562   7.606 -0.6805 -0.3124  0.5118
  165SAPE  H11R18581   6.087   1.609   7.540  0.6375  0.1967 -0.6791
  165SAPE  C21218582   6.134   1.547   7.732  0.7793  0.2319  0.0859
  165SAPE  H12R18583   6.036   1.589   7.760 -0.0118  0.5619 -2.7711
  165SAPE  C21318584   6.205   1.494   7.849  0.3426  0.6686 -0.3529
  165SAPE  H13R18585   6.314   1.506   7.832  1.3127 -1.2502  3.4341
  165SAPE  H13S18586   6.172   1.388   7.855 -1.5615  1.1382 -1.5775
  165SAPE  C21418587   6.178   1.559   7.980 -0.9389 -0.1234 -0.6471
  165SAPE  H14R18588   6.253   1.635   8.007 -1.3892  0.4538 -0.9876
  165SAPE  C21518589   6.057   1.542   8.049 -0.3015  0.1105 -0.3973
  165SAPE  H15R18590   6.039   1.598   8.141  1.3438  2.5858 -1.4695
  165SAPE  C21618591   5.940   1.450   8.002  0.0912  0.0354  0.5248
  165SAPE  H16R18592   5.906   1.376   8.078  2.1296 -2.5047 -0.8783
  165SAPE  H16S18593   5.970   1.410   7.903  0.2394  0.6408  0.3204
  165SAPE  C21718594   5.819   1.547   7.987 -0.5178 -0.1056 -0.4325
  165SAPE  H17R18595   5.835   1.630   7.914 -2.1142 -0.1029 -0.8298
  165SAPE  H17S18596   5.797   1.599   8.082 -0.8067  0.6789 -0.9101
  165SAPE  C21818597   5.692   1.475   7.954  0.1661  0.0328  0.1251
  165SAPE  H18R18598   5.724   1.384   7.898  1.1632  0.4262  0.0443
  165SAPE  H18S18599   5.629   1.534   7.884  2.0529 -1.7282 -3.3326
  165SAPE  C21918600   5.621   1.426   8.075 -1.2072  0.6994 -0.9751
  165SAPE  H19R18601   5.611   1.518   8.137 -0.8724  0.9462 -1.2872
  165SAPE  H19S18602   5.686   1.354   8.129 -0.2084  0.5616 -2.3120
  165SAPE  C22018603   5.482   1.361   8.059  0.2942 -0.3268 -0.1724
  165SAPE  H20R18604   5.433   1.362   8.159  1.0263  0.8020  0.1958
  165SAPE  H20S18605   5.492   1.256   8.025 -0.8919  0.1546 -2.1453
  165SAPE  H20T18606   5.425   1.421   7.984  0.7175 -1.4098 -1.4047
  165SAPE   C3318607   6.743   0.931   7.120 -0.8577 -1.2838 -0.1787
  165SAPE   H3X18608   6.807   0.898   7.205  1.0991  2.0318 -0.2123
  165SAPE   H3Y18609   6.657   0.983   7.167 -0.5613  0.4558 -1.4781
  165SAPE   C3418610   6.829   1.042   7.050 -0.3857  0.2672  0.3812
  165SAPE   H4X18611   6.780   1.086   6.960  1.7935  0.2966 -0.8695
  165SAPE   H4Y18612   6.913   0.983   7.006 -0.3452  0.7579 -0.2168
  165SAPE   C3518613   6.869   1.155   7.146  0.6458 -0.0493  0.0726
  165SAPE   H5X18614   6.778   1.190   7.199  1.4995 -1.5403  2.6929
  165SAPE   H5Y18615   6.931   1.230   7.093  3.2126 -1.6204  0.6967
  165SAPE   C3618616   6.941   1.109   7.277 -0.0041 -0.2574 -0.3125
  165SAPE   H6X18617   7.037   1.057   7.252 -0.9775 -1.5625 -1.5331
  165SAPE   H6Y18618   6.889   1.033   7.339  2.4951 -1.7053  0.1712
  165SAPE   C3718619   6.975   1.238   7.363  0.1930  0.6980  0.1672
  165SAPE   H7X18620   6.876   1.275   7.396  0.2994  0.7842  0.3926
  165SAPE   H7Y18621   7.020   1.315   7.298 -0.4951  1.5378  0.6696
  165SAPE   C3818622   7.062   1.222   7.494 -0.1412  0.8008 -0.4317
  165SAPE   H8X18623   7.055   1.319   7.548 -2.1327  0.2665  0.3699
  165SAPE   H8Y18624   7.163   1.195   7.456  1.0877  0.0194  3.0759
  165SAPE   C3918625   7.020   1.092   7.569  0.3476  0.8139  0.3957
  165SAPE   H9X18626   7.023   1.009   7.495  0.1658  1.1638 -0.0157
  165SAPE   H9Y18627   6.918   1.097   7.613  0.2656 -1.8658  0.6344
  165SAPE  C31018628   7.115   1.056   7.688  0.5392  0.1025 -0.4499
  165SAPE  H10X18629   7.212   1.040   7.637 -0.0599 -3.0238 -0.7922
  165SAPE  H10Y18630   7.088   0.959   7.735  2.0290 -0.3771 -0.5330
  165SAPE  C31118631   7.101   1.159   7.802 -0.1787  0.8555 -0.4061
  165SAPE  H11X18632   7.100   1.262   7.761 -1.9447 -0.1965 -3.3828
  165SAPE  H11Y18633   7.196   1.154   7.859  0.4294 -0.5459 -1.4827
  165SAPE  C31218634   6.989   1.114   7.902  0.1460 -0.1335  0.6759
  165SAPE  H12X18635   7.020   1.014   7.939 -0.2144 -0.0669  1.1594
  165SAPE  H12Y18636   6.899   1.112   7.836  1.2918  2.3508 -1.1429
  165SAPE  C31318637   6.974   1.206   8.020 -0.1741 -0.3253  0.0267
  165SAPE  H13X18638   6.885   1.166   8.073  0.9848  1.2595  3.4442
  165SAPE  H13Y18639   6.953   1.310   7.989 -0.3403 -0.7485 -1.3894
  165SAPE  C31418640   7.084   1.196   8.133  0.0354 -0.1865  0.0419
  165SAPE  H14X18641   7.053   1.269   8.211 -1.6893  0.2141 -0.9535
  165SAPE  H14Y18642   7.183   1.226   8.096 -1.3284  1.7103 -2.3317
  165SAPE  C31518643   7.112   1.050   8.192  0.7373 -0.4117  1.1454
  165SAPE  H15X18644   7.193   1.073   8.265 -0.2224  1.0876  1.7958
  165SAPE  H15Y18645   7.148   0.991   8.105  2.5053  2.2377 -0.0635
  165SAPE  C31618646   6.991   0.984   8.267  0.4177 -0.2301 -0.4014
  165SAPE  H16X18647   7.021   0.889   8.316  3.3917  1.5535  1.5881
  165SAPE  H16Y18648   6.913   0.944   8.199  0.1237 -1.9841  0.9062
  165SAPE  C31718649   6.913   1.068   8.378 -0.7890 -0.4574  0.6006
  165SAPE  H17X18650   6.874   1.161   8.332  1.1939  0.2631  0.2844
  165SAPE  H17Y18651   6.980   1.101   8.461  1.4977  2.0495 -2.0095
  165SAPE  C31818652   6.796   0.987   8.433  0.2185  0.3127 -0.7442
  165SAPE  H18X18653   6.817   0.893   8.488  1.7492  0.5530 -0.8976
  165SAPE  H18Y18654   6.734   0.954   8.346 -1.4646  2.4446 -0.4187
  165SAPE  H18Z18655   6.733   1.045   8.504 -1.6689  0.3175 -2.3267
  166SAPE     N18656   0.654   2.397   5.637  0.0489  0.4231 -0.3681
  166SAPE   HN118657   0.558   2.414   5.601  0.2949  1.2370 -0.6440
  166SAPE   HN218658   0.717   2.473   5.606 -0.2781  0.2447 -1.5110
  166SAPE   HN318659   0.682   2.306   5.594 -1.7237 -1.7185  2.5599
  166SAPE   C1218660   0.665   2.372   5.785 -0.4747  0.1884  0.3335
  166SAPE  H12A18661   0.690   2.470   5.831  0.1157 -0.8632  2.3987
  166SAPE  H12B18662   0.763   2.322   5.801 -0.5211 -0.2265 -0.6094
  166SAPE   C1118663   0.548   2.303   5.851 -0.0118 -0.2521  0.5701
  166SAPE  H11A18664   0.573   2.279   5.957 -1.4328 -0.9517  0.7775
  166SAPE  H11B18665   0.523   2.206   5.804  0.6098 -0.0521 -0.1762
  166SAPE     P18666   0.391   2.501   5.956 -0.1728 -0.0427  0.4583
  166SAPE   O1318667   0.406   2.632   5.893 -0.0937  0.1374  0.5059
  166SAPE   O1418668   0.255   2.470   6.004  0.1374  0.4353 -0.0530
  166SAPE   O1218669   0.435   2.390   5.851  0.2193 -0.7142 -0.6061
  166SAPE   O1118670   0.495   2.474   6.070  0.2102 -0.0821  0.2805
  166SAPE    C118671   0.463   2.512   6.205 -0.1966  0.1971  0.1872
  166SAPE    HA18672   0.562   2.538   6.247  0.1228  2.8318 -1.9648
  166SAPE    HB18673   0.411   2.609   6.217  1.5487  1.0336  1.4643
  166SAPE    C218674   0.387   2.401   6.291  0.4509 -0.5936  0.1684
  166SAPE    HS18675   0.287   2.375   6.252  0.6211 -2.0527  0.6352
  166SAPE   O2118676   0.387   2.465   6.422 -0.1318  0.6781  0.5173
  166SAPE   C2118677   0.277   2.448   6.488 -0.0879  0.3003 -0.1501
  166SAPE   O2218678   0.179   2.385   6.445 -1.2153 -0.4683 -0.0751
  166SAPE   C2218679   0.296   2.520   6.620 -0.3506 -0.2267  0.0530
  166SAPE   H2R18680   0.372   2.467   6.681 -0.1131 -0.6828 -0.6262
  166SAPE   H2S18681   0.329   2.624   6.598  0.1677  0.0334  1.8832
  166SAPE    C318682   0.465   2.265   6.309 -0.1102 -0.6319  0.0006
  166SAPE    HX18683   0.476   2.212   6.212  0.6238  3.4351 -2.3962
  166SAPE    HY18684   0.404   2.209   6.383  1.0913  1.3533  2.6492
  166SAPE   O3118685   0.599   2.292   6.355 -0.5960  0.3380  0.2569
  166SAPE   C3118686   0.610   2.302   6.491  0.2715  0.1051 -0.3140
  166SAPE   O3218687   0.521   2.272   6.570  0.0991 -1.2495 -0.4498
  166SAPE   C3218688   0.744   2.361   6.533  0.4394 -0.2985 -0.0586
  166SAPE   H2X18689   0.777   2.418   6.444  0.2241  0.1920  0.1707
  166SAPE   H2Y18690   0.819   2.283   6.558  1.5688  0.8985  0.4084
  166SAPE   C2318691   0.163   2.534   6.701 -0.0681  1.0778 -0.1593
  166SAPE   H3R18692   0.127   2.436   6.741  1.4373  1.1681  1.5561
  166SAPE   H3S18693   0.086   2.575   6.632 -1.7657  0.4175  1.2642
  166SAPE   C2418694   0.191   2.630   6.817  0.4144  0.5906  0.4216
  166SAPE   H4R18695   0.243   2.720   6.776  1.7320 -1.0802 -1.8009
  166SAPE   H4S18696   0.262   2.568   6.875 -1.8164 -2.3368  0.2257
  166SAPE   C2518697   0.066   2.653   6.899  0.0566 -0.7714  0.5130
  166SAPE   H5R18698  -0.031   2.632   6.852 -0.5148  1.2464  0.6690
  166SAPE   C2618699   0.057   2.678   7.029 -0.4034  0.4234 -0.2239
  166SAPE   H6R18700  -0.043   2.692   7.073 -1.6147 -3.2546 -1.4680
  166SAPE   C2718701   0.167   2.703   7.138 -0.1534  0.3555  1.0062
  166SAPE   H7R18702   0.171   2.805   7.182  0.3355  0.0848  1.6034
  166SAPE   H7S18703   0.266   2.692   7.090 -0.9352  1.0561 -0.8875
  166SAPE   C2818704   0.152   2.593   7.242 -0.2797  0.4153 -0.7352
  166SAPE   H8R18705   0.191   2.492   7.219  1.5071  0.5288  1.4378
  166SAPE   C2918706   0.105   2.624   7.363 -0.2094  0.6535  0.4796
  166SAPE   H9R18707   0.106   2.542   7.436  1.6447  0.6978  0.5390
  166SAPE  C21018708   0.066   2.761   7.421  0.3785  0.2389  0.0512
  166SAPE  H10R18709  -0.027   2.745   7.479  1.2287  0.4270  1.4923
  166SAPE  H10S18710   0.046   2.841   7.346  1.1500  2.1851  1.8494
  166SAPE  C21118711   0.178   2.816   7.501 -0.2381 -1.0179 -0.0067
  166SAPE  H11R18712   0.227   2.899   7.447 -0.8505 -1.8933 -1.9927
  166SAPE  C21218713   0.232   2.773   7.617  0.3444 -0.3126 -0.2188
  166SAPE  H12R18714   0.317   2.832   7.654  0.1394 -0.7101  0.9344
  166SAPE  C21318715   0.180   2.661   7.698  0.0892  0.0487  0.3751
  166SAPE  H13R18716   0.257   2.592   7.740 -1.5581  0.0107  3.6569
  166SAPE  H13S18717   0.109   2.599   7.640  0.5081 -0.8149  0.7635
  166SAPE  C21418718   0.109   2.730   7.816  0.3407  0.2094  0.2360
  166SAPE  H14R18719   0.039   2.811   7.791  0.6948  0.1832 -0.8726
  166SAPE  C21518720   0.137   2.706   7.945  0.0809  0.5769  0.6080
  166SAPE  H15R18721   0.077   2.760   8.020 -0.1548 -0.0525  0.8760
  166SAPE  C21618722   0.227   2.608   8.013 -0.6384  0.0309 -0.0631
  166SAPE  H16R18723   0.314   2.668   8.048 -0.5906  0.7363 -1.3174
  166SAPE  H16S18724   0.278   2.536   7.945 -0.3547 -0.8615  1.0683
  166SAPE  C21718725   0.160   2.541   8.140  0.4694 -0.1490  0.0487
  166SAPE  H17R18726   0.080   2.470   8.108 -1.6462  1.7935  0.7248
  166SAPE  H17S18727   0.106   2.619   8.198  0.9912  1.6391 -1.7498
  166SAPE  C21818728   0.247   2.458   8.236 -0.0183 -0.1448 -0.8487
  166SAPE  H18R18729   0.326   2.513   8.291 -0.3629 -0.4462 -0.0344
  166SAPE  H18S18730   0.299   2.370   8.192  1.2309 -0.8611  1.8624
  166SAPE  C21918731   0.146   2.395   8.334  0.6981  0.1857 -0.2335
  166SAPE  H19R18732   0.071   2.341   8.273  1.2292  1.8453 -2.4763
  166SAPE  H19S18733   0.081   2.471   8.383 -0.6918  0.1477 -1.9509
  166SAPE  C22018734   0.209   2.298   8.433  0.1107 -0.4431 -0.0529
  166SAPE  H20R18735   0.280   2.354   8.498  0.4664  1.5615 -2.0290
  166SAPE  H20S18736   0.265   2.218   8.381  1.8333  0.0751  0.9158
  166SAPE  H20T18737   0.133   2.240   8.490 -1.4023  1.2244 -0.2783
  166SAPE   C3318738   0.741   2.452   6.661  0.1862 -0.3043 -0.9830
  166SAPE   H3X18739   0.844   2.490   6.671 -0.4492  2.1185 -2.7701
  166SAPE   H3Y18740   0.710   2.389   6.747  1.2179 -1.6033 -1.5365
  166SAPE   C3418741   0.645   2.571   6.668  0.4971 -0.5373 -0.0267
  166SAPE   H4X18742   0.544   2.543   6.631  0.4234  0.6920 -0.8337
  166SAPE   H4Y18743   0.685   2.645   6.595  2.2572 -2.5651 -1.2076
  166SAPE   C3518744   0.633   2.643   6.793 -0.0609 -0.0635 -0.9315
  166SAPE   H5X18745   0.726   2.649   6.854 -1.5560 -0.9978  1.6352
  166SAPE   H5Y18746   0.570   2.593   6.870  0.8450 -0.1661 -0.2352
  166SAPE   C3618747   0.578   2.785   6.781  0.5123 -0.2189 -0.7525
  166SAPE   H6X18748   0.491   2.804   6.714  0.0481  0.3230 -0.0086
  166SAPE   H6Y18749   0.655   2.849   6.733 -0.9171  0.9781 -1.5307
  166SAPE   C3718750   0.533   2.851   6.912 -0.1779  0.0991  0.2638
  166SAPE   H7X18751   0.428   2.821   6.935 -0.7009  1.8457  0.2985
  166SAPE   H7Y18752   0.516   2.958   6.889  1.8372  0.2561 -0.6678
  166SAPE   C3818753   0.631   2.833   7.036  1.4839  0.2060 -0.9159
  166SAPE   H8X18754   0.729   2.883   7.023  1.3525  1.1122  1.2148
  166SAPE   H8Y18755   0.661   2.729   7.063  0.4506  0.6188  2.2705
  166SAPE   C3918756   0.570   2.885   7.171 -0.3737 -0.4709  0.5918
  166SAPE   H9X18757   0.465   2.851   7.181 -0.1510 -1.8039 -1.1534
  166SAPE   H9Y18758   0.567   2.996   7.164 -2.1102 -0.5987 -3.0135
  166SAPE  C31018759   0.650   2.841   7.296 -0.5901  0.3419  0.2236
  166SAPE  H10X18760   0.753   2.885   7.297  0.1287 -1.2806  0.5618
  166SAPE  H10Y18761   0.661   2.731   7.295 -1.0009  0.3085 -0.8072
  166SAPE  C31118762   0.576   2.894   7.419  0.6772  0.4448 -0.7669
  166SAPE  H11X18763   0.484   2.835   7.436 -0.1084  2.2850  1.8574
  166SAPE  H11Y18764   0.546   2.998   7.398 -0.9878 -0.0538 -1.0009
  166SAPE  C31218765   0.670   2.878   7.533 -0.4143 -0.3316  0.4607
  166SAPE  H12X18766   0.760   2.942   7.524 -2.5867  2.5943 -2.5068
  166SAPE  H12Y18767   0.710   2.774   7.526  2.3148  0.7677 -1.9701
  166SAPE  C31318768   0.615   2.919   7.668 -0.5623 -0.3291  0.4331
  166SAPE  H13X18769   0.541   2.845   7.705  0.5778 -1.3515  0.7491
  166SAPE  H13Y18770   0.571   3.020   7.665 -0.7731 -0.4460 -2.1514
  166SAPE  C31418771   0.725   2.911   7.778  0.3532  1.1463  0.5145
  166SAPE  H14X18772   0.689   2.960   7.871  0.9885 -0.0684  1.4275
  166SAPE  H14Y18773   0.821   2.957   7.745  1.3420  0.9001  2.9022
  166SAPE  C31518774   0.759   2.761   7.819  0.5824 -0.3269 -0.4116
  166SAPE  H15X18775   0.853   2.758   7.877 -0.2131 -0.0080  0.9315
  166SAPE  H15Y18776   0.764   2.702   7.725  1.8632  1.4278 -1.5123
  166SAPE  C31618777   0.656   2.698   7.906 -0.1564 -0.0922 -0.4282
  166SAPE  H16X18778   0.554   2.693   7.863  0.2335 -1.6194 -1.2162
  166SAPE  H16Y18779   0.642   2.751   8.003 -1.2197 -0.7089 -0.2321
  166SAPE  C31718780   0.704   2.559   7.949 -0.5612 -0.1823  0.2111
  166SAPE  H17X18781   0.803   2.564   7.999 -0.1051 -0.5161 -0.6387
  166SAPE  H17Y18782   0.720   2.495   7.860 -0.4433 -0.1964  0.2417
  166SAPE  C31818783   0.613   2.476   8.038  0.2787 -0.7799  0.4608
  166SAPE  H18X18784   0.661   2.378   8.060 -1.2555 -2.0459 -1.5499
  166SAPE  H18Y18785   0.516   2.449   7.992  0.4559 -2.2287  0.8638
  166SAPE  H18Z18786   0.596   2.524   8.136  2.3945 -0.2258  0.6012
  167SAPE     N18787   2.741   3.697   6.515  0.4014 -0.0926 -0.2171
  167SAPE   HN118788   2.824   3.736   6.564 -0.5859  0.8088  0.7909
  167SAPE   HN218789   2.674   3.673   6.591 -0.9275 -1.4552 -1.7351
  167SAPE   HN318790   2.759   3.611   6.459  1.7760  1.4577 -2.3021
  167SAPE   C1218791   2.682   3.807   6.420 -0.2238  0.1529  0.1621
  167SAPE  H12A18792   2.747   3.809   6.329 -0.3118  1.8210  0.1171
  167SAPE  H12B18793   2.692   3.896   6.485  1.9247 -0.4451  0.7518
  167SAPE   C1118794   2.542   3.773   6.367 -1.0108 -0.7130  0.5912
  167SAPE  H11A18795   2.531   3.670   6.327 -2.1866 -0.2958 -0.2024
  167SAPE  H11B18796   2.532   3.848   6.285  3.5993 -1.1183 -0.6580
  167SAPE     P18797   2.290   3.779   6.443 -0.2536 -0.0738 -0.1919
  167SAPE   O1318798   2.233   3.910   6.489 -0.1689 -0.2165  0.0963
  167SAPE   O1418799   2.269   3.745   6.301  0.0622 -0.2290 -0.2469
  167SAPE   O1218800   2.445   3.788   6.470  0.1861  0.5970  0.1695
  167SAPE   O1118801   2.234   3.659   6.538 -0.5580 -0.0780  0.1041
  167SAPE    C118802   2.320   3.600   6.637  0.0496  0.1549  0.2856
  167SAPE    HA18803   2.275   3.509   6.682  0.7751 -0.0702  0.5708
  167SAPE    HB18804   2.412   3.556   6.592 -0.1573 -1.2282  1.1473
  167SAPE    C218805   2.357   3.701   6.745  0.7910 -0.2523  0.1354
  167SAPE    HS18806   2.430   3.777   6.711  1.3413 -0.5542  0.6085
  167SAPE   O2118807   2.416   3.627   6.860 -0.0502 -0.1474 -0.1190
  167SAPE   C2118808   2.546   3.585   6.830  0.0350  0.1782 -0.4940
  167SAPE   O2218809   2.613   3.619   6.735 -0.1398  0.1400  0.7932
  167SAPE   C2218810   2.587   3.503   6.951 -0.2118  0.2112 -0.3877
  167SAPE   H2R18811   2.502   3.439   6.984  0.8586 -1.8875 -1.4676
  167SAPE   H2S18812   2.665   3.435   6.911  0.1016  1.4144 -1.9003
  167SAPE    C318813   2.216   3.750   6.798 -0.1814  0.0481  0.2313
  167SAPE    HX18814   2.162   3.662   6.838  0.4492 -1.2233 -1.5809
  167SAPE    HY18815   2.159   3.790   6.712 -2.1139 -0.7018  1.1124
  167SAPE   O3118816   2.232   3.856   6.899 -0.3616  0.3730  0.0657
  167SAPE   C3118817   2.120   3.889   6.955  0.5272 -0.3342  0.6062
  167SAPE   O3218818   2.015   3.842   6.914  0.2295 -0.1947 -0.0581
  167SAPE   C3218819   2.133   3.982   7.083 -0.6130  0.5774  0.1793
  167SAPE   H2X18820   2.080   4.078   7.063 -0.3561  0.5110 -0.8817
  167SAPE   H2Y18821   2.240   4.003   7.101 -0.6378  0.1501  0.8386
  167SAPE   C2318822   2.642   3.592   7.075  0.0410  0.3648  0.1821
  167SAPE   H3R18823   2.588   3.552   7.163 -1.6368  1.6909 -0.1759
  167SAPE   H3S18824   2.609   3.698   7.065 -0.2616  0.0852 -2.3123
  167SAPE   C2418825   2.793   3.578   7.104 -0.1859 -0.2851  0.5330
  167SAPE   H4R18826   2.832   3.474   7.114 -0.5850 -0.4287  0.6214
  167SAPE   H4S18827   2.808   3.604   7.211  1.2775 -0.2775  0.3509
  167SAPE   C2518828   2.867   3.650   6.999 -0.3163 -0.0494 -0.0161
  167SAPE   H5R18829   2.846   3.611   6.898  0.8968  0.5607 -0.5222
  167SAPE   C2618830   2.962   3.741   7.023  0.0111 -0.9839 -0.4887
  167SAPE   H6R18831   3.019   3.786   6.940 -0.5821  0.4060 -0.1608
  167SAPE   C2718832   3.003   3.783   7.158  0.0886 -0.3885 -0.5010
  167SAPE   H7R18833   3.073   3.700   7.181 -0.0536 -0.5835 -0.7740
  167SAPE   H7S18834   2.915   3.783   7.226  0.6617  1.0596  0.2826
  167SAPE   C2818835   3.073   3.923   7.148  0.1738  0.5000 -0.7844
  167SAPE   H8R18836   3.117   3.941   7.049  0.7649 -1.5233 -0.9321
  167SAPE   C2918837   3.100   4.012   7.252  0.5837 -0.0214 -0.5713
  167SAPE   H9R18838   3.143   4.110   7.225 -0.4887  0.5143 -0.3688
  167SAPE  C21018839   3.064   3.986   7.394 -0.2937  0.3381 -0.5663
  167SAPE  H10R18840   3.052   3.879   7.423 -0.9945  0.3925 -0.6458
  167SAPE  H10S18841   2.963   4.030   7.405 -1.2802 -1.8960  0.0039
  167SAPE  C21118842   3.160   4.041   7.489 -0.5628 -0.7627 -0.7295
  167SAPE  H11R18843   3.266   4.021   7.466 -0.3782 -1.6346  0.7747
  167SAPE  C21218844   3.125   4.124   7.592  0.1595 -0.0444 -0.4663
  167SAPE  H12R18845   3.198   4.162   7.665 -1.3454  2.3439 -0.0928
  167SAPE  C21318846   2.988   4.159   7.635 -1.2315 -0.2510 -1.0946
  167SAPE  H13R18847   2.941   4.233   7.567 -2.4530  1.8107  1.7895
  167SAPE  H13S18848   2.995   4.221   7.727 -2.6353  0.8958 -1.7311
  167SAPE  C21418849   2.887   4.057   7.660  0.2925  0.5703  0.2286
  167SAPE  H14R18850   2.819   4.029   7.578 -2.0641  1.6271  1.7025
  167SAPE  C21518851   2.878   3.981   7.778 -0.2378  0.1280  0.6167
  167SAPE  H15R18852   2.805   3.898   7.778  0.1667 -0.2330  0.2006
  167SAPE  C21618853   2.968   4.007   7.901  0.0202  0.6603  0.4773
  167SAPE  H16R18854   3.032   4.098   7.899 -0.6798  1.3043  3.2283
  167SAPE  H16S18855   3.036   3.920   7.907  0.0133  0.3504 -2.4250
  167SAPE  C21718856   2.881   4.019   8.033 -0.3175  0.6681  0.0066
  167SAPE  H17R18857   2.826   3.924   8.050  1.9889 -0.5412  1.2082
  167SAPE  H17S18858   2.806   4.101   8.024  0.0243  1.0230  0.3337
  167SAPE  C21818859   2.971   4.035   8.159  0.3504  0.1779 -0.5308
  167SAPE  H18R18860   2.906   4.030   8.250  0.7244  2.1446 -0.0989
  167SAPE  H18S18861   3.015   4.137   8.161  0.2204  0.2637  2.1031
  167SAPE  C21918862   3.082   3.930   8.165  0.1781 -0.0669  0.5379
  167SAPE  H19R18863   3.150   3.962   8.083  0.5705 -1.1796  0.4129
  167SAPE  H19S18864   3.047   3.835   8.120  0.7245  1.2921 -3.1476
  167SAPE  C22018865   3.159   3.901   8.292 -0.0531 -0.2392 -0.0430
  167SAPE  H20R18866   3.227   3.814   8.274  1.5056  1.1833 -1.4636
  167SAPE  H20S18867   3.102   3.886   8.386 -1.8861  2.9496 -0.5141
  167SAPE  H20T18868   3.225   3.988   8.315  0.6239 -0.1360 -2.1658
  167SAPE   C3318869   2.069   3.917   7.209  0.2951 -0.0486  0.1988
  167SAPE   H3X18870   2.147   3.858   7.260  1.2649  0.0905 -1.0697
  167SAPE   H3Y18871   1.981   3.856   7.180 -0.9881  1.5461  0.5484
  167SAPE   C3418872   2.026   4.026   7.312  0.3471 -0.0478 -0.0759
  167SAPE   H4X18873   1.936   4.077   7.270  1.3884 -0.6361 -3.2752
  167SAPE   H4Y18874   2.101   4.107   7.328  0.0216 -0.1486  2.3347
  167SAPE   C3518875   1.997   3.973   7.451  0.1753  0.3989 -0.4880
  167SAPE   H5X18876   2.063   3.888   7.478 -1.1613 -0.0123  1.7771
  167SAPE   H5Y18877   1.889   3.947   7.444  0.0754  0.8845 -0.8339
  167SAPE   C3618878   2.002   4.079   7.560  0.0989  0.1496 -0.0834
  167SAPE   H6X18879   1.956   4.177   7.535  1.5063  0.5960 -0.9968
  167SAPE   H6Y18880   2.112   4.091   7.570 -0.0222  2.2294 -0.8195
  167SAPE   C3718881   1.938   4.031   7.689 -0.2998 -0.1332  1.0632
  167SAPE   H7X18882   1.977   3.927   7.699 -0.3520 -0.4122 -1.1436
  167SAPE   H7Y18883   1.828   4.031   7.678 -0.0240 -0.2696 -2.8979
  167SAPE   C3818884   1.977   4.107   7.814  0.5222 -0.4570 -1.3838
  167SAPE   H8X18885   1.938   4.211   7.806  0.9063 -0.0917  0.7216
  167SAPE   H8Y18886   2.087   4.114   7.828  0.1934 -0.0820  2.0545
  167SAPE   C3918887   1.922   4.045   7.945 -0.0058 -0.2531 -0.5743
  167SAPE   H9X18888   1.959   3.940   7.953  1.0588  0.1521  0.1122
  167SAPE   H9Y18889   1.813   4.030   7.930 -0.0620 -0.2399 -0.1741
  167SAPE  C31018890   1.957   4.113   8.069 -0.1859 -0.4579 -0.1281
  167SAPE  H10X18891   1.917   4.216   8.053 -1.4083 -1.1105 -1.4747
  167SAPE  H10Y18892   2.068   4.113   8.074 -0.1232  2.9037  1.2806
  167SAPE  C31118893   1.890   4.054   8.192  0.0486 -0.2359 -0.5866
  167SAPE  H11X18894   1.907   3.947   8.216  0.9877 -0.4939 -2.2233
  167SAPE  H11Y18895   1.786   4.079   8.162 -0.6057  1.1635  2.5062
  167SAPE  C31218896   1.925   4.122   8.328 -0.3875 -0.6243 -0.8427
  167SAPE  H12X18897   1.830   4.109   8.385 -0.1130 -1.0847 -0.4838
  167SAPE  H12Y18898   1.933   4.229   8.299  2.6617 -0.5477 -0.0300
  167SAPE  C31318899   2.053   4.073   8.385  0.0471  0.4995  0.8195
  167SAPE  H13X18900   2.135   4.118   8.324  0.9597  1.6461  2.7791
  167SAPE  H13Y18901   2.069   3.964   8.374  1.9036  0.7780  0.2460
  167SAPE  C31418902   2.078   4.122   8.525  0.0049 -0.3711  0.3044
  167SAPE  H14X18903   2.173   4.087   8.572 -0.1987 -0.7039  0.4777
  167SAPE  H14Y18904   2.003   4.078   8.595 -0.2937  0.0141  0.2226
  167SAPE  C31518905   2.073   4.276   8.536 -0.0975 -0.2867  0.6978
  167SAPE  H15X18906   1.964   4.295   8.529 -0.1682 -0.0203  2.2882
  167SAPE  H15Y18907   2.121   4.324   8.448 -1.3490  0.4471  0.3854
  167SAPE  C31618908   2.121   4.346   8.664 -0.7262  0.0948 -0.2098
  167SAPE  H16X18909   2.063   4.313   8.753 -4.4591  2.2422 -1.6253
  167SAPE  H16Y18910   2.092   4.453   8.659  0.6077  0.4934  0.0167
  167SAPE  C31718911   2.276   4.347   8.679  0.1910 -0.4143  1.3050
  167SAPE  H17X18912   2.327   4.377   8.584 -1.2624 -0.5491  0.4581
  167SAPE  H17Y18913   2.302   4.242   8.702  0.4768 -0.4172  0.9827
  167SAPE  C31818914   2.333   4.435   8.801 -0.1478 -0.1268  0.4719
  167SAPE  H18X18915   2.363   4.538   8.775 -2.0638  0.6808  1.3082
  167SAPE  H18Y18916   2.424   4.388   8.845 -0.5736 -1.9759 -0.5000
  167SAPE  H18Z18917   2.248   4.451   8.870  0.8821 -3.1711  2.6768
  168SAPE     N18918   1.819   3.036   6.352  0.5174  0.4933  0.1727
  168SAPE   HN118919   1.756   3.099   6.298  0.2121  2.3067  2.5234
  168SAPE   HN218920   1.903   3.003   6.300  0.3822  1.3335 -0.6154
  168SAPE   HN318921   1.765   2.949   6.370  0.4918  0.6489  0.8703
  168SAPE   C1218922   1.853   3.101   6.486 -0.4036 -0.1425  0.7533
  168SAPE  H12A18923   1.908   3.194   6.459 -1.3226  0.5316  1.1678
  168SAPE  H12B18924   1.934   3.044   6.537  1.1295  0.6335 -0.7183
  168SAPE   C1118925   1.733   3.140   6.568  0.1066 -0.4934  0.8513
  168SAPE  H11A18926   1.768   3.167   6.670  0.7803  0.6283  0.3421
  168SAPE  H11B18927   1.662   3.056   6.580  0.0464 -0.8483 -1.4934
  168SAPE     P18928   1.570   3.269   6.397  0.0427 -0.4167  0.1249
  168SAPE   O1318929   1.548   3.413   6.375  0.2232  0.2183 -0.0041
  168SAPE   O1418930   1.605   3.201   6.272  0.1904  0.4215 -0.2124
  168SAPE   O1218931   1.683   3.257   6.499 -0.2616 -0.1982  0.5570
  168SAPE   O1118932   1.443   3.208   6.468  0.1326  0.2859 -0.1009
  168SAPE    C118933   1.425   3.252   6.603  0.0859  0.0470 -0.1181
  168SAPE    HA18934   1.519   3.268   6.661 -0.9382  2.7049  0.9765
  168SAPE    HB18935   1.385   3.356   6.593 -1.6357 -0.6368 -0.7428
  168SAPE    C218936   1.329   3.167   6.684  0.4023 -0.5920  0.3876
  168SAPE    HS18937   1.239   3.166   6.620  0.7213  2.4106 -0.2408
  168SAPE   O2118938   1.323   3.232   6.812  0.3801  0.4007  0.3686
  168SAPE   C2118939   1.209   3.224   6.878 -0.5369 -0.3111  0.4052
  168SAPE   O2218940   1.112   3.153   6.845 -0.2559  0.1452 -0.3872
  168SAPE   C2218941   1.213   3.321   6.999  0.0118 -0.3371 -0.2903
  168SAPE   H2R18942   1.315   3.314   7.043  0.3457  1.1145 -0.7540
  168SAPE   H2S18943   1.205   3.419   6.946 -1.4622 -0.3888 -0.1997
  168SAPE    C318944   1.384   3.020   6.696  0.2834  0.6042 -0.3652
  168SAPE    HX18945   1.371   2.970   6.598 -2.8951  0.0336  0.2254
  168SAPE    HY18946   1.307   2.962   6.752  0.7713 -0.3229 -0.6334
  168SAPE   O3118947   1.517   3.007   6.749  0.1047 -0.0798 -1.0272
  168SAPE   C3118948   1.521   2.988   6.882 -0.2467  1.1876 -0.0964
  168SAPE   O3218949   1.423   2.954   6.952 -0.4928 -0.2181  1.3836
  168SAPE   C3218950   1.658   2.997   6.932  0.1860  0.1480 -0.1343
  168SAPE   H2X18951   1.715   3.082   6.888 -1.1580  0.8503 -0.5680
  168SAPE   H2Y18952   1.718   2.905   6.918 -0.7984 -0.8388  1.7270
  168SAPE   C2318953   1.104   3.288   7.099  0.3541  0.0284 -0.0921
  168SAPE   H3R18954   1.005   3.286   7.048 -1.3211 -2.1992  2.9100
  168SAPE   H3S18955   1.101   3.365   7.179  0.1011  1.2404 -1.2344
  168SAPE   C2418956   1.121   3.152   7.175 -0.1674 -0.6984  0.8197
  168SAPE   H4R18957   1.118   3.081   7.089 -0.2372 -0.5924  0.7352
  168SAPE   H4S18958   1.026   3.132   7.228 -0.1541  2.0008  2.0084
  168SAPE   C2518959   1.245   3.125   7.259  0.7145 -0.2839 -0.6246
  168SAPE   H5R18960   1.326   3.078   7.202  1.4110 -0.6199  0.6137
  168SAPE   C2618961   1.269   3.151   7.390 -0.0904  0.4947 -0.1874
  168SAPE   H6R18962   1.366   3.120   7.431 -1.2409 -2.0633  0.8003
  168SAPE   C2718963   1.182   3.222   7.489  0.0110  0.3856  0.5514
  168SAPE   H7R18964   1.124   3.300   7.434 -0.4721  1.6689  2.7439
  168SAPE   H7S18965   1.248   3.290   7.547 -0.1067  2.2041 -1.3168
  168SAPE   C2818966   1.083   3.147   7.576  0.0327 -0.0116  0.5640
  168SAPE   H8R18967   1.027   3.067   7.525  0.1254  0.3477 -0.1075
  168SAPE   C2918968   1.068   3.171   7.704 -0.8819  1.0567 -0.0982
  168SAPE   H9R18969   0.999   3.103   7.758  1.3778  0.6289  2.4937
  168SAPE  C21018970   1.138   3.271   7.794  1.0262 -0.1182 -0.3134
  168SAPE  H10R18971   1.183   3.355   7.738 -1.5456  0.0823 -2.2388
  168SAPE  H10S18972   1.220   3.214   7.843  0.6890 -0.7196 -0.4406
  168SAPE  C21118973   1.041   3.314   7.906 -0.2025  0.2709  0.8155
  168SAPE  H11R18974   1.001   3.416   7.892 -0.4280  0.5522  3.2176
  168SAPE  C21218975   0.995   3.244   8.011 -0.4972  0.4065 -0.6321
  168SAPE  H12R18976   0.917   3.286   8.077 -0.2026  0.4249 -0.2902
  168SAPE  C21318977   1.026   3.100   8.046 -0.0559  0.0774  0.2308
  168SAPE  H13R18978   1.097   3.066   7.968  0.1672  0.8722  0.0714
  168SAPE  H13S18979   0.939   3.033   8.037  1.2818 -1.5897 -0.8396
  168SAPE  C21418980   1.086   3.092   8.184 -0.6268  0.8957 -0.6384
  168SAPE  H14R18981   1.195   3.107   8.186 -0.2295 -1.3223 -2.2827
  168SAPE  C21518982   1.017   3.074   8.297  0.0179  0.3816  0.9825
  168SAPE  H15R18983   1.077   3.072   8.390  0.6050  0.5291  0.6131
  168SAPE  C21618984   0.866   3.061   8.307  0.0714  0.1054 -0.1054
  168SAPE  H16R18985   0.809   3.058   8.212 -0.9500 -3.5948  0.4726
  168SAPE  H16S18986   0.829   3.154   8.356 -0.5286  0.3760 -1.0443
  168SAPE  C21718987   0.819   2.930   8.381 -0.0056 -0.1005  0.1074
  168SAPE  H17R18988   0.898   2.885   8.444 -0.9043 -0.9791  0.6387
  168SAPE  H17S18989   0.800   2.853   8.303 -0.8395 -0.3131  0.5064
  168SAPE  C21818990   0.685   2.933   8.462 -0.2945  0.5680  0.1738
  168SAPE  H18R18991   0.613   2.979   8.391 -0.2439 -1.2323 -1.1193
  168SAPE  H18S18992   0.690   3.005   8.546  3.0118  1.4027 -0.5929
  168SAPE  C21918993   0.608   2.804   8.500 -0.0143 -0.4044  0.7470
  168SAPE  H19R18994   0.509   2.828   8.545 -0.4984  0.7265 -0.8117
  168SAPE  H19S18995   0.669   2.742   8.570  0.8103 -2.5773 -1.7251
  168SAPE  C22018996   0.573   2.718   8.377  0.0674 -0.4018 -0.9027
  168SAPE  H20R18997   0.497   2.640   8.398 -0.3255 -0.5816 -2.8245
  168SAPE  H20S18998   0.662   2.670   8.333  1.0036  0.0743  0.4005
  168SAPE  H20T18999   0.525   2.784   8.302 -0.5881  1.9068  1.3830
  168SAPE   C3319000   1.665   3.025   7.089  0.5459  0.2498 -0.0863
  168SAPE   H3X19001   1.770   3.004   7.120  0.1429  1.4860  2.2961
  168SAPE   H3Y19002   1.593   2.958   7.139  0.5489 -1.2377 -1.9360
  168SAPE   C3419003   1.652   3.172   7.125  0.1589 -0.4843 -0.0729
  168SAPE   H4X19004   1.567   3.218   7.070 -0.1506  1.3840  1.8224
  168SAPE   H4Y19005   1.745   3.224   7.095  0.6915 -1.2486  0.2225
  168SAPE   C3519006   1.649   3.197   7.274 -0.3364  0.0754 -0.1425
  168SAPE   H5X19007   1.737   3.151   7.325 -0.4302 -1.6217 -1.3935
  168SAPE   H5Y19008   1.560   3.149   7.319  0.3940  0.4894  1.8061
  168SAPE   C3619009   1.642   3.340   7.318 -0.2033 -0.6334 -0.6609
  168SAPE   H6X19010   1.538   3.372   7.296 -1.3740 -1.0121  3.4417
  168SAPE   H6Y19011   1.714   3.414   7.278  0.2042 -0.5403  0.2340
  168SAPE   C3719012   1.657   3.357   7.468 -0.7946 -0.4581  0.0602
  168SAPE   H7X19013   1.763   3.329   7.486 -1.1981 -1.9943  0.1355
  168SAPE   H7Y19014   1.597   3.282   7.522  0.7100 -1.3434  0.5748
  168SAPE   C3819015   1.629   3.506   7.521  0.0671 -0.1323  1.5480
  168SAPE   H8X19016   1.548   3.547   7.458  0.3890 -0.5092  0.8798
  168SAPE   H8Y19017   1.719   3.570   7.506 -0.1766 -0.3211 -1.1824
  168SAPE   C3919018   1.594   3.508   7.669 -0.6157 -0.3467  0.6006
  168SAPE   H9X19019   1.655   3.436   7.729 -0.7641 -1.1305 -0.1544
  168SAPE   H9Y19020   1.487   3.482   7.682 -0.2729 -1.6633  1.0419
  168SAPE  C31019021   1.619   3.640   7.737  0.6055  0.3506 -0.2809
  168SAPE  H10X19022   1.549   3.709   7.687  0.9028  0.2345 -0.8716
  168SAPE  H10Y19023   1.725   3.668   7.722  0.3628  1.1137 -0.5849
  168SAPE  C31119024   1.591   3.643   7.894  0.2102 -0.0219 -0.0190
  168SAPE  H11X19025   1.634   3.555   7.945  0.4216  0.2523  0.2804
  168SAPE  H11Y19026   1.480   3.651   7.899  0.1547  0.9861 -1.8679
  168SAPE  C31219027   1.649   3.761   7.964 -0.1225 -0.7506  0.0737
  168SAPE  H12X19028   1.656   3.847   7.894 -1.3324  0.4666  1.3905
  168SAPE  H12Y19029   1.755   3.737   7.990  0.0566  2.3571  2.9597
  168SAPE  C31319030   1.571   3.805   8.087 -0.6305  0.2877 -0.2373
  168SAPE  H13X19031   1.465   3.804   8.052 -0.8761 -0.7800  0.4966
  168SAPE  H13Y19032   1.595   3.911   8.109  0.2095  0.0283  0.1157
  168SAPE  C31419033   1.593   3.713   8.211  0.0166 -0.1077 -0.4944
  168SAPE  H14X19034   1.702   3.691   8.211 -0.1289 -0.8640 -1.1766
  168SAPE  H14Y19035   1.532   3.622   8.194  1.6062 -1.0926 -1.0662
  168SAPE  C31519036   1.535   3.778   8.346  0.1261  0.5315  1.3687
  168SAPE  H15X19037   1.486   3.689   8.390 -0.6189 -1.1462 -2.4487
  168SAPE  H15Y19038   1.448   3.844   8.323 -0.0418  0.1154  0.7884
  168SAPE  C31619039   1.626   3.853   8.435 -0.0857  0.2974 -0.2636
  168SAPE  H16X19040   1.573   3.882   8.528 -0.8074 -0.3772 -0.4579
  168SAPE  H16Y19041   1.653   3.949   8.387  3.9677 -0.8864 -0.7870
  168SAPE  C31719042   1.752   3.782   8.487  0.0172  0.0560  0.3535
  168SAPE  H17X19043   1.806   3.868   8.533  0.9444  0.1437 -0.8477
  168SAPE  H17Y19044   1.821   3.742   8.409  1.3267  0.6335  1.1794
  168SAPE  C31819045   1.733   3.673   8.589 -0.3429 -0.5385  0.4526
  168SAPE  H18X19046   1.696   3.715   8.685 -1.8186 -3.5879  1.3446
  168SAPE  H18Y19047   1.832   3.624   8.601  0.5725  1.4334  1.4965
  168SAPE  H18Z19048   1.660   3.596   8.557  2.8061 -2.9004 -1.5915
  169SAPE     N19049   0.543   5.710   6.500  0.3872 -0.0773 -0.7905
  169SAPE   HN119050   0.531   5.676   6.598  3.0847  1.7846  0.3135
  169SAPE   HN219051   0.557   5.629   6.436 -0.3186 -1.1739  0.3664
  169SAPE   HN319052   0.634   5.760   6.499  0.3308  0.0413 -0.3833
  169SAPE   C1219053   0.426   5.800   6.456 -0.2170  0.0255 -0.4389
  169SAPE  H12A19054   0.328   5.750   6.473 -1.2472  2.8689  3.0549
  169SAPE  H12B19055   0.442   5.818   6.348 -1.0018 -3.1020 -1.1813
  169SAPE   C1119056   0.410   5.936   6.523 -0.1995  0.1969  0.2521
  169SAPE  H11A19057   0.436   5.922   6.631  2.0754  1.5493 -0.0386
  169SAPE  H11B19058   0.307   5.976   6.512 -0.1751  0.0021 -0.7842
  169SAPE     P19059   0.654   6.042   6.505 -0.0586  0.3753 -0.2728
  169SAPE   O1319060   0.720   5.908   6.486  0.4927  0.0254  0.3052
  169SAPE   O1419061   0.709   6.155   6.427  0.0597  0.1381 -0.1802
  169SAPE   O1219062   0.499   6.031   6.468 -0.7995  0.2758 -0.5000
  169SAPE   O1119063   0.659   6.070   6.657  0.0737 -0.7148 -0.8247
  169SAPE    C119064   0.602   6.190   6.709 -0.5080 -0.3170 -0.3084
  169SAPE    HA19065   0.555   6.248   6.627 -0.6456 -2.6686 -1.9918
  169SAPE    HB19066   0.523   6.169   6.784 -1.1457  2.1694 -0.2043
  169SAPE    C219067   0.706   6.275   6.781 -0.7138 -0.5668  0.0991
  169SAPE    HS19068   0.784   6.279   6.702 -0.1640  0.3745  0.6792
  169SAPE   O2119069   0.744   6.207   6.901 -0.1133 -0.1879 -0.0737
  169SAPE   C2119070   0.871   6.180   6.920  0.1600  1.3487 -0.2610
  169SAPE   O2219071   0.960   6.221   6.852  0.0049  0.1831  0.2434
  169SAPE   C2219072   0.901   6.069   7.032  1.1117  0.4914 -0.3070
  169SAPE   H2R19073   0.891   5.973   6.978  0.0923 -0.1945  1.0267
  169SAPE   H2S19074   1.004   6.088   7.068  1.6085 -3.8088  1.0680
  169SAPE    C319075   0.650   6.414   6.805 -0.2138 -0.3149  0.2990
  169SAPE    HX19076   0.557   6.413   6.865  1.1969  0.2199  2.6048
  169SAPE    HY19077   0.622   6.456   6.706  1.3998 -2.1333 -1.0152
  169SAPE   O3119078   0.750   6.503   6.861 -0.0121  0.6768  0.1407
  169SAPE   C3119079   0.694   6.610   6.915 -0.2920 -0.4545  0.1426
  169SAPE   O3219080   0.571   6.634   6.921 -0.1104  0.2988 -0.1735
  169SAPE   C3219081   0.810   6.713   6.954  0.3832 -0.3171  0.1720
  169SAPE   H2X19082   0.831   6.787   6.874  1.2269 -1.6158 -0.8442
  169SAPE   H2Y19083   0.904   6.654   6.955 -0.2583 -1.4485 -1.4113
  169SAPE   C2319084   0.806   6.081   7.162 -0.4010 -0.0151  0.2123
  169SAPE   H3R19085   0.839   6.011   7.242  0.2653 -0.5648 -0.5264
  169SAPE   H3S19086   0.706   6.040   7.134  0.2601 -1.4424 -0.1768
  169SAPE   C2419087   0.781   6.217   7.231 -0.1402 -0.7109  0.7852
  169SAPE   H4R19088   0.707   6.204   7.312 -1.5703  1.2853 -0.1191
  169SAPE   H4S19089   0.738   6.289   7.158 -1.4740 -0.5874  1.6668
  169SAPE   C2519090   0.916   6.270   7.279  0.2251  0.0186 -0.1349
  169SAPE   H5R19091   0.979   6.310   7.197  0.6215  2.3790  1.2235
  169SAPE   C2619092   0.957   6.281   7.407 -0.5045  0.2043 -0.1773
  169SAPE   H6R19093   1.060   6.318   7.420  0.2907 -2.1478  0.5840
  169SAPE   C2719094   0.887   6.234   7.522  0.8018  0.0941 -0.7782
  169SAPE   H7R19095   0.871   6.124   7.516  3.5383 -0.6526  2.7644
  169SAPE   H7S19096   0.783   6.271   7.534  0.5152 -0.9359  0.0502
  169SAPE   C2819097   0.964   6.256   7.645  0.3245  0.7069  0.6041
  169SAPE   H8R19098   1.062   6.303   7.630  0.2449  0.2629 -1.7351
  169SAPE   C2919099   0.931   6.246   7.776 -0.2251  0.8008  0.4594
  169SAPE   H9R19100   1.009   6.258   7.852 -2.2677  1.5666  2.5709
  169SAPE  C21019101   0.797   6.199   7.823  0.4874 -0.0785 -0.2940
  169SAPE  H10R19102   0.795   6.088   7.829  0.1006 -0.0256  0.7371
  169SAPE  H10S19103   0.717   6.214   7.747  0.6095 -3.3304 -1.2019
  169SAPE  C21119104   0.765   6.263   7.964 -0.8182  0.6068  0.5725
  169SAPE  H11R19105   0.689   6.343   7.966  0.1838  1.6955 -1.7241
  169SAPE  C21219106   0.818   6.221   8.083  0.2372  0.0216  0.1777
  169SAPE  H12R19107   0.775   6.265   8.175 -1.6003 -1.2118 -0.0433
  169SAPE  C21319108   0.915   6.107   8.101  0.5615 -0.3887  0.4082
  169SAPE  H13R19109   0.990   6.130   8.180  0.1718  1.4036  0.3077
  169SAPE  H13S19110   0.976   6.087   8.011  1.0236 -0.7645  0.7997
  169SAPE  C21419111   0.844   5.980   8.141 -0.0729 -0.4776  0.2740
  169SAPE  H14R19112   0.797   5.932   8.054  1.3117  0.2744 -0.9493
  169SAPE  C21519113   0.850   5.924   8.264  0.0330 -0.3358  0.1244
  169SAPE  H15R19114   0.791   5.833   8.279  1.6106 -1.1448  1.7320
  169SAPE  C21619115   0.929   5.972   8.387 -0.0147 -0.0368  0.8398
  169SAPE  H16R19116   1.014   6.037   8.357 -0.4865 -0.1483 -0.7957
  169SAPE  H16S19117   0.979   5.891   8.445  1.0440  0.5477  0.7809
  169SAPE  C21719118   0.838   6.063   8.479 -0.6864  0.4891  0.3489
  169SAPE  H17R19119   0.752   6.005   8.519  0.1138 -0.0013  1.4165
  169SAPE  H17S19120   0.794   6.143   8.416  0.2645  0.3996 -0.4554
  169SAPE  C21819121   0.923   6.127   8.595  0.0888 -0.3205 -0.0569
  169SAPE  H18R19122   0.966   6.221   8.556 -1.5595  1.9229  3.0673
  169SAPE  H18S19123   1.008   6.076   8.644  1.2672  2.9186  1.5411
  169SAPE  C21919124   0.828   6.168   8.706 -0.1311 -0.2664  0.3953
  169SAPE  H19R19125   0.724   6.179   8.667 -1.0362  0.1902  2.7586
  169SAPE  H19S19126   0.861   6.270   8.735 -0.6358  0.3097 -0.9531
  169SAPE  C22019127   0.827   6.086   8.834  0.6377  0.1764 -1.0981
  169SAPE  H20R19128   0.833   5.977   8.814 -2.6958  0.1992 -2.9992
  169SAPE  H20S19129   0.734   6.099   8.894  2.2646 -0.7519  1.8022
  169SAPE  H20T19130   0.912   6.112   8.901 -0.4224  0.5422  0.1554
  169SAPE   C3319131   0.771   6.780   7.091  0.3567 -0.2023  0.5933
  169SAPE   H3X19132   0.670   6.825   7.076 -0.2603 -2.2939 -2.6557
  169SAPE   H3Y19133   0.845   6.858   7.118  0.2012  0.1786 -0.0474
  169SAPE   C3419134   0.772   6.688   7.204 -0.0559  0.6715 -0.6527
  169SAPE   H4X19135   0.864   6.628   7.188  0.1433  0.5210  0.9471
  169SAPE   H4Y19136   0.689   6.615   7.203  1.3910 -1.0242 -0.7852
  169SAPE   C3519137   0.790   6.746   7.345 -0.0962  0.1156  0.4177
  169SAPE   H5X19138   0.700   6.808   7.365 -0.3163  0.2736 -0.9969
  169SAPE   H5Y19139   0.886   6.803   7.342 -0.4175  0.6276 -0.4270
  169SAPE   C3619140   0.793   6.645   7.461 -0.5467 -0.0341 -0.5756
  169SAPE   H6X19141   0.873   6.570   7.445  0.7474  0.9972  0.7804
  169SAPE   H6Y19142   0.694   6.593   7.469 -0.4707 -0.1574 -0.4289
  169SAPE   C3719143   0.820   6.719   7.595  0.2227  0.1512  0.3167
  169SAPE   H7X19144   0.901   6.790   7.568  1.0321 -0.6231  0.6490
  169SAPE   H7Y19145   0.864   6.641   7.660  1.7474 -1.1110 -2.0623
  169SAPE   C3819146   0.700   6.794   7.657 -1.4290 -0.1419 -0.8970
  169SAPE   H8X19147   0.635   6.829   7.574 -0.9784  0.9439 -0.8049
  169SAPE   H8Y19148   0.734   6.885   7.711  1.8148 -1.3954 -0.5878
  169SAPE   C3919149   0.620   6.703   7.743 -0.5116  0.2547  0.3036
  169SAPE   H9X19150   0.603   6.604   7.697 -0.9410  0.1217  0.7393
  169SAPE   H9Y19151   0.518   6.745   7.761  0.5443  3.2553 -0.0214
  169SAPE  C31019152   0.689   6.686   7.881  0.5513  0.3851  0.3424
  169SAPE  H10X19153   0.709   6.787   7.922 -1.9305  0.7971  0.7457
  169SAPE  H10Y19154   0.773   6.614   7.885  1.6019  1.1505 -3.6763
  169SAPE  C31119155   0.579   6.633   7.973  0.0048 -0.0722 -0.3554
  169SAPE  H11X19156   0.545   6.531   7.945  1.4108 -1.2753  1.9368
  169SAPE  H11Y19157   0.486   6.691   7.956  0.1376 -0.0488 -1.0119
  169SAPE  C31219158   0.612   6.647   8.114 -0.8488 -0.5634 -0.2654
  169SAPE  H12X19159   0.586   6.746   8.156  0.7666 -0.1546 -0.1428
  169SAPE  H12Y19160   0.722   6.635   8.125 -1.2436 -2.7124  2.4477
  169SAPE  C31319161   0.544   6.538   8.198  0.5989 -0.2942  0.1150
  169SAPE  H13X19162   0.583   6.443   8.154  0.4331 -2.3443  3.9199
  169SAPE  H13Y19163   0.435   6.535   8.174  0.0543  1.4307  2.1197
  169SAPE  C31419164   0.577   6.562   8.344  0.2154  0.6982 -0.2907
  169SAPE  H14X19165   0.552   6.666   8.376  0.3835  0.4372  0.7206
  169SAPE  H14Y19166   0.687   6.564   8.358  0.1627  0.9762  0.0966
  169SAPE  C31519167   0.501   6.469   8.444  0.3833  0.0775 -0.0996
  169SAPE  H15X19168   0.519   6.371   8.395 -1.5827 -0.7033  0.6439
  169SAPE  H15Y19169   0.394   6.495   8.427  1.0346  1.2396 -3.2100
  169SAPE  C31619170   0.550   6.475   8.588 -0.2815  0.4777 -0.1930
  169SAPE  H16X19171   0.544   6.581   8.623  3.2721  0.5333  0.6127
  169SAPE  H16Y19172   0.659   6.455   8.598  0.0768  2.0502 -0.6634
  169SAPE  C31719173   0.466   6.385   8.678 -0.8154  0.2939  0.2211
  169SAPE  H17X19174   0.484   6.278   8.654  0.9353  0.3423  1.1060
  169SAPE  H17Y19175   0.359   6.404   8.658 -0.7176 -1.2805 -2.2266
  169SAPE  C31819176   0.491   6.399   8.825 -0.6828 -0.3234  0.0595
  169SAPE  H18X19177   0.425   6.332   8.884 -0.1435 -0.2324  0.7747
  169SAPE  H18Y19178   0.467   6.503   8.858 -1.1540 -0.2178 -0.5799
  169SAPE  H18Z19179   0.598   6.390   8.852  0.4030  2.9980 -2.4196
  170SAPE     N19180   1.640   1.956   6.232  0.0948  0.2131 -0.0137
  170SAPE   HN119181   1.538   1.960   6.253  0.4539  1.5703  1.6772
  170SAPE   HN219182   1.668   1.870   6.180 -0.8934  1.2062 -2.3517
  170SAPE   HN319183   1.674   1.961   6.330 -2.6594  0.7608  1.0007
  170SAPE   C1219184   1.708   2.072   6.151 -0.5688  0.1497 -0.2715
  170SAPE  H12A19185   1.677   2.062   6.045  0.8326 -0.5286 -0.6490
  170SAPE  H12B19186   1.818   2.054   6.141 -0.4074  1.3136 -0.7604
  170SAPE   C1119187   1.676   2.208   6.214 -0.8387 -0.3705 -0.3457
  170SAPE  H11A19188   1.565   2.216   6.207 -1.1804 -1.7918  2.0830
  170SAPE  H11B19189   1.719   2.295   6.159  0.6702 -0.3410  0.8063
  170SAPE     P19190   1.844   2.272   6.395 -0.1997 -0.2620 -0.3261
  170SAPE   O1319191   1.955   2.215   6.316 -0.0148 -0.3081  0.0583
  170SAPE   O1419192   1.835   2.418   6.393 -0.6332  0.1262 -0.2851
  170SAPE   O1219193   1.703   2.213   6.353  0.1123  0.3864 -0.1445
  170SAPE   O1119194   1.868   2.227   6.542  0.0544 -0.3547  0.2994
  170SAPE    C119195   1.763   2.236   6.641  0.0415 -0.2970  0.3636
  170SAPE    HA19196   1.670   2.207   6.589  1.3337  0.4982 -2.5571
  170SAPE    HB19197   1.788   2.172   6.729 -1.1427  1.4131  2.0410
  170SAPE    C219198   1.749   2.377   6.713 -0.4676 -0.2406  0.0174
  170SAPE    HS19199   1.689   2.442   6.646  2.3283  2.0057 -0.5075
  170SAPE   O2119200   1.881   2.439   6.741  0.5128  0.3274  0.0938
  170SAPE   C2119201   1.876   2.562   6.780 -0.4077 -0.6906 -0.0473
  170SAPE   O2219202   1.778   2.633   6.772 -0.2723  0.0821  0.3233
  170SAPE   C2219203   2.004   2.596   6.854 -0.3470 -0.4907  0.0623
  170SAPE   H2R19204   2.091   2.550   6.802 -0.5979 -0.2018 -0.6189
  170SAPE   H2S19205   2.021   2.706   6.845  1.6161 -0.7572  0.0937
  170SAPE    C319206   1.667   2.349   6.840  0.7225 -0.5499  0.1922
  170SAPE    HX19207   1.734   2.298   6.913  2.4214 -0.2398 -1.0997
  170SAPE    HY19208   1.597   2.270   6.805 -0.2895  0.0535  0.8086
  170SAPE   O3119209   1.598   2.460   6.901  0.7469 -0.5946  0.4441
  170SAPE   C3119210   1.478   2.478   6.844 -0.4664 -0.7938 -0.3520
  170SAPE   O3219211   1.434   2.420   6.746  0.8834 -0.1452  0.3819
  170SAPE   C3219212   1.410   2.579   6.930  0.6802 -0.1644 -0.3304
  170SAPE   H2X19213   1.303   2.592   6.900  0.0031  1.5067  2.4940
  170SAPE   H2Y19214   1.455   2.680   6.914 -0.7237  0.8456  1.6512
  170SAPE   C2319215   2.012   2.550   7.005  0.3633 -0.3612  0.2509
  170SAPE   H3R19216   2.107   2.586   7.048  0.6954 -1.8996  0.8448
  170SAPE   H3S19217   2.005   2.439   7.001 -0.7477 -0.3129  0.4903
  170SAPE   C2419218   1.893   2.589   7.096 -0.5030 -0.2618  0.0396
  170SAPE   H4R19219   1.914   2.531   7.189 -0.6497  0.6266  0.6311
  170SAPE   H4S19220   1.795   2.551   7.058 -0.2156 -3.4338  2.0480
  170SAPE   C2519221   1.887   2.739   7.118 -0.3629 -0.2787  0.8411
  170SAPE   H5R19222   1.837   2.794   7.038  1.4758  0.6316  0.2464
  170SAPE   C2619223   1.934   2.808   7.219  0.2225 -0.1277 -0.6362
  170SAPE   H6R19224   1.938   2.918   7.217  0.7640  0.0617  3.3637
  170SAPE   C2719225   2.013   2.750   7.332  0.2011  0.6308 -0.1698
  170SAPE   H7R19226   2.085   2.830   7.361  0.6090 -0.0057  0.5883
  170SAPE   H7S19227   2.076   2.666   7.296 -1.2135 -0.2678 -0.6467
  170SAPE   C2819228   1.948   2.698   7.454  0.1163  0.3560  0.1437
  170SAPE   H8R19229   1.973   2.593   7.474 -1.8245 -0.0596  0.5611
  170SAPE   C2919230   1.852   2.746   7.542 -0.5295  0.4054 -0.9376
  170SAPE   H9R19231   1.825   2.685   7.629 -1.2201 -0.6889 -1.8974
  170SAPE  C21019232   1.786   2.883   7.544  0.5925  0.4352 -0.1643
  170SAPE  H10R19233   1.825   2.963   7.478 -2.1601  0.1783 -2.2795
  170SAPE  H10S19234   1.805   2.922   7.646 -0.5150 -1.1328  0.6984
  170SAPE  C21119235   1.632   2.867   7.536  0.0461 -0.1895 -0.3327
  170SAPE  H11R19236   1.610   2.793   7.457  3.3268 -0.0592 -1.5303
  170SAPE  C21219237   1.534   2.894   7.628  0.3761 -0.1435  0.4691
  170SAPE  H12R19238   1.431   2.862   7.603  0.6724  0.1191 -1.2218
  170SAPE  C21319239   1.544   2.957   7.761  0.2206 -0.7166  0.3500
  170SAPE  H13R19240   1.472   3.040   7.777  0.9012 -0.4152  2.0318
  170SAPE  H13S19241   1.645   3.004   7.756 -1.1157  2.3591 -0.1697
  170SAPE  C21419242   1.524   2.866   7.874  0.0233 -0.1683 -0.2731
  170SAPE  H14R19243   1.436   2.800   7.879 -2.4116  2.9607  2.9202
  170SAPE  C21519244   1.612   2.860   7.979  0.6442 -0.6987  0.0901
  170SAPE  H15R19245   1.587   2.789   8.059  0.0820  0.2593  0.7813
  170SAPE  C21619246   1.741   2.938   7.999  0.8842 -0.1943 -0.1842
  170SAPE  H16R19247   1.770   3.000   7.911 -1.1931  0.8341 -0.2147
  170SAPE  H16S19248   1.828   2.872   8.018  1.6257  1.2287  1.6391
  170SAPE  C21719249   1.739   3.027   8.127  0.6509 -0.4761  1.3090
  170SAPE  H17R19250   1.834   3.084   8.142  0.4519  0.0282  0.7164
  170SAPE  H17S19251   1.725   2.953   8.208 -0.2101 -2.6324 -0.6928
  170SAPE  C21819252   1.619   3.121   8.139 -0.5888 -0.4436  0.3900
  170SAPE  H18R19253   1.617   3.136   8.249  0.2116  1.0557  0.2205
  170SAPE  H18S19254   1.526   3.062   8.118 -0.5489 -0.0469 -1.0127
  170SAPE  C21919255   1.632   3.251   8.067 -0.0060  1.2553  0.2274
  170SAPE  H19R19256   1.666   3.225   7.965 -1.8201 -0.7477  0.0708
  170SAPE  H19S19257   1.709   3.315   8.115  0.6610  1.2542 -0.8086
  170SAPE  C22019258   1.491   3.318   8.067  0.0397 -0.2572  0.5012
  170SAPE  H20R19259   1.428   3.270   7.989 -0.6008  0.6190  0.4581
  170SAPE  H20S19260   1.495   3.425   8.035 -1.4381 -0.3612 -0.1189
  170SAPE  H20T19261   1.436   3.308   8.162 -0.6559  1.2462  0.2881
  170SAPE   C3319262   1.412   2.553   7.078  0.2785  0.1745 -0.2072
  170SAPE   H3X19263   1.355   2.630   7.135 -0.1627 -1.2040  1.2770
  170SAPE   H3Y19264   1.514   2.573   7.117  0.4577  0.1400 -0.6511
  170SAPE   C3419265   1.373   2.404   7.115 -0.0558 -0.7459  0.5487
  170SAPE   H4X19266   1.450   2.328   7.090  0.0192 -0.8240  1.0050
  170SAPE   H4Y19267   1.281   2.400   7.053 -0.6292  1.8250  1.1318
  170SAPE   C3519268   1.344   2.406   7.274  0.7216  0.7004 -0.1890
  170SAPE   H5X19269   1.327   2.300   7.301  0.6216  0.8461  0.3460
  170SAPE   H5Y19270   1.250   2.464   7.290  0.7952  0.2801  2.1835
  170SAPE   C3619271   1.444   2.471   7.363  0.2559  0.2824 -0.8356
  170SAPE   H6X19272   1.441   2.581   7.352  0.8985  0.3030 -0.8593
  170SAPE   H6Y19273   1.549   2.438   7.347  0.9713  1.2379  1.4445
  170SAPE   C3719274   1.410   2.449   7.517 -0.1136  0.6454  0.1621
  170SAPE   H7X19275   1.377   2.345   7.539 -1.3770  0.9369 -0.2567
  170SAPE   H7Y19276   1.311   2.499   7.526  0.2942  1.2530  1.4339
  170SAPE   C3819277   1.518   2.495   7.622 -0.3050 -0.7428  0.9943
  170SAPE   H8X19278   1.534   2.605   7.620  1.1049 -0.8623  2.9839
  170SAPE   H8Y19279   1.610   2.437   7.605 -1.7430 -2.2177 -2.8022
  170SAPE   C3919280   1.473   2.481   7.766  0.2438 -0.4212 -0.1731
  170SAPE   H9X19281   1.366   2.507   7.785 -0.2766 -1.7795 -1.1523
  170SAPE   H9Y19282   1.527   2.561   7.822 -1.7792 -0.0493  1.4150
  170SAPE  C31019283   1.501   2.338   7.816  0.1979 -0.5327 -0.2503
  170SAPE  H10X19284   1.608   2.311   7.799  1.6110  2.5930  2.6293
  170SAPE  H10Y19285   1.429   2.280   7.754 -1.8105  1.7933 -0.2121
  170SAPE  C31119286   1.471   2.314   7.970 -0.1277 -0.0548 -0.0973
  170SAPE  H11X19287   1.367   2.325   8.007  0.2062 -1.3363  1.3098
  170SAPE  H11Y19288   1.524   2.397   8.022 -0.0224  0.1148 -0.4715
  170SAPE  C31219289   1.525   2.181   8.019  0.0275  0.3647  0.4005
  170SAPE  H12X19290   1.636   2.171   8.009  0.0180  1.0548 -0.4564
  170SAPE  H12Y19291   1.488   2.094   7.960  1.5290 -0.2970  0.3688
  170SAPE  C31319292   1.479   2.159   8.160 -0.1283 -0.5106  0.0304
  170SAPE  H13X19293   1.369   2.165   8.167 -0.0216 -0.4167  2.5020
  170SAPE  H13Y19294   1.528   2.233   8.228 -0.5035 -0.0742 -0.1700
  170SAPE  C31419295   1.523   2.022   8.192  0.0297  0.5235 -0.1244
  170SAPE  H14X19296   1.633   2.005   8.196 -0.3373 -2.3405 -0.0228
  170SAPE  H14Y19297   1.484   1.936   8.132 -1.0518  0.7556  0.2300
  170SAPE  C31519298   1.473   1.981   8.331 -0.1191  0.0171 -0.5972
  170SAPE  H15X19299   1.363   1.978   8.339 -0.0565  1.1630  1.2142
  170SAPE  H15Y19300   1.492   2.063   8.404 -2.8529  0.9183 -0.7902
  170SAPE  C31619301   1.516   1.839   8.374 -0.2365  0.0205  0.0184
  170SAPE  H16X19302   1.561   1.800   8.280 -0.6207  0.6376 -0.4281
  170SAPE  H16Y19303   1.428   1.779   8.408  0.7336 -1.4159  0.0649
  170SAPE  C31719304   1.621   1.812   8.483  0.8802  0.0053  0.9233
  170SAPE  H17X19305   1.583   1.833   8.585  0.2557  1.6402  0.3992
  170SAPE  H17Y19306   1.706   1.877   8.453  1.4925 -0.6437  1.2297
  170SAPE  C31819307   1.679   1.670   8.476  0.6758  0.9988 -0.3677
  170SAPE  H18X19308   1.605   1.587   8.485  2.5337 -1.0365 -2.5786
  170SAPE  H18Y19309   1.750   1.653   8.560  0.4309 -2.2288 -0.6722
  170SAPE  H18Z19310   1.737   1.640   8.386  0.8073 -3.2858  0.9340
  171SAPE     N19311   4.576   5.530   6.428  0.2584  0.7506  0.0119
  171SAPE   HN119312   4.549   5.555   6.525  2.2520 -1.4236  1.2311
  171SAPE   HN219313   4.574   5.614   6.367 -0.0338 -0.5609 -1.9024
  171SAPE   HN319314   4.504   5.458   6.405  0.3460  0.8563 -0.6134
  171SAPE   C1219315   4.710   5.458   6.424 -0.4701 -0.2128  0.2333
  171SAPE  H12A19316   4.780   5.537   6.457 -1.5553  1.1614 -0.6512
  171SAPE  H12B19317   4.727   5.422   6.320 -0.5204  0.0054  0.1506
  171SAPE   C1119318   4.702   5.346   6.522  0.0416 -0.2652  0.0822
  171SAPE  H11A19319   4.698   5.387   6.625 -0.0716 -4.1451  1.7917
  171SAPE  H11B19320   4.792   5.281   6.512 -0.2954 -0.4130 -3.0910
  171SAPE     P19321   4.583   5.124   6.443 -0.0549 -0.0919  0.4369
  171SAPE   O1319322   4.454   5.063   6.424  0.2094 -0.2906  0.5380
  171SAPE   O1419323   4.663   5.145   6.322  0.0729  0.7207 -0.0789
  171SAPE   O1219324   4.583   5.265   6.504 -0.6388  0.1527  0.5890
  171SAPE   O1119325   4.663   5.035   6.544 -0.1293 -0.3568  0.2206
  171SAPE    C119326   4.622   5.020   6.681  0.6552 -0.1114  0.2254
  171SAPE    HA19327   4.511   5.031   6.688  0.1751 -0.8642 -3.6807
  171SAPE    HB19328   4.657   4.919   6.710  3.1760  0.7909  0.5173
  171SAPE    C219329   4.694   5.114   6.785 -0.3691 -0.3017  0.2184
  171SAPE    HS19330   4.669   5.220   6.762 -0.5436  0.0526  1.8744
  171SAPE   O2119331   4.839   5.101   6.777  0.3719 -0.4202  0.2607
  171SAPE   C2119332   4.911   5.207   6.801  0.4437  0.1830 -0.1131
  171SAPE   O2219333   4.863   5.303   6.857 -0.3210 -0.0448 -0.2819
  171SAPE   C2219334   5.064   5.190   6.771  0.0829 -0.3005 -0.3751
  171SAPE   H2R19335   5.073   5.081   6.751  0.9240 -0.8373  2.4847
  171SAPE   H2S19336   5.091   5.254   6.684  2.6597 -2.8755 -1.6177
  171SAPE    C319337   4.645   5.094   6.931  0.3960  0.1762  0.0088
  171SAPE    HX19338   4.665   5.187   6.988  0.5815  0.8433 -1.1055
  171SAPE    HY19339   4.712   5.011   6.964 -1.6771 -1.5993 -0.0560
  171SAPE   O3119340   4.506   5.063   6.947 -0.3777 -0.2524 -0.3369
  171SAPE   C3119341   4.476   4.944   7.007  0.2494  0.1131  0.2009
  171SAPE   O3219342   4.566   4.863   7.032 -0.1028 -0.4518 -0.6656
  171SAPE   C3219343   4.330   4.922   7.021 -0.3405  0.5999  0.1268
  171SAPE   H2X19344   4.309   4.819   7.056  1.8555  0.4504  1.1532
  171SAPE   H2Y19345   4.286   4.936   6.920  0.0476  1.5448  0.0809
  171SAPE   C2319346   5.161   5.239   6.885 -0.1565  1.2007 -0.6008
  171SAPE   H3R19347   5.131   5.344   6.908 -0.3078  1.3839 -1.6130
  171SAPE   H3S19348   5.265   5.242   6.846  0.0491 -2.3860 -0.6041
  171SAPE   C2419349   5.162   5.151   7.013  0.1401 -0.8730  0.6780
  171SAPE   H4R19350   5.221   5.063   6.979  0.2925  0.0545 -1.6115
  171SAPE   H4S19351   5.061   5.108   7.029  0.2501 -1.1596  0.6016
  171SAPE   C2519352   5.199   5.237   7.128  0.0689  0.4761 -0.2459
  171SAPE   H5R19353   5.297   5.286   7.120 -0.9198  2.2061 -3.4143
  171SAPE   C2619354   5.132   5.266   7.243 -0.0315 -0.3071  0.1131
  171SAPE   H6R19355   5.184   5.321   7.322 -1.5647 -0.2609  1.1216
  171SAPE   C2719356   4.998   5.211   7.281  1.2371 -0.4251  0.6284
  171SAPE   H7R19357   5.021   5.122   7.344 -1.1949 -0.5926  1.4017
  171SAPE   H7S19358   4.944   5.169   7.194  0.7471  0.5511  0.4489
  171SAPE   C2819359   4.908   5.298   7.368 -0.7243 -0.3242 -0.4046
  171SAPE   H8R19360   4.952   5.366   7.442  1.3037 -0.5424 -1.3557
  171SAPE   C2919361   4.777   5.294   7.382  0.1751 -0.5096 -0.5658
  171SAPE   H9R19362   4.727   5.372   7.441  0.6961  0.1281 -0.9502
  171SAPE  C21019363   4.691   5.195   7.304  0.1801 -0.2811  0.4147
  171SAPE  H10R19364   4.751   5.154   7.220 -1.4416  0.8481 -1.3618
  171SAPE  H10S19365   4.607   5.248   7.256  0.2332  2.7089  3.2243
  171SAPE  C21119366   4.639   5.076   7.380 -0.4800  0.0607 -0.2526
  171SAPE  H11R19367   4.656   4.984   7.323 -0.1231 -0.6348  0.9430
  171SAPE  C21219368   4.597   5.067   7.507  0.6504  0.5149 -0.0809
  171SAPE  H12R19369   4.583   4.964   7.543  3.3545  0.0055 -0.2652
  171SAPE  C21319370   4.583   5.174   7.611  0.8903  0.2151  0.0905
  171SAPE  H13R19371   4.579   5.271   7.557  2.5917 -0.0537 -0.6002
  171SAPE  H13S19372   4.668   5.167   7.682  0.8792  0.0641  0.0891
  171SAPE  C21419373   4.458   5.171   7.695  1.0055  0.0156  0.4298
  171SAPE  H14R19374   4.371   5.146   7.633  0.1263  0.3547  1.4709
  171SAPE  C21519375   4.448   5.206   7.826 -0.2773 -0.0605  0.1263
  171SAPE  H15R19376   4.345   5.212   7.865 -0.7337 -0.0468 -1.0268
  171SAPE  C21619377   4.563   5.240   7.922 -0.0640  0.1950 -0.5191
  171SAPE  H16R19378   4.543   5.330   7.984  1.1197 -0.5695  1.0440
  171SAPE  H16S19379   4.659   5.267   7.872  1.4719 -0.6064  1.8216
  171SAPE  C21719380   4.580   5.125   8.021 -0.3928  0.3218  0.1145
  171SAPE  H17R19381   4.685   5.130   8.057  0.1559  0.4541 -1.4205
  171SAPE  H17S19382   4.567   5.026   7.972  0.0025 -0.2548  1.1310
  171SAPE  C21819383   4.475   5.140   8.135  0.0033 -0.7211  0.1556
  171SAPE  H18R19384   4.458   5.036   8.170  0.9208 -1.3476 -1.1747
  171SAPE  H18S19385   4.378   5.171   8.090 -0.3191 -1.5111  0.2932
  171SAPE  C21919386   4.527   5.237   8.246 -0.4429  0.1084 -0.2977
  171SAPE  H19R19387   4.559   5.332   8.198  0.7504 -0.2928 -0.3504
  171SAPE  H19S19388   4.624   5.201   8.288  0.0507 -0.7517 -2.0673
  171SAPE  C22019389   4.423   5.259   8.360 -0.3647  0.5327 -0.0514
  171SAPE  H20R19390   4.348   5.329   8.318 -1.0533 -0.7603 -1.0454
  171SAPE  H20S19391   4.485   5.288   8.448  0.6531  1.3082 -0.9866
  171SAPE  H20T19392   4.377   5.159   8.378 -0.7812  0.7275 -0.0473
  171SAPE   C3319393   4.268   5.022   7.125  0.2326 -0.1206  0.0045
  171SAPE   H3X19394   4.158   5.027   7.110 -0.1059 -2.3677  1.2723
  171SAPE   H3Y19395   4.302   5.126   7.107  2.2341 -0.5129  1.1279
  171SAPE   C3419396   4.298   4.977   7.272  0.2088 -0.1441 -0.2212
  171SAPE   H4X19397   4.327   5.070   7.326  0.8372 -0.7191  0.4456
  171SAPE   H4Y19398   4.386   4.910   7.275 -0.1450 -0.6291 -0.4630
  171SAPE   C3519399   4.183   4.892   7.328  1.0179 -0.2926 -0.6932
  171SAPE   H5X19400   4.175   4.792   7.281 -0.8267 -1.1320  1.2676
  171SAPE   H5Y19401   4.091   4.953   7.316  1.4189  0.1176 -1.8372
  171SAPE   C3619402   4.197   4.860   7.478  0.3776 -0.4860 -0.3053
  171SAPE   H6X19403   4.298   4.824   7.509  0.1612 -1.2406 -0.4657
  171SAPE   H6Y19404   4.134   4.771   7.501  0.3123  0.0622  1.8601
  171SAPE   C3719405   4.157   4.976   7.558 -0.2517 -0.0074  0.3141
  171SAPE   H7X19406   4.050   5.007   7.557 -0.4691 -0.6647  1.7687
  171SAPE   H7Y19407   4.218   5.058   7.516  1.5775 -0.8511  1.2126
  171SAPE   C3819408   4.192   4.950   7.706 -0.0683 -0.3159  0.1204
  171SAPE   H8X19409   4.174   5.048   7.756  0.3710 -0.8689  1.3863
  171SAPE   H8Y19410   4.300   4.930   7.719 -0.0058 -0.9020 -1.1183
  171SAPE   C3919411   4.099   4.847   7.773 -0.1984 -0.7477 -0.4198
  171SAPE   H9X19412   4.106   4.759   7.706 -3.1237  0.0846 -1.9938
  171SAPE   H9Y19413   3.993   4.878   7.765 -0.8383 -2.7792 -0.3841
  171SAPE  C31019414   4.136   4.812   7.918 -0.0806 -0.0832  0.6071
  171SAPE  H10X19415   4.243   4.785   7.927 -0.3158 -0.3774  3.1782
  171SAPE  H10Y19416   4.080   4.721   7.950 -0.1047  0.0887  1.0599
  171SAPE  C31119417   4.104   4.924   8.013 -0.2182  0.1830 -0.0174
  171SAPE  H11X19418   3.999   4.955   7.994  0.6632  2.3368 -1.8685
  171SAPE  H11Y19419   4.166   5.011   7.982  1.2211 -0.9857 -0.5381
  171SAPE  C31219420   4.134   4.895   8.159 -0.0060  0.2505  0.9541
  171SAPE  H12X19421   4.240   4.864   8.159  0.2152  0.9851  1.4402
  171SAPE  H12Y19422   4.069   4.815   8.200  0.7768 -0.9929 -0.1553
  171SAPE  C31319423   4.121   5.029   8.240  0.0306 -1.4778 -0.0549
  171SAPE  H13X19424   4.186   5.114   8.211 -1.8293  1.5524  3.6409
  171SAPE  H13Y19425   4.154   5.016   8.346 -0.6850  2.7872  0.8840
  171SAPE  C31419426   3.974   5.078   8.240 -0.1660  0.4522  0.2179
  171SAPE  H14X19427   3.956   5.114   8.136  0.3054 -0.6135 -0.2482
  171SAPE  H14Y19428   3.959   5.171   8.299 -1.5745 -0.0557  0.7121
  171SAPE  C31519429   3.867   4.979   8.293 -0.6695 -0.6324 -0.2606
  171SAPE  H15X19430   3.866   4.885   8.235  0.2737 -1.5729  1.1973
  171SAPE  H15Y19431   3.766   5.025   8.280 -0.3509  0.5216  1.0776
  171SAPE  C31619432   3.896   4.962   8.439  0.3095  0.2473 -0.2483
  171SAPE  H16X19433   3.997   5.000   8.466  0.9456 -1.3859 -0.1994
  171SAPE  H16Y19434   3.889   4.858   8.477 -1.3334  0.4572  0.0708
  171SAPE  C31719435   3.817   5.048   8.539  0.2814  0.0877  0.5836
  171SAPE  H17X19436   3.831   5.155   8.512  1.3832 -0.1056  0.3324
  171SAPE  H17Y19437   3.858   5.023   8.639 -0.2250  1.1906  1.0851
  171SAPE  C31819438   3.664   5.035   8.546  0.6328  0.4922  0.1986
  171SAPE  H18X19439   3.610   5.064   8.453  1.0328 -0.1578 -0.2438
  171SAPE  H18Y19440   3.624   5.099   8.627 -1.3209 -1.0376  0.5205
  171SAPE  H18Z19441   3.642   4.929   8.572 -1.8895  1.5778  3.1071
  172SAPE     N19442   3.460   4.069   6.210 -0.8837  0.3212 -0.0403
  172SAPE   HN119443   3.432   4.169   6.203  3.3803  1.6716 -0.9510
  172SAPE   HN219444   3.559   4.057   6.242  0.4815  1.4932 -3.2966
  172SAPE   HN319445   3.476   4.046   6.109  0.7282 -1.4304  0.5401
  172SAPE   C1219446   3.358   3.991   6.296 -0.0084 -0.3174  0.2496
  172SAPE  H12A19447   3.359   3.887   6.258 -2.2179  0.7231 -3.1442
  172SAPE  H12B19448   3.267   4.048   6.270  0.0664 -0.4776 -0.3700
  172SAPE   C1119449   3.391   3.994   6.443 -0.5205  0.3639  0.7098
  172SAPE  H11A19450   3.312   3.949   6.505 -0.9352 -1.0083 -0.7573
  172SAPE  H11B19451   3.392   4.099   6.479  0.4183 -0.1599  2.3405
  172SAPE     P19452   3.658   3.968   6.477 -0.4262 -0.4527 -0.3100
  172SAPE   O1319453   3.745   3.875   6.550  0.0361  0.2200 -0.0968
  172SAPE   O1419454   3.688   4.000   6.338 -0.3176 -0.1002  0.3130
  172SAPE   O1219455   3.506   3.915   6.472  0.1394  0.0303 -0.6412
  172SAPE   O1119456   3.632   4.100   6.571  0.4879  0.1392  0.5274
  172SAPE    C119457   3.602   4.073   6.710 -0.4714  0.3717  0.1198
  172SAPE    HA19458   3.506   4.017   6.712 -0.9099  1.0985 -0.2201
  172SAPE    HB19459   3.689   4.012   6.743 -0.8939  0.0844  0.7177
  172SAPE    C219460   3.585   4.206   6.781 -0.4472  0.5432  0.4817
  172SAPE    HS19461   3.663   4.278   6.750 -1.2634  0.7260 -1.2537
  172SAPE   O2119462   3.574   4.182   6.920 -0.4996 -0.2344 -0.5367
  172SAPE   C2119463   3.686   4.168   6.984  0.2150  0.0176  0.0597
  172SAPE   O2219464   3.799   4.173   6.940 -0.2754  0.1585 -0.2381
  172SAPE   C2219465   3.660   4.150   7.129 -0.7846 -0.4767 -0.0723
  172SAPE   H2R19466   3.559   4.114   7.158 -0.5859 -0.6898  0.3581
  172SAPE   H2S19467   3.728   4.065   7.152 -0.0583  0.2157  0.4460
  172SAPE    C319468   3.466   4.303   6.729 -0.5039 -0.4357  0.3088
  172SAPE    HX19469   3.374   4.249   6.699 -0.1894 -0.2943 -1.0000
  172SAPE    HY19470   3.498   4.339   6.628 -1.1422  2.2073  0.9713
  172SAPE   O3119471   3.438   4.414   6.813 -0.3886 -0.0991 -0.1465
  172SAPE   C3119472   3.334   4.395   6.895  0.0546 -0.2701 -0.2348
  172SAPE   O3219473   3.268   4.292   6.896  0.1619 -0.1479 -0.1680
  172SAPE   C3219474   3.320   4.507   6.999 -0.4739 -0.4954 -0.4527
  172SAPE   H2X19475   3.309   4.608   6.956 -0.1087 -0.0998  0.3498
  172SAPE   H2Y19476   3.407   4.497   7.068 -0.0908 -0.7339 -0.9676
  172SAPE   C2319477   3.705   4.264   7.217  0.5308 -0.8044  0.3240
  172SAPE   H3R19478   3.624   4.340   7.211  1.3723  0.0411 -0.8205
  172SAPE   H3S19479   3.792   4.314   7.168  0.2655  1.3130  1.8715
  172SAPE   C2419480   3.745   4.218   7.356 -0.2814 -0.6066  0.4568
  172SAPE   H4R19481   3.847   4.173   7.353  0.4355  0.9961 -2.1076
  172SAPE   H4S19482   3.673   4.137   7.380 -0.1457 -1.1606 -0.9211
  172SAPE   C2519483   3.759   4.316   7.469  0.4332  0.1997  0.7890
  172SAPE   H5R19484   3.843   4.387   7.469  1.9952 -1.5496 -0.3682
  172SAPE   C2619485   3.679   4.330   7.581  0.5509 -0.0734  0.2322
  172SAPE   H6R19486   3.711   4.406   7.655  2.7303 -1.5383  0.8930
  172SAPE   C2719487   3.566   4.252   7.634  0.6603  0.1058  0.5623
  172SAPE   H7R19488   3.587   4.196   7.728 -2.0928 -1.6110  0.2826
  172SAPE   H7S19489   3.527   4.181   7.557 -1.7870  2.6240 -0.6814
  172SAPE   C2819490   3.450   4.340   7.651  0.1795  0.4834 -0.5302
  172SAPE   H8R19491   3.395   4.366   7.559 -0.9027  0.3386  0.0609
  172SAPE   C2919492   3.406   4.383   7.771  0.5871 -0.1672  0.2045
  172SAPE   H9R19493   3.316   4.447   7.775  1.4295  1.0297  0.2937
  172SAPE  C21019494   3.457   4.344   7.906 -0.2281  0.2327 -0.5105
  172SAPE  H10R19495   3.451   4.432   7.973 -1.4920 -1.4295  1.6785
  172SAPE  H10S19496   3.563   4.311   7.910 -0.0116  0.9284  3.5160
  172SAPE  C21119497   3.386   4.234   7.970 -0.0698  0.4756 -0.1018
  172SAPE  H11R19498   3.369   4.140   7.915  1.5896  0.7507 -1.1791
  172SAPE  C21219499   3.341   4.225   8.097 -0.0815  0.1535  0.4028
  172SAPE  H12R19500   3.306   4.123   8.120  0.1541 -0.5284 -2.0189
  172SAPE  C21319501   3.347   4.329   8.213 -0.0164  0.5625 -0.0820
  172SAPE  H13R19502   3.434   4.397   8.207  0.4135  0.0358  0.0991
  172SAPE  H13S19503   3.359   4.279   8.311 -1.9002 -0.6065 -0.3996
  172SAPE  C21419504   3.223   4.421   8.209 -0.1055 -0.1418  0.9814
  172SAPE  H14R19505   3.142   4.386   8.143  1.5896 -2.0229 -0.1917
  172SAPE  C21519506   3.211   4.537   8.276  0.3804 -0.1416  0.1090
  172SAPE  H15R19507   3.119   4.597   8.278  1.4646  1.6020  1.5579
  172SAPE  C21619508   3.324   4.600   8.356 -0.5584 -0.0635 -0.1292
  172SAPE  H16R19509   3.389   4.662   8.290 -0.3162  0.3832  0.5232
  172SAPE  H16S19510   3.393   4.527   8.404 -1.3015 -0.8518 -0.2328
  172SAPE  C21719511   3.274   4.697   8.465  0.2313  0.7613  0.4274
  172SAPE  H17R19512   3.207   4.638   8.532  2.5054 -0.9742  1.3136
  172SAPE  H17S19513   3.211   4.772   8.413 -0.7159  0.0085  0.4542
  172SAPE  C21819514   3.390   4.766   8.544 -0.6658  0.1257 -0.4952
  172SAPE  H18R19515   3.440   4.847   8.486  0.0355  0.8813  1.1206
  172SAPE  H18S19516   3.458   4.681   8.565  0.3411  1.1425  0.5067
  172SAPE  C21919517   3.352   4.815   8.687  0.4784  0.1013  0.2789
  172SAPE  H19R19518   3.446   4.826   8.745  0.6888 -0.5632  0.0753
  172SAPE  H19S19519   3.283   4.741   8.734 -1.0088  2.6631  2.4780
  172SAPE  C22019520   3.277   4.947   8.682 -0.7323  0.2625 -0.5004
  172SAPE  H20R19521   3.208   4.965   8.767 -1.5103 -2.2049 -0.5303
  172SAPE  H20S19522   3.228   4.943   8.583  2.8167  1.1435 -2.4611
  172SAPE  H20T19523   3.345   5.034   8.671 -0.0635 -0.0133  1.0941
  172SAPE   C3319524   3.191   4.475   7.080 -0.1351 -0.3049 -0.0044
  172SAPE   H3X19525   3.184   4.369   7.110 -1.0329 -0.8114 -1.8537
  172SAPE   H3Y19526   3.107   4.499   7.011 -0.5368 -1.2908  0.1275
  172SAPE   C3419527   3.175   4.568   7.207  0.5523 -0.4213 -0.4251
  172SAPE   H4X19528   3.135   4.664   7.168  0.2239 -1.2937 -2.3969
  172SAPE   H4Y19529   3.277   4.580   7.250  0.0773  0.6579  0.4460
  172SAPE   C3519530   3.088   4.516   7.330 -0.3397 -0.6571  0.4403
  172SAPE   H5X19531   3.136   4.422   7.364  0.6319  0.4880  2.4262
  172SAPE   H5Y19532   2.985   4.500   7.293  0.0348  0.5013 -1.2445
  172SAPE   C3619533   3.103   4.607   7.448  0.3208 -0.5813 -0.6519
  172SAPE   H6X19534   3.070   4.704   7.404  0.6045  0.4100  1.2146
  172SAPE   H6Y19535   3.208   4.623   7.482 -1.0201  2.4260  2.8838
  172SAPE   C3719536   3.015   4.550   7.564 -0.2877  0.3064  0.4097
  172SAPE   H7X19537   3.054   4.450   7.590  0.1903 -0.0686 -1.6026
  172SAPE   H7Y19538   2.911   4.541   7.527  0.5109  1.2520 -2.3119
  172SAPE   C3819539   3.019   4.646   7.686  0.3325 -0.3983 -0.3400
  172SAPE   H8X19540   2.970   4.739   7.652 -3.2488 -1.1483  2.1789
  172SAPE   H8Y19541   3.126   4.650   7.716  0.5076 -1.1801 -0.8151
  172SAPE   C3919542   2.936   4.589   7.804 -0.1655 -1.1201  0.3193
  172SAPE   H9X19543   2.982   4.493   7.838 -1.7000 -2.3521 -0.9069
  172SAPE   H9Y19544   2.831   4.571   7.772 -0.7176  0.4833  1.1240
  172SAPE  C31019545   2.937   4.687   7.920  0.8245 -0.9227 -0.3888
  172SAPE  H10X19546   2.911   4.787   7.880 -1.2658 -1.3008 -0.0575
  172SAPE  H10Y19547   3.044   4.688   7.952  0.9014 -2.2706 -0.5582
  172SAPE  C31119548   2.835   4.666   8.034  0.0490 -0.1884 -0.0863
  172SAPE  H11X19549   2.867   4.570   8.080 -0.5119 -0.1825  0.3177
  172SAPE  H11Y19550   2.733   4.658   7.992  0.4526  0.0570 -1.1637
  172SAPE  C31219551   2.839   4.776   8.145  0.0508 -0.6510 -0.4834
  172SAPE  H12X19552   2.838   4.876   8.097  2.9193  0.1654  0.9057
  172SAPE  H12Y19553   2.932   4.763   8.205  0.8454 -0.6308 -1.6782
  172SAPE  C31319554   2.730   4.756   8.246 -0.0816  0.7096  0.1919
  172SAPE  H13X19555   2.716   4.648   8.269 -0.5344  0.7481  0.0994
  172SAPE  H13Y19556   2.632   4.782   8.201 -0.3143 -0.5792 -0.0860
  172SAPE  C31419557   2.748   4.843   8.377  0.8841  0.5992 -0.1718
  172SAPE  H14X19558   2.839   4.808   8.431 -0.7367 -2.4249  0.8528
  172SAPE  H14Y19559   2.664   4.822   8.446  0.7063  2.7933  0.3467
  172SAPE  C31519560   2.779   4.987   8.346 -0.3796  0.1661  0.4627
  172SAPE  H15X19561   2.713   5.033   8.269 -1.9345  0.0896  1.7124
  172SAPE  H15Y19562   2.880   5.004   8.301 -0.2430 -0.1998  0.6204
  172SAPE  C31619563   2.765   5.096   8.452  0.2840  0.3876  0.2736
  172SAPE  H16X19564   2.685   5.079   8.528 -0.3566  0.7536 -0.3025
  172SAPE  H16Y19565   2.739   5.195   8.408 -2.1785 -0.3343 -0.1017
  172SAPE  C31719566   2.890   5.114   8.546 -0.6460  0.3629 -0.1279
  172SAPE  H17X19567   2.976   5.108   8.475 -1.5435  0.3956 -1.2505
  172SAPE  H17Y19568   2.897   5.024   8.611 -1.2378  1.6402  1.7920
  172SAPE  C31819569   2.883   5.243   8.627  0.3819  0.1313  0.4033
  172SAPE  H18X19570   2.972   5.256   8.693  0.3756  2.0595  0.0825
  172SAPE  H18Y19571   2.796   5.243   8.696  1.7723 -1.4439  2.2803
  172SAPE  H18Z19572   2.880   5.330   8.558 -2.3156  0.0977  0.3877
  173SOPE     N19573   2.752   0.156  10.935  0.0345 -0.1614 -0.3007
  173SOPE   HN119574   2.799   0.150  10.843  0.0685  0.5959 -0.3416
  173SOPE   HN219575   2.713   0.061  10.948 -1.3815  0.0513 -2.4744
  173SOPE   HN319576   2.672   0.223  10.927  0.3335  0.3376  0.7034
  173SOPE   C1219577   2.839   0.210  11.051  0.5134  0.5093 -0.6446
  173SOPE  H12A19578   2.905   0.130  11.091  0.5364  1.3227  1.0562
  173SOPE  H12B19579   2.769   0.242  11.132  2.5409  0.6315  1.1401
  173SOPE   C1119580   2.930   0.328  11.014  0.6815  0.3303 -0.3446
  173SOPE  H11A19581   2.994   0.368  11.095 -1.8128  0.7083  1.5485
  173SOPE  H11B19582   2.868   0.414  10.980 -0.2738 -0.6311 -1.1006
  173SOPE     P19583   3.143   0.209  10.909 -0.3737  0.1102  0.1794
  173SOPE   O1319584   3.120   0.085  10.983 -0.4519  0.2942 -0.3108
  173SOPE   O1419585   3.254   0.305  10.949  0.2885  0.4865  0.0245
  173SOPE   O1219586   3.014   0.290  10.906 -0.0871 -0.0715  0.2826
  173SOPE   O1119587   3.155   0.177  10.756  0.1976  0.3570 -0.3747
  173SOPE    C119588   3.246   0.237  10.665  0.3369  0.4376 -0.4327
  173SOPE    HA19589   3.333   0.170  10.650 -1.0525 -1.5874  0.1467
  173SOPE    HB19590   3.278   0.332  10.712  1.5033 -0.2697  0.2533
  173SOPE    C219591   3.174   0.276  10.532  0.0216 -0.3347  0.1417
  173SOPE    HS19592   3.086   0.336  10.564  0.2026  1.3542 -2.2347
  173SOPE   O2119593   3.153   0.168  10.445  0.6093  0.7548  0.6921
  173SOPE   C2119594   3.023   0.162  10.401 -0.0396 -0.3609 -0.2983
  173SOPE   O2219595   2.933   0.232  10.433 -0.1845 -0.4777  0.5061
  173SOPE   C2219596   3.024   0.049  10.293  0.2734 -0.6704  0.2366
  173SOPE   H2R19597   3.003  -0.041  10.354 -0.9359  0.5731  1.7567
  173SOPE   H2S19598   3.126   0.040  10.251  0.9510 -2.2040  2.0833
  173SOPE    C319599   3.256   0.385  10.448  0.8588 -0.1014 -0.6266
  173SOPE    HX19600   3.354   0.337  10.423  0.7314  0.1132 -1.5574
  173SOPE    HY19601   3.273   0.473  10.513  0.6528  1.7230 -2.9060
  173SOPE   O3119602   3.182   0.416  10.327 -0.7099 -0.7160 -0.1267
  173SOPE   C3119603   3.110   0.531  10.338  0.3760 -0.5195 -0.0270
  173SOPE   O3219604   3.089   0.591  10.439 -0.0326  0.2241 -0.7879
  173SOPE   C3219605   3.081   0.590  10.200  0.2267 -0.6998 -0.1219
  173SOPE   H2X19606   3.102   0.699  10.207  1.2069 -0.9453  1.2847
  173SOPE   H2Y19607   2.975   0.572  10.174  0.6733 -2.6601 -0.7981
  173SOPE   C2319608   2.924   0.081  10.185  0.6809  0.2809 -0.2081
  173SOPE   H3R19609   2.836   0.104  10.249  2.2497  2.1721  1.3828
  173SOPE   H3S19610   2.894   0.007  10.108 -2.9299  1.6227 -0.2710
  173SOPE   C2419611   2.952   0.209  10.106  0.1528  0.4642 -0.0118
  173SOPE   H4R19612   2.990   0.297  10.163 -0.5017  1.5931 -1.2449
  173SOPE   H4S19613   3.035   0.186  10.036 -0.7447 -0.8569 -0.6861
  173SOPE   C2519614   2.831   0.259  10.025 -0.1059  0.7051 -0.3839
  173SOPE   H5R19615   2.747   0.272  10.097 -0.3446  0.8730 -0.6939
  173SOPE   H5S19616   2.852   0.363   9.993 -1.6855  1.4569  0.8920
  173SOPE   C2619617   2.791   0.183   9.895  0.0398 -0.4249  0.3237
  173SOPE   H6R19618   2.778   0.081   9.937  0.0538  0.8297  3.7027
  173SOPE   H6S19619   2.695   0.230   9.863 -0.5672 -1.7099  0.1602
  173SOPE   C2719620   2.902   0.211   9.793  0.0704 -0.1354  0.1381
  173SOPE   H7R19621   2.940   0.315   9.796  1.8121 -0.7282  3.3967
  173SOPE   H7S19622   2.988   0.144   9.817  0.5837  1.3184  2.7095
  173SOPE   C2819623   2.853   0.169   9.652 -0.4810 -0.2103  0.2288
  173SOPE   H8R19624   2.774   0.242   9.627  0.5365  1.2653  1.1633
  173SOPE   H8S19625   2.934   0.196   9.580  0.7798 -0.8518  1.3453
  173SOPE   C2919626   2.808   0.030   9.624  0.1101  0.0386  0.2284
  173SOPE   H9119627   2.699   0.016   9.628  0.1871 -1.2962 -1.2748
  173SOPE  C21019628   2.882  -0.079   9.613 -0.1809 -0.3443 -0.1146
  173SOPE  H10119629   2.829  -0.168   9.578 -0.7916  0.3096 -0.9030
  173SOPE  C21119630   3.033  -0.082   9.644  0.6083  0.0576  1.4866
  173SOPE  H11R19631   3.071   0.020   9.670  0.8940 -0.1482  1.8906
  173SOPE  H11S19632   3.079  -0.102   9.545 -1.2103 -1.0090  0.8158
  173SOPE  C21219633   3.089  -0.191   9.738 -0.2812 -0.4176  0.5276
  173SOPE  H12R19634   3.198  -0.203   9.718  0.0526 -2.3220  3.0073
  173SOPE  H12S19635   3.040  -0.290   9.723 -0.1997 -0.6756  1.8560
  173SOPE  C21319636   3.059  -0.147   9.881 -0.5248 -0.5409 -0.1638
  173SOPE  H13R19637   2.950  -0.135   9.897 -0.4195 -1.2201  1.2233
  173SOPE  H13S19638   3.100  -0.045   9.902  2.5162 -1.1245 -2.5833
  173SOPE  C21419639   3.134  -0.246   9.969  0.0422 -0.0916 -0.1023
  173SOPE  H14R19640   3.232  -0.272   9.923 -0.6546 -1.4788 -0.8550
  173SOPE  H14S19641   3.076  -0.341   9.977  0.5202 -0.4781 -1.0765
  173SOPE  C21519642   3.172  -0.207  10.115 -0.0530 -0.5175  1.0544
  173SOPE  H15R19643   3.075  -0.191  10.166  0.3366 -0.5419  1.8171
  173SOPE  H15S19644   3.226  -0.111  10.102  0.3904 -0.8592  0.3021
  173SOPE  C21619645   3.263  -0.314  10.187 -0.1961  0.6140  0.1885
  173SOPE  H16R19646   3.365  -0.320  10.143 -0.4396  0.3230 -0.3579
  173SOPE  H16S19647   3.210  -0.411  10.170 -2.5244  1.8216  0.1700
  173SOPE  C21719648   3.265  -0.282  10.333 -0.1071 -0.4058  0.0395
  173SOPE  H17R19649   3.304  -0.364  10.396  1.0230 -0.5380 -0.7980
  173SOPE  H17S19650   3.165  -0.240  10.355  0.4071  0.5131  0.6980
  173SOPE  C21819651   3.359  -0.161  10.360 -0.1790  0.1903 -0.6234
  173SOPE  H18R19652   3.311  -0.069  10.322 -1.3961 -1.2703 -2.8939
  173SOPE  H18S19653   3.458  -0.182  10.314 -0.2228 -0.4931 -0.4156
  173SOPE  H18T19654   3.375  -0.149  10.469  5.6252  1.2911 -1.2953
  173SOPE   C3319655   3.178   0.538  10.083 -0.1960 -0.0433  0.4359
  173SOPE   H3X19656   3.150   0.433  10.059 -2.6057  0.7203 -0.3491
  173SOPE   H3Y19657   3.284   0.536  10.116  0.5919 -0.7075 -1.9287
  173SOPE   C3419658   3.163   0.625   9.955 -0.2150 -0.1687  0.1023
  173SOPE   H4X19659   3.241   0.587   9.886 -0.8454 -0.2928 -0.5567
  173SOPE   H4Y19660   3.189   0.733   9.965  0.2510 -0.1861 -0.7949
  173SOPE   C3519661   3.040   0.591   9.876  0.1244  0.4785  0.4629
  173SOPE   H5X19662   2.956   0.586   9.949 -0.8787 -0.6413 -0.7111
  173SOPE   H5Y19663   3.049   0.492   9.825 -0.4402  0.2124  0.8704
  173SOPE   C3619664   2.995   0.688   9.767  0.0496 -0.3385 -0.0219
  173SOPE   H6X19665   2.970   0.791   9.801 -1.1843  0.2669 -2.5419
  173SOPE   H6Y19666   2.909   0.634   9.722  0.1673 -1.2176  0.7775
  173SOPE   C3719667   3.112   0.712   9.670  0.7998 -0.2876  0.3485
  173SOPE   H7X19668   3.185   0.629   9.670 -0.9960 -1.9430  0.3378
  173SOPE   H7Y19669   3.162   0.807   9.699  1.5539 -0.0336 -1.6601
  173SOPE   C3819670   3.065   0.730   9.525  0.2511  0.1746  0.0636
  173SOPE   H8X19671   2.992   0.813   9.537  1.6937  1.2328  2.3666
  173SOPE   H8Y19672   3.014   0.641   9.484 -0.4520  1.3755 -1.8348
  173SOPE   C3919673   3.173   0.778   9.422  0.1515  0.7555 -0.3132
  173SOPE   H9X19674   3.256   0.704   9.426 -0.9421 -0.5901 -1.3112
  173SOPE   H9Y19675   3.214   0.872   9.465  1.1254  1.1652 -2.0187
  173SOPE  C31019676   3.119   0.812   9.284  0.5547  0.6025 -0.0671
  173SOPE  H10X19677   3.023   0.862   9.310 -0.5695 -2.3015  1.9991
  173SOPE  H10Y19678   3.070   0.726   9.232 -0.0846  1.4963 -1.0005
  173SOPE  C31119679   3.197   0.896   9.178 -0.8215  0.6410  0.1145
  173SOPE  H11X19680   3.252   0.967   9.244 -0.7264  0.7965 -0.1309
  173SOPE  H11Y19681   3.131   0.965   9.120 -1.4166  0.9515  1.1319
  173SOPE  C31219682   3.296   0.827   9.088  0.4631  0.3126  0.3578
  173SOPE  H12X19683   3.229   0.758   9.032  2.0200 -1.7560  0.9068
  173SOPE  H12Y19684   3.375   0.772   9.144  0.8891 -1.4838 -1.8594
  173SOPE  C31319685   3.358   0.916   8.975 -0.8760 -0.3948  0.4437
  173SOPE  H13X19686   3.447   0.958   9.028 -0.9267 -1.4090  1.3814
  173SOPE  H13Y19687   3.296   1.005   8.957  0.8720  1.2513  2.0709
  173SOPE  C31419688   3.402   0.837   8.850 -0.3876  0.2832 -0.1891
  173SOPE  H14X19689   3.321   0.801   8.784  1.0491  0.4914 -2.1367
  173SOPE  H14Y19690   3.458   0.752   8.896 -0.5362 -0.3866 -1.2010
  173SOPE  C31519691   3.484   0.924   8.758 -0.3912 -0.0045  0.0329
  173SOPE  H15X19692   3.578   0.958   8.807 -0.6139 -1.8572  1.9019
  173SOPE  H15Y19693   3.434   1.020   8.735 -0.8896 -0.4859 -0.9425
  173SOPE  C31619694   3.535   0.853   8.632 -0.3799  0.1816  0.4290
  173SOPE  H16X19695   3.595   0.763   8.655 -0.7374 -1.2408 -3.3905
  173SOPE  H16Y19696   3.613   0.913   8.581  0.9089 -2.0316 -0.3136
  173SOPE  C31719697   3.429   0.816   8.525 -0.1925 -0.1187  0.4059
  173SOPE  H17X19698   3.385   0.718   8.551 -1.4135  0.7664  1.8739
  173SOPE  H17Y19699   3.475   0.817   8.424  1.5089 -0.1542  1.1365
  173SOPE  C31819700   3.316   0.924   8.513 -0.7328 -0.1067 -0.4426
  173SOPE  H18X19701   3.258   0.922   8.608 -0.1244  0.8480 -0.0358
  173SOPE  H18Y19702   3.250   0.891   8.430  1.0257 -0.5917 -1.6922
  173SOPE  H18Z19703   3.358   1.026   8.496  0.0327 -0.2864  0.3383
  174SOPE     N19704   3.200   6.589  10.992  0.1387 -0.0717  0.2503
  174SOPE   HN119705   3.160   6.552  11.080  0.8636 -0.0722  0.5875
  174SOPE   HN219706   3.301   6.564  11.003  0.7043  1.3439 -1.1912
  174SOPE   HN319707   3.187   6.692  10.997 -1.6270 -0.2339 -0.3561
  174SOPE   C1219708   3.134   6.538  10.864 -0.6864  0.1284 -0.1984
  174SOPE  H12A19709   3.187   6.441  10.847 -0.0975  0.5684 -0.9332
  174SOPE  H12B19710   3.153   6.615  10.787  0.9104  0.2877  0.3139
  174SOPE   C1119711   2.986   6.516  10.884  0.5732  0.2018  0.2771
  174SOPE  H11A19712   2.948   6.475  10.788  3.5079  0.7516 -1.2322
  174SOPE  H11B19713   2.927   6.609  10.897  1.7236  0.8154  1.2705
  174SOPE     P19714   2.831   6.316  10.977  0.3417 -0.3485 -0.3791
  174SOPE   O1319715   2.715   6.396  10.953  0.0268 -1.0951  0.0820
  174SOPE   O1419716   2.830   6.240  11.102 -0.5745 -0.3043 -0.1783
  174SOPE   O1219717   2.951   6.424  10.990 -0.7798 -0.6078 -0.2223
  174SOPE   O1119718   2.866   6.234  10.848 -0.0000  0.0614  0.6048
  174SOPE    C119719   2.969   6.132  10.840  0.3300  0.3290  0.0094
  174SOPE    HA19720   2.919   6.033  10.828 -0.7314  0.8430  0.0725
  174SOPE    HB19721   3.040   6.141  10.925  2.0885  0.7492 -1.4417
  174SOPE    C219722   3.047   6.140  10.710 -0.3977 -1.0301  0.3911
  174SOPE    HS19723   3.110   6.231  10.711 -0.3569 -1.0566  1.8021
  174SOPE   O2119724   2.961   6.145  10.591 -0.3810 -0.1600 -0.4166
  174SOPE   C2119725   2.937   6.261  10.539  1.0843 -0.2528  0.3794
  174SOPE   O2219726   2.990   6.364  10.573 -0.3458 -0.1503 -0.1393
  174SOPE   C2219727   2.830   6.254  10.432  0.2162  0.0926 -0.3670
  174SOPE   H2R19728   2.740   6.309  10.465 -0.1832 -0.1131 -1.0859
  174SOPE   H2S19729   2.796   6.148  10.438 -1.2702  0.6214  1.0816
  174SOPE    C319730   3.146   6.031  10.694 -0.2508  0.1460 -0.4216
  174SOPE    HX19731   3.094   5.933  10.703  2.7516 -1.7204 -1.8398
  174SOPE    HY19732   3.202   6.046  10.789  2.7289 -1.5248 -1.8000
  174SOPE   O3119733   3.243   6.034  10.586 -0.5575  0.1051 -0.5279
  174SOPE   C3119734   3.349   6.111  10.610 -0.6669  0.0236  0.5092
  174SOPE   O3219735   3.370   6.183  10.705 -0.2435 -0.0168 -0.2265
  174SOPE   C3219736   3.443   6.107  10.489 -0.1489 -0.3216 -0.2306
  174SOPE   H2X19737   3.387   6.134  10.397 -0.3081 -2.4163 -0.8019
  174SOPE   H2Y19738   3.463   5.999  10.471  1.8955 -0.2728  1.4368
  174SOPE   C2319739   2.882   6.308  10.290 -0.0252  0.1966  0.1239
  174SOPE   H3R19740   2.951   6.227  10.255 -3.4812 -2.6936 -0.5529
  174SOPE   H3S19741   2.925   6.409  10.305  1.9406 -0.8864  2.3894
  174SOPE   C2419742   2.770   6.317  10.182 -0.3017 -0.2724 -0.4391
  174SOPE   H4R19743   2.730   6.214  10.169  3.3383 -1.8870 -0.1957
  174SOPE   H4S19744   2.689   6.382  10.221  1.0832  0.9564  0.4776
  174SOPE   C2519745   2.817   6.370  10.045  0.3744 -0.0493 -0.2687
  174SOPE   H5R19746   2.844   6.477  10.061 -4.0118  1.2956 -0.5804
  174SOPE   H5S19747   2.906   6.307  10.024  0.4855  0.0426 -0.0755
  174SOPE   C2619748   2.709   6.365   9.940 -0.2909 -0.2415 -0.8434
  174SOPE   H6R19749   2.658   6.266   9.939  2.3497 -1.7153 -2.7414
  174SOPE   H6S19750   2.636   6.445   9.966  0.6594  0.2209  0.4617
  174SOPE   C2719751   2.772   6.377   9.804 -0.1819 -0.1719 -0.6688
  174SOPE   H7R19752   2.831   6.470   9.799 -0.1489  0.3381  4.4689
  174SOPE   H7S19753   2.845   6.293   9.796 -0.4332 -0.9059  3.1179
  174SOPE   C2819754   2.674   6.378   9.689  0.0761 -0.4287 -0.1277
  174SOPE   H8R19755   2.741   6.354   9.604  1.4411 -1.5054  1.2067
  174SOPE   H8S19756   2.598   6.301   9.713 -0.1102 -0.2387 -0.1056
  174SOPE   C2919757   2.599   6.508   9.677 -1.2025  0.3301  0.5955
  174SOPE   H9119758   2.591   6.570   9.767  2.9836 -2.0718  2.8894
  174SOPE  C21019759   2.551   6.551   9.559 -0.0456  0.2977  0.2510
  174SOPE  H10119760   2.509   6.652   9.565  1.1044  0.7059  2.3488
  174SOPE  C21119761   2.556   6.484   9.429 -0.6111  0.3746  0.8418
  174SOPE  H11R19762   2.479   6.405   9.412  0.8409 -0.9376  0.0216
  174SOPE  H11S19763   2.649   6.423   9.422 -0.4993  0.6441 -0.2988
  174SOPE  C21219764   2.556   6.579   9.308  0.1101 -0.7119 -0.1988
  174SOPE  H12R19765   2.640   6.652   9.314 -0.9528  0.4808  0.9503
  174SOPE  H12S19766   2.472   6.650   9.319 -0.8109 -2.1053  2.8429
  174SOPE  C21319767   2.572   6.513   9.176  0.1160  0.9701 -0.1520
  174SOPE  H13R19768   2.509   6.421   9.174  0.1213  0.8935  1.8983
  174SOPE  H13S19769   2.676   6.475   9.164 -0.9075 -1.4724 -2.3056
  174SOPE  C21419770   2.527   6.595   9.049 -0.1554  0.5502 -0.2002
  174SOPE  H14R19771   2.416   6.593   9.050 -0.1532  0.7163  0.4083
  174SOPE  H14S19772   2.559   6.535   8.961  0.3073  0.8905 -0.2722
  174SOPE  C21519773   2.585   6.742   9.037  0.6094 -0.2442  0.9551
  174SOPE  H15R19774   2.570   6.790   9.136 -0.7480  1.3190  0.0466
  174SOPE  H15S19775   2.523   6.805   8.969  1.1396 -0.7929 -0.0605
  174SOPE  C21619776   2.734   6.751   9.015  0.0649 -0.1295  0.4326
  174SOPE  H16R19777   2.756   6.712   8.913  0.3377 -0.7008  0.7019
  174SOPE  H16S19778   2.773   6.678   9.089  2.0231  0.5152  0.0950
  174SOPE  C21719779   2.806   6.886   9.045 -0.3925 -0.2444  0.7496
  174SOPE  H17R19780   2.912   6.853   9.037 -1.4335 -3.8999  0.0426
  174SOPE  H17S19781   2.780   6.927   9.145  1.4984 -0.5177  1.3994
  174SOPE  C21819782   2.765   6.998   8.948 -0.0548  0.0068 -0.1310
  174SOPE  H18R19783   2.662   7.037   8.960 -1.4608 -3.0744 -1.0553
  174SOPE  H18S19784   2.765   6.943   8.852  0.2511  1.1895 -0.8211
  174SOPE  H18T19785   2.838   7.082   8.950  0.3460 -0.3370  0.2171
  174SOPE   C3319786   3.577   6.180  10.509  0.2856  0.1659 -0.2042
  174SOPE   H3X19787   3.635   6.155  10.600 -0.6576  0.1749  0.4061
  174SOPE   H3Y19788   3.548   6.288  10.514 -0.4907 -0.0915  2.7409
  174SOPE   C3419789   3.668   6.166  10.383 -0.9531  0.3592  0.1780
  174SOPE   H4X19790   3.674   6.062  10.344 -2.8787  0.8772 -1.6694
  174SOPE   H4Y19791   3.769   6.198  10.417 -0.8988  0.1227  0.2389
  174SOPE   C3519792   3.620   6.252  10.263 -0.0565 -0.4415 -0.6204
  174SOPE   H5X19793   3.624   6.359  10.292  4.0085 -0.2252 -1.3586
  174SOPE   H5Y19794   3.515   6.221  10.244 -0.2955 -0.1801  0.2434
  174SOPE   C3619795   3.695   6.224  10.132 -0.1430  0.2226  0.7433
  174SOPE   H6X19796   3.806   6.224  10.135 -0.1486 -0.8167  2.0788
  174SOPE   H6Y19797   3.656   6.304  10.066  1.0697  0.3531  0.1508
  174SOPE   C3719798   3.663   6.086  10.066 -0.7123 -0.3539 -0.9109
  174SOPE   H7X19799   3.554   6.065  10.064 -0.2773 -2.9216 -0.5847
  174SOPE   H7Y19800   3.703   6.002  10.126  0.6889  1.0436  0.1995
  174SOPE   C3819801   3.726   6.080   9.930  0.5925  0.0011 -0.8729
  174SOPE   H8X19802   3.724   5.972   9.903 -0.6301 -0.3614  0.5241
  174SOPE   H8Y19803   3.827   6.127   9.927  0.5513  0.7390  3.0978
  174SOPE   C3919804   3.638   6.162   9.829  0.3418  0.0165  0.3137
  174SOPE   H9X19805   3.657   6.270   9.847  3.0899 -0.3697  0.2497
  174SOPE   H9Y19806   3.531   6.151   9.855  0.8355 -2.8676  1.5015
  174SOPE  C31019807   3.653   6.121   9.688 -0.2789 -0.1507 -0.3249
  174SOPE  H10X19808   3.590   6.034   9.664 -1.3486  1.2623 -3.0434
  174SOPE  H10Y19809   3.753   6.095   9.647 -0.4818  0.0042 -0.9299
  174SOPE  C31119810   3.589   6.226   9.599 -0.2672  0.4226 -0.3001
  174SOPE  H11X19811   3.633   6.325   9.622  1.7524 -0.2631 -1.0046
  174SOPE  H11Y19812   3.482   6.219   9.630  0.4262 -1.6373  1.9539
  174SOPE  C31219813   3.607   6.209   9.449 -0.7968 -0.2694 -0.6181
  174SOPE  H12X19814   3.629   6.102   9.425 -0.8017  0.0299 -2.0493
  174SOPE  H12Y19815   3.694   6.267   9.413 -1.5022  1.5954  0.5537
  174SOPE  C31319816   3.492   6.267   9.373 -0.3868 -0.2528  0.3571
  174SOPE  H13X19817   3.459   6.364   9.416  1.7700  0.7200 -0.0225
  174SOPE  H13Y19818   3.408   6.200   9.399  0.3337 -0.4051  2.4122
  174SOPE  C31419819   3.514   6.275   9.221  0.6827  0.3030  0.0219
  174SOPE  H14X19820   3.585   6.355   9.194  0.7239 -0.3127 -1.8277
  174SOPE  H14Y19821   3.413   6.303   9.184 -0.3557  0.3351  2.6612
  174SOPE  C31519822   3.556   6.140   9.162  0.5001 -0.0271  0.2385
  174SOPE  H15X19823   3.474   6.067   9.178  1.2924 -1.0753 -0.3172
  174SOPE  H15Y19824   3.641   6.098   9.219  0.3259 -0.1098  0.4385
  174SOPE  C31619825   3.589   6.149   9.012  0.7889 -0.3021 -0.4457
  174SOPE  H16X19826   3.495   6.189   8.970 -0.4326 -1.9470  0.6078
  174SOPE  H16Y19827   3.600   6.048   8.968 -0.3463 -0.6441  0.0205
  174SOPE  C31719828   3.705   6.237   8.975  0.0805 -0.3827  0.2769
  174SOPE  H17X19829   3.796   6.215   9.034  1.4624  4.0447  0.1526
  174SOPE  H17Y19830   3.686   6.344   8.994 -0.0530 -0.4933  0.7794
  174SOPE  C31819831   3.752   6.224   8.827  0.7441  0.7766 -0.0351
  174SOPE  H18X19832   3.788   6.119   8.828 -1.0150  0.1491  1.7454
  174SOPE  H18Y19833   3.827   6.305   8.811  0.1763  0.9745 -1.9773
  174SOPE  H18Z19834   3.663   6.218   8.761  1.3033 -4.1726 -0.7357
  175SOPE     N19835   5.865   1.506  10.927 -0.0507  0.4759  0.0711
  175SOPE   HN119836   5.769   1.546  10.933  0.8997  2.8724  0.4157
  175SOPE   HN219837   5.922   1.574  10.981  0.4659  0.2198 -0.1471
  175SOPE   HN319838   5.893   1.521  10.829 -0.4072  0.4080 -0.0442
  175SOPE   C1219839   5.864   1.370  10.987 -0.3654 -0.4740  0.1256
  175SOPE  H12A19840   5.787   1.366  11.067  1.0311 -1.3141  1.4815
  175SOPE  H12B19841   5.964   1.359  11.035  1.0264  2.3933 -1.8513
  175SOPE   C1119842   5.861   1.269  10.873 -0.2018  0.3406  0.1958
  175SOPE  H11A19843   5.894   1.174  10.917  1.3433  0.4023 -0.7685
  175SOPE  H11B19844   5.946   1.299  10.808  0.5010  0.7409  1.2711
  175SOPE     P19845   5.700   1.124  10.723 -0.1363 -0.1545 -0.1555
  175SOPE   O1319846   5.557   1.132  10.686  0.5696 -0.1906  0.3203
  175SOPE   O1419847   5.743   1.007  10.797 -0.1565  0.7975 -0.3483
  175SOPE   O1219848   5.735   1.259  10.797  0.0303 -0.2687  0.2942
  175SOPE   O1119849   5.775   1.134  10.588  0.2870 -0.3393  0.5045
  175SOPE    C119850   5.828   1.256  10.530 -0.1350 -0.3668  0.2700
  175SOPE    HA19851   5.931   1.277  10.566 -1.5017  0.1795  4.4140
  175SOPE    HB19852   5.770   1.346  10.561 -1.3892 -0.7462 -0.8670
  175SOPE    C219853   5.815   1.269  10.375  0.0921  0.1485  0.3476
  175SOPE    HS19854   5.884   1.349  10.339  0.1492  0.6781  1.6036
  175SOPE   O2119855   5.686   1.315  10.333  0.0259 -0.0910 -0.6508
  175SOPE   C2119856   5.658   1.445  10.359 -0.0776  0.4599  0.9520
  175SOPE   O2219857   5.744   1.527  10.397 -0.7297  0.4429 -0.3869
  175SOPE   C2219858   5.513   1.471  10.334 -0.0362 -0.6147 -0.0561
  175SOPE   H2R19859   5.489   1.568  10.383 -0.9777  0.6368 -2.8207
  175SOPE   H2S19860   5.443   1.400  10.382  1.5829 -2.4786 -0.2928
  175SOPE    C319861   5.861   1.136  10.296 -0.1161  0.4549 -0.8076
  175SOPE    HX19862   5.808   1.053  10.347 -0.4017  1.2636  0.2522
  175SOPE    HY19863   5.965   1.109  10.323  0.3896  2.4091 -0.6067
  175SOPE   O3119864   5.844   1.144  10.152 -0.3562  0.1145  0.8566
  175SOPE   C3119865   5.731   1.095  10.113  0.3325 -0.0789 -0.1622
  175SOPE   O3219866   5.643   1.046  10.181  0.2043 -0.1396 -0.5876
  175SOPE   C3219867   5.708   1.111   9.959 -0.2107 -0.0918  0.1213
  175SOPE   H2X19868   5.803   1.086   9.907 -1.0792 -0.2579 -1.4242
  175SOPE   H2Y19869   5.695   1.219   9.938  2.3312  0.5832  1.5176
  175SOPE   C2319870   5.475   1.477  10.180 -0.3861 -0.6345 -0.2822
  175SOPE   H3R19871   5.562   1.503  10.115 -0.1221  0.6345  0.5399
  175SOPE   H3S19872   5.410   1.566  10.175  1.6971  1.0582  0.8611
  175SOPE   C2419873   5.407   1.348  10.128 -0.5537 -0.5458  0.6629
  175SOPE   H4R19874   5.463   1.264  10.174 -0.7262 -1.2433 -0.3662
  175SOPE   H4S19875   5.307   1.349  10.177 -0.8607  1.4727  0.0774
  175SOPE   C2519876   5.395   1.339   9.975 -0.5691 -0.4110 -0.1447
  175SOPE   H5R19877   5.496   1.350   9.929 -0.6507  0.7977 -0.0606
  175SOPE   H5S19878   5.357   1.239   9.944 -2.0379  0.3134 -0.7619
  175SOPE   C2619879   5.292   1.433   9.915 -0.6695  0.1310  0.2127
  175SOPE   H6R19880   5.190   1.404   9.949  0.7351 -3.8040  1.6269
  175SOPE   H6S19881   5.317   1.537   9.944  1.0086 -0.2091  0.0400
  175SOPE   C2719882   5.294   1.421   9.760  0.0609  0.1620 -0.2325
  175SOPE   H7R19883   5.392   1.467   9.733  0.4788  0.5038  1.7484
  175SOPE   H7S19884   5.306   1.313   9.739  3.0784 -0.1438  2.2753
  175SOPE   C2819885   5.170   1.480   9.687  0.1983 -0.3569 -0.3587
  175SOPE   H8R19886   5.174   1.436   9.585  0.0568 -2.2262  0.4059
  175SOPE   H8S19887   5.080   1.433   9.730 -0.8837 -0.9401 -3.0171
  175SOPE   C2919888   5.170   1.632   9.682 -0.7667  0.0725  0.2117
  175SOPE   H9119889   5.142   1.685   9.774 -1.5164  1.4756 -0.7931
  175SOPE  C21019890   5.193   1.716   9.576  0.2679  0.1187  0.2033
  175SOPE  H10119891   5.206   1.824   9.594  2.7869  0.1712 -1.4802
  175SOPE  C21119892   5.224   1.668   9.439  0.3234  0.6776 -0.3533
  175SOPE  H11R19893   5.136   1.603   9.421  0.1113  1.4687 -2.5079
  175SOPE  H11S19894   5.318   1.611   9.423 -0.3603 -0.7735  0.6209
  175SOPE  C21219895   5.218   1.777   9.332 -0.4317 -0.1693  0.2232
  175SOPE  H12R19896   5.309   1.840   9.319 -0.9064  0.7737  1.2605
  175SOPE  H12S19897   5.125   1.834   9.352 -0.6967 -0.8547  0.9691
  175SOPE  C21319898   5.176   1.714   9.195 -0.0909  0.1859 -0.2201
  175SOPE  H13R19899   5.091   1.642   9.202 -0.2971  0.5638  2.9282
  175SOPE  H13S19900   5.260   1.646   9.170  0.0347 -0.4062  1.6411
  175SOPE  C21419901   5.139   1.807   9.085 -0.9115  0.1209  0.0270
  175SOPE  H14R19902   5.183   1.907   9.105  1.7291 -0.8414 -0.5555
  175SOPE  H14S19903   5.029   1.824   9.085 -1.0186 -0.5310  0.2870
  175SOPE  C21519904   5.182   1.758   8.949  0.2559  0.1310 -0.3820
  175SOPE  H15R19905   5.141   1.655   8.945  3.4265 -1.3256  0.8687
  175SOPE  H15S19906   5.286   1.726   8.924 -0.6055 -1.2416 -2.4916
  175SOPE  C21619907   5.118   1.832   8.833 -0.4568  0.1820 -0.1143
  175SOPE  H16R19908   5.165   1.932   8.829  2.4298 -1.0424  0.8755
  175SOPE  H16S19909   5.008   1.829   8.851 -0.6017 -4.4992 -0.6590
  175SOPE  C21719910   5.139   1.764   8.691  0.7299  0.3820 -0.0639
  175SOPE  H17R19911   5.241   1.720   8.685  1.1819  1.2580  0.9557
  175SOPE  H17S19912   5.141   1.836   8.607  1.0211 -1.0240 -1.3212
  175SOPE  C21819913   5.034   1.653   8.666 -0.3762  0.6241  0.5933
  175SOPE  H18R19914   4.935   1.681   8.708 -1.0579 -0.4403 -0.2598
  175SOPE  H18S19915   5.061   1.557   8.714 -0.0487  1.0481  1.2781
  175SOPE  H18T19916   5.029   1.634   8.557 -0.2951  2.7760  0.1585
  175SOPE   C3319917   5.585   1.026   9.919  0.4253  0.2068  0.0943
  175SOPE   H3X19918   5.495   1.067   9.970  0.2062 -0.0893 -0.0517
  175SOPE   H3Y19919   5.591   0.921   9.954  1.2327 -0.1149 -0.9901
  175SOPE   C3419920   5.551   1.018   9.773 -0.3075 -0.2032  0.1795
  175SOPE   H4X19921   5.642   0.968   9.732 -0.0553  0.8030 -0.5229
  175SOPE   H4Y19922   5.538   1.120   9.730 -1.8371  0.5442  2.2577
  175SOPE   C3519923   5.429   0.934   9.735 -0.1492 -0.1191  0.3207
  175SOPE   H5X19924   5.339   0.980   9.779 -0.1595  0.2934 -0.1106
  175SOPE   H5Y19925   5.440   0.827   9.763  0.7948  0.3825  1.9990
  175SOPE   C3619926   5.419   0.924   9.579 -0.0482 -0.3046 -0.2959
  175SOPE   H6X19927   5.509   0.885   9.526 -1.2242 -2.8529 -0.5703
  175SOPE   H6Y19928   5.394   1.027   9.544  0.5838  0.3135  0.9904
  175SOPE   C3719929   5.305   0.834   9.526 -0.0719 -0.1125  0.3829
  175SOPE   H7X19930   5.207   0.887   9.536  0.0718  0.2732 -0.2634
  175SOPE   H7Y19931   5.313   0.739   9.584 -1.6090 -1.0071 -0.7815
  175SOPE   C3819932   5.317   0.819   9.377 -1.0272  0.4938 -1.1794
  175SOPE   H8X19933   5.405   0.754   9.361 -0.5764  0.7062  0.2845
  175SOPE   H8Y19934   5.334   0.918   9.330 -0.6194 -0.8605 -4.1724
  175SOPE   C3919935   5.192   0.757   9.300 -0.3086 -0.4836  0.2544
  175SOPE   H9X19936   5.115   0.837   9.293  2.1719  1.9386 -0.7794
  175SOPE   H9Y19937   5.153   0.667   9.353 -0.3126 -2.2441 -2.5032
  175SOPE  C31019938   5.227   0.698   9.155 -0.1186  0.8254 -0.4312
  175SOPE  H10X19939   5.129   0.677   9.106  0.5171  2.1297 -2.3991
  175SOPE  H10Y19940   5.280   0.605   9.184 -2.9629 -0.3617  1.4071
  175SOPE  C31119941   5.317   0.781   9.070  0.0236 -0.5728 -0.0704
  175SOPE  H11X19942   5.361   0.730   8.982  1.5621 -0.5888  0.6808
  175SOPE  H11Y19943   5.404   0.805   9.134 -0.4935  0.2953  0.3317
  175SOPE  C31219944   5.249   0.909   9.009  0.4270  0.3612  0.2878
  175SOPE  H12X19945   5.184   0.965   9.079 -2.5593  0.0609 -2.0619
  175SOPE  H12Y19946   5.180   0.874   8.929  1.8635 -1.3594 -0.2840
  175SOPE  C31319947   5.342   1.016   8.951  0.7037  0.2924 -0.0387
  175SOPE  H13X19948   5.282   1.087   8.891  1.7033  0.8837 -0.3707
  175SOPE  H13Y19949   5.422   0.973   8.886 -0.6133 -1.7512 -0.3743
  175SOPE  C31419950   5.414   1.106   9.058  0.3313  0.4506  0.3058
  175SOPE  H14X19951   5.519   1.083   9.032  0.1002 -0.7352  0.3895
  175SOPE  H14Y19952   5.405   1.060   9.159 -0.9658  0.0349  0.0245
  175SOPE  C31519953   5.379   1.252   9.052  0.3571 -1.0336  0.2511
  175SOPE  H15X19954   5.357   1.280   8.947  1.4150  0.8130  0.4791
  175SOPE  H15Y19955   5.466   1.315   9.083 -1.4961  0.9639  1.6678
  175SOPE  C31619956   5.261   1.292   9.137  0.0652  0.0400  0.3652
  175SOPE  H16X19957   5.182   1.214   9.132  0.3837 -0.2362 -0.6142
  175SOPE  H16Y19958   5.210   1.387   9.111  0.5672  0.5573  1.2407
  175SOPE  C31719959   5.298   1.313   9.285  0.3921 -0.3453 -0.1978
  175SOPE  H17X19960   5.264   1.412   9.323  0.7934 -0.9423  1.8590
  175SOPE  H17Y19961   5.408   1.317   9.302  0.0985  2.2018  1.6021
  175SOPE  C31819962   5.241   1.206   9.384 -0.1176  0.0709 -0.3914
  175SOPE  H18X19963   5.276   1.228   9.487 -1.2904 -0.9779  0.2612
  175SOPE  H18Y19964   5.276   1.112   9.336 -0.8260 -0.2639 -0.2558
  175SOPE  H18Z19965   5.130   1.210   9.392 -0.0360  0.3431  0.7305
  176SOPE     N19966   5.640   0.090  11.359 -0.2999  0.2370 -0.2897
  176SOPE   HN119967   5.609   0.082  11.458 -3.3402  2.5423 -0.8936
  176SOPE   HN219968   5.599   0.013  11.302  1.2136 -0.4832 -0.4520
  176SOPE   HN319969   5.742   0.074  11.352  0.0256  1.8573  0.2689
  176SOPE   C1219970   5.609   0.221  11.299  0.2788  0.2434  0.2548
  176SOPE  H12A19971   5.672   0.231  11.208 -0.4986  0.9611 -0.2196
  176SOPE  H12B19972   5.654   0.301  11.361 -0.1877  1.3521 -0.7927
  176SOPE   C1119973   5.454   0.237  11.270 -0.2200  0.0802 -0.6613
  176SOPE  H11A19974   5.427   0.344  11.268  3.1390  1.0399 -1.4944
  176SOPE  H11B19975   5.405   0.201  11.363  0.3162 -0.4897 -0.5889
  176SOPE     P19976   5.376   0.249  11.027 -0.4083 -0.0545 -0.0154
  176SOPE   O1319977   5.498   0.301  10.971  0.0374  0.2958  0.3791
  176SOPE   O1419978   5.283   0.348  11.075 -0.5199 -0.3349  0.3493
  176SOPE   O1219979   5.415   0.166  11.156  0.1202  0.4430  0.8096
  176SOPE   O1119980   5.309   0.130  10.944 -0.2578 -0.5951  0.0579
  176SOPE    C119981   5.389   0.020  10.898 -0.3409 -0.1173 -0.2205
  176SOPE    HA19982   5.338  -0.069  10.941  0.5722  0.3333  1.9403
  176SOPE    HB19983   5.491   0.027  10.940 -0.3122  2.4680 -0.5809
  176SOPE    C219984   5.399   0.018  10.742 -0.2272  0.1801 -0.8310
  176SOPE    HS19985   5.454   0.111  10.717 -0.6555  1.3603  2.2468
  176SOPE   O2119986   5.265  -0.000  10.699  0.2766 -0.8538 -0.3168
  176SOPE   C2119987   5.228   0.100  10.618 -0.8728 -0.6177  0.3564
  176SOPE   O2219988   5.307   0.188  10.573  0.0436  0.9564  0.3030
  176SOPE   C2219989   5.077   0.093  10.596 -0.0240 -0.4924  0.3003
  176SOPE   H2R19990   5.035   0.196  10.594 -1.8456 -1.1845  0.5112
  176SOPE   H2S19991   5.025   0.040  10.679  0.9448 -2.6350 -0.3687
  176SOPE    C319992   5.487  -0.099  10.687  0.0149  0.3421 -0.1770
  176SOPE    HX19993   5.456  -0.195  10.733  1.7685 -1.2170 -2.0728
  176SOPE    HY19994   5.593  -0.077  10.713 -0.1135 -0.2103  0.9014
  176SOPE   O3119995   5.470  -0.116  10.550 -0.3028 -0.2215  0.2830
  176SOPE   C3119996   5.539  -0.041  10.469  0.3395 -0.1404  0.5473
  176SOPE   O3219997   5.627   0.034  10.498 -0.3622  0.7314 -0.0846
  176SOPE   C3219998   5.481  -0.067  10.329 -0.2609  0.2528  0.5448
  176SOPE   H2X19999   5.376  -0.104  10.318  0.0032 -0.1244 -1.0210
  176SOPE   H2Y20000   5.542  -0.150  10.287  1.6682  0.8979  1.9613
  176SOPE   C2320001   5.058   0.017  10.461 -0.3162 -0.4265  0.5561
  176SOPE   H3R20002   4.950  -0.011  10.464 -0.5708  0.4930  0.4379
  176SOPE   H3S20003   5.106  -0.083  10.470 -5.0873 -2.9482  1.4336
  176SOPE   C2420004   5.082   0.097  10.333 -0.2101 -1.0180  0.6607
  176SOPE   H4R20005   5.014   0.184  10.336 -0.4126 -0.8518 -3.4161
  176SOPE   H4S20006   5.187   0.130  10.348 -1.0571  0.7910  3.1709
  176SOPE   C2520007   5.054   0.018  10.201 -0.2607 -0.0021 -0.2720
  176SOPE   H5R20008   5.124   0.046  10.119  0.6952 -2.4868 -0.3731
  176SOPE   H5S20009   5.087  -0.086  10.219  1.3283  0.8487  2.2926
  176SOPE   C2620010   4.916   0.033  10.151 -0.1419 -0.0133  0.1751
  176SOPE   H6R20011   4.843   0.009  10.230  0.9138  1.3151  1.6208
  176SOPE   H6S20012   4.902   0.139  10.120 -0.0672 -0.1574 -0.3572
  176SOPE   C2720013   4.876  -0.048  10.022 -0.1196 -0.4066 -0.8275
  176SOPE   H7R20014   4.961  -0.036   9.951  2.4773  2.7687  2.4344
  176SOPE   H7S20015   4.848  -0.149  10.059 -1.3632  0.4766  0.7316
  176SOPE   C2820016   4.747   0.018   9.967 -0.3613  0.3911  0.0969
  176SOPE   H8R20017   4.656  -0.018  10.020 -0.7151  0.8936 -0.1556
  176SOPE   H8S20018   4.760   0.127   9.984 -0.6857  0.2740  1.1428
  176SOPE   C2920019   4.742  -0.013   9.821  0.8318  0.7265 -0.3388
  176SOPE   H9120020   4.813   0.038   9.755 -1.2514  2.6395 -1.2391
  176SOPE  C21020021   4.647  -0.073   9.754  0.3980  0.0198  0.3467
  176SOPE  H10120022   4.659  -0.080   9.644 -1.5743  1.3579 -0.0072
  176SOPE  C21120023   4.527  -0.135   9.810 -0.4019  0.4394 -0.5011
  176SOPE  H11R20024   4.537  -0.179   9.912 -2.3667  2.8561  0.8285
  176SOPE  H11S20025   4.501  -0.222   9.745 -0.0370  0.2932 -0.4554
  176SOPE  C21220026   4.410  -0.033   9.814 -0.3165  0.1382  0.1815
  176SOPE  H12R20027   4.406   0.025   9.719 -1.3965  1.3881  0.9557
  176SOPE  H12S20028   4.423   0.040   9.896 -2.3277  0.7857 -0.0235
  176SOPE  C21320029   4.273  -0.107   9.829  0.7046 -0.0311  0.3304
  176SOPE  H13R20030   4.254  -0.148   9.727 -2.0772  1.5115  0.1392
  176SOPE  H13S20031   4.189  -0.040   9.855 -1.4725 -2.1281 -0.9368
  176SOPE  C21420032   4.265  -0.225   9.935 -0.5327  0.3443 -0.1717
  176SOPE  H14R20033   4.350  -0.291   9.909 -1.5691 -0.2975 -2.1149
  176SOPE  H14S20034   4.166  -0.274   9.923 -0.5773  0.3437  0.1941
  176SOPE  C21520035   4.294  -0.177  10.074 -0.5485 -0.2606 -1.0668
  176SOPE  H15R20036   4.217  -0.103  10.105 -0.3210 -1.2440  2.2621
  176SOPE  H15S20037   4.392  -0.126  10.073  0.0751 -1.4291 -1.2608
  176SOPE  C21620038   4.290  -0.293  10.178  0.0099 -0.4377 -0.3121
  176SOPE  H16R20039   4.362  -0.370  10.143 -0.1324 -0.5755 -0.2997
  176SOPE  H16S20040   4.189  -0.338  10.188 -0.6355  0.5936 -1.7871
  176SOPE  C21720041   4.332  -0.245  10.321 -0.3699  0.0983  0.3322
  176SOPE  H17R20042   4.332  -0.134  10.326  0.5847  0.0656  1.5253
  176SOPE  H17S20043   4.436  -0.278  10.344  1.2880  2.6544 -2.7027
  176SOPE  C21820044   4.235  -0.272  10.431 -0.2055  0.3025 -0.2233
  176SOPE  H18R20045   4.216  -0.381  10.444 -0.1147  0.2743 -0.3219
  176SOPE  H18S20046   4.139  -0.227  10.398  0.7393  1.8195 -1.0514
  176SOPE  H18T20047   4.263  -0.230  10.530  2.1509 -1.7055  0.0825
  176SOPE   C3320048   5.495   0.059  10.240  0.8471 -0.1987 -0.1214
  176SOPE   H3X20049   5.598   0.097  10.225  0.5989  0.1367 -1.0585
  176SOPE   H3Y20050   5.445   0.145  10.289  1.9094  0.4351 -0.1186
  176SOPE   C3420051   5.438   0.051  10.097  0.0486  0.0835 -0.1179
  176SOPE   H4X20052   5.327   0.057  10.096  0.0741  0.5543 -0.2345
  176SOPE   H4Y20053   5.472  -0.046  10.056  0.5811  0.7791 -1.3883
  176SOPE   C3520054   5.488   0.163  10.011 -0.5431 -0.0188 -0.2400
  176SOPE   H5X20055   5.598   0.166   9.992 -0.8162  0.6949 -1.9054
  176SOPE   H5Y20056   5.471   0.254  10.073 -0.6334 -0.0106 -0.2774
  176SOPE   C3620057   5.419   0.184   9.875 -0.9537  0.5740  0.3303
  176SOPE   H6X20058   5.449   0.283   9.833  1.2294  0.0104  0.4316
  176SOPE   H6Y20059   5.310   0.184   9.896 -1.4076 -2.9205 -1.3488
  176SOPE   C3720060   5.461   0.081   9.767 -0.5848 -0.0962  0.5641
  176SOPE   H7X20061   5.425  -0.021   9.792  0.1504 -0.2289  1.1328
  176SOPE   H7Y20062   5.570   0.069   9.753 -0.4093  0.3827  1.4201
  176SOPE   C3820063   5.392   0.107   9.632 -0.7005 -0.8555 -0.0925
  176SOPE   H8X20064   5.409   0.214   9.606 -0.4803 -1.0685 -0.8281
  176SOPE   H8Y20065   5.284   0.095   9.655 -0.5797 -1.8668 -0.0416
  176SOPE   C3920066   5.424   0.006   9.519 -0.6500 -0.5324  0.5083
  176SOPE   H9X20067   5.375  -0.090   9.543 -0.9782 -0.4161  0.3093
  176SOPE   H9Y20068   5.532  -0.023   9.519 -0.7254 -0.9690 -1.5527
  176SOPE  C31020069   5.373   0.051   9.378  0.6074  0.7600  0.2136
  176SOPE  H10X20070   5.410   0.155   9.366 -0.8840  1.1125 -1.7491
  176SOPE  H10Y20071   5.263   0.051   9.389  0.5638 -0.0698 -0.1263
  176SOPE  C31120072   5.418  -0.048   9.266 -0.1211 -0.0509  0.4655
  176SOPE  H11X20073   5.383  -0.153   9.274  1.1538 -0.5081  0.3043
  176SOPE  H11Y20074   5.528  -0.065   9.262 -0.2823 -0.9731 -0.4330
  176SOPE  C31220075   5.387  -0.009   9.121 -0.4494 -0.3369 -0.0573
  176SOPE  H12X20076   5.427  -0.092   9.060  0.3105 -1.1785  1.5527
  176SOPE  H12Y20077   5.445   0.077   9.081 -2.7954  1.2661 -0.2566
  176SOPE  C31320078   5.235   0.003   9.083  0.3758 -0.7387 -0.0332
  176SOPE  H13X20079   5.184   0.075   9.150  2.0877  1.1027 -0.5988
  176SOPE  H13Y20080   5.190  -0.098   9.094 -2.5815  0.4493 -0.3091
  176SOPE  C31420081   5.227   0.034   8.930  0.2622 -0.1864 -0.5692
  176SOPE  H14X20082   5.126   0.013   8.887  0.4969  0.6705 -1.5501
  176SOPE  H14Y20083   5.294  -0.042   8.885  3.0215  0.5748  1.9580
  176SOPE  C31520084   5.265   0.174   8.893  0.3574 -0.5215  0.2073
  176SOPE  H15X20085   5.358   0.199   8.948 -1.0132  1.8441  1.6486
  176SOPE  H15Y20086   5.186   0.248   8.919  2.7850  1.7617  1.5339
  176SOPE  C31620087   5.301   0.180   8.739  0.6538  0.8123  0.1720
  176SOPE  H16X20088   5.351   0.083   8.720 -2.3991 -0.7879 -0.4467
  176SOPE  H16Y20089   5.385   0.248   8.713  1.6371  0.7369  2.8826
  176SOPE  C31720090   5.185   0.201   8.632  0.0833 -0.2977 -0.5134
  176SOPE  H17X20091   5.228   0.185   8.531 -1.1130  1.2987 -1.3388
  176SOPE  H17Y20092   5.154   0.308   8.639 -0.0662 -0.3348 -0.6081
  176SOPE  C31820093   5.064   0.110   8.640  0.0913  1.5480 -0.8419
  176SOPE  H18X20094   4.987   0.152   8.573  0.6335  0.2757 -2.3508
  176SOPE  H18Y20095   5.029   0.085   8.742 -0.7274  0.5616 -1.3437
  176SOPE  H18Z20096   5.099   0.016   8.590 -0.0174  2.0412 -1.8730
  177SOPE     N20097   3.716   4.103  10.880 -0.3254  0.6609  1.2721
  177SOPE   HN120098   3.810   4.129  10.844 -0.5977 -1.1363 -0.9828
  177SOPE   HN220099   3.671   4.191  10.915  0.0486  0.9571  1.0194
  177SOPE   HN320100   3.713   4.045  10.966 -0.3919  1.1363  1.5949
  177SOPE   C1220101   3.615   4.053  10.776 -0.3461 -0.3722 -0.7399
  177SOPE  H12A20102   3.533   4.003  10.833  1.2968 -2.5886 -0.1641
  177SOPE  H12B20103   3.664   3.985  10.703 -1.4219 -2.0828  0.0503
  177SOPE   C1120104   3.565   4.172  10.691 -0.0856  0.4397 -0.1253
  177SOPE  H11A20105   3.518   4.138  10.596  0.5136 -0.7127 -0.0348
  177SOPE  H11B20106   3.652   4.239  10.673 -0.1372  1.2489  2.3163
  177SOPE     P20107   3.512   4.386  10.843  0.2988  0.6233 -0.4240
  177SOPE   O1320108   3.634   4.363  10.919  0.7204  0.0590  0.0146
  177SOPE   O1420109   3.395   4.418  10.925 -0.5205 -0.0506 -0.3440
  177SOPE   O1220110   3.472   4.258  10.759  0.0827 -0.2858 -0.1106
  177SOPE   O1120111   3.532   4.501  10.737 -0.6688  0.1523 -0.0129
  177SOPE    C120112   3.607   4.620  10.748 -0.3963 -0.1751 -0.0537
  177SOPE    HA20113   3.655   4.639  10.846 -1.3353  0.7606  0.2537
  177SOPE    HB20114   3.533   4.703  10.748  1.0696  1.2489  2.3154
  177SOPE    C220115   3.725   4.637  10.645 -0.0436 -0.4084 -0.0672
  177SOPE    HS20116   3.767   4.740  10.643  0.7511 -0.7114  0.4087
  177SOPE   O2120117   3.686   4.606  10.509 -0.0647  0.0530  0.2148
  177SOPE   C2120118   3.599   4.689  10.453  0.3603 -0.4227  0.7870
  177SOPE   O2220119   3.551   4.787  10.502  0.8840 -0.6296 -0.5301
  177SOPE   C2220120   3.564   4.636  10.312 -0.1854 -0.4791  0.2715
  177SOPE   H2R20121   3.477   4.568  10.324  0.1180 -1.4784 -2.3679
  177SOPE   H2S20122   3.644   4.569  10.275 -0.3192  0.0876 -1.1360
  177SOPE    C320123   3.844   4.539  10.679  0.7743  0.0248 -0.5469
  177SOPE    HX20124   3.805   4.435  10.670  0.2896  0.3476 -2.8510
  177SOPE    HY20125   3.868   4.564  10.785 -0.0586  0.2701 -0.4105
  177SOPE   O3120126   3.952   4.562  10.587  0.7241 -0.5437 -0.5723
  177SOPE   C3120127   4.060   4.498  10.616  0.2781  0.2529 -0.1324
  177SOPE   O3220128   4.065   4.408  10.697 -0.8849 -0.8340 -0.3127
  177SOPE   C3220129   4.166   4.537  10.518 -0.3919 -0.2291 -0.1851
  177SOPE   H2X20130   4.233   4.616  10.557  0.3719 -1.1661  0.4600
  177SOPE   H2Y20131   4.121   4.574  10.424 -0.6929 -1.4170 -0.5250
  177SOPE   C2320132   3.539   4.752  10.217  0.2042 -0.1105  0.0233
  177SOPE   H3R20133   3.641   4.785  10.188  0.4659 -0.7418  0.2032
  177SOPE   H3S20134   3.490   4.842  10.258 -0.3244  1.4345 -3.6501
  177SOPE   C2420135   3.468   4.701  10.088  0.1436 -0.0788  0.2893
  177SOPE   H4R20136   3.546   4.679  10.011 -1.7309  1.0282 -2.0510
  177SOPE   H4S20137   3.418   4.605  10.111 -2.6903  1.3562  0.4877
  177SOPE   C2520138   3.353   4.800  10.045 -0.0534 -0.4459 -1.0206
  177SOPE   H5R20139   3.287   4.821  10.132 -2.7452  1.3510 -3.3125
  177SOPE   H5S20140   3.395   4.896  10.009 -1.7632  0.3041 -1.1068
  177SOPE   C2620141   3.269   4.739   9.931 -0.9953  0.0684 -0.3854
  177SOPE   H6R20142   3.340   4.722   9.847  0.3225  1.0311  0.5038
  177SOPE   H6S20143   3.221   4.644   9.963  1.4999 -0.6064  1.6030
  177SOPE   C2720144   3.162   4.832   9.889  0.4688  0.4498 -0.4773
  177SOPE   H7R20145   3.113   4.869   9.981  0.8892  0.5259 -0.2796
  177SOPE   H7S20146   3.198   4.917   9.826 -1.9936  1.2226 -0.9297
  177SOPE   C2820147   3.062   4.755   9.791  0.1601 -0.7928 -0.4757
  177SOPE   H8R20148   3.004   4.686   9.857  0.7032  0.8422  1.8410
  177SOPE   H8S20149   2.987   4.833   9.766  1.7247  0.7433 -0.6039
  177SOPE   C2920150   3.133   4.684   9.672  0.1673 -0.2841  0.0566
  177SOPE   H9120151   3.176   4.585   9.696 -1.4248 -1.3197 -1.1092
  177SOPE  C21020152   3.136   4.728   9.549  0.1852  0.0052  0.1325
  177SOPE  H10120153   3.193   4.674   9.472  0.5536  1.3549 -0.5867
  177SOPE  C21120154   3.068   4.858   9.498  0.0978  0.2183 -0.6328
  177SOPE  H11R20155   3.145   4.938   9.490  0.5534 -0.1926 -0.3298
  177SOPE  H11S20156   2.992   4.904   9.564  2.5294 -0.1706  2.7043
  177SOPE  C21220157   2.993   4.833   9.365  0.3871 -0.8494 -0.3924
  177SOPE  H12R20158   2.918   4.913   9.356  2.3156  1.8432  4.0233
  177SOPE  H12S20159   2.934   4.739   9.374 -0.0753 -0.9181 -3.2117
  177SOPE  C21320160   3.079   4.841   9.239  0.0121  0.2383 -0.8620
  177SOPE  H13R20161   3.152   4.758   9.243  2.0811  1.9394  3.1945
  177SOPE  H13S20162   3.131   4.939   9.241  1.7078 -0.6088 -1.9323
  177SOPE  C21420163   2.999   4.829   9.111 -0.2091  0.0625  0.1293
  177SOPE  H14R20164   2.944   4.735   9.132 -2.4200  1.2241 -0.1361
  177SOPE  H14S20165   3.056   4.812   9.017 -0.0769  0.5568  0.1137
  177SOPE  C21520166   2.894   4.933   9.085  0.6105  0.6937 -0.2278
  177SOPE  H15R20167   2.820   4.933   9.168  0.2925  2.1003 -0.4902
  177SOPE  H15S20168   2.841   4.903   8.993  1.9356 -1.8931 -0.2459
  177SOPE  C21620169   2.950   5.079   9.065 -0.1307  0.8394  0.1901
  177SOPE  H16R20170   3.006   5.084   8.970 -0.5505 -0.9893 -0.1948
  177SOPE  H16S20171   3.019   5.101   9.149  1.0271 -1.5408 -0.0525
  177SOPE  C21720172   2.843   5.177   9.062 -0.8556  0.1213 -0.2440
  177SOPE  H17R20173   2.798   5.187   9.163 -1.8064  1.8180 -0.7803
  177SOPE  H17S20174   2.762   5.139   8.996  0.5375 -1.6205 -1.0177
  177SOPE  C21820175   2.885   5.316   9.012 -0.2438 -0.4364  0.2821
  177SOPE  H18R20176   2.968   5.354   9.075  0.3716 -1.9331  0.4224
  177SOPE  H18S20177   2.801   5.387   8.996 -0.3568 -0.6619 -0.1499
  177SOPE  H18T20178   2.929   5.302   8.911 -0.2823 -0.7927  0.3150
  177SOPE   C3320179   4.249   4.419  10.472 -0.4918  0.1131 -0.2852
  177SOPE   H3X20180   4.183   4.349  10.417  0.0228  0.8308 -1.8803
  177SOPE   H3Y20181   4.287   4.369  10.563  1.9064  1.4455 -0.4625
  177SOPE   C3420182   4.380   4.461  10.404 -0.4387  0.1676  0.0525
  177SOPE   H4X20183   4.437   4.367  10.389  1.0050  1.0983 -0.5730
  177SOPE   H4Y20184   4.441   4.526  10.470  1.2318 -0.3857 -0.8735
  177SOPE   C3520185   4.346   4.534  10.273  1.0110  0.7869 -0.0178
  177SOPE   H5X20186   4.293   4.627  10.302 -1.3623 -0.3925 -0.3242
  177SOPE   H5Y20187   4.268   4.479  10.214  0.7336 -0.9071  1.8176
  177SOPE   C3620188   4.465   4.572  10.193  0.2856 -0.2175  0.0800
  177SOPE   H6X20189   4.520   4.480  10.164 -2.4920 -1.6506 -1.0448
  177SOPE   H6Y20190   4.534   4.638  10.249 -1.9204  3.4983 -1.2449
  177SOPE   C3720191   4.422   4.662  10.068 -0.3226  0.2525 -0.2219
  177SOPE   H7X20192   4.387   4.757  10.114 -1.8489 -0.1788 -0.4252
  177SOPE   H7Y20193   4.351   4.598  10.011 -0.0099  0.2429 -0.6059
  177SOPE   C3820194   4.544   4.695   9.976 -0.0082  0.6386 -0.1863
  177SOPE   H8X20195   4.592   4.600   9.945 -1.1170 -0.0458  0.1017
  177SOPE   H8Y20196   4.614   4.758  10.033  0.1794  0.6361 -0.4120
  177SOPE   C3920197   4.506   4.769   9.853  0.2075 -0.3285 -0.0124
  177SOPE   H9X20198   4.595   4.831   9.832 -0.1494 -0.2125 -1.3180
  177SOPE   H9Y20199   4.423   4.842   9.865  1.4349  1.3581 -1.3027
  177SOPE  C31020200   4.490   4.688   9.723 -0.1647  0.0400 -0.7016
  177SOPE  H10X20201   4.440   4.591   9.745  2.0124 -0.8591  0.6093
  177SOPE  H10Y20202   4.591   4.669   9.681  1.4536  1.3516  2.2261
  177SOPE  C31120203   4.418   4.747   9.614  0.0083 -0.2577  0.3999
  177SOPE  H11X20204   4.339   4.817   9.650  1.5772  0.1832  3.3048
  177SOPE  H11Y20205   4.374   4.682   9.536 -2.9287  1.8062  0.1406
  177SOPE  C31220206   4.504   4.843   9.526  1.0652 -0.2556  0.3525
  177SOPE  H12X20207   4.578   4.776   9.476  1.7746 -0.7055  1.9355
  177SOPE  H12Y20208   4.547   4.924   9.588 -0.8155  1.5730 -0.6189
  177SOPE  C31320209   4.410   4.920   9.426 -0.4202 -0.5554 -0.7763
  177SOPE  H13X20210   4.475   5.002   9.388  0.0648 -0.6880 -0.2475
  177SOPE  H13Y20211   4.324   4.962   9.480 -1.9775 -2.1831 -1.8756
  177SOPE  C31420212   4.359   4.838   9.304  0.1717  0.2073 -0.0448
  177SOPE  H14X20213   4.282   4.761   9.325  1.4191 -1.1078 -0.1423
  177SOPE  H14Y20214   4.449   4.794   9.256 -0.6476 -0.5483 -0.9305
  177SOPE  C31520215   4.285   4.915   9.192 -0.2486  0.2230 -0.1688
  177SOPE  H15X20216   4.349   4.999   9.157 -0.6458  0.0965 -1.2418
  177SOPE  H15Y20217   4.186   4.943   9.234 -0.5565 -0.1453 -0.6378
  177SOPE  C31620218   4.255   4.824   9.074  0.0777  0.8841 -0.1573
  177SOPE  H16X20219   4.193   4.742   9.115 -1.6539  1.4555 -1.5253
  177SOPE  H16Y20220   4.342   4.776   9.025 -2.2393 -2.0744 -1.6959
  177SOPE  C31720221   4.173   4.894   8.962  0.6331 -1.3541 -0.5845
  177SOPE  H17X20222   4.232   4.985   8.937 -0.5928  0.1745  1.7081
  177SOPE  H17Y20223   4.081   4.931   9.012  0.6638 -1.8976 -0.1112
  177SOPE  C31820224   4.139   4.802   8.849 -0.7171  0.1166 -0.1716
  177SOPE  H18X20225   4.240   4.776   8.811  0.1113  0.1061  1.9168
  177SOPE  H18Y20226   4.075   4.852   8.773 -0.1950 -0.8721 -1.3158
  177SOPE  H18Z20227   4.098   4.710   8.896 -2.5557  0.9740 -0.0516
  178SOPE     N20228   1.481   1.844  11.066  0.2075  0.2060  0.3110
  178SOPE   HN120229   1.558   1.795  11.017 -0.5739  0.6740 -1.4363
  178SOPE   HN220230   1.426   1.770  11.113  1.1546 -1.3464 -0.9146
  178SOPE   HN320231   1.432   1.895  10.990  0.1542  1.4348  1.1367
  178SOPE   C1220232   1.536   1.947  11.153 -0.8951  0.8395  0.4213
  178SOPE  H12A20233   1.636   1.973  11.111 -0.6963 -0.5436 -0.0007
  178SOPE  H12B20234   1.547   1.911  11.257 -0.8316 -1.8570 -0.4493
  178SOPE   C1120235   1.447   2.070  11.158 -0.3732 -0.8936  0.2200
  178SOPE  H11A20236   1.470   2.127  11.250  0.7251  0.8532 -1.0835
  178SOPE  H11B20237   1.341   2.038  11.162 -0.4936 -0.3817  1.1484
  178SOPE     P20238   1.386   2.155  10.920  0.3242  0.1962 -0.2392
  178SOPE   O1320239   1.257   2.225  10.937 -0.7473 -0.1094  0.0334
  178SOPE   O1420240   1.372   2.016  10.886 -0.2373 -0.3006  0.7883
  178SOPE   O1220241   1.468   2.158  11.053  0.5567 -0.2526 -0.1424
  178SOPE   O1120242   1.473   2.232  10.820 -0.2717  0.3904  0.2450
  178SOPE    C120243   1.610   2.202  10.790  0.3368  0.8554 -0.3517
  178SOPE    HA20244   1.638   2.101  10.826  0.3677  1.3949  1.1955
  178SOPE    HB20245   1.673   2.274  10.847  0.2987  2.3274 -2.0644
  178SOPE    C220246   1.640   2.226  10.639  0.1079 -0.3432 -0.1964
  178SOPE    HS20247   1.617   2.331  10.612  1.9172  0.3122  0.5947
  178SOPE   O2120248   1.561   2.129  10.568  0.5400 -0.2636 -0.3158
  178SOPE   C2120249   1.441   2.188  10.539  0.2623 -0.3773 -0.5892
  178SOPE   O2220250   1.408   2.305  10.544 -0.2055 -0.1012  0.1231
  178SOPE   C2220251   1.349   2.074  10.495 -0.1855  0.4813 -0.4206
  178SOPE   H2R20252   1.241   2.103  10.497  0.3189  2.6197  2.4330
  178SOPE   H2S20253   1.351   1.995  10.573  1.0351 -0.2862 -1.1857
  178SOPE    C320254   1.786   2.205  10.609 -0.1966 -0.3050  0.1747
  178SOPE    HX20255   1.829   2.106  10.636  1.6056  0.4539  0.2636
  178SOPE    HY20256   1.826   2.279  10.681  1.1621 -0.2279 -0.6167
  178SOPE   O3120257   1.812   2.247  10.477 -0.0804 -0.2400 -0.1070
  178SOPE   C3120258   1.809   2.160  10.383 -0.4355  0.2454  0.2077
  178SOPE   O3220259   1.783   2.040  10.398 -0.2616  0.1056 -0.7780
  178SOPE   C3220260   1.831   2.228  10.246  0.2406 -0.9324 -0.1943
  178SOPE   H2X20261   1.877   2.329  10.254  0.1681 -0.9455  0.5125
  178SOPE   H2Y20262   1.727   2.236  10.208 -0.4953 -1.6363  1.5122
  178SOPE   C2320263   1.400   2.007  10.365  0.0917 -0.7798  0.3400
  178SOPE   H3R20264   1.334   1.920  10.346  0.6205 -1.2727  0.7408
  178SOPE   H3S20265   1.503   1.968  10.380  0.0203 -0.1864  2.7495
  178SOPE   C2420266   1.383   2.096  10.235 -0.8239  0.5795  0.0413
  178SOPE   H4R20267   1.280   2.137  10.234 -1.2246 -0.4012 -0.2862
  178SOPE   H4S20268   1.440   2.191  10.235  1.7755 -0.8733  0.5183
  178SOPE   C2520269   1.423   2.019  10.113  0.0314 -0.5073 -0.6347
  178SOPE   H5R20270   1.432   1.911  10.134 -1.1422 -0.4239  0.3255
  178SOPE   H5S20271   1.334   2.019  10.047  0.1427 -2.3726 -0.8319
  178SOPE   C2620272   1.549   2.072  10.041  0.4767  0.2749 -0.1610
  178SOPE   H6R20273   1.554   2.182  10.034  1.2687  0.1169 -3.6172
  178SOPE   H6S20274   1.638   2.053  10.104 -0.5215  0.9400  1.5139
  178SOPE   C2720275   1.571   1.999   9.907 -0.5307 -0.0755  0.9234
  178SOPE   H7R20276   1.679   1.979   9.886 -0.9862 -0.2577 -1.5876
  178SOPE   H7S20277   1.527   1.897   9.919 -0.0298 -0.3306  0.6540
  178SOPE   C2820278   1.504   2.069   9.787 -0.1648 -0.8536  0.3389
  178SOPE   H8R20279   1.394   2.072   9.804 -0.3654 -2.6633 -0.4883
  178SOPE   H8S20280   1.534   2.176   9.781 -1.8274 -0.2646  1.6559
  178SOPE   C2920281   1.538   2.006   9.655  0.0338 -0.0875 -0.3112
  178SOPE   H9120282   1.505   1.901   9.656  0.0571 -0.0929 -0.0547
  178SOPE  C21020283   1.602   2.060   9.541 -0.9993  0.3115  0.4945
  178SOPE  H10120284   1.604   1.999   9.449 -0.8225  0.7024  0.2338
  178SOPE  C21120285   1.658   2.195   9.504 -0.2480  0.0458 -0.2685
  178SOPE  H11R20286   1.769   2.185   9.509 -0.0554  2.0533  0.1988
  178SOPE  H11S20287   1.638   2.271   9.582  2.2849  0.8473 -0.3059
  178SOPE  C21220288   1.621   2.233   9.365  0.6629 -0.3098  0.2774
  178SOPE  H12R20289   1.679   2.324   9.339  0.8382  0.0100  1.6626
  178SOPE  H12S20290   1.513   2.257   9.354  0.8899  0.6374  0.0251
  178SOPE  C21320291   1.664   2.124   9.258  0.0056 -0.2665  0.4348
  178SOPE  H13R20292   1.578   2.055   9.247 -1.7599  1.8404  0.0868
  178SOPE  H13S20293   1.759   2.073   9.282 -0.9265 -1.6084  1.3872
  178SOPE  C21420294   1.682   2.181   9.126 -0.8661 -0.3697 -0.2195
  178SOPE  H14R20295   1.602   2.250   9.091  0.8684  1.5871 -0.5324
  178SOPE  H14S20296   1.708   2.102   9.052 -1.1826 -0.0475 -0.6848
  178SOPE  C21520297   1.821   2.253   9.124 -0.3864  0.1273  0.0654
  178SOPE  H15R20298   1.895   2.175   9.152 -3.5091 -3.3277 -0.6290
  178SOPE  H15S20299   1.825   2.338   9.196 -1.0849  1.3639 -1.3179
  178SOPE  C21620300   1.848   2.308   8.988  0.4688  0.1552 -0.5208
  178SOPE  H16R20301   1.837   2.417   9.005 -2.4249 -0.0415 -0.6034
  178SOPE  H16S20302   1.761   2.273   8.929 -0.1175 -2.5287  1.7259
  178SOPE  C21720303   1.966   2.243   8.916  0.0636  0.6052 -0.0944
  178SOPE  H17R20304   1.940   2.136   8.900 -1.4529  1.2640 -2.5789
  178SOPE  H17S20305   2.057   2.248   8.979 -0.7848  0.4300  1.1794
  178SOPE  C21820306   2.002   2.298   8.780  0.0638  0.3125  0.0911
  178SOPE  H18R20307   2.069   2.387   8.780  1.4819 -0.7042 -1.4713
  178SOPE  H18S20308   1.908   2.316   8.725  0.9349 -0.0003 -1.5631
  178SOPE  H18T20309   2.061   2.231   8.713  0.0006 -0.0515  0.3964
  178SOPE   C3320310   1.917   2.131  10.154 -0.3314 -0.1311  0.4514
  178SOPE   H3X20311   1.887   2.024  10.159 -0.7041 -0.1450 -1.4400
  178SOPE   H3Y20312   2.024   2.145  10.179  0.2721 -0.4815 -1.7193
  178SOPE   C3420313   1.919   2.180  10.008 -0.3892  0.1478 -0.3581
  178SOPE   H4X20314   1.824   2.213   9.961 -0.0445  2.2046  0.2863
  178SOPE   H4Y20315   1.936   2.090   9.945 -1.7324 -0.6369  0.3307
  178SOPE   C3520316   2.020   2.290   9.981  0.8265 -0.3067 -0.5292
  178SOPE   H5X20317   2.114   2.236  10.004  1.4571  0.9112 -0.2034
  178SOPE   H5Y20318   2.009   2.365  10.062 -2.3703 -0.6811 -0.4825
  178SOPE   C3620319   2.018   2.356   9.837  0.0008  0.5921 -0.6486
  178SOPE   H6X20320   2.110   2.409   9.806 -0.7955  1.2425 -2.0094
  178SOPE   H6Y20321   1.927   2.421   9.840  0.5858  1.3936  0.6780
  178SOPE   C3720322   2.001   2.257   9.721  0.2230 -0.3032 -0.4404
  178SOPE   H7X20323   2.013   2.309   9.624  0.0114  0.6160  0.0133
  178SOPE   H7Y20324   1.896   2.220   9.726 -0.4832  1.6775  0.3487
  178SOPE   C3820325   2.092   2.138   9.720  0.5615 -0.3888 -0.3327
  178SOPE   H8X20326   2.084   2.073   9.810  3.1073 -1.7005 -0.9490
  178SOPE   H8Y20327   2.199   2.164   9.704  0.5905 -1.7272 -2.7658
  178SOPE   C3920328   2.046   2.048   9.603  0.0026  0.6720 -0.7060
  178SOPE   H9X20329   1.936   2.052   9.590 -0.3718 -1.2910  1.2251
  178SOPE   H9Y20330   2.070   1.942   9.625  0.0259  0.9980  1.0111
  178SOPE  C31020331   2.118   2.076   9.462 -0.2133 -0.0057 -0.6763
  178SOPE  H10X20332   2.224   2.069   9.495 -0.9326 -0.2165  1.7892
  178SOPE  H10Y20333   2.108   2.184   9.436 -1.3730  0.6238  2.0759
  178SOPE  C31120334   2.073   1.985   9.350 -0.4082 -0.5974  0.6440
  178SOPE  H11X20335   1.965   1.991   9.326 -0.1688 -3.1957 -1.5740
  178SOPE  H11Y20336   2.094   1.879   9.379  0.7585 -0.2786  1.0183
  178SOPE  C31220337   2.159   2.011   9.227 -0.6890 -0.4187  0.0011
  178SOPE  H12X20338   2.263   1.983   9.252 -0.2689  1.5077  0.5872
  178SOPE  H12Y20339   2.168   2.118   9.199  1.1731 -1.2665 -3.0778
  178SOPE  C31320340   2.133   1.911   9.113  0.3956  0.6895 -0.0868
  178SOPE  H13X20341   2.029   1.928   9.080  1.4140  1.4725 -3.1641
  178SOPE  H13Y20342   2.133   1.806   9.152 -2.2802  1.0096  1.0479
  178SOPE  C31420343   2.227   1.922   8.994 -0.6604  0.2223  0.0123
  178SOPE  H14X20344   2.213   2.029   8.968 -2.0302  0.1000  0.1954
  178SOPE  H14Y20345   2.185   1.852   8.919  0.9118 -0.9566  0.1784
  178SOPE  C31520346   2.373   1.887   9.026 -0.0113 -0.3327  0.1426
  178SOPE  H15X20347   2.366   1.789   9.076 -1.4747  0.3299  1.3261
  178SOPE  H15Y20348   2.413   1.965   9.095  2.4747 -0.1749 -1.3490
  178SOPE  C31620349   2.465   1.881   8.903  0.2135 -0.2710  0.2929
  178SOPE  H16X20350   2.558   1.856   8.958 -0.8255  1.0304  2.7764
  178SOPE  H16Y20351   2.474   1.972   8.841 -0.2995 -1.2027 -1.2230
  178SOPE  C31720352   2.411   1.766   8.803  0.3557  0.1473 -0.1249
  178SOPE  H17X20353   2.335   1.801   8.731  0.8216 -0.6825 -1.0404
  178SOPE  H17Y20354   2.371   1.678   8.859  0.5940  0.4753  0.5769
  178SOPE  C31820355   2.528   1.718   8.713 -0.6478  0.0062  0.9151
  178SOPE  H18X20356   2.489   1.628   8.660  1.6868 -1.3012  1.2417
  178SOPE  H18Y20357   2.620   1.689   8.768 -0.6916 -3.0143 -0.3856
  178SOPE  H18Z20358   2.555   1.800   8.644 -1.5015 -0.7569 -0.3627
  179SOPE     N20359   0.350   4.600   6.513  0.0388  0.7101  0.0139
  179SOPE   HN120360   0.288   4.584   6.431 -1.9374  0.4793  1.4610
  179SOPE   HN220361   0.450   4.604   6.487  0.0554 -0.4808 -0.1567
  179SOPE   HN320362   0.325   4.533   6.588 -0.1583  1.6326  0.7987
  179SOPE   C1220363   0.326   4.734   6.580 -0.5699 -0.2954 -0.5545
  179SOPE  H12A20364   0.343   4.722   6.689 -0.9181 -0.9765 -0.5705
  179SOPE  H12B20365   0.219   4.761   6.568 -0.2341  2.1889  1.2632
  179SOPE   C1120366   0.408   4.848   6.515  0.3323 -0.0947  0.0969
  179SOPE  H11A20367   0.369   4.943   6.557  0.4927  0.3466 -0.7265
  179SOPE  H11B20368   0.393   4.850   6.405  1.8105 -2.2741 -0.2151
  179SOPE     P20369   0.649   4.766   6.445  0.0644 -0.1819  0.0928
  179SOPE   O1320370   0.714   4.849   6.342  0.7589 -0.3039  0.7634
  179SOPE   O1420371   0.583   4.644   6.394 -0.5434 -0.0309 -0.1494
  179SOPE   O1220372   0.547   4.844   6.536  0.4788  0.6461  0.3561
  179SOPE   O1120373   0.756   4.732   6.550 -0.3572 -0.4024  0.4361
  179SOPE    C120374   0.710   4.636   6.653 -0.0045  0.6165  0.5812
  179SOPE    HA20375   0.725   4.536   6.607  0.6040  1.1329 -0.3629
  179SOPE    HB20376   0.605   4.646   6.689  0.3011  1.9772  1.1723
  179SOPE    C220377   0.784   4.640   6.791 -0.0300  0.3170 -0.1147
  179SOPE    HS20378   0.736   4.575   6.867 -0.7821  1.7164  0.6532
  179SOPE   O2120379   0.778   4.784   6.832 -0.4131  0.2201 -0.2884
  179SOPE   C2120380   0.669   4.816   6.898  0.1645 -0.1858  0.1084
  179SOPE   O2220381   0.578   4.738   6.931 -0.2571  0.0065 -0.1893
  179SOPE   C2220382   0.690   4.963   6.940  0.1455  0.4169 -0.0820
  179SOPE   H2R20383   0.708   5.026   6.850 -2.0367  2.9799  1.1142
  179SOPE   H2S20384   0.778   4.963   7.008  0.5500  0.6867 -0.5873
  179SOPE    C320385   0.935   4.602   6.791  0.0029 -0.1726  0.7539
  179SOPE    HX20386   0.972   4.666   6.709 -0.9998 -0.3372  0.1557
  179SOPE    HY20387   0.933   4.495   6.762  1.4736 -0.9922  3.3446
  179SOPE   O3120388   1.000   4.604   6.919 -0.5948  0.3554 -0.1951
  179SOPE   C3120389   1.055   4.713   6.963 -0.2858 -0.7118 -0.1499
  179SOPE   O3220390   1.055   4.820   6.905 -0.4778 -0.3019  0.1889
  179SOPE   C3220391   1.118   4.683   7.097  0.4987 -0.2094  0.4136
  179SOPE   H2X20392   1.194   4.757   7.129  0.6292 -1.1104  2.3027
  179SOPE   H2Y20393   1.180   4.590   7.097  1.5167  0.4581  0.7100
  179SOPE   C2320394   0.572   5.016   7.026  0.3172  0.9386 -0.8223
  179SOPE   H3R20395   0.478   4.958   7.010  1.8054 -2.2609  1.0052
  179SOPE   H3S20396   0.542   5.114   6.982  0.1518 -0.2595 -3.5443
  179SOPE   C2420397   0.589   5.031   7.177  0.4031 -0.8507 -0.1705
  179SOPE   H4R20398   0.596   4.937   7.234  1.3699  0.1372  1.4207
  179SOPE   H4S20399   0.680   5.081   7.215 -0.9622  0.6275  1.3432
  179SOPE   C2520400   0.467   5.116   7.227 -0.4619  0.2044  0.6672
  179SOPE   H5R20401   0.483   5.225   7.220 -1.3565  0.2829 -0.6488
  179SOPE   H5S20402   0.378   5.090   7.165  0.5738  2.4989 -1.9681
  179SOPE   C2620403   0.428   5.102   7.374  0.9306  0.1136  0.5107
  179SOPE   H6R20404   0.517   5.127   7.436  0.6194 -2.4172  2.1627
  179SOPE   H6S20405   0.348   5.177   7.393  0.6675  0.0815 -0.4325
  179SOPE   C2720406   0.370   4.961   7.407 -0.4029  0.8619  0.0343
  179SOPE   H7R20407   0.284   4.955   7.337  0.5064  0.9978 -1.1289
  179SOPE   H7S20408   0.439   4.876   7.389 -2.4246 -1.1214  1.0562
  179SOPE   C2820409   0.315   4.960   7.549 -0.1645 -0.5994 -0.7727
  179SOPE   H8R20410   0.245   5.045   7.555  0.7467  0.3564 -2.6495
  179SOPE   H8S20411   0.256   4.870   7.575 -1.8636  0.6451 -0.2126
  179SOPE   C2920412   0.432   4.985   7.639 -1.0279 -0.7891  0.1798
  179SOPE   H9120413   0.525   4.941   7.599  1.1191  1.9548  1.7611
  179SOPE  C21020414   0.442   5.063   7.754  0.2091  0.0135  0.5891
  179SOPE  H10120415   0.534   5.060   7.814 -0.3534 -0.6400  1.4451
  179SOPE  C21120416   0.326   5.133   7.822 -0.1623  0.0254  0.3177
  179SOPE  H11R20417   0.237   5.113   7.759  0.6812  1.0638 -1.2637
  179SOPE  H11S20418   0.334   5.243   7.818 -1.2483  0.1797  1.7907
  179SOPE  C21220419   0.310   5.081   7.965  0.1689  0.0741 -1.2229
  179SOPE  H12R20420   0.309   4.970   7.970  0.8663  0.1106  0.2546
  179SOPE  H12S20421   0.211   5.121   7.994 -0.1659 -0.2914 -1.8249
  179SOPE  C21320422   0.419   5.125   8.062  0.2968  0.6622 -0.6350
  179SOPE  H13R20423   0.471   5.214   8.020 -0.2083  0.6107 -1.3791
  179SOPE  H13S20424   0.502   5.051   8.070  0.3309  0.8195  0.7998
  179SOPE  C21420425   0.377   5.155   8.205 -0.6424  0.1557  0.2974
  179SOPE  H14R20426   0.298   5.234   8.205  1.9242  2.9284  1.7945
  179SOPE  H14S20427   0.462   5.215   8.244  0.5617 -0.2520 -1.6210
  179SOPE  C21520428   0.342   5.039   8.299 -0.0246 -0.8961  0.0416
  179SOPE  H15R20429   0.244   4.999   8.267  0.8400 -1.9500 -1.4498
  179SOPE  H15S20430   0.342   5.069   8.406 -0.1398 -0.4656 -0.0808
  179SOPE  C21620431   0.450   4.929   8.287 -0.7509  0.2549  0.0864
  179SOPE  H16R20432   0.550   4.975   8.303  0.0557 -1.0042 -1.0598
  179SOPE  H16S20433   0.439   4.880   8.188 -1.6624  1.1671 -0.2846
  179SOPE  C21720434   0.433   4.829   8.399  0.2318 -0.1406  0.1723
  179SOPE  H17R20435   0.463   4.891   8.487 -1.4223  0.5106  0.3087
  179SOPE  H17S20436   0.501   4.741   8.401 -1.4958 -1.5316 -0.5266
  179SOPE  C21820437   0.292   4.764   8.405  0.0895 -0.1261 -0.3917
  179SOPE  H18R20438   0.290   4.695   8.492  0.2947 -1.2249 -1.2331
  179SOPE  H18S20439   0.277   4.696   8.319 -0.8395 -0.5688  0.1057
  179SOPE  H18T20440   0.206   4.834   8.407  0.1498  0.0360 -2.2292
  179SOPE   C3320441   1.011   4.677   7.216 -0.3145  0.2606  0.4438
  179SOPE   H3X20442   1.050   4.610   7.296 -0.6897 -2.6401 -1.6392
  179SOPE   H3Y20443   0.916   4.629   7.184  0.5670 -1.0011 -0.3657
  179SOPE   C3420444   0.979   4.812   7.278  0.8462  0.2814  0.1722
  179SOPE   H4X20445   0.953   4.886   7.199  0.1288  0.0748  0.2030
  179SOPE   H4Y20446   1.071   4.849   7.328  2.3353 -1.0643 -1.4953
  179SOPE   C3520447   0.864   4.790   7.382  0.2786 -0.0321 -0.2677
  179SOPE   H5X20448   0.871   4.689   7.426  1.7181 -0.7592 -2.0445
  179SOPE   H5Y20449   0.774   4.784   7.317 -0.3691  0.1325  0.5831
  179SOPE   C3620450   0.852   4.901   7.487 -0.3750 -0.0759  0.2803
  179SOPE   H6X20451   0.758   4.958   7.469 -0.4847  0.3750  2.1110
  179SOPE   H6Y20452   0.931   4.979   7.484  0.3147 -0.6581  1.9358
  179SOPE   C3720453   0.855   4.849   7.630 -0.2112 -0.2852 -0.3830
  179SOPE   H7X20454   0.949   4.792   7.648 -0.0573  0.1821  0.3327
  179SOPE   H7Y20455   0.773   4.775   7.645  0.0105 -0.4229  0.1903
  179SOPE   C3820456   0.842   4.959   7.732 -0.5260  0.0562 -0.3077
  179SOPE   H8X20457   0.736   4.994   7.729 -0.4462  0.2359 -1.6072
  179SOPE   H8Y20458   0.906   5.046   7.705  0.1021 -0.7254 -1.4244
  179SOPE   C3920459   0.863   4.916   7.885 -0.0097  0.2994 -0.0133
  179SOPE   H9X20460   0.963   4.870   7.900 -1.5335 -2.7988  1.7525
  179SOPE   H9Y20461   0.788   4.837   7.906 -0.5658  1.3249  2.1742
  179SOPE  C31020462   0.855   5.023   7.982 -0.1164 -0.7829 -0.2985
  179SOPE  H10X20463   0.750   5.056   7.996  0.1693 -0.4968  1.4608
  179SOPE  H10Y20464   0.912   5.112   7.948 -2.2338  0.0518 -1.8319
  179SOPE  C31120465   0.908   4.975   8.123  0.0404 -0.0130 -0.0230
  179SOPE  H11X20466   1.018   4.958   8.120 -0.0670 -0.6164 -1.1033
  179SOPE  H11Y20467   0.874   4.871   8.137 -0.6539  0.3352  1.0027
  179SOPE  C31220468   0.884   5.073   8.238  0.1046 -0.3988 -0.0272
  179SOPE  H12X20469   0.785   5.119   8.260  1.1054  1.8646 -0.0199
  179SOPE  H12Y20470   0.962   5.151   8.231  0.0859 -0.4887 -1.4927
  179SOPE  C31320471   0.913   5.019   8.378 -0.1013 -0.3191  0.0107
  179SOPE  H13X20472   0.997   4.947   8.367 -1.0461 -1.3201 -0.9169
  179SOPE  H13Y20473   0.824   4.962   8.413  0.2292 -0.2052  1.0947
  179SOPE  C31420474   0.927   5.129   8.482 -0.5219  1.0213 -0.1302
  179SOPE  H14X20475   0.840   5.194   8.458 -1.0311  0.3578 -0.0995
  179SOPE  H14Y20476   1.028   5.170   8.462  0.5982 -1.7800 -0.6485
  179SOPE  C31520477   0.920   5.101   8.635 -0.4902 -0.2723  0.3048
  179SOPE  H15X20478   0.937   5.203   8.676  0.6954 -0.7498  1.0476
  179SOPE  H15Y20479   1.005   5.041   8.673 -2.2035 -1.3700  2.6980
  179SOPE  C31620480   0.796   5.038   8.688  0.0998  0.0433  0.1468
  179SOPE  H16X20481   0.799   4.931   8.656 -1.5002  0.8643 -3.1968
  179SOPE  H16Y20482   0.700   5.074   8.645  1.1935  3.2853  0.1964
  179SOPE  C31720483   0.787   5.052   8.843  0.5474 -0.1915  0.3534
  179SOPE  H17X20484   0.686   5.016   8.871  0.7784 -1.0295  0.1175
  179SOPE  H17Y20485   0.770   5.161   8.858 -0.8361  0.2147 -3.1393
  179SOPE  C31820486   0.904   4.994   8.923  0.1496  0.2729 -0.2227
  179SOPE  H18X20487   0.937   4.904   8.866  1.2214  0.5573 -0.0801
  179SOPE  H18Y20488   0.865   4.964   9.023 -0.0451  0.2729 -0.2994
  179SOPE  H18Z20489   0.987   5.067   8.936 -0.5722  1.6798 -2.8599
  180SOPE     N20490   6.326   6.089   6.190  0.0731  0.1158  0.1934
  180SOPE   HN120491   6.239   6.084   6.247 -0.9165  2.2576 -1.0084
  180SOPE   HN220492   6.296   6.124   6.096  0.8860  1.6211  0.4652
  180SOPE   HN320493   6.360   5.992   6.172 -1.6528 -0.6116  0.6194
  180SOPE   C1220494   6.434   6.170   6.258  0.9503 -0.2720  0.8890
  180SOPE  H12A20495   6.391   6.265   6.294  0.2742 -0.2766  0.1158
  180SOPE  H12B20496   6.519   6.189   6.189  0.6680  2.1760  1.1233
  180SOPE   C1120497   6.490   6.082   6.369  0.4098 -0.0405  0.1144
  180SOPE  H11A20498   6.406   6.064   6.439  1.2906 -0.0242  1.2023
  180SOPE  H11B20499   6.560   6.134   6.437  0.6072 -1.6402  1.1827
  180SOPE     P20500   6.628   5.862   6.377 -0.0461 -0.1585 -0.0552
  180SOPE   O1320501   6.734   5.833   6.279 -0.1168 -0.1691 -0.0293
  180SOPE   O1420502   6.562   5.743   6.435  0.8781 -0.1651  0.0233
  180SOPE   O1220503   6.536   5.960   6.308  0.3280 -0.3203 -0.1817
  180SOPE   O1120504   6.690   5.931   6.507  0.2678  0.1908  0.5357
  180SOPE    C120505   6.803   5.859   6.575 -0.2500 -1.0330  0.2572
  180SOPE    HA20506   6.876   5.940   6.598 -0.2110 -0.6193 -1.1846
  180SOPE    HB20507   6.862   5.785   6.516 -0.3881 -1.2423  0.3835
  180SOPE    C220508   6.772   5.788   6.706  0.4923  0.4450  0.0137
  180SOPE    HS20509   6.677   5.732   6.709  0.1841  0.9837  0.7391
  180SOPE   O2120510   6.753   5.885   6.807 -0.2290 -0.6430  0.2366
  180SOPE   C2120511   6.707   5.841   6.921 -0.4043 -0.5324  0.1080
  180SOPE   O2220512   6.656   5.734   6.946 -0.1057 -0.1551 -0.2863
  180SOPE   C2220513   6.750   5.953   7.024 -0.2750 -0.1070 -0.3104
  180SOPE   H2R20514   6.690   6.044   7.001  1.5413  0.9035 -1.2778
  180SOPE   H2S20515   6.857   5.971   6.999  0.0172 -0.7397  0.4391
  180SOPE    C320516   6.883   5.686   6.752 -0.1672  0.0482 -0.5213
  180SOPE    HX20517   6.899   5.624   6.662  0.6191 -0.4544 -0.0453
  180SOPE    HY20518   6.840   5.612   6.823 -1.7914 -0.7662 -2.2756
  180SOPE   O3120519   7.013   5.748   6.781 -0.3350 -0.3407 -0.2820
  180SOPE   C3120520   7.060   5.719   6.898  0.6133  0.3228  0.6335
  180SOPE   O3220521   7.002   5.654   6.982  0.1236 -0.3309  0.0401
  180SOPE   C3220522   7.196   5.788   6.916 -0.1724 -0.4992 -0.0220
  180SOPE   H2X20523   7.241   5.816   6.818  1.4737 -0.2298  0.7837
  180SOPE   H2Y20524   7.268   5.713   6.954  0.9009  0.4891 -0.0489
  180SOPE   C2320525   6.724   5.904   7.170  0.1223 -0.5461 -0.4800
  180SOPE   H3R20526   6.769   5.809   7.206 -0.0815  0.4289  2.5727
  180SOPE   H3S20527   6.620   5.888   7.203  0.3469  0.7506  0.9459
  180SOPE   C2420528   6.797   6.004   7.269  0.5289 -0.0208  0.4477
  180SOPE   H4R20529   6.900   6.027   7.235 -0.4714  2.5235 -1.1174
  180SOPE   H4S20530   6.738   6.098   7.262  0.1614 -0.1391  1.6195
  180SOPE   C2520531   6.800   5.961   7.414  0.5012  0.4957  0.2284
  180SOPE   H5R20532   6.874   5.879   7.419  2.6141  2.3426  1.1680
  180SOPE   H5S20533   6.856   6.033   7.478 -0.5934  0.0812  1.7045
  180SOPE   C2620534   6.665   5.922   7.488 -0.9433 -0.2264 -0.8096
  180SOPE   H6R20535   6.586   5.998   7.470 -2.5939 -0.5909  3.6379
  180SOPE   H6S20536   6.627   5.826   7.446  1.9973 -1.2485 -1.3724
  180SOPE   C2720537   6.685   5.929   7.643 -0.2195  0.5717  0.5832
  180SOPE   H7R20538   6.773   5.867   7.673  0.8859  1.6199 -0.3979
  180SOPE   H7S20539   6.723   6.031   7.662  2.6652 -0.2353 -0.2605
  180SOPE   C2820540   6.561   5.893   7.732 -0.9538 -0.0933 -0.2921
  180SOPE   H8R20541   6.586   5.946   7.826 -0.1062  1.5274 -1.3896
  180SOPE   H8S20542   6.465   5.940   7.704 -0.5305  0.7167 -0.3932
  180SOPE   C2920543   6.551   5.748   7.758 -1.2073 -0.1547 -0.0735
  180SOPE   H9120544   6.595   5.676   7.688 -0.7418  0.1139 -0.0572
  180SOPE  C21020545   6.480   5.700   7.860 -0.1478 -0.2118  0.2674
  180SOPE  H10120546   6.474   5.592   7.882  2.0975 -0.0977  1.7446
  180SOPE  C21120547   6.402   5.782   7.962 -0.3175  0.0313 -0.4235
  180SOPE  H11R20548   6.388   5.891   7.942  2.4686  0.6150  0.4429
  180SOPE  H11S20549   6.463   5.781   8.054  0.7908  1.5476 -1.0894
  180SOPE  C21220550   6.261   5.733   8.001  0.3735  0.0893 -0.7636
  180SOPE  H12R20551   6.247   5.624   8.012 -1.4831  0.4118  0.3767
  180SOPE  H12S20552   6.199   5.752   7.910 -0.2667  0.5282 -0.2390
  180SOPE  C21320553   6.202   5.796   8.127  0.3620  0.4522  0.1960
  180SOPE  H13R20554   6.180   5.902   8.101  1.6879  0.8483  0.5737
  180SOPE  H13S20555   6.277   5.789   8.209  0.0928  0.6743  0.4652
  180SOPE  C21420556   6.079   5.718   8.177 -0.2857  0.3921  0.3621
  180SOPE  H14R20557   6.097   5.608   8.175  1.1265  0.6148 -0.8820
  180SOPE  H14S20558   6.005   5.725   8.094 -0.2827 -0.9518  0.2181
  180SOPE  C21520559   6.029   5.764   8.312  0.3850  0.0243  0.1150
  180SOPE  H15R20560   6.004   5.872   8.311 -0.5181 -0.1642  0.7530
  180SOPE  H15S20561   6.116   5.746   8.379  0.2159 -1.3097 -0.0101
  180SOPE  C21620562   5.918   5.666   8.367 -0.4420  0.9571  0.2643
  180SOPE  H16R20563   5.967   5.569   8.343 -1.3907  0.2216  1.1870
  180SOPE  H16S20564   5.823   5.673   8.309 -0.8642  2.2002  1.0575
  180SOPE  C21720565   5.892   5.686   8.513  0.0195  1.0686 -0.3594
  180SOPE  H17R20566   5.840   5.781   8.536  0.9626  1.6940 -0.7369
  180SOPE  H17S20567   5.989   5.677   8.567 -0.9483 -1.0251  1.1919
  180SOPE  C21820568   5.811   5.580   8.593 -0.1632 -0.2178  0.6761
  180SOPE  H18R20569   5.714   5.554   8.546 -0.1743 -1.8464  1.5559
  180SOPE  H18S20570   5.785   5.620   8.693  0.6581  1.0172  0.4243
  180SOPE  H18T20571   5.866   5.484   8.592  0.3869  0.0404 -1.6741
  180SOPE   C3320572   7.190   5.910   7.008 -0.1466 -0.4135  0.2989
  180SOPE   H3X20573   7.112   5.980   6.970  1.6617  1.6128  0.2007
  180SOPE   H3Y20574   7.282   5.971   7.002 -0.9564  0.7355 -1.2475
  180SOPE   C3420575   7.159   5.876   7.157 -0.4337  0.2359 -0.4501
  180SOPE   H4X20576   7.227   5.792   7.183  0.4757  0.5439 -1.7467
  180SOPE   H4Y20577   7.053   5.843   7.165 -0.8403  1.4594 -0.5124
  180SOPE   C3520578   7.186   5.998   7.252  0.0499  0.5014 -0.6610
  180SOPE   H5X20579   7.118   6.083   7.229 -1.1330  0.1551  1.3036
  180SOPE   H5Y20580   7.281   6.048   7.224 -0.1897  1.0959 -0.4298
  180SOPE   C3620581   7.177   5.969   7.400 -0.1775  0.0320  0.2393
  180SOPE   H6X20582   7.106   5.886   7.425  0.6304 -0.7238  0.0778
  180SOPE   H6Y20583   7.142   6.059   7.454 -1.2648 -1.0156  1.3365
  180SOPE   C3720584   7.317   5.929   7.456  0.4867  0.2245  0.0652
  180SOPE   H7X20585   7.395   6.001   7.422  2.2479 -0.4260  2.4775
  180SOPE   H7Y20586   7.353   5.831   7.417 -0.8280 -0.0046 -0.6184
  180SOPE   C3820587   7.331   5.927   7.606 -0.6461 -0.0642 -0.2176
  180SOPE   H8X20588   7.291   6.024   7.642  1.0582  1.0905 -1.2838
  180SOPE   H8Y20589   7.440   5.915   7.622 -0.5945 -2.4549 -1.7341
  180SOPE   C3920590   7.264   5.810   7.679 -0.8403  0.2655 -0.4760
  180SOPE   H9X20591   7.322   5.727   7.634  1.1140  0.0201  2.2708
  180SOPE   H9Y20592   7.154   5.812   7.668 -0.8508  1.3014 -0.2661
  180SOPE  C31020593   7.309   5.804   7.829  0.2415 -0.3098 -0.1343
  180SOPE  H10X20594   7.268   5.900   7.866 -2.7757 -2.0607  1.4608
  180SOPE  H10Y20595   7.420   5.793   7.837  0.2006  0.0633  1.2665
  180SOPE  C31120596   7.228   5.695   7.898 -0.1962 -0.3499 -0.0293
  180SOPE  H11X20597   7.253   5.593   7.862 -0.4995 -0.2788 -0.4463
  180SOPE  H11Y20598   7.117   5.701   7.890 -0.4462 -3.6858 -0.5252
  180SOPE  C31220599   7.261   5.688   8.047  0.3547 -0.0548 -0.6445
  180SOPE  H12X20600   7.216   5.781   8.090  0.1634 -0.7994  0.8199
  180SOPE  H12Y20601   7.371   5.677   8.058  0.0549 -4.3450 -0.1757
  180SOPE  C31320602   7.208   5.563   8.115 -0.3501 -0.0661  0.5892
  180SOPE  H13X20603   7.222   5.468   8.058 -1.7806  0.2150 -0.2976
  180SOPE  H13Y20604   7.098   5.567   8.123 -0.3294 -0.2693  0.9817
  180SOPE  C31420605   7.250   5.538   8.260  0.5595  0.0009 -0.0222
  180SOPE  H14X20606   7.181   5.470   8.314 -0.4557 -0.9374 -2.3839
  180SOPE  H14Y20607   7.249   5.634   8.315 -2.5195  0.4681 -0.7347
  180SOPE  C31520608   7.394   5.477   8.258 -0.9519  0.4155  0.0813
  180SOPE  H15X20609   7.448   5.553   8.197  0.0458  0.2694  0.7570
  180SOPE  H15Y20610   7.411   5.384   8.200  0.7383  1.6180 -1.4683
  180SOPE  C31620611   7.462   5.465   8.393  0.0612 -0.6004  0.4773
  180SOPE  H16X20612   7.475   5.571   8.424  1.4950 -1.1249  1.8064
  180SOPE  H16Y20613   7.561   5.414   8.400  0.8382  0.7608 -0.1287
  180SOPE  C31720614   7.388   5.380   8.494 -0.1843 -0.5063 -0.0249
  180SOPE  H17X20615   7.399   5.273   8.467  0.4316 -0.0666 -1.6573
  180SOPE  H17Y20616   7.277   5.392   8.488 -0.4291 -2.2486  0.5865
  180SOPE  C31820617   7.420   5.403   8.647  0.0305 -0.8129 -0.5441
  180SOPE  H18X20618   7.519   5.353   8.663  0.6688  0.6303  0.1390
  180SOPE  H18Y20619   7.340   5.362   8.712 -0.1561 -1.4948 -1.1841
  180SOPE  H18Z20620   7.439   5.512   8.656  3.5062 -1.3677  0.2021
  181SOPE     N20621   5.990   1.793   6.364  0.3958  0.1636 -0.5270
  181SOPE   HN120622   6.077   1.794   6.421 -0.4544  0.1295  0.8161
  181SOPE   HN220623   5.927   1.869   6.396 -0.1301 -0.5664  0.2239
  181SOPE   HN320624   5.953   1.696   6.374  1.9608 -0.3202  1.1132
  181SOPE   C1220625   6.034   1.822   6.224  0.0420 -0.2010  0.0328
  181SOPE  H12A20626   6.106   1.743   6.194  0.5175 -0.1145  0.9111
  181SOPE  H12B20627   6.089   1.918   6.228  0.6052 -0.5311  0.3661
  181SOPE   C1120628   5.925   1.841   6.120  0.4648 -0.0774 -0.3163
  181SOPE  H11A20629   5.866   1.746   6.119  0.0813  0.1648 -0.8096
  181SOPE  H11B20630   5.974   1.852   6.021  0.7713 -2.0299 -0.4203
  181SOPE     P20631   5.840   2.090   6.117 -0.1772  0.1034  0.5233
  181SOPE   O1320632   5.744   2.122   6.008 -0.3840 -0.3017  0.2907
  181SOPE   O1420633   5.980   2.120   6.081  0.2251 -0.1007 -0.2770
  181SOPE   O1220634   5.832   1.945   6.164  0.4904 -0.4235  0.3758
  181SOPE   O1120635   5.807   2.164   6.248  0.7954  0.8292 -0.1230
  181SOPE    C120636   5.823   2.305   6.264  0.2376 -0.1312 -0.2779
  181SOPE    HA20637   5.768   2.358   6.184  0.9447  2.5572  0.8952
  181SOPE    HB20638   5.929   2.337   6.258  0.0657  0.3015 -1.0346
  181SOPE    C220639   5.771   2.355   6.409  0.6263  0.3974  0.7015
  181SOPE    HS20640   5.759   2.465   6.399 -0.0218  0.3972  1.3608
  181SOPE   O2120641   5.872   2.326   6.492 -0.4448 -0.0260  0.0435
  181SOPE   C2120642   5.974   2.410   6.502 -0.8024  0.1891 -0.8477
  181SOPE   O2220643   6.001   2.498   6.425 -0.5784 -0.1850  0.3914
  181SOPE   C2220644   6.052   2.370   6.631  0.0259  0.1564  0.5492
  181SOPE   H2R20645   6.145   2.319   6.596 -1.2302 -2.2382  0.4848
  181SOPE   H2S20646   5.990   2.295   6.685  0.3843 -1.2565 -0.8930
  181SOPE    C320647   5.640   2.289   6.463 -0.5939 -0.0299  0.5989
  181SOPE    HX20648   5.644   2.180   6.441  0.1035  0.3329 -1.2687
  181SOPE    HY20649   5.554   2.334   6.410 -2.9721 -2.9735  1.6527
  181SOPE   O3120650   5.611   2.316   6.602  0.6593 -0.3454  0.3145
  181SOPE   C3120651   5.683   2.237   6.687  0.2020 -0.1448  0.2784
  181SOPE   O3220652   5.745   2.140   6.650  0.2152 -0.0197 -0.0691
  181SOPE   C3220653   5.667   2.286   6.827 -0.6100  0.3351  0.4752
  181SOPE   H2X20654   5.561   2.306   6.857 -0.1185  2.1353  1.1057
  181SOPE   H2Y20655   5.714   2.386   6.828  1.0117 -0.3889 -0.4593
  181SOPE   C2320656   6.067   2.489   6.728 -0.1182 -0.2721 -0.1523
  181SOPE   H3R20657   5.982   2.560   6.733 -1.4022 -1.7552  0.1735
  181SOPE   H3S20658   6.161   2.545   6.708  0.5625  0.1637  3.4608
  181SOPE   C2420659   6.083   2.428   6.868 -0.0084 -0.6666 -0.0625
  181SOPE   H4R20660   6.005   2.351   6.887 -0.2301 -0.7683 -1.2636
  181SOPE   H4S20661   6.181   2.379   6.884  1.4736  2.1599  0.2337
  181SOPE   C2520662   6.065   2.536   6.973  0.4206 -0.8719 -0.5579
  181SOPE   H5R20663   6.127   2.620   6.935  0.8736 -2.0154 -2.4703
  181SOPE   H5S20664   5.957   2.559   6.965  0.7792  1.2763  0.0892
  181SOPE   C2620665   6.076   2.501   7.118 -1.0281  0.3431 -0.3095
  181SOPE   H6R20666   6.000   2.437   7.167 -0.6451  1.3661  1.7038
  181SOPE   H6S20667   6.152   2.420   7.123 -2.4555 -1.2600 -2.4830
  181SOPE   C2720668   6.119   2.625   7.201  0.1754  0.2093 -0.9293
  181SOPE   H7R20669   6.206   2.668   7.146  0.4731 -0.6274 -1.1306
  181SOPE   H7S20670   6.027   2.687   7.200 -0.1224  0.1932  3.9401
  181SOPE   C2820671   6.156   2.598   7.350 -0.1666 -0.0205 -0.0540
  181SOPE   H8R20672   6.063   2.550   7.387 -1.0153  1.9134  0.4147
  181SOPE   H8S20673   6.242   2.528   7.348 -0.4710 -0.3968 -0.0218
  181SOPE   C2920674   6.186   2.715   7.430 -0.1830 -0.6393 -0.8582
  181SOPE   H9120675   6.254   2.790   7.388 -0.2188  1.2155  2.0730
  181SOPE  C21020676   6.129   2.745   7.541 -0.1335  0.1864 -0.6336
  181SOPE  H10120677   6.173   2.835   7.588 -0.5463  0.2993 -0.4480
  181SOPE  C21120678   6.019   2.664   7.609 -0.1354 -0.3011 -0.3390
  181SOPE  H11R20679   6.074   2.594   7.676 -0.3167 -0.7396 -0.6481
  181SOPE  H11S20680   5.951   2.605   7.545  0.5415 -0.4446 -0.9384
  181SOPE  C21220681   5.929   2.757   7.689  0.6717  0.4341 -1.1548
  181SOPE  H12R20682   5.873   2.825   7.621  2.7439  2.0032 -1.3942
  181SOPE  H12S20683   5.987   2.825   7.755  1.3082 -0.5774 -0.6463
  181SOPE  C21320684   5.833   2.684   7.792  0.1416  0.2651 -0.8463
  181SOPE  H13R20685   5.763   2.615   7.740  0.5399 -2.1027  1.5338
  181SOPE  H13S20686   5.767   2.763   7.834 -2.6347 -0.9976 -2.5150
  181SOPE  C21420687   5.914   2.613   7.897 -0.1029  0.4244  0.2258
  181SOPE  H14R20688   5.967   2.694   7.951  0.1922  0.5560 -0.2509
  181SOPE  H14S20689   5.991   2.548   7.849 -1.2427 -0.7079 -0.1082
  181SOPE  C21520690   5.835   2.534   8.000 -0.2286 -0.1656 -0.2994
  181SOPE  H15R20691   5.911   2.477   8.057  2.3051  2.7912 -0.5071
  181SOPE  H15S20692   5.769   2.459   7.950  0.0928 -1.7140  1.5064
  181SOPE  C21620693   5.771   2.633   8.096 -0.4488  0.0010  0.3008
  181SOPE  H16R20694   5.679   2.681   8.054 -0.7200  0.3393  1.2558
  181SOPE  H16S20695   5.847   2.713   8.105  1.3501 -1.4490 -1.0932
  181SOPE  C21720696   5.732   2.575   8.231  0.7966 -0.1427 -0.7687
  181SOPE  H17R20697   5.817   2.518   8.275 -1.2186 -2.0716  0.8922
  181SOPE  H17S20698   5.648   2.503   8.219  0.3209  0.0786  0.9991
  181SOPE  C21820699   5.693   2.681   8.338  0.2567 -0.3624 -0.1438
  181SOPE  H18R20700   5.695   2.641   8.442 -0.3018  1.5340  0.6530
  181SOPE  H18S20701   5.595   2.733   8.326  0.0271 -1.1437 -1.8460
  181SOPE  H18T20702   5.773   2.758   8.347 -1.4443  1.3835  1.2466
  181SOPE   C3320703   5.743   2.196   6.928 -0.0395 -0.2912  0.1113
  181SOPE   H3X20704   5.845   2.182   6.886  1.3523 -2.9342  3.8584
  181SOPE   H3Y20705   5.706   2.091   6.936  1.1114 -0.6384  1.1861
  181SOPE   C3420706   5.739   2.256   7.068  0.3850 -0.5392 -0.4367
  181SOPE   H4X20707   5.759   2.365   7.081 -0.7469 -0.6150  2.4517
  181SOPE   H4Y20708   5.814   2.202   7.129  0.7163 -0.6339 -0.9218
  181SOPE   C3520709   5.597   2.231   7.134  0.0117  0.2152 -0.3841
  181SOPE   H5X20710   5.574   2.126   7.105  0.4929 -0.1543  0.5271
  181SOPE   H5Y20711   5.518   2.303   7.103  0.2341  0.9409  0.6780
  181SOPE   C3620712   5.595   2.232   7.284 -0.5036  0.4184 -0.0018
  181SOPE   H6X20713   5.634   2.333   7.309  1.9079 -0.1945 -0.9870
  181SOPE   H6Y20714   5.667   2.160   7.328 -0.3655 -0.0869 -1.0148
  181SOPE   C3720715   5.456   2.199   7.338 -0.5334  0.6150  0.1547
  181SOPE   H7X20716   5.439   2.095   7.304  1.4611 -0.2407  1.6018
  181SOPE   H7Y20717   5.382   2.267   7.290  0.1866  1.9899  0.9272
  181SOPE   C3820718   5.438   2.210   7.490  0.5487 -0.1314  0.3379
  181SOPE   H8X20719   5.528   2.162   7.535  1.6135 -1.0816 -2.5146
  181SOPE   H8Y20720   5.348   2.152   7.517 -0.3325  0.7757 -0.5726
  181SOPE   C3920721   5.419   2.350   7.538  0.1118 -0.0171  0.0169
  181SOPE   H9X20722   5.324   2.390   7.496  0.0452  1.1282  1.1924
  181SOPE   H9Y20723   5.501   2.417   7.506  0.9917 -0.3314  1.5070
  181SOPE  C31020724   5.407   2.358   7.692  0.5471  0.6047  0.2458
  181SOPE  H10X20725   5.313   2.316   7.735 -0.8843  1.0910 -2.1805
  181SOPE  H10Y20726   5.410   2.465   7.724 -1.8589  0.6366  0.5730
  181SOPE  C31120727   5.519   2.288   7.767 -0.5043 -0.2815 -0.0052
  181SOPE  H11X20728   5.618   2.323   7.731  0.4402 -0.9149  1.8190
  181SOPE  H11Y20729   5.521   2.177   7.759 -1.8444 -0.4188  1.1148
  181SOPE  C31220730   5.511   2.304   7.921 -0.4630 -0.0118 -0.3680
  181SOPE  H12X20731   5.509   2.414   7.939 -3.2930  0.1192 -1.1441
  181SOPE  H12Y20732   5.602   2.260   7.967 -0.1201 -1.1502 -2.0109
  181SOPE  C31320733   5.388   2.240   7.977  0.6387 -0.4509  0.2643
  181SOPE  H13X20734   5.366   2.138   7.940  1.2616 -0.5728  0.2285
  181SOPE  H13Y20735   5.295   2.294   7.946  0.3633 -1.1215 -0.0845
  181SOPE  C31420736   5.399   2.232   8.131  0.0215 -0.4953 -0.3330
  181SOPE  H14X20737   5.414   2.334   8.171  0.3924 -1.1113  1.1594
  181SOPE  H14Y20738   5.496   2.184   8.156  0.9765  2.2302  1.6535
  181SOPE  C31520739   5.273   2.151   8.190 -0.7948 -0.3923 -0.5364
  181SOPE  H15X20740   5.264   2.056   8.133 -0.6120 -1.2571  0.8238
  181SOPE  H15Y20741   5.184   2.205   8.151 -0.6889 -0.3817 -0.7703
  181SOPE  C31620742   5.267   2.145   8.345  0.3386  0.1764 -0.0026
  181SOPE  H16X20743   5.258   2.242   8.397 -0.3940  0.0548  0.1130
  181SOPE  H16Y20744   5.363   2.113   8.390 -0.6005  0.4782  2.3378
  181SOPE  C31720745   5.157   2.058   8.393 -0.9208 -0.2014 -0.4758
  181SOPE  H17X20746   5.182   2.031   8.498  0.3299 -0.3985 -0.8056
  181SOPE  H17Y20747   5.147   1.963   8.335  1.6155 -1.6249  1.2001
  181SOPE  C31820748   5.021   2.123   8.388  0.4940 -0.1259  0.1263
  181SOPE  H18X20749   5.007   2.206   8.460 -0.1213  1.4729 -1.7448
  181SOPE  H18Y20750   4.954   2.038   8.416  0.1883 -0.1411 -0.6318
  181SOPE  H18Z20751   5.000   2.162   8.286 -0.1217  1.5058  0.8365
  182SOPE     N20752   0.355   3.565   6.231  0.4306  0.3372  0.0147
  182SOPE   HN120753   0.383   3.472   6.269  2.4813 -0.5955 -3.4038
  182SOPE   HN220754   0.256   3.557   6.201 -0.0841 -3.2679  2.0542
  182SOPE   HN320755   0.415   3.583   6.148 -0.6638  1.9377 -0.4756
  182SOPE   C1220756   0.369   3.678   6.325  0.3025 -0.0683 -0.6523
  182SOPE  H12A20757   0.476   3.686   6.352  0.3475 -0.9224 -0.5441
  182SOPE  H12B20758   0.308   3.653   6.415 -2.2367  0.2816 -2.1628
  182SOPE   C1120759   0.317   3.805   6.266 -0.1393 -0.2554 -0.3553
  182SOPE  H11A20760   0.314   3.881   6.347 -1.1675 -1.4914  0.8143
  182SOPE  H11B20761   0.219   3.784   6.218 -0.7034 -0.7870  0.9730
  182SOPE     P20762   0.546   3.933   6.203  0.1303  0.2175  0.3615
  182SOPE   O1320763   0.563   4.036   6.095 -0.2237  0.8690  0.1861
  182SOPE   O1420764   0.661   3.840   6.227 -0.5611 -0.0628  0.1745
  182SOPE   O1220765   0.412   3.854   6.169 -0.1317 -0.1012 -0.2321
  182SOPE   O1120766   0.506   4.004   6.335 -0.5369 -0.5565 -0.4314
  182SOPE    C120767   0.412   4.110   6.346 -0.3900  0.7369  0.0800
  182SOPE    HA20768   0.309   4.077   6.318 -0.1367 -0.7373  0.7995
  182SOPE    HB20769   0.448   4.202   6.295  1.0569 -0.1814 -0.6340
  182SOPE    C220770   0.390   4.155   6.495 -0.5665 -0.1249 -0.4991
  182SOPE    HS20771   0.326   4.246   6.496 -0.3797  0.0068 -0.4717
  182SOPE   O2120772   0.512   4.171   6.556 -0.2618  0.1883  0.7338
  182SOPE   C2120773   0.540   4.277   6.618 -0.7501 -0.7177 -0.1326
  182SOPE   O2220774   0.479   4.384   6.616 -0.1833  0.5192  0.0694
  182SOPE   C2220775   0.666   4.257   6.716  0.4520 -0.3176  0.4678
  182SOPE   H2R20776   0.728   4.346   6.688 -1.9287  1.0764 -0.7074
  182SOPE   H2S20777   0.716   4.160   6.693 -1.8734 -1.5782  0.4253
  182SOPE    C320778   0.314   4.054   6.578  0.0013 -0.7408 -0.6882
  182SOPE    HX20779   0.359   3.952   6.581  1.1562 -0.2213  0.6787
  182SOPE    HY20780   0.217   4.028   6.531 -0.8993  0.0484  0.6836
  182SOPE   O3120781   0.300   4.092   6.714 -0.0128 -0.2751 -0.3296
  182SOPE   C3120782   0.189   4.113   6.776  0.0571  0.0316 -0.1342
  182SOPE   O3220783   0.076   4.111   6.725 -0.4223 -0.6618  0.7571
  182SOPE   C3220784   0.227   4.145   6.920  0.0626 -0.3761  0.2275
  182SOPE   H2X20785   0.268   4.249   6.918 -0.9260  0.0351 -1.8870
  182SOPE   H2Y20786   0.309   4.078   6.954 -0.8569 -1.5899  0.1154
  182SOPE   C2320787   0.634   4.275   6.874  0.1425 -0.1572 -0.0188
  182SOPE   H3R20788   0.543   4.216   6.901 -0.1380 -0.2008 -1.0230
  182SOPE   H3S20789   0.595   4.379   6.883 -1.1698 -0.6365  0.1297
  182SOPE   C2420790   0.755   4.251   6.964  0.0240  0.1846  0.6997
  182SOPE   H4R20791   0.785   4.145   6.956 -1.2933 -0.1731  0.3776
  182SOPE   H4S20792   0.832   4.312   6.911  0.5815 -1.1440 -0.0558
  182SOPE   C2520793   0.730   4.293   7.106  0.4907 -0.5557  0.8563
  182SOPE   H5R20794   0.736   4.404   7.112  0.4815 -0.5293  0.4345
  182SOPE   H5S20795   0.627   4.258   7.126 -0.4690  2.2183  1.1444
  182SOPE   C2620796   0.830   4.232   7.203  0.2500  0.2408  0.3363
  182SOPE   H6R20797   0.846   4.125   7.181 -1.4248  0.4371 -2.1134
  182SOPE   H6S20798   0.922   4.294   7.208  0.9033 -0.6305 -0.4890
  182SOPE   C2720799   0.776   4.236   7.346  0.3398  0.1117 -0.5523
  182SOPE   H7R20800   0.765   4.340   7.384  2.1491 -0.6136  2.2739
  182SOPE   H7S20801   0.677   4.187   7.355 -0.3201  1.4647 -0.1031
  182SOPE   C2820802   0.863   4.167   7.445  0.2580  0.2240  0.4116
  182SOPE   H8R20803   0.895   4.070   7.400 -1.5114 -0.0928 -0.2276
  182SOPE   H8S20804   0.960   4.219   7.462  1.2688 -1.0643 -1.0640
  182SOPE   C2920805   0.802   4.147   7.583  0.1395 -0.9514  0.3360
  182SOPE   H9120806   0.781   4.041   7.605  0.9498 -0.7919  2.0836
  182SOPE  C21020807   0.783   4.252   7.674  0.4528 -0.0501 -0.1021
  182SOPE  H10120808   0.746   4.222   7.773  2.5693  0.6610  0.9774
  182SOPE  C21120809   0.821   4.400   7.655 -0.2005 -0.5176 -0.1603
  182SOPE  H11R20810   0.732   4.464   7.670 -0.5847 -0.7528 -1.3534
  182SOPE  H11S20811   0.856   4.432   7.554 -0.5047  1.8771  0.4284
  182SOPE  C21220812   0.925   4.465   7.757  0.4348 -0.7209  0.1780
  182SOPE  H12R20813   0.928   4.574   7.734 -0.4469 -1.2109 -2.7524
  182SOPE  H12S20814   1.025   4.422   7.735 -0.1449 -1.7239 -0.5877
  182SOPE  C21320815   0.901   4.420   7.906  0.4410 -0.4288 -0.1469
  182SOPE  H13R20816   0.919   4.312   7.921  0.1303 -0.2208  2.0668
  182SOPE  H13S20817   0.794   4.449   7.921  0.7436  0.7523 -0.1380
  182SOPE  C21420818   0.991   4.514   7.991  0.1915  0.8213 -0.6778
  182SOPE  H14R20819   1.001   4.613   7.943  3.1110 -0.6269 -3.4368
  182SOPE  H14S20820   1.092   4.470   8.008  0.8185  2.5660  0.3800
  182SOPE  C21520821   0.931   4.541   8.133  0.3274  0.4784  0.2042
  182SOPE  H15R20822   0.905   4.443   8.179  1.2829 -0.9993 -2.2294
  182SOPE  H15S20823   0.830   4.587   8.129  0.6332  1.1583  0.1819
  182SOPE  C21620824   1.014   4.636   8.221 -0.3055  0.4445  0.4080
  182SOPE  H16R20825   0.956   4.687   8.301  1.3099 -0.5206  2.2930
  182SOPE  H16S20826   1.054   4.714   8.153 -0.9157  1.1522  0.8458
  182SOPE  C21720827   1.132   4.563   8.292 -0.0782  0.0648 -0.7303
  182SOPE  H17R20828   1.196   4.521   8.212 -0.8935 -0.2150 -1.2346
  182SOPE  H17S20829   1.093   4.483   8.358  0.7767 -1.8546 -2.4505
  182SOPE  C21820830   1.207   4.655   8.377 -0.5885 -0.3926 -0.4743
  182SOPE  H18R20831   1.288   4.610   8.439 -0.0892  1.5085  0.3019
  182SOPE  H18S20832   1.136   4.701   8.449 -1.0497 -0.1043 -1.1053
  182SOPE  H18T20833   1.253   4.731   8.311 -0.0128 -0.3353 -0.0181
  182SOPE   C3320834   0.121   4.132   7.026  0.1962 -0.5599 -0.1226
  182SOPE   H3X20835   0.019   4.098   7.000  0.5368 -1.9725  0.2401
  182SOPE   H3Y20836   0.110   4.236   7.062  3.3484  0.0916 -0.7052
  182SOPE   C3420837   0.166   4.050   7.151 -0.3084  0.5467  0.9937
  182SOPE   H4X20838   0.275   4.066   7.165  0.6834 -3.5418 -0.4696
  182SOPE   H4Y20839   0.184   3.942   7.130  4.8057  1.0803  1.5128
  182SOPE   C3520840   0.100   4.091   7.280 -0.0001  0.5753  0.4992
  182SOPE   H5X20841  -0.009   4.068   7.281  0.2000 -0.6084  3.0924
  182SOPE   H5Y20842   0.110   4.201   7.284  2.0779  0.5873 -2.0922
  182SOPE   C3620843   0.159   4.015   7.407 -0.5761  0.0826  0.0601
  182SOPE   H6X20844   0.268   4.034   7.411 -0.3238 -1.4067  1.6797
  182SOPE   H6Y20845   0.133   3.907   7.401 -1.4554  0.3749 -2.1299
  182SOPE   C3720846   0.095   4.054   7.539 -0.4057 -0.4761  0.4102
  182SOPE   H7X20847  -0.014   4.030   7.539 -0.0425 -2.2956 -0.9922
  182SOPE   H7Y20848   0.097   4.164   7.555 -0.7163  0.0140 -2.5124
  182SOPE   C3820849   0.164   3.984   7.663  1.1359  0.2690 -0.3616
  182SOPE   H8X20850   0.260   4.040   7.671  0.2819  1.9817 -1.6008
  182SOPE   H8Y20851   0.173   3.876   7.636 -2.2516 -0.7356  1.8963
  182SOPE   C3920852   0.084   4.019   7.793  0.5869 -0.0324  0.2514
  182SOPE   H9X20853  -0.023   3.993   7.780  0.9594 -0.3352 -2.7651
  182SOPE   H9Y20854   0.089   4.129   7.805 -0.1354  0.1112 -0.6657
  182SOPE  C31020855   0.133   3.963   7.931 -0.2362  0.0464  0.2944
  182SOPE  H10X20856   0.234   3.989   7.968  0.3878  0.7571 -1.7742
  182SOPE  H10Y20857   0.128   3.852   7.929  0.7777 -0.0340  1.4408
  182SOPE  C31120858   0.038   4.018   8.041  0.3874  0.2273 -0.5771
  182SOPE  H11X20859  -0.067   4.030   8.008  0.2004  0.6459  0.1404
  182SOPE  H11Y20860   0.061   4.125   8.059 -1.4122  0.1579  3.1227
  182SOPE  C31220861   0.056   3.941   8.177  0.1770 -0.7144 -0.3559
  182SOPE  H12X20862   0.160   3.975   8.198 -0.9916  2.9811  0.0713
  182SOPE  H12Y20863   0.051   3.831   8.161  2.2369 -0.7935 -0.7818
  182SOPE  C31320864  -0.037   3.996   8.288 -0.8646 -0.0734 -0.0492
  182SOPE  H13X20865  -0.144   3.980   8.261 -0.5038 -0.5268 -1.3193
  182SOPE  H13Y20866  -0.014   4.103   8.302  0.4001 -0.5173  1.5036
  182SOPE  C31420867  -0.016   3.921   8.427 -0.0566 -0.4486 -0.7894
  182SOPE  H14X20868   0.075   3.966   8.473  0.0870 -0.4272 -1.0950
  182SOPE  H14Y20869  -0.020   3.812   8.408 -4.0905 -0.1977 -2.3260
  182SOPE  C31520870  -0.139   3.950   8.524  0.0577 -0.0834 -0.4455
  182SOPE  H15X20871  -0.229   3.913   8.472 -0.4867 -0.6893  0.9003
  182SOPE  H15Y20872  -0.163   4.055   8.553 -2.3156 -1.1939  1.9228
  182SOPE  C31620873  -0.117   3.878   8.653  0.4567 -0.1778  0.2908
  182SOPE  H16X20874  -0.085   3.773   8.638 -0.8681 -0.8375  1.7652
  182SOPE  H16Y20875  -0.216   3.875   8.705  0.3731 -0.0247  0.1421
  182SOPE  C31720876  -0.016   3.941   8.749 -0.0877  0.1160 -0.2734
  182SOPE  H17X20877   0.086   3.935   8.705 -1.3847 -1.9727 -3.4357
  182SOPE  H17Y20878  -0.019   3.872   8.836 -1.6009 -3.0264 -2.6150
  182SOPE  C31820879  -0.047   4.090   8.787 -0.3904 -0.2559  0.9111
  182SOPE  H18X20880  -0.157   4.110   8.784  0.1075  2.6992 -0.7951
  182SOPE  H18Y20881  -0.003   4.167   8.721  1.0137 -0.6634  1.3318
  182SOPE  H18Z20882  -0.018   4.114   8.892 -0.9926  3.4333  0.3501
  183SOPE     N20883   1.094   0.218   6.442  0.1041  0.1172  0.8162
  183SOPE   HN120884   1.088   0.301   6.505  0.4290  2.3729 -1.9154
  183SOPE   HN220885   1.177   0.241   6.385 -1.7766  1.7707 -1.4478
  183SOPE   HN320886   1.009   0.202   6.385  0.3004  0.0327  0.5489
  183SOPE   C1220887   1.100   0.092   6.526 -1.0573  0.3443 -0.7330
  183SOPE  H12A20888   1.146   0.017   6.458  0.0717  0.3760 -0.0218
  183SOPE  H12B20889   0.995   0.064   6.550 -0.2083 -4.1869 -1.4179
  183SOPE   C1120890   1.190   0.120   6.648  0.6006  0.0564  0.1013
  183SOPE  H11A20891   1.188   0.022   6.701  0.7899 -0.8219 -1.4351
  183SOPE  H11B20892   1.143   0.192   6.719 -0.9681 -1.8466  1.0903
  183SOPE     P20893   1.386   0.291   6.624  0.0103 -0.2128  0.1693
  183SOPE   O1320894   1.322   0.397   6.544 -0.0448  0.2359  0.9631
  183SOPE   O1420895   1.536   0.274   6.604  0.2005 -0.0322 -0.3861
  183SOPE   O1220896   1.320   0.153   6.606 -0.0371 -0.3248 -0.7645
  183SOPE   O1120897   1.355   0.320   6.773  0.1900  0.1491  0.8583
  183SOPE    C120898   1.452   0.311   6.871  0.5439 -0.0328  0.3931
  183SOPE    HA20899   1.414   0.345   6.971 -0.1570 -1.1536  0.5283
  183SOPE    HB20900   1.545   0.365   6.845  0.9221 -1.6504 -1.9150
  183SOPE    C220901   1.489   0.164   6.907  0.6102  0.2404  0.6892
  183SOPE    HS20902   1.529   0.119   6.814  2.2516  1.2185  0.8976
  183SOPE   O2120903   1.369   0.096   6.955 -0.2535 -0.2560  0.4710
  183SOPE   C2120904   1.373  -0.034   6.984  0.0130  0.0536 -0.8614
  183SOPE   O2220905   1.476  -0.105   6.980  0.3598 -0.4247  0.0018
  183SOPE   C2220906   1.231  -0.091   7.014 -0.5627  0.3736  0.9194
  183SOPE   H2R20907   1.176  -0.084   6.919  0.6223 -0.5297  0.1331
  183SOPE   H2S20908   1.185  -0.017   7.083 -0.7286  1.7179 -0.5863
  183SOPE    C320909   1.609   0.159   7.011 -0.3167 -0.1580  0.1434
  183SOPE    HX20910   1.699   0.201   6.962  0.1877 -1.1360  0.2033
  183SOPE    HY20911   1.625   0.051   7.031 -0.3845 -0.6542 -2.2425
  183SOPE   O3120912   1.571   0.235   7.128 -0.0073  0.1624  0.1030
  183SOPE   C3120913   1.647   0.196   7.232 -0.4397 -0.4797  0.4788
  183SOPE   O3220914   1.736   0.112   7.229 -0.7081 -0.9722  0.2020
  183SOPE   C3220915   1.613   0.270   7.358 -0.0401 -0.4457 -0.6881
  183SOPE   H2X20916   1.531   0.341   7.338  0.8385  0.0832 -2.6056
  183SOPE   H2Y20917   1.700   0.326   7.399 -0.1010 -0.2050 -0.8894
  183SOPE   C2320918   1.220  -0.233   7.064 -0.3816  0.5709 -0.0243
  183SOPE   H3R20919   1.318  -0.283   7.077  0.0141  1.8113  2.1702
  183SOPE   H3S20920   1.153  -0.293   6.998 -1.6101  1.3878  0.4367
  183SOPE   C2420921   1.170  -0.234   7.205 -0.4026 -0.2214  0.1533
  183SOPE   H4R20922   1.062  -0.210   7.215  0.0737  1.7066  1.0595
  183SOPE   H4S20923   1.169  -0.342   7.234 -1.1163  0.0004  1.0239
  183SOPE   C2520924   1.244  -0.146   7.307  0.0831 -0.3722 -0.5438
  183SOPE   H5R20925   1.343  -0.116   7.269 -0.8025  2.6918 -0.7758
  183SOPE   H5S20926   1.187  -0.050   7.308 -0.2119 -0.4658  2.5737
  183SOPE   C2620927   1.242  -0.197   7.460 -0.2665 -0.0561  0.4787
  183SOPE   H6R20928   1.165  -0.273   7.488  1.7365 -3.4573 -2.3912
  183SOPE   H6S20929   1.336  -0.255   7.471  0.0867  0.4494  0.1582
  183SOPE   C2720930   1.243  -0.078   7.558  0.4586 -0.4587 -0.1969
  183SOPE   H7R20931   1.330  -0.014   7.533  1.0151 -0.8037  0.8047
  183SOPE   H7S20932   1.148  -0.022   7.542  0.1288 -1.4487 -2.0259
  183SOPE   C2820933   1.266  -0.120   7.708 -0.1442 -0.0736 -0.7499
  183SOPE   H8R20934   1.363  -0.174   7.716 -0.4841 -0.3982  1.7859
  183SOPE   H8S20935   1.273  -0.020   7.757  1.2907  0.1716 -1.3804
  183SOPE   C2920936   1.147  -0.197   7.756  1.1375  0.1751  0.0749
  183SOPE   H9120937   1.111  -0.271   7.683 -0.0354 -1.3494  2.0980
  183SOPE  C21020938   1.091  -0.196   7.878 -0.7738 -0.5927 -0.2133
  183SOPE  H10120939   1.001  -0.255   7.902 -0.3791 -0.7278  1.0390
  183SOPE  C21120940   1.127  -0.103   8.002  0.2586 -0.2227  0.5653
  183SOPE  H11R20941   1.061  -0.015   8.018  2.4693  1.9590 -1.3524
  183SOPE  H11S20942   1.217  -0.048   7.965 -0.3366 -0.5503 -1.4940
  183SOPE  C21220943   1.158  -0.180   8.126 -0.6130 -0.1884  0.4345
  183SOPE  H12R20944   1.202  -0.113   8.202  0.9221 -2.3115  1.5311
  183SOPE  H12S20945   1.217  -0.266   8.088 -1.7623 -0.2743 -1.2740
  183SOPE  C21320946   1.032  -0.250   8.196  0.4087 -0.8766  0.4002
  183SOPE  H13R20947   0.997  -0.332   8.130 -2.3043  1.3847 -1.1716
  183SOPE  H13S20948   0.958  -0.168   8.205  0.7044 -0.5876  0.2226
  183SOPE  C21420949   1.056  -0.311   8.334  0.1379  0.4022  0.3418
  183SOPE  H14R20950   1.099  -0.412   8.315  3.0230  1.6859 -0.6470
  183SOPE  H14S20951   0.958  -0.327   8.383  0.0218  1.9016  0.6374
  183SOPE  C21520952   1.147  -0.238   8.425  0.8248 -0.7757 -0.0722
  183SOPE  H15R20953   1.107  -0.135   8.429 -0.0190 -1.1197  1.0389
  183SOPE  H15S20954   1.252  -0.228   8.391  1.0260 -1.6157  0.2686
  183SOPE  C21620955   1.138  -0.294   8.573 -0.2885  0.1096 -0.0170
  183SOPE  H16R20956   1.186  -0.394   8.573 -2.1465 -0.8260  1.2166
  183SOPE  H16S20957   1.032  -0.297   8.604 -0.5820 -0.9949 -1.0496
  183SOPE  C21720958   1.215  -0.211   8.681  0.0546  0.4486  0.0850
  183SOPE  H17R20959   1.192  -0.250   8.783 -0.9264  0.0976 -0.2559
  183SOPE  H17S20960   1.180  -0.105   8.679 -0.0535  0.5232  2.4417
  183SOPE  C21820961   1.367  -0.210   8.655  0.0722  0.3595 -0.0706
  183SOPE  H18R20962   1.405  -0.309   8.687  0.4094  0.8502  1.1080
  183SOPE  H18S20963   1.412  -0.131   8.719  2.9389 -0.0069 -1.4790
  183SOPE  H18T20964   1.393  -0.193   8.548  0.0997 -0.2050 -0.1547
  183SOPE   C3320965   1.588   0.163   7.470 -0.3456  0.3386 -0.2331
  183SOPE   H3X20966   1.674   0.093   7.464 -0.1605  0.4445  0.9093
  183SOPE   H3Y20967   1.503   0.093   7.457 -1.0852  0.8452  1.5574
  183SOPE   C3420968   1.582   0.232   7.608 -0.4542 -0.2409  0.4015
  183SOPE   H4X20969   1.506   0.313   7.608 -1.9502 -1.5673 -0.9170
  183SOPE   H4Y20970   1.676   0.281   7.638 -0.6710 -0.6681  1.8731
  183SOPE   C3520971   1.554   0.133   7.723 -0.4879 -0.1427 -0.8295
  183SOPE   H5X20972   1.648   0.075   7.729 -0.2919  0.1065 -1.4972
  183SOPE   H5Y20973   1.480   0.056   7.693 -0.0694 -0.4652 -1.0362
  183SOPE   C3620974   1.518   0.199   7.852 -0.1659  0.0101 -0.2203
  183SOPE   H6X20975   1.431   0.266   7.833 -0.2668  0.6224  2.0449
  183SOPE   H6Y20976   1.612   0.256   7.872  2.3110 -3.6554 -0.5476
  183SOPE   C3720977   1.464   0.112   7.971 -0.1927  0.2530  0.7212
  183SOPE   H7X20978   1.540   0.034   7.992 -2.8092 -3.1530 -1.4638
  183SOPE   H7Y20979   1.373   0.057   7.938 -0.9606  0.5002  2.3002
  183SOPE   C3820980   1.419   0.199   8.092  0.0261  0.0024  0.5086
  183SOPE   H8X20981   1.367   0.286   8.046  0.0395 -1.6643 -2.9597
  183SOPE   H8Y20982   1.505   0.250   8.141  0.3609 -0.3801  0.3187
  183SOPE   C3920983   1.337   0.131   8.208  0.1293 -0.4248  0.7600
  183SOPE   H9X20984   1.400   0.046   8.242  0.3254  0.0706  1.6662
  183SOPE   H9Y20985   1.241   0.102   8.161 -0.3314  2.9765 -0.7072
  183SOPE  C31020986   1.304   0.219   8.326  0.6787  0.5020  0.4710
  183SOPE  H10X20987   1.269   0.322   8.302 -0.6486 -0.1773 -0.6284
  183SOPE  H10Y20988   1.403   0.238   8.373  0.8835  0.1179  0.1942
  183SOPE  C31120989   1.202   0.164   8.427  0.3002  0.0519  1.3788
  183SOPE  H11X20990   1.234   0.064   8.465 -0.1456 -0.4769  0.3750
  183SOPE  H11Y20991   1.110   0.148   8.368  2.1322  0.0990 -1.6900
  183SOPE  C31220992   1.167   0.258   8.539 -0.3943 -0.5030 -0.3471
  183SOPE  H12X20993   1.102   0.341   8.506  2.1014  2.5753  1.8036
  183SOPE  H12Y20994   1.259   0.293   8.591 -1.0246 -3.0702  2.7918
  183SOPE  C31320995   1.081   0.197   8.652  0.3946  0.0924 -0.1949
  183SOPE  H13X20996   1.074   0.278   8.728  0.9904 -0.3005  0.2903
  183SOPE  H13Y20997   1.120   0.097   8.682  0.6882  0.5456  0.9990
  183SOPE  C31420998   0.937   0.165   8.594  0.4261 -0.5147  0.6998
  183SOPE  H14X20999   0.943   0.110   8.498  0.8116  1.0746 -0.2277
  183SOPE  H14Y21000   0.884   0.260   8.572 -1.6373 -2.0458 -1.3503
  183SOPE  C31521001   0.845   0.084   8.693  0.0596  0.1438 -0.3327
  183SOPE  H15X21002   0.741   0.088   8.652 -0.1509  0.9208  0.2646
  183SOPE  H15Y21003   0.836   0.141   8.788 -2.8444 -1.7476  0.6520
  183SOPE  C31621004   0.895  -0.050   8.728 -0.0592 -0.2193  0.3222
  183SOPE  H16X21005   0.984  -0.047   8.794  1.5216  0.3640 -1.7321
  183SOPE  H16Y21006   0.933  -0.099   8.636 -1.9945  1.6407 -1.5837
  183SOPE  C31721007   0.794  -0.136   8.802 -0.4179 -0.4283  0.1808
  183SOPE  H17X21008   0.715  -0.183   8.739 -1.0940 -0.6762  1.1839
  183SOPE  H17Y21009   0.746  -0.078   8.884  2.2255  2.2060  0.0178
  183SOPE  C31821010   0.867  -0.250   8.880  0.9356  0.2640 -0.3532
  183SOPE  H18X21011   0.789  -0.325   8.906 -0.3702  1.9162  0.7273
  183SOPE  H18Y21012   0.925  -0.197   8.958  0.1449  2.2903 -1.0592
  183SOPE  H18Z21013   0.953  -0.300   8.831 -0.2483 -2.6341  0.3127
  184SOPE     N21014   1.097   3.978   6.230  0.1595 -0.1244 -0.4587
  184SOPE   HN121015   1.051   4.030   6.308  0.5189 -0.4242 -0.0348
  184SOPE   HN221016   1.026   3.977   6.155 -0.8107  3.6033  0.2201
  184SOPE   HN321017   1.121   3.883   6.266 -0.9286  0.1963  1.2268
  184SOPE   C1221018   1.222   4.044   6.167 -0.0236 -0.3328  0.7539
  184SOPE  H12A21019   1.183   4.114   6.089  1.2203  0.9808  1.2663
  184SOPE  H12B21020   1.276   3.960   6.119 -0.3752 -1.8263  2.8559
  184SOPE   C1121021   1.318   4.093   6.275 -0.0087  1.2053 -0.2683
  184SOPE  H11A21022   1.338   4.008   6.345 -0.4413 -0.8480 -2.4945
  184SOPE  H11B21023   1.261   4.159   6.344  0.8828  1.6993  0.0067
  184SOPE     P21024   1.576   4.116   6.281  0.4555  0.2452  0.0481
  184SOPE   O1321025   1.670   4.231   6.257  0.3000  0.3321 -0.0089
  184SOPE   O1421026   1.624   3.986   6.225  0.1835 -0.2999  0.1004
  184SOPE   O1221027   1.433   4.153   6.220  0.2696  0.1699 -0.2849
  184SOPE   O1121028   1.536   4.100   6.436  0.7346 -0.4128  0.9311
  184SOPE    C121029   1.619   4.131   6.544  0.0192  0.0304 -0.3307
  184SOPE    HA21030   1.590   4.227   6.592  2.7468 -0.0465  1.6819
  184SOPE    HB21031   1.729   4.129   6.526  0.2530 -1.1162  1.0635
  184SOPE    C221032   1.589   4.025   6.647 -0.9344  0.2854 -0.3789
  184SOPE    HS21033   1.498   4.058   6.701  0.2658  1.4683  1.0237
  184SOPE   O2121034   1.705   4.015   6.738  0.1017  0.1298 -0.7533
  184SOPE   C2121035   1.695   4.119   6.830 -1.1616  0.2859 -0.2177
  184SOPE   O2221036   1.603   4.194   6.851  0.1724  0.1496  0.0027
  184SOPE   C2221037   1.829   4.120   6.906 -0.2821  0.7183  0.7847
  184SOPE   H2R21038   1.903   4.117   6.822 -0.4814  1.5137  0.5683
  184SOPE   H2S21039   1.847   4.032   6.970  1.6237  0.4854 -0.0003
  184SOPE    C321040   1.560   3.882   6.579  0.0209 -0.0846  0.6178
  184SOPE    HX21041   1.626   3.878   6.490  0.0744  1.3326  0.5574
  184SOPE    HY21042   1.453   3.890   6.551 -0.5997 -0.7036  2.6753
  184SOPE   O3121043   1.589   3.775   6.668  0.3599  0.2041  0.0221
  184SOPE   C3121044   1.485   3.745   6.754 -0.0781  0.4579 -0.3759
  184SOPE   O3221045   1.386   3.815   6.763  0.3703 -0.4727 -0.5206
  184SOPE   C3221046   1.520   3.612   6.826 -0.0703 -0.1412  0.1864
  184SOPE   H2X21047   1.629   3.595   6.823  0.4228  2.6857 -0.9565
  184SOPE   H2Y21048   1.467   3.539   6.760  0.1991  0.2889 -0.5212
  184SOPE   C2321049   1.850   4.252   6.981  0.2467 -0.1779  0.1860
  184SOPE   H3R21050   1.857   4.343   6.918  1.5020 -0.8894 -0.7356
  184SOPE   H3S21051   1.952   4.261   7.024  0.8772 -2.2942 -0.7499
  184SOPE   C2421052   1.754   4.255   7.101 -0.5595  0.5536  0.1975
  184SOPE   H4R21053   1.647   4.270   7.076  0.2863  2.3471 -2.8420
  184SOPE   H4S21054   1.761   4.150   7.138 -0.5268  0.2164 -0.7182
  184SOPE   C2521055   1.784   4.349   7.226 -0.8159 -0.1698  0.9553
  184SOPE   H5R21056   1.892   4.361   7.249 -0.9948  2.1678  0.8076
  184SOPE   H5S21057   1.750   4.439   7.172  0.1109  0.3558  1.2266
  184SOPE   C2621058   1.714   4.297   7.353 -0.4913 -0.6679  0.0369
  184SOPE   H6R21059   1.618   4.246   7.331 -1.5621  1.6541 -1.0400
  184SOPE   H6S21060   1.779   4.219   7.398 -1.2080 -0.7081  1.0220
  184SOPE   C2721061   1.680   4.402   7.454  0.1860 -0.4942 -0.6779
  184SOPE   H7R21062   1.598   4.464   7.412 -0.5830 -0.4568  0.8277
  184SOPE   H7S21063   1.646   4.346   7.543 -0.0537  0.5374 -0.0977
  184SOPE   C2821064   1.794   4.503   7.492 -0.6805  0.2319  0.1011
  184SOPE   H8R21065   1.876   4.441   7.536 -0.7070  0.1621  0.0527
  184SOPE   H8S21066   1.818   4.546   7.393 -1.1609  2.4319  0.8921
  184SOPE   C2921067   1.747   4.627   7.575  0.0003  0.4985  0.1155
  184SOPE   H9121068   1.668   4.685   7.526 -0.2799 -0.8306 -1.0707
  184SOPE  C21021069   1.798   4.668   7.691  0.1535 -0.8699 -0.2471
  184SOPE  H10121070   1.758   4.758   7.741 -1.1966 -1.4017 -0.3169
  184SOPE  C21121071   1.904   4.597   7.770 -0.1115 -0.0026  0.3149
  184SOPE  H11R21072   2.001   4.650   7.779  0.9550 -2.1564  2.9641
  184SOPE  H11S21073   1.927   4.495   7.731 -0.2281 -0.3774  1.2049
  184SOPE  C21221074   1.861   4.581   7.923  0.1919 -0.0927 -0.1777
  184SOPE  H12R21075   1.796   4.492   7.934 -1.5929  1.1164 -0.3806
  184SOPE  H12S21076   1.807   4.675   7.950 -0.3831 -0.1419 -1.0932
  184SOPE  C21321077   1.979   4.566   8.027 -0.2267 -0.3763  0.4597
  184SOPE  H13R21078   2.039   4.659   8.022 -0.4070 -0.2866 -0.1444
  184SOPE  H13S21079   2.035   4.473   8.001 -1.3291 -1.0635  0.5093
  184SOPE  C21421080   1.936   4.548   8.178  0.0974 -0.6921  0.4286
  184SOPE  H14R21081   1.863   4.464   8.177 -2.2248  1.1824  1.7875
  184SOPE  H14S21082   1.881   4.640   8.207 -0.4866 -0.4282 -1.4127
  184SOPE  C21521083   2.057   4.522   8.269 -0.8214 -0.5968  0.9406
  184SOPE  H15R21084   2.107   4.431   8.231 -0.7148 -1.3290  2.7341
  184SOPE  H15S21085   2.020   4.491   8.369  0.1777 -0.7806  1.2689
  184SOPE  C21621086   2.148   4.644   8.307  0.6983 -0.3868  0.1605
  184SOPE  H16R21087   2.101   4.700   8.391 -1.6963 -0.0410 -1.2984
  184SOPE  H16S21088   2.157   4.717   8.224  1.5873  0.8710  1.3226
  184SOPE  C21721089   2.287   4.582   8.334 -0.0248 -0.3288 -0.7511
  184SOPE  H17R21090   2.326   4.529   8.245  0.0198 -2.0698  0.2673
  184SOPE  H17S21091   2.283   4.512   8.420  0.4494  1.2046  0.5869
  184SOPE  C21821092   2.398   4.686   8.364  0.0524 -0.2430  0.8266
  184SOPE  H18R21093   2.494   4.634   8.381 -0.3407 -1.9197 -1.6523
  184SOPE  H18S21094   2.381   4.748   8.455 -0.8430  0.6688  0.0722
  184SOPE  H18T21095   2.425   4.747   8.275  3.1150 -0.2408  1.6444
  184SOPE   C3321096   1.472   3.603   6.979  0.1271  0.4522  0.4932
  184SOPE   H3X21097   1.492   3.498   7.009 -0.0921  0.3198  0.1867
  184SOPE   H3Y21098   1.362   3.617   6.988 -0.2332 -2.6594  2.1348
  184SOPE   C3421099   1.551   3.689   7.079 -1.1572 -0.0559 -0.7576
  184SOPE   H4X21100   1.561   3.788   7.028 -0.6419  0.0426 -0.4732
  184SOPE   H4Y21101   1.655   3.651   7.091 -0.9413  0.4018 -1.1174
  184SOPE   C3521102   1.462   3.703   7.203 -0.1763 -0.4336 -0.3279
  184SOPE   H5X21103   1.445   3.611   7.262 -1.5005  1.4183  2.4316
  184SOPE   H5Y21104   1.363   3.744   7.177 -0.2209 -0.0456  0.4151
  184SOPE   C3621105   1.537   3.809   7.294  0.1932  0.0692  0.0329
  184SOPE   H6X21106   1.561   3.894   7.227  2.6918 -1.6091 -1.3809
  184SOPE   H6Y21107   1.637   3.769   7.320 -0.1355 -2.0263 -1.5838
  184SOPE   C3721108   1.465   3.845   7.424  1.1244 -0.1527  0.5527
  184SOPE   H7X21109   1.456   3.751   7.483 -0.7857 -0.4946 -0.2050
  184SOPE   H7Y21110   1.361   3.874   7.398  0.9581  0.2692  1.6439
  184SOPE   C3821111   1.535   3.958   7.499 -0.7046  0.2357 -0.1020
  184SOPE   H8X21112   1.556   4.044   7.433 -0.8030  0.4397  0.1314
  184SOPE   H8Y21113   1.633   3.924   7.539 -0.2555  5.0188  3.6917
  184SOPE   C3921114   1.457   3.995   7.628 -0.6707  0.6389 -0.4247
  184SOPE   H9X21115   1.449   3.898   7.681  0.8873 -0.4416 -2.0517
  184SOPE   H9Y21116   1.349   4.010   7.604 -1.3290 -2.0307  0.5752
  184SOPE  C31021117   1.517   4.105   7.711  0.6983 -0.5511  0.2553
  184SOPE  H10X21118   1.496   4.204   7.667  2.3567 -0.6621 -0.8868
  184SOPE  H10Y21119   1.626   4.085   7.702  0.4608 -0.8128 -3.6094
  184SOPE  C31121120   1.466   4.118   7.852  0.1968 -0.1449 -0.3855
  184SOPE  H11X21121   1.491   4.218   7.893 -1.4952  0.3782 -0.5540
  184SOPE  H11Y21122   1.511   4.040   7.916  0.4734 -0.1635 -0.6016
  184SOPE  C31221123   1.311   4.120   7.855  0.7866 -0.5080  0.4315
  184SOPE  H12X21124   1.261   4.028   7.816  1.3318 -1.3479  1.6430
  184SOPE  H12Y21125   1.285   4.215   7.804 -0.0913  1.4184  4.0620
  184SOPE  C31321126   1.250   4.146   7.995  0.5232 -0.1834 -0.6586
  184SOPE  H13X21127   1.139   4.154   7.991  0.6386  0.9409 -2.0963
  184SOPE  H13Y21128   1.285   4.248   8.020 -1.7794  0.5870 -0.2611
  184SOPE  C31421129   1.287   4.041   8.094  0.6327  0.4420  0.0167
  184SOPE  H14X21130   1.397   4.030   8.104  0.7342 -1.2999 -2.1342
  184SOPE  H14Y21131   1.260   3.942   8.051  3.4936  0.5284 -2.2560
  184SOPE  C31521132   1.219   4.052   8.228  0.1388  0.2506  0.1612
  184SOPE  H15X21133   1.261   4.139   8.283  0.1653  1.2177 -1.3388
  184SOPE  H15Y21134   1.228   3.958   8.287 -0.8861 -0.3254 -0.5706
  184SOPE  C31621135   1.067   4.096   8.223 -0.4373 -0.4698  1.4254
  184SOPE  H16X21136   1.006   4.018   8.173  0.0599 -0.1639  0.3107
  184SOPE  H16Y21137   1.053   4.188   8.162 -1.9098 -1.2440  0.5510
  184SOPE  C31721138   1.022   4.127   8.363 -0.3156  0.2721 -0.7167
  184SOPE  H17X21139   1.093   4.201   8.406 -0.3237  1.5449 -2.7476
  184SOPE  H17Y21140   1.039   4.041   8.432  0.9889  1.6404  0.7375
  184SOPE  C31821141   0.888   4.196   8.369  0.3647 -0.0462  0.0043
  184SOPE  H18X21142   0.802   4.148   8.318 -0.9952  1.2550  0.9791
  184SOPE  H18Y21143   0.892   4.300   8.329 -0.5232 -0.7375 -2.0055
  184SOPE  H18Z21144   0.843   4.205   8.471  0.3062 -1.4581  0.1124
  185SAPI   C1221145   4.101   3.238  11.409  0.0278 -0.3002 -0.0066
  185SAPI    H221146   4.040   3.330  11.419  1.1199  0.3835  0.5490
  185SAPI    O221147   4.234   3.258  11.454 -0.4092 -0.1705 -0.5387
  185SAPI   HO221148   4.278   3.309  11.385  2.2311  0.3773  1.3963
  185SAPI   C1321149   4.028   3.137  11.496 -0.2202  0.3432 -0.1843
  185SAPI    H321150   3.920   3.141  11.470 -1.2604 -0.3000  3.4008
  185SAPI    O321151   4.035   3.167  11.635 -0.0009 -0.1577 -0.3356
  185SAPI   HO321152   4.119   3.147  11.677 -1.6405 -2.2362  2.3068
  185SAPI   C1421153   4.082   2.999  11.469  0.0516 -0.0811  0.1429
  185SAPI    H421154   4.190   2.998  11.492  0.3242  1.0046 -1.0320
  185SAPI    O421155   4.027   2.898  11.559 -0.0557  0.0930  0.8687
  185SAPI   HO421156   4.042   2.819  11.508 -0.7733  2.0141 -2.6459
  185SAPI   C1521157   4.063   2.953  11.320 -0.1877  0.1551  0.0719
  185SAPI    H521158   3.954   2.954  11.299 -0.2272 -0.0943  0.2571
  185SAPI    O521159   4.112   2.822  11.300 -0.7232  0.3254 -0.4205
  185SAPI   HO521160   4.204   2.819  11.325 -0.7139  0.9220 -0.3772
  185SAPI   C1621161   4.124   3.055  11.233 -0.5476 -0.6701  1.0916
  185SAPI    H621162   4.235   3.055  11.246 -0.3981 -1.1190 -0.0003
  185SAPI    O621163   4.103   3.025  11.096 -0.4238  0.4340 -0.7745
  185SAPI   HO621164   4.188   3.034  11.052  0.3309 -2.3648 -0.0605
  185SAPI   C1121165   4.087   3.197  11.263  0.0300  0.0397  0.5471
  185SAPI    H121166   3.981   3.197  11.229 -0.0902 -2.2612  0.7577
  185SAPI     P21167   4.110   3.426  11.111  0.4534  0.0150 -0.2327
  185SAPI   O1321168   4.231   3.502  11.081  1.0660  0.4662 -0.0172
  185SAPI   O1421169   4.004   3.488  11.197  0.0045 -0.0799  0.1500
  185SAPI   O1221170   4.166   3.293  11.193  0.8093  0.5354  0.5199
  185SAPI   O1121171   4.056   3.360  10.983  0.8562  0.1991  0.5177
  185SAPI    C121172   4.131   3.351  10.864  0.1928  0.3125 -0.3152
  185SAPI    HA21173   4.149   3.448  10.812  1.7328 -1.5245 -3.5001
  185SAPI    HB21174   4.231   3.308  10.886  0.4726  0.9139 -0.3963
  185SAPI    C221175   4.051   3.258  10.760 -0.0836  0.1435 -0.2031
  185SAPI    HS21176   4.081   3.153  10.780  0.2422 -0.0239 -1.4811
  185SAPI   O2121177   4.081   3.297  10.624 -0.5704  0.1245  0.7854
  185SAPI   C2121178   4.215   3.260  10.594 -0.0578  0.1468 -0.2547
  185SAPI   O2221179   4.295   3.201  10.659 -0.3797  0.6817 -0.0173
  185SAPI   C2221180   4.231   3.281  10.444 -0.4831 -1.2169 -0.5060
  185SAPI   H2R21181   4.305   3.202  10.423  1.1360  0.3159 -0.7938
  185SAPI   H2S21182   4.142   3.269  10.378 -1.2220  1.7138 -0.2305
  185SAPI    C321183   3.899   3.273  10.795 -0.6333 -0.0439 -0.2875
  185SAPI    HX21184   3.885   3.381  10.815 -0.4570  0.0880 -0.8537
  185SAPI    HY21185   3.894   3.227  10.896  0.2615 -0.4270 -0.4112
  185SAPI   O3121186   3.806   3.210  10.702  0.1817  0.3244 -0.4096
  185SAPI   C3121187   3.677   3.259  10.716 -0.3569 -0.1018  0.0535
  185SAPI   O3221188   3.648   3.356  10.783  0.3725  0.3419  0.7025
  185SAPI   C3221189   3.592   3.156  10.650 -0.8658 -0.2309 -0.5577
  185SAPI   H2X21190   3.493   3.130  10.693 -0.4730 -2.2649 -0.7649
  185SAPI   H2Y21191   3.647   3.063  10.677  0.6996  0.9900  0.6328
  185SAPI   C2321192   4.305   3.419  10.429  0.0425  0.3623  0.5255
  185SAPI   H3R21193   4.401   3.414  10.484  0.6889  0.3359 -0.5824
  185SAPI   H3S21194   4.252   3.498  10.488  0.1672  0.6623  0.2356
  185SAPI   C2421195   4.312   3.450  10.283  0.8134 -0.1506 -0.2170
  185SAPI   H4R21196   4.343   3.555  10.265 -0.6223  0.3100 -0.1380
  185SAPI   H4S21197   4.206   3.454  10.251  0.7625 -0.6727 -0.1291
  185SAPI   C2521198   4.394   3.349  10.208  0.2603  0.8455  0.4650
  185SAPI   H5R21199   4.466   3.287  10.263 -0.7081 -1.4592 -0.7180
  185SAPI   C2621200   4.367   3.302  10.087  0.8806  0.0069  0.3134
  185SAPI   H6R21201   4.449   3.242  10.044 -0.4019 -0.6814 -1.2907
  185SAPI   C2721202   4.252   3.342  10.000  0.1099 -0.3874 -0.0353
  185SAPI   H7R21203   4.160   3.361  10.059  0.5129  0.0203  0.4740
  185SAPI   H7S21204   4.233   3.253   9.937  0.0779 -0.5870  0.2577
  185SAPI   C2821205   4.276   3.467   9.909 -0.7533  0.4395  0.4286
  185SAPI   H8R21206   4.328   3.546   9.965 -2.4236  2.0839 -0.2569
  185SAPI   C2921207   4.255   3.468   9.769  0.9064 -0.0937  0.2148
  185SAPI   H9R21208   4.281   3.556   9.708 -2.1112  0.6286 -0.1894
  185SAPI  C21021209   4.197   3.357   9.685  0.4812 -0.3753  0.1425
  185SAPI  H10R21210   4.146   3.277   9.743  0.6801 -1.0029 -0.5273
  185SAPI  H10S21211   4.283   3.303   9.640  1.5333  0.1816  1.4096
  185SAPI  C21121212   4.098   3.424   9.586 -0.0310  0.5751  0.1327
  185SAPI  H11R21213   4.033   3.501   9.630 -1.8768 -1.3222  0.9005
  185SAPI  C21221214   4.101   3.398   9.452  0.5250  1.0169  0.8911
  185SAPI  H12R21215   4.015   3.438   9.395  1.5175  1.1308 -0.5888
  185SAPI  C21321216   4.198   3.312   9.382 -0.2746  0.3625  1.0619
  185SAPI  H13R21217   4.158   3.208   9.389 -0.3309  0.1900 -1.1428
  185SAPI  H13S21218   4.298   3.316   9.431  0.2152 -1.7239  0.3618
  185SAPI  C21421219   4.206   3.338   9.232 -0.3353  0.4736 -1.0228
  185SAPI  H14R21220   4.113   3.341   9.174 -0.9055 -1.8552 -0.3391
  185SAPI  C21521221   4.316   3.341   9.167 -0.2268 -1.1118  0.9473
  185SAPI  H15R21222   4.303   3.376   9.063  3.2575  1.2685  1.1268
  185SAPI  C21621223   4.455   3.323   9.223 -0.1334 -0.1798  0.2096
  185SAPI  H16R21224   4.520   3.268   9.151  0.6144  0.2339  0.5567
  185SAPI  H16S21225   4.458   3.253   9.309  0.7608 -2.9068 -1.8896
  185SAPI  C21721226   4.527   3.454   9.264  0.3535  0.2922 -0.3514
  185SAPI  H17R21227   4.612   3.441   9.334 -1.1781  1.5448  1.8815
  185SAPI  H17S21228   4.450   3.515   9.315 -1.9312 -1.8011 -1.0727
  185SAPI  C21821229   4.569   3.525   9.137 -0.3028 -0.7477 -0.3458
  185SAPI  H18R21230   4.478   3.551   9.078  0.5848 -0.4718 -1.6277
  185SAPI  H18S21231   4.637   3.456   9.083 -0.0507 -1.4820  0.8796
  185SAPI  C21921232   4.656   3.651   9.173  0.7004  0.5328  0.1049
  185SAPI  H19R21233   4.744   3.626   9.235  0.5257 -0.4888 -0.0469
  185SAPI  H19S21234   4.590   3.716   9.235 -1.0691 -1.4149  0.3766
  185SAPI  C22021235   4.702   3.719   9.046 -0.4834  0.3118  0.0083
  185SAPI  H20R21236   4.619   3.774   8.998 -0.3761  1.2612  0.8580
  185SAPI  H20S21237   4.754   3.646   8.980  1.4045  0.6956  0.9843
  185SAPI  H20T21238   4.779   3.799   9.060 -0.6608  0.8056 -1.5887
  185SAPI   C3321239   3.577   3.175  10.500 -0.0606 -0.5125  0.2699
  185SAPI   H3X21240   3.572   3.076  10.450 -0.7915 -0.0289 -0.6406
  185SAPI   H3Y21241   3.664   3.228  10.457 -1.2387  1.6610  0.4261
  185SAPI   C3421242   3.456   3.262  10.466 -0.8163  0.5282  0.4846
  185SAPI   H4X21243   3.420   3.318  10.555  0.2065  1.3255  0.4069
  185SAPI   H4Y21244   3.369   3.198  10.439 -0.6327  0.4702  0.0147
  185SAPI   C3521245   3.469   3.357  10.347 -0.7368 -0.2286 -0.0505
  185SAPI   H5X21246   3.553   3.426  10.367 -0.7430 -0.7965  2.1103
  185SAPI   H5Y21247   3.378   3.420  10.338 -0.8688 -0.2448  1.0891
  185SAPI   C3621248   3.492   3.288  10.210  0.2581 -0.3064 -0.1915
  185SAPI   H6X21249   3.432   3.198  10.184  0.4215 -0.1767 -1.0448
  185SAPI   H6Y21250   3.601   3.268  10.204  0.7663  1.8149  0.9572
  185SAPI   C3721251   3.464   3.380  10.091  0.3466 -0.3365  0.5432
  185SAPI   H7X21252   3.508   3.481  10.104 -3.0226  1.4668 -0.9627
  185SAPI   H7Y21253   3.356   3.401  10.076  0.1824 -1.8777 -0.6410
  185SAPI   C3821254   3.521   3.324   9.960  0.1419 -0.2743  0.0573
  185SAPI   H8X21255   3.469   3.229   9.936 -0.5891 -0.1491  1.0975
  185SAPI   H8Y21256   3.631   3.308   9.972  0.3040 -1.9387 -2.8341
  185SAPI   C3921257   3.521   3.419   9.842  0.1989 -0.1066  0.4314
  185SAPI   H9X21258   3.542   3.524   9.872  1.2517  0.1687 -1.1744
  185SAPI   H9Y21259   3.421   3.422   9.794  0.3986 -0.2038  0.0104
  185SAPI  C31021260   3.629   3.382   9.731 -0.5560  0.0768 -0.5894
  185SAPI  H10X21261   3.615   3.274   9.711  1.7124  0.1027 -2.6991
  185SAPI  H10Y21262   3.727   3.423   9.764 -0.9259 -0.4662  1.3305
  185SAPI  C31121263   3.590   3.454   9.606 -0.1251 -0.4863  1.3102
  185SAPI  H11X21264   3.564   3.561   9.613  0.8827 -0.0791 -0.5075
  185SAPI  H11Y21265   3.503   3.399   9.563 -0.0230 -0.3116  0.8802
  185SAPI  C31221266   3.698   3.450   9.491  0.4618  0.2003 -0.2280
  185SAPI  H12X21267   3.736   3.346   9.478  0.2456  0.0688  0.1922
  185SAPI  H12Y21268   3.778   3.513   9.536 -1.0417  2.0467 -0.0037
  185SAPI  C31321269   3.658   3.517   9.361 -0.1110 -0.0232  0.1558
  185SAPI  H13X21270   3.612   3.618   9.368  0.8083  0.4724 -0.6428
  185SAPI  H13Y21271   3.583   3.455   9.307 -0.7339  0.8325  0.0251
  185SAPI  C31421272   3.771   3.535   9.261 -0.8547 -0.4769  0.5465
  185SAPI  H14X21273   3.812   3.433   9.243  0.5400 -0.2550  2.2499
  185SAPI  H14Y21274   3.855   3.588   9.310  0.5967 -2.5964  0.4957
  185SAPI  C31521275   3.729   3.610   9.134 -0.1309 -0.0976  0.1346
  185SAPI  H15X21276   3.692   3.713   9.151 -0.4165 -0.0765 -0.5796
  185SAPI  H15Y21277   3.634   3.561   9.103 -0.5572 -0.7614  2.3240
  185SAPI  C31621278   3.845   3.605   9.029  0.0762  0.1575  0.1375
  185SAPI  H16X21279   3.859   3.502   8.988  0.6015  0.7069 -1.1022
  185SAPI  H16Y21280   3.937   3.642   9.078  0.4490 -0.6041  0.0251
  185SAPI  C31721281   3.836   3.690   8.905 -0.1508  0.9106  0.3725
  185SAPI  H17X21282   3.862   3.795   8.930 -0.7981  0.8138  1.5260
  185SAPI  H17Y21283   3.728   3.693   8.878  0.4646 -2.8327 -3.7157
  185SAPI  C31821284   3.919   3.629   8.783 -0.5432  0.2636 -0.0903
  185SAPI  H18X21285   4.027   3.624   8.807 -0.6538 -0.0175  0.3781
  185SAPI  H18Y21286   3.905   3.672   8.682  2.2688  1.2646 -0.1403
  185SAPI  H18Z21287   3.886   3.523   8.781 -1.8425  0.5414  2.4498
  186SAPI   C1221288   6.281   3.651  10.890  0.5385 -0.0310  0.3591
  186SAPI    H221289   6.204   3.730  10.869  1.3916  2.0521  4.1044
  186SAPI    O221290   6.388   3.676  10.801 -0.4354 -0.3210 -0.2935
  186SAPI   HO221291   6.403   3.608  10.735  0.1734 -0.4428 -0.0343
  186SAPI   C1321292   6.316   3.695  11.029  0.1183 -0.3906 -0.4120
  186SAPI    H321293   6.217   3.699  11.079  0.3296  1.2383 -0.0647
  186SAPI    O321294   6.375   3.825  11.025  0.5080  0.0027 -0.7864
  186SAPI   HO321295   6.424   3.827  10.943  2.1295  0.9908  0.1594
  186SAPI   C1421296   6.415   3.595  11.101  0.7269 -0.1955 -0.5314
  186SAPI    H421297   6.510   3.601  11.043  0.3007  1.0916 -1.1484
  186SAPI    O421298   6.433   3.629  11.241  0.4209 -0.0395  0.3559
  186SAPI   HO421299   6.523   3.657  11.257  0.2378  0.3087  0.8102
  186SAPI   C1521300   6.356   3.457  11.096 -0.2533  0.7737 -0.1018
  186SAPI    H521301   6.259   3.458  11.150 -0.4227  0.0373 -0.3759
  186SAPI    O521302   6.423   3.353  11.166 -0.3158  0.6209  0.2687
  186SAPI   HO521303   6.517   3.370  11.181 -0.0362  0.1700 -0.8240
  186SAPI   C1621304   6.331   3.413  10.946 -0.5169 -0.1343  0.1303
  186SAPI    H621305   6.425   3.411  10.887  0.2892  1.9967  1.2418
  186SAPI    O621306   6.272   3.280  10.945 -0.7363 -0.4182  0.6108
  186SAPI   HO621307   6.244   3.267  10.854 -1.7084  1.6109  0.5682
  186SAPI   C1121308   6.229   3.510  10.884  0.4337 -0.0085 -0.1208
  186SAPI    H121309   6.143   3.490  10.952 -0.6058  0.7556 -1.1704
  186SAPI     P21310   6.052   3.501  10.675  0.6385  0.4500 -1.0320
  186SAPI   O1321311   5.939   3.445  10.755  0.0110  0.0543  0.5876
  186SAPI   O1421312   6.063   3.451  10.539  0.0396 -0.2044 -0.1019
  186SAPI   O1221313   6.194   3.468  10.759 -0.2472  0.1825  0.8735
  186SAPI   O1121314   6.042   3.657  10.673  0.4260 -1.2212 -0.0817
  186SAPI    C121315   5.918   3.733  10.701  0.2217 -0.1053  0.2550
  186SAPI    HA21316   5.879   3.701  10.801 -0.0596  0.4963  0.3432
  186SAPI    HB21317   5.935   3.842  10.715 -1.3708 -0.0635  2.3173
  186SAPI    C221318   5.805   3.713  10.591 -0.3192 -0.4033 -0.6054
  186SAPI    HS21319   5.765   3.610  10.605 -3.7613  0.8784  0.0485
  186SAPI   O2121320   5.858   3.726  10.462  0.1450  0.1933 -0.4489
  186SAPI   C2121321   5.793   3.662  10.369  0.4290  0.1634  0.4474
  186SAPI   O2221322   5.679   3.615  10.379 -0.2199 -0.8320 -0.2737
  186SAPI   C2221323   5.883   3.655  10.245 -0.1226  0.2979  0.4230
  186SAPI   H2R21324   5.906   3.758  10.209  1.4765 -0.1389  0.0933
  186SAPI   H2S21325   5.982   3.619  10.281 -0.3103 -1.0095 -0.3004
  186SAPI    C321326   5.688   3.806  10.624  0.7939 -1.0321 -0.2541
  186SAPI    HX21327   5.660   3.806  10.732  1.2339  1.7433 -0.0718
  186SAPI    HY21328   5.600   3.779  10.561 -0.0006  0.8455 -0.0358
  186SAPI   O3121329   5.724   3.950  10.601 -0.8099  1.0877  0.3580
  186SAPI   C3121330   5.698   4.005  10.486  0.3065 -1.0890  0.2624
  186SAPI   O3221331   5.620   3.970  10.403 -0.0457 -0.5339 -0.5385
  186SAPI   C3221332   5.771   4.146  10.494 -0.2337  0.4234  0.8807
  186SAPI   H2X21333   5.874   4.115  10.518 -0.3972 -0.2071  0.7802
  186SAPI   H2Y21334   5.730   4.202  10.581 -1.4321  1.0592 -0.0408
  186SAPI   C2321335   5.853   3.557  10.135 -1.0539 -0.0306 -0.3625
  186SAPI   H3R21336   5.769   3.603  10.079 -0.2296  2.2496  0.1760
  186SAPI   H3S21337   5.823   3.459  10.178  2.3258 -1.7164 -1.4196
  186SAPI   C2421338   5.984   3.528  10.045 -0.6047 -0.2191  0.0089
  186SAPI   H4R21339   6.069   3.474  10.091 -0.4056  0.1999  0.1312
  186SAPI   H4S21340   6.021   3.625  10.007 -0.9924  0.5053  1.4180
  186SAPI   C2521341   5.927   3.439   9.932  0.5832 -0.8883 -0.0165
  186SAPI   H5R21342   5.870   3.354   9.973  1.5980 -1.3390  0.4965
  186SAPI   C2621343   5.927   3.461   9.806  0.2880 -0.3888  1.0990
  186SAPI   H6R21344   5.879   3.382   9.748  1.7688 -0.3644 -0.2003
  186SAPI   C2721345   5.993   3.566   9.720  0.0691 -0.5906 -0.0895
  186SAPI   H7R21346   6.074   3.523   9.657  0.0319  0.4505 -0.8800
  186SAPI   H7S21347   6.053   3.641   9.776  0.6508 -0.5808 -0.7057
  186SAPI   C2821348   5.888   3.633   9.644  0.1194 -0.9986  0.1703
  186SAPI   H8R21349   5.810   3.685   9.701  0.0277  2.2809 -2.5819
  186SAPI   C2921350   5.875   3.634   9.508 -0.1335 -0.9507  0.6423
  186SAPI   H9R21351   5.792   3.688   9.460 -1.2838 -2.6521  0.6375
  186SAPI  C21021352   5.973   3.574   9.401 -0.0095 -0.9089  0.4689
  186SAPI  H10R21353   6.079   3.605   9.400  0.1024 -1.0606 -3.0232
  186SAPI  H10S21354   5.925   3.616   9.310 -0.3471 -0.7648  0.7084
  186SAPI  C21121355   5.946   3.427   9.401 -0.5847 -0.0853 -0.3486
  186SAPI  H11R21356   5.927   3.367   9.492  0.2486  0.7367  0.3861
  186SAPI  C21221357   5.952   3.360   9.287  0.1391  0.3468 -0.2816
  186SAPI  H12R21358   5.927   3.253   9.293  1.2445  0.1003  0.1528
  186SAPI  C21321359   5.992   3.423   9.152 -0.0839  0.0937 -0.1132
  186SAPI  H13R21360   6.046   3.518   9.169  1.9326 -0.9289 -0.5235
  186SAPI  H13S21361   5.903   3.455   9.094 -0.8274 -1.1245  0.3161
  186SAPI  C21421362   6.079   3.329   9.075 -0.5022 -0.2441 -0.4799
  186SAPI  H14R21363   6.185   3.342   9.099  0.0200 -3.0537 -0.9648
  186SAPI  C21521364   6.040   3.241   8.974  0.4426  0.1734  0.0832
  186SAPI  H15R21365   6.115   3.198   8.907  1.0862  0.7416  0.4267
  186SAPI  C21621366   5.900   3.234   8.925 -0.9310  0.5551 -0.3425
  186SAPI  H16R21367   5.887   3.294   8.832  1.3048  1.2983 -0.2397
  186SAPI  H16S21368   5.825   3.284   8.990 -0.6101  0.2931  0.2421
  186SAPI  C21721369   5.854   3.091   8.898  0.4941  0.4572 -0.7539
  186SAPI  H17R21370   5.745   3.092   8.876  0.4638  0.4843 -0.6026
  186SAPI  H17S21371   5.884   3.022   8.980 -1.8629 -1.8787 -1.6927
  186SAPI  C21821372   5.939   3.029   8.781 -0.5095  0.3617  0.5831
  186SAPI  H18R21373   6.045   3.018   8.811 -0.2266 -1.3022 -0.8296
  186SAPI  H18S21374   5.931   3.094   8.692  0.4821 -0.0881  0.1511
  186SAPI  C21921375   5.886   2.895   8.738  0.2585 -0.0273 -0.1490
  186SAPI  H19R21376   5.883   2.828   8.826 -0.5254 -0.3215 -0.3838
  186SAPI  H19S21377   5.955   2.843   8.668  0.4216  0.8147 -0.6352
  186SAPI  C22021378   5.761   2.910   8.653  0.2909  0.4151  0.3575
  186SAPI  H20R21379   5.710   3.008   8.661  0.5616  0.6548 -0.7406
  186SAPI  H20S21380   5.677   2.841   8.676 -1.8202  2.5051 -0.6593
  186SAPI  H20T21381   5.785   2.895   8.545 -1.0656 -0.4026  0.1423
  186SAPI   C3321382   5.781   4.221  10.359  0.6727 -0.3151  0.1850
  186SAPI   H3X21383   5.830   4.319  10.380  0.7306 -0.3105  0.0221
  186SAPI   H3Y21384   5.679   4.233  10.316  0.1531  1.8380  1.8148
  186SAPI   C3421385   5.871   4.153  10.256 -0.3436  0.2870  0.0323
  186SAPI   H4X21386   5.916   4.069  10.313 -1.8948 -0.8562 -0.3769
  186SAPI   H4Y21387   5.954   4.223  10.232  0.7237 -0.9260  0.1207
  186SAPI   C3521388   5.801   4.106  10.126  0.0316  0.1505  0.1517
  186SAPI   H5X21389   5.728   4.183  10.093 -2.0523 -1.4448  0.8181
  186SAPI   H5Y21390   5.738   4.016  10.144  0.3227 -0.2020 -0.5624
  186SAPI   C3621391   5.898   4.084  10.012 -0.7307 -0.0882  0.3291
  186SAPI   H6X21392   5.961   3.994  10.026 -0.0139  0.2864 -0.4455
  186SAPI   H6Y21393   5.976   4.160   9.990 -0.5219 -0.3661  0.1081
  186SAPI   C3721394   5.820   4.039   9.885  0.0756 -0.4133 -0.3382
  186SAPI   H7X21395   5.764   4.130   9.854  0.2940  0.2957  1.2512
  186SAPI   H7Y21396   5.757   3.951   9.910 -3.2369  2.2206  1.4392
  186SAPI   C3821397   5.914   4.011   9.768  0.3645  0.5552 -0.3396
  186SAPI   H8X21398   5.980   3.925   9.793 -0.0202  0.0052 -1.1676
  186SAPI   H8Y21399   5.981   4.099   9.758 -1.1089  1.6625 -0.9160
  186SAPI   C3921400   5.821   3.993   9.646 -0.6312 -0.1225  0.5684
  186SAPI   H9X21401   5.753   4.078   9.625  1.7895  1.7904 -0.0452
  186SAPI   H9Y21402   5.768   3.896   9.652 -0.9237  0.0989  1.7783
  186SAPI  C31021403   5.908   3.985   9.518  0.0756  0.0938  0.3463
  186SAPI  H10X21404   5.967   3.891   9.515  0.1128  0.1102  0.5567
  186SAPI  H10Y21405   5.987   4.062   9.526 -0.2068  0.2647  1.7788
  186SAPI  C31121406   5.825   3.991   9.390  0.0956  0.2271  0.5798
  186SAPI  H11X21407   5.780   4.091   9.375  3.2612  1.5836 -0.6325
  186SAPI  H11Y21408   5.748   3.911   9.387  1.3651 -1.0845  1.6877
  186SAPI  C31221409   5.910   3.967   9.259  0.2087 -0.2016 -0.0086
  186SAPI  H12X21410   5.958   3.869   9.279  1.7472  0.9252  2.2284
  186SAPI  H12Y21411   5.986   4.045   9.277 -1.5016  1.5805 -0.1846
  186SAPI  C31321412   5.827   3.939   9.127  0.1624 -0.1466  0.3570
  186SAPI  H13X21413   5.751   4.020   9.120  0.5752  0.1497 -1.1075
  186SAPI  H13Y21414   5.777   3.841   9.137 -1.0084  0.2871 -0.9018
  186SAPI  C31421415   5.911   3.945   8.995 -0.9505  0.0744 -0.7897
  186SAPI  H14X21416   5.862   3.909   8.902 -0.0897  0.1154 -1.2624
  186SAPI  H14Y21417   6.002   3.888   9.021 -0.0113  2.1277  0.7167
  186SAPI  C31521418   5.986   4.078   8.977 -0.1597 -0.4362  0.7638
  186SAPI  H15X21419   6.031   4.118   9.071  1.8482 -3.0611  1.0087
  186SAPI  H15Y21420   5.918   4.154   8.933  0.7152  1.7123  2.8790
  186SAPI  C31621421   6.096   4.059   8.875 -0.6936 -0.2764  0.6544
  186SAPI  H16X21422   6.060   4.027   8.775  1.4540 -0.1688 -0.2110
  186SAPI  H16Y21423   6.174   3.988   8.912  1.7902  1.8520 -0.1760
  186SAPI  C31721424   6.192   4.184   8.863  0.1637 -0.3363  0.3726
  186SAPI  H17X21425   6.236   4.195   8.965 -0.9765 -0.3765  0.8838
  186SAPI  H17Y21426   6.136   4.279   8.842 -1.2323 -0.6750  2.2620
  186SAPI  C31821427   6.301   4.143   8.767 -0.1330  0.1091 -0.0961
  186SAPI  H18X21428   6.361   4.066   8.818 -0.6686 -1.0900 -1.2101
  186SAPI  H18Y21429   6.377   4.218   8.738  1.2784 -1.1137  0.3428
  186SAPI  H18Z21430   6.252   4.104   8.675  0.5114  2.6129 -1.5876
  187SAPI   C1221431   3.896   6.179   6.359 -0.0700 -0.2704  0.1530
  187SAPI    H221432   3.815   6.110   6.392  1.0123 -1.3589  0.5772
  187SAPI    O221433   3.967   6.213   6.481  0.0659  0.2950  0.1785
  187SAPI   HO221434   3.942   6.301   6.509 -2.3938 -0.2471 -0.1198
  187SAPI   C1321435   3.992   6.112   6.267  0.5544  0.4714  0.7310
  187SAPI    H321436   3.931   6.085   6.178  1.6056 -0.8236  0.3720
  187SAPI    O321437   4.037   5.987   6.323  0.3301 -0.4530  0.0186
  187SAPI   HO321438   4.077   6.027   6.401 -0.8853  1.6375 -0.3835
  187SAPI   C1421439   4.094   6.218   6.221  0.1200  0.0725  0.9028
  187SAPI    H421440   4.147   6.253   6.312  0.4639  1.3620  0.2258
  187SAPI    O421441   4.180   6.154   6.127 -0.9096  0.0773 -0.3640
  187SAPI   HO421442   4.163   6.193   6.041  2.8631  2.3426 -0.2992
  187SAPI   C1521443   4.029   6.334   6.154 -0.1682 -0.0620 -0.2397
  187SAPI    H521444   3.961   6.304   6.071 -1.8789  1.1827  0.6552
  187SAPI    O521445   4.132   6.428   6.112  0.0369 -0.5401  0.3099
  187SAPI   HO521446   4.203   6.437   6.177  0.4781 -0.6429 -0.1464
  187SAPI   C1621447   3.934   6.402   6.257  0.8989  0.1647 -0.3645
  187SAPI    H621448   3.987   6.440   6.347  0.8050 -1.2535  0.3231
  187SAPI    O621449   3.865   6.514   6.196 -0.1559  0.1977 -0.3682
  187SAPI   HO621450   3.820   6.482   6.117  0.7914 -0.6815 -0.5749
  187SAPI   C1121451   3.824   6.303   6.303 -0.3357 -0.3135 -0.1720
  187SAPI    H121452   3.768   6.262   6.216  0.4581 -0.1782 -0.7569
  187SAPI     P21453   3.586   6.290   6.426 -0.0162 -0.1412 -0.0478
  187SAPI   O1321454   3.543   6.238   6.293 -0.0874  0.3396 -0.5042
  187SAPI   O1421455   3.502   6.391   6.493 -0.0196 -0.2038  0.0860
  187SAPI   O1221456   3.736   6.360   6.404 -0.1491 -0.0976  0.2636
  187SAPI   O1121457   3.615   6.161   6.515 -0.1008  0.1787  0.5169
  187SAPI    C121458   3.538   6.140   6.637 -0.1633 -0.1072  0.1941
  187SAPI    HA21459   3.440   6.190   6.632 -0.0434  1.1805  5.3186
  187SAPI    HB21460   3.519   6.030   6.636 -1.2627  0.0764 -0.2056
  187SAPI    C221461   3.617   6.190   6.760 -0.7624 -0.2743  0.3241
  187SAPI    HS21462   3.644   6.296   6.743  0.7506 -0.5920  0.5532
  187SAPI   O2121463   3.745   6.110   6.779  0.3712  0.1579  0.7342
  187SAPI   C2121464   3.851   6.186   6.788 -0.7276  0.2567  0.7081
  187SAPI   O2221465   3.851   6.312   6.790 -0.1025 -0.1367 -0.0296
  187SAPI   C2221466   3.967   6.098   6.797  0.0859  1.4288 -0.1668
  187SAPI   H2R21467   3.931   5.996   6.823  1.5812  1.1397  0.9121
  187SAPI   H2S21468   4.019   6.090   6.699 -0.2687 -3.1134 -0.2064
  187SAPI    C321469   3.529   6.179   6.883  0.9508  0.1476 -0.1417
  187SAPI    HX21470   3.519   6.069   6.891  1.2471  0.0464 -1.0580
  187SAPI    HY21471   3.431   6.228   6.866  0.3557 -1.1544 -0.6130
  187SAPI   O3121472   3.587   6.228   7.007 -0.5386 -0.0293 -0.2216
  187SAPI   C3121473   3.591   6.360   7.020  0.3832 -0.2751 -0.7517
  187SAPI   O3221474   3.534   6.445   6.954  0.1250  0.0117  0.3059
  187SAPI   C3221475   3.679   6.399   7.145  0.2105  0.4640  0.1462
  187SAPI   H2X21476   3.647   6.500   7.179 -2.5276  0.5853 -2.3380
  187SAPI   H2Y21477   3.773   6.424   7.093 -1.6304  1.6655 -2.8887
  187SAPI   C2321478   4.067   6.142   6.913  0.6472 -0.6551 -0.1452
  187SAPI   H3R21479   4.129   6.225   6.873 -1.1764  1.6623  1.5736
  187SAPI   H3S21480   4.143   6.061   6.922 -0.6096 -2.1106 -1.9299
  187SAPI   C2421481   4.009   6.187   7.053  0.6599  0.1794  0.3486
  187SAPI   H4R21482   3.927   6.258   7.026  1.5112  1.3048  0.6150
  187SAPI   H4S21483   4.093   6.245   7.098  2.5529 -1.0851 -1.3797
  187SAPI   C2521484   3.960   6.063   7.126  0.5909 -0.0859  0.2443
  187SAPI   H5R21485   3.863   6.022   7.095  0.0298  2.2003 -1.3320
  187SAPI   C2621486   4.028   6.005   7.222  0.0146  0.1255  0.6249
  187SAPI   H6R21487   4.006   5.904   7.259  0.9874 -0.2321  0.2536
  187SAPI   C2721488   4.167   6.046   7.261 -0.0005  0.7171  0.0631
  187SAPI   H7R21489   4.221   6.077   7.169  0.5776 -2.4423 -0.7935
  187SAPI   H7S21490   4.220   5.953   7.291 -1.0702  0.0181 -0.1583
  187SAPI   C2821491   4.169   6.154   7.363 -0.8007 -0.3805  0.4813
  187SAPI   H8R21492   4.187   6.255   7.321  1.3716 -0.7628  0.3733
  187SAPI   C2921493   4.156   6.135   7.494  0.1391 -0.4882 -0.7938
  187SAPI   H9R21494   4.151   6.221   7.561 -0.7234 -1.9701  1.1332
  187SAPI  C21021495   4.155   6.002   7.566 -0.1033 -0.9315 -0.2272
  187SAPI  H10R21496   4.085   5.929   7.523 -0.6807 -0.0355 -0.8422
  187SAPI  H10S21497   4.127   6.036   7.668  1.9307  2.1014 -0.5267
  187SAPI  C21121498   4.282   5.918   7.567  0.7211 -0.0661  0.2138
  187SAPI  H11R21499   4.340   5.938   7.476 -0.3861  0.3968 -0.4056
  187SAPI  C21221500   4.331   5.851   7.670 -0.0285  0.1570  0.2987
  187SAPI  H12R21501   4.424   5.795   7.649  2.3617  3.3282  1.6181
  187SAPI  C21321502   4.258   5.838   7.800 -0.7210  0.4542 -0.0301
  187SAPI  H13R21503   4.163   5.896   7.805 -0.5677  0.5985  2.1053
  187SAPI  H13S21504   4.321   5.894   7.872 -0.9260  2.2470 -1.1688
  187SAPI  C21421505   4.236   5.693   7.850 -0.3520  0.7082 -0.2769
  187SAPI  H14R21506   4.164   5.637   7.788 -0.1735  0.1907 -0.0192
  187SAPI  C21521507   4.318   5.627   7.938 -0.4557  0.3430 -0.2333
  187SAPI  H15R21508   4.287   5.526   7.968 -0.5993  0.1978 -0.8521
  187SAPI  C21621509   4.447   5.679   8.002  0.1914  0.0823 -0.8689
  187SAPI  H16R21510   4.495   5.759   7.942  0.7435  1.4905  1.3166
  187SAPI  H16S21511   4.521   5.598   8.016  0.4381  0.6716  1.8313
  187SAPI  C21721512   4.430   5.746   8.141  0.1366  0.6830 -0.7618
  187SAPI  H17R21513   4.363   5.834   8.137 -0.8173  0.1867  2.0144
  187SAPI  H17S21514   4.532   5.775   8.175  1.0824  0.1202 -2.9825
  187SAPI  C21821515   4.375   5.655   8.249 -0.6460  0.1017  0.4258
  187SAPI  H18R21516   4.444   5.569   8.267 -1.7210 -0.5940  1.2918
  187SAPI  H18S21517   4.280   5.603   8.223  0.0911 -1.4916  0.7824
  187SAPI  C21921518   4.360   5.733   8.389 -0.6752 -0.3053 -0.1390
  187SAPI  H19R21519   4.279   5.806   8.369 -2.0884 -2.3168 -2.1928
  187SAPI  H19S21520   4.449   5.797   8.410 -1.1595  0.2216  0.3317
  187SAPI  C22021521   4.327   5.652   8.511  0.0506  0.4524  0.6902
  187SAPI  H20R21522   4.407   5.580   8.535  0.1355 -0.5877 -2.2902
  187SAPI  H20S21523   4.235   5.590   8.503  1.0364 -1.0219  0.3746
  187SAPI  H20T21524   4.328   5.725   8.595 -1.0469  0.1983  0.9451
  187SAPI   C3321525   3.680   6.308   7.269 -0.0957 -0.0401 -0.5541
  187SAPI   H3X21526   3.727   6.213   7.235  0.8240  0.4365 -0.6670
  187SAPI   H3Y21527   3.581   6.285   7.314  0.2216  2.1583  1.5021
  187SAPI   C3421528   3.770   6.371   7.384  0.0767  0.5112  0.0119
  187SAPI   H4X21529   3.737   6.475   7.402 -1.4962 -0.0980  0.9404
  187SAPI   H4Y21530   3.872   6.360   7.341 -0.7256 -1.4814 -1.5583
  187SAPI   C3521531   3.765   6.290   7.521  0.5836  0.6198  0.8854
  187SAPI   H5X21532   3.774   6.182   7.494  0.1791  0.9036 -0.4677
  187SAPI   H5Y21533   3.661   6.297   7.559  0.8330 -1.9422  2.2745
  187SAPI   C3621534   3.865   6.341   7.622 -0.0720 -0.3572  0.2727
  187SAPI   H6X21535   3.837   6.447   7.642 -2.6749 -0.7842 -0.7537
  187SAPI   H6Y21536   3.968   6.345   7.581  0.7280 -1.9990  1.9884
  187SAPI   C3721537   3.854   6.254   7.747  0.1806 -0.6610 -0.6277
  187SAPI   H7X21538   3.844   6.148   7.713  0.2740 -0.3528 -1.6357
  187SAPI   H7Y21539   3.758   6.282   7.795 -0.8708 -1.8211 -1.9423
  187SAPI   C3821540   3.980   6.268   7.834  0.2965  0.3775 -0.1540
  187SAPI   H8X21541   3.995   6.378   7.839 -0.8597  0.5704 -0.5571
  187SAPI   H8Y21542   4.067   6.215   7.789 -2.2501 -4.8807  0.2751
  187SAPI   C3921543   3.955   6.226   7.980  0.0497  0.3327 -0.1399
  187SAPI   H9X21544   3.930   6.118   7.967  0.2092  0.3375 -0.5129
  187SAPI   H9Y21545   3.868   6.280   8.024 -0.2173 -0.8939  0.9102
  187SAPI  C31021546   4.072   6.236   8.077  0.0221  0.2290 -0.7416
  187SAPI  H10X21547   4.047   6.210   8.182  1.9635  1.1182 -0.0036
  187SAPI  H10Y21548   4.100   6.344   8.077  0.4667  0.1217 -1.6521
  187SAPI  C31121549   4.198   6.161   8.026 -0.0231  0.1024  0.6115
  187SAPI  H11X21550   4.250   6.225   7.951  0.8473  0.4451  1.4928
  187SAPI  H11Y21551   4.169   6.068   7.972 -0.7869 -0.0053  1.1928
  187SAPI  C31221552   4.298   6.144   8.144  0.2993  0.0556  0.4728
  187SAPI  H12X21553   4.376   6.082   8.095 -0.9187 -0.6065 -0.6990
  187SAPI  H12Y21554   4.246   6.087   8.225  0.2146  0.9966  1.0991
  187SAPI  C31321555   4.355   6.272   8.197  0.5392  0.0581 -0.0672
  187SAPI  H13X21556   4.285   6.327   8.264 -0.6191  1.3523 -2.2164
  187SAPI  H13Y21557   4.371   6.333   8.105  1.7544  1.4870  1.0349
  187SAPI  C31421558   4.495   6.269   8.277  0.6192 -0.1512  0.4157
  187SAPI  H14X21559   4.515   6.367   8.326  0.6441  0.3166 -0.5145
  187SAPI  H14Y21560   4.576   6.246   8.204 -0.9814 -0.0616 -1.4500
  187SAPI  C31521561   4.485   6.164   8.387 -0.1913  0.5851  0.2462
  187SAPI  H15X21562   4.488   6.063   8.341  1.4135  0.2877  0.9359
  187SAPI  H15Y21563   4.388   6.168   8.440  0.1777 -0.3226  1.0367
  187SAPI  C31621564   4.594   6.170   8.490  0.2436 -0.2834 -0.0916
  187SAPI  H16X21565   4.582   6.269   8.539  0.4819 -0.0346 -0.5285
  187SAPI  H16Y21566   4.697   6.168   8.448  0.8604 -1.7254  1.3479
  187SAPI  C31721567   4.594   6.064   8.603 -0.1711  0.9953 -0.8151
  187SAPI  H17X21568   4.599   5.960   8.564  2.4239  0.2569  1.1904
  187SAPI  H17Y21569   4.501   6.085   8.660 -0.0278  1.2959 -0.6891
  187SAPI  C31821570   4.704   6.079   8.713 -0.4844  0.2618  0.3914
  187SAPI  H18X21571   4.682   6.162   8.784 -1.6443  0.1721  0.1680
  187SAPI  H18Y21572   4.796   6.119   8.666 -2.7238  0.4154 -4.4858
  187SAPI  H18Z21573   4.724   5.990   8.777  2.5094 -0.7555 -1.7339
  188SAPI   C1221574   3.560   3.486   6.474 -0.6793  0.4358 -0.3314
  188SAPI    H221575   3.578   3.533   6.573 -2.2600  2.7414 -1.0537
  188SAPI    O221576   3.458   3.385   6.494  0.5331 -0.0225 -0.0465
  188SAPI   HO221577   3.488   3.321   6.559  0.1434 -0.0684  0.0887
  188SAPI   C1321578   3.522   3.583   6.367 -0.5351 -0.2342  0.5167
  188SAPI    H321579   3.610   3.647   6.345 -1.7142  1.2222 -0.1281
  188SAPI    O321580   3.409   3.658   6.409  0.1970  0.0258 -0.0898
  188SAPI   HO321581   3.437   3.740   6.451  3.0546 -0.1568 -1.4321
  188SAPI   C1421582   3.495   3.515   6.235 -0.2054  0.0017  0.2828
  188SAPI    H421583   3.401   3.459   6.252  0.1676 -0.6784  0.1438
  188SAPI    O421584   3.464   3.610   6.132  0.1522 -0.2153 -0.2161
  188SAPI   HO421585   3.369   3.624   6.132  0.1695 -0.0966 -0.3754
  188SAPI   C1521586   3.617   3.434   6.200 -0.4173  0.1931 -0.2643
  188SAPI    H521587   3.699   3.504   6.172 -0.7156 -0.2796 -2.4228
  188SAPI    O521588   3.587   3.356   6.088 -0.2677 -0.1936  0.4336
  188SAPI   HO521589   3.671   3.317   6.064 -0.9074 -1.4499  0.1254
  188SAPI   C1621590   3.677   3.343   6.306 -0.3357 -0.1654 -0.3711
  188SAPI    H621591   3.607   3.258   6.320 -0.2864  0.0543  1.4165
  188SAPI    O621592   3.805   3.304   6.266 -0.5750  0.3448  0.2008
  188SAPI   HO621593   3.854   3.266   6.340  0.8099  0.2740 -0.6995
  188SAPI   C1121594   3.694   3.410   6.444  0.9042 -0.3342  0.0999
  188SAPI    H121595   3.783   3.476   6.443  1.5810 -1.2398 -0.8269
  188SAPI     P21596   3.856   3.243   6.592  0.0536  0.1071  0.0691
  188SAPI   O1321597   3.900   3.303   6.716  0.4792 -0.6611 -0.0488
  188SAPI   O1421598   3.941   3.251   6.471 -0.4568  0.1099 -0.3119
  188SAPI   O1221599   3.711   3.314   6.546 -0.1168  0.5030  0.1511
  188SAPI   O1121600   3.823   3.095   6.618 -0.2472  0.3142  0.0651
  188SAPI    C121601   3.774   3.003   6.521 -0.2210 -0.4469 -0.1782
  188SAPI    HA21602   3.819   3.021   6.421 -2.6067 -0.2438 -1.2742
  188SAPI    HB21603   3.812   2.901   6.542 -3.5260 -1.1307  3.6901
  188SAPI    C221604   3.620   3.004   6.503  0.0237  0.3169  0.5048
  188SAPI    HS21605   3.587   3.107   6.475 -0.1248  0.0205 -0.4340
  188SAPI   O2121606   3.557   2.961   6.621 -0.1480  0.7515  0.5973
  188SAPI   C2121607   3.523   3.052   6.707 -0.2717 -0.7316 -0.7462
  188SAPI   O2221608   3.492   3.172   6.676  0.1958  0.9389 -0.1332
  188SAPI   C2221609   3.533   2.984   6.852 -0.0952 -0.5892 -0.4792
  188SAPI   H2R21610   3.449   2.911   6.854  0.3634 -1.1237 -0.5583
  188SAPI   H2S21611   3.631   2.935   6.869  0.6666  0.8576 -0.6283
  188SAPI    C321612   3.580   2.897   6.391 -0.3138 -0.1505  0.2817
  188SAPI    HX21613   3.642   2.927   6.303  0.4465 -1.6211  0.2950
  188SAPI    HY21614   3.475   2.912   6.357 -0.0952  1.7335  0.2790
  188SAPI   O3121615   3.613   2.759   6.424 -0.6386 -0.4291  0.2233
  188SAPI   C3121616   3.515   2.678   6.444 -0.2434  0.5065 -0.0299
  188SAPI   O3221617   3.397   2.709   6.432 -0.1893 -0.3059 -0.7766
  188SAPI   C3221618   3.565   2.539   6.468 -0.4459  0.3514  0.1888
  188SAPI   H2X21619   3.623   2.497   6.383 -2.1362  0.1590 -0.9150
  188SAPI   H2Y21620   3.480   2.468   6.475 -0.0998 -0.2866 -1.5201
  188SAPI   C2321621   3.529   3.084   6.973  0.1235 -0.0319 -0.3156
  188SAPI   H3R21622   3.465   3.045   7.055  0.5700 -0.9267 -0.3796
  188SAPI   H3S21623   3.489   3.181   6.938 -0.1260  0.6839  1.7836
  188SAPI   C2421624   3.673   3.105   7.034  0.6204 -0.0294  0.2159
  188SAPI   H4R21625   3.741   3.116   6.946 -1.2163  1.5056 -1.0959
  188SAPI   H4S21626   3.706   3.015   7.090  0.0472 -0.8067 -0.6576
  188SAPI   C2521627   3.655   3.229   7.120 -0.0425 -0.2171  0.3336
  188SAPI   H5R21628   3.597   3.306   7.068 -1.0290 -0.4999  0.9895
  188SAPI   C2621629   3.702   3.257   7.240 -0.6019  1.0549 -0.4097
  188SAPI   H6R21630   3.683   3.354   7.288  0.1416  0.3606  1.3970
  188SAPI   C2721631   3.789   3.166   7.325  0.3349  0.6670  0.3952
  188SAPI   H7R21632   3.806   3.062   7.289  0.9364  0.7651  0.3933
  188SAPI   H7S21633   3.733   3.150   7.420 -2.3146 -1.7201 -1.4102
  188SAPI   C2821634   3.923   3.235   7.333  0.7013 -0.1849 -0.2449
  188SAPI   H8R21635   3.974   3.256   7.237  0.5841  2.5959  0.2035
  188SAPI   C2921636   3.967   3.295   7.448 -0.1208  0.8158 -1.1083
  188SAPI   H9R21637   4.069   3.336   7.445  0.0907  0.3368 -0.6212
  188SAPI  C21021638   3.899   3.302   7.580  0.1545  0.2039 -0.2773
  188SAPI  H10R21639   3.988   3.293   7.645  1.3445  2.4765 -1.4789
  188SAPI  H10S21640   3.833   3.214   7.597  0.8460 -1.3957 -4.5822
  188SAPI  C21121641   3.830   3.430   7.596  0.1668  0.4189 -0.9646
  188SAPI  H11R21642   3.779   3.470   7.507  0.7381  1.7117 -0.7297
  188SAPI  C21221643   3.832   3.506   7.708  0.5050 -0.4091  0.2692
  188SAPI  H12R21644   3.773   3.599   7.704  1.2928  0.0936 -0.0036
  188SAPI  C21321645   3.911   3.476   7.830 -0.9267  0.0381  0.4077
  188SAPI  H13R21646   3.950   3.575   7.865  3.0577 -1.0447 -0.4188
  188SAPI  H13S21647   4.009   3.427   7.809 -0.1590  1.5113  0.3646
  188SAPI  C21421648   3.834   3.397   7.925 -0.4801  0.5598 -0.3051
  188SAPI  H14R21649   3.785   3.312   7.876  1.2445  0.5348 -2.1232
  188SAPI  C21521650   3.821   3.423   8.056  0.1847 -0.1082 -0.2446
  188SAPI  H15R21651   3.761   3.354   8.117  1.4643 -0.7055  0.3902
  188SAPI  C21621652   3.890   3.530   8.140  0.0608  0.7050 -0.0710
  188SAPI  H16R21653   3.811   3.588   8.192 -1.8167 -1.9298  0.1990
  188SAPI  H16S21654   3.962   3.581   8.072  1.4745 -1.3290 -0.1961
  188SAPI  C21721655   3.981   3.475   8.248  0.2907 -0.6662 -0.6388
  188SAPI  H17R21656   4.021   3.559   8.309 -1.1660  1.5859 -2.6188
  188SAPI  H17S21657   4.074   3.436   8.202  0.8081  0.6767 -0.7561
  188SAPI  C21821658   3.919   3.372   8.347  0.7282 -0.6721  0.0463
  188SAPI  H18R21659   3.933   3.269   8.307  1.0304 -0.8598  0.6236
  188SAPI  H18S21660   3.812   3.397   8.356  0.5697 -1.6622  1.1709
  188SAPI  C21921661   3.967   3.374   8.496  0.5441 -0.1499  0.5615
  188SAPI  H19R21662   3.911   3.295   8.550 -0.3597 -0.7791 -1.2360
  188SAPI  H19S21663   3.930   3.466   8.547 -1.4048 -0.9619  0.6818
  188SAPI  C22021664   4.120   3.363   8.518  0.4642 -0.0379  0.1762
  188SAPI  H20R21665   4.153   3.262   8.485 -0.6244  0.1315 -1.5852
  188SAPI  H20S21666   4.147   3.374   8.625 -2.5306 -1.5353  1.2068
  188SAPI  H20T21667   4.170   3.443   8.460 -2.4539 -0.9310 -4.0433
  188SAPI   C3321668   3.653   2.533   6.597  0.6161  0.7464 -0.4664
  188SAPI   H3X21669   3.749   2.585   6.577  0.1002  2.0225  0.2263
  188SAPI   H3Y21670   3.667   2.427   6.624  0.8485  0.9549  0.2376
  188SAPI   C3421671   3.579   2.597   6.711  0.3387 -0.1014  0.2498
  188SAPI   H4X21672   3.476   2.558   6.724 -0.2333  1.5913  1.0494
  188SAPI   H4Y21673   3.583   2.708   6.710  1.3688 -0.1322  0.2224
  188SAPI   C3521674   3.661   2.558   6.839  1.1696  0.0669 -0.1530
  188SAPI   H5X21675   3.770   2.574   6.832  0.9616  1.0742 -1.6729
  188SAPI   H5Y21676   3.657   2.449   6.860  0.1076  0.5227  2.4277
  188SAPI   C3621677   3.609   2.634   6.963  0.6494  0.3139 -0.3436
  188SAPI   H6X21678   3.499   2.626   6.977  0.6409  0.7158 -0.1765
  188SAPI   H6Y21679   3.638   2.740   6.950 -0.7829  0.7915  0.1353
  188SAPI   C3721680   3.661   2.578   7.095  0.8993 -0.2927  0.3252
  188SAPI   H7X21681   3.766   2.541   7.093  0.6769 -0.9567  0.4352
  188SAPI   H7Y21682   3.612   2.482   7.122 -0.2654 -0.0154 -0.7709
  188SAPI   C3821683   3.663   2.680   7.216  0.6365  0.3991 -0.3134
  188SAPI   H8X21684   3.727   2.771   7.209  0.7013  0.3171 -0.8082
  188SAPI   H8Y21685   3.696   2.627   7.308  0.0910 -0.2526 -0.4933
  188SAPI   C3921686   3.519   2.743   7.242 -0.5343 -0.1159  0.3655
  188SAPI   H9X21687   3.462   2.654   7.277 -0.7670  0.5284  1.6871
  188SAPI   H9Y21688   3.484   2.779   7.143 -3.2253 -0.1591  1.2287
  188SAPI  C31021689   3.507   2.855   7.346 -0.6209  0.2445  0.5766
  188SAPI  H10X21690   3.400   2.879   7.367 -0.9328 -0.0999 -0.5441
  188SAPI  H10Y21691   3.535   2.947   7.289 -0.1082 -1.1991 -1.6200
  188SAPI  C31121692   3.585   2.832   7.474  0.1914  0.6932 -0.4621
  188SAPI  H11X21693   3.692   2.829   7.446  0.6169 -0.0300  1.1143
  188SAPI  H11Y21694   3.558   2.739   7.529 -1.7840  1.6186  0.2536
  188SAPI  C31221695   3.561   2.950   7.569  1.1162 -0.9474 -0.2658
  188SAPI  H12X21696   3.453   2.944   7.598  0.6932  2.4772 -0.6947
  188SAPI  H12Y21697   3.578   3.047   7.518  1.5520 -0.4159  0.8479
  188SAPI  C31321698   3.669   2.954   7.677  0.0849 -0.5215 -0.2112
  188SAPI  H13X21699   3.768   2.972   7.629  0.9870 -1.9015  1.0318
  188SAPI  H13Y21700   3.680   2.853   7.722  2.2300 -0.0183  0.5491
  188SAPI  C31421701   3.647   3.072   7.774 -0.2597  0.3945 -0.2488
  188SAPI  H14X21702   3.639   3.159   7.706 -0.9045  1.0283  0.6215
  188SAPI  H14Y21703   3.733   3.086   7.844 -0.5904 -0.5548  0.3723
  188SAPI  C31521704   3.529   3.049   7.873 -0.5778 -0.3736  0.0074
  188SAPI  H15X21705   3.563   2.960   7.929  3.3694  0.9995  0.0512
  188SAPI  H15Y21706   3.435   3.025   7.819 -2.0889 -0.5689  2.5348
  188SAPI  C31621707   3.489   3.167   7.964 -0.3449  0.1662  0.2157
  188SAPI  H16X21708   3.437   3.249   7.911  0.6242  0.7034  0.0775
  188SAPI  H16Y21709   3.591   3.199   7.993  1.4005 -0.7862 -4.0288
  188SAPI  C31721710   3.420   3.127   8.100  0.2222  0.0340  0.5884
  188SAPI  H17X21711   3.423   3.214   8.169 -3.3471  1.0945 -0.3522
  188SAPI  H17Y21712   3.474   3.036   8.134 -0.8314 -1.0875 -0.6218
  188SAPI  C31821713   3.279   3.085   8.066 -0.5310  0.3120 -0.1593
  188SAPI  H18X21714   3.228   3.038   8.153 -1.1557 -2.5276 -1.9161
  188SAPI  H18Y21715   3.289   3.011   7.983 -1.3544  0.6724 -0.5938
  188SAPI  H18Z21716   3.223   3.171   8.024  0.4259 -0.7704 -4.1290
  189POPC     N21717   3.448   3.128  11.224 -0.0263 -0.2539  0.3070
  189POPC   C1221718   3.453   3.213  11.099  0.0507  0.4041 -0.3722
  189POPC  H12A21719   3.530   3.167  11.039 -0.4966  0.3227 -1.0243
  189POPC  H12B21720   3.489   3.314  11.117 -0.1784  0.4613 -0.2247
  189POPC   C1321721   3.583   3.109  11.274  0.1763  0.3945 -0.3812
  189POPC  H13A21722   3.629   3.197  11.318  1.1496  0.7542 -2.0261
  189POPC  H13B21723   3.584   3.031  11.349  1.3343  0.3381 -0.4313
  189POPC  H13C21724   3.650   3.070  11.198 -0.2810  1.2875 -1.2620
  189POPC   C1421725   3.356   3.196  11.325  0.3707  0.1648 -0.4319
  189POPC  H14A21726   3.254   3.215  11.297  0.5690  2.1066  0.0390
  189POPC  H14B21727   3.380   3.162  11.424  2.6969  1.7893 -0.3420
  189POPC  H14C21728   3.393   3.298  11.328 -0.7734  0.6331 -1.5051
  189POPC   C1521729   3.389   2.998  11.194 -0.8073  0.6065  0.1610
  189POPC  H15A21730   3.380   2.944  11.287  0.3853  3.2139  1.9243
  189POPC  H15B21731   3.451   2.931  11.137  2.1628  1.6277  1.9586
  189POPC  H15C21732   3.294   2.999  11.143 -0.3750  0.3729 -0.6595
  189POPC   C1121733   3.327   3.241  11.018  0.0000 -0.0950 -0.2116
  189POPC  H11A21734   3.354   3.318  10.942  2.4591  0.3073  0.9657
  189POPC  H11B21735   3.252   3.288  11.084 -1.3340 -1.7346 -0.4924
  189POPC     P21736   3.116   3.110  10.924 -0.2047 -0.1914  0.3218
  189POPC   O1321737   3.043   3.118  11.052 -0.0151 -0.0351  0.5990
  189POPC   O1421738   3.083   2.994  10.840  0.3025  0.2348 -0.3347
  189POPC   O1221739   3.272   3.127  10.958 -0.1334  0.2128 -0.5953
  189POPC   O1121740   3.096   3.239  10.839  0.2994  0.1894  0.5000
  189POPC    C121741   3.152   3.247  10.711 -0.3618 -0.2060  0.0059
  189POPC    HA21742   3.228   3.171  10.683  0.9180  0.9381  0.2792
  189POPC    HB21743   3.211   3.341  10.712 -0.4737 -0.0866 -1.7183
  189POPC    C221744   3.041   3.244  10.593  0.0912  0.0266 -0.0278
  189POPC    HS21745   2.962   3.177  10.633  0.5027 -0.4133  0.0669
  189POPC   O2121746   3.114   3.216  10.474  0.0066 -0.0733 -0.3314
  189POPC   C2121747   3.052   3.111  10.406 -0.1843  0.1238  0.8902
  189POPC   O2221748   2.963   3.040  10.445 -0.5098 -0.1067  0.4051
  189POPC   C2221749   3.114   3.094  10.266  0.4119 -0.4864 -0.6492
  189POPC   H2R21750   3.074   2.995  10.235  0.3797 -0.6740 -0.0290
  189POPC   H2S21751   3.225   3.082  10.263  0.3314 -1.2113 -1.1900
  189POPC    C321752   2.978   3.383  10.567 -0.4577  0.1750  0.0285
  189POPC    HX21753   3.059   3.451  10.533 -0.4726  0.4850  0.6039
  189POPC    HY21754   2.939   3.428  10.661 -0.1139  3.1920 -1.1715
  189POPC   O3121755   2.880   3.380  10.463  0.2989  0.4737 -0.3487
  189POPC   C3121756   2.766   3.446  10.471 -0.3524  0.6378  0.3953
  189POPC   O3221757   2.737   3.520  10.559  0.2096 -0.0429  0.0673
  189POPC   C3221758   2.678   3.408  10.350 -0.6639  0.4215  0.3122
  189POPC   H2X21759   2.578   3.394  10.397 -0.6416  3.0419  1.3245
  189POPC   H2Y21760   2.716   3.316  10.301  1.2791  1.6724 -0.6428
  189POPC   C2321761   3.073   3.200  10.169  0.0589 -0.2610  0.1103
  189POPC   H3R21762   3.105   3.303  10.194 -0.6677  0.5551 -2.0426
  189POPC   H3S21763   2.962   3.212  10.173 -0.0721 -0.7527 -1.2830
  189POPC   C2421764   3.126   3.172  10.027 -0.3045  0.4533 -0.2362
  189POPC   H4R21765   3.071   3.082   9.993 -1.3538  0.4156  1.4404
  189POPC   H4S21766   3.236   3.159  10.024 -0.2510  0.9952 -3.1541
  189POPC   C2521767   3.097   3.289   9.933 -0.5850 -0.2386  0.2336
  189POPC   H5R21768   3.146   3.383   9.967 -2.7696  1.2572 -0.5675
  189POPC   H5S21769   2.990   3.316   9.920 -0.6914  0.4620  2.1263
  189POPC   C2621770   3.153   3.277   9.791 -0.0952 -0.4404 -0.5878
  189POPC   H6R21771   3.130   3.175   9.753 -0.9449 -0.6394  0.4236
  189POPC   H6S21772   3.264   3.279   9.787 -0.0629 -0.2447  0.3592
  189POPC   C2721773   3.099   3.384   9.689  0.0726  0.1488  0.5174
  189POPC   H7R21774   3.144   3.481   9.722  1.6937 -0.3669 -0.0703
  189POPC   H7S21775   2.989   3.385   9.704  0.1410  0.6290  1.0422
  189POPC   C2821776   3.134   3.353   9.543 -0.1070  0.5507  0.4571
  189POPC   H8R21777   3.093   3.252   9.521  0.9504 -0.2004  1.7812
  189POPC   H8S21778   3.245   3.348   9.537 -0.0524 -0.6987  1.9284
  189POPC   C2921779   3.086   3.440   9.428 -0.2107 -0.6670 -0.0101
  189POPC   H9121780   2.988   3.485   9.448 -1.0614 -1.8129 -1.3444
  189POPC  C21021781   3.142   3.486   9.318 -0.0934  0.2123  0.1420
  189POPC  H10121782   3.080   3.556   9.259 -2.4855 -0.9762  1.0815
  189POPC  C21121783   3.276   3.441   9.275 -0.8058 -0.4896  0.3307
  189POPC  H11R21784   3.318   3.370   9.349 -3.1086 -3.0002 -0.6178
  189POPC  H11S21785   3.325   3.541   9.282 -2.2354  0.5429 -2.6565
  189POPC  C21221786   3.291   3.384   9.134 -0.0824  0.0467 -0.7858
  189POPC  H12R21787   3.207   3.314   9.115  0.6083 -1.3417  0.9079
  189POPC  H12S21788   3.387   3.329   9.119  0.6847  1.4776 -1.2528
  189POPC  C21321789   3.303   3.502   9.030 -0.1492 -0.2325 -0.3918
  189POPC  H13R21790   3.374   3.583   9.060 -0.6215 -0.1013  0.4115
  189POPC  H13S21791   3.208   3.560   9.030  0.0404  0.1578 -2.3742
  189POPC  C21421792   3.341   3.464   8.887  0.2106  0.6519 -0.3702
  189POPC  H14R21793   3.266   3.395   8.843  0.3785  0.5669 -0.5240
  189POPC  H14S21794   3.439   3.413   8.899 -1.4865 -2.4049  1.9517
  189POPC  C21521795   3.331   3.584   8.795 -0.7523  0.9119  0.7234
  189POPC  H15R21796   3.392   3.664   8.842 -0.7826  0.8371  0.8932
  189POPC  H15S21797   3.222   3.605   8.794 -1.2479 -1.2363 -1.4651
  189POPC  C21621798   3.395   3.565   8.659  0.4873  0.2378 -0.3741
  189POPC  H16R21799   3.376   3.657   8.600  0.8340  1.2202  0.9799
  189POPC  H16S21800   3.343   3.476   8.617  1.1139 -0.2103 -0.2259
  189POPC  C21721801   3.550   3.545   8.669 -0.3498 -0.1274  0.4326
  189POPC  H17R21802   3.575   3.446   8.712 -2.1775 -0.2925  1.1869
  189POPC  H17S21803   3.597   3.629   8.725  1.8616  0.2966 -1.8654
  189POPC  C21821804   3.619   3.556   8.535 -0.3119  0.4628  0.3903
  189POPC  H18R21805   3.618   3.453   8.493  0.7556 -0.4871  2.5512
  189POPC  H18S21806   3.725   3.586   8.543 -0.8020  2.4459  0.0648
  189POPC  H18T21807   3.566   3.626   8.466  0.3903 -0.9972 -1.7348
  189POPC   C3321808   2.674   3.518  10.243  0.3503  0.3156  0.0020
  189POPC   H3X21809   2.665   3.620  10.286 -0.9002  0.7487 -1.1924
  189POPC   H3Y21810   2.585   3.496  10.181 -0.0471 -0.2483  0.7501
  189POPC   C3421811   2.794   3.515  10.153 -0.1307 -0.8277 -0.3127
  189POPC   H4X21812   2.777   3.425  10.090 -1.7076  1.5483 -3.5274
  189POPC   H4Y21813   2.884   3.521  10.218 -2.0654 -3.5060  2.9214
  189POPC   C3521814   2.800   3.635  10.054  0.1965  0.1408  0.1774
  189POPC   H5X21815   2.839   3.723  10.110  0.2443  1.8405 -2.3276
  189POPC   H5Y21816   2.696   3.666  10.030  0.5404  1.4453  0.2563
  189POPC   C3621817   2.885   3.613   9.922  0.3400  0.7295 -0.6394
  189POPC   H6X21818   2.839   3.537   9.855 -2.8153  2.1394 -0.2452
  189POPC   H6Y21819   2.985   3.574   9.951  0.5436  0.7998 -1.2315
  189POPC   C3721820   2.899   3.744   9.841 -0.1807 -0.9215 -0.8719
  189POPC   H7X21821   2.958   3.822   9.895 -2.2662 -0.7156  1.2707
  189POPC   H7Y21822   2.798   3.786   9.823  0.4608  0.5389 -1.2706
  189POPC   C3821823   2.968   3.720   9.713 -0.1680  0.4910  0.6271
  189POPC   H8X21824   2.905   3.642   9.665 -0.3266  0.6704  0.5420
  189POPC   H8Y21825   3.067   3.672   9.734  0.4424  1.6429  0.4649
  189POPC   C3921826   2.975   3.842   9.617  0.2769 -0.1347 -0.0897
  189POPC   H9X21827   3.024   3.806   9.524  0.4086 -1.0836  0.3390
  189POPC   H9Y21828   3.047   3.916   9.659  0.7711 -0.5032 -0.2740
  189POPC  C31021829   2.838   3.896   9.588  0.3590  0.1134 -0.0474
  189POPC  H10X21830   2.806   3.948   9.681  0.5881  1.2056 -0.5599
  189POPC  H10Y21831   2.767   3.816   9.561  0.7365 -0.3916  0.4333
  189POPC  C31121832   2.850   3.991   9.464 -0.3813 -0.2829 -0.0360
  189POPC  H11X21833   2.939   4.057   9.471  0.3556 -0.8492 -2.8469
  189POPC  H11Y21834   2.758   4.052   9.468  1.1326  2.1063  0.7306
  189POPC  C31221835   2.861   3.914   9.337 -0.6237 -0.1469  0.4027
  189POPC  H12X21836   2.762   3.865   9.322 -0.1480 -0.4082 -2.5611
  189POPC  H12Y21837   2.938   3.834   9.341 -0.7275 -0.3456 -1.0959
  189POPC  C31321838   2.879   3.997   9.204  0.3621 -0.1968 -0.6295
  189POPC  H13X21839   2.974   4.047   9.231  1.7485 -2.4201 -1.1839
  189POPC  H13Y21840   2.795   4.066   9.181  0.7681  0.2593 -0.7388
  189POPC  C31421841   2.907   3.907   9.087 -0.2324 -0.1883  0.0206
  189POPC  H14X21842   2.813   3.865   9.044 -0.0173 -1.6426  0.9078
  189POPC  H14Y21843   2.980   3.827   9.109 -0.8759 -1.2728 -1.5935
  189POPC  C31521844   2.981   3.992   8.963 -0.0908  0.1133  0.8261
  189POPC  H15X21845   3.072   4.044   8.999 -0.6774  1.3754  0.5508
  189POPC  H15Y21846   2.910   4.071   8.929 -0.3099 -0.8522 -1.1062
  189POPC  C31621847   3.026   3.902   8.845 -0.2902  0.3438 -0.0798
  189POPC  H16X21848   3.092   3.961   8.777 -0.1612  0.2583 -0.0288
  189POPC  H16Y21849   2.935   3.880   8.785  0.0210  1.9811 -1.2179
  189POPC  H16Z21850   3.073   3.805   8.871 -0.7598 -0.3112 -1.5645
  190POPC     N21851   4.197   5.094  11.457 -0.3805  0.3511 -0.0330
  190POPC   C1221852   4.105   5.082  11.336  0.8409  0.3570 -0.5064
  190POPC  H12A21853   4.018   5.141  11.364  0.2405  0.2423 -2.0638
  190POPC  H12B21854   4.071   4.980  11.324  0.8111  0.4974 -1.7122
  190POPC   C1321855   4.324   5.017  11.419  0.0452  0.1880 -0.8351
  190POPC  H13A21856   4.302   4.919  11.379  1.1453 -0.4550  0.0522
  190POPC  H13B21857   4.383   5.074  11.348  1.3174 -0.1085 -0.0613
  190POPC  H13C21858   4.389   5.006  11.505  1.8702 -1.0464 -2.2954
  190POPC   C1421859   4.233   5.229  11.506 -0.4958  0.0999 -0.3172
  190POPC  H14A21860   4.145   5.279  11.544 -0.5326 -0.5353  0.4588
  190POPC  H14B21861   4.304   5.220  11.587  0.1620  0.3283 -0.8523
  190POPC  H14C21862   4.277   5.292  11.430  0.7453 -0.5527 -0.1606
  190POPC   C1521863   4.130   5.012  11.570 -0.5492 -0.4355 -1.2684
  190POPC  H15A21864   4.122   4.910  11.537 -0.0757 -0.1840 -2.1987
  190POPC  H15B21865   4.033   5.049  11.599  0.5436  1.4320  0.3445
  190POPC  H15C21866   4.185   5.006  11.663  1.8320 -0.7432 -2.6178
  190POPC   C1121867   4.148   5.127  11.190  0.0140 -0.8672 -0.0435
  190POPC  H11A21868   4.075   5.081  11.119 -0.5371  0.1582 -0.1644
  190POPC  H11B21869   4.250   5.090  11.170  0.5959  0.6774 -0.0669
  190POPC     P21870   4.024   5.357  11.174  0.5071 -0.2910 -0.0228
  190POPC   O1321871   4.060   5.489  11.122  0.7932 -0.8480  0.1444
  190POPC   O1421872   3.962   5.355  11.304  0.1233 -0.0901 -0.2182
  190POPC   O1221873   4.158   5.271  11.187 -0.0739  0.2197  0.5699
  190POPC   O1121874   3.940   5.275  11.063 -0.5365  0.1827  0.5292
  190POPC    C121875   3.979   5.258  10.928 -0.1696  0.0777  0.4879
  190POPC    HA21876   4.015   5.155  10.909 -0.8508  0.0719 -0.8135
  190POPC    HB21877   4.062   5.327  10.903 -0.8427  0.2727 -1.3208
  190POPC    C221878   3.852   5.297  10.848  0.6908 -0.0632  0.1400
  190POPC    HS21879   3.761   5.247  10.888  0.9834 -2.6151 -2.1083
  190POPC   O2121880   3.862   5.260  10.710 -0.0161 -0.4129  0.9281
  190POPC   C2121881   3.867   5.125  10.684 -1.3108 -0.7471 -0.0823
  190POPC   O2221882   3.840   5.034  10.758 -0.2062 -0.2162  0.3614
  190POPC   C2221883   3.932   5.103  10.547 -0.0527  0.5213  0.5801
  190POPC   H2R21884   3.990   5.190  10.511 -0.2127 -1.1797 -4.6549
  190POPC   H2S21885   3.852   5.100  10.470 -1.7606 -2.5009  2.2339
  190POPC    C321886   3.832   5.453  10.860 -0.1889 -0.3998 -0.4292
  190POPC    HX21887   3.933   5.499  10.869 -1.3895  2.1649  1.1631
  190POPC    HY21888   3.789   5.482  10.958 -1.6739 -0.1949 -1.1204
  190POPC   O3121889   3.743   5.511  10.762 -0.0452 -0.2278 -0.2938
  190POPC   C3121890   3.805   5.546  10.648 -0.0880 -0.0975  0.4133
  190POPC   O3221891   3.922   5.549  10.636 -0.7525  0.2105 -0.1500
  190POPC   C3221892   3.700   5.603  10.551 -0.4174 -0.3808 -0.3812
  190POPC   H2X21893   3.680   5.706  10.586  2.6605 -0.7990  3.0975
  190POPC   H2Y21894   3.609   5.539  10.552  0.5950 -1.8764  0.5778
  190POPC   C2321895   4.007   4.967  10.540 -0.6432 -0.0478  0.7440
  190POPC   H3R21896   3.949   4.879  10.576  2.2118 -2.0532  0.8313
  190POPC   H3S21897   4.094   4.989  10.606 -2.8821  0.7392  3.6762
  190POPC   C2421898   4.064   4.932  10.403  0.1443 -0.1414  0.1652
  190POPC   H4R21899   4.124   4.838  10.393 -2.5371 -1.8395 -1.1110
  190POPC   H4S21900   4.128   5.019  10.379  0.0563  0.1288  0.8956
  190POPC   C2521901   3.969   4.915  10.283  0.8844 -0.5730 -0.2884
  190POPC   H5R21902   3.894   4.997  10.285  0.7254 -0.7221  0.1869
  190POPC   H5S21903   3.912   4.823  10.308  0.3399  0.0680  0.9329
  190POPC   C2621904   4.036   4.905  10.152  0.4884  0.0288  0.4117
  190POPC   H6R21905   4.114   4.825  10.151  0.0388 -0.4967 -2.7166
  190POPC   H6S21906   4.081   5.004  10.131  1.1489 -0.5705 -1.1696
  190POPC   C2721907   3.938   4.860  10.039 -0.1830  0.0410 -0.0214
  190POPC   H7R21908   3.837   4.883  10.080  0.7839 -0.4122  2.8255
  190POPC   H7S21909   3.951   4.751  10.023  1.6067  0.0032  1.4033
  190POPC   C2821910   3.964   4.940   9.901 -0.3955 -0.2866 -0.0024
  190POPC   H8R21911   3.987   5.045   9.931 -0.7448 -0.3566  0.5298
  190POPC   H8S21912   3.864   4.941   9.852 -0.1296 -0.7181 -0.5649
  190POPC   C2921913   4.073   4.880   9.815  0.1219 -0.3426 -0.4814
  190POPC   H9121914   4.153   4.832   9.872  0.1331  0.0885 -0.1303
  190POPC  C21021915   4.079   4.873   9.683 -0.0130  0.2100 -0.2904
  190POPC  H10121916   4.167   4.841   9.626  0.7238  1.6516 -0.0177
  190POPC  C21121917   3.975   4.923   9.593 -0.5293 -0.9139 -0.0206
  190POPC  H11R21918   3.894   4.971   9.651 -0.2371  2.9749 -2.4374
  190POPC  H11S21919   3.934   4.838   9.535  0.8686 -2.2598  0.8575
  190POPC  C21221920   4.019   5.043   9.498  0.7068  0.0995 -0.2455
  190POPC  H12R21921   4.089   4.995   9.426  1.1616 -0.8980  0.8435
  190POPC  H12S21922   4.059   5.131   9.554 -3.9024  1.6837  1.0340
  190POPC  C21321923   3.901   5.083   9.409 -0.2222 -0.2118  0.6046
  190POPC  H13R21924   3.824   5.111   9.484 -0.5706  2.3547 -0.6115
  190POPC  H13S21925   3.870   4.992   9.354  0.1793  0.0258 -0.0198
  190POPC  C21421926   3.939   5.192   9.310 -0.4491  0.4170 -0.4893
  190POPC  H14R21927   3.997   5.160   9.221  0.3991  3.9838 -1.3978
  190POPC  H14S21928   3.999   5.269   9.363  0.7040 -0.5234 -0.3840
  190POPC  C21521929   3.811   5.256   9.253  0.6470 -0.7691  0.3930
  190POPC  H15R21930   3.744   5.272   9.340  0.9360 -0.1253  0.5010
  190POPC  H15S21931   3.760   5.182   9.187 -1.1421 -0.0693  0.9334
  190POPC  C21621932   3.843   5.392   9.180  0.2766  0.6368  0.0801
  190POPC  H16R21933   3.918   5.452   9.235  0.6001  0.5962 -0.3118
  190POPC  H16S21934   3.747   5.448   9.174 -1.8662 -2.5174  1.7902
  190POPC  C21721935   3.890   5.375   9.036  0.5170 -0.1613 -0.4591
  190POPC  H17R21936   3.821   5.302   8.989  1.0977 -0.3385 -1.0521
  190POPC  H17S21937   3.993   5.333   9.035  1.8531  2.8480 -2.3040
  190POPC  C21821938   3.892   5.507   8.958  0.1126  0.2970 -0.2955
  190POPC  H18R21939   3.957   5.577   9.014  0.6964  0.0918 -0.7150
  190POPC  H18S21940   3.791   5.552   8.942 -1.3318 -1.7777  2.1536
  190POPC  H18T21941   3.934   5.486   8.857 -0.9357 -1.5466 -0.4053
  190POPC   C3321942   3.747   5.608  10.407  0.5546  0.1448 -0.5071
  190POPC   H3X21943   3.804   5.516  10.379 -0.7586 -1.0156  0.4466
  190POPC   H3Y21944   3.812   5.695  10.385 -2.5478  2.1891 -2.3429
  190POPC   C3421945   3.636   5.614  10.304 -0.2670  0.2228 -0.3207
  190POPC   H4X21946   3.572   5.700  10.331 -1.7364 -1.3630  1.5595
  190POPC   H4Y21947   3.569   5.527  10.317 -0.3058  0.5778  2.7154
  190POPC   C3521948   3.688   5.643  10.161  0.0893  0.4995 -0.1893
  190POPC   H5X21949   3.735   5.552  10.118  2.0236  0.7593  1.2423
  190POPC   H5Y21950   3.769   5.718  10.167  0.2092  0.2575  1.8688
  190POPC   C3621951   3.573   5.700  10.071  0.2412  0.3151  0.9711
  190POPC   H6X21952   3.623   5.761   9.993  0.1347 -1.1569 -0.2938
  190POPC   H6Y21953   3.496   5.760  10.123  0.0952  1.2128 -0.2602
  190POPC   C3721954   3.504   5.587   9.993 -0.1139 -0.1548  0.2119
  190POPC   H7X21955   3.441   5.550  10.077  1.0985  0.4531  1.4271
  190POPC   H7Y21956   3.579   5.510   9.966  1.5093  0.3937  2.8111
  190POPC   C3821957   3.420   5.632   9.875  1.1568  0.3129 -0.2475
  190POPC   H8X21958   3.478   5.691   9.800  0.1020  0.8353 -0.6815
  190POPC   H8Y21959   3.343   5.710   9.898 -1.4049 -2.0947 -0.1445
  190POPC   C3921960   3.333   5.518   9.812 -0.2894  0.6334 -0.1943
  190POPC   H9X21961   3.233   5.558   9.786 -0.3776  0.9130  0.5450
  190POPC   H9Y21962   3.333   5.428   9.877 -1.8557 -0.4135 -1.5467
  190POPC  C31021963   3.397   5.474   9.685 -0.8154 -0.5469 -0.1136
  190POPC  H10X21964   3.492   5.423   9.711 -0.5665  0.6533  1.4697
  190POPC  H10Y21965   3.424   5.564   9.626 -1.7697 -0.3149 -0.2186
  190POPC  C31121966   3.309   5.385   9.592 -0.3029  0.0478 -0.2001
  190POPC  H11X21967   3.215   5.443   9.584  0.1973  1.1452  1.2949
  190POPC  H11Y21968   3.291   5.292   9.650  0.6165  0.5810  0.9895
  190POPC  C31221969   3.379   5.346   9.460 -0.0428  0.5242  0.2730
  190POPC  H12X21970   3.470   5.288   9.488 -0.7595 -0.4498  0.6749
  190POPC  H12Y21971   3.425   5.432   9.407 -0.1866  2.1657  2.6766
  190POPC  C31321972   3.306   5.260   9.356 -0.1344  0.6728  0.2367
  190POPC  H13X21973   3.197   5.282   9.356  0.3447  3.4325 -1.1000
  190POPC  H13Y21974   3.315   5.149   9.367  0.5589  0.4815 -1.9018
  190POPC  C31421975   3.357   5.296   9.215  0.5231  0.6975  0.3177
  190POPC  H14X21976   3.453   5.248   9.187  0.2645  0.1826  0.3118
  190POPC  H14Y21977   3.379   5.405   9.222  0.8459  0.6480  0.0741
  190POPC  C31521978   3.244   5.289   9.110  0.3372  0.5916  0.4696
  190POPC  H15X21979   3.157   5.356   9.125 -1.0612 -0.5202 -2.0680
  190POPC  H15Y21980   3.193   5.192   9.125 -0.3735  0.7879 -0.5899
  190POPC  C31621981   3.306   5.306   8.966 -0.0957 -0.2578 -0.7417
  190POPC  H16X21982   3.238   5.263   8.890  0.1946  0.2255 -1.2718
  190POPC  H16Y21983   3.399   5.245   8.962 -1.2402 -2.0439 -1.6478
  190POPC  H16Z21984   3.329   5.412   8.943  1.9036 -0.6370 -0.6742
  191POPC     N21985   3.818   5.695   6.241  0.8198 -0.9935 -0.4503
  191POPC   C1221986   3.905   5.717   6.362  0.0684  0.1683  0.2738
  191POPC  H12A21987   3.857   5.773   6.441 -0.4831 -1.1062  0.8519
  191POPC  H12B21988   3.991   5.774   6.326  0.9102 -0.6305  0.9700
  191POPC   C1321989   3.906   5.645   6.126 -0.1878  0.1474 -0.3329
  191POPC  H13A21990   3.963   5.726   6.082  0.0827 -0.1408 -0.5224
  191POPC  H13B21991   3.976   5.569   6.157 -0.5470 -0.3008 -0.6222
  191POPC  H13C21992   3.843   5.599   6.052  0.3734 -0.6452 -0.3318
  191POPC   C1421993   3.704   5.595   6.264  0.1133  0.2710 -0.3973
  191POPC  H14A21994   3.639   5.622   6.346 -1.0609  0.3989 -1.3498
  191POPC  H14B21995   3.649   5.590   6.172 -0.3016 -1.3166 -0.0925
  191POPC  H14C21996   3.752   5.499   6.283  2.6152  1.3646 -0.7724
  191POPC   C1521997   3.760   5.827   6.201 -0.3261  0.5150  0.1773
  191POPC  H15A21998   3.709   5.863   6.290 -1.7784  3.0899 -1.5521
  191POPC  H15B21999   3.689   5.822   6.120 -0.1475  0.3656  0.0308
  191POPC  H15C22000   3.838   5.898   6.179  0.2652 -0.0295  0.5155
  191POPC   C1122001   3.977   5.588   6.430 -0.0821 -0.4815  0.4373
  191POPC  H11A22002   3.896   5.525   6.473  0.8301 -1.5216  0.6589
  191POPC  H11B22003   4.031   5.630   6.517  1.2569 -0.9873 -0.1264
  191POPC     P22004   4.197   5.567   6.298 -0.4028 -0.0015 -0.2089
  191POPC   O1322005   4.205   5.712   6.337 -0.5012 -0.8094 -0.1932
  191POPC   O1422006   4.231   5.537   6.157  0.4391 -0.7488  0.3259
  191POPC   O1222007   4.055   5.510   6.340  0.4347 -0.3866 -0.7288
  191POPC   O1122008   4.294   5.485   6.399 -0.1763  0.4875 -0.1840
  191POPC    C122009   4.264   5.354   6.449 -0.3247  0.2384 -0.1133
  191POPC    HA22010   4.360   5.299   6.452  0.6663  1.9218  1.1066
  191POPC    HB22011   4.191   5.309   6.378  0.5616  0.0484 -0.9081
  191POPC    C222012   4.200   5.338   6.594 -0.1378  0.8283  0.2859
  191POPC    HS22013   4.106   5.393   6.577 -0.7879  0.3742  2.2533
  191POPC   O2122014   4.293   5.405   6.677 -0.2710 -0.0706  0.5796
  191POPC   C2122015   4.241   5.498   6.754 -0.2784 -0.6510 -0.6345
  191POPC   O2222016   4.136   5.558   6.734  0.4590  0.0012  0.1676
  191POPC   C2222017   4.332   5.526   6.873  0.0795 -0.4687 -0.3286
  191POPC   H2R22018   4.433   5.546   6.831 -0.5669  1.5372 -1.0405
  191POPC   H2S22019   4.341   5.435   6.936 -0.9433 -1.0318 -0.9674
  191POPC    C322020   4.174   5.192   6.646 -0.1820  0.3986  0.7124
  191POPC    HX22021   4.274   5.146   6.664  0.5085  1.3112 -0.6270
  191POPC    HY22022   4.128   5.124   6.571  2.4695 -0.6427 -0.1042
  191POPC   O3122023   4.103   5.200   6.774  0.4005 -0.1499  0.0763
  191POPC   C3122024   3.976   5.187   6.773  0.5421 -0.0929 -0.2603
  191POPC   O3222025   3.901   5.172   6.679 -0.1378  0.0373 -0.8038
  191POPC   C3222026   3.922   5.209   6.915  1.0161 -1.0048  0.3538
  191POPC   H2X22027   3.926   5.108   6.960  1.2325 -0.7348  0.9557
  191POPC   H2Y22028   3.814   5.232   6.907  1.5800  1.6632 -1.1302
  191POPC   C2322029   4.303   5.650   6.966  0.3165 -0.3206  0.1375
  191POPC   H3R22030   4.200   5.668   7.003 -0.0964  1.0288 -1.5115
  191POPC   H3S22031   4.307   5.737   6.896 -1.0034 -0.7525 -0.5026
  191POPC   C2422032   4.389   5.650   7.095  0.3560  0.6804  0.0238
  191POPC   H4R22033   4.346   5.581   7.171 -0.4151 -0.3090 -1.2693
  191POPC   H4S22034   4.395   5.755   7.131  1.8792  0.1688  1.3914
  191POPC   C2522035   4.538   5.607   7.077 -0.2632  0.3499 -0.1640
  191POPC   H5R22036   4.585   5.695   7.026 -0.8390  1.5298  1.2785
  191POPC   H5S22037   4.541   5.515   7.014  1.7616 -0.5301  1.1217
  191POPC   C2622038   4.607   5.577   7.213  0.1488  0.3810 -0.4154
  191POPC   H6R22039   4.705   5.524   7.201 -0.4213 -1.0506  0.8558
  191POPC   H6S22040   4.542   5.498   7.256 -0.9241  1.4083 -0.1240
  191POPC   C2722041   4.633   5.695   7.303  0.3088 -0.1986 -0.4947
  191POPC   H7R22042   4.528   5.728   7.319  0.3784 -0.6177  0.9089
  191POPC   H7S22043   4.694   5.775   7.255  0.8479  0.3324  1.0123
  191POPC   C2822044   4.704   5.664   7.436 -0.2487 -0.6968 -0.9609
  191POPC   H8R22045   4.733   5.760   7.484 -0.1401 -2.0602  1.8441
  191POPC   H8S22046   4.794   5.601   7.426 -0.3028 -0.8469 -0.5206
  191POPC   C2922047   4.615   5.608   7.547 -1.1793  0.4107  0.1297
  191POPC   H9122048   4.507   5.620   7.532 -1.1436  0.0589 -0.4231
  191POPC  C21022049   4.661   5.549   7.661 -0.7287  0.0801 -1.2035
  191POPC  H10122050   4.591   5.506   7.734  1.1598 -0.4111  0.4354
  191POPC  C21122051   4.809   5.537   7.686 -0.3659 -0.0846 -0.9451
  191POPC  H11R22052   4.879   5.571   7.606  0.6760 -0.7473 -0.3416
  191POPC  H11S22053   4.845   5.433   7.702 -1.1487 -0.1782  0.2956
  191POPC  C21222054   4.862   5.603   7.813  0.1491 -0.2854  0.3926
  191POPC  H12R22055   4.844   5.713   7.814  0.6909 -0.1936  0.5135
  191POPC  H12S22056   4.972   5.586   7.815  0.2600  0.1484 -1.2066
  191POPC  C21322057   4.802   5.545   7.941 -0.0778 -0.6195 -0.8094
  191POPC  H13R22058   4.810   5.434   7.945 -0.3863 -0.6092  1.0041
  191POPC  H13S22059   4.692   5.558   7.944  0.2496  2.8006  0.9754
  191POPC  C21422060   4.857   5.607   8.075 -0.5119 -0.7914  0.6122
  191POPC  H14R22061   4.811   5.708   8.074  1.7687  0.3103 -0.0102
  191POPC  H14S22062   4.967   5.620   8.071 -0.4147 -1.2656  1.3888
  191POPC  C21522063   4.810   5.529   8.199 -0.0271  0.3696  0.3486
  191POPC  H15R22064   4.866   5.433   8.200  0.3758  0.6030  0.6046
  191POPC  H15S22065   4.701   5.508   8.192  0.4390 -2.4164  0.1212
  191POPC  C21622066   4.827   5.605   8.332 -0.0300 -0.5108  0.5767
  191POPC  H16R22067   4.758   5.691   8.317  0.7453  0.1250  0.5824
  191POPC  H16S22068   4.929   5.651   8.333 -0.1092 -0.3475  1.5396
  191POPC  C21722069   4.804   5.527   8.457  0.3893  0.9004  0.2509
  191POPC  H17R22070   4.695   5.510   8.464  0.4735  0.5536  0.8120
  191POPC  H17S22071   4.838   5.587   8.544 -0.0205  2.0665 -0.3703
  191POPC  C21822072   4.874   5.385   8.465  0.3456 -0.2839  0.1198
  191POPC  H18R22073   4.983   5.407   8.476  0.9172 -2.5809 -0.4780
  191POPC  H18S22074   4.858   5.324   8.374 -0.7138 -0.3459  0.3394
  191POPC  H18T22075   4.840   5.328   8.554  0.8819 -2.5706 -1.0747
  191POPC   C3322076   4.000   5.307   7.012  0.5493  0.3240  0.1509
  191POPC   H3X22077   3.993   5.415   6.985  1.5782  0.7114  1.3277
  191POPC   H3Y22078   4.111   5.297   7.009  0.3783 -1.9507 -1.0263
  191POPC   C3422079   3.971   5.267   7.157  0.4534 -1.0130  0.8025
  191POPC   H4X22080   3.997   5.160   7.173  0.7235 -0.9085  1.0629
  191POPC   H4Y22081   3.861   5.284   7.159  0.4042 -0.1195 -2.6334
  191POPC   C3522082   4.039   5.359   7.255  0.1743 -0.3840  0.4252
  191POPC   H5X22083   4.000   5.458   7.221 -0.6174 -1.6401 -2.6214
  191POPC   H5Y22084   4.149   5.355   7.243  0.2165  3.0392 -1.9764
  191POPC   C3622085   3.996   5.333   7.402 -0.6332 -0.0532  0.3474
  191POPC   H6X22086   4.012   5.226   7.427  4.1093 -0.4981 -3.1718
  191POPC   H6Y22087   3.888   5.360   7.405 -0.4471  0.5998  1.8762
  191POPC   C3722088   4.067   5.419   7.512  0.7148  0.4185 -0.3489
  191POPC   H7X22089   4.088   5.517   7.464  1.4197 -0.1073 -1.1462
  191POPC   H7Y22090   4.156   5.365   7.548  1.0037  0.2078 -1.3408
  191POPC   C3822091   3.981   5.452   7.636  0.2413  0.0986 -0.7170
  191POPC   H8X22092   3.879   5.487   7.608 -0.1009 -1.5461 -1.7207
  191POPC   H8Y22093   4.032   5.529   7.697  3.7127 -1.8374 -0.9569
  191POPC   C3922094   3.962   5.329   7.732 -0.6615  0.4828 -0.8597
  191POPC   H9X22095   4.063   5.288   7.756 -1.3896  0.0217  1.7312
  191POPC   H9Y22096   3.899   5.259   7.673  0.1467  0.0372 -1.2069
  191POPC  C31022097   3.876   5.367   7.851 -0.1643  0.3237  0.3918
  191POPC  H10X22098   3.811   5.281   7.877  1.0328 -0.7404 -0.0121
  191POPC  H10Y22099   3.807   5.450   7.823 -0.8269 -0.0729  0.8092
  191POPC  C31122100   3.957   5.431   7.964  0.2758 -0.2763  0.5563
  191POPC  H11X22101   3.981   5.537   7.941 -4.1634  0.9868  0.8983
  191POPC  H11Y22102   4.051   5.377   7.987  2.1811  2.4162 -0.3358
  191POPC  C31222103   3.885   5.441   8.103  0.0585  0.0694 -0.1108
  191POPC  H12X22104   3.849   5.343   8.143 -0.0230  0.8298  1.7914
  191POPC  H12Y22105   3.793   5.502   8.089 -0.8747 -1.6409 -2.0054
  191POPC  C31322106   3.980   5.500   8.207  0.1937  0.0142 -0.1295
  191POPC  H13X22107   4.038   5.589   8.173 -1.1289  1.1222  0.3829
  191POPC  H13Y22108   4.053   5.425   8.243  1.6860  2.1297  1.4851
  191POPC  C31422109   3.905   5.535   8.339 -0.1640 -1.0431 -0.4045
  191POPC  H14X22110   3.852   5.632   8.324  2.4714  0.8566  1.5978
  191POPC  H14Y22111   3.993   5.560   8.402 -1.5033  2.3987  0.3453
  191POPC  C31522112   3.823   5.421   8.403 -0.0664  0.4514 -0.5509
  191POPC  H15X22113   3.876   5.323   8.411  0.4970  0.6468 -1.6592
  191POPC  H15Y22114   3.734   5.389   8.345  0.2192 -1.2948 -0.0882
  191POPC  C31622115   3.793   5.466   8.555 -0.1628 -0.9440  0.1183
  191POPC  H16X22116   3.744   5.379   8.604 -0.6115 -1.6576 -1.5224
  191POPC  H16Y22117   3.725   5.553   8.553  0.4154 -0.4905 -1.2771
  191POPC  H16Z22118   3.891   5.485   8.602  0.9504 -1.8998 -1.6875
  192POPC     N22119   5.353   1.427   6.305 -0.8974 -0.0141 -1.2343
  192POPC   C1222120   5.497   1.376   6.312 -0.3586 -0.4271 -0.6485
  192POPC  H12A22121   5.551   1.442   6.247  0.1967  2.1733  2.2226
  192POPC  H12B22122   5.507   1.271   6.286  2.7857 -0.5722  0.6911
  192POPC   C1322123   5.287   1.418   6.175 -0.3539 -0.9942 -0.0234
  192POPC  H13A22124   5.310   1.324   6.127  0.6593 -0.8177  0.1001
  192POPC  H13B22125   5.182   1.436   6.194 -0.4468 -1.4112 -0.1254
  192POPC  H13C22126   5.325   1.501   6.118 -0.1237 -0.5961  0.6935
  192POPC   C1422127   5.277   1.346   6.403  0.6730 -0.0034  0.7194
  192POPC  H14A22128   5.187   1.398   6.433  1.8117  1.4271  1.7819
  192POPC  H14B22129   5.259   1.248   6.361 -0.1078  0.5607 -0.3305
  192POPC  H14C22130   5.317   1.339   6.503  1.1264  0.2253  0.5546
  192POPC   C1522131   5.343   1.567   6.355 -0.0296  0.3351 -0.1506
  192POPC  H15A22132   5.401   1.583   6.445 -0.2650  1.7075 -0.2201
  192POPC  H15B22133   5.243   1.600   6.379 -0.3114 -0.3178 -0.4021
  192POPC  H15C22134   5.382   1.639   6.285 -2.0915  0.7969 -0.9041
  192POPC   C1122135   5.571   1.399   6.449  0.5969 -0.1517  0.1872
  192POPC  H11A22136   5.524   1.330   6.522  1.5212 -0.5304  0.4418
  192POPC  H11B22137   5.554   1.503   6.485  0.1604 -1.4784  4.3582
  192POPC     P22138   5.816   1.450   6.363  0.3977  0.2974 -0.1559
  192POPC   O1322139   5.751   1.555   6.284 -0.1103 -0.4280 -0.2287
  192POPC   O1422140   5.902   1.360   6.283  0.7465  0.2717  0.7115
  192POPC   O1222141   5.708   1.367   6.440  0.2882 -0.0977  0.4496
  192POPC   O1122142   5.907   1.515   6.471 -0.1317 -0.4431 -0.1355
  192POPC    C122143   6.001   1.452   6.562  0.3456  0.3633  0.3266
  192POPC    HA22144   6.072   1.523   6.610  1.0943 -0.2715  0.1805
  192POPC    HB22145   6.068   1.387   6.502  3.0470  3.1685  0.0328
  192POPC    C222146   5.931   1.361   6.670 -0.4272 -0.4384 -0.4107
  192POPC    HS22147   5.895   1.264   6.631 -1.5700 -1.3357  2.5752
  192POPC   O2122148   5.826   1.446   6.730 -0.7804 -0.1087 -0.3053
  192POPC   C2122149   5.731   1.375   6.787  0.2127  0.1127  0.3870
  192POPC   O2222150   5.726   1.253   6.788 -0.3130 -0.1077  0.2112
  192POPC   C2222151   5.625   1.472   6.840  0.8578 -0.2093 -0.1030
  192POPC   H2R22152   5.545   1.479   6.763  2.1820 -2.2403 -1.7739
  192POPC   H2S22153   5.671   1.573   6.841 -0.8675  0.6391  2.0883
  192POPC    C322154   6.040   1.330   6.779  0.0888  0.1350  0.5172
  192POPC    HX22155   6.050   1.414   6.851 -2.1799 -0.4507  1.6280
  192POPC    HY22156   6.138   1.305   6.733 -0.1019 -0.3651  0.3689
  192POPC   O3122157   6.002   1.216   6.860  0.1416 -0.3162 -0.3593
  192POPC   C3122158   6.055   1.105   6.820  0.2101  0.0849  0.2612
  192POPC   O3222159   6.115   1.085   6.717 -0.8374  0.5667 -0.1720
  192POPC   C3222160   6.029   1.004   6.930 -0.0250  0.1489  0.7854
  192POPC   H2X22161   5.948   0.945   6.882 -0.5469  0.2646  1.5069
  192POPC   H2Y22162   5.979   1.064   7.009 -2.2534 -0.8429  0.1995
  192POPC   C2322163   5.563   1.458   6.982  0.5206 -0.4574 -0.2273
  192POPC   H3R22164   5.512   1.360   6.990  0.2978 -0.4982 -1.8060
  192POPC   H3S22165   5.482   1.533   7.000 -0.6029 -2.3830  4.0576
  192POPC   C2422166   5.662   1.493   7.091  0.0833 -0.2676  0.2634
  192POPC   H4R22167   5.597   1.517   7.177 -2.2361  2.4127 -2.0469
  192POPC   H4S22168   5.720   1.586   7.074 -1.1103  0.5205  0.4164
  192POPC   C2522169   5.773   1.392   7.127  0.1081  0.0776  0.6092
  192POPC   H5R22170   5.839   1.370   7.040  1.0070  0.3459  1.2108
  192POPC   H5S22171   5.734   1.292   7.158  2.2709 -0.8550  0.5505
  192POPC   C2622172   5.872   1.437   7.229 -0.9951  0.3018 -0.4821
  192POPC   H6R22173   5.823   1.478   7.320  1.0147  0.2722  0.6685
  192POPC   H6S22174   5.936   1.520   7.191 -0.9161  0.4631 -0.0050
  192POPC   C2722175   5.974   1.330   7.275  0.0907  0.0878 -1.1607
  192POPC   H7R22176   6.045   1.380   7.344 -0.6819 -1.1233  0.5899
  192POPC   H7S22177   6.024   1.301   7.179 -1.1823  0.7283 -2.0483
  192POPC   C2822178   5.914   1.205   7.336  0.5163  0.1699  0.3245
  192POPC   H8R22179   5.994   1.148   7.387 -0.0625 -0.6832  0.3080
  192POPC   H8S22180   5.861   1.144   7.260 -0.0353 -0.1797  0.9729
  192POPC   C2922181   5.826   1.241   7.454  0.1486  0.7815 -0.9401
  192POPC   H9122182   5.717   1.241   7.440 -0.3388 -3.4559  1.1419
  192POPC  C21022183   5.862   1.259   7.588 -0.2422  0.6477  0.3454
  192POPC  H10122184   5.790   1.293   7.663  0.4869 -0.7143  1.7235
  192POPC  C21122185   6.002   1.249   7.651 -0.0127 -0.5313  0.0591
  192POPC  H11R22186   6.011   1.297   7.750 -1.2094 -0.5855  0.2156
  192POPC  H11S22187   6.077   1.299   7.586 -0.9085  1.1225  0.2511
  192POPC  C21222188   6.042   1.100   7.669  0.4817 -0.5547  0.7351
  192POPC  H12R22189   6.152   1.082   7.665  0.2777 -2.2467  1.5517
  192POPC  H12S22190   6.007   1.035   7.586 -0.8301 -0.1864  0.9859
  192POPC  C21322191   5.987   1.031   7.802 -0.4860 -0.7202  0.4491
  192POPC  H13R22192   5.974   0.927   7.764  0.0793 -0.5376 -0.2693
  192POPC  H13S22193   5.904   1.094   7.839 -0.0066 -0.2767  0.7817
  192POPC  C21422194   6.091   1.039   7.920 -0.0208 -0.5277  0.0790
  192POPC  H14R22195   6.085   1.144   7.957  2.1015  0.9743 -3.3724
  192POPC  H14S22196   6.196   1.029   7.885 -0.3630  0.4373 -1.3085
  192POPC  C21522197   6.062   0.950   8.041 -0.1542 -0.0488  0.3789
  192POPC  H15R22198   5.951   0.949   8.054 -0.6967  3.0267 -2.3866
  192POPC  H15S22199   6.107   0.985   8.136  0.8808  3.1392 -1.1293
  192POPC  C21622200   6.125   0.810   8.016 -0.5110 -0.3424 -0.0390
  192POPC  H16R22201   6.235   0.826   8.010 -0.1746 -2.6183 -1.0484
  192POPC  H16S22202   6.094   0.767   7.919  2.2968  0.4010 -1.3486
  192POPC  C21722203   6.092   0.697   8.123 -0.3790  0.6221 -0.2845
  192POPC  H17R22204   6.112   0.738   8.224 -1.9596 -0.1730  0.3726
  192POPC  H17S22205   6.151   0.604   8.109 -0.4013  0.6971 -0.8982
  192POPC  C21822206   5.939   0.646   8.115 -0.0466 -0.6686  0.2991
  192POPC  H18R22207   5.871   0.732   8.135 -0.9882 -0.9169 -1.6179
  192POPC  H18S22208   5.923   0.568   8.193 -0.4653 -0.3601  0.5241
  192POPC  H18T22209   5.916   0.616   8.011 -3.2683  2.5490 -0.1010
  192POPC   C3322210   6.142   0.913   6.982  0.0324 -0.0279  0.1694
  192POPC   H3X22211   6.196   0.864   6.898 -0.7941 -1.6593  0.5290
  192POPC   H3Y22212   6.096   0.834   7.046  0.1505 -0.2027  0.0380
  192POPC   C3422213   6.233   1.002   7.078 -0.3127 -0.0770  0.5166
  192POPC   H4X22214   6.160   1.050   7.147 -0.2976  1.4521 -0.4819
  192POPC   H4Y22215   6.274   1.089   7.023 -1.7572 -0.0956 -0.6585
  192POPC   C3522216   6.330   0.919   7.158  0.1991  0.2830  0.0715
  192POPC   H5X22217   6.430   0.923   7.110  0.3013  1.6917  0.3588
  192POPC   H5Y22218   6.301   0.812   7.152  3.2755 -0.5629 -2.1173
  192POPC   C3622219   6.328   0.953   7.312  0.0057  0.5182  0.4233
  192POPC   H6X22220   6.385   0.867   7.354 -3.0306 -2.0758 -0.3445
  192POPC   H6Y22221   6.229   0.954   7.362  0.3170 -0.5717  1.1009
  192POPC   C3722222   6.403   1.085   7.335  0.1888  1.2431 -0.9291
  192POPC   H7X22223   6.345   1.178   7.317 -0.5102  0.6042 -2.0662
  192POPC   H7Y22224   6.492   1.084   7.269  0.0366  0.0176 -1.1288
  192POPC   C3822225   6.458   1.103   7.480  0.8030  0.1476 -0.3937
  192POPC   H8X22226   6.492   1.012   7.533 -0.6108  1.6631  3.4561
  192POPC   H8Y22227   6.383   1.151   7.546  2.7927  1.1739  1.2396
  192POPC   C3922228   6.585   1.195   7.488 -0.1361 -0.8768  0.5546
  192POPC   H9X22229   6.565   1.300   7.459 -2.0999 -1.3354  0.1187
  192POPC   H9Y22230   6.661   1.156   7.418 -0.6762 -0.1447 -0.4562
  192POPC  C31022231   6.660   1.193   7.625 -0.0173 -0.3494  0.0111
  192POPC  H10X22232   6.753   1.252   7.614  0.5719 -1.5318 -1.7028
  192POPC  H10Y22233   6.689   1.089   7.650 -0.9345 -0.1209  2.3836
  192POPC  C31122234   6.572   1.235   7.745  0.2705 -0.5765  0.2608
  192POPC  H11X22235   6.482   1.171   7.746 -1.0633  1.2246  0.3663
  192POPC  H11Y22236   6.537   1.338   7.720  0.5596  0.5940  4.0582
  192POPC  C31222237   6.635   1.247   7.890  0.0116  0.4368  0.5689
  192POPC  H12X22238   6.725   1.312   7.879 -0.3133  0.6974 -0.7570
  192POPC  H12Y22239   6.676   1.148   7.919 -2.1447 -0.6177  0.2132
  192POPC  C31322240   6.545   1.300   8.002 -0.1975 -0.4571 -0.1023
  192POPC  H13X22241   6.487   1.393   7.981 -2.1037 -1.3938  0.7620
  192POPC  H13Y22242   6.614   1.319   8.087 -0.9583 -0.6135  0.5640
  192POPC  C31422243   6.436   1.203   8.044  0.7493 -0.0390  0.0676
  192POPC  H14X22244   6.463   1.102   8.006 -1.0295  0.0128 -1.4582
  192POPC  H14Y22245   6.348   1.233   7.983  0.9596 -0.3378 -0.3815
  192POPC  C31522246   6.416   1.203   8.198  0.4978 -0.3835  0.0451
  192POPC  H15X22247   6.506   1.195   8.263  0.6751 -3.6238 -0.4346
  192POPC  H15Y22248   6.355   1.112   8.218  0.8889 -0.3112  1.7573
  192POPC  C31622249   6.338   1.329   8.241  0.3481  0.1430  0.0282
  192POPC  H16X22250   6.386   1.414   8.188  0.3115  0.3402  0.3163
  192POPC  H16Y22251   6.337   1.338   8.351 -0.4073 -1.8538  0.2218
  192POPC  H16Z22252   6.234   1.330   8.203  0.1564  0.5391  0.5593
  193SOD    SOD22253   1.259   3.988   3.226 -0.4115  0.2070 -0.3077
  194SOD    SOD22254   5.567   6.249  12.845 -0.2141 -0.1969 -0.1714
  195SOD    SOD22255   2.510   0.273  14.618  0.0173 -0.0734 -0.0561
  196SOD    SOD22256   2.993   5.975  15.690  0.4170  0.0980 -0.1230
  197SOD    SOD22257   1.282   0.791  11.626 -0.1281  0.2670 -0.2341
  198SOD    SOD22258   4.275   1.888  12.906  0.5064 -0.3309 -0.1406
  199SOD    SOD22259   4.269   1.832  12.233  0.1312 -0.0347 -0.2412
  200SOD    SOD22260   1.781   5.228   4.238  0.6573  0.2029  0.2084
  201SOD    SOD22261   4.036   4.692   1.985 -0.0561 -0.0158 -0.3567
  202SOD    SOD22262   3.514   0.421   1.806  0.0512  0.0368  0.5685
  203SOD    SOD22263   1.800   1.182  17.344 -0.1187  0.0172 -0.0563
  204SOD    SOD22264   6.699   6.213  13.325  0.0242  0.2434 -0.1225
  205SOD    SOD22265   4.033   1.633  14.884 -0.2170  0.3892  0.1631
  206SOD    SOD22266   2.648   2.531  16.110 -0.2894 -0.0346 -0.1167
  207SOD    SOD22267   3.991   2.633  10.868  0.0820 -0.1886 -0.5480
  208SOD    SOD22268   6.142   6.538  12.267 -0.1792  0.2695 -0.4512
  209SOD    SOD22269   2.595   6.338   0.233 -0.4144  0.5358 -0.4722
  210SOD    SOD22270   4.500   2.883   1.510 -0.0443 -0.5600  0.4542
  211SOD    SOD22271   3.936   6.327  14.265 -0.1092  0.1856  0.1541
  212SOD    SOD22272   2.414   2.074  13.969  0.0427  0.0752  0.5896
  213SOD    SOD22273   4.006   1.069  10.601  0.0743 -0.2386  0.6001
  214SOD    SOD22274   2.703   3.047  11.663 -0.1365 -0.1368  0.3711
  215SOD    SOD22275   6.525   5.428   1.042 -0.0391 -0.3513 -0.2809
  216SOD    SOD22276   1.380   4.797  11.546  0.1911  0.2461 -0.2336
  217SOD    SOD22277   1.600   1.236  15.422 -0.3159  0.2757  0.2522
  218SOD    SOD22278   0.032   0.063  10.807 -0.3516 -0.2468 -0.0551
  219SOD    SOD22279   2.951   2.037   3.893 -0.4239 -0.4183  0.4870
  220SOD    SOD22280   3.334   1.259   3.972  0.0735  0.4844 -0.5441
  221SOD    SOD22281   6.330   6.719   1.816  0.0425 -0.2162  0.3916
  222SOD    SOD22282   4.095   6.103   3.899  0.0084  0.1445  0.3351
  223SOD    SOD22283   5.507   6.673   3.139  0.0785  0.6914 -0.1280
  224SOD    SOD22284   5.708   6.164  12.500  0.2325  0.0037 -0.2443
  225SOD    SOD22285   4.858   5.733   5.962  0.2260  0.3694 -0.0097
  226SOD    SOD22286   4.975   1.446  14.462 -0.3227  0.0413 -0.0129
  227SOD    SOD22287   1.091   5.341  14.657  0.0671 -0.6875 -0.1875
  228SOD    SOD22288   5.254   5.821   6.594 -0.2237 -0.4314  0.0741
  229SOD    SOD22289   1.832   0.912   3.347  0.0962  0.3182  0.2203
  230SOD    SOD22290   6.149   4.616  10.962 -0.2400 -0.2727  0.4130
  231SOD    SOD22291   1.763   4.714   5.739  0.0072 -0.0715  0.0935
  232SOD    SOD22292   5.564   0.176  16.843 -0.2483 -0.2001 -0.1304
  233SOD    SOD22293   6.221   2.295  11.415 -0.2458  0.4032  0.1144
  234SOD    SOD22294   4.165   4.467  14.489  0.3353 -0.2989  0.3540
  235SOD    SOD22295   1.841   5.886  16.298 -0.2694  0.2157  0.1625
  236SOD    SOD22296   2.913   4.624   5.652  0.2579 -0.0055 -0.0506
  237SOD    SOD22297   1.714   4.111  10.615 -0.1338 -0.4783  0.2801
  238SOD    SOD22298   6.446   0.723   6.269  0.1909  0.0660  0.0076
  239SOD    SOD22299   4.526   5.879   2.615 -0.1390 -0.4044 -0.0521
  240SOD    SOD22300   1.982   4.733   3.605  0.1086 -0.5083 -0.3192
  241SOD    SOD22301   1.727   4.401   3.978 -0.2590  0.3330 -0.5310
  242SOD    SOD22302   4.436   2.716   2.981 -0.5116 -0.3716 -0.5045
  243SOD    SOD22303   3.703   0.119  14.046 -0.3747  0.4648  0.0988
  244SOD    SOD22304   1.238   2.948  13.130  0.5010  0.5772 -0.0622
  245SOD    SOD22305   2.838   1.621   6.167  0.1587  0.0836  0.1621
  246SOD    SOD22306   6.326   2.426   2.038  0.2029  0.3479 -0.1889
  247SOD    SOD22307   0.239   5.407  16.880 -0.0009 -0.4678  0.4595
  248SOD    SOD22308   0.536   4.056   2.582 -0.0685 -0.2009  0.1405
  249SOD    SOD22309   3.238   6.356   4.725  0.3459  0.0720  0.0623
  250SOD    SOD22310   1.773   5.411  11.895  0.4160 -0.3558  0.1502
  251SOD    SOD22311   3.477   0.694  16.621  0.1105  0.3811  0.0107
  252SOD    SOD22312   1.257   5.225  13.150  0.2197 -0.3213  0.2267
  253SOD    SOD22313   1.074   5.881  12.336  0.2478 -0.0177  0.1198
  254SOD    SOD22314   0.502   2.208  16.819  0.1001  0.3527 -0.7595
  255SOD    SOD22315   5.418   2.207   5.758  0.4045  0.6033 -0.1293
  256SOD    SOD22316   4.271   4.453   5.779 -0.2582 -0.4015  0.1685
  257SOD    SOD22317   2.096   4.215  13.135  0.2009 -0.1003  0.6455
  258SOD    SOD22318   5.436   3.434  15.223 -0.4962  0.0458  0.9610
  259SOD    SOD22319   4.497   5.584  15.423  0.1861  0.7699 -0.2996
  260SOD    SOD22320   2.468   4.860   6.488 -0.1824  0.0586 -0.5535
  261SOD    SOD22321   6.027   1.011   2.446  0.4889 -0.7878 -0.3688
  262SOD    SOD22322   5.916   2.524  16.165  0.4421  0.5682 -0.1708
  263SOD    SOD22323   5.665   5.489   4.110 -0.1156  0.2496  0.6611
  264SOD    SOD22324   6.518   2.433  16.535  0.1156 -0.0451 -0.4213
  265SOD    SOD22325   2.669   3.568  10.996  0.0790  0.6905 -0.1835
  266SOD    SOD22326   4.425   0.003  12.605 -0.0581 -0.4167  0.6440
  267SOD    SOD22327   0.986   1.930  15.470  0.2039  0.1513 -0.3256
  268SOD    SOD22328   4.671   2.904   5.405 -0.3297  0.0443  0.0153
  269SOD    SOD22329   5.602   4.208   5.291 -0.0242  0.1786 -0.1689
  270CLA    CLA22330   2.735   0.302   1.720  0.1223  0.0321  0.0806
  271CLA    CLA22331   0.059   5.170  12.053 -0.1560 -0.0270  0.3356
  272CLA    CLA22332   4.736   5.135  14.452  0.3827  0.0169 -0.0337
  273CLA    CLA22333   6.115   5.220  13.593  0.1139 -0.2824 -0.2394
  274CLA    CLA22334   3.096   3.615  13.569 -0.2949  0.4899 -0.0626
  275CLA    CLA22335   5.018   5.227  16.779 -0.2055 -0.2432 -0.5200
  276CLA    CLA22336   5.024   6.203  15.552 -0.2591 -0.1037  0.1393
  277CLA    CLA22337   4.158   6.591  13.422 -0.5052  0.1757  0.3561
  278CLA    CLA22338   5.428   3.224   1.322  0.2448 -0.4503 -0.3531
  279CLA    CLA22339   6.320   3.719  16.171 -0.0206  0.2068 -0.0973
  280CLA    CLA22340   4.435   6.603   4.220  0.3208  0.2066 -0.5394
  281CLA    CLA22341   1.790   5.401   1.490  0.1372 -0.1682  0.3064
  282CLA    CLA22342   0.501   5.672  15.348 -0.0992 -0.3653 -0.3633
  283CLA    CLA22343   0.476   1.884   0.093 -0.1714  0.3169 -0.5585
  284CLA    CLA22344   6.740   5.463  15.905 -0.2630  0.0401  0.3221
  285CLA    CLA22345   5.777   1.822  16.470  0.4235  0.4658  0.2193
  286CLA    CLA22346   1.948   2.760  16.754 -0.0024 -0.0138  0.0624
  287CLA    CLA22347   5.239   6.669   2.679  0.2585 -0.0479 -0.2514
  288CLA    CLA22348   0.292   1.832  14.015  0.5095 -0.0057  0.1892
  289CLA    CLA22349   2.440   1.032  16.121  0.0914 -0.0192 -0.0301
  290CLA    CLA22350   0.395   6.272  11.836 -0.1056 -0.0596  0.2731
  291CLA    CLA22351   4.437   6.539  12.461 -0.3423  0.1632 -0.2669
  292CLA    CLA22352   2.405   2.317  13.401  0.1601 -0.1015 -0.0345
  293CLA    CLA22353   6.503   1.093   5.922 -0.4082 -0.0091  0.0962
  294CLA    CLA22354   5.055   5.287   2.778  0.2158 -0.1041 -0.0235
  295CLA    CLA22355   1.207   2.345   1.793 -0.3475  0.3381 -0.0814
  296CLA    CLA22356   5.787   3.324   0.493  0.2763  0.2465  0.0249
  297CLA    CLA22357   6.640   5.921  17.307 -0.0039  0.2137  0.5623
  298CLA    CLA22358   2.811   1.400  12.123  0.1861  0.7600 -0.2752
  299CLA    CLA22359   0.365   5.635   2.684  0.1442 -0.4185  0.3458
  300CLA    CLA22360   4.471   1.546   1.362  0.3300 -0.0232  0.3992
  301CLA    CLA22361   3.670   2.621  13.575 -0.2084 -0.0942 -0.1994
  302CLA    CLA22362   4.208   2.003   1.401 -0.1886  0.1473  0.1731
  303CLA    CLA22363   0.809   6.535  16.186 -0.0110  0.3246 -0.1126
  304CLA    CLA22364   2.776   0.301  14.633 -0.0328  0.1060 -0.0149
  305CLA    CLA22365   4.158   0.579  13.267 -0.3212 -0.1819 -0.3430
  306CLA    CLA22366   1.891   6.758  11.779 -0.1794 -0.2032 -0.0496
  307CLA    CLA22367   3.422   3.415  16.004  0.6888 -0.0686 -0.4059
  308CLA    CLA22368   4.079   2.014   5.281  0.2246  0.5162  0.1598
  309CLA    CLA22369   1.877   4.349  16.787 -0.2358 -0.2528 -0.0715
  310CLA    CLA22370   0.342   2.968   3.944  0.1572  0.0052  0.3427
  311CLA    CLA22371   5.855   6.743   2.112 -0.0964 -0.2976 -0.0688
  312CLA    CLA22372   1.255   5.384  12.946 -0.2877 -0.1431  0.2561
  313CLA    CLA22373   2.923   1.310   1.307  0.3724 -0.0512  0.0612
  314CLA    CLA22374   2.408   3.382   2.714 -0.2798  0.1517  0.4688
  315CLA    CLA22375   2.349   5.097  14.720  0.3611 -0.0985  0.0882
  316CLA    CLA22376   3.035   4.989  15.068 -0.3728  0.3301 -0.0504
  317CLA    CLA22377   4.597   3.761   3.629  0.1891 -0.5256  0.2476
  318CLA    CLA22378   0.303   2.698  12.282  0.2224  0.3445  0.2202
  319CLA    CLA22379   1.119   1.313   3.680 -0.1742 -0.5459  0.0716
  320CLA    CLA22380   3.197   5.913   5.383  0.0087 -0.0627  0.2217
  321CLA    CLA22381   4.258   2.987   4.151 -0.5332 -0.3831 -0.0822
  322CLA    CLA22382   4.278   5.515   4.600 -0.2101  0.2393  0.1335
  323TIP3   OH222383   2.722   4.790  13.990 -0.5842  0.3467 -0.5119
  323TIP3    H122384   2.693   4.699  13.990 -1.4908  0.6022  0.8802
  323TIP3    H222385   2.811   4.787  13.955 -0.3037 -1.1758  0.2446
  324TIP3   OH222386   2.683   1.377  16.518  0.3006 -0.1827 -0.3137
  324TIP3    H122387   2.676   1.288  16.554  1.5175  0.2965  1.2633
  324TIP3    H222388   2.626   1.430  16.574  0.6395  0.2423 -0.3634
  325TIP3   OH222389   4.826   4.521   0.771  0.3369  0.1908 -0.1574
  325TIP3    H122390   4.822   4.526   0.675 -1.5486  0.5967 -0.0911
  325TIP3    H222391   4.917   4.497   0.789  0.3778 -1.3895 -2.1001
  326TIP3   OH222392   3.603   4.417   0.086  0.3255  0.0636 -0.2669
  326TIP3    H122393   3.645   4.484   0.140  1.0503 -0.2216 -0.4660
  326TIP3    H222394   3.509   4.432   0.098  0.4650  1.8414 -1.2055
  327TIP3   OH222395   4.668   1.570   5.332  0.0526  0.0345 -0.1817
  327TIP3    H122396   4.630   1.553   5.418 -0.9207  2.6918  0.0221
  327TIP3    H222397   4.592   1.590   5.276  0.7083 -1.1077 -1.5504
  328TIP3   OH222398   6.043   3.991  13.420 -0.1758  0.3534 -0.1376
  328TIP3    H122399   6.138   3.999  13.430  0.0009  0.1647 -1.5426
  328TIP3    H222400   6.029   3.908  13.375 -1.0096  0.4109 -0.0166
  329TIP3   OH222401   0.943   0.784   1.089 -0.0852 -0.4787  0.2954
  329TIP3    H122402   0.878   0.844   1.052  1.1212  0.4531 -0.3861
  329TIP3    H222403   1.008   0.774   1.020  1.0927 -0.4508  1.3649
  330TIP3   OH222404   3.757   3.271   0.251  0.1539 -0.2959  0.2955
  330TIP3    H122405   3.671   3.253   0.211  0.1326 -2.6492  1.2413
  330TIP3    H222406   3.802   3.325   0.186 -0.6789 -2.1359 -1.9699
  331TIP3   OH222407   5.671   0.297   5.333 -0.8333  0.0661 -0.2124
  331TIP3    H122408   5.664   0.358   5.406  1.9331  0.2565 -0.0186
  331TIP3    H222409   5.606   0.329   5.270 -0.5517  2.3212  0.5261
  332TIP3   OH222410   5.680   5.747   6.079 -0.3320  0.1396 -0.4485
  332TIP3    H122411   5.650   5.835   6.056 -1.0096  0.2292  0.7020
  332TIP3    H222412   5.730   5.759   6.160  1.2265 -0.2905 -1.2993
  333TIP3   OH222413   2.869   1.397  15.015 -0.1214  0.3207 -0.2008
  333TIP3    H122414   2.788   1.401  15.066  1.3996  2.7132  2.3939
  333TIP3    H222415   2.933   1.443  15.070  3.1356 -1.8090 -1.9018
  334TIP3   OH222416   4.796   4.963  15.055  0.1561  0.0858  0.1546
  334TIP3    H122417   4.711   4.969  15.011 -0.8090 -1.7000  1.6372
  334TIP3    H222418   4.832   5.052  15.051 -1.1445  0.5784 -1.6968
  335TIP3   OH222419   5.223   1.161   3.717 -0.4376  0.2854 -0.3396
  335TIP3    H122420   5.288   1.225   3.688  0.0984  0.4538  1.1906
  335TIP3    H222421   5.274   1.086   3.746 -1.0098 -0.2607 -0.7156
  336TIP3   OH222422   1.112   5.854  12.859  0.1900  0.0814  0.0888
  336TIP3    H122423   1.184   5.808  12.901  2.0014  1.6033 -1.2095
  336TIP3    H222424   1.090   5.925  12.919  0.6454  0.3896 -0.1110
  337TIP3   OH222425   6.170   3.079  14.711  0.0621 -0.1988 -0.6584
  337TIP3    H122426   6.176   3.173  14.693  0.9176  0.0876  0.9254
  337TIP3    H222427   6.259   3.046  14.698 -0.3476 -0.9266 -1.7723
  338TIP3   OH222428   2.976   2.658  13.198 -0.0622 -0.0718  0.1633
  338TIP3    H122429   2.952   2.693  13.112 -0.1521  1.1627  0.6750
  338TIP3    H222430   2.909   2.592  13.217  0.3999 -0.9210 -1.0398
  339TIP3   OH222431   0.222   3.265   0.729  0.2030 -0.2741  0.5253
  339TIP3    H122432   0.286   3.298   0.792  1.7063 -0.3932 -0.8487
  339TIP3    H222433   0.274   3.212   0.668 -1.4171 -1.3596  0.0241
  340TIP3   OH222434   3.049   0.895  12.211  0.0434  0.4190  0.2975
  340TIP3    H122435   3.023   0.964  12.150  0.8881  0.7402  0.2950
  340TIP3    H222436   3.142   0.881  12.195 -0.3334 -1.5594 -0.5143
  341TIP3   OH222437   2.120   3.962   2.110  0.2574 -0.2768 -0.2374
  341TIP3    H122438   2.117   3.867   2.115  0.9853 -0.2547  0.7825
  341TIP3    H222439   2.083   3.992   2.193 -2.5950  0.4119 -1.6166
  342TIP3   OH222440   0.386   4.453  17.111 -0.3552  0.1105 -0.4628
  342TIP3    H122441   0.451   4.388  17.087 -0.4662  0.2881 -1.2522
  342TIP3    H222442   0.309   4.432  17.058 -0.1888  1.2510 -1.1950
  343TIP3   OH222443   0.560   1.902  12.650 -0.3621  0.4842 -0.2630
  343TIP3    H122444   0.631   1.871  12.593 -0.2593 -0.8257  0.5419
  343TIP3    H222445   0.488   1.842  12.635 -0.3381  0.1217  0.9641
  344TIP3   OH222446   2.194   1.762  15.035 -0.3621 -0.3795  0.7584
  344TIP3    H122447   2.280   1.766  15.077  0.0746 -1.0865 -0.0321
  344TIP3    H222448   2.195   1.680  14.986 -0.5465  0.7578 -1.2758
  345TIP3   OH222449   2.775   3.571  13.664  0.4858 -0.0399 -0.3512
  345TIP3    H122450   2.715   3.536  13.598 -1.2832 -0.3031  1.3114
  345TIP3    H222451   2.861   3.565  13.623 -0.0790 -3.4342 -1.3900
  346TIP3   OH222452   6.083   0.709  17.146  0.0281  0.1079  0.0892
  346TIP3    H122453   6.071   0.796  17.106  0.4453  0.1216 -0.0195
  346TIP3    H222454   6.172   0.684  17.119  0.6016  0.4343  1.5905
  347TIP3   OH222455   4.592   4.195   3.257  0.1617 -0.4601  0.2381
  347TIP3    H122456   4.515   4.204   3.200  0.3457 -2.6852 -0.4530
  347TIP3    H222457   4.557   4.210   3.345 -0.8124 -0.2407 -0.1643
  348TIP3   OH222458   1.436   2.727  10.943 -0.2942 -0.6787 -0.0280
  348TIP3    H122459   1.413   2.642  10.906  1.7643 -0.5385 -1.8424
  348TIP3    H222460   1.431   2.788  10.869  2.0227 -0.0168  0.2629
  349TIP3   OH222461   5.547   2.620   3.725 -0.1135 -0.1612  0.3667
  349TIP3    H122462   5.641   2.640   3.733  0.4338 -1.0289 -2.7729
  349TIP3    H222463   5.505   2.705   3.718  0.7321  0.2088 -0.4439
  350TIP3   OH222464   2.327   2.732  16.423  0.1444  0.1464  0.4497
  350TIP3    H122465   2.243   2.687  16.431 -0.0343 -0.3090 -2.8284
  350TIP3    H222466   2.309   2.821  16.455 -1.1762 -0.3125  1.0900
  351TIP3   OH222467   3.409   2.701  12.327 -0.2265  0.2757 -0.0865
  351TIP3    H122468   3.349   2.636  12.292  1.1226 -1.4817  0.7139
  351TIP3    H222469   3.426   2.672  12.417  1.3190  1.0530 -0.0841
  352TIP3   OH222470   3.036   3.924  15.482  0.5736  0.5154 -0.2051
  352TIP3    H122471   3.040   3.833  15.513  0.8783  0.1054 -1.4093
  352TIP3    H222472   2.943   3.938  15.460 -0.1947  1.6001  3.0321
  353TIP3   OH222473   5.426   2.834  17.350 -0.9680 -0.0637  0.4703
  353TIP3    H122474   5.507   2.790  17.325 -1.2837 -0.0662 -0.5831
  353TIP3    H222475   5.361   2.803  17.287 -1.8147 -0.1035  1.3281
  354TIP3   OH222476   6.026   2.648   0.592  0.4359 -0.4631  0.3428
  354TIP3    H122477   5.969   2.648   0.515  0.3884 -0.2935  0.3788
  354TIP3    H222478   6.114   2.662   0.556  0.2534  1.1778  0.4361
  355TIP3   OH222479   3.671   1.000  14.066  0.1484 -0.5145 -0.3519
  355TIP3    H122480   3.709   1.083  14.037 -0.1025 -0.7524 -1.4133
  355TIP3    H222481   3.601   1.026  14.126  1.1068 -0.0349  0.5949
  356TIP3   OH222482   6.353   1.638   6.104  0.4203  0.1168  0.2626
  356TIP3    H122483   6.282   1.589   6.146  0.3484  0.2621  0.3116
  356TIP3    H222484   6.383   1.699   6.171  0.3070  0.3491  0.1036
  357TIP3   OH222485   6.640   4.532   0.496 -0.1101 -0.2470  0.2635
  357TIP3    H122486   6.727   4.537   0.536  0.2599  2.2330 -0.6519
  357TIP3    H222487   6.589   4.599   0.542 -0.5419  0.5841 -1.3575
  358TIP3   OH222488   1.786   1.247  12.221 -0.3459 -0.7021  0.1334
  358TIP3    H122489   1.825   1.216  12.140  0.4812 -0.7826  0.5416
  358TIP3    H222490   1.775   1.168  12.275 -3.1700 -1.0195 -0.7763
  359TIP3   OH222491   6.059   4.227  17.227 -0.0559  0.0315  0.1133
  359TIP3    H122492   6.061   4.309  17.276  2.6222  0.4085 -0.4394
  359TIP3    H222493   6.029   4.162  17.291 -0.2679  1.1084  1.1502
  360TIP3   OH222494   3.421   3.070  16.455  0.0518  0.1256  0.6297
  360TIP3    H122495   3.422   3.040  16.364  2.0877  1.8706  0.0153
  360TIP3    H222496   3.347   3.131  16.459 -0.0563  0.0309  0.1492
  361TIP3   OH222497   1.479   5.590   5.092 -0.4846 -0.1621  0.1369
  361TIP3    H122498   1.518   5.521   5.147  1.1593 -0.5208 -1.3863
  361TIP3    H222499   1.453   5.658   5.154 -0.6014 -1.4159  1.5345
  362TIP3   OH222500   5.588   6.330   2.433 -0.3818  0.5547 -0.4045
  362TIP3    H122501   5.600   6.271   2.358 -3.5809  0.6516 -1.1322
  362TIP3    H222502   5.599   6.418   2.397 -1.0983  0.5761 -0.5693
  363TIP3   OH222503   0.686   5.473   2.033  0.0026  0.0823 -0.2331
  363TIP3    H122504   0.758   5.463   1.971  0.1656  0.8678 -0.1739
  363TIP3    H222505   0.730   5.482   2.118 -0.0725  1.9609 -0.3454
  364TIP3   OH222506   5.885   4.025  14.913 -0.4967  0.3866  0.1361
  364TIP3    H122507   5.871   4.097  14.974  0.6963  0.6084  0.1843
  364TIP3    H222508   5.891   4.067  14.827 -0.5082  0.2672  0.0762
  365TIP3   OH222509   4.909   5.532   6.724  0.1532 -0.5071  0.5381
  365TIP3    H122510   4.932   5.468   6.792  1.1298 -1.6888 -0.8545
  365TIP3    H222511   4.831   5.575   6.758 -0.8842 -2.8231  1.3330
  366TIP3   OH222512   0.185   1.350  14.113  0.2393 -0.1633 -0.5959
  366TIP3    H122513   0.238   1.272  14.127 -0.1968 -0.3083  0.2518
  366TIP3    H222514   0.097   1.325  14.140 -0.2266  0.1602 -1.7423
  367TIP3   OH222515   4.138   5.813  16.275  0.0743 -0.2225 -0.1751
  367TIP3    H122516   4.187   5.731  16.273 -2.0362 -1.6109  1.1270
  367TIP3    H222517   4.175   5.860  16.350  0.1578 -0.7430  0.1191
  368TIP3   OH222518   1.770   5.789   2.461 -0.0678  0.1148 -0.1260
  368TIP3    H122519   1.851   5.741   2.442 -1.0596 -1.5836 -0.2433
  368TIP3    H222520   1.767   5.858   2.395  2.2277  1.4733  1.0428
  369TIP3   OH222521   3.399   2.654   2.447 -0.1437  0.4714 -0.1709
  369TIP3    H122522   3.334   2.611   2.503 -0.8055  1.4309 -0.1899
  369TIP3    H222523   3.375   2.627   2.359  1.2672 -1.5399 -0.0007
  370TIP3   OH222524   2.684   0.970  16.287 -0.4377  0.0605 -0.1422
  370TIP3    H122525   2.590   0.969  16.269 -0.5825  0.7480  0.5175
  370TIP3    H222526   2.715   0.884  16.260 -1.6616 -1.0121  1.6688
  371TIP3   OH222527   0.439   1.068   0.672  0.8559 -0.2692  0.1322
  371TIP3    H122528   0.394   1.146   0.706  1.3571 -0.4195  1.1767
  371TIP3    H222529   0.457   1.089   0.580 -0.7448  0.0554 -0.1360
  372TIP3   OH222530   2.994   4.400  14.331 -0.1210 -0.1063 -0.3743
  372TIP3    H122531   2.951   4.408  14.245  0.1638 -0.5175 -0.5575
  372TIP3    H222532   2.945   4.459  14.388 -2.2507 -2.0872 -0.0450
  373TIP3   OH222533   0.854   1.975   4.582 -0.0852  0.0203  0.8577
  373TIP3    H122534   0.910   1.905   4.616 -1.4026 -2.2713 -1.3106
  373TIP3    H222535   0.880   1.985   4.490 -0.6548  1.6497  0.8370
  374TIP3   OH222536   6.593   1.858  14.317  0.5364 -0.2372  0.4407
  374TIP3    H122537   6.555   1.945  14.314 -0.1191 -0.5276  0.0367
  374TIP3    H222538   6.688   1.872  14.316  0.4618  0.5232  1.8419
  375TIP3   OH222539   5.969   5.884   2.870  0.0409  0.1202 -0.4346
  375TIP3    H122540   5.973   5.878   2.966 -0.6450  1.5136 -0.2936
  375TIP3    H222541   6.057   5.860   2.841  1.5070  3.3480  0.8180
  376TIP3   OH222542   2.595   0.999   5.285 -0.6096  0.6107  0.1979
  376TIP3    H122543   2.577   1.078   5.337  1.9315  0.8195  0.8944
  376TIP3    H222544   2.644   1.031   5.209 -0.0917 -0.2175  0.1711
  377TIP3   OH222545   6.303   0.966  15.945 -0.6931 -0.1372  0.0756
  377TIP3    H122546   6.315   1.059  15.924 -0.7396  0.1060  1.1034
  377TIP3    H222547   6.250   0.966  16.024 -0.3062 -1.0334  0.3442
  378TIP3   OH222548   1.831   2.643  12.646  0.7317  0.1555 -0.0517
  378TIP3    H122549   1.797   2.721  12.689  1.0767  0.5901 -0.5523
  378TIP3    H222550   1.753   2.590  12.628  0.3405  0.9886 -0.8907
  379TIP3   OH222551   0.815   4.905   1.053  0.0245 -0.5650 -0.2677
  379TIP3    H122552   0.768   4.962   0.993 -1.0432 -1.3341 -0.1879
  379TIP3    H222553   0.890   4.874   1.003 -0.4114 -0.5659 -0.9352
  380TIP3   OH222554   4.724   3.995  15.019 -0.2412 -0.0336 -0.4970
  380TIP3    H122555   4.815   3.966  15.010 -0.1800  0.1500 -0.4608
  380TIP3    H222556   4.678   3.948  14.950 -0.2305 -0.5945 -0.1337
  381TIP3   OH222557   4.343   4.847   0.801  0.0120  0.0826 -0.0368
  381TIP3    H122558   4.354   4.757   0.770  2.3676  0.7062 -1.2621
  381TIP3    H222559   4.428   4.870   0.836 -0.2295  2.1800 -0.7325
  382TIP3   OH222560   3.871   6.010  13.888 -0.1590 -0.5161  0.6157
  382TIP3    H122561   3.860   6.098  13.922  0.0201 -0.2962  0.1119
  382TIP3    H222562   3.924   6.021  13.809  1.2915 -1.2509  1.4553
  383TIP3   OH222563   6.599   4.676   1.724 -0.2480  0.0187  0.4641
  383TIP3    H122564   6.593   4.583   1.701  0.0415  0.0339  0.3244
  383TIP3    H222565   6.623   4.676   1.816  2.7023 -0.0909 -0.1861
  384TIP3   OH222566   0.797   1.262  12.842  0.0453  0.4258  0.0016
  384TIP3    H122567   0.879   1.222  12.873  0.8479  2.4014  0.5728
  384TIP3    H222568   0.754   1.292  12.921  0.5287  2.5902 -0.4985
  385TIP3   OH222569   0.231   6.410  11.605  0.7410  0.4023 -0.6803
  385TIP3    H122570   0.212   6.348  11.535 -0.0425 -0.0675 -0.0598
  385TIP3    H222571   0.297   6.366  11.659  0.1896  0.1061 -0.2438
  386TIP3   OH222572   3.752   3.148  15.334  0.0595  0.1565  0.0808
  386TIP3    H122573   3.834   3.193  15.315 -0.4595  1.3296  0.5546
  386TIP3    H222574   3.777   3.075  15.391  0.9306 -0.3013 -0.8557
  387TIP3   OH222575   4.620   3.183  17.376 -0.1964 -0.6642  0.2197
  387TIP3    H122576   4.651   3.191  17.286  2.5536 -0.9951  1.0225
  387TIP3    H222577   4.554   3.251  17.386 -0.2563 -0.3644 -1.9234
  388TIP3   OH222578   0.191   3.022   4.763  0.1844  0.0734 -0.5807
  388TIP3    H122579   0.150   3.005   4.678  0.7151  0.6935 -0.9716
  388TIP3    H222580   0.284   3.033   4.743  0.1381  1.4505 -0.0916
  389TIP3   OH222581   4.253   0.558   6.139 -0.0840 -0.1683  0.2210
  389TIP3    H122582   4.166   0.529   6.164 -1.4935  2.6744 -0.9195
  389TIP3    H222583   4.289   0.599   6.218 -0.8530  0.8588  0.0590
  390TIP3   OH222584   4.943   3.311   2.400  0.2247  0.6805 -0.2340
  390TIP3    H122585   4.854   3.280   2.388 -0.3793  2.1244  0.3302
  390TIP3    H222586   4.962   3.296   2.492  1.7688 -2.5239 -0.9332
  391TIP3   OH222587   1.661   1.596  13.364  0.4097  0.2241  0.2173
  391TIP3    H122588   1.596   1.539  13.323  0.1844  0.0978  0.7516
  391TIP3    H222589   1.690   1.653  13.292  0.5827 -0.5006 -0.3022
  392TIP3   OH222590   3.826   6.243  13.522  0.2395 -0.3627  0.1482
  392TIP3    H122591   3.744   6.276  13.485  0.2080 -0.7020 -0.0941
  392TIP3    H222592   3.838   6.158  13.480  0.5226 -0.4805  0.4626
  393TIP3   OH222593   4.071   4.363   4.445 -0.1247  0.3028  0.3345
  393TIP3    H122594   4.138   4.302   4.478 -0.2915 -0.1550 -0.1573
  393TIP3    H222595   4.121   4.441   4.421  0.2594 -0.0693 -0.1203
  394TIP3   OH222596   0.759   2.406  15.697 -0.1723 -0.3617  0.7561
  394TIP3    H122597   0.686   2.383  15.755 -0.8362 -0.8265 -0.2481
  394TIP3    H222598   0.816   2.460  15.752 -1.2483 -0.0035  1.5777
  395TIP3   OH222599   2.862   3.242   3.510 -0.0799  0.2787 -0.3585
  395TIP3    H122600   2.832   3.321   3.555  0.4825  0.6130 -0.5543
  395TIP3    H222601   2.788   3.182   3.513  0.4406 -0.3877  2.5880
  396TIP3   OH222602   0.629   2.729  13.905  0.6587 -0.4684  0.6502
  396TIP3    H122603   0.635   2.688  13.991  2.2811 -0.5364  0.5242
  396TIP3    H222604   0.638   2.823  13.922 -0.5872 -0.3380  0.6897
  397TIP3   OH222605   4.822   6.132   1.759 -0.0399 -0.6011  0.1340
  397TIP3    H122606   4.804   6.038   1.770  1.1023 -0.8357  0.1630
  397TIP3    H222607   4.778   6.156   1.678 -1.8425 -0.7254  1.0145
  398TIP3   OH222608   3.564   1.958   3.407 -0.6295 -0.0757  0.4011
  398TIP3    H122609   3.513   1.888   3.448 -1.4968  1.0076  1.2346
  398TIP3    H222610   3.605   2.004   3.480 -0.2283  0.4148 -0.1262
  399TIP3   OH222611   2.324   6.582   1.830  0.0288  0.3190 -0.8472
  399TIP3    H122612   2.313   6.494   1.866 -0.5226  0.3861 -0.8406
  399TIP3    H222613   2.235   6.617   1.825  0.2222  0.7862 -1.0774
  400TIP3   OH222614   5.852   5.516  15.181  0.2865  0.0090  0.1628
  400TIP3    H122615   5.769   5.542  15.142  0.3687  0.4693  0.2863
  400TIP3    H222616   5.861   5.423  15.159 -0.0187  0.0801 -0.2758
  401TIP3   OH222617   1.304   0.242  11.189  0.9100 -0.0622 -0.8086
  401TIP3    H122618   1.357   0.263  11.113  0.4146  2.6637 -0.4995
  401TIP3    H222619   1.348   0.285  11.262 -0.0298 -0.4086 -0.0178
  402TIP3   OH222620   4.299   0.940   0.704 -0.5553  0.0343 -0.7888
  402TIP3    H122621   4.388   0.912   0.683 -0.5551 -0.0008 -0.7417
  402TIP3    H222622   4.307   0.986   0.788 -0.6426 -0.3138 -0.5857
  403TIP3   OH222623   6.126   2.171  12.098  0.4728 -0.6737 -0.4444
  403TIP3    H122624   6.149   2.080  12.079 -2.8739 -2.0334  1.1960
  403TIP3    H222625   6.173   2.191  12.179  0.9944 -1.0234 -0.6545
  404TIP3   OH222626   5.104   1.826   3.608 -0.1102  0.0009  0.6529
  404TIP3    H122627   5.135   1.759   3.669  0.5828  0.1806  0.5058
  404TIP3    H222628   5.145   1.907   3.638 -0.7974  0.3314  0.7189
  405TIP3   OH222629   5.542   2.026   1.412 -0.5155 -0.0145 -0.0330
  405TIP3    H122630   5.543   2.085   1.488 -3.2815 -0.2602  0.3135
  405TIP3    H222631   5.526   2.084   1.338  1.4012  0.1307 -0.3849
  406TIP3   OH222632   6.636   5.784   4.302  0.1225  0.4259  0.2484
  406TIP3    H122633   6.548   5.806   4.274 -0.4502 -0.6596  1.1176
  406TIP3    H222634   6.630   5.777   4.397  1.1808  0.4948  0.3348
  407TIP3   OH222635   3.472   5.446   3.506  0.3785  0.2424 -0.0106
  407TIP3    H122636   3.488   5.407   3.420  1.6379  0.7894 -0.0561
  407TIP3    H222637   3.467   5.371   3.566  1.8935 -0.0809 -0.2267
  408TIP3   OH222638   1.181   0.989  12.657  0.2271  0.4432 -0.0523
  408TIP3    H122639   1.155   0.897  12.657 -0.4312  0.6182 -0.9296
  408TIP3    H222640   1.202   1.008  12.565  0.5384  1.1213  0.1519
  409TIP3   OH222641   1.698   3.822   4.128 -0.7611  0.2235 -0.0013
  409TIP3    H122642   1.661   3.843   4.213  0.0442  0.9977  0.1741
  409TIP3    H222643   1.646   3.874   4.066 -0.3551  0.8718  0.1868
  410TIP3   OH222644   6.044   0.675  14.130 -0.4692 -0.3182  0.3550
  410TIP3    H122645   6.097   0.755  14.129 -0.3841 -0.3745  0.3131
  410TIP3    H222646   5.979   0.688  14.062  0.5547 -0.9636 -0.8054
  411TIP3   OH222647   0.191   3.998   2.233 -0.0523 -0.6680 -0.3269
  411TIP3    H122648   0.117   3.944   2.263  0.2166 -0.2322  1.2479
  411TIP3    H222649   0.247   3.938   2.185 -0.9423 -1.2347 -0.6751
  412TIP3   OH222650   1.956   2.673  11.202 -0.2508  0.2764  0.3400
  412TIP3    H122651   1.878   2.703  11.249 -0.6047 -0.3358  0.1511
  412TIP3    H222652   1.939   2.696  11.110 -0.0360  0.4839  0.3495
  413TIP3   OH222653   4.913   3.102  15.040 -0.0570  0.2852  0.5116
  413TIP3    H122654   5.005   3.102  15.066  0.4968  0.3426 -1.3061
  413TIP3    H222655   4.886   3.193  15.049  0.3500  0.4465  0.1442
  414TIP3   OH222656   4.619   1.222   3.087  0.2543 -0.3931 -0.2214
  414TIP3    H122657   4.647   1.208   3.177  2.4213  0.1193 -0.7761
  414TIP3    H222658   4.675   1.165   3.034  0.3858  0.7591 -1.3896
  415TIP3   OH222659   5.861   5.682  11.221  0.1789 -0.2360 -0.0069
  415TIP3    H122660   5.841   5.730  11.301  0.1200 -1.5660  0.7971
  415TIP3    H222661   5.914   5.607  11.249 -1.8633 -2.1017 -0.8432
  416TIP3   OH222662   0.765   1.855   1.818 -0.1374  0.1251  0.3544
  416TIP3    H122663   0.820   1.859   1.897  3.3838 -0.2557 -1.8484
  416TIP3    H222664   0.752   1.946   1.793  4.1113  0.4111 -1.7736
  417TIP3   OH222665   5.060   0.907  10.439  0.3590 -0.6342  0.2738
  417TIP3    H122666   5.091   0.996  10.458  0.8729 -0.8821  0.6057
  417TIP3    H222667   4.982   0.920  10.384  2.8586 -0.0544 -3.4613
  418TIP3   OH222668   4.559   6.570  11.707 -1.0790 -0.1229  0.1400
  418TIP3    H122669   4.550   6.525  11.623 -0.7613  0.3329 -0.1463
  418TIP3    H222670   4.490   6.636  11.706 -0.5379  0.4587 -0.1514
  419TIP3   OH222671   2.162   3.962  11.648  0.4572  0.4051  0.2446
  419TIP3    H122672   2.220   4.038  11.641  0.4427  0.3504 -0.5421
  419TIP3    H222673   2.074   3.997  11.632  0.1855  0.5672  1.8664
  420TIP3   OH222674   1.671   5.298   5.552 -0.4362  0.0572  0.1985
  420TIP3    H122675   1.615   5.365   5.591 -1.0643 -0.6677  0.5845
  420TIP3    H222676   1.714   5.257   5.627  1.8372  1.5968 -0.1609
  421TIP3   OH222677   3.517   6.664   1.739 -0.4758  0.4708  0.1240
  421TIP3    H122678   3.505   6.732   1.673  0.1202 -0.9982 -1.5955
  421TIP3    H222679   3.428   6.638   1.763 -0.8860 -1.5802 -3.0300
  422TIP3   OH222680   4.782   5.320  13.408  0.2566  0.0568  0.3083
  422TIP3    H122681   4.691   5.321  13.439 -0.2202  0.2221 -1.0305
  422TIP3    H222682   4.807   5.412  13.403 -0.1007  0.1010 -0.9521
  423TIP3   OH222683   3.826   6.346  11.968 -0.2844 -0.4389 -0.9069
  423TIP3    H122684   3.801   6.281  12.034 -1.2964  0.7459 -0.0765
  423TIP3    H222685   3.903   6.308  11.925  1.6743 -0.3951  2.2742
  424TIP3   OH222686   5.465   0.807   2.324  0.3523  0.0061 -0.0914
  424TIP3    H122687   5.434   0.788   2.236  1.9536  1.0248 -0.9184
  424TIP3    H222688   5.461   0.902   2.332  2.4848  0.1592 -0.0191
  425TIP3   OH222689   0.904   1.725   5.748  0.0102 -0.3703  0.0099
  425TIP3    H122690   0.823   1.736   5.699  0.1620  0.2541 -0.1186
  425TIP3    H222691   0.909   1.803   5.804 -0.0233 -0.9418  0.8206
  426TIP3   OH222692   2.110   1.089  15.086  0.3978 -0.1172  0.6134
  426TIP3    H122693   2.132   1.049  15.002 -0.3343  0.0439  0.3430
  426TIP3    H222694   2.028   1.048  15.112 -0.2560  1.0245  0.4326
  427TIP3   OH222695   2.145   5.010   0.777  0.5159 -0.1892 -0.0860
  427TIP3    H122696   2.053   5.030   0.792  0.4269 -1.2831  0.9965
  427TIP3    H222697   2.147   4.968   0.691  0.1905  0.9031 -0.6506
  428TIP3   OH222698   4.671   5.498   4.097  0.0368  0.3743 -0.5419
  428TIP3    H122699   4.728   5.504   4.173 -0.1599  1.0784 -0.4468
  428TIP3    H222700   4.616   5.421   4.114  0.0224  0.5016  0.0100
  429TIP3   OH222701   1.253   6.367  16.835  0.1719 -0.0689  0.1167
  429TIP3    H122702   1.272   6.274  16.829  1.8762  0.2017  0.9153
  429TIP3    H222703   1.203   6.376  16.916 -0.2584 -0.3153 -0.1171
  430TIP3   OH222704   2.724   4.037   5.402 -0.0268  0.5321  0.1339
  430TIP3    H122705   2.739   3.966   5.463  2.7483  1.5023  0.7077
  430TIP3    H222706   2.768   4.010   5.321  1.6211  1.7845  0.5559
  431TIP3   OH222707   4.925   3.981  13.153 -0.0998 -0.4079  0.3676
  431TIP3    H122708   4.832   3.971  13.176  0.0367 -2.8901  0.1779
  431TIP3    H222709   4.925   4.028  13.070 -0.8728  3.6967  2.4406
  432TIP3   OH222710   5.220   6.352   0.647 -0.3621  0.8374  0.3852
  432TIP3    H122711   5.190   6.269   0.683  0.4547  0.5185  0.3620
  432TIP3    H222712   5.165   6.367   0.570 -1.8993  1.3691  1.5533
  433TIP3   OH222713   0.297   1.832   5.282  0.5737  0.2594  0.2641
  433TIP3    H122714   0.310   1.772   5.356  3.3535 -0.1664 -0.4567
  433TIP3    H222715   0.240   1.784   5.222  0.9144 -0.7398  0.7137
  434TIP3   OH222716   5.428   4.841  12.172 -0.1195 -0.1759 -0.3577
  434TIP3    H122717   5.478   4.891  12.237  0.5744 -0.4647 -0.6604
  434TIP3    H222718   5.435   4.750  12.202 -1.6388 -0.0901  0.3665
  435TIP3   OH222719   0.639   0.925  11.951  0.3384  0.1060 -0.4569
  435TIP3    H122720   0.607   0.836  11.964  1.0676 -0.2348 -0.8965
  435TIP3    H222721   0.667   0.954  12.037  0.6373 -0.3158 -0.4070
  436TIP3   OH222722   3.325   2.174  12.943  0.0648 -0.0153  0.2745
  436TIP3    H122723   3.290   2.263  12.935  0.6968  0.3359  1.2046
  436TIP3    H222724   3.413   2.180  12.905 -0.3928 -0.5908 -0.9218
  437TIP3   OH222725   5.207   3.008  17.003 -0.0799 -0.1631 -0.5535
  437TIP3    H122726   5.222   2.946  16.931 -2.0382 -1.3874  0.0011
  437TIP3    H222727   5.159   2.957  17.068 -0.4349  1.5596  0.5886
  438TIP3   OH222728   2.416   3.306   5.303  0.1085 -0.8581  0.2252
  438TIP3    H122729   2.424   3.212   5.321  0.6958 -0.8168  0.2166
  438TIP3    H222730   2.399   3.310   5.209  1.4640 -0.9232 -0.0555
  439TIP3   OH222731   2.245   6.404  14.207 -0.7878  0.3255  0.4779
  439TIP3    H122732   2.159   6.429  14.239 -1.1418 -0.8324  0.4884
  439TIP3    H222733   2.232   6.383  14.115 -0.3761  0.7877  0.3105
  440TIP3   OH222734   6.427   0.357  11.885  0.9946 -0.1527  0.1741
  440TIP3    H122735   6.397   0.404  11.963  1.0316 -0.0327  0.1153
  440TIP3    H222736   6.507   0.312  11.913 -0.3699 -2.2226  0.9626
  441TIP3   OH222737   6.344   6.433   5.533 -0.1069 -0.1071 -0.0167
  441TIP3    H122738   6.418   6.374   5.518 -1.6961 -1.7207 -2.1786
  441TIP3    H222739   6.340   6.487   5.454  0.3605  1.9123  1.2641
  442TIP3   OH222740   4.453   0.683   4.011  0.1941  0.2647  0.2895
  442TIP3    H122741   4.461   0.596   3.972 -2.9226 -0.0377  0.0875
  442TIP3    H222742   4.377   0.722   3.967  1.2708  2.9931  0.6280
  443TIP3   OH222743   4.603   6.656  16.524 -0.5160  0.5216 -0.2099
  443TIP3    H122744   4.553   6.606  16.460  0.3760  0.5606 -0.9675
  443TIP3    H222745   4.550   6.655  16.604 -0.3765 -1.9138 -0.0826
  444TIP3   OH222746   1.297   1.477   4.920  0.2168  0.0180  0.3618
  444TIP3    H122747   1.300   1.382   4.933 -0.1797 -0.2491 -1.2234
  444TIP3    H222748   1.203   1.497   4.914  0.2386  0.7544  2.1289
  445TIP3   OH222749   3.589   2.005   1.786 -0.0247  0.0085 -0.4037
  445TIP3    H122750   3.673   2.022   1.744  1.0464 -1.5257  1.0326
  445TIP3    H222751   3.550   1.935   1.734  1.4925 -2.1913  1.2928
  446TIP3   OH222752   5.841   4.886  15.577 -0.5865 -0.1756 -0.1284
  446TIP3    H122753   5.810   4.949  15.642 -1.2781  0.0022 -0.6097
  446TIP3    H222754   5.874   4.941  15.505 -0.7517 -0.3632 -0.3501
  447TIP3   OH222755   0.200   5.682   5.933 -0.6417  0.1808 -0.5983
  447TIP3    H122756   0.114   5.690   5.974 -0.5898 -2.6002  0.2636
  447TIP3    H222757   0.260   5.664   6.006  0.1142 -1.0152 -1.4672
  448TIP3   OH222758   6.101   6.193  13.299  0.5870  0.3635  0.0763
  448TIP3    H122759   6.147   6.113  13.275  0.3870 -0.0389  0.9626
  448TIP3    H222760   6.039   6.165  13.367 -0.7495  0.9460 -0.8534
  449TIP3   OH222761   1.399   2.103  12.316  0.0109  0.0713  0.3460
  449TIP3    H122762   1.328   2.085  12.254  0.0080  0.6429  0.1737
  449TIP3    H222763   1.469   2.043  12.291  0.6775  1.4475 -1.3605
  450TIP3   OH222764   6.501   6.116  10.923  0.7238 -0.9702 -1.1595
  450TIP3    H122765   6.492   6.134  11.017  0.2036  1.0616 -1.5620
  450TIP3    H222766   6.477   6.023  10.915 -0.4182 -0.8737  0.5560
  451TIP3   OH222767   3.126   2.456  14.239  0.9490  0.6543  0.0132
  451TIP3    H122768   3.166   2.512  14.173  1.8587  0.9054  0.7571
  451TIP3    H222769   3.198   2.432  14.297  0.5166 -1.0676 -0.1231
  452TIP3   OH222770   6.668   6.034   5.683 -1.1151  0.3374 -0.1116
  452TIP3    H122771   6.618   6.090   5.744 -1.5420 -0.8689  0.6810
  452TIP3    H222772   6.673   5.950   5.728  1.1052  0.2340 -0.4631
  453TIP3   OH222773   4.915   3.906  11.818  0.0614 -1.1033 -0.3856
  453TIP3    H122774   4.923   3.855  11.738  1.0229 -1.3855 -0.1174
  453TIP3    H222775   4.984   3.873  11.875  0.2747  0.0383  0.0482
  454TIP3   OH222776   3.949   3.411  14.338 -0.0017  0.4553 -0.4929
  454TIP3    H122777   3.934   3.492  14.289 -1.2499  0.6660  0.1671
  454TIP3    H222778   3.949   3.342  14.272  0.1448  0.9082 -0.9704
  455TIP3   OH222779   6.354   0.291  14.417  0.7072 -0.4780 -0.1506
  455TIP3    H122780   6.397   0.275  14.333 -0.2771 -0.8895 -0.5975
  455TIP3    H222781   6.364   0.385  14.431  0.2524 -0.2704 -1.0982
  456TIP3   OH222782   4.891   5.691   1.965 -0.0036  0.4371 -0.3691
  456TIP3    H122783   4.874   5.596   1.961  0.2331  0.4269 -1.7590
  456TIP3    H222784   4.986   5.698   1.965  0.0184  0.6525  1.6797
  457TIP3   OH222785   0.681   1.684  15.377  0.4149  0.0592  0.3160
  457TIP3    H122786   0.772   1.711  15.364  0.1062  0.2454 -1.9796
  457TIP3    H222787   0.630   1.755  15.338 -0.6786 -0.5772  0.5524
  458TIP3   OH222788   1.543   2.834  12.366  0.1468 -0.1681  1.1660
  458TIP3    H122789   1.609   2.886  12.411  0.2660 -0.7034  1.6223
  458TIP3    H222790   1.591   2.788  12.297 -0.3631  2.1975 -0.8961
  459TIP3   OH222791   1.688   0.614  14.728  0.3506 -0.0616 -0.0099
  459TIP3    H122792   1.755   0.618  14.797 -0.4352  1.3032  0.7075
  459TIP3    H222793   1.678   0.520  14.710  2.8999 -0.2895 -0.6037
  460TIP3   OH222794   5.767   3.068   4.453  0.2633  0.3939  0.0981
  460TIP3    H122795   5.765   2.997   4.518 -1.0686  0.0545 -0.2716
  460TIP3    H222796   5.750   3.147   4.503  2.4544  0.5884  0.6231
  461TIP3   OH222797   2.221   6.559  15.868  0.1042 -0.3004  0.4275
  461TIP3    H122798   2.258   6.514  15.943 -0.8514  1.4995  2.0625
  461TIP3    H222799   2.223   6.652  15.892 -0.6182  0.2948 -1.5922
  462TIP3   OH222800   4.326   5.301   5.543 -0.4611 -0.7964  0.0056
  462TIP3    H122801   4.322   5.396   5.533 -2.1467 -0.8986 -0.5621
  462TIP3    H222802   4.371   5.288   5.627  0.7320  0.4455 -0.4012
  463TIP3   OH222803   4.775   1.452   4.227  0.2207 -0.7372 -0.0767
  463TIP3    H122804   4.804   1.363   4.247 -0.8692 -1.3918 -1.2908
  463TIP3    H222805   4.816   1.472   4.143 -0.7379 -0.6839 -0.5420
  464TIP3   OH222806   2.158   2.429   4.300 -0.5269 -0.0135 -0.1332
  464TIP3    H122807   2.221   2.364   4.268  0.6735  1.5806 -1.1499
  464TIP3    H222808   2.110   2.383   4.370  1.5208 -1.4033  0.4668
  465TIP3   OH222809   0.322   0.880  13.443 -0.2923  0.0065 -0.1484
  465TIP3    H122810   0.381   0.912  13.376 -0.4965  0.5038 -0.0915
  465TIP3    H222811   0.257   0.949  13.454 -0.0947  0.0577  0.7737
  466TIP3   OH222812   6.545   6.275   0.914  0.0468 -0.1663  0.1553
  466TIP3    H122813   6.501   6.226   0.983 -0.7439  0.6346  0.2438
  466TIP3    H222814   6.613   6.324   0.959 -0.1958  0.0321  0.3083
  467TIP3   OH222815   2.785   2.807  11.618 -0.2727  0.0431  0.0853
  467TIP3    H122816   2.818   2.785  11.705  0.6611 -0.1218 -0.3015
  467TIP3    H222817   2.764   2.722  11.578 -0.4676  0.1043  0.0544
  468TIP3   OH222818   1.216   0.885   1.119 -0.1400  0.1173 -0.6182
  468TIP3    H122819   1.212   0.861   1.027 -1.3591 -2.6459  0.0601
  468TIP3    H222820   1.130   0.860   1.155  0.2818  1.1448  1.2790
  469TIP3   OH222821   2.575   4.439  13.845 -0.4258 -0.2904  0.1402
  469TIP3    H122822   2.581   4.358  13.896 -0.0107  0.4643  1.3085
  469TIP3    H222823   2.557   4.507  13.909 -0.0379  0.6683 -0.7412
  470TIP3   OH222824   5.545   1.025   0.206  0.2358  0.1545  0.0343
  470TIP3    H122825   5.481   1.013   0.276  0.7557 -1.0029  0.3316
  470TIP3    H222826   5.597   0.944   0.206 -0.2799 -0.2624 -2.2404
  471TIP3   OH222827   0.699   1.195   4.242 -0.1368  0.4803 -0.0513
  471TIP3    H122828   0.670   1.268   4.186 -0.9952  1.1248  1.1853
  471TIP3    H222829   0.622   1.175   4.296  0.8902  0.3499  1.3890
  472TIP3   OH222830   4.928   2.178   1.293 -0.0001 -0.0689 -0.1570
  472TIP3    H122831   5.012   2.147   1.258  0.3311  3.0849 -2.6615
  472TIP3    H222832   4.926   2.146   1.383  3.2886 -1.3420 -0.3957
  473TIP3   OH222833   3.159   0.693  11.863  0.0727 -0.3732 -0.0721
  473TIP3    H122834   3.151   0.715  11.771 -0.3290  1.8008  0.4296
  473TIP3    H222835   3.076   0.720  11.902  1.0395  0.8304  1.2713
  474TIP3   OH222836   2.848   2.164   5.961  0.0263 -0.1745 -0.1335
  474TIP3    H122837   2.816   2.251   5.938 -1.7113 -0.8277 -0.2871
  474TIP3    H222838   2.905   2.179   6.037 -2.8344  0.7737  1.9689
  475TIP3   OH222839   1.245   3.449   1.645  0.0392 -0.6335 -0.6425
  475TIP3    H122840   1.242   3.462   1.739  3.7635  1.2334 -0.5847
  475TIP3    H222841   1.297   3.369   1.633 -1.2380 -1.4159 -1.1656
  476TIP3   OH222842   1.279   5.526  17.344  0.4524  0.3766 -0.5755
  476TIP3    H122843   1.362   5.492  17.376  0.4295 -0.2757 -1.1791
  476TIP3    H222844   1.272   5.614  17.382 -0.3717 -0.9001  2.6082
  477TIP3   OH222845   3.484   3.321  16.286 -0.3047 -0.0958 -0.1585
  477TIP3    H122846   3.475   3.363  16.200 -1.3606 -0.1359 -0.0864
  477TIP3    H222847   3.541   3.379  16.335 -1.1803  0.8999 -0.2911
  478TIP3   OH222848   1.582   6.066  14.946 -0.0415 -0.7811  0.9428
  478TIP3    H122849   1.568   6.155  14.979  1.0594 -0.8042  1.4935
  478TIP3    H222850   1.511   6.053  14.883  1.4062  1.5737 -1.3593
  479TIP3   OH222851   1.224   0.612  11.775  0.0210 -0.6386  0.2793
  479TIP3    H122852   1.266   0.572  11.850 -0.8793 -1.6431  0.2662
  479TIP3    H222853   1.157   0.549  11.747 -1.8142  1.0609  0.5863
  480TIP3   OH222854   3.296   2.148  13.771 -0.9882  0.1748  0.1468
  480TIP3    H122855   3.353   2.154  13.693 -1.1488 -1.7274 -0.1541
  480TIP3    H222856   3.209   2.169  13.738 -1.0901 -0.8339 -0.2460
  481TIP3   OH222857   6.439   0.373  15.526  0.2273  0.3868  0.0731
  481TIP3    H122858   6.479   0.287  15.538 -0.1442  0.4104  1.7424
  481TIP3    H222859   6.357   0.356  15.481  1.3655  0.1836 -2.0541
  482TIP3   OH222860   2.223   6.689  17.109 -0.4724  0.3496 -0.4874
  482TIP3    H122861   2.202   6.596  17.115  0.4864  0.0742 -1.1236
  482TIP3    H222862   2.141   6.734  17.129 -0.4713 -0.5793  1.9490
  483TIP3   OH222863   6.136   3.882  12.339 -0.0619  0.0953  0.3417
  483TIP3    H122864   6.098   3.942  12.404  0.1742 -0.8105  1.3479
  483TIP3    H222865   6.179   3.814  12.392  1.0881 -0.0774 -0.7684
  484TIP3   OH222866   4.442   2.733   4.097 -0.1905  0.0946 -0.0794
  484TIP3    H122867   4.390   2.806   4.132 -2.0714 -0.9428 -0.5805
  484TIP3    H222868   4.504   2.775   4.037  0.6124  1.5287  1.6473
  485TIP3   OH222869   0.483   2.591  11.567  0.2215 -0.1489 -0.0752
  485TIP3    H122870   0.390   2.573  11.555  0.6846 -1.2683 -2.4165
  485TIP3    H222871   0.485   2.663  11.631 -2.3616  1.5069 -1.7026
  486TIP3   OH222872   0.207   4.659   1.422  0.0118 -0.3591  0.2630
  486TIP3    H122873   0.115   4.633   1.427  0.1843 -0.8641  1.2636
  486TIP3    H222874   0.241   4.641   1.510  1.3568 -1.2995 -0.3995
  487TIP3   OH222875   4.987   2.936  12.676 -0.0910  0.1129  0.4132
  487TIP3    H122876   4.962   2.844  12.684 -1.1475  0.0993 -2.0691
  487TIP3    H222877   4.988   2.968  12.766 -3.8903 -1.3189  1.1753
  488TIP3   OH222878   3.492   5.535  14.160 -0.6986 -0.2462  0.1211
  488TIP3    H122879   3.548   5.461  14.184 -1.4199 -1.2343 -1.1297
  488TIP3    H222880   3.442   5.553  14.240  1.4114  0.7526  1.3138
  489TIP3   OH222881   4.126   1.105  12.901 -0.3306  0.2893 -0.5240
  489TIP3    H122882   4.051   1.048  12.886 -0.9637  0.5555  1.3928
  489TIP3    H222883   4.202   1.049  12.883 -0.9058 -1.4455  1.8423
  490TIP3   OH222884   0.245   5.862  14.399  0.0798 -0.0781  0.3965
  490TIP3    H122885   0.180   5.815  14.450  0.9430  0.6687  2.2723
  490TIP3    H222886   0.213   5.858  14.309 -0.9106 -2.4141  0.8013
  491TIP3   OH222887   4.901   5.407   2.197  0.1035  0.1421 -0.3645
  491TIP3    H122888   4.933   5.321   2.168 -2.4496 -0.9318 -0.2092
  491TIP3    H222889   4.973   5.467   2.176  1.6184 -1.8724 -1.2935
  492TIP3   OH222890   6.103   2.673  11.436 -0.3400 -0.0446  0.2694
  492TIP3    H122891   6.027   2.660  11.492 -0.4928 -0.1213  0.0493
  492TIP3    H222892   6.074   2.740  11.373 -0.4317 -0.4915 -0.1778
  493TIP3   OH222893   3.358   5.018  11.519 -0.2616  0.2251 -0.0668
  493TIP3    H122894   3.411   5.097  11.517  1.3396 -0.6353  2.5938
  493TIP3    H222895   3.285   5.039  11.578  0.3191 -0.2989  0.8732
  494TIP3   OH222896   3.284   5.105  11.961  0.6011 -0.1210  0.3704
  494TIP3    H122897   3.309   5.050  11.887  2.3123 -0.4024  1.1010
  494TIP3    H222898   3.345   5.080  12.031  0.9340  2.1406  0.9699
  495TIP3   OH222899   1.053   6.665  14.354 -0.0230 -0.0819  0.1418
  495TIP3    H122900   1.019   6.676  14.265  1.0464 -1.1355 -0.4278
  495TIP3    H222901   1.085   6.575  14.356  1.0263  0.2914  1.2221
  496TIP3   OH222902   3.154   2.792   3.819  0.1966 -0.0300  0.1478
  496TIP3    H122903   3.241   2.832   3.821  0.4371 -0.5672  1.4313
  496TIP3    H222904   3.108   2.832   3.893 -0.8396  0.6284 -0.8252
  497TIP3   OH222905   1.712   5.725  15.147  0.0863 -0.2044 -0.0286
  497TIP3    H122906   1.728   5.803  15.201 -0.8032  0.5070 -0.7632
  497TIP3    H222907   1.652   5.672  15.199  0.9705 -0.5917  0.6288
  498TIP3   OH222908   2.227   5.865  10.954  0.4782  0.3881  0.3566
  498TIP3    H122909   2.214   5.890  10.863  0.5738  0.5537  0.3887
  498TIP3    H222910   2.180   5.931  11.005  1.1571  0.7935  0.4617
  499TIP3   OH222911   0.631   4.257   2.659 -0.7626 -0.2839 -0.2292
  499TIP3    H122912   0.720   4.236   2.633 -1.4741 -1.7763 -1.6898
  499TIP3    H222913   0.629   4.353   2.665  0.8591 -0.2202 -0.3696
  500TIP3   OH222914   0.723   3.463   5.502  0.0363  0.0807 -0.2613
  500TIP3    H122915   0.674   3.536   5.464 -0.8675 -0.2333  0.2680
  500TIP3    H222916   0.812   3.474   5.469  0.0579  1.7430  0.2443
  501TIP3   OH222917   3.349   4.959  16.368  0.2211 -0.4407  0.4149
  501TIP3    H122918   3.342   4.909  16.449  0.5366  0.8542  1.2760
  501TIP3    H222919   3.353   5.050  16.396  1.6164 -0.0183 -0.9917
  502TIP3   OH222920   1.531   0.430  15.465  0.4361  0.0966  0.3898
  502TIP3    H122921   1.602   0.414  15.527 -0.4933 -1.2278  1.1475
  502TIP3    H222922   1.467   0.483  15.514 -0.6572 -1.6032  0.8636
  503TIP3   OH222923   6.753   3.793   1.295 -0.3488  0.4525  0.2105
  503TIP3    H122924   6.795   3.723   1.345  0.1932 -0.9365 -2.0366
  503TIP3    H222925   6.752   3.868   1.354 -0.4337 -1.2741  2.5145
  504TIP3   OH222926   0.116   0.165  13.202 -0.2915  0.3230 -0.3657
  504TIP3    H122927   0.123   0.162  13.297 -0.3793 -2.4080 -0.3816
  504TIP3    H222928   0.181   0.230  13.175  0.6155  0.2258  1.4767
  505TIP3   OH222929   4.966   0.504   0.545 -0.1671  0.1988  0.3544
  505TIP3    H122930   5.026   0.518   0.618 -0.8824  1.9014  0.6532
  505TIP3    H222931   4.999   0.560   0.475 -0.0305 -0.7130 -0.3337
  506TIP3   OH222932   4.266   2.762  15.972 -0.3297  0.5873  0.1830
  506TIP3    H122933   4.194   2.704  15.948 -0.5058  1.0664 -0.4704
  506TIP3    H222934   4.243   2.794  16.059  0.1179 -0.8600  0.8712
  507TIP3   OH222935   3.036   3.073  12.928 -0.1078 -0.7965  0.1948
  507TIP3    H122936   2.988   3.035  13.002  0.4568  1.6496  1.9463
  507TIP3    H222937   3.126   3.042  12.939  0.7247  2.0727  2.5785
  508TIP3   OH222938   0.585   2.399   3.519 -0.7452  0.1751  0.1457
  508TIP3    H122939   0.621   2.314   3.494  0.9235  0.8974 -0.0338
  508TIP3    H222940   0.588   2.451   3.438 -5.0696 -0.5658 -0.7386
  509TIP3   OH222941   3.725   0.448   0.790 -0.3471  0.3096 -0.2106
  509TIP3    H122942   3.749   0.449   0.882  0.0961 -0.1882 -0.3141
  509TIP3    H222943   3.637   0.487   0.787 -1.0803 -1.1917  0.6352
  510TIP3   OH222944   0.142   0.896  14.220  0.0694 -0.1386  0.4400
  510TIP3    H122945   0.139   0.895  14.124  0.9669  1.4176  0.3712
  510TIP3    H222946   0.201   0.824  14.243  1.9752  1.1037 -0.3229
  511TIP3   OH222947   3.943   5.977   1.669  0.2365  0.0691  0.3047
  511TIP3    H122948   3.865   5.939   1.709 -0.3476  0.3810 -0.5050
  511TIP3    H222949   4.015   5.955   1.729 -0.7530  1.4691  2.0858
  512TIP3   OH222950   6.136   6.165   3.883  0.1119  0.3688  0.8047
  512TIP3    H122951   6.114   6.072   3.873  2.8059 -0.1997 -1.1808
  512TIP3    H222952   6.107   6.205   3.801 -0.2173  1.0800  1.2711
  513TIP3   OH222953   3.122   2.368  13.875 -0.0109  0.8808  0.2263
  513TIP3    H122954   3.100   2.313  13.950  3.4047  0.1228  0.8484
  513TIP3    H222955   3.102   2.314  13.798  2.6291 -1.1578  0.8125
  514TIP3   OH222956   1.645   0.001  14.341 -0.2573  0.1671 -0.3510
  514TIP3    H122957   1.618   0.068  14.278 -0.5275  1.9222  1.5362
  514TIP3    H222958   1.566  -0.052  14.354 -0.6985  0.8494 -0.2075
  515TIP3   OH222959   2.372   4.350  11.510 -0.3450 -0.8973  0.0796
  515TIP3    H122960   2.376   4.429  11.455  0.7812 -0.2267  1.0685
  515TIP3    H222961   2.280   4.326  11.509 -0.4157 -0.7649 -1.8670
  516TIP3   OH222962   2.637   3.210   5.776  0.0859 -0.2073  0.0091
  516TIP3    H122963   2.569   3.224   5.710 -0.1646 -0.0802  0.2891
  516TIP3    H222964   2.604   3.138   5.829 -0.7905  1.1001  1.3585
  517TIP3   OH222965   2.425   5.617   4.343 -0.5937 -0.0832  0.4818
  517TIP3    H122966   2.334   5.643   4.325 -0.8131  0.3024  2.0675
  517TIP3    H222967   2.478   5.681   4.295 -1.1113 -0.6960 -1.0001
  518TIP3   OH222968   4.403   4.831   6.129 -0.3756 -0.7001  0.4457
  518TIP3    H122969   4.429   4.792   6.046 -0.4826 -1.9557  0.9689
  518TIP3    H222970   4.387   4.756   6.186 -0.5120  0.1345  1.5366
  519TIP3   OH222971   5.958   4.195  13.840 -0.3607 -0.2623 -0.0109
  519TIP3    H122972   5.961   4.237  13.926  0.7512  0.7882 -0.5486
  519TIP3    H222973   5.864   4.182  13.823 -0.7722  2.1648  0.1067
  520TIP3   OH222974   5.360   6.674   4.731 -0.0430  0.7726  0.8058
  520TIP3    H122975   5.285   6.692   4.788  0.5134  1.0058  1.4775
  520TIP3    H222976   5.374   6.580   4.739 -2.3666  0.0204 -1.9799
  521TIP3   OH222977   4.162   1.885  15.946  0.2957  0.3120  0.3759
  521TIP3    H122978   4.104   1.954  15.915  2.0182  1.1819 -1.0975
  521TIP3    H222979   4.152   1.886  16.042 -0.9598  1.4335  0.2589
  522TIP3   OH222980   5.815   6.134   5.334 -0.0624  0.2099  0.1866
  522TIP3    H122981   5.880   6.182   5.385 -0.3521 -0.0140  0.7772
  522TIP3    H222982   5.776   6.199   5.276  0.0778  0.5283  0.4489
  523TIP3   OH222983   3.793   1.854   6.977  0.5103  0.4289  0.3320
  523TIP3    H122984   3.731   1.784   6.996  0.2907  0.7873  0.9699
  523TIP3    H222985   3.864   1.812   6.929  0.1208 -0.1242  0.2374
  524TIP3   OH222986   0.060   3.698  13.970 -0.0902 -0.2216 -0.3691
  524TIP3    H122987   0.003   3.740  13.904 -0.2155 -1.8738 -1.3717
  524TIP3    H222988   0.089   3.770  14.026 -0.9101  1.0778 -1.5474
  525TIP3   OH222989   0.836   4.650   1.200  0.5422  1.0158 -0.5124
  525TIP3    H122990   0.873   4.574   1.155 -0.1733  0.7168 -0.6210
  525TIP3    H222991   0.831   4.718   1.134 -2.2317  0.0210 -1.4702
  526TIP3   OH222992   1.717   4.153   3.927 -0.2519  0.1226 -0.1503
  526TIP3    H122993   1.801   4.107   3.936 -0.0022  0.8712  1.8530
  526TIP3    H222994   1.653   4.082   3.914  0.5443 -0.5316 -0.6076
  527TIP3   OH222995   3.996   2.331   3.037  0.6520 -0.3970 -0.1069
  527TIP3    H122996   3.950   2.317   3.120 -0.3104  2.1892 -0.1074
  527TIP3    H222997   3.928   2.321   2.971 -0.0112  3.0792 -0.1332
  528TIP3   OH222998   6.245   4.980   2.987  0.8908 -0.3059 -0.2213
  528TIP3    H122999   6.298   4.983   2.907  0.2157 -0.6443 -0.6901
  528TIP3    H223000   6.214   4.889   2.992 -0.7127  0.1759 -0.6731
  529TIP3   OH223001   2.616   5.505  11.180 -0.5641 -0.4066 -0.0279
  529TIP3    H123002   2.609   5.601  11.183  0.8066 -0.2087 -1.5826
  529TIP3    H223003   2.653   5.487  11.094 -0.0869 -2.3039  0.5339
  530TIP3   OH223004   2.105   4.408   5.125  0.2507  0.8177 -0.3608
  530TIP3    H123005   2.141   4.377   5.207  0.7195  1.0330 -0.4856
  530TIP3    H223006   2.098   4.330   5.070  1.0281  0.8587 -0.5244
  531TIP3   OH223007   0.464   5.155  11.404  0.0791  0.8746 -0.4589
  531TIP3    H123008   0.463   5.059  11.400  0.7292  0.9143 -2.2918
  531TIP3    H223009   0.458   5.175  11.498 -0.6107 -0.9349 -0.0699
  532TIP3   OH223010   0.933   5.012  16.660 -0.3304  0.2762  0.1759
  532TIP3    H123011   0.904   5.033  16.571 -1.0148  1.4074  0.6324
  532TIP3    H223012   0.871   4.946  16.690 -0.9622  0.8990  0.2787
  533TIP3   OH223013   3.352   2.049   0.252  0.3462 -0.5560 -0.0586
  533TIP3    H123014   3.362   1.954   0.252 -0.4739 -0.7063 -2.0078
  533TIP3    H223015   3.440   2.083   0.272  0.9076 -1.7356 -0.4356
  534TIP3   OH223016   0.405   0.445   3.447 -0.2555  0.2094 -0.3943
  534TIP3    H123017   0.498   0.449   3.471  0.1684  0.4049 -1.9891
  534TIP3    H223018   0.364   0.511   3.502  0.6866  0.6873 -0.2353
  535TIP3   OH223019   0.097   0.145   0.541  0.2327 -0.1823  0.2291
  535TIP3    H123020   0.024   0.172   0.596 -0.4109 -0.7879 -0.3096
  535TIP3    H223021   0.139   0.227   0.515 -0.0115  0.1493  0.8666
  536TIP3   OH223022   1.209   5.514  14.501 -0.0528  0.6539  0.2379
  536TIP3    H123023   1.268   5.584  14.531  0.5535  0.5675 -0.7014
  536TIP3    H223024   1.146   5.558  14.444 -0.5238  0.6427  0.7399
  537TIP3   OH223025   6.726   5.974   3.676  0.7155 -0.8434  0.0205
  537TIP3    H123026   6.755   5.987   3.767 -0.0873 -1.0423  0.3146
  537TIP3    H223027   6.643   5.928   3.684  0.7628 -1.0950 -0.8331
  538TIP3   OH223028   5.287   2.131   5.299 -0.4149 -0.0885 -0.7205
  538TIP3    H123029   5.332   2.189   5.237  0.1327  0.0374 -0.2183
  538TIP3    H223030   5.298   2.044   5.262 -0.9063  0.0778 -1.2798
  539TIP3   OH223031   3.041   4.260   6.170  0.4051  0.4153  0.3136
  539TIP3    H123032   3.085   4.279   6.252  0.5457  0.8433  0.1421
  539TIP3    H223033   2.948   4.262   6.192  0.4208  1.1462  0.3371
  540TIP3   OH223034   3.077   1.264   2.998  0.0267  0.7684  0.1804
  540TIP3    H123035   3.037   1.350   3.004 -0.9275  0.5746 -2.3501
  540TIP3    H223036   3.045   1.228   2.915  1.2644 -1.5804  0.6337
  541TIP3   OH223037   2.996   6.709  13.672 -0.2601  0.1567 -0.6471
  541TIP3    H123038   3.011   6.798  13.640  1.3372  0.3245  0.4762
  541TIP3    H223039   2.964   6.721  13.762 -1.5708 -0.3936 -1.0040
  542TIP3   OH223040   4.002   4.114  16.883 -0.8659 -0.3136  0.8184
  542TIP3    H123041   3.955   4.150  16.959  1.1141  0.1115  1.9014
  542TIP3    H223042   4.059   4.047  16.920 -1.0418 -1.2496 -0.5430
  543TIP3   OH223043   1.658   1.452  11.510  0.5188 -0.4879 -0.4909
  543TIP3    H123044   1.655   1.460  11.606  0.3067 -0.8133 -0.4679
  543TIP3    H223045   1.701   1.532  11.481 -1.3212  0.6647 -0.2574
  544TIP3   OH223046   1.883   2.097   0.276  0.1863 -0.2792 -0.1646
  544TIP3    H123047   1.959   2.129   0.323  0.4698 -0.1012 -0.7377
  544TIP3    H223048   1.814   2.161   0.295  0.2638 -0.2717  0.0956
  545TIP3   OH223049   5.020   5.783   5.593 -0.5120  0.7161  0.0338
  545TIP3    H123050   5.103   5.754   5.555 -1.0505 -0.4480 -0.2876
  545TIP3    H223051   5.010   5.873   5.563  0.2769  0.6202 -0.5334
  546TIP3   OH223052   2.245   0.805  11.807 -0.0625 -0.9559  0.8520
  546TIP3    H123053   2.150   0.805  11.812 -0.0718 -1.4174  0.7051
  546TIP3    H223054   2.268   0.896  11.786 -0.3663 -0.4501  2.5590
  547TIP3   OH223055   3.014   4.607  11.695 -0.4040  0.5331 -0.0655
  547TIP3    H123056   3.012   4.636  11.787 -1.3021 -0.7162  0.3284
  547TIP3    H223057   3.078   4.665  11.654 -0.0088  1.1478  1.3400
  548TIP3   OH223058   4.229   4.303   2.435  0.7588 -0.5665 -0.4609
  548TIP3    H123059   4.295   4.372   2.432 -0.5306  0.7509 -0.0916
  548TIP3    H223060   4.145   4.350   2.429 -0.1449 -2.2565 -2.3595
  549TIP3   OH223061   2.814   6.423   3.602 -0.2537  0.5237 -0.4520
  549TIP3    H123062   2.755   6.497   3.618 -0.8296 -0.0815  0.3666
  549TIP3    H223063   2.880   6.430   3.671 -0.8223 -0.2057  0.1930
  550TIP3   OH223064   2.768   6.520   2.645 -0.1365 -0.0077  0.0552
  550TIP3    H123065   2.809   6.461   2.581 -0.7091 -1.0412  0.6051
  550TIP3    H223066   2.749   6.600   2.596  1.9076  0.2609 -0.3739
  551TIP3   OH223067   4.409   1.475  13.903  0.6627 -0.5486  0.1214
  551TIP3    H123068   4.459   1.541  13.855 -0.2725 -0.1439 -0.3145
  551TIP3    H223069   4.448   1.392  13.877 -0.0196 -0.3585 -1.5970
  552TIP3   OH223070   3.669   6.356   1.328  0.9365 -0.1271 -0.3658
  552TIP3    H123071   3.615   6.385   1.402  1.8857  2.8914 -0.7534
  552TIP3    H223072   3.642   6.265   1.314 -0.5112 -0.2756  2.5569
  553TIP3   OH223073   3.757   0.165  11.765 -0.8115  0.0208  0.4559
  553TIP3    H123074   3.805   0.084  11.746  0.5919  0.7642  0.7008
  553TIP3    H223075   3.703   0.180  11.687  0.5396 -0.0192 -0.5247
  554TIP3   OH223076   1.348   4.374  14.705 -0.4050 -0.1667  0.4861
  554TIP3    H123077   1.341   4.292  14.657 -1.3874 -0.0972  0.4924
  554TIP3    H223078   1.306   4.357  14.789  1.0332 -0.1985  1.2339
  555TIP3   OH223079   4.365   3.132  12.986 -0.6849 -0.0977  0.3347
  555TIP3    H123080   4.425   3.206  12.991  0.4759 -1.0516  1.1607
  555TIP3    H223081   4.281   3.170  12.959 -0.0458  1.4509  0.4511
  556TIP3   OH223082   3.295   0.098  11.230 -0.2335 -0.1856 -0.7689
  556TIP3    H123083   3.264   0.138  11.150  2.8500  0.9908 -1.5356
  556TIP3    H223084   3.335   0.015  11.202 -1.0040 -0.8065 -0.0994
  557TIP3   OH223085   6.660   1.121   1.486  0.1782  0.0758  0.6389
  557TIP3    H123086   6.750   1.089   1.487  0.1788  0.0664  1.3810
  557TIP3    H223087   6.618   1.073   1.415  0.7727  0.1202  0.2498
  558TIP3   OH223088   1.076   3.403   4.908 -0.4041 -0.1489 -0.1033
  558TIP3    H123089   1.098   3.417   5.000 -0.2874 -1.0049  0.0044
  558TIP3    H223090   1.126   3.471   4.862  0.1626 -0.2160  0.3955
  559TIP3   OH223091   0.328   3.872   4.541 -0.0822  0.3006  0.0747
  559TIP3    H123092   0.251   3.843   4.491  0.3192 -0.0369 -0.3510
  559TIP3    H223093   0.332   3.812   4.616 -1.1439  1.2873  0.9721
  560TIP3   OH223094   1.064   2.270  16.500  0.4357 -0.5612 -0.4313
  560TIP3    H123095   0.980   2.314  16.513  0.2822 -0.6185 -1.1724
  560TIP3    H223096   1.091   2.295  16.412  1.1221 -0.6723 -0.2549
  561TIP3   OH223097   4.212   4.044   4.358  0.0802 -0.3334  0.0668
  561TIP3    H123098   4.221   4.027   4.264  1.5618 -1.7471  0.4245
  561TIP3    H223099   4.287   4.099   4.379 -0.2307 -0.0465  0.4390
  562TIP3   OH223100   1.909   5.218   4.445  0.1542  0.4822  0.2969
  562TIP3    H123101   1.950   5.305   4.445  0.0592  0.5291  0.8431
  562TIP3    H223102   1.970   5.164   4.494 -0.4099  0.5390  1.0704
  563TIP3   OH223103   6.433   2.157  11.857  0.3641  0.5287 -0.0600
  563TIP3    H123104   6.359   2.218  11.863  0.6980  0.9426 -0.0713
  563TIP3    H223105   6.397   2.080  11.813  0.1357  1.0559 -0.8349
  564TIP3   OH223106   1.892   3.006   1.088  0.5757 -0.4209  0.1519
  564TIP3    H123107   1.969   3.059   1.067  0.4863  0.6768  2.2264
  564TIP3    H223108   1.918   2.916   1.069  1.8667  0.0653 -0.4971
  565TIP3   OH223109   3.334   1.400   1.808 -0.0108  0.4258 -0.3952
  565TIP3    H123110   3.241   1.422   1.808 -0.9285 -2.9217  0.1006
  565TIP3    H223111   3.347   1.348   1.887  2.1878  0.3797 -0.7141
  566TIP3   OH223112   5.145   6.586   3.387  0.0730 -0.7268 -0.5477
  566TIP3    H123113   5.110   6.497   3.389 -1.1432 -0.2866  1.9570
  566TIP3    H223114   5.186   6.594   3.301  0.8549 -3.9160 -0.5787
  567TIP3   OH223115   6.220   3.187  12.701  0.1633  0.1447 -0.0223
  567TIP3    H123116   6.133   3.192  12.741 -0.2851  0.1153 -0.9635
  567TIP3    H223117   6.221   3.258  12.637  1.1051  0.5993  0.4720
  568TIP3   OH223118   1.361   3.441   4.618  0.0376 -0.4321 -0.5292
  568TIP3    H123119   1.447   3.399   4.617  0.6720  0.6908  1.2940
  568TIP3    H223120   1.359   3.489   4.701 -2.9264 -1.5504  0.1729
  569TIP3   OH223121   3.365   1.023  11.263 -0.0836  0.3247 -0.0012
  569TIP3    H123122   3.371   1.089  11.194 -0.5668 -0.2751 -0.6252
  569TIP3    H223123   3.271   1.016  11.282 -0.1507 -0.9529 -0.7134
  570TIP3   OH223124   1.673   6.232  12.404  0.4513 -0.0732  0.2098
  570TIP3    H123125   1.742   6.166  12.393  0.3562 -0.3488  1.1418
  570TIP3    H223126   1.593   6.180  12.414 -0.1011  0.2542 -1.9572
  571TIP3   OH223127   4.277   5.159   1.513 -0.0493 -0.7846  0.1854
  571TIP3    H123128   4.217   5.116   1.574 -1.0521  0.5267  0.1728
  571TIP3    H223129   4.230   5.161   1.430 -0.2302  0.6679  0.2879
  572TIP3   OH223130   4.282   0.609  16.237  0.4001  0.2420 -0.1949
  572TIP3    H123131   4.331   0.690  16.252 -0.8060  1.1247 -0.8381
  572TIP3    H223132   4.292   0.592  16.143  0.1200  0.0079 -0.1838
  573TIP3   OH223133   6.759   1.699   5.704 -0.1695 -0.3230 -0.2389
  573TIP3    H123134   6.669   1.697   5.670 -0.7915  1.3311  1.1412
  573TIP3    H223135   6.794   1.783   5.673 -0.5069  0.9037  2.4156
  574TIP3   OH223136   1.302   5.252  13.938  0.3363  0.3930 -0.5318
  574TIP3    H123137   1.212   5.282  13.921 -0.4246 -2.1874 -1.4744
  574TIP3    H223138   1.349   5.332  13.963 -1.4786  2.3831 -2.9289
  575TIP3   OH223139   0.447   5.958  12.077 -0.0070  0.0053 -0.5062
  575TIP3    H123140   0.360   5.927  12.053  0.5570 -2.9131  0.7797
  575TIP3    H223141   0.497   5.879  12.097  1.7856  1.7018  2.5990
  576TIP3   OH223142   2.241   4.312   0.359  0.3776  0.3358 -0.0413
  576TIP3    H123143   2.221   4.224   0.327 -0.0241  0.1681  0.6511
  576TIP3    H223144   2.156   4.353   0.374  0.4502 -0.3878  2.9477
  577TIP3   OH223145   1.079   6.305   4.119  0.3255 -0.2568 -0.1688
  577TIP3    H123146   1.072   6.386   4.169 -1.2074 -0.3967 -0.1192
  577TIP3    H223147   0.994   6.263   4.129  1.3409 -2.3060  0.5313
  578TIP3   OH223148   0.206   4.045  13.286 -0.2932  0.1338 -0.2788
  578TIP3    H123149   0.277   4.076  13.231 -0.6048 -0.7015 -1.1719
  578TIP3    H223150   0.186   3.958  13.253 -0.1293 -0.6182  1.5117
  579TIP3   OH223151   1.605   4.219  14.885 -0.1063  0.4089 -0.9143
  579TIP3    H123152   1.546   4.155  14.846 -1.2512  0.6982  0.2918
  579TIP3    H223153   1.692   4.179  14.878 -0.8006 -1.3181 -0.0952
  580TIP3   OH223154   5.221   6.367   1.587 -0.6757 -0.1395 -0.0610
  580TIP3    H123155   5.244   6.458   1.601 -2.2627  0.5619 -1.5864
  580TIP3    H223156   5.168   6.343   1.663 -0.5680  0.3318  0.1624
  581TIP3   OH223157   3.010   5.781   5.153  0.0486  0.4825  0.4462
  581TIP3    H123158   3.045   5.822   5.232  0.3110 -1.2529  1.2860
  581TIP3    H223159   3.058   5.822   5.081  0.4367  1.4702  1.2501
  582TIP3   OH223160   3.498   5.929   3.464 -0.1382  0.3503 -0.6095
  582TIP3    H123161   3.429   5.914   3.529  0.8670  1.6051  0.7885
  582TIP3    H223162   3.494   6.023   3.446  0.9028  0.3502 -0.8705
  583TIP3   OH223163   5.157   0.095   0.164  0.1290  0.0405 -0.6839
  583TIP3    H123164   5.190   0.095   0.253 -3.4285  0.4499  0.7801
  583TIP3    H223165   5.160   0.003   0.137 -1.3435 -0.5668  1.0092
  584TIP3   OH223166   6.258   4.458   4.198  0.1866 -0.2212  0.5795
  584TIP3    H123167   6.295   4.543   4.176 -0.3645 -0.1087  0.0539
  584TIP3    H223168   6.230   4.421   4.114 -1.6599  0.0672  1.0065
  585TIP3   OH223169   6.469   2.175  16.476 -0.5390 -0.2731  0.0124
  585TIP3    H123170   6.483   2.203  16.386 -1.5661  0.2972  0.0164
  585TIP3    H223171   6.442   2.083  16.468 -1.4203  0.0102 -0.3262
  586TIP3   OH223172   5.268   0.153   5.113 -0.0790  0.0940  0.0537
  586TIP3    H123173   5.281   0.170   5.206 -2.3131  0.1279  0.4136
  586TIP3    H223174   5.301   0.064   5.101  2.9390  1.0861  0.1752
  587TIP3   OH223175   3.767   0.218  14.964  0.1253  0.0200 -0.5561
  587TIP3    H123176   3.812   0.167  15.032 -1.3097 -1.2788 -0.5153
  587TIP3    H223177   3.674   0.208  14.984 -0.3128  0.0830 -2.3667
  588TIP3   OH223178   4.350   0.209  16.730  0.2030 -0.1219 -0.1626
  588TIP3    H123179   4.366   0.141  16.795 -0.3302 -1.1592 -1.0752
  588TIP3    H223180   4.364   0.291  16.777  0.3381 -0.8456  1.1097
  589TIP3   OH223181   4.888   1.985  15.765 -0.0658 -0.0776 -0.0214
  589TIP3    H123182   4.947   1.917  15.797 -0.2205 -0.5038 -0.6237
  589TIP3    H223183   4.946   2.059  15.743  0.1546 -0.1974  0.1580
  590TIP3   OH223184   6.475   3.078  10.353 -0.3555 -0.1596 -0.0299
  590TIP3    H123185   6.547   3.132  10.319  0.8958 -1.0508  1.0907
  590TIP3    H223186   6.485   3.083  10.448 -1.9304 -0.1467  0.1493
  591TIP3   OH223187   5.689   1.672  17.124  0.8957  0.6899 -0.7367
  591TIP3    H123188   5.721   1.733  17.057  2.6523  1.1732  0.4852
  591TIP3    H223189   5.596   1.692  17.131  0.9802  1.6874 -1.9325
  592TIP3   OH223190   5.710   5.252   4.033  0.4104  0.6586  0.1082
  592TIP3    H123191   5.628   5.203   4.034  0.6153  0.0142  4.1812
  592TIP3    H223192   5.766   5.203   3.973 -1.3325 -0.4030 -0.7356
  593TIP3   OH223193   5.141   6.035   5.244  0.3215  0.2876 -0.0545
  593TIP3    H123194   5.113   6.046   5.153  0.4343  1.0190 -0.0068
  593TIP3    H223195   5.234   6.011   5.238  0.7481  1.8437 -0.1051
  594TIP3   OH223196   0.154   1.157  16.417  0.0383  0.6295  0.8207
  594TIP3    H123197   0.087   1.209  16.374 -0.5619  0.8179  1.9364
  594TIP3    H223198   0.222   1.220  16.441  0.2980  0.5500  0.3024
  595TIP3   OH223199   4.169   4.959   4.570 -0.1715  0.0339 -0.1845
  595TIP3    H123200   4.091   5.010   4.589  1.4523  2.0254  1.5703
  595TIP3    H223201   4.237   5.024   4.552  1.6857 -1.5266  0.8372
  596TIP3   OH223202   6.700   2.900   5.019 -0.3129 -0.1989  0.0040
  596TIP3    H123203   6.657   2.836   5.075 -0.1285  0.8827  1.4473
  596TIP3    H223204   6.630   2.957   4.988 -0.7451 -2.0525 -2.7293
  597TIP3   OH223205   4.901   4.557  15.705 -0.4439 -0.0975 -0.3561
  597TIP3    H123206   4.809   4.573  15.684 -0.1942 -0.7616 -2.1210
  597TIP3    H223207   4.931   4.639  15.743 -1.8657 -0.0133  0.6669
  598TIP3   OH223208   4.445   4.007  12.388  0.1066 -0.1251  0.0089
  598TIP3    H123209   4.517   4.002  12.451 -0.1485  0.6273  0.3724
  598TIP3    H223210   4.372   4.044  12.438 -0.2251  0.0772 -0.6136
  599TIP3   OH223211   4.766   2.780   4.139  0.2840  0.6466 -0.3807
  599TIP3    H123212   4.822   2.765   4.062  2.3113  3.2065  0.4912
  599TIP3    H223213   4.741   2.872   4.133 -1.0506  0.4155  1.1040
  600TIP3   OH223214   0.507   2.931  11.964 -0.2772  0.5308 -0.1483
  600TIP3    H123215   0.569   3.003  11.967  0.3247  0.0055  0.6497
  600TIP3    H223216   0.467   2.930  12.051  0.0414 -0.3543  0.0005
  601TIP3   OH223217   1.865   4.630  16.285  0.7221 -0.4054 -0.2932
  601TIP3    H123218   1.834   4.716  16.255  0.3763 -0.2070  0.6086
  601TIP3    H223219   1.955   4.645  16.312  0.8929 -0.4886 -0.8082
  602TIP3   OH223220   2.297   2.403  14.334  0.8267 -0.1033  0.3629
  602TIP3    H123221   2.328   2.490  14.309 -1.0440 -0.0962 -2.4072
  602TIP3    H223222   2.248   2.417  14.415 -1.4855  2.0156 -1.2316
  603TIP3   OH223223   5.503   6.502   3.993 -0.4768 -0.5737  0.5778
  603TIP3    H123224   5.431   6.519   3.933 -0.6064  1.2928  1.2035
  603TIP3    H223225   5.508   6.406   3.998 -2.4252 -0.7422 -0.0398
  604TIP3   OH223226   6.194   1.751  16.336  0.3657  0.4751  0.3004
  604TIP3    H123227   6.122   1.694  16.309 -0.1900  1.9122 -1.3841
  604TIP3    H223228   6.273   1.698  16.322 -0.2463 -0.5767  0.7210
  605TIP3   OH223229   2.066   5.807   0.072 -0.4948 -0.4971  0.0995
  605TIP3    H123230   2.153   5.834   0.042 -0.1099 -0.7250  0.9762
  605TIP3    H223231   2.072   5.811   0.168 -1.3980 -0.6735  0.1656
  606TIP3   OH223232   1.427   4.692  14.723  0.1757 -0.4401  0.5103
  606TIP3    H123233   1.403   4.599  14.717 -0.6451 -0.1561 -1.3093
  606TIP3    H223234   1.515   4.696  14.683 -0.5852 -0.1978 -1.2322
  607TIP3   OH223235   6.280   5.530   2.219 -0.0660  0.8063 -0.4858
  607TIP3    H123236   6.307   5.442   2.193  1.8884  1.7506 -1.9042
  607TIP3    H223237   6.330   5.548   2.298 -0.8543  0.4741  0.0983
  608TIP3   OH223238   5.243   5.761   2.753  0.0379 -0.4567  0.2954
  608TIP3    H123239   5.181   5.834   2.757  0.2488 -0.2741  0.2433
  608TIP3    H223240   5.325   5.801   2.723 -0.0496 -0.8412 -0.4874
  609TIP3   OH223241   1.666   0.611  13.586  0.1759  0.2349 -0.5095
  609TIP3    H123242   1.723   0.688  13.586 -0.4746  0.7164 -0.6336
  609TIP3    H223243   1.580   0.644  13.563 -0.8578 -0.0003  2.6192
  610TIP3   OH223244   3.240   2.138  15.077 -0.0207  0.3837  0.2100
  610TIP3    H123245   3.217   2.111  15.165  1.1978 -0.3758  0.3174
  610TIP3    H223246   3.167   2.193  15.049 -0.7807  0.0167  1.3964
  611TIP3   OH223247   2.665   4.257   5.576  0.3383 -0.2796 -0.4867
  611TIP3    H123248   2.696   4.188   5.517  0.1266 -1.8973  1.2309
  611TIP3    H223249   2.582   4.286   5.538  0.1597 -1.3515 -0.9368
  612TIP3   OH223250   1.347   4.812  13.076 -0.3892 -0.2450  0.1460
  612TIP3    H123251   1.313   4.730  13.041 -1.1832 -1.1524  2.7993
  612TIP3    H223252   1.434   4.821  13.037 -0.6390 -1.8939 -0.8666
  613TIP3   OH223253   0.412   4.322  13.779 -0.2560 -0.4349  0.5266
  613TIP3    H123254   0.326   4.360  13.760 -0.1014 -0.3381  0.0016
  613TIP3    H223255   0.406   4.233  13.743 -0.3579 -0.6524  1.0745
  614TIP3   OH223256   6.735   2.985   0.509 -0.0080  0.3586 -0.3975
  614TIP3    H123257   6.825   2.968   0.535 -0.2581  0.4373  0.5257
  614TIP3    H223258   6.725   3.080   0.517 -0.6449  0.1839  1.0788
  615TIP3   OH223259   5.573   6.096   0.312  0.6513  0.1832  0.5094
  615TIP3    H123260   5.596   6.021   0.366 -0.5517 -0.4000  0.2619
  615TIP3    H223261   5.636   6.096   0.241  0.7083 -0.5575  0.5562
  616TIP3   OH223262   6.407   3.633   1.991 -0.4961 -0.0104 -0.1116
  616TIP3    H123263   6.462   3.609   1.916  0.2621  2.1372 -0.3233
  616TIP3    H223264   6.461   3.694   2.041 -2.0595  0.8468  0.6079
  617TIP3   OH223265   0.001   3.287   2.099 -0.2732  0.2980 -0.2368
  617TIP3    H123266   0.072   3.324   2.047  0.0049  1.1294  0.7258
  617TIP3    H223267  -0.024   3.207   2.051  1.1953  0.0682 -0.6573
  618TIP3   OH223268   2.320   2.133   5.675  0.3618 -0.7986 -0.7013
  618TIP3    H123269   2.396   2.177   5.712 -0.4719 -1.1419  1.6199
  618TIP3    H223270   2.296   2.068   5.741 -2.9773  0.4999 -0.4171
  619TIP3   OH223271   4.416   5.326  11.883  0.3665  0.3039  0.3916
  619TIP3    H123272   4.366   5.371  11.814 -1.0150 -1.8557 -0.1175
  619TIP3    H223273   4.410   5.384  11.959 -2.4009  0.4744  0.1438
  620TIP3   OH223274   3.386   3.696  14.967  0.2445 -0.4248 -0.8940
  620TIP3    H123275   3.439   3.776  14.976  2.6049 -1.9569 -0.2965
  620TIP3    H223276   3.432   3.644  14.901 -0.7107 -1.7099 -0.5842
  621TIP3   OH223277   2.654   3.719  11.626 -0.3143 -0.2827 -0.7747
  621TIP3    H123278   2.713   3.647  11.649  1.4770  1.5823  0.7958
  621TIP3    H223279   2.697   3.761  11.551 -0.4121  0.2069 -0.5570
  622TIP3   OH223280   4.404   2.863  14.721  0.0173 -0.6416 -0.3917
  622TIP3    H123281   4.342   2.821  14.780 -0.9174  1.6927  0.3781
  622TIP3    H223282   4.483   2.875  14.773 -0.5088  0.6166  0.1471
  623TIP3   OH223283   0.874   5.597   6.285  0.0530  0.0914  0.1273
  623TIP3    H123284   0.909   5.553   6.207 -0.2159 -1.1993  0.7093
  623TIP3    H223285   0.785   5.564   6.294 -0.2705  1.0083  0.4165
  624TIP3   OH223286   1.708   5.253  13.210 -0.3153  0.0603  0.2212
  624TIP3    H123287   1.633   5.207  13.172  0.3664  0.1791 -1.3727
  624TIP3    H223288   1.694   5.345  13.186 -0.1717  0.2358  0.8070
  625TIP3   OH223289   0.041   1.962  17.064  0.2090  0.0817  0.2619
  625TIP3    H123290   0.111   1.920  17.114 -1.4660 -2.0803  0.9717
  625TIP3    H223291   0.074   1.966  16.974  1.9389  0.8870  0.8823
  626TIP3   OH223292   6.109   5.278   4.328 -0.0096  0.6098  0.0888
  626TIP3    H123293   6.096   5.361   4.283 -0.1705  0.0161 -0.9951
  626TIP3    H223294   6.155   5.223   4.264 -1.6021 -0.7695  0.0723
  627TIP3   OH223295   5.017   1.966  11.658  0.6492 -0.5002  0.2194
  627TIP3    H123296   5.026   1.951  11.564  1.7064 -1.8621  0.5140
  627TIP3    H223297   4.952   2.037  11.664  0.5695 -0.3692 -1.5178
  628TIP3   OH223298   4.890   0.928  16.678  0.0729  0.0682  0.2211
  628TIP3    H123299   4.903   0.916  16.584 -0.6928 -0.5344  0.1855
  628TIP3    H223300   4.808   0.882  16.697 -0.9971  2.0659  0.7688
  629TIP3   OH223301   5.377   1.823  10.731  0.2206  0.2727 -0.2165
  629TIP3    H123302   5.313   1.773  10.679 -0.7366 -1.1259  2.1634
  629TIP3    H223303   5.376   1.910  10.691 -1.9670 -0.1621 -1.2880
  630TIP3   OH223304   3.230   0.452   4.931  0.0403  0.0809  0.0502
  630TIP3    H123305   3.233   0.530   4.876  0.0813  0.2461  0.2823
  630TIP3    H223306   3.185   0.481   5.011 -0.6210 -0.3288 -0.1693
  631TIP3   OH223307   2.053   2.070   2.682  1.0138 -0.1632 -0.1205
  631TIP3    H123308   1.985   2.137   2.674  0.8125 -0.3138  0.2952
  631TIP3    H223309   2.135   2.118   2.667  0.9765  0.4743  1.4577
  632TIP3   OH223310   3.835   3.293   5.587 -0.3247  0.2193  0.6552
  632TIP3    H123311   3.747   3.320   5.563 -0.6207  0.4464  1.9278
  632TIP3    H223312   3.847   3.326   5.676 -0.7694 -3.8513  2.4457
  633TIP3   OH223313   3.081   2.811   3.527  0.4485 -0.3531  0.0947
  633TIP3    H123314   3.012   2.804   3.461  1.2354  0.9931 -0.9123
  633TIP3    H223315   3.035   2.839   3.607  0.0216  3.2298 -1.2088
  634TIP3   OH223316   4.423   3.897  13.716  0.3341 -0.3723 -0.1906
  634TIP3    H123317   4.344   3.948  13.698  1.1457  0.0887 -2.9395
  634TIP3    H223318   4.392   3.821  13.764 -1.8135 -0.2614 -1.2852
  635TIP3   OH223319   1.935   3.245  16.788 -0.3862  0.3780  0.0580
  635TIP3    H123320   1.975   3.169  16.829 -0.4759  0.2542 -0.0807
  635TIP3    H223321   1.907   3.300  16.861 -2.1758 -0.6812  0.2307
  636TIP3   OH223322   1.848   2.767  10.966 -0.0368 -0.3848  0.1050
  636TIP3    H123323   1.785   2.697  10.949  0.5107 -1.1893  1.2300
  636TIP3    H223324   1.873   2.799  10.880 -0.0476 -1.8030 -0.4428
  637TIP3   OH223325   2.377   3.529  14.780 -0.0092  0.9681 -0.8546
  637TIP3    H123326   2.282   3.518  14.780  0.0893 -0.1791  0.1503
  637TIP3    H223327   2.408   3.471  14.710 -0.0208  0.8502 -0.7639
  638TIP3   OH223328   3.210   3.307  12.622  0.6159  0.0890 -0.1138
  638TIP3    H123329   3.196   3.213  12.613 -0.8230  0.2078  0.6898
  638TIP3    H223330   3.192   3.342  12.535  3.1365 -0.5418 -0.9897
  639TIP3   OH223331   0.610   5.979  12.896 -0.2547  0.1017 -0.6986
  639TIP3    H123332   0.607   6.053  12.836  1.1957  2.6625  2.1089
  639TIP3    H223333   0.522   5.973  12.931 -0.4385  0.3499 -1.1070
  640TIP3   OH223334   3.688   4.875   1.262 -0.5622 -0.5294 -0.3305
  640TIP3    H123335   3.774   4.898   1.296 -0.8371  0.8914 -0.5284
  640TIP3    H223336   3.627   4.913   1.325 -1.0450 -1.7380 -0.0617
  641TIP3   OH223337   2.436   4.645   5.022 -0.6826  0.0476 -0.4015
  641TIP3    H123338   2.385   4.710   4.974  0.0396 -0.7105 -2.3254
  641TIP3    H223339   2.520   4.688   5.039 -1.8721  1.3995  3.0169
  642TIP3   OH223340   3.812   0.474   0.293  0.5641  0.7777 -0.1674
  642TIP3    H123341   3.842   0.561   0.318 -2.7506  1.4829  2.0661
  642TIP3    H223342   3.860   0.415   0.351 -1.4427  1.7839  2.7860
  643TIP3   OH223343   5.363   3.153   5.677 -0.0136  0.8769 -0.4201
  643TIP3    H123344   5.410   3.199   5.746 -0.6395 -1.0346  1.3848
  643TIP3    H223345   5.271   3.175   5.692 -0.1785  0.2340 -0.4495
  644TIP3   OH223346   4.636   2.468   4.049  0.1099 -0.0856 -0.1612
  644TIP3    H123347   4.718   2.514   4.070  1.4061 -1.6264 -1.6338
  644TIP3    H223348   4.654   2.377   4.070 -1.1230 -0.5027 -0.8587
  645TIP3   OH223349   6.562   0.569   4.578 -0.0188  0.0179  0.1675
  645TIP3    H123350   6.468   0.587   4.575 -0.2435 -0.4869  2.4367
  645TIP3    H223351   6.569   0.474   4.565  0.0653 -0.1220  1.1917
  646TIP3   OH223352   1.925   4.850  17.052  0.5411  0.2566  0.3978
  646TIP3    H123353   1.948   4.864  16.960 -0.8038  0.2003  0.0209
  646TIP3    H223354   1.904   4.757  17.057  1.2066  0.1305  0.9122
  647TIP3   OH223355   3.490   1.495   3.496  0.4690 -0.4158 -0.1373
  647TIP3    H123356   3.488   1.476   3.402 -0.3913 -0.3013 -0.1486
  647TIP3    H223357   3.581   1.521   3.513  0.9292 -1.5372 -0.7112
  648TIP3   OH223358   6.482   3.732   3.567 -0.2350  0.4961  0.4069
  648TIP3    H123359   6.423   3.675   3.519 -0.2325  0.4333  0.4776
  648TIP3    H223360   6.491   3.810   3.512  2.3792 -0.8795 -1.3363
  649TIP3   OH223361   1.699   5.573   0.806 -0.2179 -0.3773  0.1786
  649TIP3    H123362   1.624   5.630   0.823 -0.0054  0.1923 -0.7299
  649TIP3    H223363   1.662   5.501   0.754 -0.0677  0.1331 -0.6533
  650TIP3   OH223364   2.161   5.380  14.533  0.2404 -0.4398 -0.1268
  650TIP3    H123365   2.233   5.442  14.541 -0.1583  0.2607 -1.5184
  650TIP3    H223366   2.184   5.326  14.457  0.8616 -2.4562  1.3884
  651TIP3   OH223367   1.651   0.280   3.881  0.3560  0.2266 -0.2930
  651TIP3    H123368   1.673   0.224   3.806  1.4229 -1.2944  1.0788
  651TIP3    H223369   1.555   0.276   3.886  0.2671  0.3727 -1.5772
  652TIP3   OH223370   4.019   0.604  12.699 -0.5627  0.4153 -0.0723
  652TIP3    H123371   3.931   0.623  12.668  0.4097  2.0462 -2.0800
  652TIP3    H223372   4.006   0.556  12.781 -3.2842  1.1175 -0.0023
  653TIP3   OH223373   0.939   6.576   6.026 -0.1047  0.1789  0.0459
  653TIP3    H123374   0.990   6.590   6.105 -0.5851  2.0823  0.0570
  653TIP3    H223375   1.004   6.553   5.959  0.5825  0.9558  0.4380
  654TIP3   OH223376   0.128   6.549  12.701  0.2799 -0.6043 -0.1643
  654TIP3    H123377   0.194   6.510  12.644  2.4472  0.6743  1.3342
  654TIP3    H223378   0.079   6.609  12.644  0.9303 -0.9694 -1.1229
  655TIP3   OH223379   5.350   2.673  12.706  0.1118  0.3580  0.5987
  655TIP3    H123380   5.314   2.632  12.785 -0.7797 -1.1487 -0.5387
  655TIP3    H223381   5.324   2.765  12.713  1.9697  0.8079  3.1179
  656TIP3   OH223382   6.299   6.370   2.244 -0.0974  0.7028 -0.6436
  656TIP3    H123383   6.271   6.329   2.161 -0.2844 -0.3829 -0.0656
  656TIP3    H223384   6.229   6.432   2.264  0.3504  1.5828 -1.7080
  657TIP3   OH223385   5.988   5.108   3.247  0.2208  0.6904 -0.4547
  657TIP3    H123386   5.976   5.051   3.171 -2.2943  2.5130 -1.5626
  657TIP3    H223387   6.051   5.174   3.218  1.0550  0.0709 -0.1002
  658TIP3   OH223388   4.417   1.731   0.482 -0.0531 -0.3480 -0.0084
  658TIP3    H123389   4.474   1.797   0.521  0.8622 -1.0965 -0.0563
  658TIP3    H223390   4.331   1.748   0.522  0.3104  0.4485  0.4664
  659TIP3   OH223391   5.029   0.166  13.987 -0.0800  0.7703 -0.6429
  659TIP3    H123392   5.104   0.182  13.928  0.3260 -0.4235 -0.4842
  659TIP3    H223393   5.034   0.236  14.052  0.7588  0.8536 -0.7836
  660TIP3   OH223394   2.064   3.905  11.328  0.0233 -0.1154 -0.1364
  660TIP3    H123395   2.005   3.937  11.260 -1.3322 -1.4942  0.3270
  660TIP3    H223396   2.073   3.978  11.389 -1.7940 -0.0734  0.1335
  661TIP3   OH223397   3.408   4.354   2.336  0.4507  0.0437  0.0045
  661TIP3    H123398   3.401   4.275   2.390  1.1701 -1.2533 -1.7056
  661TIP3    H223399   3.346   4.416   2.375  0.0800 -1.2522  1.5632
  662TIP3   OH223400   1.353   5.340   6.056 -0.0749  0.9550  0.5881
  662TIP3    H123401   1.272   5.315   6.012 -1.2593  2.2152  1.9801
  662TIP3    H223402   1.342   5.312   6.146  0.8595  1.5670  0.9090
  663TIP3   OH223403   1.041   2.224   4.825  0.2529  0.0794 -0.0501
  663TIP3    H123404   1.124   2.237   4.779 -0.3575  0.2237 -1.1606
  663TIP3    H223405   1.039   2.131   4.845  1.4170  0.3509  1.4926
  664TIP3   OH223406   2.056   2.181   6.066 -0.4023 -0.5426 -0.0804
  664TIP3    H123407   2.149   2.179   6.089 -0.4120  1.0784  0.2334
  664TIP3    H223408   2.011   2.188   6.150 -0.7963 -0.9641 -0.2534
  665TIP3   OH223409   4.468   1.745  12.296 -0.0673  0.6593 -0.2364
  665TIP3    H123410   4.422   1.665  12.320 -0.1643 -0.0972 -2.6669
  665TIP3    H223411   4.556   1.734  12.332  0.3151 -1.1833 -1.6181
  666TIP3   OH223412   6.248   3.564   2.250 -0.4303  0.4305  0.6290
  666TIP3    H123413   6.286   3.577   2.163 -1.2597 -1.4417 -0.0551
  666TIP3    H223414   6.229   3.653   2.281 -1.6816  1.1192 -1.8180
  667TIP3   OH223415   2.716   0.910   2.908 -0.1446  0.2615 -0.4310
  667TIP3    H123416   2.750   0.820   2.911  0.6386  0.4916 -1.6923
  667TIP3    H223417   2.764   0.951   2.837 -0.3759  1.7502  0.2399
  668TIP3   OH223418   4.712   3.897  10.595 -0.3080  0.3487 -0.3025
  668TIP3    H123419   4.663   3.814  10.595  2.2272 -1.2598  0.6192
  668TIP3    H223420   4.795   3.876  10.553 -0.2037  2.8884 -1.5203
  669TIP3   OH223421   1.798   5.568   6.507 -0.2241  0.0509 -0.3221
  669TIP3    H123422   1.761   5.634   6.449  0.0054  1.1833  0.7937
  669TIP3    H223423   1.863   5.614   6.559  0.1031 -1.0989  0.3362
  670TIP3   OH223424   1.506   6.133  16.505  0.5682  0.8908 -0.6361
  670TIP3    H123425   1.451   6.181  16.443 -0.5275  0.1892 -0.2435
  670TIP3    H223426   1.455   6.133  16.586  0.6511 -0.6945 -0.5587
  671TIP3   OH223427   0.431   6.189  16.291 -0.1874  0.4310 -0.5830
  671TIP3    H123428   0.339   6.208  16.310 -0.2495 -0.6134  0.2322
  671TIP3    H223429   0.431   6.099  16.260  0.5385  0.4971 -0.7933
  672TIP3   OH223430   2.711   6.211  13.870  0.5716  0.2648  0.1222
  672TIP3    H123431   2.668   6.206  13.955  1.8904 -1.7421  0.7344
  672TIP3    H223432   2.761   6.293  13.873  2.6824 -0.9856  2.3838
  673TIP3   OH223433   1.921   5.576   0.017 -0.3560 -0.2628 -0.0804
  673TIP3    H123434   1.987   5.645   0.021 -1.4416  0.7637  0.9562
  673TIP3    H223435   1.940   5.520   0.092 -1.1707  0.5410  0.7464
  674TIP3   OH223436   4.954   0.021   3.570  1.0756  0.0780  0.4966
  674TIP3    H123437   5.047   0.036   3.589  1.2577 -0.2244 -0.1172
  674TIP3    H223438   4.927   0.098   3.520  1.5946 -0.8223 -1.2633
  675TIP3   OH223439   2.459   6.505   0.365 -0.4400  0.1860  0.3350
  675TIP3    H123440   2.365   6.495   0.376 -0.6489  1.8449  0.3706
  675TIP3    H223441   2.480   6.586   0.412  0.9614 -0.0392  0.1465
  676TIP3   OH223442   0.877   2.831  12.843  0.1080  0.5932  0.0135
  676TIP3    H123443   0.908   2.902  12.900 -0.9473  2.2270 -1.3430
  676TIP3    H223444   0.924   2.845  12.760  0.3074 -0.6612 -0.0990
  677TIP3   OH223445   1.779   2.495  13.804  0.4262 -0.0470  0.1722
  677TIP3    H123446   1.834   2.437  13.752  1.3947 -0.0787  1.1816
  677TIP3    H223447   1.802   2.583  13.774  0.7874 -0.0787  0.3420
  678TIP3   OH223448   2.890   2.673  14.403 -0.0989 -0.5795 -0.3449
  678TIP3    H123449   2.890   2.585  14.365  0.7847 -0.5349 -0.4803
  678TIP3    H223450   2.965   2.717  14.362 -0.0090 -0.0467  0.3682
  679TIP3   OH223451   1.168   3.644  13.918 -0.3501  0.1236 -0.2615
  679TIP3    H123452   1.143   3.736  13.923  1.3315  0.5968  0.1767
  679TIP3    H223453   1.244   3.643  13.860  0.2255 -0.8532  0.4753
  680TIP3   OH223454   4.941   5.834   5.311  0.0476  0.0779 -0.1830
  680TIP3    H123455   5.004   5.903   5.291  1.9362 -1.1586  1.1229
  680TIP3    H223456   4.988   5.753   5.291 -1.9341 -0.9080 -1.2376
  681TIP3   OH223457   2.507   3.276  15.387 -0.4740  0.1667 -0.0153
  681TIP3    H123458   2.461   3.246  15.465 -0.2261 -0.7249 -0.2014
  681TIP3    H223459   2.569   3.206  15.366  1.2151  1.4488  0.4173
  682TIP3   OH223460   6.478   4.938   5.649 -0.2389  0.0826 -0.2524
  682TIP3    H123461   6.531   4.945   5.570 -2.3141  0.1135 -1.7232
  682TIP3    H223462   6.391   4.965   5.622 -1.3140 -1.1435  1.7343
  683TIP3   OH223463   4.844   1.892  12.928 -0.0838 -0.5649 -0.4297
  683TIP3    H123464   4.933   1.916  12.902  0.2880  0.8589  1.8762
  683TIP3    H223465   4.788   1.940  12.866  0.7373 -0.2146 -0.9235
  684TIP3   OH223466   4.337   0.436  12.798  0.2425 -0.1805 -0.2068
  684TIP3    H123467   4.244   0.425  12.816  0.2177  0.3644 -0.0050
  684TIP3    H223468   4.371   0.346  12.792 -0.3116 -0.3813 -0.3913
  685TIP3   OH223469   5.811   6.487   5.607  0.4038  0.3850 -0.4249
  685TIP3    H123470   5.770   6.422   5.664 -0.6606  1.5619  0.1883
  685TIP3    H223471   5.739   6.525   5.558  1.0882  0.7177 -1.1907
  686TIP3   OH223472   4.105   3.461  11.677  0.0341 -0.1878 -0.0625
  686TIP3    H123473   4.013   3.438  11.690 -0.1431  0.2237 -0.5559
  686TIP3    H223474   4.140   3.389  11.623 -0.2802  0.2057 -0.8041
  687TIP3   OH223475   0.751   3.173   1.595  0.2960 -0.3093 -0.1038
  687TIP3    H123476   0.765   3.173   1.689  1.8312 -0.7341 -0.3058
  687TIP3    H223477   0.678   3.113   1.581  2.2347 -2.9826  0.5697
  688TIP3   OH223478   1.105   4.693  17.314 -0.3732  0.2148  0.3393
  688TIP3    H123479   1.041   4.642  17.265 -0.1577  1.6401 -1.5641
  688TIP3    H223480   1.058   4.771  17.341 -0.3682 -0.3649  2.1154
  689TIP3   OH223481   6.672   0.562  14.306 -0.0787 -0.5516  0.2262
  689TIP3    H123482   6.641   0.471  14.314  0.0914 -0.5446  1.0792
  689TIP3    H223483   6.595   0.611  14.279 -0.0913 -1.0009 -0.5817
  690TIP3   OH223484   3.061   3.476   2.374 -0.2682 -0.4420  0.3387
  690TIP3    H123485   3.146   3.439   2.349  0.5652 -0.0121  2.3577
  690TIP3    H223486   3.041   3.538   2.304 -1.0437 -3.5016 -2.4115
  691TIP3   OH223487   3.262   5.119   5.713 -0.5441 -0.0142 -0.3005
  691TIP3    H123488   3.252   5.038   5.763 -1.9104 -0.3524 -1.0576
  691TIP3    H223489   3.350   5.149   5.733 -0.6494 -0.7158  1.4382
  692TIP3   OH223490   3.110   1.610   5.068  0.0254  0.4453 -0.0031
  692TIP3    H123491   3.063   1.652   5.140  0.8975  0.0804  0.7956
  692TIP3    H223492   3.196   1.589   5.104 -0.0503 -1.1512 -0.6800
  693TIP3   OH223493   5.381   6.532   2.204  0.3310 -0.3227 -0.1253
  693TIP3    H123494   5.475   6.515   2.210  0.3306 -1.9070 -3.1411
  693TIP3    H223495   5.348   6.516   2.293  2.6462 -1.3695  0.6057
  694TIP3   OH223496   1.552   2.081   2.487  0.2519  0.4068  0.2844
  694TIP3    H123497   1.515   2.154   2.437 -0.5925 -0.0560  0.2172
  694TIP3    H223498   1.617   2.043   2.429  0.2827  0.7449  0.0926
  695TIP3   OH223499   3.547   6.420   5.989  0.2740  0.6760 -0.3908
  695TIP3    H123500   3.516   6.510   5.989  0.7738  0.8486 -0.2216
  695TIP3    H223501   3.470   6.368   5.964 -0.4118  1.0080  0.9391
  696TIP3   OH223502   0.807   6.331   4.532 -0.4280  0.9975  0.3989
  696TIP3    H123503   0.793   6.381   4.612 -1.6011  1.5071 -0.0962
  696TIP3    H223504   0.731   6.353   4.477  0.8623  1.4770 -1.2661
  697TIP3   OH223505   3.822   2.825   2.086  0.0392 -0.0951 -0.3150
  697TIP3    H123506   3.799   2.733   2.100 -1.0635  0.2126 -0.0104
  697TIP3    H223507   3.879   2.824   2.009 -0.6143 -0.9522 -0.8107
  698TIP3   OH223508   0.360   5.979  13.407  0.0841  0.0439 -1.0541
  698TIP3    H123509   0.412   5.958  13.484 -1.5975  2.0481  0.7677
  698TIP3    H223510   0.386   5.914  13.342  2.5234 -0.9339  0.7442
  699TIP3   OH223511   3.393   6.342   5.279  0.0410 -0.1471 -0.4631
  699TIP3    H123512   3.486   6.323   5.274  0.0331 -0.7714  1.0072
  699TIP3    H223513   3.373   6.338   5.373 -1.2772  0.9212 -0.6617
  700TIP3   OH223514   5.899   5.761   1.310 -0.0855 -0.0173 -0.1107
  700TIP3    H123515   5.924   5.695   1.245  2.2664  1.2378 -0.6110
  700TIP3    H223516   5.920   5.845   1.267 -0.8508  0.9545  1.3434
  701TIP3   OH223517   2.093   2.598   5.050 -0.6508  0.5673  0.5021
  701TIP3    H123518   2.187   2.587   5.058 -0.0915  1.7569 -2.8332
  701TIP3    H223519   2.056   2.523   5.096  2.0968 -2.5347 -1.8797
  702TIP3   OH223520   2.096   1.671   4.906 -0.8273 -0.0112 -0.1918
  702TIP3    H123521   2.163   1.692   4.971  1.2944 -1.5411 -1.7507
  702TIP3    H223522   2.076   1.756   4.865 -0.4705  0.6025  0.8611
  703TIP3   OH223523   3.914   2.563  14.323  0.8424  0.1427  0.4266
  703TIP3    H123524   3.931   2.617  14.246 -0.9547  0.0239 -0.1145
  703TIP3    H223525   3.882   2.624  14.389  0.7732  0.0233  0.5047
  704TIP3   OH223526   2.174   0.737   3.417 -0.9253  0.1746  0.0125
  704TIP3    H123527   2.151   0.675   3.349  1.7270 -0.6287 -0.2896
  704TIP3    H223528   2.212   0.812   3.370 -1.4943  0.7955  0.5113
  705TIP3   OH223529   4.879   6.044  16.164 -1.2310  0.1401 -0.0096
  705TIP3    H123530   4.799   6.064  16.212 -0.5528  0.7438  0.9126
  705TIP3    H223531   4.884   5.948  16.164  0.0372  0.0615  3.4516
  706TIP3   OH223532   5.685   4.173   0.194 -0.6409 -0.5013  0.0873
  706TIP3    H123533   5.649   4.090   0.163 -0.7422 -0.2894 -0.3730
  706TIP3    H223534   5.756   4.148   0.253 -1.2175 -0.9197  0.6179
  707TIP3   OH223535   0.159   5.799  15.880  0.1069 -0.3977  0.5576
  707TIP3    H123536   0.207   5.863  15.932  0.1132 -0.5504  0.7391
  707TIP3    H223537   0.136   5.729  15.941 -3.0917  1.0977  1.2304
  708TIP3   OH223538   0.125   4.713  12.311 -0.7640 -0.4137 -0.6773
  708TIP3    H123539   0.154   4.633  12.355 -1.9600 -0.5500 -0.1174
  708TIP3    H223540   0.032   4.700  12.293 -0.4010 -0.2666 -3.0634
  709TIP3   OH223541   3.301   6.252  11.353  0.7570 -0.1571  0.1413
  709TIP3    H123542   3.304   6.337  11.398  1.5623 -0.0349 -0.1201
  709TIP3    H223543   3.213   6.248  11.315  1.3953  1.5250 -1.6570
  710TIP3   OH223544   6.225   0.193  14.936 -0.4163 -0.0810  0.0463
  710TIP3    H123545   6.192   0.277  14.905 -1.0521 -0.8133 -1.3246
  710TIP3    H223546   6.252   0.146  14.857 -2.8134 -2.3176  0.4035
  711TIP3   OH223547   0.428   6.226   2.600 -0.1644 -0.3741 -0.3391
  711TIP3    H123548   0.479   6.180   2.666 -1.0272 -0.7178  0.1005
  711TIP3    H223549   0.452   6.183   2.517  2.5026  1.4144 -0.5986
  712TIP3   OH223550   4.670   2.792   0.162  0.2076 -0.2655 -0.7724
  712TIP3    H123551   4.585   2.747   0.170  1.4564 -2.6147  0.6839
  712TIP3    H223552   4.708   2.756   0.082  0.5250 -0.5838 -0.4852
  713TIP3   OH223553   1.334   3.884   1.016 -0.3593 -0.3938  0.0100
  713TIP3    H123554   1.423   3.884   0.981 -0.5625 -2.5008 -0.6897
  713TIP3    H223555   1.322   3.972   1.052  0.9842  0.9159 -2.4276
  714TIP3   OH223556   6.712   5.277   0.611  0.0231 -0.0006  0.0305
  714TIP3    H123557   6.752   5.190   0.618  1.5465  0.6131 -0.5696
  714TIP3    H223558   6.741   5.310   0.526 -0.1487  1.2810  0.4402
  715TIP3   OH223559   5.094   0.421   5.359 -0.2984  0.3075  0.1097
  715TIP3    H123560   5.004   0.432   5.389 -1.8657 -2.1333 -3.1023
  715TIP3    H223561   5.131   0.354   5.416  0.1511  2.3476  2.3998
  716TIP3   OH223562   2.881   2.631   4.404 -0.0101  0.4557  0.0552
  716TIP3    H123563   2.927   2.553   4.435 -3.2774 -1.4543  0.5474
  716TIP3    H223564   2.879   2.689   4.480 -0.2834 -0.3846  0.7078
  717TIP3   OH223565   5.915   4.981   2.140 -0.2674 -0.1622  0.0803
  717TIP3    H123566   6.007   5.003   2.121  0.2688  0.1921  2.7550
  717TIP3    H223567   5.880   5.060   2.181 -0.7556 -1.4241  2.1931
  718TIP3   OH223568   1.719   2.067   5.791 -0.3527  0.2335  0.1194
  718TIP3    H123569   1.754   1.991   5.745  0.3952  0.5651  0.1135
  718TIP3    H223570   1.628   2.046   5.808 -0.1518 -0.6626  0.1192
  719TIP3   OH223571   4.286   1.794  12.647 -0.1208  0.4506  0.0468
  719TIP3    H123572   4.340   1.715  12.640  0.9288  1.2879 -2.4130
  719TIP3    H223573   4.230   1.792  12.570 -1.5231  1.1431  1.0008
  720TIP3   OH223574   2.615   3.440   0.191  0.0604 -0.9259 -0.3017
  720TIP3    H123575   2.586   3.442   0.283  1.0275  0.8071  0.0134
  720TIP3    H223576   2.564   3.509   0.148  1.5859  0.2092 -0.3802
  721TIP3   OH223577   4.533   6.633   2.007 -0.0628 -0.6638 -0.2305
  721TIP3    H123578   4.586   6.605   1.932  0.7520  1.1665 -0.3977
  721TIP3    H223579   4.585   6.609   2.084  0.6539  0.3309 -0.3741
  722TIP3   OH223580   4.402   4.374  16.280 -0.3414 -0.1279 -0.1436
  722TIP3    H123581   4.453   4.444  16.241 -1.3936  1.5136  1.2741
  722TIP3    H223582   4.340   4.348  16.211 -0.2051  0.6053 -0.5467
  723TIP3   OH223583   3.933   5.038   0.869 -0.5256  0.3372 -0.3795
  723TIP3    H123584   3.846   5.053   0.833 -0.6822 -0.2581 -0.2639
  723TIP3    H223585   3.930   5.077   0.957 -0.3790  1.1289 -0.7214
  724TIP3   OH223586   6.535   4.276   6.074  0.2805  0.1673 -0.0444
  724TIP3    H123587   6.478   4.352   6.079 -2.8405 -2.0419  3.1534
  724TIP3    H223588   6.619   4.305   6.110 -1.0359  1.9732  1.7546
  725TIP3   OH223589   3.863   0.745  17.381  0.5267  0.1282  0.2013
  725TIP3    H123590   3.925   0.783  17.318  1.6222  1.0238  1.7470
  725TIP3    H223591   3.871   0.800  17.458  0.2525 -1.7305  1.6305
  726TIP3   OH223592   4.791   0.273  11.660 -0.3296  0.5447 -0.3644
  726TIP3    H123593   4.880   0.239  11.647 -0.6466 -1.7990  2.5536
  726TIP3    H223594   4.739   0.230  11.593  0.5569  1.4348 -1.6844
  727TIP3   OH223595   1.960   5.677   4.582  0.2102 -1.0752 -0.2311
  727TIP3    H123596   1.971   5.738   4.655 -0.3518  0.5244 -1.4340
  727TIP3    H223597   1.873   5.639   4.595  0.7573 -2.0440  0.7918
  728TIP3   OH223598   1.151   6.350  13.129  0.3934 -0.0761 -0.3835
  728TIP3    H123599   1.164   6.424  13.069 -2.5785  0.6204 -0.3505
  728TIP3    H223600   1.104   6.387  13.204 -1.5679 -1.9691 -0.5458
  729TIP3   OH223601   4.316   4.793  11.839  0.0703  0.5761  0.0692
  729TIP3    H123602   4.340   4.883  11.816  2.3323 -0.1718 -0.8439
  729TIP3    H223603   4.380   4.767  11.905 -0.2025 -0.5311 -0.0800
  730TIP3   OH223604   0.924   0.285   0.279 -0.1138 -0.3214 -0.5882
  730TIP3    H123605   0.858   0.332   0.331 -0.8534 -1.5081 -0.4034
  730TIP3    H223606   1.008   0.311   0.317 -0.5364  0.3503 -0.0922
  731TIP3   OH223607   3.362   0.050  17.060 -0.0164  0.0720  0.1981
  731TIP3    H123608   3.387  -0.042  17.057 -0.0431  0.0787 -0.6635
  731TIP3    H223609   3.378   0.077  17.150 -0.6186 -0.9402  0.6324
  732TIP3   OH223610   0.213   4.790  13.800 -0.1962 -0.2350  0.1487
  732TIP3    H123611   0.189   4.853  13.732  1.6637  1.2958  0.8279
  732TIP3    H223612   0.202   4.705  13.758  2.6923  0.6529 -2.8105
  733TIP3   OH223613   3.825   0.797  14.132 -0.3982  0.2172 -0.4141
  733TIP3    H123614   3.872   0.804  14.215 -0.6878 -2.9762  0.1505
  733TIP3    H223615   3.750   0.857  14.141 -0.5903 -0.2951  1.7700
  734TIP3   OH223616   4.037   4.771   0.204  0.4899 -0.8417  0.2165
  734TIP3    H123617   4.011   4.751   0.114  2.6382  0.8819 -0.9032
  734TIP3    H223618   4.088   4.695   0.232  1.1212 -0.7416 -0.6314
  735TIP3   OH223619   1.302   2.807  14.996  0.2264  0.4016 -0.1866
  735TIP3    H123620   1.229   2.862  15.024 -1.5498 -1.3667 -1.0765
  735TIP3    H223621   1.341   2.854  14.921 -2.2907 -0.2069 -1.9997
  736TIP3   OH223622   3.560   5.918  10.717 -0.3910  0.1276  0.0235
  736TIP3    H123623   3.520   5.877  10.793 -1.1210 -0.4543 -0.6558
  736TIP3    H223624   3.515   5.879  10.642 -0.9451  1.9773 -0.6640
  737TIP3   OH223625   1.225   1.250   4.218 -0.1343 -0.5516  0.2323
  737TIP3    H123626   1.230   1.265   4.124 -0.0549 -0.8336  0.1912
  737TIP3    H223627   1.145   1.295   4.245  0.7914  1.0915  0.3414
  738TIP3   OH223628   0.374   6.379  12.283  0.0967  0.1112 -0.0789
  738TIP3    H123629   0.334   6.435  12.216 -1.0595 -0.9443 -0.3115
  738TIP3    H223630   0.411   6.306  12.235  1.5382  0.6000  0.2334
  739TIP3   OH223631   5.048   1.497   3.300 -0.8056  0.1520 -0.1525
  739TIP3    H123632   5.058   1.592   3.297 -0.5321  0.1486  0.5745
  739TIP3    H223633   5.009   1.474   3.215 -0.1562  0.8235 -0.6435
  740TIP3   OH223634   5.719   3.403   2.831 -0.3455  0.3811 -0.2628
  740TIP3    H123635   5.737   3.392   2.925 -0.7687  0.6588 -0.1486
  740TIP3    H223636   5.649   3.468   2.827 -2.2314 -1.5329 -0.6135
  741TIP3   OH223637   2.097   3.159   0.530 -0.4401 -0.0047  0.5693
  741TIP3    H123638   2.100   3.246   0.490 -0.7870  0.4124  1.4167
  741TIP3    H223639   2.183   3.149   0.572 -1.1727  0.9312  2.4429
  742TIP3   OH223640   6.285   0.285   3.630  0.1397  0.2409 -0.2522
  742TIP3    H123641   6.198   0.306   3.662  0.0454  1.1943 -1.0799
  742TIP3    H223642   6.281   0.301   3.536  1.2564  0.5093 -0.2764
  743TIP3   OH223643   5.056   5.221  12.153 -0.2981  0.1178  0.9615
  743TIP3    H123644   5.151   5.228  12.157 -0.3104 -0.4312  3.0261
  743TIP3    H223645   5.032   5.266  12.072  1.7617 -0.3628  0.0273
  744TIP3   OH223646   6.008   0.331   1.636  0.1828  0.0121 -0.1623
  744TIP3    H123647   5.927   0.304   1.679  0.3774 -1.1766 -0.4796
  744TIP3    H223648   6.077   0.314   1.701  0.1725  1.2019  0.1783
  745TIP3   OH223649   5.812   0.468  12.213  0.0796  0.9201  0.1138
  745TIP3    H123650   5.732   0.509  12.181 -0.3598  0.2414  0.3251
  745TIP3    H223651   5.843   0.526  12.282 -0.4663  0.9733  0.3201
  746TIP3   OH223652   0.171   5.916   6.138 -0.7419 -0.4238 -0.1478
  746TIP3    H123653   0.144   6.005   6.114 -1.6593 -0.0947  1.9350
  746TIP3    H223654   0.102   5.884   6.195 -0.1346 -2.2768 -0.3935
  747TIP3   OH223655   0.799   4.408  12.138 -0.3261 -0.5119  0.1466
  747TIP3    H123656   0.762   4.495  12.123  3.0797  0.8732 -1.3271
  747TIP3    H223657   0.768   4.356  12.064  1.1579  0.8326 -1.5052
  748TIP3   OH223658   2.566   4.089   3.642 -0.5800 -0.4984  0.6129
  748TIP3    H123659   2.529   4.165   3.597  0.3781  0.8571  2.0058
  748TIP3    H223660   2.490   4.040   3.673 -1.2234  0.2551  0.2651
  749TIP3   OH223661   4.800   0.753   2.613 -0.2767 -0.1935  0.2712
  749TIP3    H123662   4.746   0.718   2.684 -0.4765 -1.0475 -0.2801
  749TIP3    H223663   4.738   0.799   2.556 -0.3950 -0.8907 -0.1859
  750TIP3   OH223664   0.026   6.273  14.118  0.0970  0.3477  0.2484
  750TIP3    H123665  -0.005   6.361  14.138 -0.6486  0.2170 -0.2968
  750TIP3    H223666   0.116   6.271  14.150  0.3537  1.5407 -0.3542
  751TIP3   OH223667   2.033   1.533  14.360  0.3496  0.1747  0.4742
  751TIP3    H123668   1.970   1.479  14.312 -0.6329 -0.0346  1.9470
  751TIP3    H223669   1.982   1.606  14.393  1.5394  1.7107 -0.9205
  752TIP3   OH223670   0.606   6.411  15.497  0.1230  0.1947  0.2570
  752TIP3    H123671   0.632   6.349  15.566 -1.8047 -0.3906  0.5030
  752TIP3    H223672   0.531   6.370  15.454  0.1585  1.3901 -1.0163
  753TIP3   OH223673   3.761   5.427  14.987  0.1120  0.2950 -0.2000
  753TIP3    H123674   3.673   5.389  14.995  0.0987  0.6097  1.6988
  753TIP3    H223675   3.805   5.374  14.921 -0.9729 -0.9289  0.0339
  754TIP3   OH223676   1.924   2.153   0.009 -0.4300  0.2370 -0.0761
  754TIP3    H123677   1.922   2.128   0.101  1.2686 -1.4465 -0.4393
  754TIP3    H223678   2.013   2.131  -0.020 -0.5447  1.8092 -1.8424
  755TIP3   OH223679   5.031   6.350  13.667  0.8121  0.3450  0.2627
  755TIP3    H123680   4.949   6.346  13.617  0.5024  2.2751  0.5716
  755TIP3    H223681   5.029   6.271  13.721 -0.5058  0.0040 -0.2402
  756TIP3   OH223682   3.344   0.992   5.660  0.8365 -0.2216  0.0377
  756TIP3    H123683   3.289   0.919   5.632  1.2196 -0.2061 -0.7948
  756TIP3    H223684   3.299   1.028   5.736 -0.1544 -0.3910 -0.4474
  757TIP3   OH223685   5.432   4.916  15.996 -0.4472  0.3619  0.3201
  757TIP3    H123686   5.483   4.851  15.949  0.5101  0.6197  0.9912
  757TIP3    H223687   5.344   4.910  15.957 -0.0813 -0.5275 -0.3930
  758TIP3   OH223688   6.119   1.551  15.259 -0.2503  0.1745  0.1240
  758TIP3    H123689   6.154   1.607  15.328 -1.5517 -0.7752  1.6160
  758TIP3    H223690   6.146   1.462  15.283 -1.6648 -0.2995  0.0522
  759TIP3   OH223691   0.158   4.214  17.080  0.4208 -0.3627  0.2775
  759TIP3    H123692   0.212   4.143  17.114  0.0014 -0.0336  1.6946
  759TIP3    H223693   0.089   4.171  17.029  1.1446 -0.8539 -0.3102
  760TIP3   OH223694   4.935   1.861   1.394  0.1843 -0.5007  0.3082
  760TIP3    H123695   4.846   1.841   1.364  0.3888  0.7135 -1.2716
  760TIP3    H223696   4.990   1.852   1.316  0.8112  2.4211  0.2713
  761TIP3   OH223697   3.815   4.763   1.555  0.4646  0.2122 -0.2070
  761TIP3    H123698   3.807   4.702   1.482  0.8405  0.3149 -0.3349
  761TIP3    H223699   3.728   4.802   1.564  0.4484  0.2876 -0.6742
  762TIP3   OH223700   0.415   4.154  16.844  0.0867  0.1753 -0.4710
  762TIP3    H123701   0.356   4.220  16.880 -0.2687  0.5711 -1.7401
  762TIP3    H223702   0.364   4.109  16.777  0.6728 -0.6698 -0.3723
  763TIP3   OH223703   2.562   5.598   6.293 -0.4160 -0.0664  0.4137
  763TIP3    H123704   2.616   5.658   6.241  1.7731 -3.0993 -1.1263
  763TIP3    H223705   2.489   5.575   6.235 -0.8893  0.5512  0.7523
  764TIP3   OH223706   2.550   6.620  15.881 -0.8076 -0.0904  0.0475
  764TIP3    H123707   2.589   6.657  15.801 -0.3761 -1.6316 -0.4969
  764TIP3    H223708   2.533   6.529  15.859 -0.0235 -0.7437  1.9515
  765TIP3   OH223709   3.142   0.710  17.364 -0.1007 -0.3177  0.4223
  765TIP3    H123710   3.167   0.656  17.289 -0.4169  0.5022 -0.3062
  765TIP3    H223711   3.218   0.710  17.421 -0.1631 -1.6656  0.5241
  766TIP3   OH223712   3.555   6.391  15.386 -0.2030 -0.0497 -0.1662
  766TIP3    H123713   3.622   6.327  15.408 -0.9509 -0.4216  1.1004
  766TIP3    H223714   3.550   6.388  15.291  1.7282  0.1570 -0.3234
  767TIP3   OH223715   3.477   5.360  14.803 -0.3270  0.0836 -0.2848
  767TIP3    H123716   3.428   5.404  14.734 -1.0667 -0.0454  0.1537
  767TIP3    H223717   3.492   5.428  14.869 -0.3588 -0.0056 -0.1866
  768TIP3   OH223718   5.978   1.402   3.664  0.0824  0.0443  0.3977
  768TIP3    H123719   5.992   1.489   3.701 -0.8432  0.5150 -0.3232
  768TIP3    H223720   6.020   1.404   3.579 -0.8243  0.1391 -0.0593
  769TIP3   OH223721   4.194   4.835  16.313  0.0467 -0.0256  0.2521
  769TIP3    H123722   4.141   4.803  16.241 -0.8528  1.1438  0.3557
  769TIP3    H223723   4.131   4.876  16.373  0.9583  0.5260  0.8634
  770TIP3   OH223724   2.389   3.226  11.771 -0.0245 -0.5255 -0.1104
  770TIP3    H123725   2.479   3.235  11.801  0.5938 -3.0038 -1.0212
  770TIP3    H223726   2.376   3.301  11.713  1.7209 -0.5586 -0.5897
  771TIP3   OH223727   3.405   5.342   0.121  0.5696 -0.2378  0.2224
  771TIP3    H123728   3.430   5.394   0.197 -0.8192 -0.7592  1.0914
  771TIP3    H223729   3.358   5.403   0.064  0.1627 -0.2066  0.5835
  772TIP3   OH223730   0.234   0.796  15.527  0.1642 -0.8231  0.6552
  772TIP3    H123731   0.249   0.755  15.442 -0.4268 -2.1053  1.1349
  772TIP3    H223732   0.179   0.872  15.508  1.9106  0.2541 -0.3447
  773TIP3   OH223733   1.831   0.759   5.384 -0.3652  0.1475 -0.0427
  773TIP3    H123734   1.891   0.763   5.458 -0.0144  0.4121 -0.3367
  773TIP3    H223735   1.873   0.811   5.316 -1.1659  0.7795 -0.0768
  774TIP3   OH223736   1.236   2.960  14.299  1.0031 -0.0256 -0.5105
  774TIP3    H123737   1.168   2.979  14.364  1.6378 -0.3383  0.2566
  774TIP3    H223738   1.239   3.039  14.244  0.0772  0.0173 -0.5070
  775TIP3   OH223739   3.264   1.068  13.152 -0.2390  0.0133  0.1241
  775TIP3    H123740   3.303   1.156  13.153  2.1648 -0.9064 -2.1100
  775TIP3    H223741   3.174   1.083  13.126 -0.1152  1.8684  0.5920
  776TIP3   OH223742   0.377   3.216   0.061 -0.2594 -0.1598 -0.2354
  776TIP3    H123743   0.447   3.170   0.015 -0.2979  0.7096 -1.2007
  776TIP3    H223744   0.403   3.308   0.060 -0.7405 -0.0029  0.6336
  777TIP3   OH223745   4.337   0.266  13.857 -0.1268 -0.1114 -0.7669
  777TIP3    H123746   4.418   0.244  13.903  0.0717 -0.1963 -1.1515
  777TIP3    H223747   4.317   0.189  13.804 -1.2609 -0.6630  0.4257
  778TIP3   OH223748   5.670   5.338  14.510  0.2255  0.3861 -0.0428
  778TIP3    H123749   5.746   5.332  14.568 -0.5666  0.8310  1.0706
  778TIP3    H223750   5.644   5.431  14.514 -1.2140 -0.0193  0.7222
  779TIP3   OH223751   0.253   2.409  15.207  0.0078 -0.0146 -0.2080
  779TIP3    H123752   0.299   2.324  15.206 -1.2151 -0.6995 -1.0386
  779TIP3    H223753   0.179   2.395  15.267  1.1398  1.2625  1.5934
  780TIP3   OH223754   0.552   6.019   2.954  0.5005 -0.2995 -0.5010
  780TIP3    H123755   0.628   5.995   2.902 -1.1080 -4.1664 -1.3913
  780TIP3    H223756   0.487   5.951   2.936 -2.6757  1.9280  1.3594
  781TIP3   OH223757   6.531   5.711  14.128  0.1904 -0.8662  0.1728
  781TIP3    H123758   6.556   5.768  14.200 -0.2983 -2.0166  1.2856
  781TIP3    H223759   6.605   5.652  14.117  1.2252  0.6749 -1.7881
  782TIP3   OH223760   0.540   1.879  15.211 -0.4608 -0.2687 -0.1817
  782TIP3    H123761   0.474   1.843  15.269 -0.5656  0.1615 -0.0348
  782TIP3    H223762   0.503   1.961  15.179  0.2629  0.3112  0.4153
  783TIP3   OH223763   1.244   6.634  14.977  0.2996  0.0405 -0.5690
  783TIP3    H123764   1.327   6.674  15.003  1.0367 -0.9597 -1.2913
  783TIP3    H223765   1.270   6.557  14.926 -1.0666 -1.1284  0.4231
  784TIP3   OH223766   1.043   4.513  12.211  0.0400 -0.5141 -0.7855
  784TIP3    H123767   1.003   4.555  12.287  0.8741  0.0801 -0.6716
  784TIP3    H223768   0.971   4.465  12.170 -0.1864 -1.9567  1.1172
  785TIP3   OH223769   0.310   5.639  14.755  0.2687  0.1598 -0.3600
  785TIP3    H123770   0.388   5.628  14.701  0.4570 -1.5539  0.1720
  785TIP3    H223771   0.336   5.700  14.824  0.7609  0.5216 -0.8620
  786TIP3   OH223772   5.133   3.416  12.886  0.1544 -0.2087  0.9421
  786TIP3    H123773   5.172   3.362  12.955  1.3319 -0.5303  0.0610
  786TIP3    H223774   5.165   3.377  12.804 -0.5229  0.6742  0.2361
  787TIP3   OH223775   2.591   6.151   3.741 -0.0973 -0.0164  0.4664
  787TIP3    H123776   2.685   6.133   3.734 -0.5078 -1.7206 -1.6146
  787TIP3    H223777   2.577   6.225   3.682 -0.0866  0.1827  0.7119
  788TIP3   OH223778   1.852   1.088   3.832 -0.2128 -0.1872 -0.2482
  788TIP3    H123779   1.778   1.149   3.838  0.7341  1.0156 -0.6093
  788TIP3    H223780   1.829   1.018   3.894 -2.5485 -0.8558 -1.7130
  789TIP3   OH223781   2.585   5.551   3.284  0.4884 -0.2129 -0.1599
  789TIP3    H123782   2.546   5.620   3.337 -0.7861 -0.9861 -0.0509
  789TIP3    H223783   2.603   5.593   3.200 -1.0891  0.0446 -0.3863
  790TIP3   OH223784   6.264   4.972   5.066 -0.2920  0.4446 -0.1308
  790TIP3    H123785   6.248   4.983   5.160 -0.4613 -1.6176  0.1226
  790TIP3    H223786   6.260   5.061   5.031 -1.7690  1.1029  1.5564
  791TIP3   OH223787   3.653   2.165  11.881  0.5655 -0.3270 -0.0264
  791TIP3    H123788   3.722   2.113  11.921 -0.9760 -2.4714  0.0329
  791TIP3    H223789   3.619   2.220  11.952  1.0037 -0.5957  0.3912
  792TIP3   OH223790   1.420   3.694  11.816 -0.1566 -0.4333 -0.1818
  792TIP3    H123791   1.506   3.700  11.859 -0.7668 -2.1845  1.4338
  792TIP3    H223792   1.357   3.717  11.884 -1.0098  1.8045 -1.6067
  793TIP3   OH223793   6.307   5.798  12.001  0.1870  0.2995  0.9374
  793TIP3    H123794   6.333   5.779  12.091 -0.4086  1.0254  1.2693
  793TIP3    H223795   6.349   5.729  11.949  0.2507 -0.3310  1.8036
  794TIP3   OH223796   5.964   2.117  16.959 -0.6031 -0.5587  0.2232
  794TIP3    H123797   5.898   2.052  16.938  1.8407 -2.9566 -0.5877
  794TIP3    H223798   5.942   2.147  17.047 -2.7024 -1.2886 -0.0162
  795TIP3   OH223799   1.325   6.422   4.009 -0.0665 -0.3187  0.4193
  795TIP3    H123800   1.347   6.424   3.916  1.2777 -3.7456  0.5099
  795TIP3    H223801   1.248   6.365   4.015 -0.4533  0.2777  1.3681
  796TIP3   OH223802   6.236   6.123   2.762 -0.0095 -0.2761  0.1471
  796TIP3    H123803   6.181   6.140   2.839  1.3220 -4.1718  2.2663
  796TIP3    H223804   6.325   6.129   2.795  0.5930 -2.8865 -0.7300
  797TIP3   OH223805   4.887   3.359  15.381  0.4461  0.9673  0.1086
  797TIP3    H123806   4.959   3.316  15.427 -0.4238  0.3424  0.9316
  797TIP3    H223807   4.907   3.452  15.385  1.3348  0.7821  0.1025
  798TIP3   OH223808   6.625   1.327  16.866  0.4118 -0.0942 -0.7067
  798TIP3    H123809   6.642   1.406  16.917  0.0553 -0.0330 -0.6862
  798TIP3    H223810   6.538   1.340  16.828  1.0167  0.2402 -2.0311
  799TIP3   OH223811   0.337   4.019  17.181  0.3280 -0.1336 -0.1945
  799TIP3    H123812   0.274   3.947  17.189 -0.1347  0.3731  0.8742
  799TIP3    H223813   0.422   3.976  17.183  0.0428 -0.7430 -0.6770
  800TIP3   OH223814   6.616   5.079  11.497 -0.5673 -0.1505  0.1933
  800TIP3    H123815   6.529   5.078  11.458 -0.1418 -0.8552 -0.7859
  800TIP3    H223816   6.654   4.994  11.474 -0.1231 -0.4119  1.7963
  801TIP3   OH223817   1.134   4.521   5.252 -0.1796  0.0085 -0.1853
  801TIP3    H123818   1.050   4.476   5.258  0.3336 -1.0799 -0.9135
  801TIP3    H223819   1.143   4.542   5.159  0.5782 -0.3336 -0.1943
  802TIP3   OH223820   3.282   2.762   6.004  0.2711 -0.4178 -0.5737
  802TIP3    H123821   3.285   2.740   6.098 -0.4482 -0.1763 -0.4881
  802TIP3    H223822   3.189   2.764   5.983  0.4282 -0.4499 -1.2976
  803TIP3   OH223823   3.995   0.255   0.994 -0.2244 -0.3410  0.1756
  803TIP3    H123824   3.962   0.231   0.907 -0.1797 -0.2274  0.1262
  803TIP3    H223825   3.921   0.241   1.053 -0.4176  0.0734  0.0392
  804TIP3   OH223826   1.147   1.978  17.372 -0.1849  1.0333  0.0779
  804TIP3    H123827   1.063   1.950  17.407  0.3428 -1.1453 -0.2773
  804TIP3    H223828   1.134   1.981  17.277 -0.3500  2.5478  0.1170
  805TIP3   OH223829   1.273   0.507   5.656 -0.3850  0.2465  0.0566
  805TIP3    H123830   1.263   0.568   5.729 -1.3195 -1.7553  1.7000
  805TIP3    H223831   1.202   0.531   5.595 -1.1290  0.4233  0.9684
  806TIP3   OH223832   2.337   2.423  12.072 -0.3161 -0.2465 -0.3453
  806TIP3    H123833   2.371   2.439  11.984  0.8070  1.7378  0.4100
  806TIP3    H223834   2.394   2.354  12.107  0.6179  0.4753 -0.4124
  807TIP3   OH223835   3.632   1.540   3.733  0.0622  0.1884  0.2587
  807TIP3    H123836   3.722   1.546   3.764  0.6269  0.1966 -1.2573
  807TIP3    H223837   3.582   1.599   3.789  0.7444 -0.7833  1.9459
  808TIP3   OH223838   5.616   1.712  13.294 -0.1104 -0.2408  0.4759
  808TIP3    H123839   5.625   1.638  13.353  1.2709  0.3967  1.1180
  808TIP3    H223840   5.672   1.690  13.219 -0.5240 -0.3053  0.1834
  809TIP3   OH223841   4.318   3.396  12.152 -0.1896  0.0855 -0.0420
  809TIP3    H123842   4.369   3.318  12.128  0.4683  0.3146  0.6017
  809TIP3    H223843   4.328   3.455  12.077  2.4104  1.0692  0.9778
  810TIP3   OH223844   1.213   5.138  11.991  0.4887 -0.8561 -0.0065
  810TIP3    H123845   1.117   5.134  11.998  0.3270  1.9769  0.6008
  810TIP3    H223846   1.243   5.060  12.037 -1.5062 -1.1263  0.9759
  811TIP3   OH223847   2.708   2.693  13.420  0.1008 -0.6265  0.0291
  811TIP3    H123848   2.763   2.634  13.471 -0.2382 -0.9865 -0.0188
  811TIP3    H223849   2.648   2.635  13.372 -1.1885 -0.2191  1.0636
  812TIP3   OH223850   5.548   0.384  15.490 -0.0254 -0.4720 -0.1144
  812TIP3    H123851   5.532   0.320  15.420 -0.5729  0.2552 -0.6568
  812TIP3    H223852   5.479   0.449  15.480  0.6649  0.3402  0.2821
  813TIP3   OH223853   4.661   0.725   4.458  0.6003 -0.4187  0.2276
  813TIP3    H123854   4.584   0.727   4.401  0.1944 -2.5463  0.6306
  813TIP3    H223855   4.635   0.778   4.534  0.1080  0.1173 -0.2984
  814TIP3   OH223856   3.158   2.046   5.851 -0.9849  0.2424  0.3379
  814TIP3    H123857   3.166   2.142   5.845 -0.9431  0.1679 -1.2953
  814TIP3    H223858   3.091   2.031   5.917 -1.7116  1.4314 -0.1054
  815TIP3   OH223859   0.181   2.775  16.875 -0.0816 -0.3035 -0.1398
  815TIP3    H123860   0.269   2.762  16.910 -0.2326  2.8453  1.8702
  815TIP3    H223861   0.192   2.844  16.809 -0.9666 -0.0709 -0.0555
  816TIP3   OH223862   4.747   3.465   6.359  0.8212  0.0023  0.4620
  816TIP3    H123863   4.756   3.528   6.431  0.8554  0.5453 -0.0110
  816TIP3    H223864   4.800   3.390   6.386 -0.2298 -0.3639  1.6173
  817TIP3   OH223865   5.845   1.359   3.388 -0.5540 -0.3231 -0.2529
  817TIP3    H123866   5.801   1.423   3.444 -2.1402 -1.3140 -0.3145
  817TIP3    H223867   5.776   1.326   3.331  0.4680 -1.3078 -0.9609
  818TIP3   OH223868   3.444   5.180   3.084  0.0459  0.3862 -0.0496
  818TIP3    H123869   3.435   5.180   3.179  0.7961 -0.8352  0.0415
  818TIP3    H223870   3.412   5.094   3.058 -0.5410  0.8646 -0.9539
  819TIP3   OH223871   1.213   6.216   1.785  0.0761  0.5361 -0.1128
  819TIP3    H123872   1.144   6.261   1.736 -2.2076 -0.2552  2.1752
  819TIP3    H223873   1.263   6.286   1.827 -0.9677  1.0753  0.2579
  820TIP3   OH223874   4.742   5.504  15.006 -0.3871 -0.2615  0.9516
  820TIP3    H123875   4.717   5.594  14.988  2.6353  0.6966  0.9288
  820TIP3    H223876   4.756   5.502  15.101 -3.0566 -1.5482  1.4138
  821TIP3   OH223877   6.151   2.621  16.860 -0.0714 -0.4647  0.0884
  821TIP3    H123878   6.094   2.687  16.822 -0.7886 -1.7685 -1.2387
  821TIP3    H223879   6.101   2.584  16.932 -0.0709 -0.2384  0.2044
  822TIP3   OH223880   5.271   2.908  12.780 -0.1005  0.0347 -0.4202
  822TIP3    H123881   5.241   2.985  12.732 -1.1261  0.3164  0.6255
  822TIP3    H223882   5.256   2.930  12.872  0.5817 -1.0062 -0.0431
  823TIP3   OH223883   3.234   1.999  15.349  0.6263 -0.5222 -0.3143
  823TIP3    H123884   3.329   2.010  15.351  0.4717  1.0116  0.2875
  823TIP3    H223885   3.202   2.052  15.423 -0.8536  1.2406 -2.0914
  824TIP3   OH223886   0.785   2.755   5.395 -0.3719 -0.0574 -0.1483
  824TIP3    H123887   0.753   2.836   5.434 -0.0068 -0.9658  2.2568
  824TIP3    H223888   0.725   2.688   5.427 -0.4464 -0.8192 -1.7821
  825TIP3   OH223889   1.268   1.632  12.404 -0.3250  0.2501 -0.7057
  825TIP3    H123890   1.319   1.688  12.462 -0.7023 -1.2161  1.1019
  825TIP3    H223891   1.333   1.579  12.358  0.0021 -2.9346  2.9059
  826TIP3   OH223892   0.143   2.525  14.079  0.8030  0.0938 -0.0466
  826TIP3    H123893   0.196   2.570  14.014  0.9348 -0.1613 -0.1194
  826TIP3    H223894   0.144   2.433  14.051 -1.3752  0.3688 -1.2425
  827TIP3   OH223895   4.578   4.347  12.222 -0.1366  0.3477 -0.0754
  827TIP3    H123896   4.623   4.282  12.275 -2.9370 -1.2359  0.5155
  827TIP3    H223897   4.543   4.298  12.148 -2.0764  1.2059  0.2232
  828TIP3   OH223898   0.113   4.336  13.526 -0.5711  0.0066 -0.2193
  828TIP3    H123899   0.163   4.414  13.503 -0.8150  0.2592  0.0928
  828TIP3    H223900   0.169   4.263  13.501  0.7559  0.2644  1.7470
  829TIP3   OH223901   5.784   3.959   4.292  0.0534 -0.0101  0.4048
  829TIP3    H123902   5.738   4.042   4.299  0.9874  0.6459 -0.8144
  829TIP3    H223903   5.717   3.895   4.267 -0.7413  0.2759  1.7552
  830TIP3   OH223904   0.438   1.996   3.933  0.0936 -0.1909 -0.0388
  830TIP3    H123905   0.362   1.950   3.897  0.3815 -0.9970  0.3626
  830TIP3    H223906   0.436   1.977   4.027  0.3621  0.4191  0.0969
  831TIP3   OH223907   0.665   0.891  16.695  0.0292  0.3192  0.2146
  831TIP3    H123908   0.643   0.888  16.788 -4.0525  2.3832 -0.4385
  831TIP3    H223909   0.618   0.817  16.657  0.3142  0.4608 -0.4158
  832TIP3   OH223910   4.710   2.407   5.518  0.1296 -0.5850  0.3626
  832TIP3    H123911   4.633   2.384   5.570 -0.9660  0.5385 -0.6865
  832TIP3    H223912   4.676   2.418   5.429  0.8996  2.7166  0.3531
  833TIP3   OH223913   0.423   3.452   2.152 -0.2914 -0.2607  0.1944
  833TIP3    H123914   0.511   3.414   2.164  0.5239  1.0655 -1.1880
  833TIP3    H223915   0.435   3.517   2.082 -1.5742  2.5391  2.3630
  834TIP3   OH223916   5.786   5.846  15.473  0.1193 -0.6710 -0.6245
  834TIP3    H123917   5.796   5.914  15.540  0.9507  0.0199 -1.4452
  834TIP3    H223918   5.873   5.808  15.463 -0.0676 -0.9848 -1.1022
  835TIP3   OH223919   6.524   5.679   4.581  0.0339 -0.1920 -0.3757
  835TIP3    H123920   6.432   5.703   4.594  0.3774  0.1780  1.7023
  835TIP3    H223921   6.573   5.759   4.600  0.8248 -0.5249 -0.9562
  836TIP3   OH223922   6.010   0.467  14.410  0.2904  0.0763  0.1714
  836TIP3    H123923   5.938   0.530  14.409  1.1348  1.0853 -0.9087
  836TIP3    H223924   5.971   0.385  14.439 -0.5429  1.4249  3.2069
  837TIP3   OH223925   1.534   5.076  12.041 -0.2367 -0.0014 -0.4205
  837TIP3    H123926   1.575   5.024  11.972 -0.3201  1.0768 -1.3329
  837TIP3    H223927   1.452   5.032  12.059 -0.5376  0.0600 -1.5324
  838TIP3   OH223928   2.126   3.114  14.759 -0.3910 -0.1379 -0.2534
  838TIP3    H123929   2.156   3.070  14.679  1.0769 -1.5281  0.9794
  838TIP3    H223930   2.105   3.203  14.731 -0.1370 -0.6453 -2.2165
  839TIP3   OH223931   1.012   4.860  13.808  0.0893 -0.6166 -0.0330
  839TIP3    H123932   0.950   4.788  13.794  0.1607 -0.3381 -2.1533
  839TIP3    H223933   1.076   4.851  13.737  0.3449  1.2604 -0.1104
  840TIP3   OH223934   4.440   0.981   2.105 -0.1696 -0.6110  0.3489
  840TIP3    H123935   4.355   1.020   2.086 -0.1796  0.3524  2.1431
  840TIP3    H223936   4.501   1.026   2.046 -0.2465  1.9780  2.0865
  841TIP3   OH223937   1.299   2.617  15.638 -0.1254  0.8115  0.4873
  841TIP3    H123938   1.222   2.658  15.599 -0.9086 -0.6226  0.4314
  841TIP3    H223939   1.324   2.676  15.710 -2.7545  0.2115  2.0499
  842TIP3   OH223940   3.911   2.483   0.730 -0.1477  0.2225  0.5933
  842TIP3    H123941   3.994   2.476   0.683 -0.1097 -0.8093  0.7807
  842TIP3    H223942   3.864   2.553   0.685  0.6877  0.5964  0.2774
  843TIP3   OH223943   0.910   0.233  16.781  0.8037  0.1192  0.4048
  843TIP3    H123944   0.855   0.177  16.836 -1.2995  1.5994 -0.0654
  843TIP3    H223945   0.942   0.301  16.839 -1.4808  1.7274 -0.0741
  844TIP3   OH223946   4.252   4.484  15.219  0.0379 -0.4173 -0.3859
  844TIP3    H123947   4.276   4.409  15.165  3.2204 -0.0669  0.3228
  844TIP3    H223948   4.179   4.525  15.173  0.6345 -1.8602 -2.7642
  845TIP3   OH223949   4.066   0.178   4.718 -0.7194 -0.1235 -0.2622
  845TIP3    H123950   3.978   0.212   4.738 -0.4127  0.0661  0.8329
  845TIP3    H223951   4.057   0.138   4.632 -2.4473 -2.0881  0.7472
  846TIP3   OH223952   0.047   0.231  14.312  0.2454  0.8883  0.3291
  846TIP3    H123953   0.083   0.146  14.335 -0.3586  0.6885  0.5716
  846TIP3    H223954  -0.039   0.233  14.356 -0.1190  1.2652 -0.3848
  847TIP3   OH223955   5.016   2.032   5.742  0.4510  0.0042 -0.1403
  847TIP3    H123956   5.052   1.953   5.701  0.8251 -0.1267  0.4340
  847TIP3    H223957   5.083   2.099   5.728  0.7566 -0.1405  0.5882
  848TIP3   OH223958   1.094   3.035  13.299 -0.0363  0.2093  0.5939
  848TIP3    H123959   1.063   2.972  13.365 -1.9226  0.0787 -0.3491
  848TIP3    H223960   1.056   3.118  13.327  1.4867  0.7508  1.1809
  849TIP3   OH223961   0.154   1.398  13.337 -0.2080  0.0198  0.7409
  849TIP3    H123962   0.158   1.479  13.388 -1.6171  0.0229  0.8877
  849TIP3    H223963   0.130   1.330  13.400  0.9085 -0.5203  0.6106
  850TIP3   OH223964   6.650   3.533   2.423 -0.5487 -0.0822 -0.0772
  850TIP3    H123965   6.646   3.592   2.498 -0.3076 -0.7653  0.4863
  850TIP3    H223966   6.662   3.446   2.462 -0.5071 -0.4542 -0.9049
  851TIP3   OH223967   3.678   4.214   0.253 -0.5125 -0.2665  0.7981
  851TIP3    H123968   3.627   4.259   0.185 -0.8334 -0.6065  0.8108
  851TIP3    H223969   3.637   4.128   0.260 -0.1019 -0.4473  1.0004
  852TIP3   OH223970   0.618   1.357   1.760 -0.0129 -0.2123 -0.0539
  852TIP3    H123971   0.641   1.438   1.806  1.1452 -1.0760  0.9323
  852TIP3    H223972   0.569   1.305   1.825  0.2081 -0.7629 -0.3255
  853TIP3   OH223973   5.194   1.780  14.358  0.2202 -0.3015  0.2667
  853TIP3    H123974   5.152   1.701  14.392 -1.5869  0.0994 -0.9118
  853TIP3    H223975   5.287   1.767  14.376 -0.3521 -1.1123  3.2401
  854TIP3   OH223976   5.237   0.552   2.808 -0.8668 -0.0460 -0.0175
  854TIP3    H123977   5.289   0.593   2.877  1.8465 -2.1342 -0.6600
  854TIP3    H223978   5.171   0.618   2.785  0.3221  2.0313  2.1543
  855TIP3   OH223979   1.201   4.789   6.664  0.6401  0.2786  0.4665
  855TIP3    H123980   1.236   4.706   6.697 -1.0411  0.0760  1.8894
  855TIP3    H223981   1.163   4.831   6.741 -1.9763  0.5820 -0.8701
  856TIP3   OH223982   0.377   5.151   0.208  0.0753 -0.2598  0.2656
  856TIP3    H123983   0.411   5.083   0.265  1.2543  0.0484 -0.0324
  856TIP3    H223984   0.455   5.191   0.169 -0.5425  1.4982  0.7082
  857TIP3   OH223985   3.865   5.012  12.935  1.0209  0.7219 -0.3521
  857TIP3    H123986   3.913   4.962  12.870  1.3752 -0.5792  0.8555
  857TIP3    H223987   3.919   5.089  12.952  1.5232  0.4492 -0.7093
  858TIP3   OH223988   5.639   2.768  14.673  0.2450  0.4694  0.1075
  858TIP3    H123989   5.677   2.797  14.590 -0.5538  0.4805 -0.2563
  858TIP3    H223990   5.546   2.786  14.665  0.3941  2.4199  1.7879
  859TIP3   OH223991   1.962   1.077   2.085  0.1328  0.7045 -0.0839
  859TIP3    H123992   1.887   1.018   2.088  1.1723 -0.6260  2.0881
  859TIP3    H223993   1.935   1.147   2.026 -2.3876 -0.2583 -0.1977
  860TIP3   OH223994   3.940   1.490   2.998 -0.2089  0.4776  0.2311
  860TIP3    H123995   3.859   1.446   3.024  1.2650 -0.6667  3.4151
  860TIP3    H223996   3.977   1.523   3.080  1.9203  2.1632 -1.2787
  861TIP3   OH223997   0.325   1.595  12.880  0.5249 -0.1417 -0.5057
  861TIP3    H123998   0.411   1.562  12.852  0.5917 -0.3166 -0.1055
  861TIP3    H223999   0.323   1.578  12.975  0.0018 -0.2451 -0.5330
  862TIP3   OH224000   2.382   2.679  15.557 -0.0997 -0.1837  0.7599
  862TIP3    H124001   2.415   2.646  15.474 -1.0700 -0.9532  0.6561
  862TIP3    H224002   2.341   2.762  15.536  0.0215 -0.1814  0.5392
  863TIP3   OH224003   0.323   0.609   1.220  0.4862  0.6454 -0.4906
  863TIP3    H124004   0.399   0.605   1.163 -0.5034  2.7378 -2.1159
  863TIP3    H224005   0.261   0.546   1.183  0.6287  0.4768 -0.4435
  864TIP3   OH224006   1.513   0.185  11.386  0.3688 -0.0894  0.4434
  864TIP3    H124007   1.555   0.124  11.447 -0.6635  0.1882  1.4603
  864TIP3    H224008   1.557   0.169  11.302  2.5609  0.2453  1.4625
  865TIP3   OH224009   4.600   2.551   5.104  0.3761 -0.0978  0.1387
  865TIP3    H124010   4.510   2.539   5.074  0.0578  1.0993  0.5722
  865TIP3    H224011   4.600   2.515   5.193  0.4422 -0.4794 -0.0121
  866TIP3   OH224012   5.222   2.457  11.447 -0.0063 -0.1840 -0.0629
  866TIP3    H124013   5.202   2.518  11.376  0.1593  0.4867  0.4543
  866TIP3    H224014   5.170   2.379  11.428 -0.0469  0.0298 -0.8546
  867TIP3   OH224015   1.575   6.662  16.222 -0.1945 -0.5343 -0.4393
  867TIP3    H124016   1.555   6.572  16.244  0.2030 -0.1595  1.6164
  867TIP3    H224017   1.621   6.697  16.298  1.3560  0.8734 -1.9197
  868TIP3   OH224018   0.652   5.915   2.317  0.2648  0.1305 -0.1059
  868TIP3    H124019   0.730   5.909   2.262 -0.8703 -0.3330 -1.7351
  868TIP3    H224020   0.680   5.882   2.402  1.6525 -0.7413 -0.8672
  869TIP3   OH224021   6.369   1.371   5.029 -0.2580  0.0902 -0.1390
  869TIP3    H124022   6.395   1.426   4.955  0.1559  0.6404  0.4044
  869TIP3    H224023   6.452   1.346   5.071 -0.4007 -1.3865 -0.6740
  870TIP3   OH224024   5.270   5.210  12.844 -0.4204 -0.0134 -0.7710
  870TIP3    H124025   5.260   5.147  12.914 -1.3963 -0.0053 -0.8877
  870TIP3    H224026   5.353   5.254  12.862 -0.8644  0.2993  0.6241
  871TIP3   OH224027   0.178   5.059   4.058  0.2691  0.4299  0.1415
  871TIP3    H124028   0.158   5.066   4.152 -1.3538  2.9922 -0.3132
  871TIP3    H224029   0.118   5.120   4.016  0.9367 -0.6700 -2.6218
  872TIP3   OH224030   1.080   4.775   1.007 -0.0853 -0.2338  0.0416
  872TIP3    H124031   1.124   4.693   1.027  0.9002  0.1291 -0.5766
  872TIP3    H224032   1.069   4.818   1.092 -1.2131 -1.2889  0.4484
  873TIP3   OH224033   4.562   2.214   4.438 -0.1056  0.1278 -0.1182
  873TIP3    H124034   4.654   2.239   4.449 -0.5461  2.3487 -0.9178
  873TIP3    H224035   4.515   2.262   4.505 -0.6991 -1.2093  0.4659
  874TIP3   OH224036   4.850   1.008  12.731  0.2907  0.7733  0.0644
  874TIP3    H124037   4.795   0.950  12.785  1.5233 -2.6189 -1.9615
  874TIP3    H224038   4.812   1.002  12.643  1.6863  1.3426 -0.6102
  875TIP3   OH224039   3.286   2.448  12.924 -0.2679 -0.1040 -0.0580
  875TIP3    H124040   3.369   2.484  12.892 -0.1662 -0.0675  0.2376
  875TIP3    H224041   3.261   2.506  12.996 -0.4938 -0.1816 -0.0719
  876TIP3   OH224042   1.691   3.738  12.088 -0.1532  0.0477 -0.0154
  876TIP3    H124043   1.704   3.788  12.007 -0.1784  0.5407  0.2812
  876TIP3    H224044   1.734   3.654  12.071  2.1620  1.0707  0.3874
  877TIP3   OH224045   6.135   4.697  12.594  0.1407 -0.7070  0.2879
  877TIP3    H124046   6.174   4.765  12.649  2.3538 -2.0463  0.4946
  877TIP3    H224047   6.098   4.634  12.655 -3.1227  0.8089  0.1029
  878TIP3   OH224048   0.193   2.278   3.919  0.7711  0.4468  0.0432
  878TIP3    H124049   0.137   2.217   3.872 -0.8303  1.3974  0.6341
  878TIP3    H224050   0.267   2.293   3.861 -0.2230  0.1454 -1.3504
  879TIP3   OH224051   1.737   3.835   6.038 -0.4110  0.1685 -0.5569
  879TIP3    H124052   1.686   3.828   5.957 -1.5118  1.7607 -0.0450
  879TIP3    H224053   1.686   3.893   6.094  0.8467 -0.0549  0.8891
  880TIP3   OH224054   4.611   0.052   3.430  0.3473  1.0981  0.4252
  880TIP3    H124055   4.681  -0.014   3.429 -0.1181  0.5938  0.6112
  880TIP3    H224056   4.608   0.082   3.521  0.2877  1.0892  0.4258
  881TIP3   OH224057   3.070   2.349   1.483  0.4250  0.5224  0.6303
  881TIP3    H124058   3.154   2.392   1.501 -0.2225  1.3598  1.7339
  881TIP3    H224059   3.034   2.330   1.570 -0.8614  0.8185  0.1670
  882TIP3   OH224060   5.281   6.343   4.366 -0.1936 -0.0399  0.2638
  882TIP3    H124061   5.359   6.341   4.422  0.6434 -0.1184 -0.8733
  882TIP3    H224062   5.253   6.434   4.368  0.1251  0.0596  0.4189
  883TIP3   OH224063   6.280   3.897   4.168 -0.6017  0.4671  0.2624
  883TIP3    H124064   6.206   3.846   4.199 -0.8297  0.5902 -0.0673
  883TIP3    H224065   6.326   3.839   4.107 -0.6512  0.5240  0.1695
  884TIP3   OH224066   3.011   3.979   4.806 -0.2159  0.9409  0.1596
  884TIP3    H124067   3.055   3.934   4.734  0.4301  1.1895  0.3918
  884TIP3    H224068   3.015   4.072   4.781 -0.5515  0.9699  0.2149
  885TIP3   OH224069   4.105   1.041  11.975 -0.1317  0.2147 -0.4344
  885TIP3    H124070   4.122   0.949  11.990  0.0609  0.3582  0.2819
  885TIP3    H224071   4.180   1.087  12.012  0.4543  0.6120 -2.0218
  886TIP3   OH224072   4.703   5.093   2.937 -0.0662 -0.1218 -0.2613
  886TIP3    H124073   4.739   5.073   2.851  2.1527 -0.3032  0.6491
  886TIP3    H224074   4.683   5.008   2.975  2.1696 -0.3095  0.6532
  887TIP3   OH224075   6.327   5.642   5.367  0.0277  0.5099  0.3915
  887TIP3    H124076   6.377   5.712   5.410  1.2014  0.6894 -1.1860
  887TIP3    H224077   6.298   5.680   5.284 -0.6217 -0.4032  0.1884
  888TIP3   OH224078   4.041   5.270   0.262 -0.0420 -0.3828 -0.3869
  888TIP3    H124079   4.064   5.345   0.207 -0.7892  2.0824  2.4393
  888TIP3    H224080   3.947   5.259   0.251 -0.2385  0.2833  0.5349
  889TIP3   OH224081   1.959   5.976   5.080 -0.3950  0.1194  0.2572
  889TIP3    H124082   2.026   6.038   5.054  0.4531 -0.1442  1.7040
  889TIP3    H224083   1.916   5.951   4.998  0.3006  1.3856 -0.5199
  890TIP3   OH224084   1.909   1.646  12.284  0.2043 -0.1265  0.1103
  890TIP3    H124085   1.967   1.702  12.337 -0.4578 -0.5369  1.3010
  890TIP3    H224086   1.839   1.621  12.344 -0.9926 -0.0036 -1.1843
  891TIP3   OH224087   1.145   1.001  16.090 -0.4313  0.3275 -0.0188
  891TIP3    H124088   1.070   0.949  16.060 -0.8834  0.3312  1.0371
  891TIP3    H224089   1.167   0.963  16.176 -0.7536  1.8398  0.7631
  892TIP3   OH224090   4.730   4.888  17.167  0.1830 -0.6019  0.3911
  892TIP3    H124091   4.642   4.863  17.138  1.5439 -3.1391 -2.0432
  892TIP3    H224092   4.779   4.899  17.086  2.3141  0.0849  1.6977
  893TIP3   OH224093   5.836   4.766  12.142  0.4607 -0.3668  0.1286
  893TIP3    H124094   5.781   4.700  12.186 -2.8459  0.8068 -1.8584
  893TIP3    H224095   5.788   4.848  12.154  2.0756  0.8612 -1.3928
  894TIP3   OH224096   1.918   3.218   6.108 -0.4480 -0.2795  0.3329
  894TIP3    H124097   1.921   3.206   6.013 -1.6137 -1.1645  0.3920
  894TIP3    H224098   1.894   3.310   6.119  0.3619  0.0081 -0.2141
  895TIP3   OH224099   1.820   1.700   6.200  0.6048 -0.3973  0.0448
  895TIP3    H124100   1.916   1.699   6.193  0.5718 -0.8446 -0.3921
  895TIP3    H224101   1.800   1.636   6.269  0.5458 -1.5884 -1.0280
  896TIP3   OH224102   5.338   0.918   2.843 -0.1947 -0.0902 -0.2039
  896TIP3    H124103   5.377   0.885   2.762 -0.6343 -0.1081 -0.4095
  896TIP3    H224104   5.351   1.013   2.838  1.2451 -0.2259  0.4794
  897TIP3   OH224105   0.163   1.685  16.482  0.1448 -0.3455 -0.4308
  897TIP3    H124106   0.209   1.759  16.520 -0.5552  0.0254 -0.2880
  897TIP3    H224107   0.108   1.724  16.414  1.1271 -0.9566 -1.6154
  898TIP3   OH224108   3.559   1.708  11.482 -0.1811 -0.1545 -0.0231
  898TIP3    H124109   3.466   1.694  11.464 -0.1762  0.2258 -0.3550
  898TIP3    H224110   3.560   1.762  11.561 -0.2568  0.2130 -0.2685
  899TIP3   OH224111   2.412   1.577   1.514  0.0578  0.0726 -0.2204
  899TIP3    H124112   2.336   1.523   1.535  1.1415 -1.1815  0.6847
  899TIP3    H224113   2.460   1.583   1.596  1.2708  0.2755 -0.9242
  900TIP3   OH224114   5.954   5.339   1.862 -0.3384 -0.3706 -0.2050
  900TIP3    H124115   5.925   5.312   1.950 -0.2564 -2.3793 -0.7516
  900TIP3    H224116   5.887   5.400   1.833  0.9651  2.5191  2.2498
  901TIP3   OH224117   1.790   4.008   5.017 -0.0024  0.2552  0.2289
  901TIP3    H124118   1.704   4.032   4.982  0.6009  4.1179  1.0038
  901TIP3    H224119   1.774   3.985   5.108 -0.2332  1.0944  0.4075
  902TIP3   OH224120   6.149   2.644   1.672  0.0044  0.0526 -0.7628
  902TIP3    H124121   6.055   2.657   1.661 -0.9420 -4.2313  0.4118
  902TIP3    H224122   6.179   2.606   1.589 -0.1452 -1.7786 -0.0363
  903TIP3   OH224123   3.606   0.094  15.219  0.0233 -0.5255  0.2419
  903TIP3    H124124   3.550   0.091  15.141  1.1623 -1.0209 -0.5832
  903TIP3    H224125   3.572   0.026  15.276  0.1582 -1.2409 -0.5189
  904TIP3   OH224126   4.148   2.271   5.973  0.2718  0.3213 -0.5605
  904TIP3    H124127   4.231   2.239   5.936  0.3204 -0.1206 -0.0720
  904TIP3    H224128   4.135   2.218   6.051 -0.0823  0.9283 -0.2100
  905TIP3   OH224129   4.391   3.208   5.179  0.0642 -0.0360 -0.4348
  905TIP3    H124130   4.325   3.181   5.116 -0.6703  1.3887 -0.3155
  905TIP3    H224131   4.341   3.250   5.249  1.0062  0.0133  0.2220
  906TIP3   OH224132   1.428   4.307  16.149  0.0222  0.2602  1.1492
  906TIP3    H124133   1.445   4.336  16.060  0.2290  2.4332  1.8324
  906TIP3    H224134   1.480   4.227  16.159 -0.5932 -0.4284 -0.8694
  907TIP3   OH224135   0.991   3.777  12.749  0.4254  0.1781 -0.1763
  907TIP3    H124136   1.019   3.689  12.726 -0.4061 -0.2120  0.2863
  907TIP3    H224137   1.065   3.813  12.799 -0.0012 -0.9724  1.3505
  908TIP3   OH224138   0.800   0.524   0.472 -0.2450  0.2789 -0.6026
  908TIP3    H124139   0.838   0.543   0.557 -0.0647  2.4886 -1.0959
  908TIP3    H224140   0.730   0.461   0.490  1.3152 -1.1503  0.7928
  909TIP3   OH224141   5.197   6.006   6.723 -0.0577 -0.1716  0.0610
  909TIP3    H124142   5.229   6.083   6.676 -2.6254 -0.0518 -1.6977
  909TIP3    H224143   5.131   6.041   6.783  0.0938 -0.8156  0.6111
  910TIP3   OH224144   5.368   4.208  12.071  0.2551 -0.2899  0.1801
  910TIP3    H124145   5.311   4.172  12.002  0.9341  0.1074 -0.6060
  910TIP3    H224146   5.456   4.202  12.034  0.6878 -0.5875  1.2539
  911TIP3   OH224147   3.087   5.367   2.953  0.2353 -0.3831  0.3863
  911TIP3    H124148   3.161   5.419   2.922 -0.6367 -0.0101 -1.1541
  911TIP3    H224149   3.096   5.283   2.909 -0.5363 -0.1517 -0.2389
  912TIP3   OH224150   3.749   5.203   6.335  0.5172 -0.1508 -0.4099
  912TIP3    H124151   3.664   5.246   6.347  2.0402  2.9211  0.3841
  912TIP3    H224152   3.761   5.152   6.415  0.2648  1.0101  0.3897
  913TIP3   OH224153   5.019   0.851   1.469 -0.8512  0.3064  0.2195
  913TIP3    H124154   5.114   0.845   1.480 -0.9610 -2.6038  0.2199
  913TIP3    H224155   4.997   0.938   1.502  1.8301  1.1947 -0.0914
  914TIP3   OH224156   2.678   4.881  15.533 -0.3479 -0.1856  0.5385
  914TIP3    H124157   2.648   4.930  15.457  0.2029  0.7140  0.8850
  914TIP3    H224158   2.773   4.894  15.535 -0.2836 -0.6598  1.0641
  915TIP3   OH224159   4.255   2.087  16.367 -0.4600  0.0172  0.3824
  915TIP3    H124160   4.177   2.100  16.421  0.1020  1.8621  0.8325
  915TIP3    H224161   4.323   2.060  16.430 -0.3675 -0.0917  0.2357
  916TIP3   OH224162   3.503   1.307  16.156 -0.3542  0.1257  0.3150
  916TIP3    H124163   3.451   1.384  16.181 -1.2580  0.0504 -1.2165
  916TIP3    H224164   3.439   1.246  16.121  0.4124 -1.1908  1.1266
  917TIP3   OH224165   0.276   3.075   3.482  0.0586  0.1536  0.5900
  917TIP3    H124166   0.258   3.123   3.563 -1.2092 -0.6443  0.8216
  917TIP3    H224167   0.343   3.011   3.506 -0.2626 -0.0336  0.9987
  918TIP3   OH224168   1.827   4.986  10.601  0.7708  0.6663  0.0189
  918TIP3    H124169   1.912   5.004  10.642  0.3161  0.6914  0.9878
  918TIP3    H224170   1.765   4.985  10.675 -0.2651  1.8874 -0.7816
  919TIP3   OH224171   6.075   1.705  10.971  0.0766  0.1666 -0.2216
  919TIP3    H124172   6.150   1.664  11.015 -0.3789  0.2395  0.6505
  919TIP3    H224173   6.110   1.787  10.936  0.0811  0.9765  1.5385
  920TIP3   OH224174   0.210   2.223  12.279  0.4244 -0.0121 -0.1940
  920TIP3    H124175   0.207   2.316  12.303  1.5907  0.2996 -1.1429
  920TIP3    H224176   0.273   2.185  12.340  0.0396 -0.1559  0.1145
  921TIP3   OH224177   2.121   0.558  12.363 -0.0131 -0.6355  0.6194
  921TIP3    H124178   2.212   0.530  12.369  0.7068  1.5263  0.3351
  921TIP3    H224179   2.121   0.629  12.299 -2.0864 -1.2156 -0.1280
  922TIP3   OH224180   1.709   4.309   0.218 -0.2609 -0.0040 -0.3023
  922TIP3    H124181   1.647   4.315   0.290 -0.3351 -0.5236 -0.3224
  922TIP3    H224182   1.660   4.267   0.147  0.0741 -0.2921 -0.3637
  923TIP3   OH224183   1.616   1.000   5.349 -0.3562  0.0612 -0.0404
  923TIP3    H124184   1.673   0.996   5.273  0.8979  2.5917  0.6655
  923TIP3    H224185   1.652   0.936   5.410 -1.8362 -2.5754 -1.7293
  924TIP3   OH224186   0.013   4.999  14.346 -0.0686 -0.8006  0.6577
  924TIP3    H124187  -0.043   5.063  14.300  0.0896  0.4047  2.0729
  924TIP3    H224188   0.094   5.048  14.364  2.4319 -3.0195 -3.0764
  925TIP3   OH224189   1.774   3.565   5.460  0.3236  0.4955 -0.0541
  925TIP3    H124190   1.801   3.572   5.369  2.0036 -0.0808  0.3568
  925TIP3    H224191   1.787   3.473   5.482  0.9438  0.8208  1.0358
  926TIP3   OH224192   2.256   6.173  10.932  0.1093 -0.2391  0.2212
  926TIP3    H124193   2.182   6.197  10.876 -1.1408 -2.3697  0.8360
  926TIP3    H224194   2.309   6.253  10.939 -0.9281  0.7184 -2.0649
  927TIP3   OH224195   6.298   0.176  17.039 -0.4618  0.1890  0.1363
  927TIP3    H124196   6.248   0.209  16.965  0.4777 -0.1192 -0.6682
  927TIP3    H224197   6.279   0.082  17.041 -2.0895  0.5023  1.5938
  928TIP3   OH224198   2.508   4.704  14.696  0.4924  0.4118 -0.0129
  928TIP3    H124199   2.437   4.758  14.731 -0.9991 -1.6542  0.3180
  928TIP3    H224200   2.588   4.750  14.723 -0.6725  1.9509  1.0233
  929TIP3   OH224201   5.997   5.834  13.298 -0.5057 -0.2885 -0.1426
  929TIP3    H124202   6.086   5.827  13.264  0.5957 -1.1432  2.6180
  929TIP3    H224203   6.004   5.805  13.389 -3.2792  1.3840  0.7227
  930TIP3   OH224204   4.506   3.923   0.493  0.3269  0.3915 -0.0152
  930TIP3    H124205   4.599   3.943   0.508  0.4371 -0.4574  0.5212
  930TIP3    H224206   4.483   3.973   0.415  0.9750  1.3708  0.3965
  931TIP3   OH224207   3.059   3.708  14.736 -0.0096 -0.3539  0.3075
  931TIP3    H124208   2.983   3.755  14.702 -0.3286 -1.1682 -0.1344
  931TIP3    H224209   3.063   3.733  14.829 -0.0054  0.7361  0.0265
  932TIP3   OH224210   2.673   2.577  14.564 -0.4206  0.1176  0.4733
  932TIP3    H124211   2.708   2.492  14.591  0.8842  0.4881  0.0068
  932TIP3    H224212   2.731   2.606  14.494 -0.5037  1.6465  0.9921
  933TIP3   OH224213   2.867   5.891   3.934  0.4743 -0.2617  0.3639
  933TIP3    H124214   2.787   5.920   3.976 -0.6321  1.4212 -2.6538
  933TIP3    H224215   2.838   5.828   3.868  1.7341 -0.2549 -0.2212
  934TIP3   OH224216   1.655   6.417  14.917 -0.0953  0.0115 -0.1246
  934TIP3    H124217   1.652   6.401  15.011 -0.5542  1.4569  0.1306
  934TIP3    H224218   1.745   6.443  14.899  0.1846 -0.9903 -0.2308
  935TIP3   OH224219   2.005   3.313  12.670  0.1511 -0.0421 -0.1225
  935TIP3    H124220   2.031   3.266  12.749 -0.3380  2.0502  1.3779
  935TIP3    H224221   1.914   3.286  12.654  0.1845 -0.3156  0.1518
  936TIP3   OH224222   4.084   2.329   0.341 -0.1462 -0.6245  0.6617
  936TIP3    H124223   4.036   2.409   0.318 -1.7094 -1.3257  1.3326
  936TIP3    H224224   4.176   2.356   0.343 -0.4314  0.6466 -1.1581
  937TIP3   OH224225   4.539   6.200   1.867 -0.7561 -0.5394 -0.8206
  937TIP3    H124226   4.509   6.114   1.841  0.9797 -0.6562 -2.6935
  937TIP3    H224227   4.560   6.245   1.785  1.0207  0.6348  0.1849
  938TIP3   OH224228   1.861   0.188  13.770 -0.6185 -0.8105  0.1146
  938TIP3    H124229   1.876   0.259  13.708 -0.4901  0.3506  1.4519
  938TIP3    H224230   1.830   0.231  13.850  0.2909 -2.1708  1.2415
  939TIP3   OH224231   2.246   1.519  13.418 -0.1497  0.3423 -0.0652
  939TIP3    H124232   2.157   1.553  13.413  0.1369  1.1812  0.3956
  939TIP3    H224233   2.235   1.425  13.433 -0.9677  0.6183  1.2080
  940TIP3   OH224234   0.746   1.145  14.223 -0.1106 -0.0216  0.3689
  940TIP3    H124235   0.842   1.151  14.224  0.2370 -3.0546  2.9476
  940TIP3    H224236   0.716   1.223  14.270  1.0468  0.9362 -0.4206
  941TIP3   OH224237   3.855   0.794   5.303  0.0183 -0.0732  0.3139
  941TIP3    H124238   3.818   0.720   5.254 -0.7988  0.2465  0.4434
  941TIP3    H224239   3.785   0.820   5.362 -1.0384  2.9862 -2.0221
  942TIP3   OH224240   1.158   5.819  13.262  0.3087  0.0631  0.3400
  942TIP3    H124241   1.201   5.895  13.223 -0.2879 -0.0007 -0.4703
  942TIP3    H224242   1.172   5.748  13.199  1.3484 -0.6638  1.3518
  943TIP3   OH224243   6.570   4.808  11.381 -0.4032 -0.6108 -0.0873
  943TIP3    H124244   6.494   4.772  11.427 -0.3469 -1.1287 -0.3942
  943TIP3    H224245   6.545   4.807  11.289 -1.2083  2.0584  0.0185
  944TIP3   OH224246   0.184   3.817  15.374 -0.3763 -0.7030  0.2716
  944TIP3    H124247   0.117   3.765  15.330 -0.7213 -0.0950  0.0724
  944TIP3    H224248   0.266   3.796  15.329 -0.4085 -1.5503  0.6016
  945TIP3   OH224249   6.154   3.699   1.952  0.2792  0.1092 -0.7229
  945TIP3    H124250   6.149   3.783   1.998  0.6801  0.4251 -1.2542
  945TIP3    H224251   6.232   3.657   1.988 -1.2564 -1.1598  1.3905
  946TIP3   OH224252   2.844   0.534  14.115 -0.1479 -0.3717  0.2478
  946TIP3    H124253   2.818   0.493  14.198 -0.5969 -0.4817  0.0536
  946TIP3    H224254   2.859   0.461  14.056  0.3408 -0.2992  0.2739
  947TIP3   OH224255   2.478   4.402  16.442  0.2572  0.2883  0.0807
  947TIP3    H124256   2.422   4.472  16.474  0.6525  0.5945  0.1030
  947TIP3    H224257   2.533   4.379  16.517 -0.2380 -0.4241  0.2445
  948TIP3   OH224258   4.218   2.052  10.378 -0.8868 -0.0268 -0.0445
  948TIP3    H124259   4.123   2.061  10.378 -0.9399 -0.4445  0.8178
  948TIP3    H224260   4.245   2.088  10.463 -0.3490 -0.5653  0.0213
  949TIP3   OH224261   5.762   4.819   2.806 -0.2505 -0.0328  0.1704
  949TIP3    H124262   5.750   4.857   2.719  0.1825 -0.7686 -0.2174
  949TIP3    H224263   5.833   4.870   2.846  1.0201 -1.0372 -0.7281
  950TIP3   OH224264   1.826   1.281   4.125  0.7479 -0.0023 -0.1800
  950TIP3    H124265   1.774   1.282   4.044 -0.2478  3.6825  0.3082
  950TIP3    H224266   1.773   1.230   4.187 -0.6795  0.8721 -0.6450
  951TIP3   OH224267   5.959   3.508  12.971  0.3935 -0.3212 -0.4277
  951TIP3    H124268   5.975   3.571  12.901 -1.3524 -1.5200 -1.9741
  951TIP3    H224269   5.866   3.517  12.992  0.2172 -2.0027 -0.3337
  952TIP3   OH224270   0.263   4.532   1.197  0.4790  0.4866 -0.2107
  952TIP3    H124271   0.323   4.463   1.225  0.6927 -0.0428 -1.8623
  952TIP3    H224272   0.251   4.587   1.275  2.4132  0.1143  0.4088
  953TIP3   OH224273   0.245   2.524  11.447 -0.2435 -0.0365  0.1636
  953TIP3    H124274   0.231   2.613  11.415  2.5117  0.6586  0.6342
  953TIP3    H224275   0.237   2.469  11.369  1.0856  1.0115 -0.7577
  954TIP3   OH224276   1.294   5.861   5.885 -0.6298 -0.3088 -0.8862
  954TIP3    H124277   1.260   5.772   5.877 -0.9204 -0.4113  0.9881
  954TIP3    H224278   1.267   5.889   5.972  0.1206  1.3434 -1.1445
  955TIP3   OH224279   1.667   3.443  10.691  0.0445 -0.1565 -0.3402
  955TIP3    H124280   1.658   3.538  10.697 -0.4226 -0.2330  0.3801
  955TIP3    H224281   1.606   3.409  10.757 -0.5615 -0.9891 -1.2873
  956TIP3   OH224282   5.050   0.424   5.089  0.4730 -0.6030 -0.2378
  956TIP3    H124283   5.020   0.338   5.061 -1.3379 -0.2412  0.4849
  956TIP3    H224284   5.073   0.413   5.181 -0.0588 -0.2688 -0.0564
  957TIP3   OH224285   4.050   3.038  12.863  0.5285  0.4901 -0.1551
  957TIP3    H124286   3.974   3.057  12.919 -0.1478 -1.0870 -0.4901
  957TIP3    H224287   4.033   2.951  12.828  0.9008  1.4389 -2.9203
  958TIP3   OH224288   6.490   0.678   3.264  0.1300 -0.0483  0.4395
  958TIP3    H124289   6.437   0.599   3.257 -0.4657  0.4048 -0.2206
  958TIP3    H224290   6.515   0.699   3.174  0.6590  0.2606  0.6525
  959TIP3   OH224291   1.985   2.240  16.034  0.1501 -0.5857 -0.2453
  959TIP3    H124292   1.896   2.221  16.003 -0.0233  1.4450 -1.1394
  959TIP3    H224293   1.989   2.199  16.120 -1.2646 -1.6817 -0.6648
  960TIP3   OH224294   4.600   3.611   0.142 -0.1238  0.4021  0.2994
  960TIP3    H124295   4.606   3.680   0.208 -0.0514  0.8709 -0.1894
  960TIP3    H224296   4.507   3.602   0.124 -0.2809 -0.8347  1.6060
  961TIP3   OH224297   2.487   2.398   5.181  0.3838 -0.1944  0.0413
  961TIP3    H124298   2.434   2.361   5.252 -0.5974 -0.0718 -0.6167
  961TIP3    H224299   2.573   2.410   5.221 -0.0229 -0.5512  1.0843
  962TIP3   OH224300   0.456   1.242   5.298 -0.0717 -0.5669  0.0256
  962TIP3    H124301   0.534   1.238   5.353 -0.1007  0.2008  0.1306
  962TIP3    H224302   0.490   1.233   5.208  0.0199 -1.3571  0.1363
  963TIP3   OH224303   2.958   0.304  15.429 -0.0437  0.3818  0.3738
  963TIP3    H124304   2.931   0.246  15.358 -1.8285  1.6786 -0.0942
  963TIP3    H224305   3.007   0.374  15.386 -0.7512  0.9391  0.4478
  964TIP3   OH224306   2.359   3.393  15.992  0.5542 -0.3841  0.2776
  964TIP3    H124307   2.324   3.304  15.996 -0.0276 -0.1326  1.0040
  964TIP3    H224308   2.434   3.391  16.051 -0.1057 -0.1244  1.1483
  965TIP3   OH224309   1.722   1.473  16.421 -0.5607  0.1948 -0.0488
  965TIP3    H124310   1.672   1.510  16.348 -1.9470  0.1609  0.8402
  965TIP3    H224311   1.658   1.465  16.492  0.1390 -2.1896  0.3789
  966TIP3   OH224312   0.407   1.079   1.692  0.1236  0.4213  0.0421
  966TIP3    H124313   0.449   1.091   1.777 -1.2083  1.1782  0.6246
  966TIP3    H224314   0.425   0.988   1.668  2.0987  0.7378  0.2301
  967TIP3   OH224315   5.543   6.014   4.022  0.4851  0.0484  0.4697
  967TIP3    H124316   5.480   6.068   4.069 -1.4772 -0.8250 -1.0037
  967TIP3    H224317   5.566   6.065   3.945 -0.8863 -0.8516 -0.5962
  968TIP3   OH224318   4.577   1.495  14.821  0.2469 -0.3589  0.2513
  968TIP3    H124319   4.608   1.580  14.790 -1.1319  0.3640  0.7632
  968TIP3    H224320   4.555   1.509  14.913 -1.8393 -0.7140 -0.1375
  969TIP3   OH224321   3.277   5.786   2.414 -0.0410  0.4821 -0.3307
  969TIP3    H124322   3.300   5.765   2.324 -0.3417 -0.2677 -0.2418
  969TIP3    H224323   3.230   5.708   2.445  0.2666  0.6353  0.5441
  970TIP3   OH224324   4.671   4.525   4.869 -0.0416  0.1509  0.6144
  970TIP3    H124325   4.616   4.556   4.942 -0.4759 -0.1172  0.4106
  970TIP3    H224326   4.658   4.430   4.869 -0.4868  0.2040 -0.1629
  971TIP3   OH224327   5.654   1.707   2.919 -0.3860  0.8193  0.2070
  971TIP3    H124328   5.733   1.702   2.864 -1.0887 -2.9848 -0.7394
  971TIP3    H224329   5.687   1.702   3.009  0.5970 -2.6818 -0.1874
  972TIP3   OH224330   2.214   6.590  13.220 -0.2109  0.2372  0.1894
  972TIP3    H124331   2.135   6.640  13.198 -0.6650  0.0144  1.2669
  972TIP3    H224332   2.265   6.590  13.139 -1.1229  0.7364 -0.4062
  973TIP3   OH224333   0.414   1.445  11.362  0.0622 -0.1953 -0.2972
  973TIP3    H124334   0.469   1.414  11.291 -0.1967  0.7346 -0.9297
  973TIP3    H224335   0.448   1.533  11.381  0.9603 -0.8941  1.6194
  974TIP3   OH224336   5.687   5.944   1.787  0.1997  0.3855  0.1786
  974TIP3    H124337   5.696   6.021   1.843  2.2465 -0.4298  1.0670
  974TIP3    H224338   5.698   5.978   1.698 -2.3957  1.5883  0.2032
  975TIP3   OH224339   6.615   2.796   4.329  0.2351  0.2861  0.4793
  975TIP3    H124340   6.681   2.729   4.345 -1.6494 -1.4250  1.5097
  975TIP3    H224341   6.612   2.846   4.410 -0.0298  0.0771  0.6001
  976TIP3   OH224342   4.537   1.260  11.963 -0.5579 -0.1198  1.1896
  976TIP3    H124343   4.611   1.320  11.956 -1.2508  0.5270 -1.8642
  976TIP3    H224344   4.569   1.177  11.928 -1.2875  0.2483 -0.4367
  977TIP3   OH224345   2.605   5.985   0.992 -0.6993 -0.6592 -0.0857
  977TIP3    H124346   2.620   6.065   0.941 -1.4578 -0.4015  0.0649
  977TIP3    H224347   2.648   5.916   0.943 -2.5377 -0.6593 -1.8286
  978TIP3   OH224348   4.148   1.574  11.196 -0.4709  0.1701 -0.4306
  978TIP3    H124349   4.115   1.571  11.286 -0.9209 -2.0821 -0.6189
  978TIP3    H224350   4.240   1.548  11.204 -0.1976  1.0635 -0.5284
  979TIP3   OH224351   0.341   5.784   3.746  0.6796  0.4675 -0.4972
  979TIP3    H124352   0.266   5.729   3.723  2.1522 -1.3508 -1.2670
  979TIP3    H224353   0.303   5.862   3.785 -1.5526 -1.3245  1.1845
  980TIP3   OH224354   2.651   2.844  14.377 -0.7787  0.3031 -0.1654
  980TIP3    H124355   2.680   2.874  14.291  0.0061  1.4986  0.4890
  980TIP3    H224356   2.707   2.770  14.396 -0.3541  0.5867 -0.3045
  981TIP3   OH224357   5.509   2.146   1.183 -0.1567  0.5782  0.0449
  981TIP3    H124358   5.587   2.150   1.128 -0.1040 -2.2721 -0.2522
  981TIP3    H224359   5.451   2.213   1.148  0.6455  0.1652 -2.2659
  982TIP3   OH224360   1.712   1.638   2.514 -0.3711  0.4563 -0.2446
  982TIP3    H124361   1.673   1.552   2.528  0.9478 -0.2984 -0.9870
  982TIP3    H224362   1.726   1.642   2.419  2.1344  0.2805  0.0333
  983TIP3   OH224363   3.679   0.372  13.643 -0.0907 -0.7925 -0.1185
  983TIP3    H124364   3.584   0.364  13.644 -0.2397 -0.3739  3.9035
  983TIP3    H224365   3.695   0.466  13.644  0.3601 -0.8650 -0.3209
  984TIP3   OH224366   4.326   1.518  13.565  0.3749  0.0241  0.0948
  984TIP3    H124367   4.304   1.511  13.472  1.2036 -1.0279 -0.0430
  984TIP3    H224368   4.250   1.480  13.610  0.1581  0.1376 -0.1756
  985TIP3   OH224369   3.070   4.279   4.719  0.1137  0.5940 -0.0470
  985TIP3    H124370   2.980   4.253   4.701  0.0543  0.1149  0.8609
  985TIP3    H224371   3.122   4.233   4.654 -0.3111  1.1087 -0.7705
  986TIP3   OH224372   2.706   4.429  10.680  0.0432  0.0411  0.7897
  986TIP3    H124373   2.629   4.405  10.628 -0.4283  2.9916 -0.0723
  986TIP3    H224374   2.684   4.515  10.717  3.5470  1.9494 -1.0346
  987TIP3   OH224375   6.212   1.397   5.244  0.0350  0.0007  0.2209
  987TIP3    H124376   6.138   1.434   5.197 -0.5115 -2.0049 -0.6105
  987TIP3    H224377   6.277   1.378   5.176  0.6382  0.2129  0.7263
  988TIP3   OH224378   4.694   5.250   0.010  0.1492  0.3584  0.6343
  988TIP3    H124379   4.655   5.163  -0.006  0.1049  0.2278  1.4131
  988TIP3    H224380   4.644   5.309  -0.046 -1.7059  0.3080  2.1241
  989TIP3   OH224381   0.910   1.583   0.138 -0.1188  0.4809 -0.2979
  989TIP3    H124382   1.002   1.560   0.153 -0.3095 -0.2737 -0.2743
  989TIP3    H224383   0.879   1.518   0.076 -1.1892 -0.5245  1.2248
  990TIP3   OH224384   2.001   4.158   6.557 -0.1256  0.8894  0.0066
  990TIP3    H124385   2.022   4.160   6.464 -0.4182  1.6966 -0.0494
  990TIP3    H224386   1.939   4.085   6.565 -0.2518  0.9366 -0.4676
  991TIP3   OH224387   6.561   3.131  13.821  0.2168  0.1087  0.1009
  991TIP3    H124388   6.616   3.056  13.799  0.8376  0.9356 -1.3218
  991TIP3    H224389   6.472   3.099  13.810  0.4799 -0.1236 -1.6971
  992TIP3   OH224390   4.985   2.568  14.181  0.1609 -0.4890 -0.1767
  992TIP3    H124391   4.996   2.476  14.157  0.9545  0.1865 -2.7431
  992TIP3    H224392   5.061   2.612  14.143  0.0987  1.1836  1.4785
  993TIP3   OH224393   3.844   3.982   0.596  0.3064  0.2264 -0.1347
  993TIP3    H124394   3.840   4.071   0.560 -0.5966 -0.6013 -2.2677
  993TIP3    H224395   3.914   3.940   0.547 -0.2989 -0.6647 -0.2525
  994TIP3   OH224396   5.285   6.089  11.960  0.3129 -0.0345 -0.4452
  994TIP3    H124397   5.199   6.124  11.983 -0.2441 -2.1398  0.9136
  994TIP3    H224398   5.279   6.071  11.866  0.0397  1.7521 -0.8206
  995TIP3   OH224399   2.563   5.179  12.557 -0.3205 -0.2457 -0.1404
  995TIP3    H124400   2.550   5.106  12.618 -2.1885  0.5397  0.4692
  995TIP3    H224401   2.556   5.140  12.471 -1.2868 -0.8361  0.1841
  996TIP3   OH224402   2.683   0.132  17.023 -0.1600 -0.0955 -0.2984
  996TIP3    H124403   2.765   0.175  16.997  0.3517 -0.8931 -0.0661
  996TIP3    H224404   2.711   0.047  17.057 -1.0988 -0.4054 -0.2697
  997TIP3   OH224405   0.496   2.625   1.945 -0.2327 -0.3881  0.3818
  997TIP3    H124406   0.530   2.552   1.997 -0.0298  0.5144  1.5548
  997TIP3    H224407   0.523   2.703   1.993 -2.5541  0.4168  0.4952
  998TIP3   OH224408   5.883   5.640  14.739  0.0183  0.7835 -0.1554
  998TIP3    H124409   5.960   5.632  14.684  0.8935  2.3624  0.7736
  998TIP3    H224410   5.859   5.549  14.760  2.9816  0.2365  1.3571
  999TIP3   OH224411   1.563   1.380   5.185 -0.4181 -0.3057  0.2812
  999TIP3    H124412   1.617   1.301   5.184 -0.0054 -0.0309 -0.9419
  999TIP3    H224413   1.610   1.440   5.243 -0.2124 -0.6153  0.4364
 1000TIP3   OH224414   3.283   1.599   4.162 -0.2058 -0.6171  0.3247
 1000TIP3    H124415   3.201   1.644   4.142  0.6517  0.1755 -1.7184
 1000TIP3    H224416   3.284   1.522   4.105 -0.9327 -2.4735  2.6643
 1001TIP3   OH224417   1.285   2.315   2.803  0.5100 -0.6922  0.2530
 1001TIP3    H124418   1.282   2.400   2.846  0.3329 -0.2364 -0.6444
 1001TIP3    H224419   1.366   2.275   2.834 -0.1201 -0.8259  1.8231
 1002TIP3   OH224420   6.614   2.463  11.312  0.5512  0.3173  0.4674
 1002TIP3    H124421   6.573   2.541  11.274 -3.5884 -2.0665 -0.6053
 1002TIP3    H224422   6.657   2.420  11.238  0.8668  0.4404  0.5779
 1003TIP3   OH224423   3.786   5.098   4.040  0.4536  0.0678 -0.2782
 1003TIP3    H124424   3.770   5.036   3.969 -0.9997  1.9315 -1.7184
 1003TIP3    H224425   3.830   5.172   3.997  0.7788  0.6704  1.0376
 1004TIP3   OH224426   6.625   2.151  14.189 -0.4495  0.1049  0.1420
 1004TIP3    H124427   6.670   2.207  14.253  1.7250 -2.1610  0.7384
 1004TIP3    H224428   6.665   2.175  14.105  1.9921 -1.7991  0.6500
 1005TIP3   OH224429   4.986   0.951  13.409  0.4429  0.1957  0.4822
 1005TIP3    H124430   5.076   0.963  13.437  0.4899  0.1438  0.3576
 1005TIP3    H224431   4.991   0.882  13.342  0.2821  0.0292  0.6400
 1006TIP3   OH224432   2.828   5.489  13.117  0.8959 -0.0151  0.3774
 1006TIP3    H124433   2.867   5.557  13.173  0.7286 -0.6914  1.3415
 1006TIP3    H224434   2.878   5.494  13.036 -0.2225  2.4236 -0.2744
 1007TIP3   OH224435   2.345   2.564   0.982 -0.4098 -0.2266  0.2191
 1007TIP3    H124436   2.419   2.518   1.022  0.4070  0.0101 -0.9513
 1007TIP3    H224437   2.350   2.540   0.889 -1.5074  0.2003  0.0393
 1008TIP3   OH224438   3.886   3.231   3.613  0.3170  0.5141 -0.0408
 1008TIP3    H124439   3.938   3.236   3.694  1.4327  1.0808 -0.7579
 1008TIP3    H224440   3.930   3.292   3.554  0.3016 -0.8417 -1.5032
 1009TIP3   OH224441   0.864   3.718  15.572  0.2668  0.4406  0.0865
 1009TIP3    H124442   0.918   3.744  15.646 -1.5901  1.0629  1.2791
 1009TIP3    H224443   0.783   3.769  15.582 -1.3256 -1.8349 -0.5419
 1010TIP3   OH224444   4.263   5.387  13.383 -0.2261  0.4528  0.4089
 1010TIP3    H124445   4.320   5.320  13.345  1.0592  0.7170  1.7622
 1010TIP3    H224446   4.211   5.418  13.310  1.4889  0.3055 -0.9507
 1011TIP3   OH224447   0.006   2.709  14.824 -0.2022  0.0130 -0.0318
 1011TIP3    H124448  -0.025   2.725  14.913  0.9318 -0.3739  0.4557
 1011TIP3    H224449   0.012   2.614  14.817 -2.2362 -0.0904 -1.2490
 1012TIP3   OH224450   4.367   1.530   2.584  0.5936  0.1203 -0.0973
 1012TIP3    H124451   4.444   1.570   2.623  0.2827 -0.5526  1.2419
 1012TIP3    H224452   4.296   1.548   2.646  0.4328 -2.4282  0.5674
 1013TIP3   OH224453   4.640   3.746   5.763  0.6561  0.8799  0.2375
 1013TIP3    H124454   4.636   3.682   5.834  0.7534 -0.1494 -0.6658
 1013TIP3    H224455   4.630   3.694   5.683 -0.3596  2.1214 -0.4754
 1014TIP3   OH224456   2.746   5.312  11.315 -0.0603  0.3014 -0.0319
 1014TIP3    H124457   2.832   5.308  11.274 -0.2797 -1.9138 -0.4114
 1014TIP3    H224458   2.698   5.376  11.264  1.0367  0.8148 -0.4509
 1015TIP3   OH224459   6.457   0.568   5.721 -0.2478 -0.2154  0.6883
 1015TIP3    H124460   6.427   0.560   5.812  0.7308  0.3803  1.0663
 1015TIP3    H224461   6.549   0.591   5.728  1.1794 -4.6594 -0.4262
 1016TIP3   OH224462   4.532   0.362   1.257  0.0619  0.3247 -0.1610
 1016TIP3    H124463   4.500   0.444   1.220 -1.3183 -0.4390 -0.7102
 1016TIP3    H224464   4.470   0.341   1.327  1.0580  0.3040  0.7600
 1017TIP3   OH224465   0.134   2.155  10.656  0.1524  0.4198 -0.7489
 1017TIP3    H124466   0.064   2.218  10.637  0.0254 -0.1854 -2.4821
 1017TIP3    H224467   0.208   2.209  10.684 -0.0508  1.3488 -1.8832
 1018TIP3   OH224468   3.372   1.248  12.753  0.9167 -0.1913  0.0306
 1018TIP3    H124469   3.306   1.186  12.724  1.0257  0.6253 -2.1432
 1018TIP3    H224470   3.453   1.218  12.712  1.0948  0.9778 -0.5126
 1019TIP3   OH224471   4.960   0.513   4.017 -0.1242 -0.2268  0.2580
 1019TIP3    H124472   4.914   0.594   3.997  0.3587  0.1558  0.6590
 1019TIP3    H224473   4.943   0.498   4.110  1.3812  0.4793  0.6778
 1020TIP3   OH224474   4.687   4.610   0.116  0.0993  0.5379 -0.0193
 1020TIP3    H124475   4.621   4.608   0.047  0.5115  2.0241 -0.4975
 1020TIP3    H224476   4.636   4.620   0.197 -0.2992  2.1313 -0.4227
 1021TIP3   OH224477   4.426   6.372   2.229 -0.1580  0.0346 -0.1369
 1021TIP3    H124478   4.521   6.361   2.224 -0.0903 -1.2567  2.2851
 1021TIP3    H224479   4.391   6.285   2.210 -0.8374  0.3770 -0.4773
 1022TIP3   OH224480   1.037   2.738   2.494  0.0971  0.2001 -0.3887
 1022TIP3    H124481   1.089   2.809   2.457  2.1816 -0.1638  1.5900
 1022TIP3    H224482   1.071   2.659   2.452  0.0774  0.0938 -0.2062
 1023TIP3   OH224483   3.914   3.659  15.800  0.0966 -0.0915  0.5138
 1023TIP3    H124484   3.908   3.610  15.718 -0.2753 -0.8884  1.0069
 1023TIP3    H224485   3.837   3.631  15.851 -0.9141  2.0162  0.2843
 1024TIP3   OH224486   3.864   2.376  11.842 -0.2610 -0.0325 -0.3021
 1024TIP3    H124487   3.913   2.457  11.831 -1.9942  1.0697 -0.3563
 1024TIP3    H224488   3.929   2.312  11.872  0.8266  1.8405  1.6124
 1025TIP3   OH224489   6.729   3.695   2.662 -0.2450 -0.4973 -0.4855
 1025TIP3    H124490   6.797   3.735   2.609 -0.0478 -1.9413 -1.3719
 1025TIP3    H224491   6.773   3.623   2.709 -0.8024 -0.3794  0.2442
 1026TIP3   OH224492   2.715   2.737  15.678  0.0833 -0.2470  0.2968
 1026TIP3    H124493   2.742   2.736  15.586 -0.5587 -1.6846  0.1014
 1026TIP3    H224494   2.742   2.824  15.709  0.1177  0.3622 -1.2944
 1027TIP3   OH224495   3.542   5.944  15.612  0.6591 -0.1551  0.3298
 1027TIP3    H124496   3.579   5.857  15.627 -3.6639 -2.8777 -2.4007
 1027TIP3    H224497   3.487   5.960  15.688 -1.4005 -1.7330 -0.7346
 1028TIP3   OH224498   3.873   6.109  17.295 -0.5016  0.3806 -0.3152
 1028TIP3    H124499   3.892   6.186  17.349 -0.1390 -0.7174  1.1778
 1028TIP3    H224500   3.801   6.065  17.340 -0.9056 -0.0120 -1.3146
 1029TIP3   OH224501   1.129   5.398  14.181 -0.7685 -0.2405  0.1331
 1029TIP3    H124502   1.069   5.323  14.180 -0.8207 -0.1980 -1.0275
 1029TIP3    H224503   1.210   5.363  14.220 -1.0365 -0.7026  0.2903
 1030TIP3   OH224504   1.400   4.621  16.926  0.1117  0.1711  0.2681
 1030TIP3    H124505   1.460   4.605  16.853 -1.5200 -1.3778 -0.8116
 1030TIP3    H224506   1.388   4.536  16.967  0.0490  0.8059  1.5982
 1031TIP3   OH224507   0.606   5.212   0.422 -0.2900  0.9167  0.4628
 1031TIP3    H124508   0.640   5.132   0.382 -0.8188  0.8298  0.1854
 1031TIP3    H224509   0.679   5.245   0.475 -0.4671 -0.4404  1.6072
 1032TIP3   OH224510   5.094   2.900  14.685 -0.2843  0.0547  0.3888
 1032TIP3    H124511   5.039   2.860  14.752 -2.3719  2.8806  0.5721
 1032TIP3    H224512   5.083   2.844  14.608 -3.2908  0.3025  0.5142
 1033TIP3   OH224513   4.277   2.334   2.988 -0.0060  0.2707  0.3643
 1033TIP3    H124514   4.316   2.413   2.950 -0.4434  1.4861  2.2897
 1033TIP3    H224515   4.183   2.351   2.985 -0.1650 -0.6390 -0.1038
 1034TIP3   OH224516   1.239   0.843  14.753  0.2469  0.6968 -0.5489
 1034TIP3    H124517   1.159   0.888  14.725  0.2266  1.0484  0.0545
 1034TIP3    H224518   1.248   0.769  14.693 -0.2164  0.9906 -0.9825
 1035TIP3   OH224519   0.498   6.584  15.246  0.1194  0.4965 -0.5234
 1035TIP3    H124520   0.500   6.647  15.318  0.2324  1.9640 -1.7475
 1035TIP3    H224521   0.585   6.544  15.246 -0.6982 -1.5312  1.7667
 1036TIP3   OH224522   2.138   6.514   5.004  0.1149  0.0819  0.2504
 1036TIP3    H124523   2.218   6.508   5.055  0.9428  1.6128 -0.8093
 1036TIP3    H224524   2.090   6.587   5.042 -0.4343 -0.3475  0.3969
 1037TIP3   OH224525   6.425   1.339   2.074 -0.6994  0.2786 -0.4537
 1037TIP3    H124526   6.509   1.367   2.035  0.0106 -1.0275  0.0828
 1037TIP3    H224527   6.370   1.317   1.999  0.2028 -0.9297 -0.8009
 1038TIP3   OH224528   2.819   2.080  12.046 -0.7251 -0.0536  0.5704
 1038TIP3    H124529   2.814   2.043  11.958 -0.1710 -2.8171  1.6004
 1038TIP3    H224530   2.912   2.094  12.061 -0.7994  0.1934  0.8058
 1039TIP3   OH224531   0.710   4.668   5.694 -0.1181  0.3932 -0.6545
 1039TIP3    H124532   0.629   4.664   5.644  0.6854  1.8892 -2.2067
 1039TIP3    H224533   0.683   4.694   5.782 -1.4129 -0.3705 -0.8085
 1040TIP3   OH224534   4.853   5.312  15.923 -0.1611 -0.2780 -0.1477
 1040TIP3    H124535   4.836   5.332  15.830 -1.9729 -1.1847 -0.0485
 1040TIP3    H224536   4.822   5.222  15.934 -0.8155  0.1251  1.5435
 1041TIP3   OH224537   1.611   3.095  11.911  0.5491  0.5258 -0.0208
 1041TIP3    H124538   1.517   3.082  11.924  0.3023  0.8296 -1.3513
 1041TIP3    H224539   1.632   3.173  11.962  0.6023 -0.8918  2.2674
 1042TIP3   OH224540   2.024   0.891  15.460 -0.1390 -0.7203 -0.0415
 1042TIP3    H124541   2.006   0.976  15.420 -1.2337 -1.7436 -1.8961
 1042TIP3    H224542   2.116   0.897  15.488  0.9224 -0.0093 -3.2181
 1043TIP3   OH224543   3.116   3.473   5.082  0.2151  0.6268  0.0811
 1043TIP3    H124544   3.089   3.393   5.126 -1.8059  0.5625 -1.1705
 1043TIP3    H224545   3.169   3.442   5.008 -0.3013  0.4700 -0.2219
 1044TIP3   OH224546   5.300   2.609  15.083  0.3159 -0.0812  0.4834
 1044TIP3    H124547   5.390   2.577  15.078  0.7665  1.2601 -1.7739
 1044TIP3    H224548   5.248   2.541  15.040  0.5649  0.0274 -0.0008
 1045TIP3   OH224549   0.417   2.546   2.284  0.1983 -0.4442  0.0642
 1045TIP3    H124550   0.410   2.491   2.362 -0.1186 -0.3510  0.1005
 1045TIP3    H224551   0.471   2.620   2.313  0.3838 -0.5871  0.0935
 1046TIP3   OH224552   4.047   2.580  15.059  0.1349 -0.2952  0.1000
 1046TIP3    H124553   3.979   2.523  15.096 -0.3711  0.8104  0.9440
 1046TIP3    H224554   4.120   2.575  15.121  1.0562 -1.8448 -1.0401
 1047TIP3   OH224555   6.590   3.034   1.513  0.2256 -0.5778  0.4045
 1047TIP3    H124556   6.609   3.014   1.604 -0.3815 -0.6508  0.5165
 1047TIP3    H224557   6.495   3.026   1.505 -0.0306  1.7381  0.3554
 1048TIP3   OH224558   1.511   1.235   5.955 -0.5594 -0.4014 -0.6296
 1048TIP3    H124559   1.499   1.330   5.946  0.7436 -0.2433 -0.9358
 1048TIP3    H224560   1.606   1.223   5.958 -0.7156 -1.6529 -0.0137
 1049TIP3   OH224561   2.088   4.385  11.574 -0.2614  0.1239  0.1198
 1049TIP3    H124562   2.008   4.413  11.530 -0.7618  1.6203  1.9158
 1049TIP3    H224563   2.107   4.453  11.637  2.3082 -0.3324 -0.0512
 1050TIP3   OH224564   2.044   3.260   4.090  0.1877  0.0645  0.5642
 1050TIP3    H124565   1.976   3.299   4.145  0.6101  1.5899  0.0468
 1050TIP3    H224566   2.113   3.234   4.152  0.1026  0.5878  0.8855
 1051TIP3   OH224567   1.578   1.062   1.763 -1.0332  0.5515  0.9162
 1051TIP3    H124568   1.576   0.977   1.720 -2.0749  0.3306  1.3796
 1051TIP3    H224569   1.631   1.117   1.705  0.7911 -0.7480  1.2849
 1052TIP3   OH224570   6.547   6.670   6.034 -0.3688 -0.2245  0.6250
 1052TIP3    H124571   6.586   6.728   5.969  0.6776 -2.0457 -0.4360
 1052TIP3    H224572   6.473   6.629   5.990 -0.1407 -0.8775  0.8368
 1053TIP3   OH224573   2.503   4.376   5.946  0.0096  0.3885  0.2101
 1053TIP3    H124574   2.424   4.403   5.993 -0.2296 -0.1578  0.1354
 1053TIP3    H224575   2.569   4.366   6.015 -0.7033 -1.7633  0.6688
 1054TIP3   OH224576   1.182   5.477  11.737  0.4656  0.2926 -0.1450
 1054TIP3    H124577   1.241   5.453  11.665  1.2104  2.6263 -0.3918
 1054TIP3    H224578   1.167   5.571  11.725  0.9687  0.8674  3.0010
 1055TIP3   OH224579   2.842   5.866  16.303  0.6286  0.1914 -0.5096
 1055TIP3    H124580   2.757   5.833  16.331  0.3621  0.4305 -1.0156
 1055TIP3    H224581   2.895   5.870  16.383 -0.2308  1.2555  0.0260
 1056TIP3   OH224582   2.754   6.348   1.538  0.4164 -0.2342 -0.1863
 1056TIP3    H124583   2.744   6.254   1.526  0.7180 -0.2639 -0.2248
 1056TIP3    H224584   2.700   6.387   1.469 -1.4201 -0.3394  1.1313
 1057TIP3   OH224585   6.249   2.153   2.405 -0.1249 -0.3429 -0.3482
 1057TIP3    H124586   6.217   2.199   2.482  0.6463 -1.1531  0.4745
 1057TIP3    H224587   6.345   2.163   2.408 -0.0174 -1.1499 -0.6907
 1058TIP3   OH224588   2.736   0.785  13.502  0.2484 -0.3404 -0.0264
 1058TIP3    H124589   2.816   0.733  13.502  1.6365  1.6105 -1.9486
 1058TIP3    H224590   2.738   0.832  13.418 -0.5781  3.2255  1.7647
 1059TIP3   OH224591   4.178   1.974   4.552  0.3296  0.0947  0.4854
 1059TIP3    H124592   4.183   2.020   4.468 -1.7325  0.5378  0.5360
 1059TIP3    H224593   4.224   2.030   4.614  2.7871 -0.7382 -0.5006
 1060TIP3   OH224594   4.719   0.450   4.468 -0.3985  0.6621 -0.0613
 1060TIP3    H124595   4.722   0.546   4.466  0.3204  0.6817  1.0904
 1060TIP3    H224596   4.683   0.429   4.554 -1.1989 -0.1065 -0.5734
 1061TIP3   OH224597   3.646   5.351  16.833 -0.0327 -0.1905 -0.7330
 1061TIP3    H124598   3.573   5.388  16.783  1.9402  4.4884 -0.6352
 1061TIP3    H224599   3.644   5.396  16.917  2.6663 -0.1945 -0.5611
 1062TIP3   OH224600   1.611   2.117  15.019  0.0012  0.0384 -0.9482
 1062TIP3    H124601   1.610   2.177  14.944 -1.8035  0.5398 -0.5732
 1062TIP3    H224602   1.666   2.162  15.084  0.8182  0.0304 -1.6075
 1063TIP3   OH224603   4.499   4.708  16.101  0.0978 -0.2713 -0.3052
 1063TIP3    H124604   4.584   4.712  16.145  0.3019  0.0782 -0.7294
 1063TIP3    H224605   4.503   4.627  16.049  0.4666  0.1325 -0.9196
 1064TIP3   OH224606   0.396   6.536  12.499 -0.1278 -0.2462 -0.3199
 1064TIP3    H124607   0.400   6.472  12.570  0.9194 -0.4948 -0.5882
 1064TIP3    H224608   0.387   6.484  12.419 -1.0526  0.0222 -0.3989
 1065TIP3   OH224609   2.620   1.227   0.001 -0.4375 -0.3252  0.2350
 1065TIP3    H124610   2.684   1.253   0.068  0.1013 -0.7028 -0.1286
 1065TIP3    H224611   2.660   1.255  -0.081 -0.2472 -1.5038 -0.0909
 1066TIP3   OH224612   1.704   2.875   4.491 -0.4301 -0.7193  0.0809
 1066TIP3    H124613   1.721   2.781   4.491  1.6607 -0.4195  1.9886
 1066TIP3    H224614   1.739   2.906   4.574 -0.7862  1.8153 -0.6202
 1067TIP3   OH224615   2.328   0.327  14.213 -0.0319  0.3852 -0.6317
 1067TIP3    H124616   2.255   0.274  14.183  0.2892  0.5519 -1.7382
 1067TIP3    H224617   2.315   0.413  14.172 -1.0788  1.5243  1.8844
 1068TIP3   OH224618   1.738   2.922  14.797 -0.5544  0.2117  0.2253
 1068TIP3    H124619   1.720   2.845  14.851  2.2733  0.2661  1.4061
 1068TIP3    H224620   1.803   2.971  14.846  1.3466  0.8728 -2.6878
 1069TIP3   OH224621   3.562   0.589  14.691 -0.4511 -0.3760  0.5443
 1069TIP3    H124622   3.615   0.510  14.706 -1.5704 -1.3886 -0.5271
 1069TIP3    H224623   3.589   0.620  14.605  0.3442  0.7505  1.1711
 1070TIP3   OH224624   5.140   0.869   0.872  0.0735  0.2074  0.1069
 1070TIP3    H124625   5.216   0.854   0.816 -0.2816 -0.6707 -0.1620
 1070TIP3    H224626   5.065   0.861   0.813 -0.2259  1.8205  0.2096
 1071TIP3   OH224627   2.752   4.545   0.867  0.0608  0.0202 -0.4416
 1071TIP3    H124628   2.672   4.564   0.917 -0.3450 -0.2447 -0.9858
 1071TIP3    H224629   2.795   4.630   0.859  0.3040  0.0211  0.6416
 1072TIP3   OH224630   5.787   6.323   3.164 -0.6225 -0.0167  0.2293
 1072TIP3    H124631   5.778   6.321   3.069  2.8166  1.5334 -0.3027
 1072TIP3    H224632   5.824   6.237   3.187 -1.1531 -0.2731  0.1266
 1073TIP3   OH224633   1.494   5.190  13.052 -0.2724 -0.1076  0.1556
 1073TIP3    H124634   1.485   5.102  13.016 -1.0174  0.5840 -1.4617
 1073TIP3    H224635   1.446   5.246  12.990 -0.8862  1.2747  1.7963
 1074TIP3   OH224636   3.017   3.233   4.784 -0.2425  0.3846  0.1757
 1074TIP3    H124637   3.037   3.169   4.715  0.1305  0.3115  0.3494
 1074TIP3    H224638   2.938   3.276   4.754  0.0340  0.5003 -0.4015
 1075TIP3   OH224639   0.904   0.118   4.130 -0.1327 -0.5910  0.1019
 1075TIP3    H124640   0.811   0.102   4.144 -0.1559 -1.1416 -0.6030
 1075TIP3    H224641   0.909   0.150   4.040  0.3252 -0.2589  0.2421
 1076TIP3   OH224642   2.581   5.289  14.183  0.4700 -0.1475  0.2987
 1076TIP3    H124643   2.607   5.201  14.154 -1.2087 -0.1659 -1.3836
 1076TIP3    H224644   2.521   5.273  14.256 -2.0207 -0.6565 -1.7167
 1077TIP3   OH224645   1.457   1.677  14.283  0.0889 -0.1052  0.2909
 1077TIP3    H124646   1.476   1.587  14.256 -1.0460 -0.1440 -0.4367
 1077TIP3    H224647   1.517   1.731  14.231  1.6681 -0.4836  1.6424
 1078TIP3   OH224648   2.325   6.359  12.332  0.3517  0.0021 -0.2370
 1078TIP3    H124649   2.369   6.444  12.328  0.7387 -0.2293 -1.0254
 1078TIP3    H224650   2.395   6.297  12.353 -0.2354  0.0879  2.3959
 1079TIP3   OH224651   2.823   4.099   1.279  0.5467  0.1420 -0.0654
 1079TIP3    H124652   2.759   4.154   1.325  2.0517  1.4066  0.6122
 1079TIP3    H224653   2.785   4.088   1.191 -1.3811 -0.5720  0.7937
 1080TIP3   OH224654   3.256   6.346   3.424 -0.1349  0.3497 -0.2960
 1080TIP3    H124655   3.309   6.285   3.372 -1.9641 -0.5143 -1.2207
 1080TIP3    H224656   3.207   6.397   3.359  1.3337  2.9056  0.4306
 1081TIP3   OH224657   0.554   5.160  10.664  0.4809 -0.0483 -0.3354
 1081TIP3    H124658   0.622   5.127  10.605 -0.1359  0.6255 -1.4550
 1081TIP3    H224659   0.539   5.250  10.635  1.0588  0.7455  1.6869
 1082TIP3   OH224660   0.271   1.789   4.964 -0.0027 -0.1061 -0.4361
 1082TIP3    H124661   0.256   1.824   4.876  3.4643 -2.3465 -2.1419
 1082TIP3    H224662   0.236   1.700   4.961  3.0292 -1.3985 -0.8259
 1083TIP3   OH224663   3.801   2.537   0.059 -0.0161  0.0840 -0.0181
 1083TIP3    H124664   3.817   2.556   0.151  0.5291 -0.9901  0.1270
 1083TIP3    H224665   3.878   2.488   0.031 -0.9451 -1.0934 -0.5811
 1084TIP3   OH224666   2.014   4.436  15.488 -0.4908  0.2788  0.4240
 1084TIP3    H124667   1.924   4.462  15.467 -1.1275 -2.6519 -0.9344
 1084TIP3    H224668   2.066   4.474  15.417 -1.0048  0.0227 -0.0990
 1085TIP3   OH224669   3.079   0.728  11.603 -0.2217 -0.0988  0.0348
 1085TIP3    H124670   3.124   0.810  11.625 -1.1599  0.8128 -1.3285
 1085TIP3    H224671   3.000   0.756  11.558 -1.4194 -1.7253  1.0558
 1086TIP3   OH224672   6.690   2.937  15.530  0.8717  0.3622 -0.1013
 1086TIP3    H124673   6.756   2.912  15.595  0.4585 -0.7071 -0.0788
 1086TIP3    H224674   6.721   2.897  15.449  0.8159  0.7828 -0.3340
 1087TIP3   OH224675   4.998   1.914  14.223 -0.0473 -0.1386  0.0742
 1087TIP3    H124676   5.067   1.870  14.272 -0.5332 -0.8750  0.1093
 1087TIP3    H224677   4.916   1.884  14.263 -0.3939  0.8078  0.1044
 1088TIP3   OH224678   5.707   4.684  16.309  0.2829 -0.2643  0.0254
 1088TIP3    H124679   5.717   4.642  16.223  1.0001 -0.5967  0.2650
 1088TIP3    H224680   5.694   4.611  16.370 -0.9352  0.0072  0.1169
 1089TIP3   OH224681   2.817   5.955   0.600 -0.4394 -0.0338 -0.6149
 1089TIP3    H124682   2.733   5.910   0.590 -1.6265  1.2960  2.3144
 1089TIP3    H224683   2.835   5.952   0.694  1.8812  1.3477 -0.9395
 1090TIP3   OH224684   0.096   5.887   0.288  0.5841 -0.2209 -0.3677
 1090TIP3    H124685   0.187   5.910   0.270  0.0160  1.0497 -1.8350
 1090TIP3    H224686   0.098   5.851   0.377  2.6443 -1.2042 -0.7464
 1091TIP3   OH224687   3.067   2.650   0.500 -0.1332  0.6472 -0.4035
 1091TIP3    H124688   3.100   2.566   0.530 -1.7111  0.9052  2.4146
 1091TIP3    H224689   3.143   2.696   0.465  1.5049 -0.5723  1.4039
 1092TIP3   OH224690   0.353   6.318   4.412 -0.9516 -0.2243  0.3884
 1092TIP3    H124691   0.336   6.389   4.350 -0.5603 -0.5145 -0.0540
 1092TIP3    H224692   0.315   6.241   4.370 -0.7687 -0.4060  0.5585
 1093TIP3   OH224693   2.794   4.941   2.385 -0.3298 -0.0015 -0.2372
 1093TIP3    H124694   2.885   4.924   2.360  0.3430  0.7101  1.5681
 1093TIP3    H224695   2.747   4.949   2.302  1.3141 -0.0379 -1.2078
 1094TIP3   OH224696   2.863   1.076  10.965  0.2990 -0.2581  0.3869
 1094TIP3    H124697   2.822   1.049  10.883  0.5195  0.8228 -0.0997
 1094TIP3    H224698   2.949   1.035  10.965  0.8785  0.8893 -0.6393
 1095TIP3   OH224699   2.520   4.818   0.025  0.4853 -0.0873 -0.0361
 1095TIP3    H124700   2.542   4.899  -0.023  1.0501  1.6985  2.9868
 1095TIP3    H224701   2.425   4.818   0.029  0.4494  0.0032 -0.7073
 1096TIP3   OH224702   5.294   4.803  14.330 -0.1964  0.1748  0.8100
 1096TIP3    H124703   5.310   4.866  14.259  1.7011  0.7652  1.6939
 1096TIP3    H224704   5.213   4.833  14.370  0.6958  2.1758  1.2674
 1097TIP3   OH224705   0.636   2.152   4.571 -0.1082 -0.1234  0.0658
 1097TIP3    H124706   0.670   2.216   4.508  2.0349  0.0117  1.2435
 1097TIP3    H224707   0.706   2.086   4.578 -1.0395 -1.0490  1.0227
 1098TIP3   OH224708   4.809   6.586  13.769 -0.3321  0.2229  0.2295
 1098TIP3    H124709   4.837   6.618  13.684 -0.9925  0.5089  0.1127
 1098TIP3    H224710   4.890   6.576  13.819  0.0960 -0.2466 -0.5267
 1099TIP3   OH224711   1.380   2.007  15.174 -0.1893  0.3146  0.2656
 1099TIP3    H124712   1.436   2.049  15.110 -1.0082  2.5073  0.8825
 1099TIP3    H224713   1.436   1.941  15.215  0.6058 -0.5341 -2.0175
 1100TIP3   OH224714   5.367   6.617   1.205  0.7076  0.5429 -0.3566
 1100TIP3    H124715   5.394   6.580   1.120  0.2104  1.5118 -0.9506
 1100TIP3    H224716   5.411   6.702   1.209  0.8890  0.4140  0.4573
 1101TIP3   OH224717   6.360   2.939  15.785 -0.1510 -0.5732 -0.2301
 1101TIP3    H124718   6.268   2.962  15.781  0.0021 -0.0613 -1.5558
 1101TIP3    H224719   6.396   2.972  15.702  0.9742 -1.7990 -0.2558
 1102TIP3   OH224720   3.297   6.392   1.074 -0.0364 -0.2390 -0.4942
 1102TIP3    H124721   3.352   6.454   1.122 -2.3955  1.5705  0.0823
 1102TIP3    H224722   3.236   6.358   1.139 -1.7200  0.3923 -1.6448
 1103TIP3   OH224723   1.765   2.764  13.686  0.4262  0.2349 -0.5533
 1103TIP3    H124724   1.686   2.794  13.731 -0.1482 -2.3952  0.3672
 1103TIP3    H224725   1.837   2.796  13.739  0.0111  2.0278 -0.9921
 1104TIP3   OH224726   0.432   4.920  15.533  0.4160  0.0741  0.1952
 1104TIP3    H124727   0.502   4.920  15.468  0.2902 -0.5302  0.0592
 1104TIP3    H224728   0.354   4.950  15.485 -0.2035 -2.4504 -0.5289
 1105TIP3   OH224729   0.150   5.476  10.743 -0.3855 -0.7556 -0.9316
 1105TIP3    H124730   0.086   5.497  10.674  0.4976 -0.9797 -1.8437
 1105TIP3    H224731   0.176   5.386  10.725  2.6924  0.3278 -2.7113
 1106TIP3   OH224732   5.280   2.524   2.014 -0.5310 -0.4153 -0.5798
 1106TIP3    H124733   5.309   2.599   2.067  0.6484 -1.4052  0.2187
 1106TIP3    H224734   5.279   2.558   1.924  0.8746  0.3231 -0.3518
 1107TIP3   OH224735   3.913   4.728   2.451  1.0718  0.3710  0.0163
 1107TIP3    H124736   3.828   4.747   2.413  0.4252  1.7736  1.9797
 1107TIP3    H224737   3.895   4.677   2.529  2.2682 -1.4851 -0.8519
 1108TIP3   OH224738   4.004   0.264  11.345  0.0829  0.0280  0.6143
 1108TIP3    H124739   4.007   0.175  11.380 -3.3370 -0.5502 -0.2286
 1108TIP3    H224740   3.995   0.252  11.250 -0.1511  1.2645  0.4655
 1109TIP3   OH224741   2.608   4.820  11.774  0.1102  0.3794 -0.2464
 1109TIP3    H124742   2.692   4.837  11.733  0.9478 -2.2274  0.2681
 1109TIP3    H224743   2.575   4.741  11.732 -1.9491  1.1349 -0.1869
 1110TIP3   OH224744   3.709   5.978  12.710  0.0966  0.7675  0.4329
 1110TIP3    H124745   3.648   5.967  12.783  0.0396  0.7571  0.3828
 1110TIP3    H224746   3.726   6.072  12.707  0.1349  0.7630  0.4892
 1111TIP3   OH224747   1.939   2.203   0.555 -0.3809 -0.3071  0.1505
 1111TIP3    H124748   1.862   2.213   0.499 -1.1173  0.7869  1.2893
 1111TIP3    H224749   1.903   2.184   0.642  0.6243  0.2021  0.6983
 1112TIP3   OH224750   6.052   2.144   3.984 -0.5368  0.0026  0.6890
 1112TIP3    H124751   5.976   2.175   3.935 -0.7397  0.5973  1.3650
 1112TIP3    H224752   6.016   2.088   4.053 -0.4436  0.9050  1.4932
 1113TIP3   OH224753   0.122   6.680  13.072  0.4922 -0.0612  0.2698
 1113TIP3    H124754   0.128   6.755  13.131  0.7283 -1.8822  2.7011
 1113TIP3    H224755   0.197   6.690  13.013  0.7948  1.3599  0.8617
 1114TIP3   OH224756   6.351   3.717  11.807 -0.3339  0.3724 -0.2172
 1114TIP3    H124757   6.415   3.679  11.747 -0.4551  0.1206 -0.1848
 1114TIP3    H224758   6.387   3.700  11.894 -1.7920 -2.2684 -0.0421
 1115TIP3   OH224759   6.009   6.142   4.347  0.4006  0.3347 -0.0846
 1115TIP3    H124760   6.051   6.221   4.380 -0.2664  0.5031  0.3893
 1115TIP3    H224761   5.915   6.163   4.346  0.1877 -0.5488  0.3314
 1116TIP3   OH224762   6.418   0.879   2.206 -0.4340  0.5933 -0.1104
 1116TIP3    H124763   6.419   0.785   2.186 -2.2339  0.3482  0.7621
 1116TIP3    H224764   6.402   0.921   2.121 -3.7708 -0.1811 -0.0032
 1117TIP3   OH224765   2.169   1.379  14.662  0.2454  0.0722  0.2394
 1117TIP3    H124766   2.218   1.315  14.713  1.0313 -0.6471 -1.3706
 1117TIP3    H224767   2.097   1.329  14.624 -0.1738  0.5434  0.4023
 1118TIP3   OH224768   0.530   5.715  11.234 -0.0628  0.2276 -0.5847
 1118TIP3    H124769   0.499   5.625  11.244 -1.4380  0.8849  2.2104
 1118TIP3    H224770   0.530   5.730  11.140  1.8055 -3.1690 -1.2717
 1119TIP3   OH224771   3.135   4.182  15.521  0.0266 -0.0093 -0.2984
 1119TIP3    H124772   3.138   4.088  15.503 -0.6830 -0.4622  1.7451
 1119TIP3    H224773   3.227   4.209  15.524  0.2328 -0.2608 -2.4231
 1120TIP3   OH224774   4.401   0.502  11.087 -0.3046  0.1106 -0.3367
 1120TIP3    H124775   4.492   0.508  11.058 -0.3538 -1.7111 -1.0435
 1120TIP3    H224776   4.367   0.591  11.081  1.2896  0.7297 -0.5222
 1121TIP3   OH224777   1.684   0.375   2.361 -0.5680  0.2270 -0.4136
 1121TIP3    H124778   1.684   0.281   2.378  0.0399  0.0236 -1.4067
 1121TIP3    H224779   1.655   0.382   2.270 -1.3127  1.0587 -0.1176
 1122TIP3   OH224780   3.414   3.187   2.090  0.2220 -0.1807 -0.1057
 1122TIP3    H124781   3.370   3.127   2.030  2.6571 -2.2819  0.0567
 1122TIP3    H224782   3.448   3.131   2.159 -1.2302  2.0039  2.5609
 1123TIP3   OH224783   2.805   0.124  14.888  0.1777  0.1041  0.5155
 1123TIP3    H124784   2.787   0.161  14.801 -1.1701 -0.1662  0.6616
 1123TIP3    H224785   2.852   0.042  14.870  0.1024  0.1591  0.0511
 1124TIP3   OH224786   5.923   5.807   4.927 -0.2404  0.0089  0.0444
 1124TIP3    H124787   5.919   5.887   4.980 -0.3656  0.6453 -0.8934
 1124TIP3    H224788   5.924   5.736   4.991 -1.3943  0.7068  0.8959
 1125TIP3   OH224789   3.771   5.442  12.035  0.2464 -0.5778 -0.0543
 1125TIP3    H124790   3.688   5.477  12.003  0.4692 -0.3787 -0.4237
 1125TIP3    H224791   3.827   5.440  11.957  1.0138  0.5199  0.4454
 1126TIP3   OH224792   6.643   4.654  14.128 -0.0066  0.9827  0.3232
 1126TIP3    H124793   6.549   4.673  14.130 -0.1544  0.5839 -1.3315
 1126TIP3    H224794   6.658   4.600  14.206 -0.7740  2.5178  1.6041
 1127TIP3   OH224795   6.187   5.140  12.986 -0.2015  0.0068  0.1542
 1127TIP3    H124796   6.249   5.184  13.043 -1.0987 -0.4210  1.5250
 1127TIP3    H224797   6.228   5.056  12.966  0.4377  0.4559 -0.4442
 1128TIP3   OH224798   1.631   5.476  11.499 -0.1314 -0.2263  0.3381
 1128TIP3    H124799   1.650   5.418  11.572 -3.2073 -1.3010  0.4178
 1128TIP3    H224800   1.669   5.433  11.423  1.8791  0.2106  1.0347
 1129TIP3   OH224801   6.225   3.444  13.367  0.3490  0.2852  0.0802
 1129TIP3    H124802   6.170   3.499  13.423  1.1702  0.0991  1.0961
 1129TIP3    H224803   6.203   3.355  13.393 -0.2736  0.1402 -0.8877
 1130TIP3   OH224804   4.705   3.567  11.409 -0.3277 -0.0055 -0.3080
 1130TIP3    H124805   4.621   3.524  11.426 -0.0954 -0.9083 -1.3152
 1130TIP3    H224806   4.687   3.624  11.335  0.0097 -0.4155 -0.7074
 1131TIP3   OH224807   6.167   5.097   2.122 -0.2051  0.0941 -0.0160
 1131TIP3    H124808   6.193   5.166   2.182 -1.0479  0.1786  0.2697
 1131TIP3    H224809   6.150   5.142   2.039 -1.2514  0.3269  0.3050
 1132TIP3   OH224810   2.787   0.121   5.728 -0.0077 -0.2804 -0.1182
 1132TIP3    H124811   2.736   0.096   5.652 -0.8110 -1.0904  0.6751
 1132TIP3    H224812   2.877   0.129   5.695 -0.2757 -1.0158 -1.0612
 1133TIP3   OH224813   6.152   0.545  11.542  0.3689 -0.0677 -0.2048
 1133TIP3    H124814   6.178   0.486  11.472  1.8640  0.2931  0.0080
 1133TIP3    H224815   6.188   0.630  11.516 -0.4505  0.4185  0.2183
 1134TIP3   OH224816   4.451   0.908  13.770  0.1637 -0.5442  0.1561
 1134TIP3    H124817   4.520   0.961  13.810  2.4345 -1.5134 -2.1579
 1134TIP3    H224818   4.413   0.964  13.703 -0.4320 -0.4299  0.5876
 1135TIP3   OH224819   3.110   5.262  16.372  0.0206 -0.0977  0.3486
 1135TIP3    H124820   3.087   5.181  16.417  0.8230 -0.1579  0.6501
 1135TIP3    H224821   3.205   5.259  16.362  0.1124  0.9897  0.7185
 1136TIP3   OH224822   0.616   2.398  15.991 -0.1039 -0.3457 -0.1828
 1136TIP3    H124823   0.642   2.470  16.048  2.5428  0.5901 -2.3255
 1136TIP3    H224824   0.520   2.397  15.994 -0.1132  1.4581  2.0062
 1137TIP3   OH224825   1.957   2.900  13.873  0.4358  0.1064  0.4304
 1137TIP3    H124826   1.917   2.839  13.935  0.5711  1.7362  2.2003
 1137TIP3    H224827   2.039   2.857  13.849 -0.6180 -1.5732 -0.4089
 1138TIP3   OH224828   1.680   4.879   0.798 -0.3806  0.0227 -0.4229
 1138TIP3    H124829   1.593   4.916   0.783 -2.1353 -2.8615  1.4251
 1138TIP3    H224830   1.663   4.800   0.849  3.3945 -0.6245  0.1290
 1139TIP3   OH224831   4.810   3.376   5.594  0.2181 -0.1770  0.4099
 1139TIP3    H124832   4.863   3.450   5.564  0.6253 -0.6630 -0.0744
 1139TIP3    H224833   4.873   3.307   5.615 -0.2284 -0.9811 -0.7649
 1140TIP3   OH224834   4.807   4.405   4.170 -0.3777  0.3065  0.3705
 1140TIP3    H124835   4.827   4.343   4.241  1.1430  2.6476  2.1445
 1140TIP3    H224836   4.890   4.415   4.124 -0.7211  0.6872 -0.1726
 1141TIP3   OH224837   5.785   5.713  12.630  0.0675  0.6710  0.0145
 1141TIP3    H124838   5.788   5.767  12.551  0.8821  1.1863  0.3887
 1141TIP3    H224839   5.700   5.671  12.627  0.1288  0.5994 -1.2024
 1142TIP3   OH224840   4.891   1.283  12.789  0.1072  0.7290 -0.0259
 1142TIP3    H124841   4.865   1.194  12.765 -2.2418  1.7163 -1.5422
 1142TIP3    H224842   4.870   1.290  12.882 -2.3210  0.4683 -0.4848
 1143TIP3   OH224843   6.159   5.961   4.190  0.0062  0.0821  0.0663
 1143TIP3    H124844   6.114   6.031   4.237 -1.1167 -0.6400  0.1000
 1143TIP3    H224845   6.089   5.911   4.149  0.9104  0.7343 -2.5134
 1144TIP3   OH224846   3.773   1.484   1.448  0.8204 -0.0564 -0.3670
 1144TIP3    H124847   3.764   1.572   1.487  1.9901 -0.6336  1.3619
 1144TIP3    H224848   3.800   1.501   1.358 -4.4941  1.4244 -2.0906
 1145TIP3   OH224849   6.463   1.281   5.440  0.2284 -0.3210  0.4402
 1145TIP3    H124850   6.412   1.282   5.359  2.1574  0.6957 -0.8538
 1145TIP3    H224851   6.400   1.257   5.508 -1.6854 -0.2397 -1.2028
 1146TIP3   OH224852   4.150   5.772  15.715  0.0914  0.2423  0.5051
 1146TIP3    H124853   4.056   5.770  15.700  0.0958 -0.5350  0.5186
 1146TIP3    H224854   4.159   5.777  15.810  0.0728  1.0936  0.4738
 1147TIP3   OH224855   0.750   5.160   1.761  0.1573  0.0479 -0.1390
 1147TIP3    H124856   0.804   5.085   1.782 -0.1793 -0.6703 -1.6744
 1147TIP3    H224857   0.715   5.141   1.674 -2.6583  0.4033  0.8009
 1148TIP3   OH224858   2.757   3.348   4.678  0.2878 -0.2180 -0.3967
 1148TIP3    H124859   2.670   3.387   4.673  0.1065 -0.1739  1.9583
 1148TIP3    H224860   2.747   3.273   4.737  1.9437  0.1942  0.4874
 1149TIP3   OH224861   4.867   2.685   1.274 -0.1488  0.3113 -1.0895
 1149TIP3    H124862   4.887   2.671   1.366 -2.1199  1.7983 -0.3570
 1149TIP3    H224863   4.950   2.713   1.236  1.0474 -1.7557 -0.1425
 1150TIP3   OH224864   2.443   5.747   4.734  0.4956  0.1689  0.2256
 1150TIP3    H124865   2.382   5.810   4.697 -0.8100 -0.4102  1.3175
 1150TIP3    H224866   2.527   5.794   4.736 -0.1030  1.3115 -0.4173
 1151TIP3   OH224867   0.854   0.862  15.631 -0.1137  0.0931  0.8584
 1151TIP3    H124868   0.797   0.838  15.705 -0.0490 -0.7885  0.6344
 1151TIP3    H224869   0.797   0.855  15.554  0.0971 -0.0303  0.7135
 1152TIP3   OH224870   5.182   3.420   1.254 -0.8539 -0.1248  0.3800
 1152TIP3    H124871   5.258   3.362   1.255 -1.1319 -0.5221 -0.7549
 1152TIP3    H224872   5.184   3.463   1.169 -0.9605  1.1458  0.9877
 1153TIP3   OH224873   3.492   6.678   3.153 -0.5018  0.3102 -0.5018
 1153TIP3    H124874   3.442   6.742   3.101 -1.0145  0.1650 -0.1932
 1153TIP3    H224875   3.577   6.674   3.109 -0.7392  0.5994 -1.0083
 1154TIP3   OH224876   0.328   3.292  15.307  0.5784  0.2159 -0.4999
 1154TIP3    H124877   0.317   3.244  15.224  2.6756 -0.8246 -0.2285
 1154TIP3    H224878   0.323   3.224  15.374 -1.4464  1.0934  0.3360
 1155TIP3   OH224879   2.617   6.275  12.332  0.3221  0.1686  0.0411
 1155TIP3    H124880   2.611   6.229  12.248  0.6309  0.1194  0.0468
 1155TIP3    H224881   2.682   6.226  12.382 -0.2173 -0.0972  0.4970
 1156TIP3   OH224882   5.780   1.866   1.399  0.5588  0.5848 -0.2431
 1156TIP3    H124883   5.700   1.915   1.384  0.2998  1.0498  2.2312
 1156TIP3    H224884   5.752   1.789   1.450  1.5799  0.4180  0.1041
 1157TIP3   OH224885   6.344   2.483  16.351 -0.2484 -0.6509  0.3952
 1157TIP3    H124886   6.250   2.469  16.368 -0.2916  0.9587  1.7982
 1157TIP3    H224887   6.349   2.573  16.319  1.0004  0.3367  3.0240
 1158TIP3   OH224888   2.700   0.729   4.681  0.0593  0.0847 -0.4145
 1158TIP3    H124889   2.610   0.716   4.712 -0.1879  1.0369 -0.7193
 1158TIP3    H224890   2.736   0.796   4.740  0.1686  0.5943 -1.0505
 1159TIP3   OH224891   4.170   4.097   5.077 -0.3330  0.0960  0.8057
 1159TIP3    H124892   4.120   4.157   5.132 -1.9558 -1.5435  1.2165
 1159TIP3    H224893   4.136   4.112   4.988 -0.7647 -0.2156  0.9135
 1160TIP3   OH224894   1.690   3.283  13.285 -0.5652 -0.0883  0.3640
 1160TIP3    H124895   1.733   3.228  13.350 -1.0902 -0.3436  0.4967
 1160TIP3    H224896   1.609   3.311  13.327 -0.9861 -0.3885 -0.2385
 1161TIP3   OH224897   3.860   4.866  15.738  0.2837 -0.4355  0.0696
 1161TIP3    H124898   3.929   4.902  15.681 -0.7060  0.8009 -0.4132
 1161TIP3    H224899   3.885   4.895  15.826 -0.1248  0.8833 -0.2268
 1162TIP3   OH224900   1.626   5.418  10.657  0.4868  0.2505  0.1287
 1162TIP3    H124901   1.709   5.443  10.696  1.1639  0.7521 -1.5206
 1162TIP3    H224902   1.650   5.379  10.573 -0.8245 -1.7971  0.6350
 1163TIP3   OH224903   1.641   2.208   1.036 -0.1411  0.0840 -0.9110
 1163TIP3    H124904   1.586   2.197   1.113 -0.1230 -0.0828 -0.9209
 1163TIP3    H224905   1.648   2.303   1.024  2.1855  0.2288  0.9644
 1164TIP3   OH224906   3.641   3.256  13.890 -0.0249 -0.1097  0.5001
 1164TIP3    H124907   3.676   3.182  13.842  0.9993 -0.1926  1.3232
 1164TIP3    H224908   3.679   3.333  13.848 -2.7097  0.1664 -1.6970
 1165TIP3   OH224909   0.203   0.080   1.987 -0.2871  0.5677 -0.2324
 1165TIP3    H124910   0.178   0.163   2.027  3.5495  0.9873  1.7554
 1165TIP3    H224911   0.242   0.105   1.903  0.5944  0.8046  0.2334
 1166TIP3   OH224912   1.232   2.234  13.768 -0.5181  0.8384  0.2290
 1166TIP3    H124913   1.189   2.277  13.843 -1.0532  0.1778  0.3070
 1166TIP3    H224914   1.312   2.198  13.805 -1.3029 -0.4279  0.7479
 1167TIP3   OH224915   2.073   2.206  15.096  0.3798  0.0034  0.0987
 1167TIP3    H124916   2.024   2.146  15.152  1.7678  0.3528  1.7978
 1167TIP3    H224917   2.096   2.154  15.019  0.4137 -1.2534  0.9295
 1168TIP3   OH224918   2.883   5.422   3.844 -0.4649 -0.6141  0.3440
 1168TIP3    H124919   2.875   5.419   3.939  1.1928 -0.8679  0.5030
 1168TIP3    H224920   2.896   5.515   3.825  2.6810 -0.8429  0.7715
 1169TIP3   OH224921   6.353   6.084  15.187  0.0953  0.3531  0.1082
 1169TIP3    H124922   6.275   6.113  15.233  0.9272  2.2593  0.3987
 1169TIP3    H224923   6.423   6.093  15.251  1.0543  1.7569 -1.0705
 1170TIP3   OH224924   1.899   0.326  16.751 -0.1486 -0.2645 -0.0056
 1170TIP3    H124925   1.913   0.362  16.839 -0.4050  2.3313 -0.9625
 1170TIP3    H224926   1.984   0.332  16.708 -0.5367  0.6002 -0.6640
 1171TIP3   OH224927   0.643   5.111   6.579 -0.3343  0.3456 -0.9478
 1171TIP3    H124928   0.570   5.169   6.600  0.5592  1.4723 -0.8834
 1171TIP3    H224929   0.602   5.026   6.564 -1.3865  0.1040  2.4052
 1172TIP3   OH224930   5.714   2.499   0.874 -0.2969 -0.7171  0.3036
 1172TIP3    H124931   5.679   2.496   0.785 -0.3790  0.5745  0.2696
 1172TIP3    H224932   5.643   2.536   0.926 -0.7128 -2.6165  1.1760
 1173TIP3   OH224933   5.887   5.950  14.595 -0.5272 -0.4222  0.1218
 1173TIP3    H124934   5.852   6.036  14.573  1.3038  0.3751  0.1292
 1173TIP3    H224935   5.810   5.893  14.602 -1.8024  1.2733  0.4482
 1174TIP3   OH224936   3.429   1.634  12.388  0.2435 -0.4979  0.0364
 1174TIP3    H124937   3.339   1.664  12.396  0.1951 -0.4668 -0.5877
 1174TIP3    H224938   3.463   1.677  12.310  1.1836  0.4272  0.9158
 1175TIP3   OH224939   6.278   4.344   5.097  0.5398  0.6260  0.4889
 1175TIP3    H124940   6.200   4.288   5.095 -0.6277  2.2039 -0.6794
 1175TIP3    H224941   6.291   4.371   5.006  3.1672 -0.4693  0.4406
 1176TIP3   OH224942   2.601   0.563   4.955 -0.1398 -0.1145 -0.1189
 1176TIP3    H124943   2.603   0.646   5.003 -0.8270 -0.9420  1.4151
 1176TIP3    H224944   2.688   0.557   4.915  0.7611  0.2779  1.6657
 1177TIP3   OH224945   3.472   3.842  17.080  0.2550 -0.5010 -0.4600
 1177TIP3    H124946   3.566   3.839  17.101 -0.1825 -1.2425  1.6674
 1177TIP3    H224947   3.451   3.752  17.057 -0.5571 -1.1953  2.5277
 1178TIP3   OH224948   0.601   0.807   5.372  0.2988 -0.2052 -0.4135
 1178TIP3    H124949   0.666   0.763   5.428  1.4093  0.1891 -1.3447
 1178TIP3    H224950   0.583   0.890   5.416  0.1659 -0.4628  0.0223
 1179TIP3   OH224951   5.582   4.360   2.370 -0.4469  0.3897  0.1930
 1179TIP3    H124952   5.620   4.409   2.296  0.1229  1.2131  1.0141
 1179TIP3    H224953   5.615   4.405   2.448  0.8009 -1.8091  1.0303
 1180TIP3   OH224954   0.528   3.188   2.504 -0.3478  0.5211 -0.1343
 1180TIP3    H124955   0.454   3.160   2.450  1.5222  0.6902 -3.0018
 1180TIP3    H224956   0.568   3.259   2.455  2.6468 -0.6402  0.4167
 1181TIP3   OH224957   2.705   5.272  13.723  0.0961  0.0908  0.5479
 1181TIP3    H124958   2.629   5.216  13.710  0.1097  0.0012  0.8535
 1181TIP3    H224959   2.669   5.354  13.757 -0.0340  0.6498 -0.8747
 1182TIP3   OH224960   6.482   0.042   4.962 -1.1404  0.0844 -0.3988
 1182TIP3    H124961   6.533   0.067   4.885  3.5407 -2.6149  1.4144
 1182TIP3    H224962   6.515   0.098   5.032 -0.7036 -1.6299  0.8335
 1183TIP3   OH224963   1.005   1.010  14.703 -0.1605  0.0066  0.0239
 1183TIP3    H124964   0.964   0.982  14.785 -0.3468  0.2327  0.0076
 1183TIP3    H224965   0.937   1.059  14.657  0.1576  0.4745  0.0444
 1184TIP3   OH224966   2.298   6.429  13.853 -0.2948  0.5058  0.0392
 1184TIP3    H124967   2.265   6.420  13.764  1.1932 -2.7458 -0.3371
 1184TIP3    H224968   2.238   6.377  13.907  0.7774 -0.4889  0.3151
 1185TIP3   OH224969   2.465   0.151   4.173  0.1836 -0.4892  0.0202
 1185TIP3    H124970   2.552   0.112   4.169  1.0994  1.5084 -0.6485
 1185TIP3    H224971   2.406   0.082   4.142  1.5675 -1.7253  0.0643
 1186TIP3   OH224972   5.085   0.553  12.948  0.3306  0.4781 -0.4144
 1186TIP3    H124973   5.014   0.508  12.995  0.3371 -0.2357 -1.0746
 1186TIP3    H224974   5.101   0.499  12.871  2.2632  0.0886  0.2028
 1187TIP3   OH224975   4.433   6.512  11.061 -0.1888  0.2696  0.2182
 1187TIP3    H124976   4.408   6.434  11.011  0.9261 -1.5711  2.3662
 1187TIP3    H224977   4.505   6.550  11.011 -0.7877 -0.0224 -0.9006
 1188TIP3   OH224978   1.535   1.917   1.861  0.0138  0.3182 -0.5625
 1188TIP3    H124979   1.440   1.916   1.868  0.0727 -2.0153  0.9535
 1188TIP3    H224980   1.564   1.960   1.942  0.2646  1.0106 -1.0148
 1189TIP3   OH224981   0.849   1.114   1.913 -0.1252 -0.4684  0.1738
 1189TIP3    H124982   0.845   1.204   1.883  0.6496 -0.1791  0.9080
 1189TIP3    H224983   0.931   1.108   1.961  0.1125 -1.7150 -0.3512
 1190TIP3   OH224984   1.063   1.323   3.033  0.4782 -0.2471 -0.6153
 1190TIP3    H124985   1.044   1.417   3.031 -0.6248 -0.4685 -1.4637
 1190TIP3    H224986   1.006   1.288   3.101  1.5443 -0.1853  0.3325
 1191TIP3   OH224987   6.534   6.665  13.321  0.3077 -0.6009 -0.2131
 1191TIP3    H124988   6.538   6.616  13.238 -0.9481  0.7808 -1.1341
 1191TIP3    H224989   6.441   6.682  13.334  0.5839  0.0989  0.9652
 1192TIP3   OH224990   2.427   0.567   2.147 -0.8744  0.4443  0.2088
 1192TIP3    H124991   2.394   0.596   2.232  0.0747 -0.1204  0.7850
 1192TIP3    H224992   2.351   0.529   2.103 -1.1330 -0.3444  1.2910
 1193TIP3   OH224993   1.442   0.179  12.501 -0.2979  0.1572  0.0636
 1193TIP3    H124994   1.503   0.115  12.465 -0.3295  0.7307 -1.0395
 1193TIP3    H224995   1.483   0.264  12.485 -1.0009  0.5041  0.0539
 1194TIP3   OH224996   3.973   1.654  16.023 -0.0089 -0.6567 -0.5965
 1194TIP3    H124997   3.878   1.663  16.030  0.1490  0.3068  0.8087
 1194TIP3    H224998   4.001   1.631  16.112  1.1157 -0.3482 -0.8538
 1195TIP3   OH224999   5.443   5.195  16.033 -0.0834  0.3652  0.0283
 1195TIP3    H125000   5.439   5.100  16.022 -0.9324  0.3947 -0.0295
 1195TIP3    H225001   5.488   5.208  16.116 -1.1948 -0.1465  0.7396
 1196TIP3   OH225002   1.813   4.632  15.547  0.0276 -0.3597 -0.2868
 1196TIP3    H125003   1.759   4.676  15.480 -1.1282  0.8891  1.3534
 1196TIP3    H225004   1.900   4.670  15.536 -0.4628  0.8396 -0.2773
 1197TIP3   OH225005   4.381   5.723  14.842 -0.5053  0.1442 -0.1817
 1197TIP3    H125006   4.457   5.672  14.813 -0.5123 -0.8221  1.4139
 1197TIP3    H225007   4.399   5.812  14.809  0.8890 -0.2521 -0.5701
 1198TIP3   OH225008   5.681   5.989   2.900 -0.1402 -0.1657 -0.1350
 1198TIP3    H125009   5.706   6.075   2.932  0.8486 -0.2158 -0.7451
 1198TIP3    H225010   5.625   6.006   2.824  0.1147 -0.0683 -0.2984
 1199TIP3   OH225011   2.992   4.374  15.354  0.7974  0.0936 -0.3217
 1199TIP3    H125012   3.030   4.306  15.409 -2.2800 -1.5632  0.0076
 1199TIP3    H225013   2.926   4.416  15.410 -2.8501 -2.0072 -2.5897
 1200TIP3   OH225014   5.845   5.172   5.181  0.1846 -0.0790  0.2638
 1200TIP3    H125015   5.819   5.176   5.089  0.8468  0.4405  0.0878
 1200TIP3    H225016   5.795   5.099   5.218 -3.2556  2.1776  0.5289
 1201TIP3   OH225017   4.522   0.726  15.006  0.0988  0.3260  0.0213
 1201TIP3    H125018   4.498   0.694  15.093 -1.1256 -1.0491 -0.7576
 1201TIP3    H225019   4.449   0.781  14.980 -0.4385 -0.7604 -0.8444
 1202TIP3   OH225020   6.409   5.849   5.525  0.5779  0.3178  0.2581
 1202TIP3    H125021   6.432   5.896   5.605  1.8848 -0.4630  0.3798
 1202TIP3    H225022   6.319   5.875   5.506  0.0837  0.1996  2.2237
 1203TIP3   OH225023   0.473   4.945   1.106  0.1582  0.3323  0.1905
 1203TIP3    H125024   0.452   4.927   1.197  2.4467 -1.1374  0.4980
 1203TIP3    H225025   0.556   4.992   1.109  0.5373 -0.1998 -1.1510
 1204TIP3   OH225026   6.666   1.316  16.061  0.6098 -0.7793  0.3286
 1204TIP3    H125027   6.660   1.235  16.112  1.5483 -0.3128  1.2185
 1204TIP3    H225028   6.755   1.317  16.028  0.7413  0.0770  0.6750
 1205TIP3   OH225029   5.738   5.600  16.048 -0.6991  0.0674  0.3280
 1205TIP3    H125030   5.649   5.625  16.023 -0.4083  1.8072  0.8638
 1205TIP3    H225031   5.726   5.551  16.130 -1.3159 -1.9129 -0.8930
 1206TIP3   OH225032   5.650   1.163  14.627 -0.1867 -0.2497 -0.2529
 1206TIP3    H125033   5.561   1.193  14.648 -1.0010 -1.7054 -1.4184
 1206TIP3    H225034   5.691   1.239  14.586 -1.5546 -0.1049 -1.4391
 1207TIP3   OH225035   1.667   2.359   3.935 -0.3021  0.0350 -0.6270
 1207TIP3    H125036   1.682   2.305   4.012 -1.9264  2.2218  1.3683
 1207TIP3    H225037   1.755   2.383   3.905  0.3766 -0.3979  0.9177
 1208TIP3   OH225038   1.608   0.741  12.776  0.2036 -0.2337 -0.3884
 1208TIP3    H125039   1.514   0.753  12.791  0.5572  1.1078  0.9351
 1208TIP3    H225040   1.619   0.646  12.769 -0.6315 -0.8960  4.2724
 1209TIP3   OH225041   3.542   2.008  11.323 -0.2430  0.7962  0.3104
 1209TIP3    H125042   3.517   2.004  11.231  0.4479  0.7841  0.1179
 1209TIP3    H225043   3.626   2.054  11.323  0.0259  0.3193  0.8831
 1210TIP3   OH225044   3.692   4.716   6.138 -0.2883  0.2710 -0.3755
 1210TIP3    H125045   3.733   4.798   6.167  0.6014 -0.1621 -0.3959
 1210TIP3    H225046   3.599   4.737   6.134 -0.4846  0.4407  2.5761
 1211TIP3   OH225047   4.863   3.111  16.960  0.6513  0.4125 -0.2088
 1211TIP3    H125048   4.816   3.191  16.937  2.3864  0.8217 -2.7264
 1211TIP3    H225049   4.934   3.141  17.017 -0.5467  0.1301  1.5272
 1212TIP3   OH225050   0.539   1.187   2.214  0.9634 -0.2012  0.1278
 1212TIP3    H125051   0.635   1.188   2.211  0.9726 -0.3136  0.3718
 1212TIP3    H225052   0.518   1.138   2.293  0.7041 -0.0037  0.1817
 1213TIP3   OH225053   2.976   3.667   4.935 -0.3453  0.1184 -0.7679
 1213TIP3    H125054   3.025   3.606   4.989 -1.0840  0.2672  0.0847
 1213TIP3    H225055   2.925   3.719   4.997 -1.2419  0.2605 -1.5967
 1214TIP3   OH225056   2.292   2.918  15.484  0.3298  0.0698 -0.2230
 1214TIP3    H125057   2.299   3.004  15.526  0.2922 -0.3529  0.6648
 1214TIP3    H225058   2.217   2.926  15.426  0.0261  0.4909  0.2211
 1215TIP3   OH225059   6.627   4.590   1.968 -0.0807 -0.1866  0.1743
 1215TIP3    H125060   6.587   4.534   2.034  0.1103  1.9069  2.1743
 1215TIP3    H225061   6.687   4.532   1.921 -1.4234 -2.1125  0.7202
 1216TIP3   OH225062   2.752   6.181  11.589  0.2238  0.2577  0.6689
 1216TIP3    H125063   2.680   6.154  11.646  0.9320 -0.0916  1.4375
 1216TIP3    H225064   2.816   6.219  11.649  1.2831 -0.7350  0.2199
 1217TIP3   OH225065   5.691   0.139   3.716 -0.5273 -0.1738  0.1707
 1217TIP3    H125066   5.668   0.116   3.806  0.8575 -0.2418  0.5168
 1217TIP3    H225067   5.606   0.148   3.672 -1.2100 -1.5768  1.1070
 1218TIP3   OH225068   1.060   3.895  13.963 -0.0249 -0.0227 -0.0481
 1218TIP3    H125069   1.053   3.956  14.036 -2.2565  0.1671 -0.3798
 1218TIP3    H225070   0.987   3.834  13.975  1.8573 -2.4323  0.0249
 1219TIP3   OH225071   0.505   5.714  12.180  0.1822 -0.5044  0.0487
 1219TIP3    H125072   0.429   5.675  12.223  1.0800 -1.4244  0.8127
 1219TIP3    H225073   0.557   5.640  12.149  1.9287  0.0248  1.5480
 1220TIP3   OH225074   3.899   6.609   2.786  0.4079  0.1808  0.0226
 1220TIP3    H125075   3.955   6.560   2.846  1.1411 -0.1428 -0.8968
 1220TIP3    H225076   3.949   6.611   2.704 -0.5774  0.6031 -0.5767
 1221TIP3   OH225077   4.235   2.516  11.230  0.8063  0.0976 -0.0192
 1221TIP3    H125078   4.179   2.547  11.301  0.7040  0.7617 -0.3859
 1221TIP3    H225079   4.192   2.547  11.150 -0.3066 -2.5082 -0.5473
 1222TIP3   OH225080   0.620   1.665  12.824 -0.1816  0.5203  1.0423
 1222TIP3    H125081   0.624   1.593  12.887 -0.4059  1.7634  2.5533
 1222TIP3    H225082   0.627   1.744  12.878 -1.3164  1.6697 -0.3968
 1223TIP3   OH225083   0.907   5.489  11.665  0.1931 -0.1380 -0.2050
 1223TIP3    H125084   0.902   5.555  11.596  1.1335  1.2067  0.9407
 1223TIP3    H225085   1.000   5.467  11.669  0.2883  0.4156  1.1418
 1224TIP3   OH225086   2.491   3.956   4.060 -0.0766 -0.4698 -0.0298
 1224TIP3    H125087   2.461   3.950   3.970  0.2542 -0.1479 -0.1646
 1224TIP3    H225088   2.548   3.880   4.072 -0.0817 -0.4849 -0.1056
 1225TIP3   OH225089   4.686   0.566  11.905 -0.6320  0.2835  0.1480
 1225TIP3    H125090   4.701   0.594  11.995  1.9660  2.2601 -0.7827
 1225TIP3    H225091   4.728   0.481  11.899  0.3977  0.7542  0.4837
 1226TIP3   OH225092   6.288   0.953  10.966  0.1254 -0.1186 -0.1673
 1226TIP3    H125093   6.346   1.017  11.007 -0.2042 -0.3515  0.6713
 1226TIP3    H225094   6.202   0.970  11.003 -0.5667  0.7952 -2.0395
 1227TIP3   OH225095   4.298   3.551  15.479 -0.2207 -0.3371 -0.5238
 1227TIP3    H125096   4.281   3.623  15.540 -1.1999 -1.1115  0.1240
 1227TIP3    H225097   4.347   3.487  15.530 -0.4259 -0.6767 -0.7527
 1228TIP3   OH225098   2.657   1.299  16.887  0.0499 -0.3254  0.3128
 1228TIP3    H125099   2.608   1.361  16.834  2.6246  0.9387 -0.7438
 1228TIP3    H225100   2.691   1.235  16.824  1.8076  0.2649  0.6229
 1229TIP3   OH225101   1.189   3.427   3.818  0.3130  0.6457 -0.3853
 1229TIP3    H125102   1.219   3.358   3.877  2.3032  0.8948 -1.0607
 1229TIP3    H225103   1.095   3.408   3.806  0.3105 -0.5793  1.2191
 1230TIP3   OH225104   4.188   5.820  11.910  0.0475 -0.3370 -0.0539
 1230TIP3    H125105   4.111   5.835  11.964 -0.7932 -0.5011 -1.1689
 1230TIP3    H225106   4.246   5.894  11.928 -0.8783  0.3945 -0.0500
 1231TIP3   OH225107   5.707   3.144   0.949  0.0934 -0.2763  0.3333
 1231TIP3    H125108   5.741   3.196   0.876  0.8664 -0.3811  0.6075
 1231TIP3    H225109   5.616   3.171   0.957  0.6146  1.4799  0.8508
 1232TIP3   OH225110   1.347   3.929  17.325  0.9323  0.1146  0.6970
 1232TIP3    H125111   1.296   3.986  17.383 -0.4232  0.7954 -1.0790
 1232TIP3    H225112   1.384   3.989  17.260 -0.2786 -0.9259 -1.0364
 1233TIP3   OH225113   1.393   1.991  13.721  0.0257 -0.3415 -0.3496
 1233TIP3    H125114   1.427   2.000  13.632  1.3314  0.2701  0.1857
 1233TIP3    H225115   1.349   1.905  13.721 -0.6386 -0.0346 -1.7662
 1234TIP3   OH225116   4.118   2.236  15.627 -0.3755  0.2119  0.1344
 1234TIP3    H125117   4.164   2.190  15.557 -0.4084  1.4295 -0.7155
 1234TIP3    H225118   4.187   2.278  15.678 -0.4438  2.3454 -1.3555
 1235TIP3   OH225119   4.210   6.270  11.427 -0.8859 -0.2147  0.1050
 1235TIP3    H125120   4.226   6.360  11.399 -1.8245  0.0166  0.2772
 1235TIP3    H225121   4.118   6.254  11.406  0.0368 -2.2793 -3.1196
 1236TIP3   OH225122   3.949   5.536   1.152 -0.0618 -0.0760  0.1982
 1236TIP3    H125123   3.977   5.628   1.147 -0.6664  0.0785 -0.5130
 1236TIP3    H225124   3.911   5.518   1.067  0.2289 -1.0590  0.2619
 1237TIP3   OH225125   5.274   5.200  13.882 -0.0498  0.3081 -0.0650
 1237TIP3    H125126   5.329   5.234  13.811 -1.2681  0.0522 -1.1641
 1237TIP3    H225127   5.317   5.119  13.909  0.1686  0.1505 -0.8565
 1238TIP3   OH225128   6.137   2.434  11.103 -0.1910 -0.0934  0.1575
 1238TIP3    H125129   6.168   2.525  11.102 -1.2419  0.3124  1.2265
 1238TIP3    H225130   6.169   2.397  11.021  1.5521  0.7847  0.3892
 1239TIP3   OH225131   1.198   0.132   4.196 -0.4987 -0.6242  0.2914
 1239TIP3    H125132   1.233   0.046   4.173 -0.5288 -0.3351 -0.9099
 1239TIP3    H225133   1.104   0.124   4.184 -0.6916 -0.8781  1.7759
 1240TIP3   OH225134   2.439   3.697  14.016 -0.7262  0.0027 -0.0774
 1240TIP3    H125135   2.461   3.616  14.061 -0.7437 -0.6676 -1.2366
 1240TIP3    H225136   2.511   3.756  14.037 -0.3757 -0.5325  0.2449
 1241TIP3   OH225137   5.164   2.409   2.254  0.0668 -0.1452  0.2694
 1241TIP3    H125138   5.178   2.437   2.163 -0.7464  0.8675  0.4378
 1241TIP3    H225139   5.118   2.482   2.294 -0.1393 -0.8501  1.3421
 1242TIP3   OH225140   3.008   6.527   0.386 -0.1406 -0.5410 -0.0505
 1242TIP3    H125141   3.090   6.572   0.405 -1.0795  0.5023  1.7501
 1242TIP3    H225142   3.028   6.434   0.394  0.8612 -0.2980  0.2984
 1243TIP3   OH225143   1.159   1.704   6.860  0.0565  0.0079  0.5226
 1243TIP3    H125144   1.086   1.725   6.802  0.1951  0.0698  0.3708
 1243TIP3    H225145   1.232   1.687   6.801  0.0664 -0.4368  0.6625
 1244TIP3   OH225146   3.598   2.364   1.142  0.0662  0.1169 -0.2083
 1244TIP3    H125147   3.662   2.404   1.202  0.2807 -0.0654 -0.3110
 1244TIP3    H225148   3.637   2.374   1.056  0.0146 -0.1090 -0.2586
 1245TIP3   OH225149   6.529   0.309  17.043  0.6961  0.1060 -0.0110
 1245TIP3    H125150   6.445   0.265  17.035  0.1618  0.7157  1.7264
 1245TIP3    H225151   6.535   0.333  17.135  2.5843  0.4804 -0.1826
 1246TIP3   OH225152   2.780   1.391  11.813 -0.5073 -0.3455 -0.3647
 1246TIP3    H125153   2.727   1.319  11.778 -0.5783 -0.3948 -0.1583
 1246TIP3    H225154   2.773   1.382  11.908  0.3869 -0.7285 -0.3299
 1247TIP3   OH225155   5.683   3.456  13.454  0.0716  0.2924  0.3551
 1247TIP3    H125156   5.590   3.474  13.444  0.2279  0.6918 -0.4886
 1247TIP3    H225157   5.689   3.361  13.461 -0.4621  0.3137  1.2011
 1248TIP3   OH225158   1.084   5.943   2.795 -0.0004  0.0347 -0.1159
 1248TIP3    H125159   1.049   6.009   2.855 -0.4794  0.5913 -0.9943
 1248TIP3    H225160   1.059   5.973   2.708  1.8130 -0.0920 -0.7163
 1249TIP3   OH225161   6.108   4.906   4.722 -0.4396 -0.8674  0.4257
 1249TIP3    H125162   6.128   4.980   4.665 -2.1827  1.2234  2.3339
 1249TIP3    H225163   6.194   4.873   4.749  0.4091  0.7525 -0.1496
 1250TIP3   OH225164   1.227   2.323  12.681  0.1714  0.3095 -0.3133
 1250TIP3    H125165   1.275   2.317  12.599  0.7196  1.6029 -0.1161
 1250TIP3    H225166   1.201   2.415  12.687 -1.5405 -0.1713  0.0399
 1251TIP3   OH225167   1.582   3.384   3.337 -0.6484 -0.0553  0.2876
 1251TIP3    H125168   1.589   3.310   3.276 -0.6855  0.6641 -0.6116
 1251TIP3    H225169   1.662   3.434   3.323 -1.1007  0.6349  0.1335
 1252TIP3   OH225170   1.627   4.853  17.188  0.1637  0.0753  0.0660
 1252TIP3    H125171   1.687   4.811  17.250  0.2885  2.1099  1.4192
 1252TIP3    H225172   1.681   4.872  17.112  0.7284  0.0639  0.4564
 1253TIP3   OH225173   5.671   5.013   3.272 -0.3462 -0.3382 -0.3154
 1253TIP3    H125174   5.617   5.064   3.332 -0.5683 -0.3187 -0.5309
 1253TIP3    H225175   5.707   5.078   3.212 -0.9694 -0.4780 -0.8559
 1254TIP3   OH225176   3.145   5.148  11.671  0.1048 -0.0121  0.1759
 1254TIP3    H125177   3.202   5.225  11.678  0.8763 -0.6401  1.0645
 1254TIP3    H225178   3.084   5.170  11.601  1.4718  0.6854 -0.8576
 1255TIP3   OH225179   1.846   6.414   6.378 -0.5151  0.4044 -0.3966
 1255TIP3    H125180   1.895   6.438   6.457 -0.1132 -0.9159 -0.2182
 1255TIP3    H225181   1.779   6.481   6.370  0.4973  1.5250  0.1051
 1256TIP3   OH225182   2.121   5.635   5.647 -0.1557  0.4411 -0.5543
 1256TIP3    H125183   2.135   5.547   5.682  2.8984  1.0448 -0.0376
 1256TIP3    H225184   2.047   5.669   5.699 -1.7423 -1.8937 -1.1105
 1257TIP3   OH225185   5.848   0.107  12.107 -0.4471  0.0779  0.6514
 1257TIP3    H125186   5.796   0.162  12.166 -0.0367  1.2893 -0.0833
 1257TIP3    H225187   5.819   0.132  12.019  1.1900  0.6383  0.2352
 1258TIP3   OH225188   5.351   4.456  10.651  0.3478 -0.1580 -0.1571
 1258TIP3    H125189   5.304   4.431  10.731  0.5741  1.1875  0.4208
 1258TIP3    H225190   5.367   4.549  10.661  3.3374 -0.5774 -0.2352
 1259TIP3   OH225191   1.479   1.956   5.619 -0.3560  0.3939  0.0205
 1259TIP3    H125192   1.448   1.868   5.641  1.3960 -0.1152  0.6286
 1259TIP3    H225193   1.558   1.941   5.567 -0.4139  1.6294 -0.4494
 1260TIP3   OH225194   0.578   6.203  14.674  0.0092 -0.4634  0.2244
 1260TIP3    H125195   0.612   6.288  14.704 -1.0851  0.0303  0.1129
 1260TIP3    H225196   0.490   6.198  14.710 -0.0606 -1.4195 -0.0499
 1261TIP3   OH225197   0.521   3.490   1.824  0.3193  0.4421  0.2408
 1261TIP3    H125198   0.595   3.537   1.784 -0.6807  2.8767  1.0481
 1261TIP3    H225199   0.546   3.398   1.819  3.4790  1.1568  0.5901
 1262TIP3   OH225200   2.430   0.093  15.961  0.6333  0.4433 -0.2722
 1262TIP3    H125201   2.435   0.071  16.054 -1.6444 -0.8278 -0.3807
 1262TIP3    H225202   2.463   0.015  15.916 -1.3425 -0.2945 -0.5382
 1263TIP3   OH225203   0.990   1.246   1.519 -0.2543  0.5954 -0.4046
 1263TIP3    H125204   1.024   1.254   1.430 -1.3387 -1.0827 -1.0210
 1263TIP3    H225205   0.925   1.175   1.513  0.1406 -0.0211  1.8546
 1264TIP3   OH225206   6.190   4.095   3.284 -0.4381 -0.1088 -0.0246
 1264TIP3    H125207   6.144   4.171   3.250 -2.2103 -0.1484  2.0693
 1264TIP3    H225208   6.125   4.025   3.285  1.1459 -1.7436 -1.8876
 1265TIP3   OH225209   1.096   1.017   5.162 -0.1708 -0.7564  0.6219
 1265TIP3    H125210   1.025   0.956   5.184  0.1832 -0.9001  1.3696
 1265TIP3    H225211   1.165   0.997   5.224 -0.0374  0.3928  0.8600
 1266TIP3   OH225212   4.964   2.808   4.313 -0.2089 -0.2277 -0.5902
 1266TIP3    H125213   5.021   2.872   4.270 -0.1279 -0.6436 -1.1070
 1266TIP3    H225214   4.889   2.798   4.254 -0.5195 -0.1513 -0.2142
 1267TIP3   OH225215   5.143   6.649  15.889 -0.5317 -0.2240  0.5266
 1267TIP3    H125216   5.172   6.735  15.856  2.1551 -0.8486  1.0679
 1267TIP3    H225217   5.131   6.596  15.810 -1.1583  0.3099  0.2484
 1268TIP3   OH225218   6.089   4.492   0.912 -0.0203 -0.2834  0.3545
 1268TIP3    H125219   6.174   4.456   0.888  0.8587  0.8579  1.6096
 1268TIP3    H225220   6.037   4.416   0.939  1.6788 -0.7073  2.6631
 1269TIP3   OH225221   2.493   1.843  12.535 -0.2579  0.4944 -0.3033
 1269TIP3    H125222   2.429   1.863  12.467  0.5202 -0.1899 -1.2634
 1269TIP3    H225223   2.443   1.798  12.603 -0.6361 -0.9963 -1.5157
 1270TIP3   OH225224   1.033   3.099   3.232  0.0781 -0.0130  0.4491
 1270TIP3    H125225   1.025   3.059   3.318  0.2552  0.6672  0.7876
 1270TIP3    H225226   0.961   3.061   3.181 -0.2436 -0.1506  0.9986
 1271TIP3   OH225227   1.433   6.641  15.254  0.2685 -0.2953  0.0006
 1271TIP3    H125228   1.483   6.658  15.175 -1.0963  0.8578 -0.6717
 1271TIP3    H225229   1.477   6.692  15.322  2.5529 -2.7169  0.5116
 1272TIP3   OH225230   1.444   2.548   2.180 -0.3008 -0.1904  0.6703
 1272TIP3    H125231   1.358   2.532   2.140  0.4134 -1.4146 -0.4335
 1272TIP3    H225232   1.448   2.643   2.189 -2.0322 -0.1370  1.3685
 1273TIP3   OH225233   3.704   4.929   2.199 -0.3977  0.3236  0.2692
 1273TIP3    H125234   3.746   4.984   2.264  1.8388 -0.5671 -0.3153
 1273TIP3    H225235   3.678   4.850   2.247  0.8547 -0.1504  0.1876
 1274TIP3   OH225236   2.192   0.411   5.586  0.2206 -0.2039  0.0317
 1274TIP3    H125237   2.205   0.476   5.656 -0.5930  0.8809 -0.7899
 1274TIP3    H225238   2.098   0.414   5.568  0.1353 -1.7596  0.0871
 1275TIP3   OH225239   3.930   4.251   0.557  0.4160 -0.3216  0.3257
 1275TIP3    H125240   3.966   4.326   0.603  0.4734  0.2072 -0.5664
 1275TIP3    H225241   4.003   4.189   0.552  0.6135 -0.0920  0.3303
 1276TIP3   OH225242   0.772   6.748  15.934 -0.4977 -0.4604  0.3668
 1276TIP3    H125243   0.825   6.696  15.994 -0.2671  0.5556  1.0745
 1276TIP3    H225244   0.830   6.765  15.860 -1.0391 -2.3796 -0.5475
 1277TIP3   OH225245   3.201   0.270  16.112 -0.5961  0.2116 -0.2123
 1277TIP3    H125246   3.252   0.194  16.138  1.1925  1.2529 -0.5211
 1277TIP3    H225247   3.180   0.314  16.195  0.0929  0.4374 -0.1534
 1278TIP3   OH225248   6.444   4.667  15.368 -0.1131 -0.7865 -0.4949
 1278TIP3    H125249   6.428   4.710  15.452 -0.5378 -2.1795  0.1657
 1278TIP3    H225250   6.358   4.659  15.327 -0.0968 -1.3022 -0.4450
 1279TIP3   OH225251   6.442   4.863  13.370  0.0287  0.3744  0.5873
 1279TIP3    H125252   6.454   4.804  13.444 -0.7650 -0.0669  0.3735
 1279TIP3    H225253   6.358   4.906  13.387 -1.0790 -1.0641 -0.9298
 1280TIP3   OH225254   0.903   3.754   1.447 -0.3900 -0.1862  0.2176
 1280TIP3    H125255   0.989   3.713   1.451 -1.1964 -2.0333 -0.5667
 1280TIP3    H225256   0.914   3.836   1.496  1.5278 -0.8594  1.0271
 1281TIP3   OH225257   3.798   3.951  13.248 -0.2858  0.6634  0.4744
 1281TIP3    H125258   3.784   3.876  13.305 -3.0033  0.9642  0.3291
 1281TIP3    H225259   3.893   3.961  13.244  0.0678 -1.1388  2.5917
 1282TIP3   OH225260   3.385   4.392   5.967 -0.0689 -0.1162 -0.3930
 1282TIP3    H125261   3.349   4.428   5.886 -0.5836 -0.0930 -0.1622
 1282TIP3    H225262   3.331   4.314   5.985 -0.6359  0.4447  0.4509
 1283TIP3   OH225263   4.759   5.495  14.374 -0.6408 -0.1459 -0.2745
 1283TIP3    H125264   4.674   5.531  14.349 -0.4638  0.2327 -0.3286
 1283TIP3    H225265   4.804   5.482  14.290 -0.2200  0.6997 -0.1851
 1284TIP3   OH225266   0.950   0.470  11.481  0.1258 -0.0335 -0.7201
 1284TIP3    H125267   0.924   0.466  11.573  2.3001 -0.6454 -0.0735
 1284TIP3    H225268   0.953   0.378  11.453  1.1157  0.0314 -0.8726
 1285TIP3   OH225269   1.170   1.389   5.933 -0.4350  0.8133  0.5500
 1285TIP3    H125270   1.221   1.437   5.999  0.3903  0.1401  0.4188
 1285TIP3    H225271   1.112   1.333   5.984  0.1393  0.3603  0.7174
 1286TIP3   OH225272   0.427   0.518   1.608 -0.7313 -0.1406  0.2561
 1286TIP3    H125273   0.448   0.446   1.548 -2.4791 -0.3474 -0.1594
 1286TIP3    H225274   0.506   0.571   1.610  1.0451 -2.6690  1.4908
 1287TIP3   OH225275   4.264   6.711   2.781 -0.2451  0.6619  0.6399
 1287TIP3    H125276   4.197   6.764   2.825  0.5015  1.9086  0.3439
 1287TIP3    H225277   4.347   6.745   2.815  0.2666 -0.4334  0.5376
 1288TIP3   OH225278   2.437   2.586  15.962  0.0269 -0.2172  0.5351
 1288TIP3    H125279   2.461   2.661  15.908 -0.2862  0.4244  1.2583
 1288TIP3    H225280   2.403   2.521  15.901  2.0765 -0.5467 -0.3548
 1289TIP3   OH225281   1.558   1.518   5.600  0.2560 -0.5427  0.1273
 1289TIP3    H125282   1.608   1.467   5.536 -0.3233  0.5086 -1.2152
 1289TIP3    H225283   1.610   1.515   5.680  1.2474 -1.4870 -0.5294
 1290TIP3   OH225284   4.042   6.384   2.606  0.1089  0.4865  0.2710
 1290TIP3    H125285   4.074   6.423   2.525 -1.2677 -0.3899 -0.7404
 1290TIP3    H225286   4.121   6.366   2.657  1.1027 -0.0324 -1.3737
 1291TIP3   OH225287   4.738   1.615   2.091  0.0871 -0.0043  0.5144
 1291TIP3    H125288   4.799   1.689   2.083 -0.1748  0.1418 -0.1763
 1291TIP3    H225289   4.652   1.655   2.099  0.0468 -0.2175  1.3197
 1292TIP3   OH225290   5.450   6.220   1.922  0.4696 -0.1578  0.3834
 1292TIP3    H125291   5.376   6.205   1.981 -0.1189 -2.4206 -0.8120
 1292TIP3    H225292   5.495   6.135   1.918  3.1899  1.1296  1.0710
 1293TIP3   OH225293   3.679   3.823   4.902 -0.0390 -0.3496  0.3735
 1293TIP3    H125294   3.652   3.734   4.882 -2.3788  0.3999 -0.0447
 1293TIP3    H225295   3.683   3.827   4.997 -1.4825 -0.4906  0.4489
 1294TIP3   OH225296   6.218   2.725   2.654 -0.3506 -0.1100 -0.3471
 1294TIP3    H125297   6.143   2.775   2.622 -1.0241 -2.3246 -2.5304
 1294TIP3    H225298   6.181   2.666   2.720 -0.4140 -0.7433 -0.9444
 1295TIP3   OH225299   5.755   3.676   0.267 -0.1653  0.0640 -0.1818
 1295TIP3    H125300   5.796   3.600   0.227  2.1669  0.9123  0.4609
 1295TIP3    H225301   5.799   3.685   0.352  0.5658  2.8552 -0.7727
 1296TIP3   OH225302   1.949   4.951   3.593  0.6905 -0.0190  0.3337
 1296TIP3    H125303   1.891   5.014   3.636  0.6884 -0.5792  1.1819
 1296TIP3    H225304   1.950   4.977   3.501  2.5178  2.6634  1.0002
 1297TIP3   OH225305   1.620   5.395   5.177 -0.2859 -0.2807 -0.3056
 1297TIP3    H125306   1.679   5.390   5.252  0.3822  1.1485 -0.6930
 1297TIP3    H225307   1.661   5.339   5.111  0.6303  0.6362 -0.5430
 1298TIP3   OH225308   4.107   0.954   1.964  0.7333  0.4350 -0.2274
 1298TIP3    H125309   4.079   0.986   1.879  0.1478 -0.2023 -0.2801
 1298TIP3    H225310   4.102   1.030   2.022  0.0211  0.5948 -0.5010
 1299TIP3   OH225311   5.655   3.713  14.123  0.1536 -0.1680 -0.5008
 1299TIP3    H125312   5.705   3.699  14.203  2.8341 -0.0404 -2.0234
 1299TIP3    H225313   5.681   3.641  14.066  0.2403  1.0808 -2.1031
 1300TIP3   OH225314   5.981   2.707  12.202  0.5938  0.1984  0.1415
 1300TIP3    H125315   5.966   2.800  12.187  0.2247  0.4519  1.8496
 1300TIP3    H225316   5.910   2.663  12.155  0.5220  0.8054 -0.3263
 1301TIP3   OH225317   0.803   5.939   5.960  0.6250 -0.0334 -0.7395
 1301TIP3    H125318   0.877   5.962   6.018  0.2303  0.0323 -0.2563
 1301TIP3    H225319   0.739   5.898   6.018 -1.3410  3.1874 -0.3761
 1302TIP3   OH225320   1.091   2.493   2.279  0.0518 -0.0787 -0.0467
 1302TIP3    H125321   1.129   2.511   2.192 -0.3258  1.2268  0.0300
 1302TIP3    H225322   0.997   2.484   2.263 -0.0222  0.1907  0.2227
 1303TIP3   OH225323   0.239   3.363   3.499  0.0929  0.4211 -0.3476
 1303TIP3    H125324   0.295   3.374   3.576  0.2303 -0.4757 -0.3149
 1303TIP3    H225325   0.266   3.280   3.460 -1.3454 -0.1454 -0.2113
 1304TIP3   OH225326   3.737   1.531  16.800  0.1001  0.0990 -0.4299
 1304TIP3    H125327   3.804   1.468  16.776  0.2954  0.0936  0.1378
 1304TIP3    H225328   3.656   1.480  16.803  0.5662 -0.6398  2.2171
 1305TIP3   OH225329   4.989   0.858  12.213 -0.2076  0.3586  0.3765
 1305TIP3    H125330   4.953   0.812  12.289  0.3258  0.4600  0.7017
 1305TIP3    H225331   5.084   0.853  12.225 -0.1173  2.2725  0.8806
 1306TIP3   OH225332   5.224   3.742  10.873  0.0345 -0.1768 -0.2803
 1306TIP3    H125333   5.132   3.740  10.845 -0.1926  0.8994  0.3098
 1306TIP3    H225334   5.270   3.781  10.799 -0.1868  0.3967 -0.1283
 1307TIP3   OH225335   2.247   4.061   4.791 -0.1033 -0.3177  0.8740
 1307TIP3    H125336   2.244   3.972   4.827  1.9253  0.2821  2.6995
 1307TIP3    H225337   2.216   4.117   4.862 -1.5764  0.4721 -0.3323
 1308TIP3   OH225338   3.838   6.331  17.126 -0.2720  0.1844 -0.0610
 1308TIP3    H125339   3.824   6.327  17.031 -0.2248 -0.1239 -0.0567
 1308TIP3    H225340   3.799   6.250  17.159  0.5938 -0.1763  0.0770
 1309TIP3   OH225341   4.900   1.180   1.884 -0.1673  0.0880 -0.1981
 1309TIP3    H125342   4.819   1.229   1.872  0.7558  1.3910 -1.5157
 1309TIP3    H225343   4.881   1.119   1.955 -2.9347 -1.1188 -1.8232
 1310TIP3   OH225344   5.607   3.499  11.810  0.3811 -0.4102 -0.2337
 1310TIP3    H125345   5.703   3.495  11.810  0.3501 -2.3011 -0.1212
 1310TIP3    H225346   5.582   3.454  11.891 -0.5994  0.3289 -0.1209
 1311TIP3   OH225347   3.932   4.206  11.312 -0.1273 -0.4897  0.1871
 1311TIP3    H125348   4.001   4.221  11.248  0.0622  0.2253  0.5384
 1311TIP3    H225349   3.851   4.220  11.263 -0.0144 -0.9619 -0.1378
 1312TIP3   OH225350   4.005   2.113  10.503 -0.0754 -0.2371 -0.1282
 1312TIP3    H125351   4.002   2.168  10.581 -1.5756  0.5799 -0.7237
 1312TIP3    H225352   3.934   2.050  10.516 -0.6511  0.2059 -1.0313
 1313TIP3   OH225353   5.426   3.981  16.693  0.2978 -0.2127  0.6701
 1313TIP3    H125354   5.398   3.924  16.622 -0.9056 -0.1717  1.0903
 1313TIP3    H225355   5.442   3.922  16.767  5.0414 -0.7569 -0.4655
 1314TIP3   OH225356   0.143   1.315   6.684  0.0268 -0.4302  0.6391
 1314TIP3    H125357   0.173   1.388   6.631 -2.3998  1.2530  1.4332
 1314TIP3    H225358   0.101   1.256   6.621  1.9041 -1.2049  0.0143
 1315TIP3   OH225359   5.144   5.681   3.034 -0.0649  0.1478  0.3690
 1315TIP3    H125360   5.048   5.674   3.040 -0.1198 -2.5006 -1.7008
 1315TIP3    H225361   5.159   5.763   2.987 -1.1433  1.6990  2.5827
 1316TIP3   OH225362   2.256   2.044  14.613 -0.0471  0.6570 -0.1559
 1316TIP3    H125363   2.170   2.005  14.632  1.2737 -2.2044  0.4307
 1316TIP3    H225364   2.290   1.993  14.539  1.6677  0.8482  0.4548
 1317TIP3   OH225365   0.614   2.387  13.666  0.0418 -0.3013  0.0980
 1317TIP3    H125366   0.654   2.437  13.737 -1.6182  1.9192 -0.4278
 1317TIP3    H225367   0.684   2.376  13.602  0.6309  0.8360  0.5169
 1318TIP3   OH225368   2.421   2.328   2.297 -0.4759 -0.7365 -0.4672
 1318TIP3    H125369   2.329   2.328   2.270 -0.2557 -0.3242 -1.2770
 1318TIP3    H225370   2.430   2.403   2.356 -0.8761 -1.3958  0.4474
 1319TIP3   OH225371   6.605   6.368   0.232  0.5462  0.1851 -0.1321
 1319TIP3    H125372   6.651   6.397   0.153  0.1349 -1.2855 -0.9530
 1319TIP3    H225373   6.515   6.355   0.203  0.6346 -1.4881  0.2661
 1320TIP3   OH225374   2.951   3.339  15.677  0.2843 -0.0080 -0.0221
 1320TIP3    H125375   2.995   3.421  15.700 -0.1661  0.3254 -0.3293
 1320TIP3    H225376   2.867   3.367  15.640  0.0854 -0.6136 -0.0322
 1321TIP3   OH225377   3.070   0.650  15.860  0.7814 -0.1783  0.6442
 1321TIP3    H125378   3.118   0.608  15.932 -1.1437  0.0657  2.1650
 1321TIP3    H225379   3.138   0.677  15.799  2.3402 -2.6029  1.1517
 1322TIP3   OH225380   3.678   4.642  11.628 -0.7298 -0.0292  0.2387
 1322TIP3    H125381   3.603   4.637  11.688 -0.6832  2.8879  0.6822
 1322TIP3    H225382   3.751   4.672  11.682  0.2549 -0.8391 -0.5931
 1323TIP3   OH225383   1.905   0.257  12.810 -0.0933  0.3538 -0.0275
 1323TIP3    H125384   1.976   0.310  12.775  1.1675 -0.9354  0.5053
 1323TIP3    H225385   1.935   0.232  12.898 -1.2754 -0.0883  0.2680
 1324TIP3   OH225386   1.340   3.129  11.958  0.2628  0.2343 -0.1010
 1324TIP3    H125387   1.315   3.221  11.947 -0.2177  0.5049  2.5731
 1324TIP3    H225388   1.258   3.080  11.947  0.8997 -0.2691 -4.0674
 1325TIP3   OH225389   3.135   1.576  15.553  0.6053  0.1073 -0.5244
 1325TIP3    H125390   3.202   1.510  15.570 -0.1964 -1.0753 -1.7192
 1325TIP3    H225391   3.108   1.560  15.462  0.0577  1.7988 -0.7002
 1326TIP3   OH225392   3.125   0.965   1.611 -0.2249 -0.7065  0.1520
 1326TIP3    H125393   3.191   1.033   1.593 -0.7846 -0.2706 -0.2736
 1326TIP3    H225394   3.042   1.006   1.589 -0.5585 -1.5870 -0.2699
 1327TIP3   OH225395   1.112   0.518   0.046  0.0863 -0.2416  0.7163
 1327TIP3    H125396   1.094   0.612   0.049  0.9228 -0.0907  1.4020
 1327TIP3    H225397   1.202   0.510   0.079 -0.1697 -1.3327  1.1906
 1328TIP3   OH225398   5.812   2.675  15.802  0.2348 -0.0728 -0.0567
 1328TIP3    H125399   5.801   2.734  15.728 -0.9210  0.4298  0.4880
 1328TIP3    H225400   5.838   2.592  15.762 -1.0411 -0.0072 -1.1196
 1329TIP3   OH225401   4.583   2.083  13.699 -0.2551 -0.1733 -0.1762
 1329TIP3    H125402   4.497   2.125  13.690 -0.5644 -0.5109  1.0899
 1329TIP3    H225403   4.645   2.153  13.677 -0.6652  1.6712  3.6018
 1330TIP3   OH225404   2.272   4.813   1.706 -0.0759  0.5660  0.7380
 1330TIP3    H125405   2.252   4.825   1.613 -0.0856  1.0764  0.8036
 1330TIP3    H225406   2.189   4.829   1.751  0.1287  1.1854  0.8998
 1331TIP3   OH225407   6.598   2.844  11.738  0.4051 -0.5803  0.3525
 1331TIP3    H125408   6.682   2.802  11.752 -0.4646 -1.9127  1.8940
 1331TIP3    H225409   6.577   2.828  11.646  1.2117 -1.3990  0.3086
 1332TIP3   OH225410   2.166   3.545  12.802  0.4639  0.1732  0.0536
 1332TIP3    H125411   2.163   3.452  12.784 -0.8315  0.1927  0.0592
 1332TIP3    H225412   2.208   3.552  12.888 -0.5402 -0.5177  0.6265
 1333TIP3   OH225413   4.288   6.366   1.838  0.5370  0.0229 -0.0074
 1333TIP3    H125414   4.253   6.289   1.793  0.4958  1.2953 -2.3001
 1333TIP3    H225415   4.345   6.330   1.906 -1.3132 -2.0257  0.5778
 1334TIP3   OH225416   2.100   2.261  13.348 -0.0599  0.0163  0.2172
 1334TIP3    H125417   2.188   2.297  13.361 -1.6749  5.4458 -1.0865
 1334TIP3    H225418   2.094   2.248  13.253 -0.4811 -1.0248  0.3791
 1335TIP3   OH225419   1.974   6.051  12.920 -0.0743 -0.2890 -0.0214
 1335TIP3    H125420   2.046   6.051  12.857  1.2894  0.8603  1.4643
 1335TIP3    H225421   1.970   5.960  12.950  0.6938 -0.3848 -0.1814
 1336TIP3   OH225422   0.164   6.031   0.026  0.5384  0.1391 -0.2787
 1336TIP3    H125423   0.096   5.964   0.014 -0.2193  0.8085  0.1798
 1336TIP3    H225424   0.158   6.055   0.118  0.3760  1.2740 -0.5661
 1337TIP3   OH225425   1.124   3.618   1.450 -0.4847  0.2585 -0.1016
 1337TIP3    H125426   1.131   3.546   1.513 -0.7947 -0.0444 -0.4130
 1337TIP3    H225427   1.201   3.609   1.394 -0.6936 -0.0227 -0.3422
 1338TIP3   OH225428   0.033   6.332   4.446  0.1470 -0.1280  0.0706
 1338TIP3    H125429  -0.040   6.333   4.385  0.6797  1.2687 -0.5753
 1338TIP3    H225430   0.090   6.403   4.417  2.2043 -1.7061  0.0051
 1339TIP3   OH225431   1.798   2.201   4.181  0.1768  0.2584  0.6018
 1339TIP3    H125432   1.833   2.143   4.114 -0.2215  0.9795 -0.2489
 1339TIP3    H225433   1.786   2.145   4.258  2.7380 -0.1496  0.8193
 1340TIP3   OH225434   1.809   1.112  16.329  0.1002 -0.4661  0.6508
 1340TIP3    H125435   1.715   1.114  16.308  0.4041 -1.5102 -1.0349
 1340TIP3    H225436   1.818   1.040  16.391 -0.0755 -1.0595 -0.0070
 1341TIP3   OH225437   0.653   3.899   3.309 -0.5709  0.2261 -0.2675
 1341TIP3    H125438   0.693   3.899   3.396  0.9167  0.3321 -0.9225
 1341TIP3    H225439   0.651   3.807   3.283 -0.9319  0.2028 -0.1573
 1342TIP3   OH225440   5.575   2.164   3.092  0.0654 -0.3786  0.1232
 1342TIP3    H125441   5.514   2.205   3.031  1.9096 -0.1147 -1.6585
 1342TIP3    H225442   5.587   2.076   3.059  2.1388  0.1867 -0.8236
 1343TIP3   OH225443   5.898   5.799  14.983  0.1225 -0.4250  0.4680
 1343TIP3    H125444   5.940   5.755  15.057  0.8433 -1.1042 -0.3192
 1343TIP3    H225445   5.891   5.731  14.915 -1.0755  0.0216  0.1084
 1344TIP3   OH225446   6.149   2.312  13.220  0.4155  0.5524  0.1558
 1344TIP3    H125447   6.228   2.261  13.202 -0.4139  0.1708 -2.9428
 1344TIP3    H225448   6.141   2.370  13.145 -1.8363  1.1628  0.8039
 1345TIP3   OH225449   1.195   3.834   6.452 -0.0642  0.1641 -0.5891
 1345TIP3    H125450   1.153   3.862   6.534  2.3421  0.9080  0.4716
 1345TIP3    H225451   1.262   3.772   6.480  0.2764 -0.1984 -2.1222
 1346TIP3   OH225452   1.254   4.742   4.975 -0.4688  0.2547 -0.4728
 1346TIP3    H125453   1.289   4.757   4.888  0.8152 -0.0805 -0.0325
 1346TIP3    H225454   1.286   4.655   5.000  1.0004  1.2087  1.1636
 1347TIP3   OH225455   6.059   1.252   2.833  0.0412 -0.7689 -0.1589
 1347TIP3    H125456   6.029   1.190   2.899  0.6755  0.3333  1.2073
 1347TIP3    H225457   6.026   1.337   2.861 -0.5380 -0.3968 -1.8225
 1348TIP3   OH225458   5.433   1.042  11.267  0.0937 -0.1340 -0.3413
 1348TIP3    H125459   5.377   1.119  11.261  1.1776  0.9294  2.0688
 1348TIP3    H225460   5.380   0.976  11.311 -0.7861 -0.8000 -2.2809
 1349TIP3   OH225461   3.771   5.326   5.421 -0.4774 -0.1402 -0.1138
 1349TIP3    H125462   3.782   5.397   5.358 -0.3354  2.3226  2.5052
 1349TIP3    H225463   3.810   5.359   5.502 -1.2720 -2.8499  1.5082
 1350TIP3   OH225464   1.270   4.086  11.515  0.1749 -0.3391  0.1044
 1350TIP3    H125465   1.342   4.023  11.508 -0.2632 -1.0556  1.5738
 1350TIP3    H225466   1.198   4.035  11.553 -0.9747  0.4728 -0.9110
 1351TIP3   OH225467   0.730   3.221  17.106  0.0895  0.1649 -0.2760
 1351TIP3    H125468   0.650   3.268  17.129  0.1481 -0.2936  0.9654
 1351TIP3    H225469   0.779   3.281  17.051 -0.6580  0.8419 -0.2113
 1352TIP3   OH225470   4.986   3.617   0.109 -0.1392  0.1163  0.0199
 1352TIP3    H125471   5.074   3.580   0.100  0.1601  0.2038  2.1626
 1352TIP3    H225472   4.942   3.560   0.172 -1.3626  0.5640 -0.3916
 1353TIP3   OH225473   0.359   0.013  13.888  0.0090  0.4970  0.2029
 1353TIP3    H125474   0.421   0.085  13.876 -1.3584  2.1610  2.3378
 1353TIP3    H225475   0.306   0.015  13.808 -0.1345  2.0525  0.2913
 1354TIP3   OH225476   1.659   3.541  17.260  0.0999 -0.2918 -0.3152
 1354TIP3    H125477   1.754   3.531  17.248  0.1805  1.4802 -1.4726
 1354TIP3    H225478   1.651   3.618  17.317 -0.6551 -0.3515 -0.3410
 1355TIP3   OH225479   6.439   1.248   1.412  0.2288 -0.6898 -0.4519
 1355TIP3    H125480   6.364   1.221   1.465 -0.2158 -0.2304 -0.8349
 1355TIP3    H225481   6.515   1.225   1.464 -0.1681 -1.6077 -0.2689
 1356TIP3   OH225482   4.864   5.275   3.053 -0.5326  0.3206  0.4631
 1356TIP3    H125483   4.798   5.209   3.030  1.8755 -2.3145  0.5896
 1356TIP3    H225484   4.913   5.289   2.972 -1.1292  2.1758  0.3923
 1357TIP3   OH225485   3.628   5.730   2.406  0.5620 -0.1176  0.4631
 1357TIP3    H125486   3.563   5.705   2.471 -0.8009  1.1897 -0.3428
 1357TIP3    H225487   3.616   5.668   2.335  1.3541 -0.9083  1.0021
 1358TIP3   OH225488   1.296   0.654  11.255 -0.1567 -0.8934  0.0632
 1358TIP3    H125489   1.376   0.704  11.242 -1.1115  0.8269  0.5374
 1358TIP3    H225490   1.278   0.659  11.349 -1.1574 -0.7146 -0.1260
 1359TIP3   OH225491   5.915   4.346  11.181  0.0933  0.7182  0.0883
 1359TIP3    H125492   5.875   4.356  11.267 -1.6611  0.8951 -0.7127
 1359TIP3    H225493   5.916   4.251  11.166  0.9348  0.6492  0.5260
 1360TIP3   OH225494   3.782   0.103   3.490 -0.4671  0.0210  0.1491
 1360TIP3    H125495   3.861   0.129   3.443 -0.4284 -0.1259  0.1324
 1360TIP3    H225496   3.747   0.029   3.440  0.2610 -0.9673  1.0285
 1361TIP3   OH225497   3.849   1.507   4.723 -0.0887  0.2445  0.2389
 1361TIP3    H125498   3.815   1.532   4.638 -0.0238  0.5780  0.3113
 1361TIP3    H225499   3.944   1.501   4.711 -0.2018 -1.3996 -0.1543
 1362TIP3   OH225500   0.145   2.547   4.910  0.1093 -0.6992 -0.3620
 1362TIP3    H125501   0.156   2.638   4.883 -1.2826 -0.1555  0.7268
 1362TIP3    H225502   0.212   2.534   4.977 -0.7302  0.0872  0.6708
 1363TIP3   OH225503   5.570   4.717  13.408 -0.3385  0.1554  0.4395
 1363TIP3    H125504   5.477   4.733  13.422 -0.8768 -0.9201 -1.5271
 1363TIP3    H225505   5.579   4.622  13.414  0.5801  0.2297  0.3505
 1364TIP3   OH225506   2.999   6.305   5.400  0.3405  0.0119 -0.6698
 1364TIP3    H125507   2.920   6.290   5.452 -0.3180  2.0936 -0.9881
 1364TIP3    H225508   3.028   6.217   5.375 -1.1207 -0.8690  0.5367
 1365TIP3   OH225509   2.963   5.738  16.826  0.0630  0.5398  0.2368
 1365TIP3    H125510   2.927   5.751  16.738  0.5510 -2.5360 -0.5556
 1365TIP3    H225511   2.888   5.747  16.884 -0.4072  1.9691 -0.5562
 1366TIP3   OH225512   6.496   1.151   2.509 -0.2199 -0.2691 -0.1174
 1366TIP3    H125513   6.508   1.234   2.555  0.3468  0.4793 -1.5416
 1366TIP3    H225514   6.583   1.111   2.509 -0.2412 -0.3225 -0.3816
 1367TIP3   OH225515   4.079   5.371   4.180  0.8722  0.6691  0.4540
 1367TIP3    H125516   4.051   5.462   4.163 -0.3486 -0.0136 -1.6559
 1367TIP3    H225517   4.002   5.319   4.160  1.6983 -0.8895  1.1969
 1368TIP3   OH225518   0.272   1.314   3.918  0.5097  0.6059 -0.0682
 1368TIP3    H125519   0.198   1.359   3.959  1.0964  0.4979  1.1665
 1368TIP3    H225520   0.257   1.221   3.938  1.4356  0.6680  1.0046
 1369TIP3   OH225521   6.465   5.130   1.861 -0.6054 -0.1565  0.8251
 1369TIP3    H125522   6.484   5.047   1.905  1.2730 -0.8342 -1.0944
 1369TIP3    H225523   6.416   5.104   1.782  1.0706  0.3612 -0.4380
 1370TIP3   OH225524   2.480   1.390   3.984  0.2978  0.1877 -0.4701
 1370TIP3    H125525   2.445   1.303   3.963 -0.4409  0.2867  0.2995
 1370TIP3    H225526   2.445   1.410   4.070  0.5138  1.2337 -0.6105
 1371TIP3   OH225527   1.854   3.781  14.023  0.3997 -0.4143  0.3345
 1371TIP3    H125528   1.769   3.804  14.061  1.0041  0.8752  0.9666
 1371TIP3    H225529   1.844   3.690  13.996 -0.9459 -0.5149  1.0774
 1372TIP3   OH225530   0.348   3.691   0.758  0.3461 -0.1735  0.7663
 1372TIP3    H125531   0.267   3.641   0.771  0.7219 -0.2984  3.0207
 1372TIP3    H225532   0.340   3.764   0.819  2.8544 -1.3955  2.7208
 1373TIP3   OH225533   3.643   3.024  13.471 -0.0361 -0.1030  0.4622
 1373TIP3    H125534   3.562   3.052  13.429 -0.2903 -0.3531  0.7756
 1373TIP3    H225535   3.657   2.934  13.441  0.2438  0.0124  0.2386
 1374TIP3   OH225536   0.353   4.107   5.335  0.6361  0.7155 -0.2183
 1374TIP3    H125537   0.362   4.012   5.326 -0.0149  0.5257  1.0142
 1374TIP3    H225538   0.312   4.119   5.420 -0.8266  2.0200 -1.0571
 1375TIP3   OH225539   6.191   2.950  16.476  0.2704 -0.0095 -0.2725
 1375TIP3    H125540   6.269   3.005  16.489  0.1341  0.3438 -0.8962
 1375TIP3    H225541   6.120   2.999  16.516  0.2535 -0.0123 -0.2993
 1376TIP3   OH225542   5.512   6.357   5.251  0.2051  0.2894  0.3840
 1376TIP3    H125543   5.589   6.409   5.228 -0.5906  0.6792 -1.6266
 1376TIP3    H225544   5.466   6.409   5.316  0.9866  0.6373  0.6680
 1377TIP3   OH225545   4.551   2.680   1.595 -0.3217  0.1756  0.1380
 1377TIP3    H125546   4.615   2.712   1.659 -0.5678  1.0398 -0.0287
 1377TIP3    H225547   4.541   2.587   1.615 -0.2133  0.3749  1.2073
 1378TIP3   OH225548   2.301   2.509   2.708 -0.2629 -0.0683  0.2661
 1378TIP3    H125549   2.347   2.504   2.624 -3.0801  0.7800 -1.4591
 1378TIP3    H225550   2.330   2.592   2.747 -0.0253  0.2678 -0.6058
 1379TIP3   OH225551   3.829   5.519  11.736 -0.8249 -0.3416  0.4019
 1379TIP3    H125552   3.863   5.608  11.736 -1.5334 -0.0447 -0.9301
 1379TIP3    H225553   3.756   5.521  11.674 -2.7275 -1.1770  2.4715
 1380TIP3   OH225554   3.177   5.546   2.530 -0.2784 -0.8241  0.2195
 1380TIP3    H125555   3.180   5.556   2.625  2.8649  1.3779  0.0323
 1380TIP3    H225556   3.252   5.492   2.508  0.8015  1.0972 -1.1419
 1381TIP3   OH225557   4.351   2.876  14.230 -0.1394  0.0629  0.0039
 1381TIP3    H125558   4.269   2.923  14.217 -0.5784 -0.5897  0.3686
 1381TIP3    H225559   4.327   2.784  14.223 -0.1631 -0.3634  3.5724
 1382TIP3   OH225560   6.124   2.321   5.337 -0.3352  0.6132  0.9892
 1382TIP3    H125561   6.204   2.326   5.284 -1.6107  0.0041 -1.1181
 1382TIP3    H225562   6.084   2.238   5.313 -1.7509  1.0343  1.7748
 1383TIP3   OH225563   6.497   4.292  12.950  0.1512 -0.0760  0.4120
 1383TIP3    H125564   6.482   4.198  12.944  0.1460 -0.0951  0.7120
 1383TIP3    H225565   6.591   4.301  12.964  0.2882  0.0025 -0.4866
 1384TIP3   OH225566   2.264   0.315  11.876 -0.1525 -0.6240 -0.2998
 1384TIP3    H125567   2.356   0.292  11.882 -0.0807 -0.3465 -0.3151
 1384TIP3    H225568   2.240   0.340  11.965  0.7323  2.8216 -0.8867
 1385TIP3   OH225569   2.473   3.353  14.171  0.0204  0.8236  0.3413
 1385TIP3    H125570   2.563   3.368  14.142 -0.0598  0.4216 -0.1219
 1385TIP3    H225571   2.453   3.429  14.226  0.1102  1.7166 -0.8160
 1386TIP3   OH225572   5.512   0.918  14.664  0.4924 -0.3641 -0.8595
 1386TIP3    H125573   5.425   0.956  14.650 -0.0845 -1.4939 -0.4565
 1386TIP3    H225574   5.572   0.991  14.650 -0.5334  0.5116 -0.8663
 1387TIP3   OH225575   3.907   5.499  14.215 -0.5165  1.3535 -0.0140
 1387TIP3    H125576   3.894   5.442  14.139  2.3074 -1.2406  1.2340
 1387TIP3    H225577   3.834   5.480  14.273  0.4092 -1.2090  0.4118
 1388TIP3   OH225578   1.985   4.512   6.804  0.3351  0.2793 -0.3858
 1388TIP3    H125579   2.027   4.426   6.813 -1.8849 -0.9272 -0.7052
 1388TIP3    H225580   1.973   4.523   6.710 -0.7817  0.1726 -0.2769
 1389TIP3   OH225581   6.639   3.175  16.961 -0.5183  0.0721  0.2332
 1389TIP3    H125582   6.715   3.232  16.953 -1.2592  1.1505  0.5235
 1389TIP3    H225583   6.567   3.225  16.921 -0.9707 -1.1548 -0.5502
 1390TIP3   OH225584   6.468   3.604  13.063  0.9270 -0.1959  0.3511
 1390TIP3    H125585   6.379   3.605  13.028  0.0732 -3.3357  1.9729
 1390TIP3    H225586   6.466   3.536  13.131  4.8635 -1.3277 -0.3754
 1391TIP3   OH225587   4.908   4.680  11.544 -0.5405 -0.2059  0.8207
 1391TIP3    H125588   4.959   4.723  11.476 -0.2859 -0.8260  0.6166
 1391TIP3    H225589   4.866   4.606  11.501  1.1154 -1.7446  1.6972
 1392TIP3   OH225590   4.757   2.086   3.028  0.3291  0.3522  0.2932
 1392TIP3    H125591   4.735   2.029   2.955  3.5054  0.7607 -1.1553
 1392TIP3    H225592   4.688   2.151   3.030  0.4422  0.7170 -2.8416
 1393TIP3   OH225593   4.248   0.379   1.333 -0.2380 -0.0110 -0.2924
 1393TIP3    H125594   4.186   0.336   1.393  0.0452 -1.3776 -0.9352
 1393TIP3    H225595   4.257   0.468   1.367 -0.5617 -0.5631  1.3274
 1394TIP3   OH225596   2.688   1.251  12.865  0.4048  0.4969 -0.0172
 1394TIP3    H125597   2.771   1.212  12.842  0.1456 -1.4779  2.0420
 1394TIP3    H225598   2.711   1.336  12.904  1.4547  0.0249  0.4255
 1395TIP3   OH225599   6.437   4.540   4.946 -0.2922  0.0069  0.2292
 1395TIP3    H125600   6.515   4.595   4.937  1.2331 -1.7426  1.7527
 1395TIP3    H225601   6.409   4.553   5.037 -1.8103  0.6096 -0.2981
 1396TIP3   OH225602   0.100   0.919   2.674 -0.3802  0.4626 -0.1986
 1396TIP3    H125603   0.124   0.827   2.682 -1.8428 -0.0401 -1.1373
 1396TIP3    H225604   0.097   0.951   2.764 -1.4797 -0.8767  0.2702
 1397TIP3   OH225605   6.410   6.516   5.782 -0.1080  0.5224 -0.1725
 1397TIP3    H125606   6.493   6.562   5.774 -0.8724  2.2555  1.1277
 1397TIP3    H225607   6.389   6.488   5.693  1.7066  0.2772 -0.5636
 1398TIP3   OH225608   6.697   6.429   1.093  0.1525 -0.3428  0.6255
 1398TIP3    H125609   6.632   6.481   1.140 -0.4616  1.0635 -1.5862
 1398TIP3    H225610   6.721   6.359   1.153 -1.1967  0.8271  2.6308
 1399TIP3   OH225611   1.921   4.725   0.694  0.5934 -0.4253  0.2287
 1399TIP3    H125612   1.863   4.801   0.692  0.4687 -0.4599  1.6805
 1399TIP3    H225613   1.928   4.698   0.602 -0.2533  0.6508 -0.1752
 1400TIP3   OH225614   0.046   2.609  12.147 -0.3750  0.0142 -0.0577
 1400TIP3    H125615   0.126   2.645  12.187  0.3843 -1.3746 -0.2728
 1400TIP3    H225616   0.033   2.662  12.068 -1.9314  2.8442  1.9316
 1401TIP3   OH225617   0.755   2.437   1.590 -0.2580  0.1384 -0.2864
 1401TIP3    H125618   0.660   2.452   1.589 -0.6035 -1.6230  1.2921
 1401TIP3    H225619   0.768   2.357   1.540  0.0070 -1.1593  1.7147
 1402TIP3   OH225620   3.783   4.392   2.938 -0.1335 -0.7615  0.2178
 1402TIP3    H125621   3.784   4.296   2.936 -0.3786 -0.7664  0.3391
 1402TIP3    H225622   3.721   4.417   2.869 -0.8874 -0.7150  0.8990
 1403TIP3   OH225623   4.548   5.340   2.947 -0.3214  0.1367 -0.3608
 1403TIP3    H125624   4.543   5.403   2.874 -4.4207 -1.0623 -1.3975
 1403TIP3    H225625   4.599   5.267   2.912 -0.3833  0.5142 -1.2744
 1404TIP3   OH225626   3.011   1.821   3.369  0.2164  0.2341 -0.5391
 1404TIP3    H125627   3.083   1.880   3.390 -0.5388  1.2479 -0.7393
 1404TIP3    H225628   2.998   1.831   3.275  0.2709 -0.4853 -0.6284
 1405TIP3   OH225629   2.749   2.100   1.305  0.1540  0.6886 -0.4880
 1405TIP3    H125630   2.669   2.149   1.325  0.0478  0.0114  0.8892
 1405TIP3    H225631   2.726   2.008   1.319  1.3438  0.5273  0.6825
 1406TIP3   OH225632   1.807   3.890  10.927 -0.1449  0.2415  0.0515
 1406TIP3    H125633   1.839   3.950  10.859  2.5238  1.7933  2.4597
 1406TIP3    H225634   1.838   3.804  10.899  0.9555  0.8471 -0.6822
 1407TIP3   OH225635   1.968   0.243   0.648 -0.0183 -0.5723  1.1147
 1407TIP3    H125636   1.929   0.226   0.733  1.0488 -2.5925  1.2645
 1407TIP3    H225637   2.060   0.265   0.667 -0.3525  1.5567  0.6031
 1408TIP3   OH225638   2.580   2.864  13.873 -0.2822  0.0308 -0.2535
 1408TIP3    H125639   2.561   2.859  13.967  0.7621  0.4018  0.0000
 1408TIP3    H225640   2.569   2.774  13.842 -1.2511  0.0184  0.0849
 1409TIP3   OH225641   2.824   5.802  16.614 -0.4694 -0.1890  0.3945
 1409TIP3    H125642   2.893   5.749  16.574  0.4242  0.9437  0.3833
 1409TIP3    H225643   2.743   5.774  16.571  0.2417 -0.2096 -0.9722
 1410TIP3   OH225644   3.490   0.992   1.528  0.0468  0.6417  0.5850
 1410TIP3    H125645   3.453   1.079   1.513 -1.1936  0.1178  0.4488
 1410TIP3    H225646   3.575   1.008   1.570 -0.0219  1.9140  0.2561
 1411TIP3   OH225647   5.109   1.051   6.338 -0.0079  0.0633  0.2216
 1411TIP3    H125648   5.072   0.963   6.339  1.4866 -0.6404  2.7785
 1411TIP3    H225649   5.069   1.094   6.414 -1.3458  1.9453 -1.4511
 1412TIP3   OH225650   6.294   5.996  13.136 -0.0654  0.4758  0.3674
 1412TIP3    H125651   6.385   6.011  13.163 -0.5543  0.4064  2.1702
 1412TIP3    H225652   6.301   5.936  13.062  1.3856  1.1093 -0.0533
 1413TIP3   OH225653   2.422   2.074  11.415 -0.0073 -0.3017 -0.4278
 1413TIP3    H125654   2.463   1.991  11.441 -0.2139 -0.2778 -0.0187
 1413TIP3    H225655   2.408   2.066  11.321 -1.3692 -1.3169 -0.1547
 1414TIP3   OH225656   5.461   6.057   3.199  0.7239 -0.1981 -0.5396
 1414TIP3    H125657   5.528   5.995   3.226 -0.1692 -1.0558 -0.2687
 1414TIP3    H225658   5.439   6.106   3.278  0.2005 -0.7205 -0.3539
 1415TIP3   OH225659   1.480   2.575   0.230 -0.2476 -0.4123  0.0530
 1415TIP3    H125660   1.546   2.639   0.257  0.6432 -0.4878 -1.7701
 1415TIP3    H225661   1.489   2.503   0.293 -1.2780  1.1922  2.1360
 1416TIP3   OH225662   3.702   1.012   3.150  0.6217  0.2944 -0.4188
 1416TIP3    H125663   3.786   1.055   3.134  1.7118 -1.4892  0.1222
 1416TIP3    H225664   3.678   1.038   3.239  1.8455 -0.9832  0.3425
 1417TIP3   OH225665   1.733   4.139   4.544 -0.3525  0.0723  0.1220
 1417TIP3    H125666   1.803   4.093   4.498 -0.3081  1.3007 -1.1165
 1417TIP3    H225667   1.775   4.174   4.622  0.6246  1.3300 -0.9189
 1418TIP3   OH225668   1.744   2.002  11.713 -0.1836 -0.5590  0.0602
 1418TIP3    H125669   1.709   1.995  11.624  1.5708 -2.0525 -0.5793
 1418TIP3    H225670   1.796   2.082  11.712 -1.0761  0.0215  0.0808
 1419TIP3   OH225671   6.610   3.965  15.561  0.1479 -0.6101  0.4126
 1419TIP3    H125672   6.524   3.978  15.522 -0.3122  0.1232  1.6116
 1419TIP3    H225673   6.672   4.004  15.499 -0.5715  0.6327  0.4486
 1420TIP3   OH225674   2.791   3.548  11.222  0.2092  0.0857  0.5773
 1420TIP3    H125675   2.756   3.517  11.306 -0.0232 -0.2491  0.3603
 1420TIP3    H225676   2.885   3.530  11.227 -0.1428 -2.2321 -0.1972
 1421TIP3   OH225677   4.457   3.709   0.736 -0.1239  0.4808 -0.9686
 1421TIP3    H125678   4.454   3.775   0.667  1.2387  1.8501  0.1970
 1421TIP3    H225679   4.472   3.759   0.817  1.0793 -1.2453 -0.0551
 1422TIP3   OH225680   5.790   4.761  11.168 -0.0437  0.9880 -1.0480
 1422TIP3    H125681   5.878   4.739  11.197 -0.8992  0.4573  1.3959
 1422TIP3    H225682   5.802   4.830  11.104  2.0732  2.7597  1.0923
 1423TIP3   OH225683   5.874   5.926   3.960  0.4454 -0.1585  0.1456
 1423TIP3    H125684   5.884   5.858   4.026 -0.8296 -0.5735 -0.0604
 1423TIP3    H225685   5.832   5.999   4.006 -1.8061 -0.9893 -0.4850
 1424TIP3   OH225686   4.401   5.052  11.752  0.3221 -0.5657 -0.4793
 1424TIP3    H125687   4.482   5.047  11.701  0.1354 -1.2199 -0.7290
 1424TIP3    H225688   4.415   5.124  11.814  0.8913 -0.3375 -0.8660
 1425TIP3   OH225689   0.139   3.162   6.118 -0.4826  0.0026  0.2350
 1425TIP3    H125690   0.163   3.231   6.056  1.8349 -0.3600  0.6638
 1425TIP3    H225691   0.193   3.178   6.195  0.1950 -2.3223  0.3223
 1426TIP3   OH225692   3.507   4.562   3.039  0.3676  0.0702  0.2098
 1426TIP3    H125693   3.513   4.530   2.949  2.5007  1.2615 -0.1351
 1426TIP3    H225694   3.513   4.483   3.093  2.1700 -0.4352 -0.6657
 1427TIP3   OH225695   0.714   5.994   4.121 -0.7190 -0.1746  0.1593
 1427TIP3    H125696   0.731   5.940   4.044  1.7067  1.0563 -0.2934
 1427TIP3    H225697   0.748   6.080   4.097 -0.7360  0.4898  2.2949
 1428TIP3   OH225698   2.759   0.595   3.920  0.4140  0.0977 -0.1577
 1428TIP3    H125699   2.723   0.554   3.841 -1.0340 -1.9962  1.4748
 1428TIP3    H225700   2.699   0.569   3.990  1.8540  1.5466  1.7183
 1429TIP3   OH225701   5.010   0.282  13.054 -0.0554  0.3808  0.2163
 1429TIP3    H125702   5.033   0.295  13.146  1.2051  0.1084 -0.0394
 1429TIP3    H225703   4.932   0.335  13.042 -1.8408 -1.6163  2.0752
 1430TIP3   OH225704   4.479   0.256   0.904  0.1902  0.1638  0.1053
 1430TIP3    H125705   4.385   0.264   0.889  0.3608 -0.0259 -1.1631
 1430TIP3    H225706   4.488   0.187   0.969 -0.5208 -0.2545 -0.2344
 1431TIP3   OH225707   6.495   4.336  10.965 -0.3201  0.0767 -0.4629
 1431TIP3    H125708   6.499   4.310  11.057 -0.4886 -0.7710 -0.6848
 1431TIP3    H225709   6.555   4.276  10.920  1.4644  1.8855 -0.6185
 1432TIP3   OH225710   0.901   6.088  13.513 -0.4182 -0.1934 -0.2826
 1432TIP3    H125711   0.981   6.060  13.558  0.5008  0.4256 -1.4720
 1432TIP3    H225712   0.864   6.155  13.571 -0.2324 -0.6849  0.4129
 1433TIP3   OH225713   2.446   3.101  16.815 -0.6477 -0.6570  0.0732
 1433TIP3    H125714   2.484   3.022  16.777 -0.5498 -0.6938  0.2499
 1433TIP3    H225715   2.387   3.069  16.883 -1.1402 -0.6115 -0.3168
 1434TIP3   OH225716   5.901   3.878   5.010  0.4854  0.3465  0.4076
 1434TIP3    H125717   5.840   3.887   5.083  0.0761  0.8159  0.0126
 1434TIP3    H225718   5.958   3.805   5.036 -0.0955  0.0469  0.8778
 1435TIP3   OH225719   3.150   5.468   6.431 -0.5730 -0.2077 -0.2897
 1435TIP3    H125720   3.159   5.531   6.503  2.8292 -0.9240  0.0664
 1435TIP3    H225721   3.064   5.488   6.393 -1.1053  2.3352  1.9179
 1436TIP3   OH225722   1.070   1.897  12.680 -0.5342  0.3201  0.9784
 1436TIP3    H125723   0.992   1.843  12.695 -0.6912  0.4037  0.4831
 1436TIP3    H225724   1.063   1.924  12.588  0.4613 -0.2777  0.7191
 1437TIP3   OH225725   1.346   6.230   5.631 -0.8425 -0.1867 -0.1095
 1437TIP3    H125726   1.364   6.316   5.593 -1.2762 -0.6638 -1.4370
 1437TIP3    H225727   1.347   6.245   5.726 -1.3796  1.3690 -0.3253
 1438TIP3   OH225728   3.996   3.676   0.312 -0.0203  0.5010  0.1750
 1438TIP3    H125729   3.951   3.635   0.238 -0.0564  0.9234 -0.0398
 1438TIP3    H225730   3.941   3.750   0.335  0.3147  0.7375  0.2216
 1439TIP3   OH225731   6.395   2.848   5.755 -0.3891  0.4049 -0.7524
 1439TIP3    H125732   6.384   2.919   5.818  0.5983  0.6304 -0.8198
 1439TIP3    H225733   6.475   2.803   5.783  0.2663  0.7233 -2.0220
 1440TIP3   OH225734   3.647   0.551   5.229  0.1090  0.2388 -0.5755
 1440TIP3    H125735   3.726   0.512   5.266  0.0253  1.3085  0.8255
 1440TIP3    H225736   3.597   0.477   5.194  0.7436 -0.7060  0.4525
 1441TIP3   OH225737   4.083   4.906   3.303 -0.7299  0.6297 -0.5057
 1441TIP3    H125738   4.062   4.918   3.396  1.8135  0.2770  0.1750
 1441TIP3    H225739   4.073   4.812   3.288  2.6921 -0.0508  0.5709
 1442TIP3   OH225740   4.954   5.553   0.960 -0.1701 -0.1097  0.2881
 1442TIP3    H125741   5.002   5.476   0.990  1.8623  0.9061 -0.1425
 1442TIP3    H225742   4.900   5.578   1.035 -1.0909 -2.0787  0.3357
 1443TIP3   OH225743   1.397   0.681  16.153 -0.4999 -0.1794  0.3021
 1443TIP3    H125744   1.301   0.685  16.157 -0.4490  0.8978  0.7624
 1443TIP3    H225745   1.417   0.588  16.156 -1.5640 -0.4646 -0.6046
 1444TIP3   OH225746   3.765   4.306   5.371 -0.0894  0.3846 -0.7538
 1444TIP3    H125747   3.789   4.328   5.281 -1.8932 -0.0280 -1.3875
 1444TIP3    H225748   3.716   4.382   5.402 -0.6728 -0.0406 -0.6212
 1445TIP3   OH225749   2.918   3.375   2.791 -0.4437  0.4082 -0.9625
 1445TIP3    H125750   2.955   3.293   2.824 -0.9226  0.4604 -0.2894
 1445TIP3    H225751   2.986   3.411   2.734  1.3251  1.4094  1.6226
 1446TIP3   OH225752   5.899   1.327   3.045 -0.1481  0.4344  0.1180
 1446TIP3    H125753   5.965   1.327   3.114 -0.0540  0.0987  0.0321
 1446TIP3    H225754   5.817   1.304   3.089  0.0805 -0.7201 -0.0268
 1447TIP3   OH225755   5.669   5.948  14.910 -0.2770  0.0487 -0.5334
 1447TIP3    H125756   5.748   5.903  14.940 -0.0640  0.6772 -0.1056
 1447TIP3    H225757   5.604   5.929  14.977 -0.1124  0.5725 -0.2159
 1448TIP3   OH225758   0.772   3.387   0.514  0.1833  0.0642  0.0142
 1448TIP3    H125759   0.720   3.372   0.593  0.1809  0.0533  0.0106
 1448TIP3    H225760   0.796   3.480   0.519 -0.3113  0.2063 -0.2668
 1449TIP3   OH225761   2.135   6.166  16.318  0.2080  0.4973 -0.2264
 1449TIP3    H125762   2.215   6.140  16.273 -0.0608  1.0153 -1.0152
 1449TIP3    H225763   2.143   6.260  16.331 -1.2101  0.9711 -2.3043
 1450TIP3   OH225764   5.066   0.229  13.329  0.2327  0.4606 -0.4393
 1450TIP3    H125765   5.104   0.302  13.378 -0.0263  0.6390 -0.4995
 1450TIP3    H225766   5.095   0.151  13.376  0.2416  0.6181 -0.1805
 1451TIP3   OH225767   4.222   4.468   5.016  0.1275  0.3812 -0.0729
 1451TIP3    H125768   4.168   4.515   4.952 -0.7521  2.8367  2.2404
 1451TIP3    H225769   4.182   4.381   5.022 -3.5022  1.9376  1.2007
 1452TIP3   OH225770   5.654   1.024  13.743  1.0154 -0.4984 -0.2442
 1452TIP3    H125771   5.709   1.098  13.717  1.9221 -0.8403  0.6229
 1452TIP3    H225772   5.675   0.955  13.679  0.6914 -0.2432 -0.6321
 1453TIP3   OH225773   2.112   5.793  16.638  0.5632  0.1534 -0.4000
 1453TIP3    H125774   2.131   5.868  16.695 -1.1713 -0.0728  0.5236
 1453TIP3    H225775   2.057   5.829  16.569  0.1679 -0.1620 -0.2503
 1454TIP3   OH225776   0.098   5.583   3.102 -0.0234 -0.2623  0.3002
 1454TIP3    H125777   0.105   5.652   3.168  0.6031 -2.0618  2.2010
 1454TIP3    H225778   0.058   5.509   3.148 -0.8567 -1.1538 -1.7230
 1455TIP3   OH225779   5.467   6.665  13.719  0.2460  0.0325  0.4273
 1455TIP3    H125780   5.418   6.690  13.797  3.0057  0.2735  2.2132
 1455TIP3    H225781   5.559   6.681  13.741  1.2288 -0.5877 -2.6254
 1456TIP3   OH225782   0.728   5.425   4.653  0.3668 -0.4217  0.3850
 1456TIP3    H125783   0.799   5.488   4.639 -0.5464  0.2718 -1.3105
 1456TIP3    H225784   0.685   5.455   4.733  0.0182  1.0519 -0.3365
 1457TIP3   OH225785   2.990   1.384   5.292 -0.0956  0.1297  0.0197
 1457TIP3    H125786   3.063   1.368   5.233  0.0004  1.8095 -0.3748
 1457TIP3    H225787   2.998   1.317   5.360  1.7554  0.2227 -0.0638
 1458TIP3   OH225788   1.175   2.698   0.866  0.0334 -0.2134  0.2577
 1458TIP3    H125789   1.080   2.706   0.870  0.0797  1.1037 -0.8161
 1458TIP3    H225790   1.194   2.667   0.778  0.6720  1.0051 -0.0529
 1459TIP3   OH225791   3.184   0.616  14.695 -0.2978  0.5798 -0.1883
 1459TIP3    H125792   3.157   0.537  14.741 -0.1104  0.5511 -0.1261
 1459TIP3    H225793   3.200   0.587  14.605  0.1438  0.4674 -0.0777
 1460TIP3   OH225794   3.839   0.601  12.205  0.7162  0.1709  0.1928
 1460TIP3    H125795   3.851   0.512  12.172 -0.3536  0.5291 -1.2591
 1460TIP3    H225796   3.782   0.643  12.141  0.2270  1.5505  1.4718
 1461TIP3   OH225797   1.245   6.736  13.287  0.4189 -0.1074  0.7494
 1461TIP3    H125798   1.335   6.722  13.256  0.0424 -0.0172 -0.4155
 1461TIP3    H225799   1.253   6.803  13.354  1.0543  1.0437 -0.4367
 1462TIP3   OH225800   4.861   4.834   2.466 -0.0413  0.7031  0.3714
 1462TIP3    H125801   4.913   4.900   2.421  0.4236  0.1874  0.1297
 1462TIP3    H225802   4.783   4.880   2.497 -0.2492  1.1171 -0.7545
 1463TIP3   OH225803   6.241   1.188   4.783  0.0297 -0.0836  0.0309
 1463TIP3    H125804   6.255   1.256   4.717 -0.4275 -0.9802 -1.0278
 1463TIP3    H225805   6.305   1.207   4.851  0.6925  0.7290 -0.7916
 1464TIP3   OH225806   1.748   3.564   6.476 -0.1702  0.3352 -0.3310
 1464TIP3    H125807   1.761   3.643   6.424  0.0565 -0.6300 -1.7978
 1464TIP3    H225808   1.662   3.531   6.449 -0.0255 -0.2128 -0.1382
 1465TIP3   OH225809   2.872   3.740   2.307  0.2838  0.4110 -0.0815
 1465TIP3    H125810   2.944   3.710   2.251  2.4327 -1.7862  3.4847
 1465TIP3    H225811   2.804   3.674   2.295 -0.1426  1.0700 -1.5165
 1466TIP3   OH225812   6.503   4.003   1.981  0.1746 -0.6520 -0.6540
 1466TIP3    H125813   6.532   4.040   2.064 -0.8549 -2.8409  0.7560
 1466TIP3    H225814   6.581   3.961   1.944  0.6160  0.2673 -0.7927
 1467TIP3   OH225815   4.904   4.760   1.683  0.2669 -0.7574  0.2042
 1467TIP3    H125816   4.925   4.853   1.671 -0.6237 -0.3353  1.5984
 1467TIP3    H225817   4.971   4.729   1.745 -0.5716 -0.5234  1.2551
 1468TIP3   OH225818   2.534   2.422   0.065  0.3216  0.2883  0.2525
 1468TIP3    H125819   2.514   2.510   0.097 -0.1262  0.0814  0.5499
 1468TIP3    H225820   2.456   2.370   0.085  0.1600  0.0673 -0.8671
 1469TIP3   OH225821   6.639   1.225  13.417 -0.2456  0.0877  0.0276
 1469TIP3    H125822   6.662   1.242  13.508 -2.6084  0.3662  0.6392
 1469TIP3    H225823   6.609   1.134  13.416 -4.6663  1.3210  0.6638
 1470TIP3   OH225824   5.280   0.671  13.151  0.0456 -0.3640  0.2103
 1470TIP3    H125825   5.353   0.702  13.097 -1.0346  2.0654  0.0350
 1470TIP3    H225826   5.217   0.637  13.088 -0.9569  1.9235 -0.1150
 1471TIP3   OH225827   3.751   5.972  16.874  0.6234 -0.2296 -0.0206
 1471TIP3    H125828   3.754   5.888  16.828 -0.7214 -1.5949  2.2612
 1471TIP3    H225829   3.831   5.974  16.926  1.1014  0.3648 -0.7465
 1472TIP3   OH225830   4.395   2.273   0.926  0.3641  0.6124 -0.4568
 1472TIP3    H125831   4.337   2.240   0.857 -0.0624 -0.5456  0.4155
 1472TIP3    H225832   4.425   2.194   0.971  0.1404  1.3590  1.0704
 1473TIP3   OH225833   0.714   3.057   4.426  0.3646  0.0864  0.1500
 1473TIP3    H125834   0.781   3.005   4.469 -1.1154  0.1874  2.7662
 1473TIP3    H225835   0.733   3.148   4.449 -0.2743  0.1732  0.3745
 1474TIP3   OH225836   2.617   0.776   5.176 -0.1610 -0.0087 -0.6172
 1474TIP3    H125837   2.590   0.845   5.236  0.6001  0.3427 -0.6641
 1474TIP3    H225838   2.637   0.822   5.094  0.5972 -0.2424 -0.5719
 1475TIP3   OH225839   1.838   2.668  14.472  0.1873 -0.1686 -0.3526
 1475TIP3    H125840   1.773   2.727  14.436 -0.0669  0.5934  1.2990
 1475TIP3    H225841   1.789   2.609  14.528  0.7437 -0.4886 -0.1960
 1476TIP3   OH225842   4.638   2.371  11.671  0.1984 -0.2359  0.3948
 1476TIP3    H125843   4.725   2.350  11.636  0.4365  1.0567  0.1677
 1476TIP3    H225844   4.637   2.327  11.757  1.1265 -0.1642  0.4613
 1477TIP3   OH225845   4.082   2.629  16.576  0.2897 -0.1216  0.1398
 1477TIP3    H125846   3.989   2.623  16.553  0.2668 -1.5829  0.5271
 1477TIP3    H225847   4.083   2.662  16.665  0.1062 -0.6846  0.3553
 1478TIP3   OH225848   0.166   3.631  14.589 -0.7571  0.6077 -0.1613
 1478TIP3    H125849   0.169   3.556  14.530 -1.1889  0.4895 -0.0307
 1478TIP3    H225850   0.074   3.639  14.615 -0.5160  0.4272  0.7971
 1479TIP3   OH225851   6.225   5.334  14.482  0.3444 -0.0182 -0.6632
 1479TIP3    H125852   6.156   5.374  14.535  0.9470  2.1957 -1.4502
 1479TIP3    H225853   6.284   5.294  14.546 -0.0505  0.7541  0.2017
 1480TIP3   OH225854   4.848   0.566  13.700 -0.1283  0.0459  0.7568
 1480TIP3    H125855   4.825   0.503  13.632 -1.7662  0.9672  0.4018
 1480TIP3    H225856   4.938   0.591  13.679  0.6019 -2.1602  0.9532
 1481TIP3   OH225857   5.034   5.416   3.974 -0.1068  0.5065  0.3506
 1481TIP3    H125858   4.987   5.341   4.009  0.1748 -0.1144 -0.5751
 1481TIP3    H225859   5.035   5.403   3.879  1.4188  0.7832  0.2944
 1482TIP3   OH225860   5.953   6.160  15.014  0.4495 -0.7764  0.1423
 1482TIP3    H125861   5.874   6.186  14.967  2.2145 -0.2045 -2.8182
 1482TIP3    H225862   5.984   6.082  14.968  1.1558 -1.5090  1.7912
 1483TIP3   OH225863   3.116   5.107   0.636 -0.4093  0.1255 -0.2069
 1483TIP3    H125864   3.127   5.113   0.541  0.2856 -1.6942 -0.2814
 1483TIP3    H225865   3.022   5.120   0.650 -0.3105  1.9064 -0.9763
 1484TIP3   OH225866   5.324   6.702  13.973 -0.2926  0.3881 -0.3206
 1484TIP3    H125867   5.374   6.621  13.962 -1.3758 -0.1014 -1.9975
 1484TIP3    H225868   5.263   6.683  14.044  1.1036  0.6230  0.9989
 1485TIP3   OH225869   3.407   0.326  14.771  0.0049 -0.3569  0.0631
 1485TIP3    H125870   3.437   0.403  14.721 -2.1035  0.7797  0.4117
 1485TIP3    H225871   3.312   0.324  14.756 -0.3841 -1.2740  2.2703
 1486TIP3   OH225872   4.139   2.259   0.790  0.4015  0.2163 -0.0705
 1486TIP3    H125873   4.082   2.236   0.717  0.6663  2.1441 -0.9398
 1486TIP3    H225874   4.082   2.258   0.866  0.1147 -1.7987 -0.2432
 1487TIP3   OH225875   3.123   1.867  13.253 -0.1511 -0.3176 -0.0983
 1487TIP3    H125876   3.065   1.943  13.249  0.0937 -0.1465 -0.4284
 1487TIP3    H225877   3.120   1.839  13.345  0.6461  0.7841  0.2898
 1488TIP3   OH225878   0.285   2.938  14.584  0.1072  0.1308  0.2767
 1488TIP3    H125879   0.305   2.911  14.494 -0.2514  2.5712 -0.6060
 1488TIP3    H225880   0.365   2.981  14.615 -0.3615  0.8960  0.4514
 1489TIP3   OH225881   4.096   4.047   2.050  0.0877  0.3692  0.2657
 1489TIP3    H125882   4.139   4.053   2.135  0.7904  1.1771 -0.1333
 1489TIP3    H225883   4.033   4.119   2.050 -1.0951 -0.6227  0.7253
 1490TIP3   OH225884   5.979   1.301   4.562  0.9648  0.1746  0.4745
 1490TIP3    H125885   6.053   1.318   4.504  0.5732  1.1394  0.2314
 1490TIP3    H225886   5.964   1.384   4.607 -1.1726  0.6507 -0.9279
 1491TIP3   OH225887   5.510   4.599   5.585 -0.0693  0.2830  0.5281
 1491TIP3    H125888   5.435   4.578   5.641 -2.1302 -0.3832 -2.2878
 1491TIP3    H225889   5.488   4.683   5.546  0.3504 -0.1865 -0.7712
 1492TIP3   OH225890   6.526   4.898   5.098  0.4316 -0.6433 -0.5742
 1492TIP3    H125891   6.453   4.941   5.053  1.6252  1.5631 -0.5984
 1492TIP3    H225892   6.594   4.891   5.031  0.7326 -1.3660 -0.2030
 1493TIP3   OH225893   6.494   1.832  15.019  0.0526  0.4438  0.1295
 1493TIP3    H125894   6.538   1.753  14.988  0.5973 -0.2067  2.3382
 1493TIP3    H225895   6.444   1.863  14.944  1.8726 -0.5179 -1.5771
 1494TIP3   OH225896   5.833   3.157  14.433  0.0479  0.1540  0.4470
 1494TIP3    H125897   5.857   3.065  14.431 -0.1823  0.1020 -0.3390
 1494TIP3    H225898   5.749   3.160  14.387  0.7996  0.9629 -0.9449
 1495TIP3   OH225899   1.900   1.865  13.510  0.1413  0.1152 -0.1920
 1495TIP3    H125900   1.851   1.864  13.592  0.3445 -1.6759 -0.0625
 1495TIP3    H225901   1.991   1.852  13.536  0.2852  0.1429 -0.6676
 1496TIP3   OH225902   4.018   1.641   0.044  0.0368  0.3762  0.4311
 1496TIP3    H125903   4.095   1.695   0.061  0.1141  0.3597  0.1251
 1496TIP3    H225904   4.014   1.582   0.119  0.7698 -0.1403  0.0713
 1497TIP3   OH225905   4.906   1.689   5.637 -0.2552  0.3619  0.1917
 1497TIP3    H125906   4.994   1.652   5.630 -0.7457 -0.8122 -0.1192
 1497TIP3    H225907   4.894   1.739   5.556  0.0033  0.2156  0.0630
 1498TIP3   OH225908   3.808   1.893   3.048 -0.2009 -0.2968  0.1097
 1498TIP3    H125909   3.719   1.893   3.012 -0.8607 -1.0220  1.6520
 1498TIP3    H225910   3.823   1.984   3.074 -1.5256 -0.5856  2.1304
 1499TIP3   OH225911   2.875   2.790  11.249 -0.5378  0.3978  0.1663
 1499TIP3    H125912   2.852   2.780  11.157  0.2257  1.1290 -0.1155
 1499TIP3    H225913   2.795   2.820  11.291 -0.9272 -0.0786 -0.2358
 1500TIP3   OH225914   5.831   0.675   0.132  0.5390  0.0743  0.2538
 1500TIP3    H125915   5.741   0.646   0.117  0.9911 -1.3678  0.1395
 1500TIP3    H225916   5.835   0.696   0.225 -0.2638  1.5470 -0.0059
 1501TIP3   OH225917   1.281   2.083  16.874 -0.5636  0.8021 -0.1580
 1501TIP3    H125918   1.368   2.112  16.900 -1.3400  2.3224  0.8681
 1501TIP3    H225919   1.253   2.146  16.808 -0.0989 -0.8901 -2.0661
 1502TIP3   OH225920   2.198   1.826  11.686 -0.2742 -0.8266  0.4865
 1502TIP3    H125921   2.177   1.919  11.673 -0.4082 -1.0585 -1.2530
 1502TIP3    H225922   2.292   1.820  11.669 -0.2687 -1.0029  0.5771
 1503TIP3   OH225923   2.151   5.852  11.359 -0.0910  0.8496 -0.2179
 1503TIP3    H125924   2.110   5.775  11.320  2.1057 -0.0087 -0.9800
 1503TIP3    H225925   2.192   5.897  11.286  0.8188  1.3409  0.5675
 1504TIP3   OH225926   6.171   5.137  10.842 -0.6070 -0.2221  0.9689
 1504TIP3    H125927   6.239   5.074  10.820 -0.8552 -1.1572  2.6798
 1504TIP3    H225928   6.213   5.223  10.833  0.1060 -0.6804 -0.1934
 1505TIP3   OH225929   3.129   5.835  14.805  0.0688  0.6092  1.0821
 1505TIP3    H125930   3.129   5.753  14.855  0.4790  0.6613  1.1768
 1505TIP3    H225931   3.137   5.807  14.714  0.8903  0.5611  1.1621
 1506TIP3   OH225932   0.506   0.767  13.166  0.5182 -0.4529 -0.1084
 1506TIP3    H125933   0.423   0.748  13.210  0.1432  1.6661  0.2166
 1506TIP3    H225934   0.535   0.850  13.206  3.8590 -2.1281  1.3164
 1507TIP3   OH225935   1.364   3.902  15.886 -0.4416 -0.0643 -0.0720
 1507TIP3    H125936   1.374   3.965  15.814 -0.8731  1.3848  1.0986
 1507TIP3    H225937   1.425   3.832  15.864 -1.8408 -0.5707 -2.7781
 1508TIP3   OH225938   0.774   3.274  13.755  0.3450 -0.3152 -0.2762
 1508TIP3    H125939   0.723   3.308  13.829 -0.6750 -2.8877  0.3220
 1508TIP3    H225940   0.710   3.228  13.701  1.4743 -0.5373 -1.4821
 1509TIP3   OH225941   5.945   0.898   6.589 -0.9481  0.4840  0.2515
 1509TIP3    H125942   6.023   0.949   6.612  0.8183 -2.1354  0.4654
 1509TIP3    H225943   5.881   0.923   6.655  0.2558  1.5330  1.0806
 1510TIP3   OH225944   4.803   5.848   4.997  0.2154 -0.1160 -0.4630
 1510TIP3    H125945   4.776   5.770   5.044  0.5255  0.7828  1.3020
 1510TIP3    H225946   4.891   5.828   4.964 -0.1827 -0.9102 -1.0698
 1511TIP3   OH225947   3.003   1.843   0.358 -0.4451  0.4847 -0.3881
 1511TIP3    H125948   2.980   1.889   0.438 -1.8109  2.2277 -1.7106
 1511TIP3    H225949   3.006   1.911   0.290  1.1224 -0.8466 -1.7693
 1512TIP3   OH225950   6.438   4.216   3.060  0.0317  0.5062  0.2780
 1512TIP3    H125951   6.405   4.265   2.985 -0.4479  3.2840  2.1613
 1512TIP3    H225952   6.359   4.193   3.110  0.4633  0.3238  0.8821
 1513TIP3   OH225953   4.962   2.855  17.073 -0.0089  0.6177  0.5101
 1513TIP3    H125954   4.967   2.783  17.011 -1.6106  0.3710  0.6249
 1513TIP3    H225955   4.913   2.923  17.028 -1.1630  0.4492  1.4465
 1514TIP3   OH225956   6.226   1.617  10.635  0.1484  0.0499  0.2219
 1514TIP3    H125957   6.231   1.524  10.612 -1.5773 -0.0074 -0.0376
 1514TIP3    H225958   6.277   1.624  10.716  3.0693 -0.4631 -1.4071
 1515TIP3   OH225959   2.362   5.702  12.416 -0.1801  0.0824  0.0632
 1515TIP3    H125960   2.408   5.621  12.395 -1.2829 -0.1571 -1.6652
 1515TIP3    H225961   2.430   5.761  12.448  0.7423 -1.3147  0.7809
 1516TIP3   OH225962   6.753   0.234  16.918 -0.0871 -0.0832 -0.4157
 1516TIP3    H125963   6.720   0.153  16.879  0.8113 -0.5255 -0.2815
 1516TIP3    H225964   6.687   0.257  16.984  0.7387 -1.9921  1.1845
 1517TIP3   OH225965   0.923   2.505   2.893 -0.0867  0.2691  0.1337
 1517TIP3    H125966   0.967   2.506   2.978  1.2626  1.8977 -0.5338
 1517TIP3    H225967   0.990   2.531   2.830 -1.4275  0.6037 -1.2285
 1518TIP3   OH225968   2.872   0.886  16.741 -0.4827 -0.6963 -0.3799
 1518TIP3    H125969   2.952   0.876  16.690 -1.3759 -1.3140 -1.7306
 1518TIP3    H225970   2.801   0.875  16.677 -1.6553 -0.3362  0.7975
 1519TIP3   OH225971   5.912   3.805   2.195  0.3016 -0.4713 -0.1508
 1519TIP3    H125972   5.899   3.718   2.159 -0.5226  0.0172 -1.0745
 1519TIP3    H225973   6.007   3.818   2.193  0.3992 -1.2094 -0.3222
 1520TIP3   OH225974   6.597   1.556   3.695 -0.1155  0.0611  0.6019
 1520TIP3    H125975   6.663   1.488   3.680  0.6073  0.6483  1.0547
 1520TIP3    H225976   6.541   1.520   3.764 -1.0184 -0.9384 -0.5950
 1521TIP3   OH225977   4.584   4.795  12.977  0.4890  0.4963  0.4982
 1521TIP3    H125978   4.562   4.726  13.039 -0.2264  0.2936  0.0355
 1521TIP3    H225979   4.632   4.750  12.907  1.7154  0.8034  1.1149
 1522TIP3   OH225980   3.345   3.576  13.796 -0.3178 -0.1117 -0.2261
 1522TIP3    H125981   3.396   3.644  13.753 -0.1139  1.2391  1.9829
 1522TIP3    H225982   3.254   3.595  13.773 -0.0623 -1.7479 -3.0974
 1523TIP3   OH225983   1.044   4.486   1.085 -0.0735  0.5803  0.2413
 1523TIP3    H125984   1.132   4.471   1.053  0.1034 -1.9398  1.6759
 1523TIP3    H225985   0.987   4.446   1.019  0.0113 -0.0916  0.5705
 1524TIP3   OH225986   0.184   6.597  16.107  0.4559 -0.0284  0.1902
 1524TIP3    H125987   0.275   6.573  16.126  0.3519 -0.3205  0.3250
 1524TIP3    H225988   0.139   6.588  16.191  0.3755  0.4633  0.2035
 1525TIP3   OH225989   2.444   1.456  16.219 -0.1358  0.0197 -0.0678
 1525TIP3    H125990   2.416   1.531  16.272 -1.4256  0.5306 -1.3985
 1525TIP3    H225991   2.375   1.391  16.231  0.4634 -0.5697  0.2640
 1526TIP3   OH225992   1.548   1.291   1.215  0.3665 -0.1260  0.4945
 1526TIP3    H125993   1.607   1.228   1.256  0.5905  1.1401  2.2175
 1526TIP3    H225994   1.463   1.245   1.212  1.2443 -1.7917 -1.6214
 1527TIP3   OH225995   2.089   0.777  13.007 -0.4209 -0.2300 -1.0209
 1527TIP3    H125996   2.141   0.703  13.041 -0.9608 -0.0783  0.2011
 1527TIP3    H225997   2.000   0.742  12.999 -0.6904  0.2756 -0.3916
 1528TIP3   OH225998   6.327   5.351   5.993 -0.6060  0.4170  0.6989
 1528TIP3    H125999   6.243   5.314   6.018 -0.7805 -0.6513 -1.2230
 1528TIP3    H226000   6.380   5.275   5.968 -0.7768  1.2596 -2.8455
 1529TIP3   OH226001   5.406   6.007  15.444 -0.0310  0.6073  0.0926
 1529TIP3    H126002   5.389   5.916  15.470 -0.8910  0.9439  0.7557
 1529TIP3    H226003   5.471   6.000  15.374  1.1682 -0.4116  1.2675
 1530TIP3   OH226004   4.306   1.726   1.561 -0.5095 -0.5454  0.7838
 1530TIP3    H126005   4.350   1.671   1.497 -1.2661 -0.1985 -0.0509
 1530TIP3    H226006   4.284   1.807   1.514  0.3645  0.3954  1.9190
 1531TIP3   OH226007   4.071   1.371  11.806  0.4544 -0.3072  0.3350
 1531TIP3    H126008   4.082   1.312  11.732  0.6317  0.4497 -0.2582
 1531TIP3    H226009   3.989   1.344  11.847  0.2424 -0.5986 -0.2742
 1532TIP3   OH226010   3.691   6.420  14.179  0.0314 -0.0795 -0.1709
 1532TIP3    H126011   3.648   6.335  14.174  0.8379 -0.6170  1.2718
 1532TIP3    H226012   3.649   6.464  14.253  0.8342  0.0447  0.2268
 1533TIP3   OH226013   6.639   5.500   6.437 -0.0165  0.2546  0.3299
 1533TIP3    H126014   6.565   5.440   6.445 -0.2531  0.6970  1.7747
 1533TIP3    H226015   6.598   5.585   6.419  0.3541 -0.0984 -2.6302
 1534TIP3   OH226016   2.417   3.747  15.697 -0.5849 -0.7183 -0.1627
 1534TIP3    H126017   2.402   3.663  15.654 -3.0510 -0.1826 -0.5211
 1534TIP3    H226018   2.444   3.725  15.786 -0.5998 -1.8905 -0.4396
 1535TIP3   OH226019   0.832   4.075   3.189  0.5531  0.0667  0.5839
 1535TIP3    H126020   0.912   4.050   3.236  0.3025 -1.5564  0.2118
 1535TIP3    H226021   0.768   4.009   3.213  0.6554 -1.4168 -2.6335
 1536TIP3   OH226022   6.135   1.796  11.868  0.0190  0.5283 -0.1189
 1536TIP3    H126023   6.053   1.805  11.820  0.8052  2.4324 -1.2192
 1536TIP3    H226024   6.183   1.728  11.820 -1.1291 -1.1348  0.9617
 1537TIP3   OH226025   1.192   5.267  15.907  0.0780  0.2199 -0.0419
 1537TIP3    H126026   1.272   5.297  15.863  1.2578 -0.0867  1.7797
 1537TIP3    H226027   1.172   5.336  15.970 -0.8023  0.0575 -0.1340
 1538TIP3   OH226028   2.175   4.954  15.371 -0.1689  0.4438 -0.4758
 1538TIP3    H126029   2.152   4.989  15.285 -1.2898  3.1505  0.7849
 1538TIP3    H226030   2.092   4.927  15.409  0.4753 -2.0666 -0.6845
 1539TIP3   OH226031   1.940   0.920   1.221 -0.8655 -0.0441  0.1553
 1539TIP3    H126032   1.860   0.971   1.230 -1.0214  0.0099 -1.3148
 1539TIP3    H226033   2.010   0.986   1.218 -0.9304  0.0032 -0.3085
 1540TIP3   OH226034   4.466   2.680   0.754 -0.0004 -0.1855  0.6744
 1540TIP3    H126035   4.516   2.745   0.704  0.7573 -1.3722 -0.1347
 1540TIP3    H226036   4.531   2.635   0.808 -0.0331 -2.1202 -0.7940
 1541TIP3   OH226037   5.408   2.583   5.309  0.4089 -0.1347  0.2921
 1541TIP3    H126038   5.384   2.538   5.228  1.7883 -1.0902  0.3723
 1541TIP3    H226039   5.326   2.621   5.341 -0.2180 -0.0137 -1.3678
 1542TIP3   OH226040   3.621   6.598  13.578 -0.2228 -0.6533  0.1007
 1542TIP3    H126041   3.564   6.574  13.505 -0.4487  0.9602 -0.2877
 1542TIP3    H226042   3.708   6.604  13.539 -0.5603  1.6655 -0.4240
 1543TIP3   OH226043   4.440   1.942   1.702  0.4030  0.2984  0.3518
 1543TIP3    H126044   4.493   1.906   1.631  0.5923  0.2751  0.5046
 1543TIP3    H226045   4.356   1.897   1.694  0.4061  0.3342  0.1108
 1544TIP3   OH226046   5.553   2.656   1.603  0.3524 -0.4921  0.4835
 1544TIP3    H126047   5.635   2.691   1.570  0.7820 -0.5805  1.4484
 1544TIP3    H226048   5.486   2.713   1.564  0.7615 -1.2113 -1.3468
 1545TIP3   OH226049   3.097   6.315  13.078 -0.1627 -0.3291 -1.0196
 1545TIP3    H126050   3.006   6.329  13.105 -0.8449 -2.2374 -2.0809
 1545TIP3    H226051   3.118   6.227  13.109  1.1725 -0.1023 -1.2174
 1546TIP3   OH226052   0.861   0.937   3.448  0.5204  0.5386 -0.1556
 1546TIP3    H126053   0.814   0.855   3.465  0.4439  0.4877 -0.6034
 1546TIP3    H226054   0.929   0.913   3.385  1.2359  0.5848  0.5828
 1547TIP3   OH226055   3.943   2.010   5.543  0.4107 -0.0997  0.6158
 1547TIP3    H126056   4.002   2.029   5.615  1.3736 -0.7031  0.0053
 1547TIP3    H226057   3.996   2.023   5.464  0.2794 -2.3357  0.0974
 1548TIP3   OH226058   6.342   4.326   2.358  0.0069  0.0107 -1.0886
 1548TIP3    H126059   6.390   4.368   2.287  0.6174  0.0575 -0.6549
 1548TIP3    H226060   6.389   4.351   2.437 -1.3978  1.0114 -0.5289
 1549TIP3   OH226061   6.104   6.277   1.606 -0.1259  0.1750 -0.1105
 1549TIP3    H126062   6.023   6.327   1.598 -0.9345 -0.5597  2.4062
 1549TIP3    H226063   6.095   6.206   1.543 -2.6381 -1.2904  1.7278
 1550TIP3   OH226064   5.183   6.573   0.111  0.2369  0.6470 -0.3696
 1550TIP3    H126065   5.123   6.512   0.153 -0.6034  1.7907  0.1284
 1550TIP3    H226066   5.270   6.542   0.136 -0.1987  0.1108  0.5065
 1551TIP3   OH226067   6.310   6.506   2.507  0.3770  0.2767  0.6160
 1551TIP3    H126068   6.307   6.431   2.446  1.3266 -0.4666  1.4460
 1551TIP3    H226069   6.325   6.466   2.593  3.1193  1.5021  0.8100
 1552TIP3   OH226070   3.511   6.404   1.541  0.2584  0.1152 -0.4083
 1552TIP3    H126071   3.525   6.453   1.623  1.7128 -1.4315  0.3249
 1552TIP3    H226072   3.448   6.336   1.564  0.6748 -0.3250 -0.5625
 1553TIP3   OH226073   6.634   2.696  16.981 -0.0676  0.2986  0.1338
 1553TIP3    H126074   6.598   2.778  17.014 -2.1037 -0.8565  0.9545
 1553TIP3    H226075   6.721   2.719  16.949 -0.5287  2.7336  0.4631
 1554TIP3   OH226076   6.180   4.801   4.149 -0.1442 -0.1969  0.5259
 1554TIP3    H126077   6.111   4.851   4.104  0.5416  0.6787  0.4037
 1554TIP3    H226078   6.145   4.784   4.236 -0.8297 -0.4663  0.2052
 1555TIP3   OH226079   0.042   6.411  10.947  0.1656  0.1334  0.0803
 1555TIP3    H126080   0.043   6.423  10.852  0.4341 -0.8433 -0.0517
 1555TIP3    H226081   0.115   6.352  10.964  0.7553  1.0917  1.0182
 1556TIP3   OH226082   3.474   0.240   5.975 -0.3038 -0.3265  0.2827
 1556TIP3    H126083   3.464   0.314   6.035  1.9863  0.9855 -0.7958
 1556TIP3    H226084   3.566   0.215   5.983 -0.7492 -2.3221 -0.2469
 1557TIP3   OH226085   4.008   6.744   1.359  0.7144 -0.1595  0.1193
 1557TIP3    H126086   3.985   6.673   1.299 -0.0451 -1.0097  1.3598
 1557TIP3    H226087   4.101   6.761   1.343  0.8289 -1.2375 -0.4082
 1558TIP3   OH226088   0.314   3.339   2.740  0.0428  0.7528 -0.0134
 1558TIP3    H126089   0.284   3.288   2.666 -1.2826  0.9222  0.3783
 1558TIP3    H226090   0.314   3.277   2.813 -0.6735  1.0693  0.2664
 1559TIP3   OH226091   3.281   1.424  12.468  0.2137  0.4809 -0.3931
 1559TIP3    H126092   3.283   1.425  12.563 -1.6204  0.8675 -0.3272
 1559TIP3    H226093   3.332   1.501  12.442 -0.7797  1.4036  0.3341
 1560TIP3   OH226094   1.628   0.793   4.226 -0.1528 -0.6198 -0.3458
 1560TIP3    H126095   1.536   0.815   4.208 -0.0452 -0.1117 -0.2992
 1560TIP3    H226096   1.643   0.825   4.315  0.4978  0.7146 -0.9115
 1561TIP3   OH226097   5.492   0.843  15.606 -0.4789  0.7004 -0.5060
 1561TIP3    H126098   5.565   0.858  15.545 -0.7335  0.3741 -0.9009
 1561TIP3    H226099   5.414   0.865  15.555 -0.7843 -0.8093 -0.7346
 1562TIP3   OH226100   4.963   2.249   0.563 -0.1070  0.3677  0.4776
 1562TIP3    H126101   4.887   2.308   0.568 -1.2381 -0.8694 -0.9556
 1562TIP3    H226102   4.944   2.180   0.626 -0.4670 -0.2495 -0.2998
 1563TIP3   OH226103   2.253   3.625  12.564  0.1285 -0.1640 -0.1995
 1563TIP3    H126104   2.219   3.592  12.647  0.1954 -0.7760 -0.4044
 1563TIP3    H226105   2.306   3.552  12.530  2.1720  0.9631  0.3997
 1564TIP3   OH226106   6.560   5.155  13.867  0.3317  0.5338 -0.2359
 1564TIP3    H126107   6.474   5.123  13.839  0.4964  0.0814 -0.2228
 1564TIP3    H226108   6.540   5.217  13.937  0.0124  0.4720 -0.2680
 1565TIP3   OH226109   2.609   0.983   2.019 -0.2703 -0.3772  0.3132
 1565TIP3    H126110   2.524   0.943   2.038 -0.3332  0.3482  1.6377
 1565TIP3    H226111   2.596   1.076   2.037  0.2316  0.0808 -1.5074
 1566TIP3   OH226112   0.095   4.890   2.152 -0.0648 -0.3233 -0.0687
 1566TIP3    H126113   0.146   4.945   2.212  2.5510 -0.1398 -2.2680
 1566TIP3    H226114   0.041   4.952   2.103  1.7710  0.2541 -1.4998
 1567TIP3   OH226115   0.884   4.342  13.357 -0.1050 -0.0155 -0.0896
 1567TIP3    H126116   0.859   4.417  13.302  1.1244  1.9587  1.8434
 1567TIP3    H226117   0.933   4.285  13.299 -0.4652  1.0485 -1.4983
 1568TIP3   OH226118   4.641   1.396   5.997  0.2461  0.2276  0.0040
 1568TIP3    H126119   4.681   1.378   5.912  0.9614  1.1008  0.1374
 1568TIP3    H226120   4.715   1.402   6.057 -0.3163 -1.9043  1.0307
 1569TIP3   OH226121   2.399   0.983   3.983 -0.3347  0.3873  0.6902
 1569TIP3    H126122   2.451   0.908   4.012  0.2360  0.0626 -1.0519
 1569TIP3    H226123   2.403   0.980   3.887 -0.7385  2.3426  0.5631
 1570TIP3   OH226124   6.105   3.998  16.729  0.1581  0.8977  0.5301
 1570TIP3    H126125   6.126   4.047  16.808  0.2474  0.3550  0.8524
 1570TIP3    H226126   6.071   4.063  16.668  0.1189  1.3266  1.0041
 1571TIP3   OH226127   2.576   4.388   2.195  0.6157  0.0274  0.1207
 1571TIP3    H126128   2.614   4.422   2.276 -2.4236 -0.3968  1.8747
 1571TIP3    H226129   2.565   4.294   2.211 -0.8484  0.0834 -0.3757
 1572TIP3   OH226130   5.556   4.443  16.683  0.0397 -0.4140 -0.7106
 1572TIP3    H126131   5.614   4.367  16.696 -0.0749 -0.4828 -0.6018
 1572TIP3    H226132   5.568   4.495  16.763 -0.0442 -0.4251 -0.6912
 1573TIP3   OH226133   3.219   4.906   3.790 -0.4075 -0.2334  0.0249
 1573TIP3    H126134   3.123   4.908   3.799 -0.3453 -0.9703  1.0582
 1573TIP3    H226135   3.234   4.913   3.696 -1.4783 -0.0277 -0.1490
 1574TIP3   OH226136   5.616   1.389   0.646  0.1383  0.2653 -0.5052
 1574TIP3    H126137   5.635   1.482   0.637  0.7584  0.2062  0.1130
 1574TIP3    H226138   5.556   1.369   0.574 -0.2369  1.2009 -0.4575
 1575TIP3   OH226139   4.804   1.255  13.044  0.0542  0.0062  0.1118
 1575TIP3    H126140   4.813   1.233  13.137  0.4302 -0.4171 -0.0180
 1575TIP3    H226141   4.727   1.206  13.015 -0.1520  0.2565  0.2332
 1576TIP3   OH226142   2.262   5.695  13.688 -0.6637  0.6162 -0.0337
 1576TIP3    H126143   2.311   5.616  13.711 -0.2853  0.6500 -0.6960
 1576TIP3    H226144   2.325   5.766  13.695 -0.9588  0.8390  0.3885
 1577TIP3   OH226145   0.606   2.828  10.603  0.1548 -0.1838 -0.4414
 1577TIP3    H126146   0.666   2.798  10.535 -0.9629  1.3693 -2.1927
 1577TIP3    H226147   0.663   2.873  10.666  1.0924 -0.8755 -0.7670
 1578TIP3   OH226148   1.597   6.268  13.035 -0.1187 -0.1778  0.2884
 1578TIP3    H126149   1.527   6.291  13.097  0.0949 -1.5596  1.0730
 1578TIP3    H226150   1.609   6.174  13.046  0.0585 -0.4350 -1.7359
 1579TIP3   OH226151   3.481   0.885   2.717  0.3558  0.4559 -0.3998
 1579TIP3    H126152   3.566   0.910   2.681  1.6409 -0.6689  1.7275
 1579TIP3    H226153   3.489   0.898   2.811 -1.7974  0.1545 -0.1220
 1580TIP3   OH226154   2.201   3.658   1.485 -0.4216  0.2286 -0.1553
 1580TIP3    H126155   2.158   3.576   1.460  0.6904 -0.3550 -0.2326
 1580TIP3    H226156   2.294   3.639   1.478 -0.1195  1.1066  1.0944
 1581TIP3   OH226157   0.372   5.205  13.020 -0.3538 -0.1047  0.3959
 1581TIP3    H126158   0.327   5.274  12.970  0.3736 -0.1308 -0.3179
 1581TIP3    H226159   0.437   5.170  12.959 -0.0288 -0.7336  1.0896
 1582TIP3   OH226160   6.231   4.220  13.787  0.5762  0.2480 -0.7930
 1582TIP3    H126161   6.202   4.279  13.717  1.0806  3.8160  1.6982
 1582TIP3    H226162   6.150   4.196  13.832  0.5489  1.5467 -0.0930
 1583TIP3   OH226163   2.776   0.374   2.507  0.1552 -1.0665  1.0522
 1583TIP3    H126164   2.866   0.393   2.534 -0.1866 -1.1321  2.3279
 1583TIP3    H226165   2.782   0.357   2.414  1.2859  0.1436  0.8663
 1584TIP3   OH226166   2.143   5.373   0.800  0.3949  0.0023 -0.0593
 1584TIP3    H126167   2.059   5.338   0.829  0.2899  0.8459  0.7082
 1584TIP3    H226168   2.167   5.320   0.725 -0.5572 -0.6107  0.0592
 1585TIP3   OH226169   2.766   0.412   5.129  0.0755 -0.1496 -0.4109
 1585TIP3    H126170   2.776   0.457   5.213 -1.2001  0.0250 -0.3349
 1585TIP3    H226171   2.698   0.462   5.083  0.4547 -0.5033 -1.3704
 1586TIP3   OH226172   0.722   0.967  10.681 -0.9408  0.1498  0.0545
 1586TIP3    H126173   0.806   0.996  10.646 -0.1940 -2.3033 -0.4021
 1586TIP3    H226174   0.685   1.045  10.722  0.2646  2.0050 -2.1429
 1587TIP3   OH226175   6.538   1.402   2.639  0.2523 -0.8111 -0.2654
 1587TIP3    H126176   6.551   1.391   2.733 -0.8637  0.2871  0.0420
 1587TIP3    H226177   6.450   1.439   2.631  0.0785 -1.4715 -1.7856
 1588TIP3   OH226178   5.788   1.905  12.918 -0.2999 -0.3098  0.7904
 1588TIP3    H126179   5.818   1.819  12.945  0.0368 -0.8151 -1.0912
 1588TIP3    H226180   5.863   1.963  12.930  0.1013 -0.6962  0.1457
 1589TIP3   OH226181   5.138   4.408  10.494  0.1097 -0.0051  0.5634
 1589TIP3    H126182   5.198   4.400  10.568 -0.9940 -0.7263  1.4054
 1589TIP3    H226183   5.189   4.455  10.427  1.4878 -0.2931  1.3653
 1590TIP3   OH226184   5.263   2.606  12.946  0.1324  0.4854 -0.0469
 1590TIP3    H126185   5.273   2.646  13.032 -1.5227 -0.7140  0.7686
 1590TIP3    H226186   5.177   2.636  12.915 -0.3575 -0.9516 -0.1836
 1591TIP3   OH226187   5.731   1.253   4.358  0.5258 -0.0145  0.5936
 1591TIP3    H126188   5.811   1.219   4.397  0.8111  0.3712  0.3436
 1591TIP3    H226189   5.663   1.191   4.386  1.2077 -1.4171 -0.7160
 1592TIP3   OH226190   2.541   5.483  16.912  0.0894 -0.2605  0.3833
 1592TIP3    H126191   2.479   5.436  16.968  0.7872 -0.3230  1.1272
 1592TIP3    H226192   2.612   5.420  16.897 -0.4780 -0.5520 -1.3115
 1593TIP3   OH226193   0.658   5.257   2.539 -0.2437  0.2074 -0.4844
 1593TIP3    H126194   0.569   5.291   2.533 -1.2429 -1.7430  1.7335
 1593TIP3    H226195   0.670   5.206   2.459 -1.4700 -0.2579 -0.3838
 1594TIP3   OH226196   1.552   3.633   3.032 -0.2955 -0.6185 -0.1555
 1594TIP3    H126197   1.564   3.549   2.988  0.7950 -1.6616  2.0097
 1594TIP3    H226198   1.484   3.617   3.098  1.1715 -0.3667  1.5042
 1595TIP3   OH226199   0.096   1.130  14.352 -0.0165 -0.4836  0.2661
 1595TIP3    H126200   0.132   1.050  14.314  1.1962  1.0702 -2.1171
 1595TIP3    H226201   0.156   1.153  14.422  1.8002  0.2238 -1.4359
 1596TIP3   OH226202   2.226   3.543  15.483 -0.0391  0.6853 -0.1086
 1596TIP3    H126203   2.151   3.491  15.455  0.6085 -0.1402 -0.3639
 1596TIP3    H226204   2.192   3.599  15.553 -0.5244 -0.9227  1.0078
 1597TIP3   OH226205   2.623   4.277  12.333 -0.2349 -0.0584 -0.2373
 1597TIP3    H126206   2.657   4.227  12.259 -0.9783 -0.4231 -0.3375
 1597TIP3    H226207   2.541   4.313  12.302 -0.6026 -0.2954  0.4373
 1598TIP3   OH226208   5.277   6.271  11.729  0.2102 -0.1032  0.0290
 1598TIP3    H126209   5.223   6.192  11.721  0.6072 -0.2822 -1.1950
 1598TIP3    H226210   5.285   6.303  11.639  1.3606  0.4440  0.3059
 1599TIP3   OH226211   4.168   4.047   2.310 -0.4250  0.2543 -0.1982
 1599TIP3    H126212   4.083   4.022   2.347  0.1168 -0.7658  0.4296
 1599TIP3    H226213   4.192   4.127   2.357 -0.8334  0.2960 -0.0558
 1600TIP3   OH226214   5.156   2.576   1.296 -0.0482  0.2165 -0.3097
 1600TIP3    H126215   5.209   2.563   1.375 -1.1450  1.5113  0.6770
 1600TIP3    H226216   5.100   2.498   1.293  1.1503 -0.6651 -0.7929
 1601TIP3   OH226217   6.283   4.132   4.833 -0.4973  0.4857  1.0478
 1601TIP3    H126218   6.192   4.104   4.825  0.1884 -1.9658  1.1621
 1601TIP3    H226219   6.333   4.064   4.790  1.2503  2.5476 -0.3779
 1602TIP3   OH226220   1.610   2.893  15.729  0.0329 -0.0139 -0.5827
 1602TIP3    H126221   1.569   2.938  15.803  1.2420  0.1473  0.0048
 1602TIP3    H226222   1.555   2.917  15.654  0.3868  2.1523 -0.2359
 1603TIP3   OH226223   4.445   0.632  16.694 -0.2455  0.0904  0.0356
 1603TIP3    H126224   4.531   0.601  16.668  0.2916  1.7233 -0.2862
 1603TIP3    H226225   4.408   0.561  16.745  0.2111 -1.7176 -2.0017
 1604TIP3   OH226226   4.631   0.011   2.666  0.2973 -0.0066  0.1173
 1604TIP3    H126227   4.562   0.054   2.716 -0.7902 -0.5349 -0.9001
 1604TIP3    H226228   4.671   0.082   2.616 -0.3690  0.1021 -0.2700
 1605TIP3   OH226229   1.281   6.597   0.536 -0.1156 -0.3624  0.6403
 1605TIP3    H126230   1.186   6.606   0.528 -0.5217 -2.3692  2.3576
 1605TIP3    H226231   1.308   6.671   0.590 -0.4903  0.8080 -0.6926
 1606TIP3   OH226232   0.878   6.453  17.131  0.6357  0.1726  0.5534
 1606TIP3    H126233   0.827   6.391  17.183  0.7836 -0.5046 -0.0964
 1606TIP3    H226234   0.824   6.470  17.053 -0.6745  2.9688  1.9000
 1607TIP3   OH226235   2.759   2.149   6.916 -0.1326  0.1186  0.2525
 1607TIP3    H126236   2.667   2.124   6.908  0.1384 -0.2845 -2.1744
 1607TIP3    H226237   2.758   2.245   6.909 -0.2928  0.0532 -0.6295
 1608TIP3   OH226238   0.748   3.085  11.127  0.4613 -0.2396 -0.0981
 1608TIP3    H126239   0.763   3.025  11.054  0.5606  0.6216 -0.7938
 1608TIP3    H226240   0.805   3.051  11.197  2.3211  0.3632 -1.2419
 1609TIP3   OH226241   0.900   3.014   1.067 -0.7342 -0.0496  0.0753
 1609TIP3    H126242   0.962   2.957   1.021  1.0368 -0.2111  2.4607
 1609TIP3    H226243   0.933   3.103   1.051  0.5525 -0.1646  1.7905
 1610TIP3   OH226244   2.448   5.362   0.418  0.4407  0.2178 -0.1736
 1610TIP3    H126245   2.533   5.320   0.402  0.1830 -0.8398  1.0812
 1610TIP3    H226246   2.456   5.399   0.506  0.2811  1.9244 -0.8356
 1611TIP3   OH226247   6.320   3.395   1.107  0.2492  0.5145  0.0987
 1611TIP3    H126248   6.398   3.428   1.152 -0.9506  0.1855  2.5866
 1611TIP3    H226249   6.300   3.463   1.042  2.2413  0.8705 -0.2044
 1612TIP3   OH226250   0.555   6.210  12.152  0.4646  0.3908 -0.2530
 1612TIP3    H126251   0.547   6.115  12.165 -0.6708  0.5721  0.6159
 1612TIP3    H226252   0.514   6.226  12.067  2.0703 -0.0625 -1.1438
 1613TIP3   OH226253   2.518   4.571  11.696  0.5656 -0.3453 -0.2485
 1613TIP3    H126254   2.555   4.547  11.611  1.5643  0.4777 -0.0656
 1613TIP3    H226255   2.424   4.555  11.687  0.9481 -2.7044 -0.6520
 1614TIP3   OH226256   1.218   5.278   1.392  0.1158 -0.4075 -0.3763
 1614TIP3    H126257   1.305   5.293   1.429 -0.1494 -0.3766  0.2442
 1614TIP3    H226258   1.204   5.353   1.334  0.0942  0.1239  0.2967
 1615TIP3   OH226259   3.277   4.016   3.684 -0.6892  0.7456 -0.0306
 1615TIP3    H126260   3.185   3.993   3.668 -0.0753 -1.1101 -1.1809
 1615TIP3    H226261   3.321   3.932   3.698  0.8146  1.6176  0.7594
 1616TIP3   OH226262   2.856   4.739  15.119  0.5058  0.4981  0.4122
 1616TIP3    H126263   2.888   4.650  15.135 -0.8778 -0.0118  0.4595
 1616TIP3    H226264   2.936   4.793  15.115  1.3368 -0.6658  0.7973
 1617TIP3   OH226265   2.960   4.714   0.372  0.1201  0.3939  0.0591
 1617TIP3    H126266   2.903   4.738   0.299  0.3627  0.6348 -0.0522
 1617TIP3    H226267   3.047   4.745   0.347  0.1032  0.9933  0.6940
 1618TIP3   OH226268   3.647   5.309  14.200 -0.2829  0.7979 -0.5025
 1618TIP3    H126269   3.678   5.267  14.120  2.9038 -0.8144  1.3537
 1618TIP3    H226270   3.577   5.252  14.231 -0.0720  0.2255 -1.0559
 1619TIP3   OH226271   1.473   0.425  16.133  0.6982  0.1024  0.1528
 1619TIP3    H126272   1.562   0.393  16.117  0.8436 -1.4182  3.2778
 1619TIP3    H226273   1.421   0.347  16.146 -0.8115  1.0215 -0.1366
 1620TIP3   OH226274   6.470   5.013  15.257 -0.1715  0.2207  0.1029
 1620TIP3    H126275   6.549   4.969  15.226  1.0823  1.4431  1.4320
 1620TIP3    H226276   6.446   5.072  15.185  0.9746  0.8913  0.2532
 1621TIP3   OH226277   0.256   5.797   4.500 -0.1972 -0.3688  0.2338
 1621TIP3    H126278   0.252   5.703   4.480  1.6912 -0.5795  0.6911
 1621TIP3    H226279   0.293   5.801   4.588 -0.3725  0.8150  0.2672
 1622TIP3   OH226280   4.618   6.383  12.659 -0.4893 -0.3236  0.3693
 1622TIP3    H126281   4.571   6.420  12.585 -0.5200 -2.1057 -0.5710
 1622TIP3    H226282   4.558   6.391  12.733 -0.2782  1.9002  0.3546
 1623TIP3   OH226283   0.859   1.340  14.447  0.1199 -0.9527 -0.3188
 1623TIP3    H126284   0.886   1.371  14.361  2.8981  0.4062  0.9104
 1623TIP3    H226285   0.852   1.419  14.500  0.2301 -1.8774  1.1330
 1624TIP3   OH226286   2.941   4.617   4.192  0.7930 -0.2415  0.2275
 1624TIP3    H126287   2.896   4.594   4.273 -0.7157  0.8961 -0.2500
 1624TIP3    H226288   2.940   4.712   4.190  1.0543 -0.2487 -0.9986
 1625TIP3   OH226289   5.476   0.805  11.681  0.2797 -0.1729 -0.0021
 1625TIP3    H126290   5.545   0.831  11.620  0.8951 -0.6300  0.4826
 1625TIP3    H226291   5.488   0.864  11.756  0.6243 -0.7368  0.3949
 1626TIP3   OH226292   0.100   0.611   5.378 -0.4547 -0.3596  0.2433
 1626TIP3    H126293   0.119   0.650   5.463  0.8603  0.1689 -0.2605
 1626TIP3    H226294   0.058   0.681   5.328 -0.2425 -0.3255  0.1103
 1627TIP3   OH226295   1.588   1.155  12.965  0.0360  0.2362 -0.2160
 1627TIP3    H126296   1.657   1.089  12.973  1.1670  0.7291 -3.9055
 1627TIP3    H226297   1.507   1.104  12.954  0.4879 -0.4737 -0.3140
 1628TIP3   OH226298   0.204   4.227  12.125  0.4456  0.0009 -0.1733
 1628TIP3    H126299   0.279   4.202  12.070 -0.0720 -0.9879 -0.4415
 1628TIP3    H226300   0.201   4.161  12.194 -0.0507  0.1609 -0.0366
 1629TIP3   OH226301   1.273   4.560  13.852  0.0683 -0.5076  0.4853
 1629TIP3    H126302   1.355   4.542  13.898  1.7391 -0.2969 -2.1407
 1629TIP3    H226303   1.277   4.654  13.832 -0.7227 -0.5381  0.1371
 1630TIP3   OH226304   5.198   1.545   2.138  0.0809 -0.1718 -0.6593
 1630TIP3    H126305   5.138   1.518   2.068  3.1664 -1.7234 -2.9665
 1630TIP3    H226306   5.220   1.636   2.117 -0.2070 -0.1371 -0.8100
 1631TIP3   OH226307   6.707   4.120   4.717 -0.3761 -0.1094  0.0332
 1631TIP3    H126308   6.708   4.213   4.694 -2.5676  0.1224  0.6414
 1631TIP3    H226309   6.656   4.080   4.647  0.0572 -0.7673  0.0917
 1632TIP3   OH226310   4.456   6.336   1.292  0.0682  0.8447  0.2229
 1632TIP3    H126311   4.414   6.288   1.220 -1.7957  0.9986  1.1619
 1632TIP3    H226312   4.384   6.358   1.351  1.2802  2.4735  1.1458
 1633TIP3   OH226313   6.547   6.457   2.295 -0.2265  0.2837 -0.3428
 1633TIP3    H126314   6.462   6.416   2.281  0.2289 -1.5805  1.8260
 1633TIP3    H226315   6.611   6.386   2.286  1.1864  1.6444 -1.9866
 1634TIP3   OH226316   0.814   4.437  11.400  0.5338 -0.2930 -0.4271
 1634TIP3    H126317   0.722   4.414  11.388  1.3715 -2.9725 -2.8589
 1634TIP3    H226318   0.860   4.353  11.397  3.0346  0.8296  1.8774
 1635TIP3   OH226319   5.151   2.032  16.939  0.4745 -0.3851 -0.0190
 1635TIP3    H126320   5.099   2.008  17.016 -0.6614  1.0670 -0.2883
 1635TIP3    H226321   5.238   2.051  16.975  0.3336 -1.0177  0.7068
 1636TIP3   OH226322   5.554   3.137  11.903  0.1734 -0.1340 -0.0452
 1636TIP3    H126323   5.543   3.061  11.847  1.7771 -0.3356 -0.1300
 1636TIP3    H226324   5.509   3.208  11.857  0.2422 -0.6145 -0.8726
 1637TIP3   OH226325   6.522   0.505   1.208 -0.5630 -0.0644 -0.3127
 1637TIP3    H126326   6.607   0.547   1.215  0.6622 -2.4072 -0.1415
 1637TIP3    H226327   6.516   0.475   1.118 -1.2467  0.1265 -0.3398
 1638TIP3   OH226328   2.337   6.451  11.614 -0.0584  0.3067  0.5349
 1638TIP3    H126329   2.262   6.511  11.619  0.2418  0.9287 -1.4816
 1638TIP3    H226330   2.299   6.364  11.631 -1.0892  0.7031  0.3439
 1639TIP3   OH226331   0.770   1.856  16.556  0.1600  0.3420 -0.1315
 1639TIP3    H126332   0.842   1.884  16.612 -1.3830  1.0977  1.5771
 1639TIP3    H226333   0.792   1.890  16.470  2.5996 -0.8355 -0.0574
 1640TIP3   OH226334   4.646   0.645  17.088 -0.1810  0.2764  0.1804
 1640TIP3    H126335   4.578   0.578  17.092 -1.8378  1.8862  0.3403
 1640TIP3    H226336   4.726   0.600  17.117 -1.4094 -1.3939  1.1618
 1641TIP3   OH226337   4.855   5.074   2.730 -0.2293  0.1215  0.6024
 1641TIP3    H126338   4.827   5.102   2.643 -1.0629 -0.5576  0.6448
 1641TIP3    H226339   4.900   5.151   2.766  0.1540  0.3949 -0.4314
 1642TIP3   OH226340   0.189   0.641  13.543  0.3052  0.5537 -0.0719
 1642TIP3    H126341   0.276   0.611  13.569 -0.6565  0.1645  3.2153
 1642TIP3    H226342   0.198   0.735  13.532  1.1591  0.5182  0.2592
 1643TIP3   OH226343   1.069   4.920  14.345 -0.0558 -0.2070  0.0889
 1643TIP3    H126344   1.125   4.990  14.378  2.2793 -1.9524  0.0560
 1643TIP3    H226345   1.052   4.944  14.253  0.0036  0.6982  0.3007
 1644TIP3   OH226346   0.368   3.653  12.344  0.3664 -0.3496 -0.3203
 1644TIP3    H126347   0.414   3.731  12.313  1.7251 -1.3641 -0.9860
 1644TIP3    H226348   0.376   3.656  12.439  2.2373 -0.7213 -0.4376
 1645TIP3   OH226349   5.066   0.301   2.804  0.2277  0.4692  0.4615
 1645TIP3    H126350   5.099   0.386   2.833 -1.7273  1.1586  0.8418
 1645TIP3    H226351   4.971   0.308   2.816 -0.0226 -1.5398 -0.1364
 1646TIP3   OH226352   4.026   6.639  15.190  0.0487 -0.2484 -0.0771
 1646TIP3    H126353   3.970   6.626  15.266 -2.3072  1.4426 -1.3883
 1646TIP3    H226354   4.049   6.732  15.192  4.5282 -1.0970  1.3653
 1647TIP3   OH226355   1.793   5.041   0.994 -0.0281 -0.0491 -0.1698
 1647TIP3    H126356   1.773   5.000   0.910  1.0886  0.3831 -0.6611
 1647TIP3    H226357   1.802   4.967   1.054 -0.9476 -0.3555 -0.3843
 1648TIP3   OH226358   1.177   0.987  11.694  0.1410 -0.0869  0.7848
 1648TIP3    H126359   1.146   1.044  11.624  1.2801  1.3610  1.4077
 1648TIP3    H226360   1.220   1.046  11.756  0.3606 -1.4946  2.0334
 1649TIP3   OH226361   6.261   3.332  16.419  0.5435  0.2955 -0.1379
 1649TIP3    H126362   6.208   3.365  16.347  0.7600  1.3034  0.1508
 1649TIP3    H226363   6.345   3.378  16.411 -0.1248  2.0335  1.9494
 1650TIP3   OH226364   2.896   4.932  11.625 -0.7101 -0.7835 -0.6678
 1650TIP3    H126365   2.894   4.941  11.720 -1.0385  2.4200 -0.8725
 1650TIP3    H226366   2.978   4.887  11.606  1.1459  1.6562  1.0213
 1651TIP3   OH226367   5.312   1.431  15.352 -0.3186 -0.0155  0.0618
 1651TIP3    H126368   5.373   1.438  15.425 -0.6915 -0.7351  0.4511
 1651TIP3    H226369   5.249   1.501  15.367  0.5614  0.9281 -0.5064
 1652TIP3   OH226370   1.155   5.413  15.058  0.2035  0.0154 -0.6950
 1652TIP3    H126371   1.226   5.397  14.997  0.4181  0.0210 -0.4472
 1652TIP3    H226372   1.197   5.423  15.143 -0.0806  0.1384 -0.5644
 1653TIP3   OH226373   1.289   3.807   5.194  0.0468  0.3886 -0.7369
 1653TIP3    H126374   1.269   3.844   5.280 -0.4347 -0.8104 -0.3132
 1653TIP3    H226375   1.314   3.716   5.213 -0.2140  0.0742 -1.8766
 1654TIP3   OH226376   3.556   2.525  12.818 -0.0338  0.2350 -0.0233
 1654TIP3    H126377   3.585   2.577  12.743 -1.1544 -0.9158 -1.2998
 1654TIP3    H226378   3.637   2.499  12.862  0.6411  0.9111 -0.8303
 1655TIP3   OH226379   1.931   4.196  14.592 -0.1274 -0.4564  0.3162
 1655TIP3    H126380   1.916   4.215  14.685 -0.7096 -1.0801  0.3569
 1655TIP3    H226381   1.945   4.102  14.588 -0.8993 -0.5599 -0.3211
 1656TIP3   OH226382   6.269   5.717  11.213  0.3396  0.2143  0.3427
 1656TIP3    H126383   6.332   5.697  11.144  1.7093  0.7584  1.3865
 1656TIP3    H226384   6.242   5.632  11.247 -0.3184 -0.0581 -0.8033
 1657TIP3   OH226385   3.353   3.000   3.800  0.1147  0.2953  0.4820
 1657TIP3    H126386   3.417   2.958   3.857 -0.5031 -1.3231  0.0280
 1657TIP3    H226387   3.298   3.052   3.859  0.1713 -0.4682  1.2163
 1658TIP3   OH226388   3.181   1.455   0.428 -0.2200  0.1499  0.4154
 1658TIP3    H126389   3.086   1.462   0.436 -0.3484 -1.2299  0.3098
 1658TIP3    H226390   3.215   1.504   0.503 -1.0365  0.0974  0.8350
 1659TIP3   OH226391   2.496   2.359  11.832 -0.2570  0.2870  0.0855
 1659TIP3    H126392   2.508   2.274  11.789 -0.5336  0.5522 -0.5264
 1659TIP3    H226393   2.565   2.362  11.898  0.5230  0.1053 -0.7045
 1660TIP3   OH226394   4.103   1.443   5.349  0.2943 -0.0855 -0.0313
 1660TIP3    H126395   4.092   1.525   5.302  2.0615 -0.3685 -1.0572
 1660TIP3    H226396   4.185   1.454   5.397  2.0813 -2.1299 -2.3469
 1661TIP3   OH226397   5.162   5.795   2.035 -0.6186 -0.1505 -0.0577
 1661TIP3    H126398   5.250   5.776   2.067 -0.7246 -1.7148 -0.5996
 1661TIP3    H226399   5.175   5.842   1.953 -0.2958 -0.1391  0.0002
 1662TIP3   OH226400   4.363   0.895  11.817 -0.6054  0.7760  0.5762
 1662TIP3    H126401   4.317   0.874  11.736  0.4447  1.5294 -0.2373
 1662TIP3    H226402   4.316   0.846  11.885 -0.7491 -0.8478 -0.6500
 1663TIP3   OH226403   5.690   0.103  16.639 -0.5527  0.2682 -0.3634
 1663TIP3    H126404   5.741   0.153  16.576 -2.2349  1.7092 -0.6452
 1663TIP3    H226405   5.647   0.035  16.587 -0.2136  0.0603 -0.3795
 1664TIP3   OH226406   2.616   4.578  12.520 -0.1748  0.0502 -0.3105
 1664TIP3    H126407   2.692   4.533  12.482  1.0349  0.4571  1.5281
 1664TIP3    H226408   2.593   4.644  12.455  0.8669 -0.2583 -1.0287
 1665TIP3   OH226409   3.470   5.732   0.489 -0.1580  0.3464 -0.6942
 1665TIP3    H126410   3.409   5.778   0.431 -0.8114  1.5108  0.8478
 1665TIP3    H226411   3.521   5.802   0.529  0.3009 -0.4435  0.1274
 1666TIP3   OH226412   6.191   5.262  14.208 -0.3706  0.0558  0.0967
 1666TIP3    H126413   6.185   5.266  14.304  0.0816 -1.2334  0.1982
 1666TIP3    H226414   6.100   5.257  14.179 -0.6053  2.0873  0.3303
 1667TIP3   OH226415   2.034   6.491  15.432  0.1781  0.3198  0.5639
 1667TIP3    H126416   1.995   6.522  15.350  1.0887 -1.2889 -0.5224
 1667TIP3    H226417   1.959   6.472  15.489 -0.6337 -1.3880 -0.9830
 1668TIP3   OH226418   4.717   0.757  15.919 -0.1982  0.1157 -0.1454
 1668TIP3    H126419   4.667   0.679  15.944 -1.6925  1.4223  1.2099
 1668TIP3    H226420   4.767   0.779  15.998 -0.2354  0.8609 -0.3254
 1669TIP3   OH226421   4.970   3.543   5.428  0.4747  0.2743 -0.2684
 1669TIP3    H126422   4.921   3.590   5.361  0.9796 -0.2162 -1.0114
 1669TIP3    H226423   5.062   3.560   5.406  0.6611 -0.7035 -0.3160
 1670TIP3   OH226424   6.704   0.538  16.312 -0.3633  0.2411 -0.7671
 1670TIP3    H126425   6.746   0.454  16.294 -0.9752 -0.0286 -0.9515
 1670TIP3    H226426   6.693   0.579  16.226 -1.6932 -0.2830 -0.8684
 1671TIP3   OH226427   3.081   6.740  15.623  0.4454 -0.1418  0.1161
 1671TIP3    H126428   3.099   6.795  15.700 -2.1937  0.0600  0.6656
 1671TIP3    H226429   3.133   6.780  15.553  1.1422  1.0606  1.2628
 1672TIP3   OH226430   0.424   2.873  16.429  0.2784 -0.0994  0.4949
 1672TIP3    H126431   0.436   2.849  16.337  0.2419 -0.9805  0.7123
 1672TIP3    H226432   0.511   2.900  16.458  0.0405  1.4944 -0.1396
 1673TIP3   OH226433   5.852   5.322   1.204 -0.1324 -0.0507  0.7325
 1673TIP3    H126434   5.926   5.282   1.157  0.6048  0.9745  0.9871
 1673TIP3    H226435   5.783   5.257   1.199  0.0335 -0.1316 -1.4982
 1674TIP3   OH226436   5.353   0.113  17.021 -0.0241 -0.3045  0.0535
 1674TIP3    H126437   5.258   0.108  17.022 -0.0494 -0.5203 -1.2815
 1674TIP3    H226438   5.381   0.051  17.089 -0.8276  0.5725  1.2210
 1675TIP3   OH226439   0.259   0.514   1.815 -0.5795  0.3776  0.2678
 1675TIP3    H126440   0.328   0.530   1.751 -0.3956 -1.0923  0.0531
 1675TIP3    H226441   0.181   0.555   1.777 -0.2807  0.2537 -0.5035
 1676TIP3   OH226442   2.519   1.904   0.905  0.4138  0.1481 -0.0309
 1676TIP3    H126443   2.550   1.813   0.908 -0.4715 -0.2941 -2.2987
 1676TIP3    H226444   2.473   1.911   0.821 -1.3339  2.1399  0.9963
 1677TIP3   OH226445   2.609   2.460   6.091 -0.6513 -0.0498  0.1406
 1677TIP3    H126446   2.697   2.453   6.129 -0.2063  1.9110 -0.4413
 1677TIP3    H226447   2.586   2.370   6.068  0.8997 -0.6974  0.9474
 1678TIP3   OH226448   3.274   5.226   2.442 -0.1796 -0.4004 -0.3766
 1678TIP3    H126449   3.229   5.234   2.358 -0.6488 -0.2032 -0.1072
 1678TIP3    H226450   3.273   5.132   2.461  1.0727 -0.6164 -1.2076
 1679TIP3   OH226451   1.505   3.905  16.264  0.5098 -0.3574  0.3485
 1679TIP3    H126452   1.557   3.941  16.192  0.7222  0.1743  0.7575
 1679TIP3    H226453   1.551   3.826  16.290  1.3157  0.2815  0.9245
 1680TIP3   OH226454   3.686   3.235  12.114  0.0664 -0.5226 -0.2636
 1680TIP3    H126455   3.733   3.305  12.161 -1.2296  0.6228 -0.6195
 1680TIP3    H226456   3.717   3.154  12.156  0.6330  0.3284  1.0512
 1681TIP3   OH226457   2.208   0.144  11.666  0.3393  0.7021  0.4424
 1681TIP3    H126458   2.239   0.185  11.747  1.0763  1.0415  0.0000
 1681TIP3    H226459   2.136   0.201  11.636  0.9532  1.3420  0.1545
 1682TIP3   OH226460   4.401   0.474  13.115 -0.6036 -0.4506 -0.3421
 1682TIP3    H126461   4.368   0.478  13.025  0.1726  0.0836 -0.6177
 1682TIP3    H226462   4.324   0.492  13.169 -0.5880  1.9104 -1.0052
 1683TIP3   OH226463   4.745   4.963  15.639 -0.1888  0.0689  0.5657
 1683TIP3    H126464   4.752   4.972  15.544 -0.1367  0.1494  0.5771
 1683TIP3    H226465   4.781   4.876  15.657 -1.4889 -0.5362  0.3640
 1684TIP3   OH226466   0.079   4.683   4.376 -0.4789 -0.3852 -0.6173
 1684TIP3    H126467   0.136   4.696   4.301  0.0359 -1.7138 -0.4804
 1684TIP3    H226468   0.000   4.642   4.340 -0.7279  0.0526 -0.5856
 1685TIP3   OH226469   1.584   3.950  14.974 -0.1380  0.1604 -0.0455
 1685TIP3    H126470   1.565   3.862  15.005 -0.0200 -0.2432 -1.0574
 1685TIP3    H226471   1.640   3.937  14.898 -0.4769  1.0884 -0.4794
 1686TIP3   OH226472   1.091   2.744  13.117 -0.3739  0.2033 -0.7860
 1686TIP3    H126473   1.014   2.793  13.087 -0.4192 -1.0566 -2.8993
 1686TIP3    H226474   1.085   2.660  13.071  1.5732 -0.4390  0.0463
 1687TIP3   OH226475   6.030   4.926  14.898  0.0459  0.0911 -0.0056
 1687TIP3    H126476   6.033   4.923  14.993 -1.3491  2.5597  0.2029
 1687TIP3    H226477   5.938   4.908  14.876  0.5939 -1.7161 -1.0147
 1688TIP3   OH226478   2.997   0.568   1.179  0.2763  0.3156 -0.2594
 1688TIP3    H126479   2.915   0.614   1.163  0.1007 -0.7206 -2.8233
 1688TIP3    H226480   3.057   0.637   1.209 -0.7411  1.6520 -1.1645
 1689TIP3   OH226481   5.267   4.641  11.297  0.0119 -0.1901 -0.6341
 1689TIP3    H126482   5.295   4.590  11.221 -0.2697 -1.4279  0.0561
 1689TIP3    H226483   5.262   4.577  11.368  0.2767  0.9331  0.4380
 1690TIP3   OH226484   0.472   3.728   0.462  0.3092  0.6293  0.3104
 1690TIP3    H126485   0.507   3.774   0.386  0.5379 -0.4273 -0.2535
 1690TIP3    H226486   0.414   3.791   0.504  1.8344  1.9634  0.5000
 1691TIP3   OH226487   6.430   2.967  15.475  0.6128  0.2159 -0.5332
 1691TIP3    H126488   6.521   2.968  15.505  1.0990 -1.2402 -1.8222
 1691TIP3    H226489   6.420   2.882  15.432 -1.5721  0.0548  0.1820
 1692TIP3   OH226490   6.045   0.823  16.299  0.2215  0.4116  0.6731
 1692TIP3    H126491   6.006   0.857  16.218 -0.1529  0.3852  0.8438
 1692TIP3    H226492   6.092   0.898  16.335  0.0038  0.5500  0.6711
 1693TIP3   OH226493   4.977   0.712  17.369 -1.0153  0.1273 -0.0182
 1693TIP3    H126494   5.020   0.796  17.387 -0.6062  0.0421 -0.5660
 1693TIP3    H226495   5.008   0.654  17.438 -0.8705  0.2785  0.0475
 1694TIP3   OH226496   0.982   6.008  11.135  0.7193 -0.5273 -0.3939
 1694TIP3    H126497   0.999   6.076  11.070  0.1504  0.3263  0.3178
 1694TIP3    H226498   1.066   5.965  11.148  1.5972  1.3827  0.6212
 1695TIP3   OH226499   2.855   4.299   0.184 -0.1829  0.2388  0.7436
 1695TIP3    H126500   2.768   4.270   0.212 -1.3654  0.3699 -2.4151
 1695TIP3    H226501   2.905   4.218   0.175 -0.5542 -0.0094  0.8689
 1696TIP3   OH226502   1.231   5.673  14.157 -0.6656 -0.1830 -0.1333
 1696TIP3    H126503   1.203   5.584  14.175 -0.5354 -0.7359 -2.3260
 1696TIP3    H226504   1.172   5.729  14.208 -1.8773 -1.4680 -0.0914
 1697TIP3   OH226505   0.444   6.211  15.400 -0.0361  0.0041  0.1577
 1697TIP3    H126506   0.365   6.225  15.348  0.1342  1.5749  0.2804
 1697TIP3    H226507   0.502   6.161  15.342 -0.0976  1.1635 -0.9415
 1698TIP3   OH226508   1.237   5.168   0.432 -0.4138 -0.0707 -0.0097
 1698TIP3    H126509   1.205   5.137   0.516  2.4935 -1.3004  0.7669
 1698TIP3    H226510   1.291   5.096   0.398  0.4541  1.3080 -1.7742
 1699TIP3   OH226511   6.231   1.684   6.496  0.4426 -0.2019  0.6459
 1699TIP3    H126512   6.277   1.685   6.580  2.2481  1.0419 -0.3188
 1699TIP3    H226513   6.292   1.721   6.433 -1.3786  0.2237 -0.9892
 1700TIP3   OH226514   1.839   3.519  13.264 -0.6420 -0.2562 -0.1451
 1700TIP3    H126515   1.884   3.503  13.182 -2.6259  1.7878 -1.7572
 1700TIP3    H226516   1.780   3.444  13.274 -1.8100  0.3909 -1.7142
 1701TIP3   OH226517   3.831   0.745  15.497  0.3029 -0.4668  0.0516
 1701TIP3    H126518   3.756   0.802  15.514  2.7011  2.5383  1.3798
 1701TIP3    H226519   3.880   0.789  15.427  1.4785 -1.7073  0.0506
 1702TIP3   OH226520   3.403   0.813  13.076  0.7465 -0.7848  0.0832
 1702TIP3    H126521   3.377   0.900  13.106 -0.4434 -1.1987  0.3207
 1702TIP3    H226522   3.457   0.829  12.999  0.4367  0.1543  0.0498
 1703TIP3   OH226523   6.332   4.256   0.214 -0.0314  0.4918 -0.1025
 1703TIP3    H126524   6.289   4.334   0.180  1.5601  1.6773  0.4235
 1703TIP3    H226525   6.384   4.223   0.141 -0.0833  0.4141 -0.1033
 1704TIP3   OH226526   2.130   3.758  15.163  0.1295 -0.7600 -0.0498
 1704TIP3    H126527   2.198   3.769  15.230  0.3954  0.5470 -0.5157
 1704TIP3    H226528   2.054   3.726  15.212  0.4960 -0.3976  0.7761
 1705TIP3   OH226529   5.282   1.972   4.844  0.0236  0.0554  0.4293
 1705TIP3    H126530   5.247   1.899   4.793  0.4710  0.1734 -0.0562
 1705TIP3    H226531   5.373   1.981   4.815 -0.4173  1.7266 -0.5895
 1706TIP3   OH226532   4.117   5.878  11.551 -0.0293  0.4595 -0.1876
 1706TIP3    H126533   4.192   5.866  11.608 -0.3017  0.0778  0.0930
 1706TIP3    H226534   4.105   5.973  11.547  0.9485  0.5743 -0.8663
 1707TIP3   OH226535   6.435   5.621   2.446 -0.3136  1.0686 -0.0210
 1707TIP3    H126536   6.513   5.616   2.501  0.1375  1.1255 -0.6383
 1707TIP3    H226537   6.383   5.691   2.484 -0.4939  0.4247  0.9346
 1708TIP3   OH226538   3.747   1.081   0.957  0.2328  0.1720 -0.6420
 1708TIP3    H126539   3.785   1.030   0.885  0.5021  1.7745 -1.6863
 1708TIP3    H226540   3.812   1.149   0.976 -0.8541  1.2158 -0.5173
 1709TIP3   OH226541   6.758   4.098  13.717 -0.4135 -0.1432 -0.1101
 1709TIP3    H126542   6.828   4.109  13.652 -1.5827  0.6951 -1.2538
 1709TIP3    H226543   6.702   4.174  13.706 -0.4764  0.2171  2.1516
 1710TIP3   OH226544   1.425   2.287  11.644 -0.1553 -0.1685 -0.2261
 1710TIP3    H126545   1.427   2.358  11.580  2.4527 -0.5723 -0.6909
 1710TIP3    H226546   1.332   2.279  11.668 -0.5928  3.1086 -0.4229
 1711TIP3   OH226547   0.597   6.752   2.684  0.1690  0.4163 -0.7792
 1711TIP3    H126548   0.517   6.719   2.642  0.0432 -0.7533  0.2865
 1711TIP3    H226549   0.596   6.711   2.771  0.5379  2.5403  0.2867
 1712TIP3   OH226550   1.714   0.900   2.036 -0.7304  0.3489 -0.0256
 1712TIP3    H126551   1.685   0.839   1.967  1.0072  0.1556 -0.6483
 1712TIP3    H226552   1.643   0.963   2.044 -1.6580 -0.5443 -0.8782
 1713TIP3   OH226553   1.437   5.292   3.441 -0.1552 -0.2774  0.5486
 1713TIP3    H126554   1.352   5.282   3.399 -0.9890  0.4161  1.9652
 1713TIP3    H226555   1.432   5.378   3.484  1.7285  0.3376 -0.3409
 1714TIP3   OH226556   3.038   0.692   6.616  0.1520 -0.4423  0.2403
 1714TIP3    H126557   3.059   0.746   6.539  1.4601  0.6970  1.3471
 1714TIP3    H226558   2.976   0.744   6.666  0.7855 -0.3144  0.9065
 1715TIP3   OH226559   0.136   0.806  12.359  0.1684 -0.2122  0.3079
 1715TIP3    H126560   0.164   0.816  12.450 -2.5692  3.0929  0.9658
 1715TIP3    H226561   0.042   0.788  12.364 -0.1463  0.4606 -1.8563
 1716TIP3   OH226562   3.460   0.612   0.136 -0.3323 -0.4324 -0.3449
 1716TIP3    H126563   3.481   0.641   0.047 -0.0842 -0.1365 -0.1913
 1716TIP3    H226564   3.536   0.562   0.164  0.6746  1.5086  0.5987
 1717TIP3   OH226565   0.277   6.236   5.938  0.2281  0.6621  0.0928
 1717TIP3    H126566   0.206   6.234   6.002  1.0036 -1.2165  0.9621
 1717TIP3    H226567   0.234   6.222   5.854 -0.3808 -2.2114  0.7628
 1718TIP3   OH226568   5.487   0.812  16.744 -0.0660 -0.0580  0.3437
 1718TIP3    H126569   5.559   0.809  16.807  0.0270  0.3610  0.2607
 1718TIP3    H226570   5.512   0.748  16.677  0.8019  0.8844 -0.2769
 1719TIP3   OH226571   2.815   5.963   1.312  0.5588 -0.3551  0.0732
 1719TIP3    H126572   2.823   6.037   1.373  0.9263  0.1371 -0.5534
 1719TIP3    H226573   2.784   6.003   1.230  1.8291 -0.7210 -0.6080
 1720TIP3   OH226574   3.584   4.602   1.198  0.2338 -0.0134 -0.2708
 1720TIP3    H126575   3.611   4.689   1.229  0.2914 -0.2514  0.3762
 1720TIP3    H226576   3.645   4.542   1.241 -0.2808 -0.4324 -0.1158
 1721TIP3   OH226577   0.991   2.232   2.001  0.0219 -0.2880 -0.2223
 1721TIP3    H126578   0.968   2.305   2.058 -1.1351 -0.4247 -0.5012
 1721TIP3    H226579   1.033   2.272   1.925 -0.3055  0.0579 -0.2189
 1722TIP3   OH226580   4.375   2.998   0.119 -0.4149  0.2737  0.3787
 1722TIP3    H126581   4.431   3.045   0.058  0.9767 -1.5070  0.2341
 1722TIP3    H226582   4.395   3.037   0.205  0.1925  0.4129  0.1753
 1723TIP3   OH226583   4.071   4.317  11.111 -0.4105 -0.2939  0.2301
 1723TIP3    H126584   4.137   4.381  11.082 -1.2151  1.0235  1.1654
 1723TIP3    H226585   4.045   4.272  11.031  0.3459  0.4050 -0.4313
 1724TIP3   OH226586   4.464   2.487   4.519 -0.1642  0.7005  0.1679
 1724TIP3    H126587   4.517   2.511   4.443 -0.4559  0.6685 -0.0456
 1724TIP3    H226588   4.504   2.535   4.592  1.1861 -0.5957  0.3327
 1725TIP3   OH226589   4.765   1.113  11.443 -0.0447 -0.1642  0.0448
 1725TIP3    H126590   4.730   1.024  11.436  0.1344 -0.1933 -0.5694
 1725TIP3    H226591   4.860   1.102  11.438  0.0752 -0.0738  1.6179
 1726TIP3   OH226592   3.143   5.849   4.906  0.5527 -0.3136 -0.7520
 1726TIP3    H126593   3.219   5.905   4.888 -0.4188  0.8320 -1.4148
 1726TIP3    H226594   3.124   5.808   4.822 -1.7513  2.2268 -1.6046
 1727TIP3   OH226595   4.202   0.506  15.626  0.4373 -0.4538 -0.8340
 1727TIP3    H126596   4.136   0.440  15.648 -1.5909  1.0259 -2.0469
 1727TIP3    H226597   4.286   0.461  15.635 -0.5946 -2.0800  2.1282
 1728TIP3   OH226598   0.837   3.509  12.847 -0.3341  0.0414  0.0017
 1728TIP3    H126599   0.853   3.576  12.914  0.3608  0.7989 -0.9075
 1728TIP3    H226600   0.917   3.506  12.795 -0.1027 -1.9702  0.3947
 1729TIP3   OH226601   1.147   4.540   0.782  0.3568  0.1248  0.3974
 1729TIP3    H126602   1.109   4.497   0.705 -2.0155  0.9238  1.0416
 1729TIP3    H226603   1.166   4.469   0.843 -0.0723 -0.3047  0.0353
 1730TIP3   OH226604   4.890   0.202  14.605 -0.0116  0.1010 -0.0911
 1730TIP3    H126605   4.920   0.180  14.517 -0.9665 -0.4029 -0.3000
 1730TIP3    H226606   4.848   0.288  14.595 -3.0008 -1.3145 -0.8398
 1731TIP3   OH226607   6.091   0.006   2.718  0.5114 -0.1867 -0.1524
 1731TIP3    H126608   6.017   0.034   2.772 -0.3122 -0.8075 -0.9227
 1731TIP3    H226609   6.153  -0.032   2.780  1.5840  2.9477  0.9193
 1732TIP3   OH226610   2.932   5.306   5.013 -0.5437  0.3610 -0.1750
 1732TIP3    H126611   2.935   5.291   4.919 -0.2396 -0.4301 -0.0510
 1732TIP3    H226612   2.871   5.379   5.024 -0.1458  0.8278 -1.0208
 1733TIP3   OH226613   5.201   2.552  15.704 -0.4083  0.1374  0.7325
 1733TIP3    H126614   5.165   2.613  15.768 -2.4187 -1.2306  1.0008
 1733TIP3    H226615   5.124   2.506  15.669  0.6698  0.4252 -2.2470
 1734TIP3   OH226616   5.152   2.372  14.424 -0.5230  0.1868  0.0981
 1734TIP3    H126617   5.116   2.314  14.357 -0.6505  0.7520 -0.3306
 1734TIP3    H226618   5.075   2.401  14.474 -0.4470 -0.1002  0.3850
 1735TIP3   OH226619   6.251   1.230   6.112 -0.0048  0.8382 -0.2845
 1735TIP3    H126620   6.234   1.168   6.182  0.3038  2.1045  0.9588
 1735TIP3    H226621   6.310   1.184   6.052 -0.1377 -0.2060  0.3693
 1736TIP3   OH226622   3.232   4.485   2.706  0.6918 -0.2096  0.2038
 1736TIP3    H126623   3.183   4.560   2.738  1.9461  0.2961  0.9768
 1736TIP3    H226624   3.181   4.409   2.736  0.7524  0.2875  1.6474
 1737TIP3   OH226625   3.223   5.347  11.460 -0.4097  0.3534 -0.3148
 1737TIP3    H126626   3.132   5.378  11.463 -0.4937  0.2416 -1.3759
 1737TIP3    H226627   3.273   5.423  11.431 -0.3764 -0.0114 -1.2243
 1738TIP3   OH226628   5.050   4.805  11.329  0.0854  0.2427 -0.4746
 1738TIP3    H126629   5.135   4.766  11.307 -0.0193  0.2671 -0.9508
 1738TIP3    H226630   4.996   4.786  11.252 -0.8184 -1.1561  0.4546
 1739TIP3   OH226631   5.311   4.345   1.984  1.1309 -0.1131 -0.1159
 1739TIP3    H126632   5.306   4.434   2.019  3.1768  1.0526 -2.4764
 1739TIP3    H226633   5.219   4.320   1.970  0.4688  1.1892  1.4860
 1740TIP3   OH226634   5.943   3.998  11.967 -0.2043  0.0169  0.3917
 1740TIP3    H126635   5.976   4.060  12.032 -1.4973  0.1217  0.9903
 1740TIP3    H226636   5.924   4.051  11.890  0.9686 -0.0461  0.0408
 1741TIP3   OH226637   2.444   1.700   3.080 -0.5963 -0.1304 -0.2865
 1741TIP3    H126638   2.468   1.681   3.171 -0.9945  1.0354  0.0776
 1741TIP3    H226639   2.474   1.790   3.065 -3.5060  0.9640 -0.2130
 1742TIP3   OH226640   2.053   3.318  14.582 -0.2827 -0.7937 -0.0182
 1742TIP3    H126641   1.969   3.342  14.543  0.1598  2.5632  0.7697
 1742TIP3    H226642   2.118   3.348  14.518  0.3582  2.1440  1.7928
 1743TIP3   OH226643   5.554   6.088  12.680  0.2029 -0.4116  0.4740
 1743TIP3    H126644   5.480   6.051  12.631 -0.8922 -0.9191  2.3945
 1743TIP3    H226645   5.573   6.022  12.747 -0.8842  1.7811  3.1487
 1744TIP3   OH226646   1.520   2.294  12.154  0.4076  0.1974 -0.9690
 1744TIP3    H126647   1.603   2.246  12.147  0.2874 -0.9076  2.7857
 1744TIP3    H226648   1.463   2.235  12.203 -2.5424  1.1138 -3.0319
 1745TIP3   OH226649   0.041   4.304   4.202  0.4463  0.4264  0.2483
 1745TIP3    H126650  -0.034   4.333   4.150  0.3636 -0.2960 -0.0440
 1745TIP3    H226651   0.014   4.317   4.293 -0.2910 -0.4450  0.1611
 1746TIP3   OH226652   4.583   6.123  17.134 -0.5987  0.7407  0.2402
 1746TIP3    H126653   4.521   6.146  17.203 -0.3567  1.6233  0.1753
 1746TIP3    H226654   4.661   6.173  17.155 -0.2970  0.5069 -0.3134
 1747TIP3   OH226655   3.215   0.336   4.217 -0.3225 -0.7795 -0.4883
 1747TIP3    H126656   3.158   0.385   4.158 -0.9546  0.5741  1.1585
 1747TIP3    H226657   3.304   0.356   4.186 -0.4677  2.4747  0.7484
 1748TIP3   OH226658   0.288   2.448  16.142  0.0255  0.0748 -0.2238
 1748TIP3    H126659   0.266   2.501  16.066 -1.7523 -0.4387 -0.1145
 1748TIP3    H226660   0.261   2.501  16.217 -0.9670 -0.5998 -0.0862
 1749TIP3   OH226661   6.679   4.775  15.601 -0.1220  0.3706 -0.5310
 1749TIP3    H126662   6.735   4.752  15.527  0.3302  0.7490 -0.3071
 1749TIP3    H226663   6.595   4.800  15.561 -0.1452 -0.2213 -0.8609
 1750TIP3   OH226664   6.725   4.416  12.612  0.0101  0.5802  0.1289
 1750TIP3    H126665   6.795   4.379  12.666  0.5434  1.5148  0.1076
 1750TIP3    H226666   6.644   4.383  12.652  0.4098  0.8537  1.2148
 1751TIP3   OH226667   2.747   0.951   3.601  0.0287 -0.0231 -0.1009
 1751TIP3    H126668   2.672   0.929   3.657  0.3382 -0.2093  0.2432
 1751TIP3    H226669   2.710   1.005   3.532 -0.1862  1.0941  0.8697
 1752TIP3   OH226670   2.111   3.366   2.267 -0.0715 -0.4938  0.3440
 1752TIP3    H126671   2.177   3.343   2.332  2.5131 -1.2628 -2.3304
 1752TIP3    H226672   2.087   3.283   2.226  0.3585  0.2108 -1.4224
 1753TIP3   OH226673   0.274   4.799   2.664 -0.0323  0.8635 -0.4169
 1753TIP3    H126674   0.341   4.748   2.709 -0.8583  0.6975  0.6758
 1753TIP3    H226675   0.192   4.773   2.706 -0.5750  2.3991 -0.4450
 1754TIP3   OH226676   4.192   4.739   0.503  0.4102  0.0563 -0.5077
 1754TIP3    H126677   4.194   4.827   0.541  2.9614  0.9520 -2.3982
 1754TIP3    H226678   4.232   4.683   0.570  3.4781  1.3381 -1.0694
 1755TIP3   OH226679   5.763   1.527  14.954 -0.2685 -0.5420  0.2112
 1755TIP3    H126680   5.780   1.502  15.045  0.3366 -1.1888 -0.0657
 1755TIP3    H226681   5.714   1.454  14.918 -0.4293 -0.3273 -0.0075
 1756TIP3   OH226682   3.179   2.092  10.841 -0.0085  0.1501 -0.2466
 1756TIP3    H126683   3.198   2.149  10.766  0.7948  1.5620  0.9658
 1756TIP3    H226684   3.256   2.036  10.849  0.8426  1.3864  0.6925
 1757TIP3   OH226685   0.416   0.438  13.480 -0.4873 -0.4137 -0.4474
 1757TIP3    H126686   0.462   0.493  13.543 -2.0639  0.3808  0.0690
 1757TIP3    H226687   0.459   0.456  13.396  1.0423 -0.7943  0.2215
 1758TIP3   OH226688   4.403   6.641  14.111  0.1247  0.2381  0.5003
 1758TIP3    H126689   4.469   6.660  14.044  0.1005  1.5591  0.8320
 1758TIP3    H226690   4.417   6.549  14.133  1.3391  0.2867 -0.0082
 1759TIP3   OH226691   6.003   6.586  16.806  0.5015  0.3931  0.5962
 1759TIP3    H126692   6.093   6.576  16.776  0.5749 -0.6489  1.1205
 1759TIP3    H226693   5.964   6.500  16.795 -0.2595  0.6783  0.9516
 1760TIP3   OH226694   3.699   1.352   3.087  0.0988  0.3587  0.2982
 1760TIP3    H126695   3.615   1.366   3.129 -0.4293  2.2006 -1.2456
 1760TIP3    H226696   3.693   1.263   3.051 -1.2117  0.4927  0.1426
 1761TIP3   OH226697   0.953   4.012  16.752 -0.6837 -0.1776  0.3064
 1761TIP3    H126698   0.875   4.043  16.706 -0.3388  2.0058  1.0926
 1761TIP3    H226699   0.970   3.926  16.714 -2.7486 -0.1863 -0.7420
 1762TIP3   OH226700   6.382   2.421   2.260  0.0055 -0.4459  0.5747
 1762TIP3    H126701   6.451   2.393   2.320  0.5356  0.1871  0.2671
 1762TIP3    H226702   6.314   2.457   2.318  0.6383  0.4234  0.7863
 1763TIP3   OH226703   6.138   4.748   3.071  0.3399  0.1903  0.2951
 1763TIP3    H126704   6.174   4.768   3.157  0.8398 -0.3007  0.2104
 1763TIP3    H226705   6.152   4.654   3.060 -1.2092 -0.0640  0.3492
 1764TIP3   OH226706   5.883   2.251  12.055 -0.1679  0.4216  0.4096
 1764TIP3    H126707   5.979   2.247  12.062 -0.1532 -0.5365 -0.1946
 1764TIP3    H226708   5.852   2.218  12.140  0.0492 -1.3344 -0.1544
 1765TIP3   OH226709   6.553   3.201  13.501 -0.2911 -0.1559  0.2293
 1765TIP3    H126710   6.537   3.108  13.487  0.2865 -0.2006 -0.1639
 1765TIP3    H226711   6.501   3.223  13.579 -0.6981 -0.7233  0.1208
 1766TIP3   OH226712   5.208   2.190  13.852  0.2456  0.6354  0.8904
 1766TIP3    H126713   5.187   2.242  13.929  0.8248  5.0391 -1.6274
 1766TIP3    H226714   5.300   2.206  13.835 -0.1482  0.9287 -1.4011
 1767TIP3   OH226715   0.049   0.173  12.534  0.4637 -0.8423  0.1173
 1767TIP3    H126716   0.130   0.129  12.506  0.0987 -1.5849  0.2089
 1767TIP3    H226717   0.076   0.228  12.607  0.7627 -1.6741  0.6519
 1768TIP3   OH226718   6.585   3.878  13.106 -0.4599  0.1219  0.6601
 1768TIP3    H126719   6.542   3.792  13.103  0.1897 -0.3492  3.0821
 1768TIP3    H226720   6.664   3.867  13.053 -1.2525 -0.2212 -0.4857
 1769TIP3   OH226721   4.086   5.731   4.448 -0.1755 -0.1876  0.4567
 1769TIP3    H126722   4.117   5.794   4.383 -0.4238  2.1047  2.4320
 1769TIP3    H226723   4.164   5.681   4.472  0.3134  0.2220 -0.2448
 1770TIP3   OH226724   5.899   1.475  16.910 -0.0038 -0.0895 -0.0984
 1770TIP3    H126725   5.838   1.430  16.969 -0.0430  0.8395  0.6024
 1770TIP3    H226726   5.852   1.553  16.882 -0.0550 -0.6216 -1.5459
 1771TIP3   OH226727   0.500   1.500   5.895  0.1405  0.4429 -0.0488
 1771TIP3    H126728   0.413   1.461   5.900 -1.8702  3.9425 -2.7993
 1771TIP3    H226729   0.503   1.559   5.971 -0.2583  0.8653 -0.3507
 1772TIP3   OH226730   1.456   3.497  14.255  0.1202 -0.2710  0.6341
 1772TIP3    H126731   1.506   3.499  14.337  1.0814  2.0951  0.0754
 1772TIP3    H226732   1.400   3.574  14.260 -0.7996 -0.8523 -0.3621
 1773TIP3   OH226733   4.275   3.137  15.259 -0.0272  0.4043 -0.1576
 1773TIP3    H126734   4.357   3.185  15.248 -0.3015  1.0974  0.7292
 1773TIP3    H226735   4.276   3.109  15.351 -1.0205  0.8755  0.0070
 1774TIP3   OH226736   0.429   4.675   6.052  0.2890  0.1134  0.3966
 1774TIP3    H126737   0.519   4.705   6.036  0.3686 -0.8522 -1.2671
 1774TIP3    H226738   0.407   4.625   5.973 -1.5913  0.0353  0.9340
 1775TIP3   OH226739   2.900   4.998  17.334  0.3643 -0.3513  0.3503
 1775TIP3    H126740   2.946   4.915  17.324 -0.6644 -0.7030 -2.4158
 1775TIP3    H226741   2.858   4.992  17.420  0.6444 -2.5329  0.3998
 1776TIP3   OH226742   4.893   3.118  14.068 -0.2247 -0.3773  0.1904
 1776TIP3    H126743   4.806   3.156  14.055 -0.2950 -0.1773  1.1777
 1776TIP3    H226744   4.935   3.176  14.132  0.2614 -1.0411  0.4830
 1777TIP3   OH226745   4.058   2.616  11.819  0.2990 -1.0691  0.5729
 1777TIP3    H126746   4.055   2.705  11.853 -0.9858 -0.9312  0.1768
 1777TIP3    H226747   4.089   2.626  11.729  0.8171 -1.1070  0.7427
 1778TIP3   OH226748   4.650   2.584  15.624 -0.0908  0.0554 -0.1958
 1778TIP3    H126749   4.627   2.523  15.553 -1.0508 -2.3878  2.0471
 1778TIP3    H226750   4.638   2.533  15.704  1.5231  2.4944  1.7527
 1779TIP3   OH226751   0.247   2.258   2.306 -0.1725 -0.1267 -0.7521
 1779TIP3    H126752   0.266   2.246   2.213  3.6131  1.0518 -0.2926
 1779TIP3    H226753   0.264   2.173   2.345 -0.9954 -0.4177 -1.0117
 1780TIP3   OH226754   2.947   2.244  11.550  0.1916  0.4195  0.1404
 1780TIP3    H126755   2.984   2.333  11.548 -0.1836  0.5848 -1.9645
 1780TIP3    H226756   2.853   2.258  11.561  0.3455  0.1415  2.1173
 1781TIP3   OH226757   0.433   3.564   5.410  0.2398  0.2320 -0.2805
 1781TIP3    H126758   0.388   3.493   5.365  2.3158 -1.6854  0.5057
 1781TIP3    H226759   0.378   3.582   5.487 -1.7857  1.5458 -1.9123
 1782TIP3   OH226760   6.357   0.953   1.966 -0.5909  0.1577  0.1975
 1782TIP3    H126761   6.433   1.010   1.953 -0.6642  0.3060  0.4206
 1782TIP3    H226762   6.377   0.875   1.915 -0.4761  0.3701 -0.0864
 1783TIP3   OH226763   6.504   0.579  15.372  0.7784  0.1764  0.6444
 1783TIP3    H126764   6.457   0.505  15.409  1.2337 -0.9054 -0.8167
 1783TIP3    H226765   6.592   0.572  15.408  1.1577 -0.7385 -0.4094
 1784TIP3   OH226766   0.313   0.956   3.666  0.2981  0.3059  0.1261
 1784TIP3    H126767   0.218   0.961   3.675  0.2686 -1.0062  0.7385
 1784TIP3    H226768   0.345   0.967   3.756  0.5860 -1.6734  0.3003
 1785TIP3   OH226769   0.190   4.683  15.717 -0.3007  0.7871 -0.7616
 1785TIP3    H126770   0.123   4.719  15.660 -1.0600  1.0100  0.2335
 1785TIP3    H226771   0.222   4.758  15.767 -1.2391  0.2809  0.6670
 1786TIP3   OH226772   0.351   1.687   0.581 -0.2919  0.0665 -0.2940
 1786TIP3    H126773   0.409   1.622   0.620 -0.0252  1.4504  1.7770
 1786TIP3    H226774   0.279   1.697   0.644 -0.2775  1.8068 -0.4873
 1787TIP3   OH226775   6.460   5.599   5.794 -0.4858  0.6722 -0.3994
 1787TIP3    H126776   6.413   5.576   5.874  1.0614 -0.7996  0.1645
 1787TIP3    H226777   6.397   5.582   5.723 -0.1765 -3.8454  0.1005
 1788TIP3   OH226778   0.817   6.043   0.724  0.5178 -0.2200 -0.4296
 1788TIP3    H126779   0.761   6.093   0.664 -0.0919 -1.9425 -1.3589
 1788TIP3    H226780   0.905   6.054   0.691  0.2124 -0.9488 -1.5366
 1789TIP3   OH226781   4.213   4.781   2.918  0.0530 -0.4999 -0.6243
 1789TIP3    H126782   4.209   4.841   2.843 -1.0624 -0.9520 -0.9475
 1789TIP3    H226783   4.258   4.831   2.986 -0.8026  0.6988 -0.9087
 1790TIP3   OH226784   4.634   5.668   6.032  0.0965 -0.8000 -0.7120
 1790TIP3    H126785   4.619   5.717   6.113  3.0353 -1.5096  0.3642
 1790TIP3    H226786   4.593   5.583   6.047  0.5521 -0.8966  0.0090
 1791TIP3   OH226787   1.557   0.040  17.124  0.4826  0.0333 -0.4270
 1791TIP3    H126788   1.477   0.015  17.169 -2.7769  4.3424 -3.0149
 1791TIP3    H226789   1.547   0.006  17.036  1.0250  1.3655 -1.0281
 1792TIP3   OH226790   4.823   5.484   3.677  0.0624  0.1750 -0.0447
 1792TIP3    H126791   4.857   5.569   3.647  0.0528  0.7706  1.5549
 1792TIP3    H226792   4.747   5.506   3.731 -0.4449 -0.9149 -0.2791
 1793TIP3   OH226793   5.801   3.881  16.109  0.3845 -0.3314 -0.5126
 1793TIP3    H126794   5.834   3.943  16.174 -1.5861 -0.5774  0.8007
 1793TIP3    H226795   5.724   3.925  16.071 -0.3429 -1.4530 -0.3986
 1794TIP3   OH226796   1.527   4.191   2.933 -0.1219  0.4801 -0.2275
 1794TIP3    H126797   1.617   4.184   2.903 -0.4026 -0.9677 -0.8314
 1794TIP3    H226798   1.475   4.189   2.853 -0.8386 -2.4722  0.2056
 1795TIP3   OH226799   4.800   0.105   2.276  0.2433  0.4034  0.2054
 1795TIP3    H126800   4.725   0.052   2.304  0.6382 -1.0108 -1.2342
 1795TIP3    H226801   4.783   0.122   2.183  1.4626  0.4772 -0.0192
 1796TIP3   OH226802   4.064   3.664  14.929  0.1339 -0.1161  0.0891
 1796TIP3    H126803   4.075   3.695  15.018  0.7046  1.0359 -0.3622
 1796TIP3    H226804   4.066   3.569  14.936 -1.2867 -0.0829  1.4725
 1797TIP3   OH226805   3.394   6.324   5.529  0.3145  0.3696  0.0013
 1797TIP3    H126806   3.389   6.370   5.612 -1.4010  1.2879 -0.5695
 1797TIP3    H226807   3.434   6.239   5.550 -1.1472  0.1172  1.9417
 1798TIP3   OH226808   4.505   0.530  15.301 -0.0488  0.1322  0.3091
 1798TIP3    H126809   4.441   0.461  15.317  0.4145 -0.8306 -1.7076
 1798TIP3    H226810   4.465   0.609  15.338 -2.7681 -0.2877 -1.4965
 1799TIP3   OH226811   0.247   1.180   3.467 -0.3988  0.6462 -0.4017
 1799TIP3    H126812   0.257   1.105   3.527  0.0261  2.1825  1.5458
 1799TIP3    H226813   0.336   1.196   3.435 -0.2718  1.0853  0.1649
 1800TIP3   OH226814   6.128   3.947   3.007  0.3944 -0.0692  0.0369
 1800TIP3    H126815   6.130   3.915   3.097  0.7852 -0.3168 -0.0580
 1800TIP3    H226816   6.182   3.885   2.958  1.5041  0.9325 -0.0744
 1801TIP3   OH226817   1.370   4.538  13.085  0.6906  0.2692 -0.4706
 1801TIP3    H126818   1.458   4.570  13.105  0.9467  0.0931 -1.2627
 1801TIP3    H226819   1.367   4.451  13.125 -0.0519  1.2670  1.7931
 1802TIP3   OH226820   5.053   2.921   5.574  0.0162  0.6207 -0.5164
 1802TIP3    H126821   4.968   2.878   5.570 -0.0897  0.9086 -3.2693
 1802TIP3    H226822   5.032   3.015   5.573  0.3570  0.7545  1.2498
 1803TIP3   OH226823   2.338   0.092   3.173  0.7310  0.4819  0.5162
 1803TIP3    H126824   2.425   0.071   3.138  0.3478 -0.9175  0.3449
 1803TIP3    H226825   2.339   0.057   3.262  0.1632 -0.0292  0.3241
 1804TIP3   OH226826   5.414   3.146  13.346  0.0760 -0.2887  0.1857
 1804TIP3    H126827   5.484   3.085  13.323 -0.9223 -1.8297  1.0468
 1804TIP3    H226828   5.456   3.208  13.406  0.5834 -1.5579  1.1947
 1805TIP3   OH226829   0.267   3.585  11.494  0.4675  0.2449 -0.1483
 1805TIP3    H126830   0.219   3.531  11.556  1.8251 -1.1948 -0.3093
 1805TIP3    H226831   0.206   3.597  11.421 -1.0104  1.6624  1.2318
 1806TIP3   OH226832   1.736   2.256   1.311  0.5754 -0.1961 -0.9035
 1806TIP3    H126833   1.759   2.314   1.238 -1.4433  3.2903  0.9618
 1806TIP3    H226834   1.818   2.240   1.357  1.1740  1.3811 -1.3914
 1807TIP3   OH226835   1.277   5.681  13.027  0.7031  0.3824 -0.5327
 1807TIP3    H126836   1.229   5.600  13.008 -1.4445  1.2899  0.6477
 1807TIP3    H226837   1.366   5.652  13.047  0.6615 -1.4066 -2.6401
 1808TIP3   OH226838   1.859   5.856   1.077 -0.0025 -0.5356 -0.3291
 1808TIP3    H126839   1.860   5.928   1.139  2.0422 -1.2385  0.5298
 1808TIP3    H226840   1.786   5.876   1.018  1.0591  2.7324 -0.7261
 1809TIP3   OH226841   5.632   6.450  14.519  0.2483 -0.7452  0.6918
 1809TIP3    H126842   5.600   6.371  14.563  0.2825 -0.1697  1.7927
 1809TIP3    H226843   5.660   6.507  14.591 -0.3219  0.5012 -0.0407
 1810TIP3   OH226844   0.948   6.300   1.721  0.7465  0.2987  0.2281
 1810TIP3    H126845   0.936   6.332   1.631  1.1492 -0.6117 -0.1675
 1810TIP3    H226846   0.928   6.206   1.715  1.0055  0.1904  1.0442
 1811TIP3   OH226847   4.439   1.535   4.856 -0.3669  0.0178  0.3193
 1811TIP3    H126848   4.495   1.462   4.883  0.4120  0.9963  1.4588
 1811TIP3    H226849   4.352   1.513   4.890 -0.4120 -0.8987 -0.3444
 1812TIP3   OH226850   2.184   1.273  12.218 -0.3853  0.1744  0.7861
 1812TIP3    H126851   2.114   1.276  12.283 -3.0743  1.6580 -1.9127
 1812TIP3    H226852   2.217   1.363  12.214  3.4964 -0.8529  3.5544
 1813TIP3   OH226853   3.916   4.850  11.277 -0.3271 -0.2349  0.2867
 1813TIP3    H126854   3.954   4.794  11.209 -0.0166 -0.1595  0.3954
 1813TIP3    H226855   3.941   4.808  11.359 -0.3195 -0.0823  0.3631
 1814TIP3   OH226856   0.643   2.529   3.751 -1.1419 -0.5085  0.2746
 1814TIP3    H126857   0.613   2.619   3.743  1.9163  0.5696 -0.1430
 1814TIP3    H226858   0.621   2.488   3.668 -0.5238  0.5580 -0.4342
 1815TIP3   OH226859   3.898   1.954  11.897 -0.1483 -0.8831  0.1917
 1815TIP3    H126860   3.962   1.919  11.959  0.7549  2.6531  1.5112
 1815TIP3    H226861   3.813   1.932  11.936  0.3669 -1.5621  0.9530
 1816TIP3   OH226862   0.061   4.479  12.145  0.5475 -0.3493 -0.7280
 1816TIP3    H126863   0.122   4.551  12.130  0.5865 -0.7210 -2.6753
 1816TIP3    H226864   0.111   4.415  12.195  0.8990  0.4472 -0.0368
 1817TIP3   OH226865   5.537   0.373   6.055 -0.4434 -0.4395 -0.2526
 1817TIP3    H126866   5.552   0.390   6.149  0.3156 -0.0735 -0.4296
 1817TIP3    H226867   5.554   0.280   6.045  0.2657 -0.3278 -0.1629
 1818TIP3   OH226868   5.097   1.956  16.685  0.0355 -1.4218  0.1986
 1818TIP3    H126869   5.159   2.023  16.654 -2.3126  0.1260 -1.5595
 1818TIP3    H226870   5.099   1.964  16.780 -0.4690  1.6003  0.0675
 1819TIP3   OH226871   1.435   2.245   5.616  0.2392 -0.5043  0.1682
 1819TIP3    H126872   1.444   2.256   5.711  0.8796 -1.9075  0.2892
 1819TIP3    H226873   1.446   2.151   5.602 -0.0052 -0.3264 -1.2870
 1820TIP3   OH226874   5.706   3.517  15.585 -0.0493  0.3152 -0.1837
 1820TIP3    H126875   5.723   3.610  15.601 -1.1070  0.2462  1.6559
 1820TIP3    H226876   5.766   3.471  15.644  0.7857 -0.2093 -1.4122
 1821TIP3   OH226877   4.722   1.514   3.250  0.4664 -0.4335 -0.1717
 1821TIP3    H126878   4.710   1.499   3.156 -1.6834 -0.9367  0.1225
 1821TIP3    H226879   4.755   1.431   3.284  1.9715 -0.0262 -0.5428
 1822TIP3   OH226880   6.227   6.746   2.488 -0.4264  0.3550 -0.6859
 1822TIP3    H126881   6.194   6.758   2.577  2.1020  3.6343  0.0344
 1822TIP3    H226882   6.260   6.657   2.486  0.7780  0.6251  2.2520
 1823TIP3   OH226883   5.045   5.966  13.572 -0.4945  0.1251 -0.2398
 1823TIP3    H126884   5.012   5.910  13.502 -0.9850  0.6909 -0.4632
 1823TIP3    H226885   5.033   5.914  13.652 -2.0092  0.3385 -0.2987
 1824TIP3   OH226886   0.718   5.931   1.600  0.0396  0.2810  0.4635
 1824TIP3    H126887   0.791   5.964   1.548  0.0068 -1.7593 -1.0059
 1824TIP3    H226888   0.641   5.976   1.564  0.4680  2.1077  1.7223
 1825TIP3   OH226889   2.678   3.935   4.822  0.2877 -0.2278  0.4193
 1825TIP3    H126890   2.746   3.898   4.767 -1.0105  0.3844 -1.7049
 1825TIP3    H226891   2.661   4.022   4.785 -0.8853  0.0582  1.5542
 1826TIP3   OH226892   1.136   5.916  14.574  0.7734 -0.0953 -0.8477
 1826TIP3    H126893   1.209   5.874  14.528  1.2579 -1.0117  0.6652
 1826TIP3    H226894   1.148   5.890  14.666 -1.0860  0.2796 -0.4626
 1827TIP3   OH226895   3.901   2.298  14.328  0.6906  0.8150 -0.1784
 1827TIP3    H126896   3.834   2.291  14.261  1.5208  0.0817 -0.9607
 1827TIP3    H226897   3.921   2.391  14.333 -1.9639  1.3850  1.7056
 1828TIP3   OH226898   4.634   3.220  15.571 -0.4952 -0.6092  0.3072
 1828TIP3    H126899   4.712   3.205  15.624 -0.6297 -0.1065  0.6465
 1828TIP3    H226900   4.574   3.150  15.597 -1.6840  1.2452  2.9563
 1829TIP3   OH226901   6.025   0.411  12.028  0.0304 -0.2324  0.8963
 1829TIP3    H126902   5.942   0.440  12.067  0.0975  0.0760  0.8142
 1829TIP3    H226903   6.010   0.417  11.934 -0.1363 -0.9893  0.8640
 1830TIP3   OH226904   5.849   3.267   5.031 -0.4302  0.9499 -0.4625
 1830TIP3    H126905   5.879   3.180   5.056 -0.4804  1.1880  0.4703
 1830TIP3    H226906   5.859   3.270   4.936  1.8270  0.7583 -0.2717
 1831TIP3   OH226907   1.793   1.243   6.032 -0.6300 -0.0699 -0.1186
 1831TIP3    H126908   1.838   1.255   5.948  0.4421  1.1043  0.5928
 1831TIP3    H226909   1.857   1.270   6.098 -1.9145  0.3728  1.0050
 1832TIP3   OH226910   0.717   6.033   2.600 -0.2926  0.5219 -0.0153
 1832TIP3    H126911   0.738   6.066   2.688 -0.8694 -0.1380  0.3895
 1832TIP3    H226912   0.746   5.942   2.602 -1.9296 -0.0240  0.1211
 1833TIP3   OH226913   2.479   3.434   3.853 -0.2947 -0.2427  0.1543
 1833TIP3    H126914   2.574   3.445   3.859 -0.4393  2.0020 -0.6764
 1833TIP3    H226915   2.460   3.440   3.759 -1.3974  1.0284  0.4298
 1834TIP3   OH226916   2.212   2.337   5.499 -0.4563  0.4964  0.4152
 1834TIP3    H126917   2.205   2.267   5.564  1.2765  2.7631  3.3127
 1834TIP3    H226918   2.306   2.350   5.487 -0.7352  1.8484 -0.5724
 1835TIP3   OH226919   1.498   4.043  14.331 -0.3467  0.9994  0.2618
 1835TIP3    H126920   1.424   4.076  14.279 -0.5235  1.4820  0.8109
 1835TIP3    H226921   1.575   4.063  14.279 -0.6071  0.3729 -0.3797
 1836TIP3   OH226922   4.672   4.756   2.775 -0.1765  0.0203  0.3716
 1836TIP3    H126923   4.656   4.747   2.869 -0.7467 -0.9841  0.1797
 1836TIP3    H226924   4.768   4.761   2.768  0.1259 -3.3306  0.7551
 1837TIP3   OH226925   3.908   5.023  11.855  0.2245 -0.6908 -0.1683
 1837TIP3    H126926   3.947   5.110  11.867 -0.0223 -0.5429 -0.4161
 1837TIP3    H226927   3.840   5.018  11.922 -0.2297 -0.4109 -0.5969
 1838TIP3   OH226928   6.448   4.359  14.623 -0.1442  0.2916 -0.3326
 1838TIP3    H126929   6.462   4.450  14.650 -0.7756 -0.0115  1.1168
 1838TIP3    H226930   6.490   4.353  14.537  1.4909  1.4824  0.3142
 1839TIP3   OH226931   5.048   5.616  11.594  0.0568 -0.2540 -0.6905
 1839TIP3    H126932   5.036   5.635  11.500 -1.9349 -0.0475 -0.4494
 1839TIP3    H226933   4.999   5.535  11.608 -0.4922  0.2341  0.3432
 1840TIP3   OH226934   0.899   3.292  17.363 -0.0200 -0.1788  0.0757
 1840TIP3    H126935   0.890   3.379  17.324  1.2074 -0.4036 -0.7727
 1840TIP3    H226936   0.824   3.243  17.330  0.0868  0.1330 -0.6555
 1841TIP3   OH226937   3.597   1.072   1.190  0.0399 -0.4193  0.1887
 1841TIP3    H126938   3.656   1.087   1.117  1.0750 -0.2272  1.0349
 1841TIP3    H226939   3.592   1.156   1.236  1.8475 -1.2388  2.0525
 1842TIP3   OH226940   3.897   3.893  14.794  0.0769 -0.7479  0.2494
 1842TIP3    H126941   3.876   3.819  14.737  2.0914 -1.2614  0.0782
 1842TIP3    H226942   3.906   3.854  14.881  0.3332 -0.5706  0.3032
 1843TIP3   OH226943   4.842   4.716   2.200 -0.0608 -0.2386  0.0913
 1843TIP3    H126944   4.924   4.677   2.171 -0.3889 -1.9642  1.3746
 1843TIP3    H226945   4.862   4.754   2.286 -0.7936 -1.5219  0.8605
 1844TIP3   OH226946   4.136   5.225  16.432  0.5208  0.6611  0.6588
 1844TIP3    H126947   4.078   5.206  16.358 -0.1099 -0.3691  1.3906
 1844TIP3    H226948   4.222   5.240  16.392 -0.1666  1.9083 -0.4162
 1845TIP3   OH226949   0.962   4.100   1.179  0.0516  0.0302 -0.2842
 1845TIP3    H126950   0.916   4.117   1.261  1.9089  2.0617  0.4651
 1845TIP3    H226951   0.898   4.119   1.111 -0.6656  1.3989  0.7134
 1846TIP3   OH226952   3.879   4.694   6.628 -0.4955 -0.2647 -0.0756
 1846TIP3    H126953   3.798   4.691   6.679  0.6040 -0.6270  1.7567
 1846TIP3    H226954   3.942   4.736   6.687  1.0286 -1.3499 -0.8838
 1847TIP3   OH226955   2.646   2.346  13.627 -0.1637 -0.4912  0.0637
 1847TIP3    H126956   2.591   2.346  13.549 -0.2717  2.2673  0.0425
 1847TIP3    H226957   2.733   2.373  13.596 -0.2888  0.9530  0.8960
 1848TIP3   OH226958   2.326   1.604   1.097 -0.0626  0.6090 -0.1913
 1848TIP3    H126959   2.410   1.616   1.052 -0.0043 -0.2217 -0.3225
 1848TIP3    H226960   2.349   1.572   1.184 -0.2535 -0.6877 -0.5899
 1849TIP3   OH226961   1.656   4.079   5.393  0.1047  0.6246  0.5208
 1849TIP3    H126962   1.633   4.108   5.305 -0.2251 -0.9126  0.0652
 1849TIP3    H226963   1.747   4.050   5.386 -0.3368 -0.7887  0.3139
 1850TIP3   OH226964   0.452   3.578   2.681 -0.1587 -0.2913 -0.2781
 1850TIP3    H126965   0.397   3.501   2.698  1.7313 -2.6845 -3.7198
 1850TIP3    H226966   0.412   3.648   2.732 -3.7574 -2.8586  0.8179
 1851TIP3   OH226967   4.410   0.639   4.266 -0.3178 -0.5857  0.6057
 1851TIP3    H126968   4.456   0.655   4.183  0.0513 -2.6734  0.3506
 1851TIP3    H226969   4.317   0.645   4.243 -0.2128 -0.8427  0.0826
 1852TIP3   OH226970   5.974   3.057  13.040  0.1552 -0.4927  0.1571
 1852TIP3    H126971   5.954   2.986  12.979  0.3117  0.9438 -1.6383
 1852TIP3    H226972   5.997   3.012  13.122 -0.0035 -2.4860 -0.8296
 1853TIP3   OH226973   4.019   6.646  14.745  0.1393 -0.1396  0.3135
 1853TIP3    H126974   4.061   6.561  14.755 -0.5019 -0.6584 -1.1035
 1853TIP3    H226975   4.091   6.707  14.726  0.4231 -0.7221 -0.5239
 1854TIP3   OH226976   0.091   0.846   5.208  0.6125  0.7951  0.2974
 1854TIP3    H126977   0.065   0.844   5.116  0.5990 -3.0816  0.2177
 1854TIP3    H226978   0.185   0.862   5.205  0.8059 -0.3323 -0.5150
 1855TIP3   OH226979   3.038   5.186  13.091 -0.0919 -0.9659 -0.5117
 1855TIP3    H126980   3.045   5.107  13.038 -3.9471 -0.9468 -1.3012
 1855TIP3    H226981   2.971   5.167  13.156 -1.6286  1.7813 -1.1289
 1856TIP3   OH226982   5.247   2.690   1.076 -0.6603  0.1250 -0.4624
 1856TIP3    H126983   5.202   2.631   1.015 -1.6004 -0.8695  1.1218
 1856TIP3    H226984   5.207   2.672   1.161  1.4199  0.6057  0.6953
 1857TIP3   OH226985   1.315   2.546   1.576 -0.1173  0.5735 -0.7603
 1857TIP3    H126986   1.292   2.518   1.664  1.7611  1.3589  0.0186
 1857TIP3    H226987   1.241   2.600   1.547 -1.9799 -1.8219 -0.7606
 1858TIP3   OH226988   3.985   1.282  16.216 -0.8637  0.3306  0.7654
 1858TIP3    H126989   3.981   1.367  16.261 -0.5450  0.1598  1.1188
 1858TIP3    H226990   3.933   1.295  16.137 -0.0138  1.1611  0.3127
 1859TIP3   OH226991   3.992   4.621   2.962 -0.2188  0.5202 -0.6417
 1859TIP3    H126992   3.940   4.607   3.041 -0.4467 -2.5411 -1.1890
 1859TIP3    H226993   4.069   4.669   2.992  0.1290 -1.2928  1.6689
 1860TIP3   OH226994   5.271   5.342   3.596 -0.4450  0.3494 -0.0436
 1860TIP3    H126995   5.195   5.283   3.601 -0.1507 -0.0235  0.0565
 1860TIP3    H226996   5.245   5.418   3.648 -1.3359  0.8902 -1.2196
 1861TIP3   OH226997   1.783   2.320  15.171  0.2360  0.1537  0.1310
 1861TIP3    H126998   1.827   2.245  15.212 -2.9900 -1.3091  1.2927
 1861TIP3    H226999   1.819   2.324  15.083  2.5338 -0.9428  0.9453
 1862TIP3   OH227000   0.583   5.923   3.236  0.3261  0.2930  0.5765
 1862TIP3    H127001   0.507   5.865   3.243 -0.1964  0.9271  0.3246
 1862TIP3    H227002   0.563   5.978   3.160  0.5658  1.1427  1.1150
 1863TIP3   OH227003   3.707   6.729  16.322  0.6867 -0.5250  0.6751
 1863TIP3    H127004   3.645   6.685  16.264  1.4711  0.4188 -0.9514
 1863TIP3    H227005   3.689   6.692  16.409 -0.6192 -1.8860 -0.1254
 1864TIP3   OH227006   4.822   6.162  14.588  0.1473  0.0961 -0.0005
 1864TIP3    H127007   4.734   6.182  14.620  0.0656  0.8734 -0.6888
 1864TIP3    H227008   4.880   6.214  14.643  0.1866 -0.4657  0.4953
 1865TIP3   OH227009   1.327   6.115  16.734  0.0590  1.0640 -0.7147
 1865TIP3    H127010   1.246   6.066  16.722 -0.5836  1.6092  1.0717
 1865TIP3    H227011   1.369   6.073  16.809 -1.7765  4.6618  2.6788
 1866TIP3   OH227012   3.712   1.011   3.762  0.4913  0.6857 -0.1433
 1866TIP3    H127013   3.725   0.989   3.855  0.0179 -0.0218 -0.2300
 1866TIP3    H227014   3.751   0.937   3.715 -1.5833 -0.2725 -0.4476
 1867TIP3   OH227015   0.927   0.034   4.917 -0.1266  0.0730  0.1441
 1867TIP3    H127016   0.977  -0.048   4.913  0.4035  0.4299 -1.3671
 1867TIP3    H227017   0.858   0.017   4.981  0.1284 -1.4770  0.0493
 1868TIP3   OH227018   6.578   3.140   2.980  0.0612 -0.1545  0.0088
 1868TIP3    H127019   6.494   3.109   2.947 -1.7291  0.0604  3.8529
 1868TIP3    H227020   6.581   3.109   3.070  3.0534  1.8969  0.7636
 1869TIP3   OH227021   5.558   3.642   1.056  0.4782  0.3431  0.6822
 1869TIP3    H127022   5.650   3.668   1.048 -0.0355  1.9322 -0.6181
 1869TIP3    H227023   5.531   3.623   0.966 -0.2091 -1.1116  1.1788
 1870TIP3   OH227024   5.147   2.213  12.661  0.5179  0.3506  0.0980
 1870TIP3    H127025   5.197   2.278  12.612  0.4365  1.5311  1.5251
 1870TIP3    H227026   5.208   2.140  12.674  1.3510  1.0856  0.3854
 1871TIP3   OH227027   4.729   3.367   5.313 -0.0398 -0.9856  0.0797
 1871TIP3    H127028   4.688   3.334   5.392 -0.2120  0.1389  0.4866
 1871TIP3    H227029   4.766   3.452   5.338 -0.4135 -0.4381 -1.1201
 1872TIP3   OH227030   2.327   4.608  17.164  0.0479 -0.6205 -0.3037
 1872TIP3    H127031   2.361   4.579  17.248  1.6054  2.1921  0.1720
 1872TIP3    H227032   2.238   4.637  17.183 -0.6410 -2.5986 -0.2968
 1873TIP3   OH227033   3.278   4.805   2.704 -0.0243  0.1114 -0.3532
 1873TIP3    H127034   3.329   4.846   2.774 -0.1165 -1.3923  0.6427
 1873TIP3    H227035   3.194   4.784   2.745  0.1381 -1.3462 -0.7181
 1874TIP3   OH227036   3.516   0.511  15.857  0.1332 -0.1187 -0.5931
 1874TIP3    H127037   3.523   0.441  15.922  0.3149  0.0733 -0.4045
 1874TIP3    H227038   3.587   0.495  15.796  0.2552 -0.0240 -0.4766
 1875TIP3   OH227039   1.073   4.710  15.374  0.0840 -0.2376 -0.0256
 1875TIP3    H127040   1.022   4.760  15.310 -1.9284  0.3852  1.9076
 1875TIP3    H227041   1.163   4.718  15.344 -0.5532  1.6137 -1.7218
 1876TIP3   OH227042   4.432   3.468  11.323  0.9036 -0.1847 -0.1537
 1876TIP3    H127043   4.387   3.488  11.241  1.3000 -1.1514 -0.6362
 1876TIP3    H227044   4.371   3.494  11.392  1.6218  3.1659 -0.6525
 1877TIP3   OH227045   5.016   0.876  15.929  0.3497 -0.1402 -0.2455
 1877TIP3    H127046   5.094   0.927  15.951  1.0944 -1.2234 -0.3128
 1877TIP3    H227047   5.049   0.804  15.875 -0.7663 -0.3497 -0.6695
 1878TIP3   OH227048   5.814   1.054  13.216  0.2800  0.0865  0.0078
 1878TIP3    H127049   5.756   0.982  13.241 -0.7067  0.1099 -2.0471
 1878TIP3    H227050   5.881   1.013  13.161  1.0933  0.3900  0.7469
 1879TIP3   OH227051   2.739   2.875   0.493 -0.0615 -0.8750  0.1376
 1879TIP3    H127052   2.651   2.843   0.513  0.0000 -2.2533 -1.5434
 1879TIP3    H227053   2.797   2.817   0.542 -0.0569 -0.9128  0.0879
 1880TIP3   OH227054   4.177   1.367   3.038 -0.6221 -0.1909  0.4012
 1880TIP3    H127055   4.144   1.338   3.123 -1.0231 -2.1606 -0.3800
 1880TIP3    H227056   4.108   1.426   3.004 -0.0009  1.4338  1.8163
 1881TIP3   OH227057   1.303   4.417  10.538  0.7729 -0.3179  0.0768
 1881TIP3    H127058   1.350   4.443  10.617  0.2133 -1.3112  0.7545
 1881TIP3    H227059   1.325   4.484  10.474  1.4371  0.3670  0.9986
 1882TIP3   OH227060   5.523   4.061   0.932  0.7193 -0.6440  0.0013
 1882TIP3    H127061   5.449   4.001   0.932  0.1718 -0.0967  2.6930
 1882TIP3    H227062   5.510   4.115   0.854 -2.1774 -0.0766  0.7620
 1883TIP3   OH227063   4.277   0.787  16.546 -0.3571 -0.1623  0.0271
 1883TIP3    H127064   4.350   0.844  16.524  0.3908 -0.7461  0.9192
 1883TIP3    H227065   4.318   0.710  16.586 -1.5525  0.1767  1.9944
 1884TIP3   OH227066   0.643   2.893   1.471 -0.3549 -0.4897 -0.1912
 1884TIP3    H127067   0.621   2.927   1.384  0.4232  1.7392  0.4284
 1884TIP3    H227068   0.724   2.844   1.458 -0.2041 -0.1109 -0.7122
 1885TIP3   OH227069   6.631   1.459  11.058  0.2757  0.1754 -0.2763
 1885TIP3    H127070   6.550   1.469  11.008 -0.3546  1.2042  0.8748
 1885TIP3    H227071   6.691   1.524  11.021 -0.1662  0.8891  0.2455
 1886TIP3   OH227072   5.094   4.709   0.768 -0.3704  0.0345  0.0206
 1886TIP3    H127073   5.070   4.705   0.861 -0.0976 -1.4596  0.0469
 1886TIP3    H227074   5.081   4.620   0.736 -1.0861  0.6771 -1.5557
 1887TIP3   OH227075   3.954   2.073  15.988 -0.1301 -0.0631  0.1417
 1887TIP3    H127076   3.888   2.018  15.946 -0.2662 -0.7628  1.2392
 1887TIP3    H227077   3.911   2.107  16.066  0.8013 -0.5305  0.8712
 1888TIP3   OH227078   4.395   1.447   4.590 -0.2029 -0.4376  0.1226
 1888TIP3    H127079   4.435   1.451   4.677 -0.8165  0.9402  0.3726
 1888TIP3    H227080   4.458   1.491   4.532  0.1655 -1.2749 -0.1159
 1889TIP3   OH227081   1.633   0.297   5.611 -0.1288 -0.0324 -0.2695
 1889TIP3    H127082   1.654   0.222   5.666  1.5168 -0.5725 -1.5507
 1889TIP3    H227083   1.546   0.278   5.575 -0.3966 -0.5542  0.6548
 1890TIP3   OH227084   4.956   0.919   4.143 -0.0365 -0.1077  0.2307
 1890TIP3    H127085   5.035   0.905   4.195 -1.2418 -1.4414  1.8048
 1890TIP3    H227086   4.969   1.005   4.102  1.6540  0.2648  1.4510
 1891TIP3   OH227087   1.741   1.869  13.739  0.4592  0.0185 -0.5058
 1891TIP3    H127088   1.765   1.804  13.806  0.9527  0.6538 -0.0486
 1891TIP3    H227089   1.668   1.829  13.692  0.2323 -0.5306  0.2821
 1892TIP3   OH227090   0.990   0.881  11.939 -0.1794  0.1546 -0.2162
 1892TIP3    H127091   1.060   0.872  11.874 -0.5062  1.1242 -0.7198
 1892TIP3    H227092   1.016   0.956  11.992 -0.0500 -0.4690  0.6211
 1893TIP3   OH227093   5.406   4.938  13.902  0.4500  0.3821 -0.3942
 1893TIP3    H127094   5.501   4.944  13.913  0.9725 -1.3211 -3.1889
 1893TIP3    H227095   5.394   4.893  13.819 -2.8461  0.7992 -0.2637
 1894TIP3   OH227096   5.261   0.009  14.838 -0.2371  0.3173  0.0853
 1894TIP3    H127097   5.166   0.013  14.826 -0.4886 -0.4760  1.6075
 1894TIP3    H227098   5.291   0.098  14.820 -1.2566  0.5559 -0.4965
 1895TIP3   OH227099   6.028   2.207   4.936  0.5828 -0.4381  0.2407
 1895TIP3    H127100   6.018   2.287   4.884  1.9591 -0.7312 -0.5172
 1895TIP3    H227101   5.954   2.210   4.997  0.9360  1.7164  0.6626
 1896TIP3   OH227102   0.741   4.866  11.710 -0.3666  0.1902 -0.0012
 1896TIP3    H127103   0.787   4.870  11.793  2.3984 -0.6462 -1.3921
 1896TIP3    H227104   0.770   4.784  11.669 -2.8689 -0.2222 -1.1502
 1897TIP3   OH227105   2.912   6.593  16.908 -0.1682 -0.3665 -0.6896
 1897TIP3    H127106   2.978   6.543  16.860  0.8267  0.9335 -0.7580
 1897TIP3    H227107   2.963   6.654  16.962 -1.3034 -0.2263  0.2751
 1898TIP3   OH227108   5.526   0.654  12.307  0.6569  0.3835  0.6725
 1898TIP3    H127109   5.601   0.666  12.248 -0.6657  0.6211 -1.0275
 1898TIP3    H227110   5.546   0.710  12.382  1.5111  1.5742 -0.4036
 1899TIP3   OH227111   0.619   5.279  16.903  0.3263 -0.3066  0.1117
 1899TIP3    H127112   0.687   5.326  16.855  0.1729  1.4421  1.4855
 1899TIP3    H227113   0.574   5.227  16.837  0.2856  1.7838 -1.6111
 1900TIP3   OH227114   5.012   2.553   5.282 -0.2248  0.0199  0.0046
 1900TIP3    H127115   5.024   2.643   5.253  0.6121  0.0703  0.4753
 1900TIP3    H227116   5.019   2.501   5.202  2.2812  0.1357  0.0869
 1901TIP3   OH227117   3.918   0.037  15.946 -0.2189  0.0828  0.1217
 1901TIP3    H127118   3.892  -0.055  15.954  1.1747 -0.1447  2.8366
 1901TIP3    H227119   4.001   0.043  15.992 -1.1509  3.0639  1.6819
 1902TIP3   OH227120   4.383   0.704  12.233  0.0839 -0.0589 -0.5623
 1902TIP3    H127121   4.321   0.671  12.298  1.3167  1.4216  1.4608
 1902TIP3    H227122   4.410   0.626  12.185 -1.4206 -1.0995  0.1755
 1903TIP3   OH227123   2.719   6.153  17.197 -0.1234 -0.2113  0.1410
 1903TIP3    H127124   2.705   6.081  17.259 -2.2531 -1.5562 -1.7360
 1903TIP3    H227125   2.730   6.110  17.113 -0.4054  1.6405 -0.8980
 1904TIP3   OH227126   5.070   3.525   4.163 -0.2517  0.1940  0.4004
 1904TIP3    H127127   5.098   3.442   4.125  1.0117  1.4761 -1.6305
 1904TIP3    H227128   5.100   3.591   4.101 -2.9454  2.0789  0.9660
 1905TIP3   OH227129   0.348   6.188  15.720 -0.6602  0.2755 -0.1771
 1905TIP3    H127130   0.360   6.162  15.629  1.1270  1.6863 -0.3882
 1905TIP3    H227131   0.342   6.283  15.718 -0.0168  0.3742  1.2396
 1906TIP3   OH227132   0.974   1.662  15.012  0.2957 -0.4388 -0.0724
 1906TIP3    H127133   0.904   1.725  14.993 -0.7139 -1.3794  0.3869
 1906TIP3    H227134   0.934   1.600  15.072  2.1996  0.2131  1.9949
 1907TIP3   OH227135   5.462   1.480  16.199 -0.6686  0.0558 -0.3065
 1907TIP3    H127136   5.389   1.427  16.229  1.1704 -2.8341 -0.6241
 1907TIP3    H227137   5.512   1.499  16.279 -0.2463 -0.4289 -0.4542
 1908TIP3   OH227138   0.788   2.717   1.901 -0.1006 -0.2116 -0.0866
 1908TIP3    H127139   0.839   2.658   1.845  0.2867 -0.5851  0.6364
 1908TIP3    H227140   0.764   2.789   1.844  0.6506 -0.3719 -0.6305
 1909TIP3   OH227141   6.597   0.886   4.232 -0.0413  0.1289  0.8507
 1909TIP3    H127142   6.572   0.801   4.268  0.3267 -0.4064 -0.1171
 1909TIP3    H227143   6.541   0.897   4.155 -0.3227  0.9232  1.1564
 1910TIP3   OH227144   0.817   6.243   4.177 -0.8125 -0.5291  0.7121
 1910TIP3    H127145   0.758   6.268   4.106  2.3904  4.3898 -0.7470
 1910TIP3    H227146   0.773   6.273   4.257 -1.7580 -0.1948  0.0833
 1911TIP3   OH227147   6.708   0.149   0.837 -0.8580  0.1046 -0.4068
 1911TIP3    H127148   6.677   0.060   0.855 -1.4701  0.5247  0.6860
 1911TIP3    H227149   6.802   0.145   0.853 -0.7360 -0.5479 -1.2093
 1912TIP3   OH227150   3.076   4.266   5.807  0.1999  0.3354 -0.0865
 1912TIP3    H127151   3.134   4.227   5.741  0.6990  0.5851  0.1977
 1912TIP3    H227152   3.003   4.205   5.813  0.9207 -0.5226  0.2900
 1913TIP3   OH227153   6.075   5.336  15.391 -0.3790  0.5669 -0.0923
 1913TIP3    H127154   6.101   5.416  15.436 -0.8569  1.1365 -0.7986
 1913TIP3    H227155   6.101   5.265  15.450  0.9444  1.1926  0.1079
 1914TIP3   OH227156   0.224   6.199   5.117  0.2338 -0.1813  0.5506
 1914TIP3    H127157   0.246   6.215   5.209  0.0429 -1.1980  0.7773
 1914TIP3    H227158   0.132   6.175   5.118  0.4140 -0.9223  0.1865
 1915TIP3   OH227159   4.133   0.416   3.352 -0.0737  0.2565  0.1850
 1915TIP3    H127160   4.216   0.412   3.304 -0.3081 -1.7236 -0.1349
 1915TIP3    H227161   4.074   0.462   3.292 -0.4153 -2.3278 -1.5959
 1916TIP3   OH227162   3.570   5.786   5.531  0.0123 -0.2209 -0.1369
 1916TIP3    H127163   3.533   5.761   5.615 -0.8535 -0.9285 -0.7069
 1916TIP3    H227164   3.556   5.710   5.475  1.4937 -0.1486 -0.6497
 1917TIP3   OH227165   1.561   2.541  13.957  0.0399  0.0803 -0.5963
 1917TIP3    H127166   1.521   2.613  13.908  1.6231  2.3263  1.1673
 1917TIP3    H227167   1.638   2.518  13.906 -0.3665 -0.2220 -1.0729
 1918TIP3   OH227168   3.916   3.015  13.986  0.3666 -0.5355  0.2879
 1918TIP3    H127169   3.849   3.029  13.920  1.0687  0.2517 -0.2888
 1918TIP3    H227170   3.998   3.038  13.941  0.8473  0.0641  1.4504
 1919TIP3   OH227171   3.888   0.763   3.440  0.1986 -0.7827  0.3305
 1919TIP3    H127172   3.850   0.676   3.424 -0.4311 -0.3332 -0.6944
 1919TIP3    H227173   3.812   0.820   3.453  0.3288  0.3944 -3.0680
 1920TIP3   OH227174   0.282   5.666   0.649 -0.1703 -0.2225 -0.2231
 1920TIP3    H127175   0.259   5.754   0.619  0.8663 -0.2817 -1.2573
 1920TIP3    H227176   0.333   5.680   0.729  0.1127  0.1354 -0.4630
 1921TIP3   OH227177   4.444   4.881   3.700  0.1376  0.2818  0.2718
 1921TIP3    H127178   4.439   4.952   3.635  1.7522 -0.1772 -0.4129
 1921TIP3    H227179   4.416   4.803   3.652 -1.5910  0.4093  1.0100
 1922TIP3   OH227180   4.594   2.829  11.878 -0.3880  0.7812 -0.3328
 1922TIP3    H127181   4.515   2.794  11.919 -0.2106  0.9299  0.1392
 1922TIP3    H227182   4.665   2.772  11.910 -0.2474  0.8987 -0.4335
 1923TIP3   OH227183   3.039   4.267  12.885 -0.0019 -0.6090  0.2642
 1923TIP3    H127184   3.065   4.197  12.824 -0.8468 -1.1071  0.4581
 1923TIP3    H227185   2.966   4.229  12.934 -3.2710  1.6961 -2.3431
 1924TIP3   OH227186   1.657   1.160  13.910 -0.0362  0.5181 -0.4786
 1924TIP3    H127187   1.572   1.172  13.867 -0.8878  2.6945  1.5851
 1924TIP3    H227188   1.706   1.239  13.889  1.5095 -0.6840 -1.5790
 1925TIP3   OH227189   4.076   4.791   1.199  0.2285  0.3687 -0.1759
 1925TIP3    H127190   4.164   4.763   1.225 -0.0322 -0.7164 -0.4224
 1925TIP3    H227191   4.091   4.854   1.128  0.8210  0.6390  0.1835
 1926TIP3   OH227192   5.659   4.146  16.796 -0.1032 -0.3872 -0.3990
 1926TIP3    H127193   5.649   4.133  16.891 -0.5085  3.2004  0.1928
 1926TIP3    H227194   5.582   4.102  16.758 -0.6071 -0.8264  1.0346
 1927TIP3   OH227195   1.990   1.945   4.794  0.2723 -0.6326  0.2329
 1927TIP3    H127196   1.920   1.924   4.732 -1.1449 -0.8347  1.8422
 1927TIP3    H227197   1.945   1.980   4.870  1.8709 -1.3513  1.5740
 1928TIP3   OH227198   4.715   4.904   6.221 -0.0217 -0.5497 -0.3341
 1928TIP3    H127199   4.689   4.987   6.260 -0.7292 -0.7289 -0.4147
 1928TIP3    H227200   4.633   4.863   6.193  0.3584 -1.0475 -0.7524
 1929TIP3   OH227201   4.797   1.733   3.103  0.5733  0.5549 -0.1327
 1929TIP3    H127202   4.775   1.674   3.174  1.3257 -1.2910 -1.3486
 1929TIP3    H227203   4.850   1.802   3.144 -0.0867  0.2507  1.2715
 1930TIP3   OH227204   4.828   1.924   3.556 -0.6661 -0.3184 -0.0379
 1930TIP3    H127205   4.841   2.018   3.558 -0.1343 -0.3728 -0.8639
 1930TIP3    H227206   4.913   1.887   3.582 -0.9387 -0.5729  0.5199
 1931TIP3   OH227207   2.839   4.653   1.162 -0.3426 -0.8463  0.1126
 1931TIP3    H127208   2.926   4.653   1.122 -0.1482 -2.0076  0.4819
 1931TIP3    H227209   2.812   4.561   1.159 -1.2024 -0.6276  0.7723
 1932TIP3   OH227210   2.129   3.407   5.383  0.6028  0.2377 -0.6777
 1932TIP3    H127211   2.151   3.321   5.420  3.9518  1.1095 -0.3204
 1932TIP3    H227212   2.063   3.389   5.316 -2.2119 -1.9860  2.3778
 1933TIP3   OH227213   4.287   5.588  16.278 -0.0521 -0.2688  0.4034
 1933TIP3    H127214   4.382   5.593  16.272 -0.1935  1.0515 -3.9553
 1933TIP3    H227215   4.267   5.496  16.261  0.4461 -0.2408 -0.3855
 1934TIP3   OH227216   6.367   1.344  13.747  0.5638 -0.2701  0.5749
 1934TIP3    H127217   6.371   1.355  13.652 -1.6572 -0.1712  0.4531
 1934TIP3    H227218   6.423   1.413  13.781  0.3543  0.5337 -0.6323
 1935TIP3   OH227219   2.120   4.649  15.311 -0.5342 -0.1849 -0.3407
 1935TIP3    H127220   2.105   4.731  15.265  2.6015  1.1006  0.6459
 1935TIP3    H227221   2.176   4.598  15.252  2.1931  0.8321  1.1657
 1936TIP3   OH227222   4.217   0.750   0.199 -0.0582  0.2320 -0.7076
 1936TIP3    H127223   4.186   0.838   0.177 -0.9360  0.4167  1.0944
 1936TIP3    H227224   4.287   0.765   0.263 -0.5794 -0.3822  0.0173
 1937TIP3   OH227225   4.498   5.390  14.976 -0.7527  0.4958 -0.5017
 1937TIP3    H127226   4.559   5.463  14.962  1.4315 -0.9753  0.6432
 1937TIP3    H227227   4.470   5.365  14.888  0.6360  1.0002 -1.1227
 1938TIP3   OH227228   2.490   2.931  17.155  0.6921 -0.2073  0.1814
 1938TIP3    H127229   2.414   2.884  17.120  0.4908 -0.1368  0.5223
 1938TIP3    H227230   2.470   2.945  17.248  0.3435  1.3702 -0.1035
 1939TIP3   OH227231   3.076   5.860  10.984 -0.4107  0.6644  0.1935
 1939TIP3    H127232   3.163   5.841  11.019 -0.1923 -1.3273 -1.2413
 1939TIP3    H227233   3.017   5.848  11.059  0.1965 -1.9999  0.3587
 1940TIP3   OH227234   3.771   5.073  16.289 -0.1527  0.7753  0.3674
 1940TIP3    H127235   3.742   5.014  16.358  1.0357  0.4513  0.6066
 1940TIP3    H227236   3.702   5.068  16.223  0.2303 -1.4575  0.0423
 1941TIP3   OH227237   4.249   2.550  14.151  0.2512  0.0659  0.4338
 1941TIP3    H127238   4.208   2.481  14.202  1.3074 -0.6488  0.3284
 1941TIP3    H227239   4.177   2.587  14.099 -0.8165  0.7149  2.2829
 1942TIP3   OH227240   1.556   2.039  11.524  0.2984 -0.1156  0.0349
 1942TIP3    H127241   1.510   2.120  11.546  1.5798  0.4215  0.8210
 1942TIP3    H227242   1.501   1.970  11.561 -0.3966  0.4500  0.0730
 1943TIP3   OH227243   2.742   4.900  12.496 -0.0240 -0.2523  0.6824
 1943TIP3    H127244   2.731   4.837  12.425 -0.1672  1.6703 -1.0922
 1943TIP3    H227245   2.835   4.923  12.493 -0.0008 -0.2596  1.2357
 1944TIP3   OH227246   4.166   1.851  16.245  0.1634  0.4957  0.2963
 1944TIP3    H127247   4.098   1.832  16.310 -0.3277  0.2973 -0.2704
 1944TIP3    H227248   4.201   1.935  16.272  1.7203 -0.7075  2.2996
 1945TIP3   OH227249   6.079   1.295  16.806 -0.5117  0.5417 -0.1385
 1945TIP3    H127250   6.011   1.359  16.825 -1.3591 -0.5394  0.5197
 1945TIP3    H227251   6.058   1.219  16.860  0.1173 -0.5466 -1.3663
 1946TIP3   OH227252   6.491   3.384   4.146 -0.4016  0.4126  0.2474
 1946TIP3    H127253   6.460   3.434   4.070 -0.9221  0.9169  0.7808
 1946TIP3    H227254   6.587   3.391   4.141 -0.4664  1.5996  0.3923
 1947TIP3   OH227255   3.855   6.203   2.908 -0.4598  0.3216 -0.5026
 1947TIP3    H127256   3.841   6.229   2.817 -2.0479 -0.8004 -0.6341
 1947TIP3    H227257   3.822   6.113   2.912  0.6650 -0.0705  0.9286
 1948TIP3   OH227258   1.007   2.551   3.429 -0.0108 -0.3589 -0.2464
 1948TIP3    H127259   1.093   2.580   3.398 -0.0299  1.2742  1.0877
 1948TIP3    H227260   1.014   2.553   3.525 -1.5824  0.0279 -0.1072
 1949TIP3   OH227261   3.600   0.563  14.105 -0.5507  0.5933  0.2800
 1949TIP3    H127262   3.658   0.636  14.083  0.5896 -1.2287 -3.7604
 1949TIP3    H227263   3.554   0.543  14.024 -3.7221 -0.8290  2.2400
 1950TIP3   OH227264   5.935   3.061  12.161 -0.4437 -0.3965 -0.3814
 1950TIP3    H127265   5.842   3.079  12.152 -0.3846  0.3514  0.2932
 1950TIP3    H227266   5.978   3.141  12.131 -0.1001  0.0396  1.1450
 1951TIP3   OH227267   1.104   3.373   3.199 -0.0387 -0.2105  0.1741
 1951TIP3    H127268   1.129   3.364   3.290  3.2679 -3.2360 -0.8112
 1951TIP3    H227269   1.074   3.285   3.174 -0.0334  0.3226 -1.8766
 1952TIP3   OH227270   1.736   0.594   0.668 -0.2038 -0.3484  0.3184
 1952TIP3    H127271   1.691   0.678   0.678  1.0092  0.4428 -0.6058
 1952TIP3    H227272   1.740   0.559   0.757  0.2568  1.1188  0.9052
 1953TIP3   OH227273   3.264   6.505  12.013 -0.3437 -0.3464  0.8307
 1953TIP3    H127274   3.343   6.495  12.066  1.9433  0.8833 -2.0687
 1953TIP3    H227275   3.218   6.578  12.054  0.1351 -0.8960  2.4224
 1954TIP3   OH227276   2.117   3.717   3.348  0.4103 -0.2027 -0.3160
 1954TIP3    H127277   2.193   3.685   3.300  0.9499  1.5188 -0.6957
 1954TIP3    H227278   2.044   3.706   3.287  0.7034 -0.0786 -0.6933
 1955TIP3   OH227279   1.094   2.327  15.493  0.0400 -0.6835  1.0594
 1955TIP3    H127280   1.036   2.402  15.506 -0.5379 -0.8648 -0.2689
 1955TIP3    H227281   1.137   2.345  15.409  1.2830 -0.9650  1.6121
 1956TIP3   OH227282   3.248   1.942   3.351 -0.0951 -0.9175  0.4884
 1956TIP3    H127283   3.296   1.867   3.388  0.8580 -0.4565  0.2226
 1956TIP3    H227284   3.315   2.009   3.338 -1.0507  0.2783  1.4396
 1957TIP3   OH227285   1.463   1.745  13.080  0.1662 -0.4945  0.0088
 1957TIP3    H127286   1.422   1.812  13.135  0.5546  0.3299 -0.6743
 1957TIP3    H227287   1.556   1.769  13.077  0.3212 -1.0931 -0.2104
 1958TIP3   OH227288   2.261   5.967   5.938 -0.0253  0.0122  0.5296
 1958TIP3    H127289   2.249   5.928   6.025 -3.1815 -2.3146 -0.7763
 1958TIP3    H227290   2.300   6.053   5.956 -0.0207 -0.5808  4.1591
 1959TIP3   OH227291   5.020   5.817  11.077 -0.5343  0.0961  0.1021
 1959TIP3    H127292   4.944   5.846  11.027  0.3970 -0.5711 -1.7788
 1959TIP3    H227293   5.051   5.896  11.121 -1.0797  0.8328 -0.7936
 1960TIP3   OH227294   0.356   0.032   4.701  0.6409 -0.0821 -0.1171
 1960TIP3    H127295   0.304  -0.048   4.692  0.2550  0.0909  0.4971
 1960TIP3    H227296   0.436   0.003   4.746  0.4072 -0.0845  0.2977
 1961TIP3   OH227297   4.538   0.887   5.702  0.8470  0.2114  0.8633
 1961TIP3    H127298   4.626   0.906   5.669  0.4912 -1.7249 -1.5027
 1961TIP3    H227299   4.497   0.837   5.632 -1.7331 -0.0306  2.4318
 1962TIP3   OH227300   5.816   0.910   4.180  0.1533  0.3977  0.3249
 1962TIP3    H127301   5.827   0.916   4.275  0.6338  3.7378  0.1810
 1962TIP3    H227302   5.880   0.971   4.144 -0.6814 -0.0349 -2.1163
 1963TIP3   OH227303   4.143   4.058   1.773 -0.0307  0.1287  0.1413
 1963TIP3    H127304   4.219   4.000   1.773  0.3496  0.6122  1.1369
 1963TIP3    H227305   4.121   4.070   1.865 -0.3926  1.1914 -0.0689
 1964TIP3   OH227306   1.186   5.454   4.072  0.1212 -0.1301  0.1453
 1964TIP3    H127307   1.099   5.450   4.033  0.5562 -2.3515 -0.7883
 1964TIP3    H227308   1.176   5.416   4.159 -0.2566  1.9164  1.0452
 1965TIP3   OH227309   4.626   0.852   1.150  0.1963 -0.2873  0.1304
 1965TIP3    H127310   4.684   0.797   1.203  1.3304  0.4139 -0.3384
 1965TIP3    H227311   4.576   0.902   1.214 -0.3427 -1.3217  0.5525
 1966TIP3   OH227312   4.647   0.832  14.061  0.3522  0.2811 -0.4385
 1966TIP3    H127313   4.646   0.925  14.084  0.8552  0.0795  0.4157
 1966TIP3    H227314   4.693   0.828  13.977 -0.3740  0.8816 -0.8806
 1967TIP3   OH227315   0.424   2.563  14.356  0.2395 -0.0274 -0.3015
 1967TIP3    H127316   0.380   2.484  14.324 -1.3782  0.6719  0.0970
 1967TIP3    H227317   0.457   2.538  14.442  0.0168 -0.3683 -0.3113
 1968TIP3   OH227318   2.745   0.403  16.047  0.1421  0.0474 -0.1893
 1968TIP3    H127319   2.753   0.382  15.954  1.1634  0.6315 -0.2448
 1968TIP3    H227320   2.667   0.458  16.052  0.3710  0.4446 -0.7878
 1969TIP3   OH227321   1.042   2.373  16.859  0.0006 -0.3809  0.0697
 1969TIP3    H127322   1.091   2.315  16.801  1.5900  1.5547 -0.6320
 1969TIP3    H227323   1.101   2.387  16.933  0.4467  1.7161 -0.6242
 1970TIP3   OH227324   2.083   0.664  16.342 -0.0724  0.0184  0.3339
 1970TIP3    H127325   2.086   0.605  16.268  0.0271  0.1681  0.2202
 1970TIP3    H227326   2.161   0.719  16.334  0.4015 -0.5391  1.0303
 1971TIP3   OH227327   3.542   1.309  13.260  0.0865 -0.1510  0.3315
 1971TIP3    H127328   3.490   1.264  13.327  0.8582 -2.4387 -0.4758
 1971TIP3    H227329   3.509   1.399  13.260 -1.1036 -0.5048  2.5573
 1972TIP3   OH227330   3.625   1.674   5.334 -0.2902 -0.4718 -0.0057
 1972TIP3    H127331   3.643   1.641   5.422 -0.5991  0.9949  0.6407
 1972TIP3    H227332   3.677   1.754   5.327 -2.4726  1.0371 -0.0129
 1973TIP3   OH227333   6.000   4.498  16.831 -0.0118  0.2245  0.1113
 1973TIP3    H127334   5.959   4.480  16.746  0.4589 -0.7771  0.0918
 1973TIP3    H227335   5.947   4.449  16.893  1.7786 -2.0770 -0.0429
 1974TIP3   OH227336   5.585   4.473  14.924  0.7501  0.4069 -0.0738
 1974TIP3    H127337   5.668   4.518  14.938  0.8869  1.0870 -2.5595
 1974TIP3    H227338   5.599   4.423  14.843 -0.5896 -1.2437  0.6505
 1975TIP3   OH227339   5.025   0.911  14.032 -0.1914  0.2578  0.2669
 1975TIP3    H127340   5.072   0.913  13.949  2.4306 -2.5562  1.4787
 1975TIP3    H227341   4.955   0.848  14.018  1.6253 -1.9997  0.6594
 1976TIP3   OH227342   2.043   2.044   1.280  0.0126  0.3289  0.3847
 1976TIP3    H127343   2.117   2.024   1.223  0.9054 -1.4540  2.0544
 1976TIP3    H227344   1.974   1.983   1.253 -0.8851  1.8585 -1.0397
 1977TIP3   OH227345   5.968   4.722   0.150 -0.3601 -0.2561 -0.0994
 1977TIP3    H127346   6.047   4.675   0.175 -0.8987 -1.6929 -0.9986
 1977TIP3    H227347   5.983   4.811   0.182  0.5197 -1.0849  1.9855
 1978TIP3   OH227348   1.927   1.749  11.700  0.7098 -0.6474 -0.3879
 1978TIP3    H127349   2.023   1.751  11.696  0.7813 -1.4536  0.5025
 1978TIP3    H227350   1.899   1.766  11.610  1.7127 -1.2528 -0.8396
 1979TIP3   OH227351   2.870   6.440  13.921  0.4618 -0.1330 -0.2377
 1979TIP3    H127352   2.886   6.518  13.869 -0.1763  0.0004 -0.2402
 1979TIP3    H227353   2.957   6.411  13.949  0.6037  1.5758  1.2248
 1980TIP3   OH227354   3.416   3.022  13.760 -1.2638 -0.3419  0.0875
 1980TIP3    H127355   3.417   3.115  13.739 -0.8041 -0.3364  0.1207
 1980TIP3    H227356   3.332   2.990  13.726  0.1759 -0.7246 -3.4981
 1981TIP3   OH227357   5.902   4.139   6.433  0.1380  0.2620 -0.0725
 1981TIP3    H127358   5.901   4.048   6.404  1.4762  0.2170 -0.0347
 1981TIP3    H227359   5.810   4.165   6.432 -0.2587 -1.0587 -0.1557
 1982TIP3   OH227360   4.777   0.524   1.654  0.0912 -0.0054  0.0461
 1982TIP3    H127361   4.797   0.612   1.687  0.6520  0.2003 -0.8282
 1982TIP3    H227362   4.795   0.467   1.729 -1.2810  0.7083  0.9547
 1983TIP3   OH227363   2.222   4.558  11.723 -0.3736  0.1379 -0.4633
 1983TIP3    H127364   2.252   4.522  11.807  1.4164  0.7611 -0.8030
 1983TIP3    H227365   2.207   4.651  11.740 -0.4317  0.1804 -0.7401
 1984TIP3   OH227366   4.212   6.348  13.609 -0.0599 -0.2133  0.0854
 1984TIP3    H127367   4.195   6.417  13.544  0.5480  1.1145  1.2708
 1984TIP3    H227368   4.274   6.290  13.566 -0.3912  0.1026 -0.8657
 1985TIP3   OH227369   2.235   4.743  13.868  0.0660 -0.2797 -0.1174
 1985TIP3    H127370   2.218   4.691  13.946  0.0018  2.5450  1.8943
 1985TIP3    H227371   2.163   4.806  13.865  1.3716  1.2503 -1.0321
 1986TIP3   OH227372   3.779   5.687   5.803  0.2281  0.5665  0.5215
 1986TIP3    H127373   3.745   5.774   5.781  1.7160  0.6199 -1.9559
 1986TIP3    H227374   3.702   5.631   5.805 -0.4426  1.2861 -1.6569
 1987TIP3   OH227375   0.330   1.173  12.533 -0.1884  0.6767 -0.5870
 1987TIP3    H127376   0.346   1.121  12.454 -1.6396 -0.5086 -0.1583
 1987TIP3    H227377   0.387   1.133  12.599  1.3397  1.9329 -1.0823
 1988TIP3   OH227378   1.080   5.963   0.662 -0.2467  0.8170 -0.0114
 1988TIP3    H127379   1.077   5.869   0.679 -0.1908  0.6457 -0.8924
 1988TIP3    H227380   1.137   5.998   0.731 -1.9894  0.5496  1.6750
 1989TIP3   OH227381   4.945   2.876   0.628 -0.7243  0.3895  0.4885
 1989TIP3    H127382   4.890   2.917   0.561 -0.0819 -0.7998 -0.8124
 1989TIP3    H227383   4.902   2.792   0.647 -0.0938  0.0593  0.4698
 1990TIP3   OH227384   0.158   1.397   4.869 -0.8805  0.3015  0.0209
 1990TIP3    H127385   0.238   1.416   4.821 -1.1560  0.5501 -0.3498
 1990TIP3    H227386   0.183   1.332   4.934 -0.6826 -0.6991 -1.0347
 1991TIP3   OH227387   5.158   5.307  15.544  0.0696 -0.6907 -0.0981
 1991TIP3    H127388   5.212   5.357  15.605  2.4307 -1.8336 -1.1258
 1991TIP3    H227389   5.188   5.216  15.554 -0.7314 -1.1684 -1.6836
 1992TIP3   OH227390   1.912   5.093  12.427 -0.2431 -0.6638 -0.2558
 1992TIP3    H127391   1.827   5.126  12.398 -0.4551 -0.6655  0.3503
 1992TIP3    H227392   1.968   5.099  12.350  0.0080  2.0542  0.0660
 1993TIP3   OH227393   6.519   2.933  13.384 -0.7577  0.2814  0.1091
 1993TIP3    H127394   6.560   2.853  13.418  0.8280  1.0648  0.1372
 1993TIP3    H227395   6.559   2.945  13.298 -2.0072  0.3208 -0.4878
 1994TIP3   OH227396   1.909   2.670   0.140  0.3126 -0.1564 -0.0072
 1994TIP3    H127397   1.906   2.665   0.045  2.2218  0.3562 -0.1440
 1994TIP3    H227398   1.999   2.645   0.162  0.1468  0.5478  1.5933
 1995TIP3   OH227399   1.181   3.536   0.905  0.1762 -0.3482 -0.0842
 1995TIP3    H127400   1.119   3.474   0.867 -0.4028 -0.9444  1.7228
 1995TIP3    H227401   1.253   3.540   0.842 -1.2412 -0.3440 -1.7918
 1996TIP3   OH227402   3.420   1.572  16.210  0.3354 -0.3883  0.4396
 1996TIP3    H127403   3.354   1.604  16.148  0.7410  0.5480  0.4653
 1996TIP3    H227404   3.415   1.632  16.284  0.9827 -0.5013  0.5864
 1997TIP3   OH227405   3.802   2.255  17.208 -0.0372 -0.0313  0.5307
 1997TIP3    H127406   3.719   2.235  17.251  0.8039 -1.2681  1.6797
 1997TIP3    H227407   3.825   2.342  17.239 -1.2204  0.6277 -0.3591
 1998TIP3   OH227408   4.050   6.507   3.373 -0.0306  0.1744  0.2331
 1998TIP3    H127409   4.123   6.569   3.370 -1.4391  1.9178 -1.9873
 1998TIP3    H227410   4.026   6.503   3.465  2.1983  0.3280  0.8840
 1999TIP3   OH227411   0.239   3.061   1.246  0.0252 -0.0242 -0.3533
 1999TIP3    H127412   0.197   3.121   1.309  0.3079 -0.0712 -0.1148
 1999TIP3    H227413   0.209   3.090   1.161 -1.6105 -0.9233 -0.1169
 2000TIP3   OH227414   0.646   5.020   0.865 -0.8769  0.5297 -0.3669
 2000TIP3    H127415   0.629   5.114   0.871 -1.6786  0.3830 -0.1548
 2000TIP3    H227416   0.567   4.985   0.822 -0.9581 -0.1522  0.3228
 2001TIP3   OH227417   3.712   5.427   3.746 -0.1480 -0.2543 -0.5702
 2001TIP3    H127418   3.716   5.507   3.798  4.7422  0.4896 -1.6177
 2001TIP3    H227419   3.666   5.452   3.666  1.2488  1.5603 -0.8517
 2002TIP3   OH227420   6.548   0.913  15.901  0.0232  0.5768  0.3984
 2002TIP3    H127421   6.455   0.914  15.924 -0.6215 -2.5804 -1.5730
 2002TIP3    H227422   6.593   0.928  15.984 -2.2175 -2.2327  2.3042
 2003TIP3   OH227423   1.852   2.858  15.172  0.1229 -0.2494  0.3401
 2003TIP3    H127424   1.788   2.802  15.127 -1.1085  0.5537  1.0297
 2003TIP3    H227425   1.866   2.815  15.256  0.0212 -0.0970  0.4346
 2004TIP3   OH227426   2.704   5.642  12.717 -0.0960  0.2727  0.4155
 2004TIP3    H127427   2.727   5.592  12.639  0.5750  1.2159 -0.0200
 2004TIP3    H227428   2.786   5.647  12.767 -1.1149 -2.7059  2.6346
 2005TIP3   OH227429   4.696   5.940   5.390  0.2430  0.2366 -0.0936
 2005TIP3    H127430   4.683   5.887   5.468  1.4304  1.7223  1.1724
 2005TIP3    H227431   4.774   5.904   5.348  1.3047  1.1965  0.9992
 2006TIP3   OH227432   3.551   2.399   3.822  0.3454 -0.0867  0.1027
 2006TIP3    H127433   3.531   2.488   3.853  2.2943 -0.5622  3.0958
 2006TIP3    H227434   3.580   2.412   3.732 -0.4783  2.1793  0.0906
 2007TIP3   OH227435   5.090   4.707   5.281  0.2245  0.4884  0.5696
 2007TIP3    H127436   5.151   4.773   5.248  1.4957 -0.7612  0.3264
 2007TIP3    H227437   5.011   4.719   5.228  1.1629  0.4989 -0.9009
 2008TIP3   OH227438   4.164   2.588   1.341 -0.2529 -0.0267 -0.7705
 2008TIP3    H127439   4.193   2.565   1.253 -0.1178 -0.0733 -0.7146
 2008TIP3    H227440   4.102   2.519   1.365  1.0582 -1.0424 -0.1275
 2009TIP3   OH227441   0.990   3.659   3.919  0.3526  0.4790  0.0336
 2009TIP3    H127442   0.939   3.591   3.963  0.9221  0.4642  0.6859
 2009TIP3    H227443   1.023   3.617   3.839 -1.3467  0.7435 -0.8470
 2010TIP3   OH227444   4.307   5.372   4.029 -0.3148 -0.1060 -0.0647
 2010TIP3    H127445   4.219   5.392   4.060 -0.0745 -0.1236  0.6469
 2010TIP3    H227446   4.351   5.334   4.105  0.4001  0.1806 -0.3273
 2011TIP3   OH227447   6.351   0.843  14.355 -0.1807  0.2129  0.6601
 2011TIP3    H127448   6.435   0.873  14.320 -0.1781 -0.7871 -0.2387
 2011TIP3    H227449   6.338   0.757  14.315 -2.4284  1.0390 -0.5081
 2012TIP3   OH227450   0.330   1.855   2.690 -0.6498 -0.1509 -0.4058
 2012TIP3    H127451   0.240   1.845   2.719 -0.5887  1.9237  0.6727
 2012TIP3    H227452   0.325   1.907   2.610 -0.4223  0.0610 -0.2866
 2013TIP3   OH227453   0.645   3.678   4.595 -0.6406  0.3901  0.5615
 2013TIP3    H127454   0.709   3.633   4.540  0.2374 -0.1073  1.9353
 2013TIP3    H227455   0.625   3.758   4.547  1.1146  0.6266  0.1525
 2014TIP3   OH227456   2.405   1.068   5.514  0.1029 -0.2568 -0.2969
 2014TIP3    H127457   2.490   1.110   5.521 -0.7523  1.4935 -0.0194
 2014TIP3    H227458   2.392   1.026   5.600 -0.9074  2.7210  1.1487
 2015TIP3   OH227459   1.443   2.863   0.485 -0.0114 -0.2859  0.6957
 2015TIP3    H127460   1.482   2.944   0.450  0.5419 -1.4242 -1.4820
 2015TIP3    H227461   1.395   2.826   0.411  0.3836 -2.3486  1.4267
 2016TIP3   OH227462   2.341   0.329   0.217 -0.3870  0.0493  0.1905
 2016TIP3    H127463   2.276   0.398   0.230  0.0852  0.4303  0.5846
 2016TIP3    H227464   2.420   0.375   0.190  0.0747 -0.2809  0.9377
 2017TIP3   OH227465   1.459   4.605  15.403  0.3901  0.2342 -0.4317
 2017TIP3    H127466   1.385   4.619  15.343 -0.2410 -0.7879  0.0820
 2017TIP3    H227467   1.528   4.568  15.349  0.6478  1.4331 -0.9707
 2018TIP3   OH227468   4.170   5.811   1.801  0.3148  0.2741 -0.3145
 2018TIP3    H127469   4.222   5.747   1.751 -0.9821 -0.2808 -1.0235
 2018TIP3    H227470   4.089   5.764   1.822 -0.0307  1.2045  0.4932
 2019TIP3   OH227471   6.324   4.432   1.137 -0.4269  0.5499  0.2007
 2019TIP3    H127472   6.248   4.394   1.181 -0.1553 -0.4424 -0.1577
 2019TIP3    H227473   6.374   4.475   1.207  0.9434 -2.5122  1.2939
 2020TIP3   OH227474   2.941   1.620  15.743 -0.5775 -0.4774 -0.1315
 2020TIP3    H127475   2.918   1.707  15.712  1.3541  0.2377  0.3015
 2020TIP3    H227476   3.006   1.588  15.679 -0.4333 -1.1282  0.3244
 2021TIP3   OH227477   5.288   5.092   2.371  0.0159 -0.5175  0.5218
 2021TIP3    H127478   5.283   5.179   2.411  2.1811  0.1497 -0.5006
 2021TIP3    H227479   5.360   5.099   2.309 -1.0594 -2.4950 -1.0349
 2022TIP3   OH227480   5.381   1.974  12.059 -0.1270  0.1961 -0.1320
 2022TIP3    H127481   5.427   1.973  12.143 -1.4592 -1.9816  0.6779
 2022TIP3    H227482   5.436   1.922  12.000  0.8629  1.8171 -0.6974
 2023TIP3   OH227483   6.348   2.630  14.320 -0.4977  0.9107 -0.0156
 2023TIP3    H127484   6.276   2.656  14.262  0.3716 -0.4983 -1.8680
 2023TIP3    H227485   6.319   2.546  14.357 -0.1691  0.7394 -0.1377
 2024TIP3   OH227486   6.484   5.647  17.265 -0.5486  0.3680 -0.7191
 2024TIP3    H127487   6.545   5.574  17.257 -0.3631  0.1115  1.9663
 2024TIP3    H227488   6.538   5.721  17.294 -1.3923  0.1436  1.6964
 2025TIP3   OH227489   3.166   3.405   2.004 -0.8251 -0.2146 -0.2718
 2025TIP3    H127490   3.240   3.466   1.996  0.1792 -1.3110  0.3161
 2025TIP3    H227491   3.189   3.332   1.946 -0.4813 -1.4588  1.3694
 2026TIP3   OH227492   5.277   4.526   3.123  0.2748  0.0492  0.7094
 2026TIP3    H127493   5.227   4.506   3.044 -0.4094 -2.4442  1.6964
 2026TIP3    H227494   5.237   4.606   3.156 -0.5624  0.1863 -0.5412
 2027TIP3   OH227495   1.790   5.000  11.404  0.1252 -0.0298 -0.6043
 2027TIP3    H127496   1.750   5.001  11.318  1.5237 -0.0547 -1.2810
 2027TIP3    H227497   1.796   5.093  11.429 -0.7819 -0.0491 -0.2698
 2028TIP3   OH227498   0.851   3.714  13.707 -0.2060 -0.3584 -0.0043
 2028TIP3    H127499   0.792   3.690  13.635  1.4888  0.1917 -1.6540
 2028TIP3    H227500   0.882   3.802  13.684  1.3249 -0.6668  0.7525
 2029TIP3   OH227501   1.618   1.194   3.002 -0.1424  0.1573  0.4000
 2029TIP3    H127502   1.596   1.286   2.988  0.4792  0.2491 -0.0735
 2029TIP3    H227503   1.701   1.183   2.955 -1.0082 -1.0392 -0.9232
 2030TIP3   OH227504   6.130   6.366  15.159 -0.5811  0.2272 -0.0017
 2030TIP3    H127505   6.213   6.401  15.191 -1.1194  0.1386  1.5838
 2030TIP3    H227506   6.132   6.381  15.065  0.7817  1.1670  0.1539
 2031TIP3   OH227507   3.278   3.351  17.107 -0.7900  0.1207 -0.4930
 2031TIP3    H127508   3.183   3.360  17.098 -1.1926 -1.4626  1.4453
 2031TIP3    H227509   3.291   3.258  17.125  1.3646 -0.1003 -2.6636
 2032TIP3   OH227510   5.572   4.571  11.464 -0.1523  0.0658 -0.5813
 2032TIP3    H127511   5.493   4.571  11.518  0.3115  0.2960  0.1079
 2032TIP3    H227512   5.630   4.636  11.504 -0.1200  0.8746 -1.8520
 2033TIP3   OH227513   5.837   4.639  13.923  0.2244 -0.0994 -0.3022
 2033TIP3    H127514   5.850   4.544  13.925  2.1902  0.1432  0.5067
 2033TIP3    H227515   5.785   4.658  14.000 -0.2686 -0.5160 -0.5238
 2034TIP3   OH227516   5.890   0.277   4.345  0.6877 -0.0514  0.2026
 2034TIP3    H127517   5.967   0.255   4.293  0.9303 -0.4339  0.7098
 2034TIP3    H227518   5.830   0.319   4.283  0.7108 -1.0562 -0.5313
 2035TIP3   OH227519   1.769   4.636   5.497 -0.3370 -0.0817 -0.3134
 2035TIP3    H127520   1.790   4.563   5.440  0.6561 -0.9221  1.0792
 2035TIP3    H227521   1.692   4.677   5.456 -0.7834 -1.7575 -1.2381
 2036TIP3   OH227522   6.648   5.544   3.815  0.9304 -0.3680 -0.4095
 2036TIP3    H127523   6.609   5.466   3.777 -1.1601  0.4191 -0.0026
 2036TIP3    H227524   6.649   5.527   3.909  1.5474 -0.3438 -0.4048
 2037TIP3   OH227525   3.918   4.186   3.332  0.3849  0.5113  0.0957
 2037TIP3    H127526   4.013   4.190   3.337  0.3807  0.1402  0.6197
 2037TIP3    H227527   3.892   4.137   3.411 -0.3382  2.0113  0.8259
 2038TIP3   OH227528   4.723   3.766   2.808 -0.3693 -0.2556 -0.3095
 2038TIP3    H127529   4.662   3.763   2.881 -1.0665  0.3800 -0.8493
 2038TIP3    H227530   4.737   3.675   2.783 -0.3089 -0.4600  0.4593
 2039TIP3   OH227531   3.257   5.216   0.401 -0.4328  0.8124 -0.5034
 2039TIP3    H127532   3.308   5.184   0.475 -1.0370 -1.2548 -0.9154
 2039TIP3    H227533   3.318   5.273   0.354  1.0412 -0.3734 -0.1462
 2040TIP3   OH227534   2.701   0.730  13.985 -0.5802 -0.3339 -0.3751
 2040TIP3    H127535   2.775   0.678  14.014 -0.4099 -0.0727 -0.3339
 2040TIP3    H227536   2.629   0.668  13.976 -0.3561 -0.5884 -0.4146
 2041TIP3   OH227537   2.812   0.633  16.242  0.1730 -0.1543  0.7341
 2041TIP3    H127538   2.852   0.558  16.198 -0.8019 -1.3954  1.8637
 2041TIP3    H227539   2.732   0.650  16.192  0.5569  0.3703  0.2830
 2042TIP3   OH227540   3.747   5.068   5.437  0.6079 -0.3064 -0.4163
 2042TIP3    H127541   3.678   5.061   5.503 -1.6714  0.7126 -2.5341
 2042TIP3    H227542   3.773   5.160   5.438  0.5436 -0.2809 -0.9446
 2043TIP3   OH227543   0.925   1.273   1.025  0.0948 -0.3323  0.2132
 2043TIP3    H127544   1.011   1.244   0.993  0.5637 -1.7044  2.5072
 2043TIP3    H227545   0.886   1.318   0.950  2.7529  0.2314 -0.9456
 2044TIP3   OH227546   1.888   1.430   4.864  0.1362 -0.2117 -0.4180
 2044TIP3    H127547   1.953   1.500   4.854  1.2435 -0.9195  1.2974
 2044TIP3    H227548   1.843   1.427   4.780  1.4345  1.1992 -1.2206
 2045TIP3   OH227549   5.630   3.303  11.036  0.4476 -0.0035  0.3097
 2045TIP3    H127550   5.723   3.312  11.053  0.7285 -0.4071 -0.8750
 2045TIP3    H227551   5.620   3.326  10.944 -0.6176 -0.0190  0.4061
 2046TIP3   OH227552   6.278   2.943  13.059  0.1356  0.3083  0.3864
 2046TIP3    H127553   6.335   2.902  12.994 -1.0623 -0.6901 -0.0950
 2046TIP3    H227554   6.276   3.036  13.034 -0.6488 -0.1237 -1.3190
 2047TIP3   OH227555   4.619   3.045  11.208 -0.0403 -0.2298  0.2026
 2047TIP3    H127556   4.653   2.959  11.181 -0.2427 -0.3948  0.4680
 2047TIP3    H227557   4.552   3.065  11.142 -0.2624 -0.4534  0.3571
 2048TIP3   OH227558   4.708   0.290  11.920  0.5423  0.4076  0.4364
 2048TIP3    H127559   4.614   0.274  11.925  0.5129  0.4832  0.1165
 2048TIP3    H227560   4.730   0.280  11.828  1.2974 -2.0858  0.8151
 2049TIP3   OH227561   4.274   4.506   4.308 -0.3448 -0.7545  0.3905
 2049TIP3    H127562   4.232   4.583   4.346  0.3617 -0.7716  1.2423
 2049TIP3    H227563   4.336   4.541   4.244 -1.5002 -0.7230 -0.7481
 2050TIP3   OH227564   4.634   5.401   3.228  0.1052 -0.3063 -0.0804
 2050TIP3    H127565   4.691   5.331   3.261 -1.4738 -1.6803 -0.1314
 2050TIP3    H227566   4.601   5.368   3.145 -3.4774 -1.2237  1.5067
 2051TIP3   OH227567   2.629   5.428  13.937  0.9311  0.1441 -0.5380
 2051TIP3    H127568   2.707   5.477  13.962  0.2783  0.1281  1.6690
 2051TIP3    H227569   2.610   5.372  14.012 -1.3189  0.2802 -0.9374
 2052TIP3   OH227570   6.716   4.919  14.946  0.4463  0.2969  0.3238
 2052TIP3    H127571   6.726   4.971  14.866 -0.4966  0.5231  0.3433
 2052TIP3    H227572   6.707   4.828  14.915  0.0790  0.3847  0.1674
 2053TIP3   OH227573   0.359   6.715   2.513  0.5508  0.0391  0.7748
 2053TIP3    H127574   0.376   6.627   2.480 -0.2653 -0.9526  2.7942
 2053TIP3    H227575   0.264   6.726   2.505  0.8575  1.7660 -1.6960
 2054TIP3   OH227576   2.961   4.884   3.512  0.0656  0.1946  0.2422
 2054TIP3    H127577   2.962   4.892   3.608 -3.7462 -0.2104  0.4801
 2054TIP3    H227578   2.924   4.968   3.482 -0.1408 -0.2280 -0.7221
 2055TIP3   OH227579   0.505   2.381   4.721 -0.1978 -0.2851 -0.2655
 2055TIP3    H127580   0.416   2.347   4.723 -0.3363 -0.1036 -1.9840
 2055TIP3    H227581   0.548   2.330   4.652  0.3672  1.1318 -0.9921
 2056TIP3   OH227582   2.020   1.921  10.503  0.2722  0.1955  0.6372
 2056TIP3    H127583   1.997   1.838  10.544  1.5897  0.0817  1.2054
 2056TIP3    H227584   1.937   1.956  10.470 -0.0841 -2.2001 -1.2623
 2057TIP3   OH227585   3.137   5.918  12.354  0.4040  0.2050 -0.6453
 2057TIP3    H127586   3.178   5.913  12.268 -0.4112 -2.5410 -0.9598
 2057TIP3    H227587   3.044   5.904  12.336  0.1277  0.3619  0.6127
 2058TIP3   OH227588   5.492   0.343   5.111  0.0365 -0.1283  0.3542
 2058TIP3    H127589   5.553   0.284   5.067  1.0099 -1.1069  2.7995
 2058TIP3    H227590   5.417   0.287   5.134 -0.6570  0.4662 -0.4178
 2059TIP3   OH227591   5.328   0.980   1.580  0.0009  0.2703 -0.2001
 2059TIP3    H127592   5.381   0.998   1.657 -3.8309  1.0797  2.5512
 2059TIP3    H227593   5.309   1.066   1.542 -1.4565  0.3047  0.5209
 2060TIP3   OH227594   3.131   3.836  12.842  0.0506 -0.1592 -0.0047
 2060TIP3    H127595   3.216   3.793  12.847 -0.1028 -0.5499 -0.5446
 2060TIP3    H227596   3.147   3.913  12.787  0.3885  0.6512  1.2042
 2061TIP3   OH227597   6.589   2.783  11.995  0.6951  0.2962 -0.4323
 2061TIP3    H127598   6.614   2.867  12.032  3.4188  0.1940 -1.8507
 2061TIP3    H227599   6.535   2.805  11.919 -2.6167  0.5432  1.7744
 2062TIP3   OH227600   0.122   4.590   3.328 -0.1468 -0.2264  0.4298
 2062TIP3    H127601   0.213   4.583   3.301 -0.3388  0.7222 -0.5331
 2062TIP3    H227602   0.117   4.674   3.373 -0.7337  0.1869 -0.3804
 2063TIP3   OH227603   1.847   2.965   0.574  0.1511 -0.3380 -0.4509
 2063TIP3    H127604   1.907   2.890   0.576 -0.8222 -1.1912 -1.5030
 2063TIP3    H227605   1.890   3.029   0.518  0.9198 -0.1624  0.3243
 2064TIP3   OH227606   2.408   3.594   5.288  0.2747  0.2721 -0.0476
 2064TIP3    H127607   2.358   3.639   5.356  1.7645  1.5081  0.2865
 2064TIP3    H227608   2.379   3.503   5.292 -2.1846  1.0027 -0.1372
 2065TIP3   OH227609   1.098   5.656   1.700 -0.2151  0.5959  0.4492
 2065TIP3    H127610   1.155   5.580   1.710  0.5210  1.1514  0.5720
 2065TIP3    H227611   1.102   5.677   1.607  1.3258  1.7706  0.7245
 2066TIP3   OH227612   5.436   2.228   3.385 -0.1641  0.4377 -0.2363
 2066TIP3    H127613   5.439   2.313   3.429  1.4705  0.0748  0.4521
 2066TIP3    H227614   5.455   2.248   3.293 -0.7267  0.9083 -0.2537
 2067TIP3   OH227615   6.712   2.398  12.636  0.3130 -0.1779 -0.5135
 2067TIP3    H127616   6.620   2.415  12.657  0.3946 -0.2931 -0.0492
 2067TIP3    H227617   6.709   2.345  12.557  0.0265  1.1098 -1.4028
 2068TIP3   OH227618   5.430   0.183   3.592 -0.0870  0.5901  0.2354
 2068TIP3    H127619   5.357   0.154   3.538 -0.4092  0.8583  0.5216
 2068TIP3    H227620   5.391   0.202   3.677  0.5725 -0.7631  0.8652
 2069TIP3   OH227621   2.556   1.084   2.629  0.2911 -0.5349  0.0620
 2069TIP3    H127622   2.596   1.143   2.694 -1.5165 -0.6298  1.3233
 2069TIP3    H227623   2.626   1.022   2.608  0.8351 -0.7801  2.2695
 2070TIP3   OH227624   1.285   0.051   2.044  0.9363  0.3720 -0.3626
 2070TIP3    H127625   1.299   0.084   2.133 -1.1688 -1.1092  0.6182
 2070TIP3    H227626   1.369   0.062   2.000  2.0616  1.0655  1.8278
 2071TIP3   OH227627   0.376   1.207  16.700 -0.1845 -0.8195 -0.3338
 2071TIP3    H127628   0.302   1.265  16.685  2.0323  2.3931  0.2400
 2071TIP3    H227629   0.406   1.184  16.612  0.4603  1.1181 -0.6559
 2072TIP3   OH227630   6.283   5.366   6.555 -0.0766  0.2679  0.0270
 2072TIP3    H127631   6.275   5.430   6.484  0.6020  0.5518  0.1968
 2072TIP3    H227632   6.377   5.354   6.566 -0.1847 -0.7862 -0.0153
 2073TIP3   OH227633   6.064   2.319  16.320  0.2926 -0.3915 -0.5211
 2073TIP3    H127634   6.106   2.251  16.372  1.2956  0.6644  0.1075
 2073TIP3    H227635   5.972   2.316  16.347 -0.1077 -2.7398 -1.9201
 2074TIP3   OH227636   1.344   0.591   1.867 -0.2025 -0.3261  0.7830
 2074TIP3    H127637   1.331   0.684   1.886 -0.5173  0.1947 -1.6583
 2074TIP3    H227638   1.259   0.550   1.884 -0.3175 -0.0179  0.9534
 2075TIP3   OH227639   3.535   5.917  17.125  1.1017  0.7438  0.1525
 2075TIP3    H127640   3.616   5.868  17.142  0.4134 -0.2176  0.7999
 2075TIP3    H227641   3.564   6.002  17.092  2.5027  1.5877  3.2030
 2076TIP3   OH227642   6.491   0.596  15.718  0.0417  0.4770  0.1746
 2076TIP3    H127643   6.575   0.628  15.686  0.1380  0.5731  0.5180
 2076TIP3    H227644   6.486   0.505  15.688  0.5841  0.2504  0.7529
 2077TIP3   OH227645   2.944   6.092  15.918  0.0805 -0.3626  0.0465
 2077TIP3    H127646   3.037   6.096  15.941 -0.0573 -1.4521  0.8746
 2077TIP3    H227647   2.914   6.009  15.956 -1.6268  0.7414  1.2340
 2078TIP3   OH227648   5.729   3.645   1.393  0.3688  0.4616  0.0486
 2078TIP3    H127649   5.771   3.648   1.307  0.7960  1.1376  0.2724
 2078TIP3    H227650   5.653   3.588   1.380  0.3843  0.6124 -0.7933
 2079TIP3   OH227651   2.802   1.895   2.309 -0.3393  0.0293 -0.1116
 2079TIP3    H127652   2.871   1.839   2.344 -0.0403 -0.4320 -1.3957
 2079TIP3    H227653   2.847   1.957   2.252 -0.7485  1.1643  0.7590
 2080TIP3   OH227654   6.146   1.583  15.554  0.2305  0.1708 -0.0333
 2080TIP3    H127655   6.220   1.538  15.595 -0.0419 -0.2879 -0.0362
 2080TIP3    H227656   6.073   1.522  15.563 -0.7429  1.5090  1.9997
 2081TIP3   OH227657   1.640   3.357   4.575  0.2948 -0.0073  0.4792
 2081TIP3    H127658   1.671   3.292   4.511 -1.4403  0.6580 -1.1521
 2081TIP3    H227659   1.623   3.435   4.522  0.0170  1.0041  2.0055
 2082TIP3   OH227660   1.798   1.171  13.281  1.0379 -0.1686  0.2016
 2082TIP3    H127661   1.845   1.197  13.201 -1.4648 -0.0807 -1.3607
 2082TIP3    H227662   1.785   1.077  13.271  0.6208 -0.1383  0.4648
 2083TIP3   OH227663   5.301   5.286  12.017 -0.1839  0.4037 -0.6593
 2083TIP3    H127664   5.395   5.283  12.000 -0.0033  0.4255  0.2638
 2083TIP3    H227665   5.264   5.330  11.941  0.0725 -2.9379 -2.9009
 2084TIP3   OH227666   3.707   5.993   1.471 -0.2056  0.1147 -0.2742
 2084TIP3    H127667   3.725   6.044   1.550  0.2822 -0.4287 -0.0244
 2084TIP3    H227668   3.627   6.032   1.435 -0.3155  0.5059  0.3709
 2085TIP3   OH227669   3.878   3.182  14.534 -0.1482 -0.2090  0.0149
 2085TIP3    H127670   3.928   3.249  14.489  1.1145  1.3077  3.3121
 2085TIP3    H227671   3.791   3.220  14.545 -0.1937 -0.2058 -0.3647
 2086TIP3   OH227672   6.688   6.265   0.659  0.3472 -0.0393 -0.3338
 2086TIP3    H127673   6.661   6.356   0.648 -0.2009 -0.2955 -1.3146
 2086TIP3    H227674   6.638   6.233   0.734  0.7087  0.5276  0.1500
 2087TIP3   OH227675   0.078   3.214   1.395  0.1997  0.3016  0.0886
 2087TIP3    H127676  -0.007   3.180   1.368  0.8355 -1.2833  0.0199
 2087TIP3    H227677   0.064   3.248   1.483 -0.3610 -0.4873  0.3068
 2088TIP3   OH227678   6.063   5.427   1.535  0.0324 -0.1916  0.0803
 2088TIP3    H127679   6.091   5.448   1.446 -0.2695 -1.2246 -0.2746
 2088TIP3    H227680   5.980   5.380   1.524 -0.0770 -0.2138  0.9099
 2089TIP3   OH227681   1.607   1.188  15.885  0.5050 -0.4422  0.4172
 2089TIP3    H127682   1.537   1.156  15.942  1.3815 -1.7153  0.8169
 2089TIP3    H227683   1.679   1.210  15.944 -0.8629  5.1518  0.5751
 2090TIP3   OH227684   4.492   5.341   5.055  0.3216 -0.0904  0.6723
 2090TIP3    H127685   4.500   5.395   4.976 -1.2396  0.2366  0.6984
 2090TIP3    H227686   4.582   5.331   5.086  0.8527  0.7778 -0.4783
 2091TIP3   OH227687   3.720   3.904  16.802  0.0326 -0.2295  0.7146
 2091TIP3    H127688   3.654   3.848  16.762  0.2320  0.1427 -0.1645
 2091TIP3    H227689   3.797   3.848  16.810  0.2714 -0.0639 -0.2814
 2092TIP3   OH227690   5.286   3.984   5.420  0.4377 -0.3923 -0.4583
 2092TIP3    H127691   5.262   3.932   5.497 -1.9830 -0.7996 -1.3822
 2092TIP3    H227692   5.273   3.924   5.346 -2.4712  1.3823 -1.5594
 2093TIP3   OH227693   6.486   2.344  12.261  0.1675 -0.6389 -0.3698
 2093TIP3    H127694   6.479   2.400  12.183 -0.3859 -0.6187 -0.3057
 2093TIP3    H227695   6.564   2.377  12.306 -0.9133  1.0050  0.3950
 2094TIP3   OH227696   3.019   2.810   5.178 -0.4674  0.5334  0.4927
 2094TIP3    H127697   3.045   2.724   5.210 -0.8203  0.4788  0.6366
 2094TIP3    H227698   3.071   2.823   5.099 -0.1512  0.3418  0.6667
 2095TIP3   OH227699   2.610   3.591  10.776 -0.1363  0.1570 -0.3891
 2095TIP3    H127700   2.666   3.577  10.699  0.9680 -0.7752  0.5514
 2095TIP3    H227701   2.524   3.609  10.739  0.6795  1.2508 -1.8804
 2096TIP3   OH227702   4.121   5.398   2.008 -0.6032 -0.5413 -1.0293
 2096TIP3    H127703   4.138   5.443   1.925 -0.5946  0.9069 -0.2708
 2096TIP3    H227704   4.150   5.460   2.075 -0.9636 -1.5376  0.0735
 2097TIP3   OH227705   0.435   2.831  15.410  0.9026 -0.4752  0.3096
 2097TIP3    H127706   0.383   2.771  15.463  2.0365  0.0375  2.0833
 2097TIP3    H227707   0.526   2.811  15.431  1.5180 -1.1026 -2.4492
 2098TIP3   OH227708   5.481   6.733   6.340 -0.2274 -0.5005 -0.0696
 2098TIP3    H127709   5.436   6.648   6.334 -0.7749 -0.2342  0.1860
 2098TIP3    H227710   5.415   6.792   6.376  0.6282 -0.3194  1.2804
 2099TIP3   OH227711   5.551   6.374   0.858  0.0260 -0.2186 -0.1556
 2099TIP3    H127712   5.613   6.412   0.920 -1.7666  1.6498  0.6128
 2099TIP3    H227713   5.531   6.287   0.894  0.6910 -0.0455  0.6571
 2100TIP3   OH227714   3.406   2.942  10.857  0.2515  0.6297 -0.1630
 2100TIP3    H127715   3.380   2.862  10.903  1.2564  0.6188  0.4097
 2100TIP3    H227716   3.361   3.013  10.905 -0.3822  0.4454 -0.4740
 2101TIP3   OH227717   1.222   1.339  14.979 -0.0375  0.0182  0.4245
 2101TIP3    H127718   1.251   1.417  15.025 -1.0614  0.9432 -0.4365
 2101TIP3    H227719   1.266   1.343  14.894 -2.3796  1.3453 -0.8258
 2102TIP3   OH227720   6.425   6.590   5.313 -0.1343  0.0600  0.0414
 2102TIP3    H127721   6.432   6.683   5.337 -0.9044  0.5958 -1.7044
 2102TIP3    H227722   6.515   6.558   5.317  0.4441  1.4178 -1.3510
 2103TIP3   OH227723   4.540   6.569   1.435  0.5638  0.3529 -0.8576
 2103TIP3    H127724   4.471   6.572   1.501 -0.6022 -0.4066 -1.9923
 2103TIP3    H227725   4.524   6.488   1.387  2.8190 -0.3343 -0.5809
 2104TIP3   OH227726   2.206   2.016  14.927  0.3315  0.0673 -0.4699
 2104TIP3    H127727   2.292   2.023  14.885 -0.0720  1.7931 -1.1169
 2104TIP3    H227728   2.196   1.923  14.948  2.6349 -0.0825  0.2507
 2105TIP3   OH227729   1.272   0.787  15.042  0.0925 -0.1539 -0.1144
 2105TIP3    H127730   1.287   0.807  14.950 -0.5188 -0.4224 -0.2817
 2105TIP3    H227731   1.309   0.700  15.055  0.3027 -0.0578 -0.0729
 2106TIP3   OH227732   1.660   1.003  12.040 -0.0087  0.3819 -0.7344
 2106TIP3    H127733   1.628   1.040  11.957 -0.5851  1.7384  0.0669
 2106TIP3    H227734   1.755   1.008  12.033  0.2131 -3.1902 -2.9242
 2107TIP3   OH227735   4.562   4.739  11.944 -0.5028  0.6787  0.1274
 2107TIP3    H127736   4.557   4.705  12.033  0.3038  0.8930  0.2568
 2107TIP3    H227737   4.655   4.735  11.921 -0.6258  1.1674 -0.4936
 2108TIP3   OH227738   4.005   5.132  16.176 -0.3392  0.0554  0.0884
 2108TIP3    H127739   3.935   5.112  16.239 -0.2268 -0.2323  0.1260
 2108TIP3    H227740   3.966   5.194  16.115 -0.0719  1.3276  1.1704
 2109TIP3   OH227741   1.100   6.233  15.548 -0.5015 -0.1096  0.0816
 2109TIP3    H127742   1.182   6.186  15.562 -0.9180 -0.7855  0.3073
 2109TIP3    H227743   1.033   6.164  15.546 -0.9709  0.3636 -0.8920
 2110TIP3   OH227744   2.771   3.190  16.201 -0.1423 -0.1255 -0.3370
 2110TIP3    H127745   2.850   3.229  16.238  1.4386 -1.6190 -1.9872
 2110TIP3    H227746   2.751   3.117  16.260 -1.5388  1.4107  1.2138
 2111TIP3   OH227747   4.010   5.140   5.254 -0.3471 -0.6933  0.2238
 2111TIP3    H127748   3.959   5.208   5.299  0.8815  0.1435  0.4008
 2111TIP3    H227749   4.082   5.120   5.314 -0.2523 -1.5847 -0.1743
 2112TIP3   OH227750   5.321   4.204  15.144 -0.0460  0.2839  0.4108
 2112TIP3    H127751   5.239   4.164  15.116  0.7813 -1.9356  0.9243
 2112TIP3    H227752   5.384   4.179  15.077  0.8116 -0.6238  1.4984
 2113TIP3   OH227753   5.229   1.227  11.177 -0.2520 -0.0259 -0.0775
 2113TIP3    H127754   5.225   1.138  11.143  1.4727 -0.8424  1.6834
 2113TIP3    H227755   5.233   1.282  11.098 -3.1377 -1.3020 -1.2337
 2114TIP3   OH227756   2.473   0.675   2.732  0.2505  0.7679  0.1332
 2114TIP3    H127757   2.472   0.580   2.747 -2.0678  0.6809 -0.0736
 2114TIP3    H227758   2.390   0.692   2.687  0.1071  3.0406  1.1359
 2115TIP3   OH227759   6.503   3.066   4.835 -0.9170  0.2917  0.0626
 2115TIP3    H127760   6.541   3.069   4.747  1.7764 -1.0223  1.0556
 2115TIP3    H227761   6.456   2.983   4.838  1.5819 -1.2155  0.6887
 2116TIP3   OH227762   0.576   4.242   1.841 -0.1347  0.0235 -0.1049
 2116TIP3    H127763   0.616   4.161   1.807 -1.7679 -1.1842  0.7356
 2116TIP3    H227764   0.504   4.259   1.780 -1.6237 -0.8480  1.3398
 2117TIP3   OH227765   6.388   3.917   3.759  0.4638 -0.4814  1.0288
 2117TIP3    H127766   6.393   3.858   3.684  0.1546 -0.6852  1.1658
 2117TIP3    H227767   6.380   3.859   3.835 -0.6002 -0.2563  1.0992
 2118TIP3   OH227768   5.995   6.420  12.426 -0.4245  0.4591  0.0143
 2118TIP3    H127769   6.009   6.407  12.520 -0.7824  0.6012  0.0888
 2118TIP3    H227770   5.952   6.339  12.397  2.3221 -0.9065 -0.6276
 2119TIP3   OH227771   6.635   3.246  11.656  0.1123  0.4012 -0.7833
 2119TIP3    H127772   6.683   3.194  11.720  2.0423  2.3638 -0.5225
 2119TIP3    H227773   6.548   3.258  11.695  0.8923  0.6422  0.9575
 2120TIP3   OH227774   0.590   5.687   0.425  0.6592  0.3619  0.4160
 2120TIP3    H127775   0.522   5.627   0.395  0.0948  1.2998 -0.2455
 2120TIP3    H227776   0.638   5.639   0.493  0.0205 -0.6980  0.1249
 2121TIP3   OH227777   0.178   2.185   1.189 -0.2100  0.6887 -0.1002
 2121TIP3    H127778   0.201   2.237   1.266  0.3296 -0.6628  0.6693
 2121TIP3    H227779   0.256   2.189   1.134  0.0209  0.2730  0.1949
 2122TIP3   OH227780   4.572   1.313   4.890  0.1710  0.7671 -0.2744
 2122TIP3    H127781   4.642   1.372   4.861 -0.0931  0.1776 -2.2757
 2122TIP3    H227782   4.608   1.225   4.875 -0.0082  0.4201  1.2398
 2123TIP3   OH227783   5.642   3.689   3.714  0.0383  0.5507  0.6829
 2123TIP3    H127784   5.724   3.660   3.674  0.0554  0.7159  0.5968
 2123TIP3    H227785   5.660   3.778   3.743 -0.7393  1.3605 -1.1907
 2124TIP3   OH227786   0.776   4.206  13.040  0.2476  0.5885  0.3808
 2124TIP3    H127787   0.741   4.241  12.957 -0.3214  3.1937  1.6010
 2124TIP3    H227788   0.710   4.143  13.069 -0.2238  0.6669 -0.4832
 2125TIP3   OH227789   1.124   0.491  13.403  0.2742 -0.6638  0.1971
 2125TIP3    H127790   1.029   0.489  13.410  0.2708  0.0470  0.4717
 2125TIP3    H227791   1.152   0.549  13.474  0.8999 -0.7338  0.0147
 2126TIP3   OH227792   5.461   1.905   3.600  0.5066 -0.1179  0.4503
 2126TIP3    H127793   5.436   1.816   3.576  0.7871 -0.1857  0.4086
 2126TIP3    H227794   5.379   1.955   3.596  0.4858 -0.1930 -0.3490
 2127TIP3   OH227795   3.138   4.329  13.842  0.4773 -0.6671 -0.7027
 2127TIP3    H127796   3.137   4.349  13.748 -2.2409  0.9117 -0.4355
 2127TIP3    H227797   3.058   4.279  13.857 -0.2983  0.9993  1.0929
 2128TIP3   OH227798   2.010   3.533   6.455 -0.2016 -0.4321 -0.3431
 2128TIP3    H127799   1.928   3.525   6.502 -0.0036 -2.3589 -0.2488
 2128TIP3    H227800   2.063   3.593   6.509 -1.6775  1.3015 -0.7052
 2129TIP3   OH227801   0.841   2.213  13.791  0.3645 -0.8354  0.0102
 2129TIP3    H127802   0.889   2.290  13.760 -0.8228 -0.3525 -0.7283
 2129TIP3    H227803   0.823   2.230  13.883 -0.6513  0.2135 -0.3571
 2130TIP3   OH227804   1.612   4.044  16.055  0.0566  0.0818 -0.5607
 2130TIP3    H127805   1.698   4.067  16.020  0.7692 -1.5061  0.0908
 2130TIP3    H227806   1.569   3.996  15.984  0.0476  0.0901 -0.5613
 2131TIP3   OH227807   5.434   2.172   6.005 -0.0548 -0.0059 -0.5095
 2131TIP3    H127808   5.462   2.108   6.072 -0.7036  0.3759  0.1441
 2131TIP3    H227809   5.346   2.197   6.032 -0.8655 -0.8178 -2.2489
 2132TIP3   OH227810   6.282   0.389   1.826 -0.0234  0.2290 -0.3691
 2132TIP3    H127811   6.337   0.446   1.773 -0.1002 -0.4286 -1.1774
 2132TIP3    H227812   6.335   0.310   1.839  0.3534  0.7170  1.3099
 2133TIP3   OH227813   0.082   3.995  16.071  0.1229  0.5184  0.2519
 2133TIP3    H127814   0.010   3.938  16.044 -0.4744  0.6890  1.4320
 2133TIP3    H227815   0.126   4.018  15.990 -2.0753  1.6633 -0.6950
 2134TIP3   OH227816   2.105   3.007  13.366  0.3834  0.3290 -0.6094
 2134TIP3    H127817   2.166   2.937  13.389 -2.0708 -2.0638 -0.8378
 2134TIP3    H227818   2.050   3.018  13.443  1.2474  2.7624 -0.2383
 2135TIP3   OH227819   1.643   6.463   5.616  0.3731  0.2683 -0.7896
 2135TIP3    H127820   1.608   6.414   5.690  0.1418  0.5322 -0.7174
 2135TIP3    H227821   1.600   6.424   5.539  0.4887  0.1012 -0.7688
 2136TIP3   OH227822   0.415   0.934   5.839  0.1243  0.2092  0.1581
 2136TIP3    H127823   0.431   1.024   5.865  1.1725 -0.0228  0.3342
 2136TIP3    H227824   0.500   0.900   5.811 -0.2545 -0.7183  0.0722
 2137TIP3   OH227825   2.476   0.783   0.342  0.1433  0.2494 -0.0556
 2137TIP3    H127826   2.559   0.735   0.342 -0.0793 -0.1383  0.1326
 2137TIP3    H227827   2.411   0.718   0.368 -0.1010  0.7622  0.6172
 2138TIP3   OH227828   1.448   4.526  14.307 -0.5004  0.0103  0.2767
 2138TIP3    H127829   1.429   4.618  14.288 -0.6554 -0.3098 -1.2554
 2138TIP3    H227830   1.415   4.478  14.230  0.0549 -1.2709  0.8028
 2139TIP3   OH227831   1.458   3.488   0.197 -0.4237  0.1707 -0.6141
 2139TIP3    H127832   1.484   3.580   0.194 -1.2723  0.4158 -0.7767
 2139TIP3    H227833   1.454   3.467   0.290  3.7515 -0.9081 -0.4984
 2140TIP3   OH227834   2.544   3.119   3.231  0.5067  0.1279 -0.4542
 2140TIP3    H127835   2.510   3.160   3.151  0.3696  1.8596  0.4386
 2140TIP3    H227836   2.619   3.174   3.256 -0.1250  0.2914  1.2027
 2141TIP3   OH227837   2.609   1.346   5.222  0.6074 -0.4839  0.5655
 2141TIP3    H127838   2.655   1.430   5.229 -0.0766 -0.0106 -0.2988
 2141TIP3    H227839   2.550   1.358   5.147  1.8128 -2.3662 -0.7647
 2142TIP3   OH227840   5.497   3.242  14.494 -0.3705  0.4492 -0.2668
 2142TIP3    H127841   5.547   3.247  14.576  0.3229 -2.5312 -0.4047
 2142TIP3    H227842   5.535   3.310  14.439  0.7160  0.9749  1.0675
 2143TIP3   OH227843   4.299   2.027  15.774  0.1286  0.4845  0.5332
 2143TIP3    H127844   4.394   2.024  15.787  0.2224 -1.8511 -0.3533
 2143TIP3    H227845   4.263   1.999  15.858  0.2640 -0.0086  0.4261
 2144TIP3   OH227846   1.203   5.124  12.643  0.3168  0.2174 -0.4685
 2144TIP3    H127847   1.254   5.190  12.690  1.9426 -3.1145  2.9703
 2144TIP3    H227848   1.114   5.133  12.678  0.6446  0.2684  0.3722
 2145TIP3   OH227849   1.829   6.470   3.046 -0.0107  0.3188  0.4979
 2145TIP3    H127850   1.788   6.555   3.028 -1.7967 -0.7615 -0.8656
 2145TIP3    H227851   1.902   6.465   2.984 -0.7176  0.3223 -0.3508
 2146TIP3   OH227852   0.644   2.556  11.917 -0.5465 -0.2373 -0.1829
 2146TIP3    H127853   0.619   2.621  11.851  0.8762 -0.6495 -1.1630
 2146TIP3    H227854   0.584   2.483  11.901 -1.6517  0.4974  0.4313
 2147TIP3   OH227855   0.751   0.557   5.201  0.3419 -0.0645 -0.1285
 2147TIP3    H127856   0.831   0.542   5.252 -0.3576 -1.7513  0.5566
 2147TIP3    H227857   0.681   0.523   5.257 -0.9764  2.1075 -0.3817
 2148TIP3   OH227858   5.505   5.921   6.622 -0.2732  0.4844  0.4725
 2148TIP3    H127859   5.587   5.897   6.666 -0.9159 -1.9205  0.4774
 2148TIP3    H227860   5.515   6.015   6.603  2.3143  0.3520  0.7940
 2149TIP3   OH227861   2.427   6.386  10.934 -0.1911  0.6124  0.3464
 2149TIP3    H127862   2.421   6.477  10.960 -0.2768  0.8736 -0.5555
 2149TIP3    H227863   2.521   6.366  10.939 -0.1377  0.8378  0.2496
 2150TIP3   OH227864   5.725   4.849  14.552  0.2885 -0.2221  0.2524
 2150TIP3    H127865   5.672   4.899  14.614 -0.6003 -1.0508  0.1881
 2150TIP3    H227866   5.667   4.778  14.522  0.8885 -0.1839 -1.0779
 2151TIP3   OH227867   0.607   6.056   0.875 -0.2762 -0.2785 -0.6407
 2151TIP3    H127868   0.679   6.033   0.816  0.9038  1.2869  0.0942
 2151TIP3    H227869   0.604   6.152   0.873 -1.2444 -0.2484  0.6269
 2152TIP3   OH227870   1.457   3.521   2.714  0.0817  0.4123 -0.0294
 2152TIP3    H127871   1.391   3.469   2.760  1.1472 -0.8752  0.0952
 2152TIP3    H227872   1.406   3.584   2.663 -1.1959  0.3831  1.1402
 2153TIP3   OH227873   6.645   1.731  10.738  0.9862  0.1427 -0.0778
 2153TIP3    H127874   6.714   1.729  10.671 -0.1898  2.4936 -1.5077
 2153TIP3    H227875   6.587   1.802  10.710 -0.1973  0.4843  2.8757
 2154TIP3   OH227876   5.657   0.815  13.252  0.4088 -0.5680 -0.2160
 2154TIP3    H127877   5.572   0.819  13.208 -0.5681 -1.3536  1.5216
 2154TIP3    H227878   5.708   0.753  13.199 -0.8903 -1.8483 -0.0247
 2155TIP3   OH227879   4.859   2.585  10.967 -0.0677  0.8041  0.3312
 2155TIP3    H127880   4.877   2.666  10.920  0.0708  1.4216  1.4092
 2155TIP3    H227881   4.764   2.574  10.960 -0.4611  2.3675  2.1362
 2156TIP3   OH227882   6.300   2.284   4.500  0.3924  0.5015 -0.1972
 2156TIP3    H127883   6.309   2.368   4.545  0.4084  0.0465  0.6811
 2156TIP3    H227884   6.365   2.227   4.543 -0.9595 -0.5066  0.5865
 2157TIP3   OH227885   2.886   0.342   4.286  0.7397 -0.1793 -0.0880
 2157TIP3    H127886   2.940   0.389   4.223  0.4102 -0.0678 -0.2920
 2157TIP3    H227887   2.934   0.261   4.304 -0.0161 -1.0964 -1.8989
 2158TIP3   OH227888   4.003   1.598   3.255 -0.0856 -0.3279  0.0890
 2158TIP3    H127889   3.935   1.659   3.285 -0.4813 -1.6120  2.0184
 2158TIP3    H227890   4.079   1.617   3.310  0.9867  0.6941 -1.6569
 2159TIP3   OH227891   1.751   4.485   1.073  0.6263 -0.3511  0.3801
 2159TIP3    H127892   1.708   4.551   1.127 -1.4192 -2.0690  0.9893
 2159TIP3    H227893   1.817   4.445   1.130  0.3488 -0.3263  0.7132
 2160TIP3   OH227894   5.114   1.510  14.918 -0.0655 -0.1111  0.2418
 2160TIP3    H127895   5.025   1.530  14.950 -1.1030 -0.3674 -2.2662
 2160TIP3    H227896   5.158   1.473  14.995 -1.2305  2.4463  2.2956
 2161TIP3   OH227897   6.524   3.812  17.009  0.2948  0.4633  0.1478
 2161TIP3    H127898   6.569   3.874  16.951  2.8197  0.8629  2.3711
 2161TIP3    H227899   6.481   3.867  17.074  0.2844 -0.0714  0.5936
 2162TIP3   OH227900   3.733   6.094  13.120 -0.0792 -0.1169 -0.4321
 2162TIP3    H127901   3.680   6.040  13.063  0.6759 -1.7644  0.3615
 2162TIP3    H227902   3.713   6.063  13.209 -0.8145  2.0045  0.2174
 2163TIP3   OH227903   5.184   5.462   2.268  0.3021  0.6960  0.6148
 2163TIP3    H127904   5.166   5.550   2.302 -0.0451  0.6403  0.5842
 2163TIP3    H227905   5.184   5.407   2.346  1.6506  0.8831  0.7714
 2164TIP3   OH227906   4.197   5.838   6.565  0.1885  0.3184 -0.3985
 2164TIP3    H127907   4.122   5.788   6.599  1.3007 -1.5527 -0.5382
 2164TIP3    H227908   4.204   5.810   6.474  0.7339  0.8916 -0.5331
 2165TIP3   OH227909   6.045   1.469   5.881 -0.1425  0.2769 -0.0707
 2165TIP3    H127910   6.035   1.455   5.975 -0.3794  0.1404 -0.1165
 2165TIP3    H227911   6.140   1.480   5.868 -0.2070  1.5386  0.3521
 2166TIP3   OH227912   3.783   1.727  11.148  0.5603 -0.3439 -0.2012
 2166TIP3    H127913   3.863   1.768  11.181  0.7157 -1.2231  0.5793
 2166TIP3    H227914   3.814   1.666  11.081  0.5907 -0.9401  0.3469
 2167TIP3   OH227915   6.733   5.617  14.312 -0.6311  0.5784  0.2505
 2167TIP3    H127916   6.667   5.570  14.363 -0.3585  0.6072  0.6313
 2167TIP3    H227917   6.793   5.652  14.377 -0.1827  0.4673 -0.0979
 2168TIP3   OH227918   2.002   0.681  12.581  0.4247 -0.5973 -0.4754
 2168TIP3    H127919   2.049   0.653  12.660  1.6668  0.1485 -0.9147
 2168TIP3    H227920   2.068   0.677  12.512 -0.4155 -0.3715 -1.3060
 2169TIP3   OH227921   1.326   5.670   2.362 -0.0707 -0.4123 -0.1228
 2169TIP3    H127922   1.297   5.758   2.384  0.8661 -0.3469  0.8813
 2169TIP3    H227923   1.410   5.682   2.317  1.0608 -0.8610  1.7707
 2170TIP3   OH227924   5.406   6.131  13.986 -0.1442  0.3224  0.1495
 2170TIP3    H127925   5.391   6.164  13.898  1.6589 -0.3101 -0.4412
 2170TIP3    H227926   5.451   6.047  13.973  1.4738  0.9020  1.6674
 2171TIP3   OH227927   0.657   4.930  16.005 -0.0955  0.5376  0.1513
 2171TIP3    H127928   0.699   4.948  15.922 -1.9934 -0.8001 -1.1772
 2171TIP3    H227929   0.575   4.887  15.982 -1.4894  1.6118  2.6412
 2172TIP3   OH227930   1.507   0.408  13.666  0.4495  0.6985  0.2221
 2172TIP3    H127931   1.521   0.443  13.754 -0.3942  1.1391  0.1896
 2172TIP3    H227932   1.547   0.472  13.608 -0.7858  1.4673  0.1822
 2173TIP3   OH227933   5.813   0.165   0.702  0.3178 -0.3709  0.3191
 2173TIP3    H127934   5.803   0.148   0.608 -0.0101  0.7008  0.1464
 2173TIP3    H227935   5.834   0.080   0.739  0.2318 -0.8568 -0.6978
 2174TIP3   OH227936   1.576   3.909  13.486  0.3026  0.6562  0.4522
 2174TIP3    H127937   1.637   3.842  13.455  0.4270  0.3687  1.3092
 2174TIP3    H227938   1.601   3.988  13.437 -0.0268  0.0300 -0.7673
 2175TIP3   OH227939   4.331   3.970   5.788  0.0458 -0.5253  0.2487
 2175TIP3    H127940   4.275   3.893   5.778 -1.5259  0.5824  0.2175
 2175TIP3    H227941   4.390   3.967   5.713 -0.4464 -1.3417 -0.1185
 2176TIP3   OH227942   5.871   0.446   5.967 -0.2595  0.5886  0.6845
 2176TIP3    H127943   5.795   0.416   5.918 -1.7522 -0.7446  3.6198
 2176TIP3    H227944   5.944   0.397   5.929 -1.2052  0.1355 -0.6413
 2177TIP3   OH227945   6.371   5.347  15.913 -0.3867  0.4250 -0.1497
 2177TIP3    H127946   6.377   5.349  16.008 -3.2842  1.8806  0.1101
 2177TIP3    H227947   6.406   5.431  15.884  2.8253 -0.9565 -0.6966
 2178TIP3   OH227948   5.563   1.008  11.845 -0.1255 -0.2637  0.3191
 2178TIP3    H127949   5.612   1.077  11.799 -2.6654  0.2048 -1.9457
 2178TIP3    H227950   5.586   1.020  11.937  1.5178  1.9325 -0.2900
 2179TIP3   OH227951   5.006   6.457  15.022 -0.5152  0.0302  0.4876
 2179TIP3    H127952   4.930   6.401  15.002 -0.2806  0.3549 -1.5522
 2179TIP3    H227953   5.072   6.396  15.056 -0.9308 -0.6266  0.1474
 2180TIP3   OH227954   3.373   1.838  13.112  0.2081  0.1394  0.3972
 2180TIP3    H127955   3.373   1.930  13.084 -1.1924 -1.0220 -4.4528
 2180TIP3    H227956   3.286   1.824  13.149 -0.6153  0.3123 -1.3393
 2181TIP3   OH227957   2.899   6.014   3.467  0.1320  0.2398 -0.1147
 2181TIP3    H127958   2.828   5.955   3.444 -0.2446  0.8719 -0.6062
 2181TIP3    H227959   2.956   5.962   3.523 -0.4357 -0.4397 -0.1529
 2182TIP3   OH227960   6.685   5.204   4.716  0.1514  0.2718  0.0338
 2182TIP3    H127961   6.636   5.138   4.765 -0.7087 -0.1737 -1.3695
 2182TIP3    H227962   6.618   5.254   4.669  0.9748  0.0243 -1.4684
 2183TIP3   OH227963   1.062   0.946   5.924  0.3961 -0.0437  0.3497
 2183TIP3    H127964   0.971   0.974   5.935  0.2218  0.2818 -1.5848
 2183TIP3    H227965   1.104   1.018   5.878  0.5006 -1.8521 -2.7288
 2184TIP3   OH227966   1.020   0.082   2.346  0.4979  0.4963 -0.6587
 2184TIP3    H127967   0.933   0.120   2.353 -0.8992 -2.3375 -1.3505
 2184TIP3    H227968   1.014  -0.001   2.394  3.0411  0.5088 -0.1704
 2185TIP3   OH227969   5.964   4.634   5.681  0.2510  0.3284  0.2273
 2185TIP3    H127970   5.925   4.547   5.676 -0.9470  0.8855 -0.6396
 2185TIP3    H227971   5.992   4.654   5.592 -0.5674  1.2825  0.1558
 2186TIP3   OH227972   2.336   2.561  12.334  0.2948 -0.1387  0.0240
 2186TIP3    H127973   2.313   2.513  12.255  1.4117 -1.6381  0.5516
 2186TIP3    H227974   2.400   2.505  12.378  1.6856  1.8423  0.6960
 2187TIP3   OH227975   2.820   0.843   2.079 -0.3459 -0.2206 -0.2315
 2187TIP3    H127976   2.746   0.904   2.080 -0.9023 -0.8813  0.9089
 2187TIP3    H227977   2.790   0.769   2.026  0.6076  0.7830 -2.2614
 2188TIP3   OH227978   4.672   0.131   3.149 -0.4720  0.7980 -0.1255
 2188TIP3    H127979   4.628   0.090   3.224  1.1712 -0.8011  0.0432
 2188TIP3    H227980   4.721   0.204   3.187 -2.2656  2.0815 -0.1964
 2189TIP3   OH227981   2.379   6.448  16.113  0.2848  0.2969  0.4120
 2189TIP3    H127982   2.442   6.422  16.046  1.6364  0.1647  1.7013
 2189TIP3    H227983   2.422   6.519  16.161 -0.7909  0.6090  0.9435
 2190TIP3   OH227984   1.929   0.253  15.324  0.2536  0.5033 -0.0365
 2190TIP3    H127985   1.992   0.202  15.272 -0.8397 -1.6785  0.6412
 2190TIP3    H227986   1.967   0.340  15.330  2.8923 -0.5462 -0.2199
 2191TIP3   OH227987   0.835   2.768   0.179 -0.1263 -0.3272 -0.5900
 2191TIP3    H127988   0.740   2.762   0.179 -0.1906  0.5361 -0.3447
 2191TIP3    H227989   0.854   2.857   0.210  0.7641 -0.5921 -0.3293
 2192TIP3   OH227990   3.123   0.396  11.969  0.2598 -0.5196  0.2906
 2192TIP3    H127991   3.045   0.442  12.000 -0.5068 -1.5260 -0.0663
 2192TIP3    H227992   3.193   0.462  11.972 -0.8469  0.7461 -0.4693
 2193TIP3   OH227993   5.218   1.419  10.950 -0.3687 -0.1554 -0.3108
 2193TIP3    H127994   5.125   1.438  10.964 -0.3607  0.1158 -0.6134
 2193TIP3    H227995   5.229   1.425  10.855  0.3185  1.5069 -0.1576
 2194TIP3   OH227996   1.920   1.253  10.867 -0.2793  0.3168 -0.2753
 2194TIP3    H127997   1.942   1.179  10.811  1.6376  0.2445  0.4657
 2194TIP3    H227998   1.968   1.327  10.829 -0.4299  0.6758  0.2103
 2195TIP3   OH227999   3.637   2.807  12.928 -0.4065 -0.1261  0.1495
 2195TIP3    H128000   3.664   2.720  12.957  0.8821 -0.4328 -1.7638
 2195TIP3    H228001   3.565   2.790  12.866  0.2785  0.0825 -0.7297
 2196TIP3   OH228002   5.111   2.399  12.368  0.1946  0.1624 -0.0682
 2196TIP3    H128003   5.052   2.351  12.309  1.8426 -1.2325 -0.6685
 2196TIP3    H228004   5.167   2.450  12.310  1.4374 -0.7544  0.2789
 2197TIP3   OH228005   0.696   2.103   2.244  0.2607 -0.0488 -0.5956
 2197TIP3    H128006   0.756   2.063   2.307 -1.2366  0.9011  1.5603
 2197TIP3    H228007   0.743   2.180   2.212  2.0337 -1.8361 -2.6674
 2198TIP3   OH228008   0.245   1.371  14.449 -0.4086 -0.1816 -0.3452
 2198TIP3    H128009   0.239   1.439  14.382  1.4644 -0.2669 -0.6516
 2198TIP3    H228010   0.319   1.398  14.505 -1.1335 -0.7620  0.9495
 2199TIP3   OH228011   3.853   2.246   5.847  0.3312  0.3799 -0.1456
 2199TIP3    H128012   3.809   2.203   5.921 -0.6241  0.8501 -0.4210
 2199TIP3    H228013   3.933   2.282   5.884  0.5847 -0.6304  0.3409
 2200TIP3   OH228014   2.595   4.252  14.662 -1.0163 -0.5397 -0.4428
 2200TIP3    H128015   2.579   4.159  14.679  1.3070 -0.7625  0.9617
 2200TIP3    H228016   2.653   4.254  14.586  1.1044 -0.4855  1.0840
 2201TIP3   OH228017   3.758   0.442   6.091  0.4371 -0.4009 -0.7996
 2201TIP3    H128018   3.795   0.374   6.147 -1.1738 -0.9987 -0.3985
 2201TIP3    H228019   3.705   0.495   6.150  2.2587  1.7160 -0.9592
 2202TIP3   OH228020   0.702   6.162   0.514 -0.3465 -0.0901  0.4679
 2202TIP3    H128021   0.639   6.093   0.498 -0.5093  0.1787 -0.0860
 2202TIP3    H228022   0.665   6.239   0.470  0.7881 -0.1530 -0.6382
 2203TIP3   OH228023   5.779   5.061  16.381 -0.2134 -0.4717  0.0137
 2203TIP3    H128024   5.833   4.985  16.362 -0.2912 -1.1048  2.0741
 2203TIP3    H228025   5.834   5.136  16.360  1.1828 -1.1028  1.2311
 2204TIP3   OH228026   3.987   0.353  16.498  0.1121 -0.0777  0.0257
 2204TIP3    H128027   3.982   0.448  16.512  0.2346 -0.0563 -0.0741
 2204TIP3    H228028   4.062   0.341  16.439  1.1101 -0.3764  1.3119
 2205TIP3   OH228029   6.366   4.954   3.663 -0.2540  0.4638 -0.0653
 2205TIP3    H128030   6.394   4.956   3.754  0.5913  0.3951 -0.3195
 2205TIP3    H228031   6.447   4.954   3.612 -0.7125  0.4093 -0.8182
 2206TIP3   OH228032   1.456   3.437  16.674  0.5585  0.4481 -0.1636
 2206TIP3    H128033   1.414   3.388  16.744  1.9269  0.3176  0.6065
 2206TIP3    H228034   1.429   3.393  16.593  1.0025 -1.0077  0.4517
 2207TIP3   OH228035   2.189   2.593   0.104  0.2370 -0.4570  0.0131
 2207TIP3    H128036   2.198   2.603   0.009  1.5233 -0.7708  0.0825
 2207TIP3    H228037   2.273   2.624   0.139 -1.0730  1.9710  1.2554
 2208TIP3   OH228038   2.774   3.365  10.940  0.3543  0.4265  0.5287
 2208TIP3    H128039   2.767   3.272  10.964  0.6154  1.1229  3.8681
 2208TIP3    H228040   2.866   3.378  10.921  0.2895 -0.0144 -0.1133
 2209TIP3   OH228041   4.100   6.753  16.311  0.0546  0.1059  0.0432
 2209TIP3    H128042   4.166   6.797  16.258 -0.7092  2.9999  1.3001
 2209TIP3    H228043   4.017   6.789  16.281 -0.5558  0.1229  1.6474
 2210TIP3   OH228044   1.073   3.917  14.772  0.7163 -0.3156 -0.0374
 2210TIP3    H128045   1.009   3.886  14.708  0.3967 -0.5332  0.3791
 2210TIP3    H228046   1.141   3.850  14.773  0.5197 -0.5140  0.1407
 2211TIP3   OH228047   4.051   3.035   3.940  0.0691 -0.0127 -0.2647
 2211TIP3    H128048   4.125   3.014   3.997  0.4642  0.8173 -0.4514
 2211TIP3    H228049   3.975   3.001   3.986  0.4972 -0.3111  0.2404
 2212TIP3   OH228050   1.611   0.460  17.051 -0.1110  0.2908 -0.1319
 2212TIP3    H128051   1.604   0.376  17.096 -1.4383  0.3998 -0.1051
 2212TIP3    H228052   1.630   0.437  16.960  2.8517  0.0771  0.4438
 2213TIP3   OH228053   4.320   5.420  15.963  0.3739  0.1309  0.5407
 2213TIP3    H128054   4.398   5.379  16.000 -0.3859 -1.4158  0.4950
 2213TIP3    H228055   4.248   5.392  16.020 -0.4236 -0.0517 -0.5173
 2214TIP3   OH228056   1.854   6.291   5.430  0.0503  0.5287  0.3542
 2214TIP3    H128057   1.934   6.339   5.453  0.9585 -0.5988 -0.3662
 2214TIP3    H228058   1.801   6.355   5.382  0.7885  1.1160  0.3048
 2215TIP3   OH228059   6.491   0.981  16.564 -0.2013 -0.2308 -0.2347
 2215TIP3    H128060   6.586   0.971  16.567 -0.0463 -1.4264 -4.0373
 2215TIP3    H228061   6.458   0.894  16.540 -2.2205  0.3359  0.2679
 2216TIP3   OH228062   2.551   0.228   2.541 -0.1572  0.3466  0.5268
 2216TIP3    H128063   2.540   0.156   2.479 -0.5029  0.8865 -0.0461
 2216TIP3    H228064   2.611   0.289   2.498 -1.0364  1.1192  0.3449
 2217TIP3   OH228065   4.006   6.109  11.646 -0.6775  0.3172  0.2367
 2217TIP3    H128066   4.018   6.116  11.741  1.4788  2.5052 -0.0890
 2217TIP3    H228067   3.958   6.188  11.621 -3.1134 -1.2375 -0.3498
 2218TIP3   OH228068   0.188   5.634  16.858 -0.6693 -0.3477 -0.2899
 2218TIP3    H128069   0.140   5.692  16.917  0.3766 -0.9564  1.2238
 2218TIP3    H228070   0.248   5.691  16.812 -1.7775  0.1961 -1.0995
 2219TIP3   OH228071   6.058   2.751  15.854  0.1697 -0.5884  0.0347
 2219TIP3    H128072   5.968   2.718  15.851  0.3338 -1.0413  0.0470
 2219TIP3    H228073   6.053   2.838  15.815 -0.1921 -0.8004 -0.3959
 2220TIP3   OH228074   3.577   5.916   3.153  0.5868  0.6153 -0.5832
 2220TIP3    H128075   3.564   5.836   3.204  1.6877  0.6350 -0.2335
 2220TIP3    H228076   3.663   5.947   3.180  0.4636  1.5508 -1.2243
 2221TIP3   OH228077   4.093   5.784  12.299 -0.0301 -0.0807 -0.2272
 2221TIP3    H128078   4.169   5.802  12.244  1.7638 -1.1840  1.7393
 2221TIP3    H228079   4.061   5.870  12.325 -0.3785  0.4333 -2.2005
 2222TIP3   OH228080   2.690   3.819   1.625 -0.0871  0.2291 -0.5086
 2222TIP3    H128081   2.715   3.784   1.540 -0.3120  1.6971 -1.2225
 2222TIP3    H228082   2.618   3.764   1.655  1.0063 -1.2534 -0.5358
 2223TIP3   OH228083   1.896   4.628   6.218  0.3211  0.3198 -0.4801
 2223TIP3    H128084   1.936   4.610   6.303 -0.0016 -1.2951 -0.6380
 2223TIP3    H228085   1.814   4.673   6.239  0.3088  0.0571  0.0504
 2224TIP3   OH228086   0.726   4.816  17.092  1.0858 -0.4004 -0.2017
 2224TIP3    H128087   0.651   4.862  17.130  1.6067 -1.3770  2.1765
 2224TIP3    H228088   0.764   4.879  17.030 -1.3779  0.2726 -1.1481
 2225TIP3   OH228089   1.498   6.365   6.837 -0.1744 -0.1422 -0.0267
 2225TIP3    H128090   1.486   6.455   6.869  0.7283 -0.6388  1.8502
 2225TIP3    H228091   1.583   6.338   6.871 -0.5842 -1.8292 -0.2397
 2226TIP3   OH228092   2.485   5.915  15.188 -0.6084  0.9110  0.1404
 2226TIP3    H128093   2.446   5.978  15.127  1.4875  1.5662 -0.6122
 2226TIP3    H228094   2.478   5.957  15.274 -3.3822  0.0795  0.4089
 2227TIP3   OH228095   0.670   2.790   0.986 -0.4407 -0.9295 -0.2675
 2227TIP3    H128096   0.651   2.697   0.992  1.2306 -1.2749  0.2910
 2227TIP3    H228097   0.738   2.797   0.919 -0.5884 -0.0930 -0.3504
 2228TIP3   OH228098   3.290   0.189   4.446  0.4452  0.0392  0.0990
 2228TIP3    H128099   3.281   0.244   4.523  1.9842  0.8360 -0.2588
 2228TIP3    H228100   3.244   0.236   4.377 -0.6425 -0.5128  0.4173
 2229TIP3   OH228101   2.227   6.036  11.184 -0.2548  0.3420  0.0141
 2229TIP3    H128102   2.237   6.053  11.090 -2.3121  1.6662 -0.0226
 2229TIP3    H228103   2.226   6.123  11.224 -0.6213 -0.1604  1.1167
 2230TIP3   OH228104   3.339   4.224  13.978  0.3296 -0.4625 -0.6814
 2230TIP3    H128105   3.281   4.278  13.926 -0.8091  1.2958  2.1849
 2230TIP3    H228106   3.300   4.136  13.975  0.7673 -0.6535 -3.2850
 2231TIP3   OH228107   0.456   3.677  12.625 -0.0643  0.3090 -0.1245
 2231TIP3    H128108   0.548   3.684  12.599  0.5387  1.2372  1.9812
 2231TIP3    H228109   0.442   3.753  12.682 -2.4666  0.7752 -1.2359
 2232TIP3   OH228110   1.589   6.102   4.350  0.6452 -0.8485  0.2101
 2232TIP3    H128111   1.531   6.170   4.316  3.1878  0.7437 -1.2649
 2232TIP3    H228112   1.531   6.042   4.397 -2.0338  1.0278 -0.4814
 2233TIP3   OH228113   5.382   4.294   5.103 -0.3375 -0.5364 -0.2067
 2233TIP3    H128114   5.364   4.276   5.195 -1.8248 -2.6243 -0.8387
 2233TIP3    H228115   5.354   4.385   5.091  0.1266 -0.1439  1.4305
 2234TIP3   OH228116   6.135   0.122   0.180  0.7661  0.2972  0.2937
 2234TIP3    H128117   6.079   0.194   0.149 -0.0752  0.4780  2.1301
 2234TIP3    H228118   6.178   0.157   0.258  0.3098 -1.2004  1.2511
 2235TIP3   OH228119   5.409   5.930  15.033 -0.2438  0.1641  0.5566
 2235TIP3    H128120   5.316   5.950  15.018 -0.2767  1.3001  2.0344
 2235TIP3    H228121   5.409   5.871  15.108  0.2200 -0.1498  0.3158
 2236TIP3   OH228122   3.649   0.984   5.987  0.3239  0.2873 -0.0252
 2236TIP3    H128123   3.624   0.951   6.073 -0.2581 -1.2187 -0.7353
 2236TIP3    H228124   3.733   0.941   5.968 -0.1947 -0.4465 -0.7493
 2237TIP3   OH228125   1.481   6.743   4.872  0.1270 -0.2924 -0.4062
 2237TIP3    H128126   1.454   6.698   4.952  0.0198 -1.4371 -1.0611
 2237TIP3    H228127   1.410   6.726   4.810  0.4508  0.1356 -0.9032
 2238TIP3   OH228128   1.420   2.481  15.443  0.3046  0.2080  0.3908
 2238TIP3    H128129   1.370   2.455  15.366 -1.7154 -0.7479  1.9131
 2238TIP3    H228130   1.353   2.502  15.509  1.8322  4.1445  0.9976
 2239TIP3   OH228131   4.416   6.363  12.857  0.0135 -0.4902 -0.4594
 2239TIP3    H128132   4.418   6.370  12.953 -1.9424  0.5267 -0.4394
 2239TIP3    H228133   4.396   6.271  12.840  0.2174 -0.6481  0.1131
 2240TIP3   OH228134   4.043   4.630  15.137  0.2905 -0.2418  0.3349
 2240TIP3    H128135   4.031   4.724  15.122  1.0958 -0.2001 -0.0956
 2240TIP3    H228136   3.954   4.596  15.146 -0.1173  0.2655 -1.4001
 2241TIP3   OH228137   4.865   6.437   4.443 -0.3151  0.1043  0.5398
 2241TIP3    H128138   4.842   6.472   4.357 -0.3620  0.0345  0.5234
 2241TIP3    H228139   4.839   6.505   4.505  0.9122  0.7262  0.4168
 2242TIP3   OH228140   0.542   6.253  13.540 -0.0677 -0.0152 -0.0225
 2242TIP3    H128141   0.609   6.202  13.586 -0.6836 -1.0971 -0.2818
 2242TIP3    H228142   0.468   6.254  13.601 -0.7930 -1.2246 -0.8256
 2243TIP3   OH228143   4.604   0.911  13.475 -0.1931 -0.1961 -0.0258
 2243TIP3    H128144   4.550   0.832  13.464 -1.1776  0.3612  0.6876
 2243TIP3    H228145   4.545   0.983  13.453  0.0338  0.4662  1.4634
 2244TIP3   OH228146   3.844   0.663  17.012 -0.5615 -0.0125  0.0498
 2244TIP3    H128147   3.902   0.613  17.070  0.3791  2.5126  1.4068
 2244TIP3    H228148   3.886   0.658  16.926  0.9043  0.5628  0.7042
 2245TIP3   OH228149   5.256   4.966  14.121 -0.3881  0.1169 -0.0759
 2245TIP3    H128150   5.289   4.958  14.032 -0.6307 -2.3898 -0.0188
 2245TIP3    H228151   5.162   4.954  14.114 -0.1944 -2.3415  0.6685
 2246TIP3   OH228152   2.757   5.297  16.884 -0.1554  0.0719 -0.3674
 2246TIP3    H128153   2.763   5.223  16.945  0.3923  0.5098  0.1147
 2246TIP3    H228154   2.847   5.327  16.873  0.3528 -2.2303 -4.2571
 2247TIP3   OH228155   1.350   4.896   6.443 -0.0256 -0.6477 -0.0568
 2247TIP3    H128156   1.321   4.845   6.519 -2.0538 -0.1591 -0.4411
 2247TIP3    H228157   1.383   4.977   6.481  3.3707 -2.1407  0.5731
 2248TIP3   OH228158   3.505   1.119  12.564  0.6549  0.0503  0.4455
 2248TIP3    H128159   3.567   1.128  12.492  1.2417 -0.5588  0.8699
 2248TIP3    H228160   3.419   1.118  12.521  0.8087  2.3193 -0.0377
 2249TIP3   OH228161   1.961   1.574  13.368 -0.5409  0.0964  0.5668
 2249TIP3    H128162   1.890   1.515  13.341 -1.5155  1.3436  0.3310
 2249TIP3    H228163   1.917   1.657  13.387  0.7917  0.7198  1.0054
 2250TIP3   OH228164   1.422   5.397   0.662  0.1603  0.0289 -0.0702
 2250TIP3    H128165   1.432   5.317   0.713 -1.8873 -0.3581 -0.1923
 2250TIP3    H228166   1.333   5.394   0.629  0.7711  1.2465 -2.0340
 2251TIP3   OH228167   1.235   1.950  14.156  0.0159  0.4462  0.4510
 2251TIP3    H128168   1.189   1.880  14.203  0.7094  0.1161  0.6533
 2251TIP3    H228169   1.273   1.907  14.079 -2.0354  1.1901 -1.0796
 2252TIP3   OH228170   0.431   1.531  13.432  0.3485  0.4939  0.1696
 2252TIP3    H128171   0.453   1.479  13.509  3.6690  2.1848  0.5189
 2252TIP3    H228172   0.346   1.570  13.453  0.9289  0.5230  2.7992
 2253TIP3   OH228173   6.148   1.869   5.572 -0.1953 -0.2420 -0.9266
 2253TIP3    H128174   6.167   1.802   5.638 -1.8394 -2.5510 -2.6231
 2253TIP3    H228175   6.075   1.919   5.608  1.6355  1.4040  0.7666
 2254TIP3   OH228176   2.088   3.802   0.281 -0.2681  0.3692  0.0297
 2254TIP3    H128177   2.099   3.893   0.253 -0.8423  0.5820  0.4563
 2254TIP3    H228178   2.066   3.809   0.374 -2.1665 -0.0662 -0.3313
 2255TIP3   OH228179   3.561   2.556   4.212 -0.4763 -0.7897 -0.4647
 2255TIP3    H128180   3.586   2.491   4.278  0.2845 -0.4773 -0.4381
 2255TIP3    H228181   3.641   2.572   4.162 -0.3992  0.7753  0.0954
 2256TIP3   OH228182   2.240   0.313   2.253 -0.1270 -0.2288 -0.2607
 2256TIP3    H128183   2.161   0.261   2.267  0.3849 -0.8555  0.4349
 2256TIP3    H228184   2.236   0.382   2.319  0.3139 -0.7795  0.3613
 2257TIP3   OH228185   2.726   0.443   0.391 -0.2480  0.3566  0.6595
 2257TIP3    H128186   2.785   0.372   0.367 -1.2903 -0.2044 -0.3474
 2257TIP3    H228187   2.783   0.518   0.406  0.7410 -0.2499  0.0277
 2258TIP3   OH228188   1.408   1.873  15.508  0.3224  0.0346  0.0182
 2258TIP3    H128189   1.396   1.966  15.488 -0.3605 -0.2559 -1.0324
 2258TIP3    H228190   1.503   1.861  15.511  0.4310  0.5264 -1.0659
 2259TIP3   OH228191   5.536   6.712  11.583  0.0957  0.0380  0.1083
 2259TIP3    H128192   5.601   6.709  11.653 -0.7619 -0.5643  0.8966
 2259TIP3    H228193   5.526   6.620  11.556 -1.4176 -0.0743  0.9483
 2260TIP3   OH228194   2.942   1.201   5.493 -0.2237 -0.3939 -0.3974
 2260TIP3    H128195   2.986   1.162   5.569 -0.1479 -0.1901 -0.3348
 2260TIP3    H228196   2.891   1.273   5.529  0.3879  0.1658 -0.6256
 2261TIP3   OH228197   5.713   2.759  12.060  0.6514 -0.9557  0.2903
 2261TIP3    H128198   5.647   2.804  12.008  0.2552 -0.0330  1.5242
 2261TIP3    H228199   5.780   2.734  11.997 -0.0270 -0.3180 -0.7301
 2262TIP3   OH228200   3.652   4.202  12.887  0.7630  0.2871 -0.1345
 2262TIP3    H128201   3.576   4.145  12.903  3.2588 -2.8898  1.7372
 2262TIP3    H228202   3.656   4.258  12.964  0.7881 -0.1870  0.2185
 2263TIP3   OH228203   5.816   3.331   3.410  0.4251  0.0861 -0.3984
 2263TIP3    H128204   5.743   3.390   3.396 -0.6742 -0.7365  1.4979
 2263TIP3    H228205   5.802   3.295   3.498  1.6278 -2.1409 -1.0224
 2264TIP3   OH228206   6.218   3.319  14.528  0.1961 -0.8662  0.4206
 2264TIP3    H128207   6.163   3.371  14.469 -1.1366 -0.3662  2.0403
 2264TIP3    H228208   6.260   3.255  14.470 -1.8317 -1.0707 -0.9507
 2265TIP3   OH228209   6.318   4.093  12.688 -0.2314 -0.5381  0.5410
 2265TIP3    H128210   6.323   4.087  12.783  1.8710  0.8570  0.5764
 2265TIP3    H228211   6.383   4.031  12.656 -0.5192 -0.5776  0.0165
 2266TIP3   OH228212   1.811   1.461   2.277  0.2894  0.0987 -0.0060
 2266TIP3    H128213   1.890   1.409   2.265 -0.0860 -0.2553 -1.0083
 2266TIP3    H228214   1.741   1.397   2.294  0.1250  0.3793  0.4108
 2267TIP3   OH228215   3.249   4.373   0.931  0.0838 -1.0046  0.1057
 2267TIP3    H128216   3.332   4.326   0.921  0.4856 -0.3148  0.1413
 2267TIP3    H228217   3.273   4.455   0.974 -0.4783 -0.3708 -0.7602
 2268TIP3   OH228218   2.866   2.694  15.107  0.0099  0.2109  0.8336
 2268TIP3    H128219   2.858   2.650  15.192 -1.6828 -1.4997 -0.1375
 2268TIP3    H228220   2.817   2.776  15.119  1.2027  0.7957  1.9622
 2269TIP3   OH228221   3.990   0.310  11.065  0.3466 -0.5963 -0.1162
 2269TIP3    H128222   3.995   0.402  11.038  0.3483 -1.1133 -2.0554
 2269TIP3    H228223   4.081   0.282  11.069  0.4132 -0.2013  1.7699
 2270TIP3   OH228224   3.068   3.142   5.030  0.2392  0.0871 -0.5078
 2270TIP3    H128225   3.053   3.163   4.938  3.8326  2.4476 -0.7338
 2270TIP3    H228226   3.160   3.114   5.033  0.4609  0.8467  2.4326
 2271TIP3   OH228227   4.077   0.296  14.832 -0.0847 -0.4293  0.3435
 2271TIP3    H128228   3.988   0.307  14.864  0.0902 -1.8475  1.4144
 2271TIP3    H228229   4.124   0.372  14.865 -0.9402  0.4890 -0.4893
 2272TIP3   OH228230   2.958   4.733   2.522 -0.0479  0.9647  0.4383
 2272TIP3    H128231   2.873   4.760   2.488  0.2884 -0.0298 -1.3318
 2272TIP3    H228232   2.977   4.651   2.475  0.6872 -0.2780  2.7406
 2273TIP3   OH228233   5.084   1.964   3.000  0.2055  0.9070 -0.2810
 2273TIP3    H128234   5.071   2.052   2.966  0.6829  1.1899  0.2450
 2273TIP3    H228235   5.006   1.948   3.054  0.0263  0.9276 -0.5298
 2274TIP3   OH228236   3.438   4.894  15.667 -0.6763 -0.4373 -0.3695
 2274TIP3    H128237   3.511   4.834  15.657 -0.4522  0.0726 -1.9410
 2274TIP3    H228238   3.360   4.840  15.656 -0.4807 -0.5168 -1.3841
 2275TIP3   OH228239   1.031   1.096  12.841  0.1459  0.7679  0.2091
 2275TIP3    H128240   0.990   1.013  12.865  3.1320 -0.2743  2.2612
 2275TIP3    H228241   1.090   1.073  12.769  0.1157  1.3789 -0.0151
 2276TIP3   OH228242   2.923   6.203  14.237  0.0833  0.1809  0.0041
 2276TIP3    H128243   2.988   6.207  14.307  0.8514  2.0098 -0.7499
 2276TIP3    H228244   2.963   6.148  14.169  0.0211 -0.2734  0.3352
 2277TIP3   OH228245   3.643   3.279   1.381 -0.7030 -0.0268  0.0782
 2277TIP3    H128246   3.704   3.249   1.448 -0.9940  0.8239  0.7381
 2277TIP3    H228247   3.558   3.245   1.409 -0.7351 -0.1411 -0.1565
 2278TIP3   OH228248   4.290   2.162   4.704  0.3084  0.1443  0.9185
 2278TIP3    H128249   4.383   2.182   4.720 -0.0196  1.5462  1.2656
 2278TIP3    H228250   4.248   2.180   4.788 -0.4828  1.0217  0.3540
 2279TIP3   OH228251   4.744   4.052   0.932 -0.1215 -0.0425 -0.0495
 2279TIP3    H128252   4.680   4.066   0.861  1.1922 -1.1247 -1.5292
 2279TIP3    H228253   4.692   4.025   1.007 -1.4911  0.2862 -0.8496
 2280TIP3   OH228254   3.193   6.559   3.233 -0.3641 -0.1729  0.7215
 2280TIP3    H128255   3.115   6.539   3.181  0.4026 -0.7247 -0.2352
 2280TIP3    H228256   3.253   6.601   3.172 -0.4136  1.5253  1.7747
 2281TIP3   OH228257   1.701   4.379   2.393 -0.0395  0.3017 -0.1281
 2281TIP3    H128258   1.648   4.439   2.446 -1.3275 -0.5433 -0.3988
 2281TIP3    H228259   1.772   4.353   2.451  0.0795  1.4361  0.2673
 2282TIP3   OH228260   2.514   6.665  16.186 -0.3666 -0.3660 -0.2939
 2282TIP3    H128261   2.600   6.693  16.156  0.3276 -2.4619 -0.4205
 2282TIP3    H228262   2.507   6.699  16.275  1.1775 -1.2928  0.2131
 2283TIP3   OH228263   5.022   6.211  16.595 -0.2689  0.0170  0.7581
 2283TIP3    H128264   5.093   6.218  16.532 -0.1944 -1.2013  0.6783
 2283TIP3    H228265   4.948   6.254  16.553  0.3645  1.1515  0.7749
 2284TIP3   OH228266   4.307   2.057  10.878 -0.2062  0.3027 -0.4593
 2284TIP3    H128267   4.377   1.992  10.871  1.1530  1.6291  0.2603
 2284TIP3    H228268   4.297   2.072  10.972 -0.6942  0.9516 -0.6061
 2285TIP3   OH228269   0.855   6.137   3.864 -0.0137  0.2935 -0.6957
 2285TIP3    H128270   0.903   6.109   3.942 -1.6947 -0.2148  0.2094
 2285TIP3    H228271   0.923   6.150   3.797  1.3567 -0.4002  0.5025
 2286TIP3   OH228272   3.145   1.103  13.857 -0.7166 -0.1075 -0.0835
 2286TIP3    H128273   3.172   1.057  13.777  2.1317  1.9975 -0.4781
 2286TIP3    H228274   3.058   1.138  13.835  0.1119  0.6790 -2.4256
 2287TIP3   OH228275   6.741   1.491  11.312  0.9156  0.4602  0.0970
 2287TIP3    H128276   6.747   1.586  11.322  0.1313  0.4909  0.3396
 2287TIP3    H228277   6.688   1.479  11.232  0.5587  0.2338  0.3639
 2288TIP3   OH228278   0.543   6.536   4.681 -0.5704  0.1002 -0.0212
 2288TIP3    H128279   0.637   6.539   4.696 -0.2886  1.1828 -1.7071
 2288TIP3    H228280   0.515   6.453   4.719  1.1169 -0.3712  0.2548
 2289TIP3   OH228281   6.206   3.286  12.425  0.8042 -0.2459 -0.1871
 2289TIP3    H128282   6.195   3.221  12.355 -0.8107  0.5360 -0.6961
 2289TIP3    H228283   6.128   3.276  12.480  0.8462  0.8197  0.0912
 2290TIP3   OH228284   2.201   0.077  16.381  0.0648  0.5629  0.2213
 2290TIP3    H128285   2.245   0.148  16.335 -1.3238  1.0311 -0.4531
 2290TIP3    H228286   2.179   0.113  16.467 -0.2303  0.8074  0.0449
 2291TIP3   OH228287   6.316   3.989  13.467  0.1630 -0.1793  0.4949
 2291TIP3    H128288   6.374   3.924  13.429  2.5492  1.8286  0.4281
 2291TIP3    H228289   6.316   3.970  13.560  0.2149 -0.7197  0.3878
 2292TIP3   OH228290   3.693   5.130  15.768  0.4727  0.3510  0.5399
 2292TIP3    H128291   3.734   5.064  15.824 -1.8139 -2.9038 -1.3112
 2292TIP3    H228292   3.727   5.112  15.681 -0.3044  1.5998 -0.0477
 2293TIP3   OH228293   4.934   6.431   5.184  0.0963  0.0368 -1.2908
 2293TIP3    H128294   4.875   6.425   5.110  0.4288  2.4433 -1.8243
 2293TIP3    H228295   5.018   6.398   5.151 -0.7512 -3.2040 -0.5843
 2294TIP3   OH228296   2.646   5.405   2.501  0.1829  0.0307 -0.2057
 2294TIP3    H128297   2.702   5.452   2.440 -0.4662 -1.9795 -2.5153
 2294TIP3    H228298   2.674   5.434   2.588  1.9446  2.1426 -1.4058
 2295TIP3   OH228299   3.269   5.247  14.214 -0.4245  0.5484 -0.0274
 2295TIP3    H128300   3.267   5.341  14.228  1.3492  0.5556  0.4907
 2295TIP3    H228301   3.211   5.211  14.281 -0.1904  1.2088  0.5449
 2296TIP3   OH228302   6.357   6.338  11.143  0.1973  0.4124  0.0331
 2296TIP3    H128303   6.351   6.429  11.171  1.5751  0.4353  0.2957
 2296TIP3    H228304   6.450   6.316  11.150  0.4212 -0.0548 -3.0415
 2297TIP3   OH228305   2.885   0.234   4.969 -0.6594 -0.5956 -0.1310
 2297TIP3    H128306   2.864   0.302   5.033 -0.8007  0.3141 -1.1178
 2297TIP3    H228307   2.867   0.152   5.015  0.7577 -0.0385  1.5345
 2298TIP3   OH228308   3.415   3.070   4.215  0.5411  0.4829  0.4860
 2298TIP3    H128309   3.446   2.989   4.174 -1.6687 -0.3661  0.3358
 2298TIP3    H228310   3.378   3.121   4.143  0.2284  0.7823  0.8551
 2299TIP3   OH228311   2.688   0.162  13.506 -0.2393  0.1610 -0.3532
 2299TIP3    H128312   2.616   0.225  13.518 -0.1024  0.3622 -0.5930
 2299TIP3    H228313   2.745   0.176  13.582 -0.4311  0.0263 -0.1820
 2300TIP3   OH228314   0.886   5.094   5.740 -0.0838  0.0417  0.1183
 2300TIP3    H128315   0.890   5.000   5.726 -0.9479  0.0175 -0.0151
 2300TIP3    H228316   0.874   5.105   5.834 -0.2337  0.0135  0.1017
 2301TIP3   OH228317   1.961   1.765  16.703 -0.3238  0.1753 -0.0072
 2301TIP3    H128318   1.880   1.726  16.735 -1.4090  1.6929 -0.7790
 2301TIP3    H228319   2.013   1.781  16.782 -0.8906 -0.5486  0.5227
 2302TIP3   OH228320   1.782   6.348   1.681 -0.5406  0.2120  0.9365
 2302TIP3    H128321   1.712   6.310   1.629 -0.7143  0.0044  1.3224
 2302TIP3    H228322   1.861   6.335   1.629 -0.7888  0.4733  0.4874
 2303TIP3   OH228323   6.231   6.024   3.588  0.0094 -0.1275 -0.0728
 2303TIP3    H128324   6.154   6.053   3.539  0.7058  0.2969 -0.9450
 2303TIP3    H228325   6.195   5.980   3.665 -1.0919  1.4101  0.3437
 2304TIP3   OH228326   5.603   4.579  13.715 -0.1571 -0.0608 -0.3622
 2304TIP3    H128327   5.654   4.647  13.670 -0.1566 -0.4064 -0.8879
 2304TIP3    H228328   5.523   4.624  13.744 -0.0674  0.2085 -0.5290
 2305TIP3   OH228329   3.338   4.931   3.040  0.3619 -0.0616 -0.2827
 2305TIP3    H128330   3.366   4.864   3.103  0.6515  0.9607  0.7175
 2305TIP3    H228331   3.243   4.934   3.050  0.2505 -0.9089 -0.9614
 2306TIP3   OH228332   3.677   5.640   3.923 -0.1146 -0.2201 -1.1947
 2306TIP3    H128333   3.696   5.732   3.940  0.4099 -0.6642  0.9923
 2306TIP3    H228334   3.587   5.628   3.953  0.4484 -0.7871  0.3741
 2307TIP3   OH228335   4.039   0.866  12.647 -0.6562 -0.2315 -0.2447
 2307TIP3    H128336   3.960   0.897  12.691 -1.2192 -2.9404  0.8286
 2307TIP3    H228337   4.054   0.778  12.682  3.4107  0.4805  0.3096
 2308TIP3   OH228338   2.901   4.168  15.659 -0.6426  0.4205  0.5876
 2308TIP3    H128339   2.984   4.192  15.617 -1.2872  2.6231  0.4481
 2308TIP3    H228340   2.905   4.073  15.666  2.1289  0.4634  1.0525
 2309TIP3   OH228341   1.424   5.803  13.993 -0.2288  0.6688 -0.2236
 2309TIP3    H128342   1.502   5.803  14.048  0.5307 -1.4453 -1.1774
 2309TIP3    H228343   1.357   5.763  14.047  0.2328 -0.4323 -0.4354
 2310TIP3   OH228344   5.632   2.203   4.106 -0.3762 -0.0893  0.1144
 2310TIP3    H128345   5.622   2.118   4.150 -0.1672  0.3238  0.9890
 2310TIP3    H228346   5.544   2.224   4.075 -0.8155  0.1886  1.4607
 2311TIP3   OH228347   3.636   2.381  14.215  0.1591 -0.0700  0.0538
 2311TIP3    H128348   3.682   2.459  14.184  0.5654  0.3050  1.5489
 2311TIP3    H228349   3.544   2.400  14.201  0.2692  0.5840  0.2123
 2312TIP3   OH228350   6.142   2.537  12.673 -0.1778 -0.0272 -0.1354
 2312TIP3    H128351   6.165   2.444  12.668  2.2447  0.2106  2.8924
 2312TIP3    H228352   6.156   2.570  12.585 -0.2993 -2.3584 -1.1008
 2313TIP3   OH228353   4.823   6.518   1.734 -0.8804  0.7162  0.3606
 2313TIP3    H128354   4.912   6.496   1.762 -0.3770  2.7576  0.5181
 2313TIP3    H228355   4.771   6.441   1.756  0.2172  0.7231  3.4362
 2314TIP3   OH228356   4.425   6.558  12.142  0.1746  0.1712 -0.1366
 2314TIP3    H128357   4.471   6.638  12.117  0.0442  0.1676 -0.3942
 2314TIP3    H228358   4.450   6.543  12.233 -0.2380  0.8152  0.0858
 2315TIP3   OH228359   0.274   1.913  15.582 -0.0640  0.2452 -0.2936
 2315TIP3    H128360   0.186   1.883  15.604 -0.0449 -0.6927 -1.4279
 2315TIP3    H228361   0.269   2.009  15.589 -0.6719  0.1226  1.3908
 2316TIP3   OH228362   6.386   4.293  15.514 -0.2483 -0.3878 -1.1276
 2316TIP3    H128363   6.452   4.330  15.573  0.2184 -0.3720 -1.6582
 2316TIP3    H228364   6.317   4.359  15.511 -0.6172 -0.7037 -0.0237
 2317TIP3   OH228365   0.509   4.888  11.038 -0.0659  0.4244 -0.2689
 2317TIP3    H128366   0.425   4.850  11.064  1.4352 -3.1075 -0.0518
 2317TIP3    H228367   0.505   4.895  10.943 -0.7894  0.8394 -0.2118
 2318TIP3   OH228368   4.779   6.239   5.844  0.0968  0.2551 -0.5313
 2318TIP3    H128369   4.750   6.288   5.768  3.1242  1.3965 -1.0685
 2318TIP3    H228370   4.875   6.245   5.843  0.4248 -2.2816  1.6653
 2319TIP3   OH228371   6.181   1.588  16.903 -0.1278 -0.1450  0.0215
 2319TIP3    H128372   6.249   1.524  16.924  0.1588 -0.6197 -2.1480
 2319TIP3    H228373   6.099   1.541  16.914  0.0319 -0.5038 -0.2961
 2320TIP3   OH228374   1.302   5.056  13.323 -0.5891  0.4753 -0.4098
 2320TIP3    H128375   1.290   5.082  13.414 -1.8651  0.4175 -0.5463
 2320TIP3    H228376   1.360   4.980  13.328  0.4050  1.2361  0.2346
 2321TIP3   OH228377   4.526   1.724  11.496  0.2899 -0.1845  0.1059
 2321TIP3    H128378   4.595   1.789  11.507  0.1280 -0.0785  0.5551
 2321TIP3    H228379   4.527   1.674  11.579  2.4795 -2.8109 -1.3375
 2322TIP3   OH228380   1.800   5.092  16.368  0.1690 -0.0883  0.0024
 2322TIP3    H128381   1.785   5.020  16.429 -1.5702  0.6592  0.5029
 2322TIP3    H228382   1.764   5.169  16.412  1.8975  1.1213 -0.5576
 2323TIP3   OH228383   5.754   0.743   2.140  0.3886  0.1537 -0.4285
 2323TIP3    H128384   5.696   0.671   2.116  1.0191  0.0823 -1.7948
 2323TIP3    H228385   5.769   0.730   2.234 -2.2277  0.5119  0.1037
 2324TIP3   OH228386   1.137   4.366  14.921 -0.2707  0.5120  0.1050
 2324TIP3    H128387   1.078   4.441  14.930 -0.2701  0.5549 -0.2595
 2324TIP3    H228388   1.086   4.292  14.953 -0.7843  0.4274 -0.8932
 2325TIP3   OH228389   5.860   2.642   1.538  0.1993  0.0651 -0.5887
 2325TIP3    H128390   5.909   2.706   1.486  0.4926 -0.8219 -1.4274
 2325TIP3    H228391   5.845   2.569   1.478 -0.0640 -0.6858  0.3734
 2326TIP3   OH228392   5.359   0.173  16.738 -0.1538  0.3040 -0.1075
 2326TIP3    H128393   5.322   0.243  16.684  0.5857  0.3503 -0.5662
 2326TIP3    H228394   5.285   0.114  16.754 -1.1138  1.7870  1.3227
 2327TIP3   OH228395   6.455   0.407  13.070  0.4147  0.2198  0.9991
 2327TIP3    H128396   6.425   0.483  13.121 -0.1400 -0.0004  1.0091
 2327TIP3    H228397   6.436   0.332  13.126 -2.2039 -0.2312 -0.3604
 2328TIP3   OH228398   1.777   3.496  14.015  0.0745 -0.0674  0.3102
 2328TIP3    H128399   1.811   3.516  13.928 -0.6896 -0.9697 -0.2092
 2328TIP3    H228400   1.786   3.401  14.024  0.0671  0.0057  1.1775
 2329TIP3   OH228401   1.654   5.786  11.599 -0.2576 -0.0256 -0.2335
 2329TIP3    H128402   1.595   5.765  11.527 -0.4279  1.8091 -0.7002
 2329TIP3    H228403   1.732   5.822  11.556  0.7333 -1.3307  0.4187
 2330TIP3   OH228404   5.788   2.866   3.436  0.0367 -0.1211  0.0960
 2330TIP3    H128405   5.840   2.792   3.406  0.3885 -0.4575  1.4441
 2330TIP3    H228406   5.722   2.879   3.368 -0.8848 -2.5532  0.4420
 2331TIP3   OH228407   6.094   5.508   2.973 -0.4530  0.0929 -0.2747
 2331TIP3    H128408   6.039   5.557   3.034  1.0499  0.0223  1.2156
 2331TIP3    H228409   6.040   5.496   2.895 -1.8259  1.7053  0.3828
 2332TIP3   OH228410   0.623   1.748   0.459  0.2210  0.2131  0.2701
 2332TIP3    H128411   0.601   1.775   0.548 -0.3042 -0.3437  0.3221
 2332TIP3    H228412   0.614   1.827   0.406  0.6612  0.5740  0.7317
 2333TIP3   OH228413   1.311   4.322  13.289  0.3150 -0.1167  0.5281
 2333TIP3    H128414   1.303   4.287  13.378 -0.9803 -1.3782 -0.0353
 2333TIP3    H228415   1.221   4.324  13.256  0.6989  1.0022 -0.5149
 2334TIP3   OH228416   1.849   1.251   5.256  0.1269 -0.2791 -0.0479
 2334TIP3    H128417   1.900   1.193   5.199  1.0244  0.5592 -0.1036
 2334TIP3    H228418   1.878   1.339   5.233 -0.1991  0.1184  1.0395
 2335TIP3   OH228419   5.815   0.318   3.913  0.2981 -0.7083  0.3661
 2335TIP3    H128420   5.772   0.310   3.998  0.6908 -0.3354  0.6042
 2335TIP3    H228421   5.747   0.354   3.855  0.2979 -0.0657  0.7537
 2336TIP3   OH228422   2.089   4.746   6.017 -0.4094 -0.1936  0.4825
 2336TIP3    H128423   2.148   4.820   6.002 -0.9597  0.2166  0.3347
 2336TIP3    H228424   2.057   4.759   6.106  1.8398 -1.9175  1.6810
 2337TIP3   OH228425   1.124   3.828   5.721 -0.2216  0.4177  0.2765
 2337TIP3    H128426   1.109   3.908   5.772 -0.5040  0.3624  0.2829
 2337TIP3    H228427   1.198   3.786   5.763 -0.2424  0.5422  0.4380
 2338TIP3   OH228428   6.349   4.774  14.543 -0.4300  0.0027  0.2283
 2338TIP3    H128429   6.356   4.728  14.626  2.2940  0.0272  0.0801
 2338TIP3    H228430   6.429   4.752  14.495 -1.8717  0.0102 -2.4077
 2339TIP3   OH228431   4.660   3.023   3.952  0.4426  0.1126  0.1046
 2339TIP3    H128432   4.677   3.009   3.859 -0.1102 -1.5869  0.2195
 2339TIP3    H228433   4.735   3.074   3.983 -0.7064  3.2097 -1.7829
 2340TIP3   OH228434   1.241   2.100   0.997  0.3107  0.0990  0.0587
 2340TIP3    H128435   1.219   2.193   0.991  0.3152  0.0965 -0.0066
 2340TIP3    H228436   1.287   2.090   1.080  0.4003  0.1737  0.0177
 2341TIP3   OH228437   4.794   5.609   5.110  0.3735  0.0496 -0.2403
 2341TIP3    H128438   4.883   5.615   5.144  0.3337 -0.7853  0.0365
 2341TIP3    H228439   4.765   5.521   5.134 -0.5252  0.3086 -0.3335
 2342TIP3   OH228440   3.251   0.512  15.991 -0.6084  0.2218 -0.0942
 2342TIP3    H128441   3.224   0.420  15.998  0.3972 -0.0113  1.1241
 2342TIP3    H228442   3.332   0.509  15.939 -1.2381  0.5745 -1.1229
 2343TIP3   OH228443   6.335   0.426  16.540 -0.2798  0.0228 -0.6199
 2343TIP3    H128444   6.313   0.518  16.525  0.5196  0.4906  0.8952
 2343TIP3    H228445   6.412   0.428  16.596 -0.7299 -1.5773  0.1265
 2344TIP3   OH228446   5.063   4.496  16.340  0.0587 -0.3852  0.8332
 2344TIP3    H128447   5.120   4.423  16.316 -0.1674 -0.6528  1.0983
 2344TIP3    H228448   5.123   4.567  16.362  0.2652 -0.2016 -0.2896
 2345TIP3   OH228449   5.122   0.848   4.974  0.0110 -0.5725  0.3221
 2345TIP3    H128450   5.217   0.859   4.972 -0.1580  0.9760 -0.2639
 2345TIP3    H228451   5.104   0.821   5.064  1.0767 -1.8881  0.1804
 2346TIP3   OH228452   2.501   0.618  16.745  0.0949 -0.1283  0.1315
 2346TIP3    H128453   2.542   0.670  16.676 -0.1077 -1.9023 -1.3932
 2346TIP3    H228454   2.477   0.682  16.812 -0.2680  1.7477 -1.7006
 2347TIP3   OH228455   3.661   1.410  13.027  0.0916  0.6327  0.0529
 2347TIP3    H128456   3.651   1.358  13.106  0.8746  1.7526  0.9302
 2347TIP3    H228457   3.575   1.405  12.984  0.0517 -1.0634  0.2691
 2348TIP3   OH228458   6.519   3.630  12.801  0.0448 -0.3776  0.6592
 2348TIP3    H128459   6.605   3.597  12.776  1.0872  2.5025  0.1480
 2348TIP3    H228460   6.517   3.622  12.897  1.1054  0.0391  0.7248
 2349TIP3   OH228461   1.006   0.638   3.375  0.3747  0.7040 -0.2898
 2349TIP3    H128462   1.078   0.697   3.396 -1.0411  2.0102  1.1657
 2349TIP3    H228463   0.990   0.589   3.456  0.2563 -0.3016 -0.8963
 2350TIP3   OH228464   1.029   3.302  13.351  0.2440 -0.5378 -0.4588
 2350TIP3    H128465   1.107   3.354  13.329  1.9450 -1.8537  1.9278
 2350TIP3    H228466   0.997   3.341  13.432 -0.6110 -1.0542 -0.5409
 2351TIP3   OH228467   5.184   4.330   5.539 -0.3085 -0.3666 -0.0306
 2351TIP3    H128468   5.151   4.415   5.511 -1.2010 -0.4574  0.6721
 2351TIP3    H228469   5.154   4.322   5.630 -1.2576 -1.9206 -0.4402
 2352TIP3   OH228470   2.943   4.740  13.802 -0.2672  0.4210 -0.5542
 2352TIP3    H128471   3.029   4.714  13.768  0.4070 -0.3224  1.5488
 2352TIP3    H228472   2.881   4.701  13.740  0.8679 -1.6493 -0.5109
 2353TIP3   OH228473   2.143   5.097  11.910  0.1173  0.0077 -0.9083
 2353TIP3    H128474   2.112   5.023  11.857  0.8364  1.4278 -3.4736
 2353TIP3    H228475   2.225   5.066  11.949 -1.1464 -1.5587  0.6657
 2354TIP3   OH228476   0.721   0.693   3.527  0.0220  0.2082  0.1216
 2354TIP3    H128477   0.740   0.657   3.614 -1.8550  0.7275  0.8031
 2354TIP3    H228478   0.629   0.721   3.532 -0.0927  0.4017 -1.9904
 2355TIP3   OH228479   3.592   3.829  13.088 -0.0464 -0.1523 -0.2223
 2355TIP3    H128480   3.633   3.883  13.156 -1.2157 -0.9958  1.1909
 2355TIP3    H228481   3.638   3.745  13.093 -0.2188 -0.2571 -0.3986
 2356TIP3   OH228482   4.562   1.631  15.790  0.3788 -1.1485  0.3808
 2356TIP3    H128483   4.562   1.600  15.699  0.3907 -2.1785  0.7256
 2356TIP3    H228484   4.640   1.591  15.829  0.3818 -0.6960  0.8449
 2357TIP3   OH228485   3.345   5.423   2.135 -0.6626 -0.2392 -0.7834
 2357TIP3    H128486   3.266   5.374   2.159 -0.5305 -0.6104 -1.0974
 2357TIP3    H228487   3.414   5.385   2.190 -0.3441 -1.1394 -1.7697
 2358TIP3   OH228488   5.153   4.463   6.085  0.0528  0.2984  0.4837
 2358TIP3    H128489   5.098   4.420   6.150  0.2516  0.3399  0.6795
 2358TIP3    H228490   5.242   4.453   6.118 -0.0351  2.9242  1.7539
 2359TIP3   OH228491   2.301   5.269  15.261 -0.0528 -0.0140 -0.0515
 2359TIP3    H128492   2.215   5.284  15.300  0.1319  0.1445  0.2990
 2359TIP3    H228493   2.342   5.204  15.318 -0.1344 -0.4638 -0.5046
 2360TIP3   OH228494   0.215   3.269   1.741  0.1168 -0.9161 -0.4977
 2360TIP3    H128495   0.251   3.267   1.830 -1.0268 -0.1145  0.0098
 2360TIP3    H228496   0.288   3.244   1.685  0.9844 -0.9866  0.6286
 2361TIP3   OH228497   3.113   3.752  15.014  0.6231  0.4877  0.4450
 2361TIP3    H128498   3.100   3.692  15.087  0.0850 -1.2832 -1.0144
 2361TIP3    H228499   3.208   3.753  15.001  0.7440  1.0136  1.3040
 2362TIP3   OH228500   5.722   3.700  11.437 -0.3874  0.3946 -0.4585
 2362TIP3    H128501   5.675   3.772  11.395 -2.3916  1.0171  2.5579
 2362TIP3    H228502   5.767   3.741  11.512  0.9510 -1.0432 -0.4226
 2363TIP3   OH228503   4.399   0.198   2.432 -0.1153 -0.4243 -0.4378
 2363TIP3    H128504   4.331   0.188   2.365  0.1707  0.4525 -0.8674
 2363TIP3    H228505   4.473   0.236   2.385 -0.2521  1.1799  0.5624
 2364TIP3   OH228506   3.823   5.642   3.285  0.6788 -0.1823  0.0953
 2364TIP3    H128507   3.768   5.656   3.362  2.1438 -1.2770  1.4109
 2364TIP3    H228508   3.886   5.714   3.288  0.0365  0.4402 -0.7808
 2365TIP3   OH228509   6.169   5.333  11.966 -0.0134  0.5104 -0.1414
 2365TIP3    H128510   6.107   5.260  11.958  0.8607 -0.1108 -1.6716
 2365TIP3    H228511   6.250   5.300  11.927  1.0528  1.5878  1.0898
 2366TIP3   OH228512   0.291   3.186   2.985 -0.2446 -0.2225 -0.6632
 2366TIP3    H128513   0.373   3.171   3.031  0.5785  1.8370 -1.3436
 2366TIP3    H228514   0.261   3.099   2.961  1.8571 -1.0363 -0.5744
 2367TIP3   OH228515   5.111   2.686   2.374  0.0989  0.0824 -0.3730
 2367TIP3    H128516   5.084   2.770   2.336 -0.2383 -1.1491 -3.1111
 2367TIP3    H228517   5.074   2.688   2.462  0.2105  2.8376 -0.2763
 2368TIP3   OH228518   6.015   5.033   1.227 -0.7734  0.2358 -0.4153
 2368TIP3    H128519   6.006   5.103   1.163  0.1673  1.2800  0.5593
 2368TIP3    H228520   5.968   4.959   1.189 -1.4282  1.2643 -1.6512
 2369TIP3   OH228521   0.059   5.884  13.690  0.2897  0.0860  0.8010
 2369TIP3    H128522   0.141   5.837  13.676  1.7763  2.4294  1.0927
 2369TIP3    H228523   0.051   5.890  13.785 -1.1070 -1.5000  0.8206
 2370TIP3   OH228524   0.663   0.478  16.429 -0.2935  0.0883  1.1608
 2370TIP3    H128525   0.577   0.518  16.441 -0.7343 -0.2259 -0.6598
 2370TIP3    H228526   0.652   0.417  16.357  1.3379 -0.3669  1.2372
 2371TIP3   OH228527   5.864   4.820  17.290  0.1089  0.0964 -0.2976
 2371TIP3    H128528   5.912   4.765  17.352 -0.3157  2.2821  2.1050
 2371TIP3    H228529   5.932   4.856  17.233  0.6095 -1.1926 -0.5653
 2372TIP3   OH228530   1.221   4.392   1.328  0.0877  0.1430 -0.2045
 2372TIP3    H128531   1.285   4.360   1.392 -1.4249 -1.6301  0.5120
 2372TIP3    H228532   1.203   4.482   1.356  1.4071  0.2957  0.2388
 2373TIP3   OH228533   3.794   6.273   2.646 -0.0408 -0.0327 -0.1065
 2373TIP3    H128534   3.789   6.206   2.578  1.8118 -2.5478  2.0414
 2373TIP3    H228535   3.881   6.310   2.637 -0.2419  0.5047  0.1197
 2374TIP3   OH228536   6.098   5.539   4.231 -0.6974 -0.4550 -0.3994
 2374TIP3    H128537   6.108   5.549   4.136 -1.5598 -0.2386 -0.4706
 2374TIP3    H228538   6.152   5.610   4.268  1.1528 -1.6518 -0.6504
 2375TIP3   OH228539   2.563   6.576  14.794  0.0333 -0.2566 -0.2585
 2375TIP3    H128540   2.564   6.600  14.887  0.3519  0.4451 -0.4341
 2375TIP3    H228541   2.602   6.488  14.792  0.1001 -0.2440  0.2611
 2376TIP3   OH228542   6.302   0.686  13.523  0.1561 -0.0148 -0.0483
 2376TIP3    H128543   6.270   0.769  13.558  0.7672  0.1004  0.2662
 2376TIP3    H228544   6.318   0.631  13.600 -0.6034 -0.5635 -0.2775
 2377TIP3   OH228545   4.143   3.080  11.969 -0.0281 -0.4039 -0.0237
 2377TIP3    H128546   4.084   3.154  11.959 -0.6346 -0.8921 -0.1368
 2377TIP3    H228547   4.187   3.073  11.885 -0.6051 -0.6976 -0.3082
 2378TIP3   OH228548   5.154   0.902   1.877 -0.6171 -0.2296  0.2293
 2378TIP3    H128549   5.105   0.853   1.944 -0.0547 -0.8225  0.2142
 2378TIP3    H228550   5.183   0.981   1.923 -0.9700 -0.2173  0.4415
 2379TIP3   OH228551   0.951   5.352  14.457 -0.3026 -0.2958  0.2820
 2379TIP3    H128552   0.878   5.412  14.473 -0.2732 -0.5338  1.3365
 2379TIP3    H228553   0.926   5.304  14.377 -1.1861 -0.2025  0.4989
 2380TIP3   OH228554   6.615   4.570   4.245 -0.2624  0.5576 -0.3051
 2380TIP3    H128555   6.566   4.524   4.177  1.4959  0.2203 -1.4273
 2380TIP3    H228556   6.558   4.569   4.321 -1.3185 -1.2600 -1.0547
 2381TIP3   OH228557   6.214   0.172  12.820 -0.5081  0.3087 -0.6417
 2381TIP3    H128558   6.281   0.238  12.803  0.0187 -0.5049 -1.9355
 2381TIP3    H228559   6.261   0.089  12.818 -1.5289 -0.2751 -1.5295
 2382TIP3   OH228560   2.146   4.144   3.911 -0.2225 -0.8164 -0.7250
 2382TIP3    H128561   2.212   4.081   3.942 -0.4996 -1.2007 -0.9028
 2382TIP3    H228562   2.070   4.089   3.889 -0.6073 -0.3777 -0.5008
 2383TIP3   OH228563   0.299   4.957  10.639 -0.1555  0.2003  0.4663
 2383TIP3    H128564   0.214   4.912  10.636  0.4931 -1.1385 -2.9874
 2383TIP3    H228565   0.288   5.032  10.580  1.0352 -0.0361 -0.0882
 2384TIP3   OH228566   6.575   5.531  16.695  0.0383 -0.5250 -0.5632
 2384TIP3    H128567   6.575   5.575  16.610 -0.6999  0.9948  0.1732
 2384TIP3    H228568   6.506   5.575  16.744  1.0457 -0.7613  1.1372
 2385TIP3   OH228569   4.322   0.642   4.554 -0.0319 -0.0051 -0.2387
 2385TIP3    H128570   4.378   0.636   4.477 -0.1817  0.4838 -0.3913
 2385TIP3    H228571   4.265   0.717   4.536 -0.8819 -0.6206 -0.1811
 2386TIP3   OH228572   5.986   2.435   4.743 -0.8374 -0.4766 -0.1654
 2386TIP3    H128573   6.058   2.492   4.716  0.5214 -1.8737  0.3641
 2386TIP3    H228574   5.968   2.381   4.665  2.0252 -3.4228  0.9783
 2387TIP3   OH228575   6.206   1.523   0.065  0.2909  0.1163 -0.3995
 2387TIP3    H128576   6.237   1.558   0.148  1.4783  0.6959 -1.0668
 2387TIP3    H228577   6.112   1.511   0.078  0.9577 -4.2341  2.6226
 2388TIP3   OH228578   6.444   5.370  15.434 -0.7630 -0.2468  0.3413
 2388TIP3    H128579   6.535   5.369  15.404 -0.3312  0.2659  1.5850
 2388TIP3    H228580   6.441   5.438  15.500 -2.5401  1.1367 -1.0599
 2389TIP3   OH228581   0.117   4.491   2.338  0.0309  0.4010 -0.1186
 2389TIP3    H128582   0.181   4.464   2.272  0.5742  0.3872  0.4176
 2389TIP3    H228583   0.149   4.574   2.371  1.0663 -0.7161  1.8506
 2390TIP3   OH228584   2.903   0.409   3.393 -0.0559 -0.0150 -0.6745
 2390TIP3    H128585   2.856   0.351   3.335 -0.3071  0.7731 -1.2797
 2390TIP3    H228586   2.857   0.402   3.477 -0.5599 -0.0985 -0.9538
 2391TIP3   OH228587   6.406   2.136  14.516 -0.4877  0.1055  0.2921
 2391TIP3    H128588   6.387   2.161  14.606  0.6540 -1.4150  1.0025
 2391TIP3    H228589   6.488   2.088  14.521 -0.7241 -0.5727 -1.4783
 2392TIP3   OH228590   4.986   0.157  15.280 -0.5192  0.4262  0.0297
 2392TIP3    H128591   4.957   0.106  15.357  1.1862  1.9520  1.7720
 2392TIP3    H228592   5.059   0.106  15.245 -1.3810 -0.3400 -0.7276
 2393TIP3   OH228593   6.236   3.895   5.008  0.2752  0.1863  0.4714
 2393TIP3    H128594   6.329   3.916   4.997  0.8880 -1.2675  2.3819
 2393TIP3    H228595   6.215   3.843   4.930  1.3017 -0.1816  0.4152
 2394TIP3   OH228596   5.345   4.648  12.996 -0.0893  0.0262  0.1624
 2394TIP3    H128597   5.266   4.618  12.951  0.9822 -1.4020 -0.8310
 2394TIP3    H228598   5.415   4.638  12.932  0.8487  1.7324  0.8633
 2395TIP3   OH228599   1.923   2.061   3.989  0.1961  0.1870 -0.6613
 2395TIP3    H128600   1.927   1.965   3.992  1.1621  0.1592  3.3143
 2395TIP3    H228601   1.966   2.085   3.907  1.7772 -2.7524 -0.8227
 2396TIP3   OH228602   1.789   0.498   0.918 -0.0183 -0.4267 -0.0316
 2396TIP3    H128603   1.870   0.548   0.907 -0.2570 -0.1629 -0.6646
 2396TIP3    H228604   1.800   0.454   1.002  0.7019 -0.2467 -0.0163
 2397TIP3   OH228605   4.050   3.405   3.291 -0.4397 -0.7608 -0.3068
 2397TIP3    H128606   4.014   3.347   3.224  1.8753 -3.2498  0.3992
 2397TIP3    H228607   4.121   3.354   3.331  0.3317  1.7990  1.9062
 2398TIP3   OH228608   1.963   6.352  12.822 -0.4658  0.2743 -0.0093
 2398TIP3    H128609   1.962   6.359  12.726 -1.4278 -0.0860 -0.0310
 2398TIP3    H228610   1.937   6.261  12.840 -0.5890  0.4267  0.5998
 2399TIP3   OH228611   2.035   3.244  13.175  0.0956  0.3848 -0.5301
 2399TIP3    H128612   1.948   3.278  13.195  0.1997  1.1884 -1.3848
 2399TIP3    H228613   2.073   3.223  13.261  0.6021  3.8758  0.2695
 2400TIP3   OH228614   1.885   0.136  14.406  0.0896  0.5762 -0.8638
 2400TIP3    H128615   1.859   0.228  14.413 -0.1683  0.6966 -2.8853
 2400TIP3    H228616   1.803   0.088  14.393  0.2161  0.0391  0.2269
 2401TIP3   OH228617   5.497   1.499  11.164  0.8405 -0.2810 -0.0212
 2401TIP3    H128618   5.403   1.499  11.145  0.7679 -2.4814  0.0819
 2401TIP3    H228619   5.538   1.508  11.078  0.5443  0.2695 -0.1102
 2402TIP3   OH228620   5.081   1.793   0.684  0.0435  0.1181 -1.1394
 2402TIP3    H128621   5.076   1.710   0.638  2.5857 -0.5920 -0.2890
 2402TIP3    H228622   5.019   1.785   0.757  2.2350 -2.2708  0.6460
 2403TIP3   OH228623   4.897   0.127   4.568 -0.0121  0.5072 -0.4358
 2403TIP3    H128624   4.961   0.062   4.540  0.1728  0.8316 -0.7797
 2403TIP3    H228625   4.950   0.202   4.598 -0.2262  0.8438 -0.8853
 2404TIP3   OH228626   0.141   6.282   2.033 -0.0705  0.0840 -0.4456
 2404TIP3    H128627   0.225   6.307   1.996 -0.2574  0.9036 -0.3171
 2404TIP3    H228628   0.137   6.327   2.118  0.2028 -1.4837  0.4441
 2405TIP3   OH228629   3.967   5.448  15.769 -0.3864 -0.5818  0.3005
 2405TIP3    H128630   3.952   5.531  15.814  0.6270  0.0422 -0.4487
 2405TIP3    H228631   3.983   5.474  15.678  0.9461 -1.4895  0.2484
 2406TIP3   OH228632   2.708   1.985   0.236  0.4066 -0.4792 -0.0675
 2406TIP3    H128633   2.768   2.048   0.198  0.2934  0.5813  1.4509
 2406TIP3    H228634   2.673   1.937   0.161  0.0607  1.6494 -1.3345
 2407TIP3   OH228635   1.423   2.311  13.980 -0.0841  0.7709 -0.2866
 2407TIP3    H128636   1.478   2.386  13.958  0.3408  0.5520  0.0137
 2407TIP3    H228637   1.344   2.349  14.018  0.6330  1.0346  0.9907
 2408TIP3   OH228638   0.258   0.417  13.123  0.1376 -0.3182 -0.2861
 2408TIP3    H128639   0.339   0.378  13.090 -0.0994 -0.4811 -0.6865
 2408TIP3    H228640   0.240   0.490  13.063  0.1111 -0.1388 -0.0603
 2409TIP3   OH228641   4.945   6.540  12.950  0.1162 -0.0344  0.0146
 2409TIP3    H128642   5.034   6.508  12.967  0.4715  0.6681 -0.4606
 2409TIP3    H228643   4.902   6.469  12.903  0.5102 -0.2824  0.0266
 2410TIP3   OH228644   1.185   2.064   4.250  0.2180 -0.4169  1.2744
 2410TIP3    H128645   1.258   2.002   4.250  0.8239  0.2710  1.3946
 2410TIP3    H228646   1.227   2.149   4.232 -1.0998 -0.5728 -4.3667
 2411TIP3   OH228647   0.007   4.034  15.362  0.7209 -0.4676  0.0909
 2411TIP3    H128648   0.059   4.113  15.348 -0.8094  0.1924 -2.4830
 2411TIP3    H228649   0.067   3.962  15.341  0.9920  0.2143 -1.6292
 2412TIP3   OH228650   3.916   0.454   0.043  0.2810  0.5679  0.4103
 2412TIP3    H128651   3.857   0.394   0.088  0.2826  0.1856 -0.0978
 2412TIP3    H228652   3.881   0.541   0.063  0.5584  0.4399  1.5500
 2413TIP3   OH228653   4.957   3.217   3.212 -0.2992 -0.1863  0.4808
 2413TIP3    H128654   4.972   3.282   3.144 -1.7276  0.9458  1.1980
 2413TIP3    H228655   4.967   3.265   3.294  1.6927 -1.5857  1.1452
 2414TIP3   OH228656   5.953   3.278  13.860  0.5112 -0.2091 -0.2831
 2414TIP3    H128657   5.871   3.232  13.840  0.1088  1.2020 -2.1772
 2414TIP3    H228658   5.928   3.370  13.861  1.6666  0.1210  1.4691
 2415TIP3   OH228659   6.027   5.061  17.136  0.4451 -0.4635 -0.0584
 2415TIP3    H128660   6.086   5.123  17.094 -0.9469 -0.2691 -1.8696
 2415TIP3    H228661   5.942   5.077  17.094  0.1825 -4.0960 -1.2434
 2416TIP3   OH228662   2.217   1.104  11.748 -0.0391 -0.2693  0.1060
 2416TIP3    H128663   2.156   1.175  11.728  1.6800  1.9403  2.1795
 2416TIP3    H228664   2.296   1.126  11.698  0.8593 -0.1113  1.5433
 2417TIP3   OH228665   2.924   6.625  16.050 -0.1621 -0.1833  0.3159
 2417TIP3    H128666   2.886   6.555  16.102 -0.0990  0.0681  0.7082
 2417TIP3    H228667   2.856   6.692  16.046 -1.3425 -1.3928 -2.4742
 2418TIP3   OH228668   1.254   5.532   2.869  0.4443 -0.0162  0.1097
 2418TIP3    H128669   1.301   5.581   2.936 -0.3355  0.8322  0.0554
 2418TIP3    H228670   1.229   5.450   2.912  1.2884 -0.1548  0.3631
 2419TIP3   OH228671   4.533   4.273   3.820  0.2301  0.2341 -0.2792
 2419TIP3    H128672   4.608   4.263   3.879 -1.0369 -0.9380  1.2308
 2419TIP3    H228673   4.491   4.355   3.848 -0.0563 -0.0399  0.1145
 2420TIP3   OH228674   0.758   0.514  11.286  0.0078 -0.0832  0.3776
 2420TIP3    H128675   0.794   0.531  11.198 -0.9516 -1.7983 -0.3957
 2420TIP3    H228676   0.830   0.537  11.345  0.8104  0.7809 -0.8632
 2421TIP3   OH228677   6.629   4.098  10.873 -0.1210  0.0302  0.7274
 2421TIP3    H128678   6.555   4.066  10.823  1.4248  0.4752 -2.0840
 2421TIP3    H228679   6.695   4.029  10.867  0.2456  0.2549  1.8724
 2422TIP3   OH228680   3.989   1.405  14.907 -0.0416  0.1663  0.3506
 2422TIP3    H128681   4.038   1.352  14.970 -1.3043  0.7060  1.8532
 2422TIP3    H228682   3.930   1.343  14.865  1.5744 -0.4158 -1.2037
 2423TIP3   OH228683   3.410   6.042   5.610 -0.0523 -0.4986 -0.3441
 2423TIP3    H128684   3.317   6.019   5.604 -0.2265 -1.4721  3.4654
 2423TIP3    H228685   3.456   5.957   5.608  0.5648 -0.1768 -0.0208
 2424TIP3   OH228686   2.537   4.547   1.055 -0.3717 -0.2244  0.3023
 2424TIP3    H128687   2.468   4.481   1.057 -1.7636  1.0446 -1.7504
 2424TIP3    H228688   2.529   4.593   1.138 -1.0317 -1.0398  0.7022
 2425TIP3   OH228689   0.933   4.964  13.079 -0.2948  0.0541 -0.5712
 2425TIP3    H128690   0.890   5.028  13.022 -0.7060 -0.4905 -0.8812
 2425TIP3    H228691   0.965   4.896  13.019  0.9281  0.4009 -0.3370
 2426TIP3   OH228692   1.273   6.141   2.206 -0.7497 -0.5929  0.0488
 2426TIP3    H128693   1.181   6.162   2.220 -1.1318 -2.1804  0.0833
 2426TIP3    H228694   1.276   6.045   2.201  1.1175 -0.6979  1.6651
 2427TIP3   OH228695   3.731   3.777  12.821 -0.6945  0.2953  0.1987
 2427TIP3    H128696   3.721   3.740  12.909  0.8272  1.0790  0.7227
 2427TIP3    H228697   3.744   3.870  12.835  1.6869  0.1526 -0.6827
 2428TIP3   OH228698   3.514   5.035   4.402  0.7538  0.0369 -0.0047
 2428TIP3    H128699   3.589   5.094   4.401  0.0125  1.0356  0.5279
 2428TIP3    H228700   3.475   5.048   4.489 -0.7580  0.5024 -0.7142
 2429TIP3   OH228701   4.037   6.461   5.261  0.4711 -0.2856 -0.3673
 2429TIP3    H128702   4.037   6.556   5.270 -0.3769 -0.1350 -1.7008
 2429TIP3    H228703   4.102   6.443   5.193  2.5453 -0.9050  1.6719
 2430TIP3   OH228704   6.751   2.849   3.413  0.0786  0.3022 -0.1097
 2430TIP3    H128705   6.787   2.922   3.362 -1.1495  0.8749 -0.2052
 2430TIP3    H228706   6.712   2.891   3.490 -0.4497 -0.2724 -0.0533
 2431TIP3   OH228707   3.309   2.619  13.128  0.0292  0.5849  0.6732
 2431TIP3    H128708   3.378   2.626  13.194 -1.0921  0.4270  1.9091
 2431TIP3    H228709   3.256   2.697  13.141 -0.0227  0.7212 -0.2903
 2432TIP3   OH228710   2.750   6.644  17.122  0.1448 -0.1076  0.2229
 2432TIP3    H128711   2.760   6.569  17.180 -0.1509 -0.6859 -0.4532
 2432TIP3    H228712   2.803   6.622  17.045 -0.3721  0.1312 -0.2102
 2433TIP3   OH228713   1.032   4.055   3.924  0.3493  0.2301  0.0821
 2433TIP3    H128714   1.066   4.108   3.996  1.2855  0.9262 -0.8580
 2433TIP3    H228715   1.037   3.965   3.956  2.6412  0.3369  0.1727
 2434TIP3   OH228716   2.146   6.703  14.817 -0.1449 -0.2952 -0.2923
 2434TIP3    H128717   2.163   6.723  14.725 -0.8572  0.4683 -0.2628
 2434TIP3    H228718   2.148   6.787  14.861  0.1752 -0.6580  0.3989
 2435TIP3   OH228719   0.355   6.746  12.934  0.1318  0.0721  0.7549
 2435TIP3    H128720   0.437   6.704  12.961  0.3833  0.1564  0.1341
 2435TIP3    H228721   0.367   6.765  12.841 -1.4509 -1.9092  0.0799
 2436TIP3   OH228722   4.507   3.159  11.452 -0.4405 -0.1409  0.3191
 2436TIP3    H128723   4.415   3.152  11.426 -0.5344 -1.4417  0.9233
 2436TIP3    H228724   4.556   3.119  11.379 -0.5646 -1.9223  1.1679
 2437TIP3   OH228725   0.434   5.778  13.251 -0.4629  0.6484 -0.0981
 2437TIP3    H128726   0.498   5.735  13.193 -1.0036  2.3341 -2.0675
 2437TIP3    H228727   0.358   5.721  13.249 -0.2915  0.4284 -0.6601
 2438TIP3   OH228728   1.017   1.226   6.081  0.4548  0.1221 -0.0300
 2438TIP3    H128729   1.019   1.208   6.175  1.9350 -2.0159 -0.3801
 2438TIP3    H228730   0.956   1.161   6.045  1.2302 -0.2522 -0.7166
 2439TIP3   OH228731   3.252   5.164  16.770 -0.5049  0.6415 -0.3687
 2439TIP3    H128732   3.308   5.089  16.792  0.2944  1.2295 -0.3387
 2439TIP3    H228733   3.208   5.186  16.853 -1.5157 -0.4016 -0.6071
 2440TIP3   OH228734   5.433   1.337   0.429  0.0702 -0.2708  0.2101
 2440TIP3    H128735   5.349   1.382   0.437  0.1862  0.2708 -1.2203
 2440TIP3    H228736   5.461   1.356   0.339  0.8779 -1.9205  0.0877
 2441TIP3   OH228737   1.444   5.294   0.929  0.2638  0.1532  0.2487
 2441TIP3    H128738   1.505   5.282   1.002  0.8024  0.5958 -0.1132
 2441TIP3    H228739   1.466   5.381   0.894 -1.0010  0.5960  0.5003
 2442TIP3   OH228740   5.332   6.538  13.250  0.1530  0.4674 -0.0005
 2442TIP3    H128741   5.387   6.566  13.323  1.5858  0.3404 -0.9924
 2442TIP3    H228742   5.243   6.538  13.286  0.8493  0.0395  1.8467
 2443TIP3   OH228743   4.164   0.096   2.289 -0.3132 -1.4178 -0.1305
 2443TIP3    H128744   4.179   0.123   2.199 -1.1680 -0.8467 -0.1208
 2443TIP3    H228745   4.071   0.115   2.304 -0.2365 -1.7254  0.7900
 2444TIP3   OH228746   3.521   0.990  12.869  0.3785 -0.0368 -0.0090
 2444TIP3    H128747   3.492   0.909  12.829 -1.0731  0.0146  0.8773
 2444TIP3    H228748   3.518   1.055  12.799 -0.3884 -0.3306 -0.2527
 2445TIP3   OH228749   1.478   3.825   2.793 -0.2735  0.0271 -0.0181
 2445TIP3    H128750   1.546   3.887   2.820  1.4113 -1.3370 -0.9280
 2445TIP3    H228751   1.476   3.760   2.863 -0.3868 -0.1236 -0.1627
 2446TIP3   OH228752   6.515   4.154  16.426 -0.0161  0.1784 -0.1253
 2446TIP3    H128753   6.433   4.123  16.386 -0.5712  0.7381  0.5424
 2446TIP3    H228754   6.582   4.096  16.390 -0.9541 -1.6071  0.8551
 2447TIP3   OH228755   0.992   2.678   4.582 -0.3813  0.2468 -0.0811
 2447TIP3    H128756   0.965   2.652   4.494  0.0985 -0.4452 -0.0289
 2447TIP3    H228757   0.972   2.603   4.637  0.4597  0.2016  0.1796
 2448TIP3   OH228758   5.741   6.611   3.694  0.1255  0.3497 -0.3247
 2448TIP3    H128759   5.691   6.692   3.692 -1.4735 -0.5840 -0.2472
 2448TIP3    H228760   5.823   6.632   3.650  0.2794  2.3169  0.8174
 2449TIP3   OH228761   3.110   6.705  17.058  0.4613  0.8038  0.3796
 2449TIP3    H128762   3.103   6.702  17.154 -0.5141  1.8596  0.3582
 2449TIP3    H228763   3.204   6.720  17.043  1.1256 -2.0262  1.0372
 2450TIP3   OH228764   4.585   2.442   0.816 -0.0159  0.3074  0.2585
 2450TIP3    H128765   4.671   2.441   0.858  0.1034 -0.2254  0.0060
 2450TIP3    H228766   4.528   2.394   0.876  0.1181 -0.3111 -0.0998
 2451TIP3   OH228767   4.067   2.452  12.912  0.2695 -0.4486 -0.3125
 2451TIP3    H128768   4.152   2.407  12.904 -0.4870 -1.7366 -1.5330
 2451TIP3    H228769   4.070   2.520  12.845  0.1863 -0.7603 -0.6351
 2452TIP3   OH228770   1.909   0.564  12.927 -0.4296 -0.1259  0.0439
 2452TIP3    H128771   1.844   0.561  12.857 -0.3626 -0.2716 -0.0134
 2452TIP3    H228772   1.993   0.550  12.883 -0.4889 -1.3230  0.2817
 2453TIP3   OH228773   5.361   1.179  15.699  0.2672 -0.0872  0.3055
 2453TIP3    H128774   5.456   1.170  15.700  0.1594 -2.4102 -1.4196
 2453TIP3    H228775   5.328   1.089  15.705 -1.8626  0.6839  1.4071
 2454TIP3   OH228776   5.758   1.883   5.856  0.6037 -0.2146  0.2841
 2454TIP3    H128777   5.756   1.956   5.918 -0.4528 -0.2672  0.3331
 2454TIP3    H228778   5.678   1.833   5.875 -0.6569  0.7104 -2.2319
 2455TIP3   OH228779   2.266   4.755   0.464  0.0937 -0.3744  0.3988
 2455TIP3    H128780   2.269   4.696   0.540 -2.4365  0.7305  1.4918
 2455TIP3    H228781   2.299   4.703   0.392  0.2540 -2.3169  1.7911
 2456TIP3   OH228782   2.786   1.654   0.272 -0.2524 -0.0243 -0.5362
 2456TIP3    H128783   2.867   1.673   0.224 -0.3720 -0.0683 -0.7548
 2456TIP3    H228784   2.757   1.739   0.305  0.7275 -0.2138  0.8848
 2457TIP3   OH228785   4.952   6.091   0.113 -0.2605  0.9099  0.6717
 2457TIP3    H128786   4.998   6.098   0.197  1.6148  2.2160 -0.3850
 2457TIP3    H228787   5.011   6.039   0.058 -2.0642 -1.0623  0.4877
 2458TIP3   OH228788   0.414   0.027   5.692  0.2348 -0.2706 -0.3358
 2458TIP3    H128789   0.395   0.057   5.781 -0.7369 -3.3537  0.6404
 2458TIP3    H228790   0.360   0.082   5.636 -1.9110 -0.5004  1.3580
 2459TIP3   OH228791   1.654   1.563  16.121 -0.1911 -0.0234 -0.1161
 2459TIP3    H128792   1.707   1.642  16.113  0.9260 -0.3110  2.8617
 2459TIP3    H228793   1.567   1.587  16.090  0.1473  2.3591  0.6285
 2460TIP3   OH228794   2.211   5.034   2.103 -0.1838  0.3275 -0.0523
 2460TIP3    H128795   2.272   5.072   2.167  0.0700 -0.9852  0.5085
 2460TIP3    H228796   2.257   5.041   2.020  0.6727 -0.4712  0.3386
 2461TIP3   OH228797   6.283   1.176   6.451  0.1023 -0.3350  0.1155
 2461TIP3    H128798   6.304   1.254   6.399 -1.1708 -1.2842 -1.9511
 2461TIP3    H228799   6.332   1.188   6.533  1.9098  1.4287 -1.1261
 2462TIP3   OH228800   3.015   2.156   4.079  0.1373 -0.3872  0.4233
 2462TIP3    H128801   3.040   2.139   4.169 -1.1918 -0.7495  0.7374
 2462TIP3    H228802   3.039   2.248   4.064  0.7463 -0.4443  0.9926
 2463TIP3   OH228803   2.510   4.905   4.779 -0.1170 -0.1884  0.6999
 2463TIP3    H128804   2.522   4.999   4.765 -1.6570 -0.2169 -1.2822
 2463TIP3    H228805   2.439   4.899   4.843  0.9482 -0.0402  1.9324
 2464TIP3   OH228806   4.610   3.289   6.673  0.2288  0.5874  0.3078
 2464TIP3    H128807   4.692   3.280   6.624  1.1033  0.4436  1.7447
 2464TIP3    H228808   4.554   3.220   6.639  0.9147  0.3046 -0.2793
 2465TIP3   OH228809   5.008   2.695   1.531  0.1230  0.3153 -0.0086
 2465TIP3    H128810   5.066   2.683   1.456  0.6444  1.9360  0.1100
 2465TIP3    H228811   4.997   2.789   1.539 -0.9676  0.1172  1.1752
 2466TIP3   OH228812   0.298   1.398   6.054 -0.4557  0.2319  0.4591
 2466TIP3    H128813   0.328   1.474   6.105  1.8340 -0.3560  0.0745
 2466TIP3    H228814   0.282   1.330   6.120  0.6961  0.0484  0.5656
 2467TIP3   OH228815   1.023   3.946   2.827 -0.3020 -0.2387  0.0360
 2467TIP3    H128816   0.949   4.005   2.846 -0.6794 -0.9079  0.7359
 2467TIP3    H228817   0.985   3.858   2.834  0.3933 -0.5762 -0.3729
 2468TIP3   OH228818   2.009   4.075  12.313  0.5400 -0.5033  0.7315
 2468TIP3    H128819   2.064   4.105  12.386 -0.9714 -0.3150  1.8486
 2468TIP3    H228820   2.014   3.979  12.317 -0.1914 -0.5224  1.6504
 2469TIP3   OH228821   4.729   2.974   1.518 -0.1789  0.2969  0.0058
 2469TIP3    H128822   4.811   2.970   1.469  0.2376 -1.6994  0.7915
 2469TIP3    H228823   4.753   3.016   1.601  0.1728 -0.7743  0.4512
 2470TIP3   OH228824   3.655   4.698   2.343 -0.2882  0.6933  0.3295
 2470TIP3    H128825   3.658   4.605   2.322 -3.1001  0.8591 -1.3860
 2470TIP3    H228826   3.601   4.703   2.422 -0.3755  0.8490  0.2621
 2471TIP3   OH228827   0.852   3.520  15.923  0.3271  0.0263  0.3039
 2471TIP3    H128828   0.775   3.530  15.867  0.0839  2.8533  0.9816
 2471TIP3    H228829   0.839   3.437  15.968 -1.0624 -0.7460 -1.4123
 2472TIP3   OH228830   5.430   5.489  11.029  0.3021  0.2025 -0.0509
 2472TIP3    H128831   5.490   5.564  11.027  1.1509 -0.3962  1.4765
 2472TIP3    H228832   5.347   5.525  10.998  0.8747  1.6141 -0.0409
 2473TIP3   OH228833   2.309   5.713  15.167  0.0062 -0.0329 -0.5295
 2473TIP3    H128834   2.349   5.634  15.205 -1.0838 -0.5925 -0.5062
 2473TIP3    H228835   2.376   5.780  15.177  0.9191 -0.9209 -0.4329
 2474TIP3   OH228836   4.182   5.007   0.268  0.1282  0.5444  0.1991
 2474TIP3    H128837   4.118   4.936   0.271 -0.2478  0.8537 -0.3602
 2474TIP3    H228838   4.130   5.087   0.272  0.5861  0.8035  1.4817
 2475TIP3   OH228839   6.574   0.976   1.786  0.0721 -0.2985 -0.1232
 2475TIP3    H128840   6.534   0.996   1.702 -0.0756  0.3480  0.0914
 2475TIP3    H228841   6.668   0.975   1.768  0.0235 -0.5723 -0.3738
 2476TIP3   OH228842   5.524   1.883   5.261  0.2705 -0.5805 -0.3007
 2476TIP3    H128843   5.510   1.788   5.257  0.0979 -0.6298  0.9696
 2476TIP3    H228844   5.618   1.892   5.278  0.2369 -0.5388 -0.1347
 2477TIP3   OH228845   4.943   2.859  14.909  0.5585  0.2602 -0.2039
 2477TIP3    H128846   5.029   2.837  14.945 -0.1469  0.2418  1.5746
 2477TIP3    H228847   4.920   2.942  14.950 -0.7527 -0.2944  0.2563
 2478TIP3   OH228848   3.608   1.170   3.379 -0.0555  0.1794  0.5743
 2478TIP3    H128849   3.541   1.179   3.447  0.2801 -0.4670  1.0022
 2478TIP3    H228850   3.658   1.252   3.384 -0.2616  0.2920  0.8496
 2479TIP3   OH228851   0.626   1.253  13.400 -0.0606  0.3925 -0.1650
 2479TIP3    H128852   0.543   1.254  13.354  0.4279 -1.7143 -1.1751
 2479TIP3    H228853   0.602   1.241  13.492 -0.8743 -0.6191 -0.4905
 2480TIP3   OH228854   6.312   1.650  12.628  0.3739 -0.2223  0.0123
 2480TIP3    H128855   6.368   1.722  12.599  0.6721 -0.9317 -1.2236
 2480TIP3    H228856   6.223   1.683  12.620  0.5633  0.7299  1.4846
 2481TIP3   OH228857   4.875   6.587   0.920 -0.0236 -0.0963  0.1954
 2481TIP3    H128858   4.865   6.573   1.014 -0.8105 -0.4468  0.0680
 2481TIP3    H228859   4.948   6.648   0.912 -0.1185  0.1369  1.0474
 2482TIP3   OH228860   5.906   1.550  16.079 -0.1740  0.6881 -0.0252
 2482TIP3    H128861   5.852   1.563  16.000 -0.3300 -2.0233 -0.4641
 2482TIP3    H228862   5.994   1.576  16.052 -0.1704 -0.4595 -1.2422
 2483TIP3   OH228863   0.012   6.653   0.155 -0.2641  0.1181 -0.5719
 2483TIP3    H128864  -0.042   6.591   0.107 -0.6702  0.0377 -0.0243
 2483TIP3    H228865   0.096   6.653   0.109  0.0825 -1.5982  0.0069
 2484TIP3   OH228866   1.983   0.523   1.498 -0.6512 -0.1450 -0.0422
 2484TIP3    H128867   1.982   0.567   1.412  2.4863 -2.9910 -1.8023
 2484TIP3    H228868   1.906   0.466   1.497 -0.5548 -0.2844 -1.1111
 2485TIP3   OH228869   4.199   3.444   2.981  0.0220 -0.4317 -0.6255
 2485TIP3    H128870   4.107   3.470   2.977  0.3176  0.6966 -0.3396
 2485TIP3    H228871   4.207   3.393   3.062  0.1432  1.5576  0.6708
 2486TIP3   OH228872   2.405   1.379   6.448 -0.2786  0.0103 -0.5301
 2486TIP3    H128873   2.347   1.390   6.523  0.3892  1.3703 -0.1740
 2486TIP3    H228874   2.371   1.440   6.382  0.4183  0.4545 -0.5009
 2487TIP3   OH228875   2.780   0.939   5.486  0.2553 -0.8120  0.6259
 2487TIP3    H128876   2.696   0.911   5.449 -0.8989  0.3529  2.2360
 2487TIP3    H228877   2.786   1.032   5.466  2.2129 -1.2833 -1.2946
 2488TIP3   OH228878   3.401   3.011  12.577 -0.4314  0.6938 -0.1061
 2488TIP3    H128879   3.411   2.997  12.483  0.4346 -0.7781  0.1698
 2488TIP3    H228880   3.308   3.030  12.589 -0.9098 -0.7994 -1.1006
 2489TIP3   OH228881   3.032   1.138   6.337  0.6468  0.2253 -0.0100
 2489TIP3    H128882   3.029   1.127   6.432 -0.7264  2.7796  0.3186
 2489TIP3    H228883   3.125   1.140   6.315  0.9829 -1.2865  1.1202
 2490TIP3   OH228884   5.949   0.500   4.072 -0.0476 -0.5517 -0.0752
 2490TIP3    H128885   5.891   0.478   3.998 -3.6397  2.3833  1.5252
 2490TIP3    H228886   5.992   0.581   4.045 -1.1199  0.3514  0.8379
 2491TIP3   OH228887   5.476   0.622   1.011 -0.0732 -0.1201  0.1001
 2491TIP3    H128888   5.484   0.534   1.049  0.9810  0.1083  0.4690
 2491TIP3    H228889   5.386   0.628   0.981  0.4366 -2.2825 -2.2710
 2492TIP3   OH228890   0.166   2.217   0.462  0.4873  0.4716 -0.0366
 2492TIP3    H128891   0.142   2.266   0.383 -2.4310 -0.1725  0.3066
 2492TIP3    H228892   0.223   2.276   0.511  0.6456  1.7301 -1.6560
 2493TIP3   OH228893   4.820   2.907  14.348 -0.0948 -0.5691  0.0885
 2493TIP3    H128894   4.809   2.864  14.263  0.1082  1.3810 -1.0036
 2493TIP3    H228895   4.732   2.939  14.370 -0.3592 -1.9595  1.1677
 2494TIP3   OH228896   4.679   3.531  16.545  0.4702 -0.3122 -0.1008
 2494TIP3    H128897   4.768   3.517  16.578 -0.9537 -2.1280  3.5992
 2494TIP3    H228898   4.626   3.544  16.624 -2.3947  2.3625 -2.2225
 2495TIP3   OH228899   6.713   1.320  16.340  0.0769  0.4020  0.2334
 2495TIP3    H128900   6.644   1.289  16.398 -0.4313 -0.4033 -0.7676
 2495TIP3    H228901   6.669   1.340  16.258  1.1107 -0.9135 -0.6991
 2496TIP3   OH228902   4.669   5.843   3.475 -0.3718  0.0501  0.1305
 2496TIP3    H128903   4.608   5.866   3.545 -0.1133 -1.1806  0.7954
 2496TIP3    H228904   4.618   5.786   3.417 -0.6420  1.2109 -0.8307
 2497TIP3   OH228905   5.241   3.887  12.536 -0.1993  0.4296 -0.8532
 2497TIP3    H128906   5.296   3.925  12.605  2.8419 -1.1546 -2.2048
 2497TIP3    H228907   5.212   3.962  12.484 -0.1865  1.3976  0.4791
 2498TIP3   OH228908   4.570   0.058   6.652 -0.2880  0.5043  0.7704
 2498TIP3    H128909   4.504   0.093   6.592 -0.9383  0.3146  1.3658
 2498TIP3    H228910   4.597   0.132   6.705 -0.1811  0.5337  0.6759
 2499TIP3   OH228911   5.059   4.583   2.096  0.1793 -0.1784  0.0881
 2499TIP3    H128912   5.151   4.589   2.072  0.6246 -0.8133  1.5196
 2499TIP3    H228913   5.031   4.496   2.067  0.4494 -0.5645  0.9626
 2500TIP3   OH228914   1.571   4.855   5.734 -0.1288 -0.6270  0.5609
 2500TIP3    H128915   1.500   4.810   5.780  0.3850 -2.3838 -0.2637
 2500TIP3    H228916   1.529   4.902   5.662 -0.6826  0.2766  1.4553
 2501TIP3   OH228917   0.666   4.309  15.485 -0.6381 -0.0084  0.3564
 2501TIP3    H128918   0.619   4.304  15.568  0.8701  3.1050  1.5771
 2501TIP3    H228919   0.750   4.349  15.509  1.2705 -2.1920 -2.2021
 2502TIP3   OH228920   4.275   5.708  12.997 -0.6014 -0.0483  0.1844
 2502TIP3    H128921   4.200   5.747  13.043 -1.0050  0.7614 -1.1145
 2502TIP3    H228922   4.247   5.618  12.980 -0.9026 -0.0240  0.5211
 2503TIP3   OH228923   4.552   3.334   2.672  0.0965 -0.4146 -0.2622
 2503TIP3    H128924   4.492   3.374   2.735  0.6716  0.8755 -0.4970
 2503TIP3    H228925   4.592   3.261   2.719  0.9591  0.8672  1.0988
 2504TIP3   OH228926   0.992   3.882   0.564  0.1655 -0.3174  0.5496
 2504TIP3    H128927   1.074   3.850   0.527  0.1747  0.1639  0.1390
 2504TIP3    H228928   1.003   3.871   0.658  1.3834  1.2391  0.6477
 2505TIP3   OH228929   5.649   6.053   0.589 -0.7762  0.0411 -0.2764
 2505TIP3    H128930   5.678   6.139   0.619  0.5088  0.2099 -1.8613
 2505TIP3    H228931   5.565   6.039   0.633  0.3770  0.7679  2.3529
 2506TIP3   OH228932   6.456   3.157   0.698  0.1112 -0.2617 -0.5064
 2506TIP3    H128933   6.482   3.185   0.610 -0.3979  0.3786 -0.4595
 2506TIP3    H228934   6.411   3.233   0.735 -0.3681 -0.7880  0.0148
 2507TIP3   OH228935   3.329   1.930  17.293  0.2472 -0.2959  0.5401
 2507TIP3    H128936   3.413   1.886  17.279  0.4377  0.1926  0.0821
 2507TIP3    H228937   3.323   1.993  17.221  0.8112  1.6618  2.1010
 2508TIP3   OH228938   6.109   6.643   0.819  0.2082  0.3421 -0.4540
 2508TIP3    H128939   6.143   6.572   0.765 -1.2402 -1.5601  1.0162
 2508TIP3    H228940   6.184   6.671   0.872  0.3678 -1.3734  0.2642
 2509TIP3   OH228941   0.791   3.587  10.708 -0.3004  0.5671  0.1483
 2509TIP3    H128942   0.867   3.560  10.657  0.6275  0.9765  1.2615
 2509TIP3    H228943   0.743   3.506  10.724 -0.7327  0.4600 -1.5076
 2510TIP3   OH228944   4.125   0.736   0.655  0.0535 -0.0178  0.2119
 2510TIP3    H128945   4.173   0.817   0.670  1.0380 -0.8909  1.9730
 2510TIP3    H228946   4.104   0.703   0.742 -0.6021 -1.4956 -0.4680
 2511TIP3   OH228947   5.060   3.230  12.273  0.2733  0.7828  0.3362
 2511TIP3    H128948   5.137   3.224  12.217 -0.4634 -0.7114 -0.5892
 2511TIP3    H228949   4.991   3.184  12.225 -1.6644  3.3534  0.4145
 2512TIP3   OH228950   4.564   4.145   0.723  0.5821 -0.0837  0.3008
 2512TIP3    H128951   4.469   4.155   0.730  0.6923  0.9445  0.5023
 2512TIP3    H228952   4.583   4.156   0.630  0.4724 -0.5738  0.2215
 2513TIP3   OH228953   2.668   3.052   4.438 -0.2236  0.3447  0.6086
 2513TIP3    H128954   2.738   3.116   4.451 -1.5248  1.7326  1.1762
 2513TIP3    H228955   2.688   2.982   4.500  0.5548  0.8229  0.9204
 2514TIP3   OH228956   3.669   1.408   4.412  0.5464  0.2012 -0.5181
 2514TIP3    H128957   3.716   1.484   4.379 -0.9931  0.8173 -1.4042
 2514TIP3    H228958   3.580   1.440   4.428  0.0597 -1.2409 -0.1862
 2515TIP3   OH228959   5.515   5.958   1.456 -0.5633 -0.1804 -0.5148
 2515TIP3    H128960   5.496   5.980   1.547 -0.1913 -1.2788 -0.1490
 2515TIP3    H228961   5.474   6.028   1.405  0.6860  1.4153  0.5494
 2516TIP3   OH228962   1.026   4.522  13.979 -0.0070  1.1910 -0.3744
 2516TIP3    H128963   0.977   4.565  13.909  1.8487  2.0055 -1.2687
 2516TIP3    H228964   1.114   4.510  13.942  1.6276  3.3492  2.3955
 2517TIP3   OH228965   0.008   6.554   1.569  0.2348  0.1224 -0.3099
 2517TIP3    H128966  -0.020   6.484   1.629  1.2611 -0.8829 -0.9498
 2517TIP3    H228967  -0.073   6.592   1.537 -0.6555 -3.3285 -2.8588
 2518TIP3   OH228968   3.606   4.243   2.022 -0.4208  0.1864 -0.3208
 2518TIP3    H128969   3.511   4.233   2.024 -0.4936  0.9786  0.2966
 2518TIP3    H228970   3.621   4.337   2.020  0.3385  0.0779 -1.7027
 2519TIP3   OH228971   2.759   1.262   4.727 -0.4268  0.2152 -0.5546
 2519TIP3    H128972   2.721   1.287   4.643 -0.1906  0.9833 -0.4463
 2519TIP3    H228973   2.687   1.269   4.789 -0.2082  1.4034 -0.3970
 2520TIP3   OH228974   6.700   5.682   6.067  0.0315 -0.1043  0.2492
 2520TIP3    H128975   6.709   5.739   6.144  1.5659 -1.8931  1.5029
 2520TIP3    H228976   6.621   5.631   6.085 -1.9492  2.1824 -1.3649
 2521TIP3   OH228977   1.990   3.684  14.469  0.3218  0.1559 -0.2238
 2521TIP3    H128978   1.926   3.613  14.478  1.2295 -0.6722 -0.1084
 2521TIP3    H228979   2.015   3.683  14.377 -0.7595  1.3461 -0.5749
 2522TIP3   OH228980   0.617   1.345   4.576 -0.2298 -0.0848 -0.2542
 2522TIP3    H128981   0.650   1.381   4.494 -0.9840  1.6466  0.1535
 2522TIP3    H228982   0.656   1.401   4.644 -0.6335 -0.6697  0.4732
 2523TIP3   OH228983   3.032   0.756  16.370 -0.0858 -0.0971  0.0633
 2523TIP3    H128984   2.964   0.707  16.324  0.2282  1.9787 -2.9036
 2523TIP3    H228985   3.113   0.733  16.325  0.7498 -0.1959  1.5592
 2524TIP3   OH228986   0.403   0.353  11.697  0.0913  0.2140  0.2946
 2524TIP3    H128987   0.381   0.311  11.614  0.4164  0.2836  0.1720
 2524TIP3    H228988   0.318   0.371  11.738 -0.1062  1.0113 -0.4284
 2525TIP3   OH228989   2.894   1.675   3.543  0.5701  0.0959 -0.2833
 2525TIP3    H128990   2.956   1.727   3.492  1.2543 -0.5870 -0.1641
 2525TIP3    H228991   2.947   1.606   3.582 -0.3380 -0.7498 -0.5104
 2526TIP3   OH228992   1.858   2.082   4.976  0.3432 -0.8244 -0.5070
 2526TIP3    H128993   1.913   2.075   5.054  3.5666  1.1735 -2.3515
 2526TIP3    H228994   1.806   2.161   4.991 -0.6736 -1.6449  0.4466
 2527TIP3   OH228995   4.521   2.254   2.878  0.3477  0.2212  0.1049
 2527TIP3    H128996   4.457   2.243   2.948  1.6662  0.3927  1.3952
 2527TIP3    H228997   4.474   2.231   2.798 -1.3045  0.3559  0.9970
 2528TIP3   OH228998   2.790   4.574   5.264 -0.2582 -0.2982  0.6481
 2528TIP3    H128999   2.736   4.613   5.196 -0.1062 -1.6799 -0.3040
 2528TIP3    H229000   2.844   4.646   5.297 -0.3508  0.3970 -0.6742
 2529TIP3   OH229001   6.179   1.597  14.974  0.2313  0.7572 -0.3134
 2529TIP3    H129002   6.126   1.534  14.924  2.2155 -1.6640  0.4021
 2529TIP3    H229003   6.133   1.605  15.058  0.8472 -1.2009  0.2529
 2530TIP3   OH229004   2.650   5.802  14.425 -0.3110  0.4677  0.5378
 2530TIP3    H129005   2.618   5.841  14.344  1.3772  0.7130 -0.0354
 2530TIP3    H229006   2.744   5.817  14.424  0.1932 -2.1221  1.1100
 2531TIP3   OH229007   6.538   5.921  13.010  0.1127  0.1039  0.4349
 2531TIP3    H129008   6.492   5.840  12.986 -0.6872  0.8783 -0.7939
 2531TIP3    H229009   6.549   5.967  12.927 -1.2719  2.1842  1.3173
 2532TIP3   OH229010   2.835   5.718  13.367  0.1973  0.4182 -0.5907
 2532TIP3    H129011   2.845   5.652  13.435  0.3012  0.6872 -0.3410
 2532TIP3    H229012   2.752   5.761  13.387 -0.0448  0.1309 -0.9599
 2533TIP3   OH229013   5.405   4.417  13.483 -0.9192  0.4302  0.5306
 2533TIP3    H129014   5.334   4.434  13.545 -1.1773 -0.4772  0.5029
 2533TIP3    H229015   5.378   4.458  13.402 -0.8930  1.0442  0.8256
 2534TIP3   OH229016   4.469   3.552   1.410  0.4576 -0.1965 -0.3228
 2534TIP3    H129017   4.506   3.640   1.418  0.6270 -0.3385  0.6636
 2534TIP3    H229018   4.539   3.494   1.440 -0.1459 -0.5564  0.4363
 2535TIP3   OH229019   5.268   5.349  16.910 -0.7043  0.1392  0.7424
 2535TIP3    H129020   5.253   5.347  17.004 -1.9365 -0.3848  0.5512
 2535TIP3    H229021   5.198   5.296  16.873  0.3566 -0.5174 -0.4132
 2536TIP3   OH229022   2.417   6.615   4.890  0.0254  0.0248  0.7620
 2536TIP3    H129023   2.324   6.631   4.875  0.1387 -0.0739 -0.0850
 2536TIP3    H229024   2.459   6.698   4.868  0.1986 -0.1255  0.5225
 2537TIP3   OH229025   0.460   5.842  12.410 -0.0448  0.1501 -0.5751
 2537TIP3    H129026   0.521   5.896  12.460 -0.3234  1.0443 -1.1803
 2537TIP3    H229027   0.501   5.832  12.324  0.0893 -0.7616 -0.4128
 2538TIP3   OH229028   1.051   2.736   3.165  0.8048 -0.5267  0.4674
 2538TIP3    H129029   0.969   2.693   3.188  0.1819  0.8232  0.8662
 2538TIP3    H229030   1.119   2.683   3.206  0.1650 -1.8393 -0.1329
 2539TIP3   OH229031   1.070   4.121  13.251 -0.3569 -0.3295  0.5846
 2539TIP3    H129032   1.151   4.070  13.244 -1.2418 -1.7344  0.1303
 2539TIP3    H229033   1.033   4.119  13.163  1.0146  3.7599 -0.3171
 2540TIP3   OH229034   4.379   1.123  10.995 -0.6062 -0.1925  0.2320
 2540TIP3    H129035   4.363   1.043  10.945 -2.5148  0.8599 -0.9970
 2540TIP3    H229036   4.469   1.147  10.974 -0.0088 -1.9640  0.6077
 2541TIP3   OH229037   5.802   3.388  16.864  0.5632  0.4565  0.1874
 2541TIP3    H129038   5.835   3.456  16.922  2.1328 -0.4943  0.4707
 2541TIP3    H229039   5.749   3.331  16.920  0.6971  0.4715  0.3283
 2542TIP3   OH229040   2.812   0.568  14.415 -0.3101  0.0015 -0.0773
 2542TIP3    H129041   2.795   0.498  14.478 -0.5548 -0.9827 -1.1841
 2542TIP3    H229042   2.748   0.636  14.436 -1.0807 -0.7498  0.0852
 2543TIP3   OH229043   0.473   2.126  13.446  0.0224 -0.7489  0.2109
 2543TIP3    H129044   0.552   2.088  13.484  2.0875  0.8965 -2.1342
 2543TIP3    H229045   0.438   2.058  13.388  0.5689 -0.9655  0.1320
 2544TIP3   OH229046   3.450   4.434   5.201 -0.4252 -0.0967 -0.0351
 2544TIP3    H129047   3.412   4.447   5.287  0.9055  0.0602  0.5543
 2544TIP3    H229048   3.468   4.522   5.168 -0.7680 -0.1605 -0.4025
 2545TIP3   OH229049   4.295   4.199   1.339 -0.1555 -0.2677  0.8790
 2545TIP3    H129050   4.361   4.219   1.272 -0.9467  0.2134  0.2196
 2545TIP3    H229051   4.272   4.285   1.376 -0.5147 -0.4179  1.0035
 2546TIP3   OH229052   6.486   0.942  15.538 -0.1110 -0.5363 -0.1262
 2546TIP3    H129053   6.532   0.995  15.603 -1.2625  1.5801 -0.9108
 2546TIP3    H229054   6.430   0.884  15.589  0.3134 -0.1694  0.7697
 2547TIP3   OH229055   4.708   5.254  12.146 -0.1197 -0.1374 -0.3123
 2547TIP3    H129056   4.773   5.235  12.079 -0.1253  1.4136 -0.8008
 2547TIP3    H229057   4.646   5.182  12.140  0.5252 -0.6502 -1.1422
 2548TIP3   OH229058   1.447   1.714   5.737 -0.2022  0.3672 -0.8995
 2548TIP3    H129059   1.358   1.684   5.718  0.0468 -1.7887  0.9824
 2548TIP3    H229060   1.503   1.661   5.681  0.0616 -0.6713  0.3109
 2549TIP3   OH229061   3.359   2.703  15.476 -0.2967 -0.6036 -0.2286
 2549TIP3    H129062   3.407   2.620  15.467 -0.7846 -0.8255 -0.8542
 2549TIP3    H229063   3.267   2.679  15.464 -0.6673 -0.2980  1.7281
 2550TIP3   OH229064   4.214   2.710   2.034 -0.0049 -0.1529 -0.5934
 2550TIP3    H129065   4.145   2.724   1.969  0.0863  1.5386 -0.3919
 2550TIP3    H229066   4.295   2.724   1.984  0.0737  0.8837 -0.2003
 2551TIP3   OH229067   0.080   1.835   0.094 -0.1920 -0.1061  0.8223
 2551TIP3    H129068   0.160   1.812   0.141 -1.0326 -0.2492  2.2595
 2551TIP3    H229069   0.106   1.841   0.002  0.3796 -5.6344  0.3194
 2552TIP3   OH229070   4.306   6.582   3.122 -0.2127  0.3690  0.1640
 2552TIP3    H129071   4.382   6.628   3.086 -1.3038  2.1331 -0.0579
 2552TIP3    H229072   4.343   6.513   3.177  1.5163 -0.0545 -1.4368
 2553TIP3   OH229073   2.477   3.447   4.710 -0.6123  0.3758 -0.1996
 2553TIP3    H129074   2.384   3.427   4.694 -0.1681 -0.1594 -2.3873
 2553TIP3    H229075   2.477   3.538   4.740 -1.8027  0.6000 -0.8044
 2554TIP3   OH229076   3.098   5.592  12.663 -0.3337  0.4071  0.7202
 2554TIP3    H129077   3.092   5.530  12.590  1.3165 -1.1985  1.8404
 2554TIP3    H229078   3.133   5.539  12.736  2.2858  2.8709  1.4237
 2555TIP3   OH229079   0.393   4.334   1.326 -0.7100 -0.3438  0.1526
 2555TIP3    H129080   0.484   4.358   1.340  0.0607 -1.8618 -1.8209
 2555TIP3    H229081   0.395   4.243   1.299 -3.0865 -1.2350  2.5226
 2556TIP3   OH229082   1.485   6.355   0.938 -0.1883  0.3346  0.2281
 2556TIP3    H129083   1.476   6.335   1.031 -0.8018  1.6753  0.4840
 2556TIP3    H229084   1.575   6.385   0.928 -0.1765  0.3646  0.4326
 2557TIP3   OH229085   0.714   0.088  11.418  0.2234  0.1657 -0.1982
 2557TIP3    H129086   0.796   0.072  11.466  0.0165  0.9468  0.4354
 2557TIP3    H229087   0.683   0.172  11.451 -0.0681  0.6038 -1.5375
 2558TIP3   OH229088   2.639   5.277   6.204 -0.2670 -0.0874 -0.2189
 2558TIP3    H129089   2.598   5.223   6.137 -1.3453 -2.3348  2.0636
 2558TIP3    H229090   2.705   5.329   6.158 -0.3833 -2.0904 -2.8193
 2559TIP3   OH229091   6.156   5.424  14.764  0.0042 -0.1562  0.3416
 2559TIP3    H129092   6.251   5.412  14.769  0.0898  0.5146  0.4443
 2559TIP3    H229093   6.143   5.519  14.768 -0.5660 -0.1046 -1.6206
 2560TIP3   OH229094   1.200   6.210   3.402 -0.2921  0.3756 -0.3798
 2560TIP3    H129095   1.130   6.186   3.463  0.3500 -3.5575 -0.9362
 2560TIP3    H229096   1.158   6.273   3.343 -2.0100  1.4609  1.8241
 2561TIP3   OH229097   3.320   1.180  12.313 -0.5717 -0.0724  0.0115
 2561TIP3    H129098   3.275   1.202  12.231 -1.9771 -1.7831  0.2478
 2561TIP3    H229099   3.286   1.244  12.376 -0.9759  0.0483 -0.3199
 2562TIP3   OH229100   4.051   2.676   3.319  0.1815 -0.2854  0.9772
 2562TIP3    H129101   4.142   2.694   3.341  0.3869 -0.9420  0.6867
 2562TIP3    H229102   4.005   2.759   3.337  1.0683  0.4899 -0.2272
 2563TIP3   OH229103   4.229   6.645   0.705 -0.0663 -0.0407  0.4106
 2563TIP3    H129104   4.178   6.675   0.629  0.8772 -0.6737 -0.5038
 2563TIP3    H229105   4.305   6.602   0.666  1.0673  0.7028  1.7329
 2564TIP3   OH229106   4.648   1.576  13.770 -0.4314 -0.6700  0.2070
 2564TIP3    H129107   4.619   1.662  13.800  1.8556  0.0341  0.5438
 2564TIP3    H229108   4.702   1.594  13.694  1.0643 -1.6772  0.9889
 2565TIP3   OH229109   2.296   5.001   4.081  0.3200  0.0199  0.4445
 2565TIP3    H129110   2.288   4.930   4.143 -0.0423  0.4143  0.8593
 2565TIP3    H229111   2.311   5.079   4.135  0.0854  0.3514  0.0435
 2566TIP3   OH229112   4.296   1.263   0.773 -0.2729 -0.1670 -0.1621
 2566TIP3    H129113   4.356   1.314   0.718  1.1109 -0.0523  1.3819
 2566TIP3    H229114   4.211   1.271   0.729  0.7407 -0.0067 -2.2055
 2567TIP3   OH229115   1.284   1.662   0.966 -0.1178  0.2124 -0.1628
 2567TIP3    H129116   1.291   1.612   0.885 -2.2824  0.2748 -0.4652
 2567TIP3    H229117   1.194   1.696   0.965  0.4031  1.7914  1.3681
 2568TIP3   OH229118   4.005   3.669   6.271 -0.1497 -0.0463 -0.2719
 2568TIP3    H129119   4.011   3.725   6.348 -1.6081  0.5728 -0.5681
 2568TIP3    H229120   4.096   3.656   6.243  0.2726  1.5282  0.2690
 2569TIP3   OH229121   0.829   4.364   0.189  0.3793 -0.5319 -0.5385
 2569TIP3    H129122   0.829   4.268   0.199 -1.1788 -0.3666  1.7277
 2569TIP3    H229123   0.766   4.380   0.118  0.1106 -1.1519 -0.4495
 2570TIP3   OH229124   5.447   6.453   0.136  0.4783 -0.1039 -0.3330
 2570TIP3    H129125   5.466   6.437   0.228  0.1632  1.2102 -0.0172
 2570TIP3    H229126   5.396   6.377   0.108  0.3700 -0.4000  0.6387
 2571TIP3   OH229127   1.255   4.842   1.874 -0.6589  0.2269  0.3839
 2571TIP3    H129128   1.276   4.860   1.966 -1.6015  2.3324  0.2556
 2571TIP3    H229129   1.333   4.870   1.826 -1.0630  1.4373  0.3992
 2572TIP3   OH229130   2.628   3.641  13.109 -0.3242 -0.1004  0.6234
 2572TIP3    H129131   2.689   3.574  13.079 -1.4285 -1.3557  1.1247
 2572TIP3    H229132   2.576   3.599  13.177 -1.5646  1.0188  0.4266
 2573TIP3   OH229133   2.436   5.403   2.869  0.3426  0.5605  0.2510
 2573TIP3    H129134   2.445   5.373   2.960  1.1302  0.1617  0.0544
 2573TIP3    H229135   2.524   5.432   2.845 -0.1938  2.1164  0.1010
 2574TIP3   OH229136   2.954   2.050  13.884 -0.2716 -0.0981  0.4019
 2574TIP3    H129137   3.003   2.092  13.955  1.9002 -1.5672 -0.1460
 2574TIP3    H229138   2.985   2.093  13.804 -1.0006 -0.0264  0.1520
 2575TIP3   OH229139   4.817   6.595  16.831  0.5698 -0.1912  0.3540
 2575TIP3    H129140   4.835   6.646  16.752 -0.5624  0.5638  0.5573
 2575TIP3    H229141   4.801   6.661  16.899  0.8316 -0.8307  1.0457
 2576TIP3   OH229142   5.108   2.224   3.267 -0.1113 -0.0525  0.1266
 2576TIP3    H129143   5.187   2.190   3.308 -0.1614 -1.6969 -1.0098
 2576TIP3    H229144   5.127   2.224   3.173 -1.7586 -1.4932 -0.2767
 2577TIP3   OH229145   2.730   1.102  13.499  0.5363 -0.4496 -0.5085
 2577TIP3    H129146   2.725   1.035  13.431 -2.8766 -0.2823 -0.5831
 2577TIP3    H229147   2.752   1.182  13.451 -2.0985 -0.2823 -1.5673
 2578TIP3   OH229148   4.165   3.852  16.663 -0.4317 -0.4147  0.3452
 2578TIP3    H129149   4.202   3.935  16.633 -0.4301 -0.4577  0.2311
 2578TIP3    H229150   4.151   3.866  16.757  0.9252 -0.7729  0.6254
 2579TIP3   OH229151   5.060   5.026   3.228 -0.1337 -1.0034 -0.3220
 2579TIP3    H129152   5.104   5.028   3.143 -1.5777  1.8229 -1.1407
 2579TIP3    H229153   5.064   5.117   3.259 -3.4287 -1.0498  0.5383
 2580TIP3   OH229154   0.033   3.212  14.259 -0.2134  0.1071  0.1846
 2580TIP3    H129155   0.067   3.171  14.180 -0.5347  0.9229 -0.3901
 2580TIP3    H229156  -0.061   3.194  14.256 -0.3085  0.6160  0.0895
 2581TIP3   OH229157   5.623   0.382  14.376 -0.6065  0.1148  0.0588
 2581TIP3    H129158   5.698   0.433  14.407 -0.4043  0.5108 -1.0593
 2581TIP3    H229159   5.554   0.447  14.362 -1.6652 -0.3932  2.4308
 2582TIP3   OH229160   0.001   3.220  16.020  0.1292 -0.1437 -0.3542
 2582TIP3    H129161  -0.001   3.311  16.047 -0.4739  0.4284 -2.1495
 2582TIP3    H229162  -0.058   3.216  15.944  1.1732 -1.7366 -1.1535
 2583TIP3   OH229163   3.268   3.055  17.115 -0.6959 -0.1979 -0.0771
 2583TIP3    H129164   3.269   3.037  17.209  0.3985 -2.0345 -0.3868
 2583TIP3    H229165   3.360   3.053  17.089 -1.0074 -0.1725 -1.2742
 2584TIP3   OH229166   0.451   0.062  11.832  0.4442  0.1803 -0.0365
 2584TIP3    H129167   0.419   0.135  11.885 -1.4488  0.6781 -1.7230
 2584TIP3    H229168   0.457  -0.012  11.894 -3.4750  0.2245  0.6786
 2585TIP3   OH229169   3.929   5.014   3.544  0.7433  0.1624 -0.1844
 2585TIP3    H129170   3.896   5.057   3.623  1.0521 -0.4337  0.2799
 2585TIP3    H229171   3.907   4.922   3.557  1.0876  0.0161 -0.6479
 2586TIP3   OH229172   6.036   6.402   5.145 -0.4846 -0.7078  0.9329
 2586TIP3    H129173   5.958   6.454   5.163 -0.0845  0.0046  0.6660
 2586TIP3    H229174   6.049   6.350   5.225 -2.1675 -2.1040  0.3615
 2587TIP3   OH229175   0.648   6.429  10.444  0.2100 -0.1436 -0.0767
 2587TIP3    H129176   0.585   6.497  10.421 -0.8321 -0.0830  2.6170
 2587TIP3    H229177   0.597   6.348  10.448  0.3538 -0.1814  1.6394
 2588TIP3   OH229178   0.258   6.093  15.038 -0.0687 -0.1740  0.4631
 2588TIP3    H129179   0.252   6.138  15.122 -0.9187 -0.9896  0.8581
 2588TIP3    H229180   0.173   6.050  15.027 -0.4976  0.9983 -1.4551
 2589TIP3   OH229181   3.417   5.082  13.417 -0.0236 -0.1349  0.1883
 2589TIP3    H129182   3.347   5.110  13.476  0.7482  0.5997  0.7942
 2589TIP3    H229183   3.402   4.989  13.403 -1.0423 -0.0121  0.4045
 2590TIP3   OH229184   3.811   5.740  16.725 -0.3007 -0.2282  0.5540
 2590TIP3    H129185   3.829   5.656  16.766 -2.0637 -1.3562 -0.8366
 2590TIP3    H229186   3.895   5.767  16.686  0.4175 -1.0316  1.5003
 2591TIP3   OH229187   6.702   3.465   0.401 -0.3741 -0.1042  0.2547
 2591TIP3    H129188   6.730   3.464   0.310  1.6860 -1.4621  0.8547
 2591TIP3    H229189   6.727   3.552   0.433  0.1383 -0.1094 -0.1197
 2592TIP3   OH229190   4.367   5.162   4.534  0.0504 -0.1122 -0.5782
 2592TIP3    H129191   4.342   5.247   4.571  1.2401  0.6247 -1.3960
 2592TIP3    H229192   4.330   5.163   4.446  2.5136  0.8526 -1.6861
 2593TIP3   OH229193   4.994   5.104   1.149 -0.6728 -0.1327 -0.0631
 2593TIP3    H129194   5.082   5.127   1.119 -0.2488 -0.8016  0.6241
 2593TIP3    H229195   4.958   5.186   1.183 -0.7825  0.4080 -1.4277
 2594TIP3   OH229196   1.672   3.572   0.624 -0.2165 -0.3769  0.0251
 2594TIP3    H129197   1.741   3.513   0.655  0.0401 -0.5989 -0.9461
 2594TIP3    H229198   1.705   3.608   0.542 -0.0628  1.7088  0.9345
 2595TIP3   OH229199   3.523   6.396  16.412 -0.0585 -0.5688 -0.0425
 2595TIP3    H129200   3.453   6.330  16.417 -1.1361  0.6481  1.7965
 2595TIP3    H229201   3.598   6.354  16.454 -0.4388 -0.9625  0.2601
 2596TIP3   OH229202   5.102   2.347   1.790  0.0856 -0.0604 -0.1608
 2596TIP3    H129203   5.078   2.293   1.715 -3.4366 -0.1533  0.8981
 2596TIP3    H229204   5.075   2.297   1.866  1.7534  0.9059  1.1505
 2597TIP3   OH229205   3.124   6.289  14.523  0.6544 -0.1872 -0.3676
 2597TIP3    H129206   3.079   6.370  14.500  1.6737 -0.1911 -2.5819
 2597TIP3    H229207   3.066   6.219  14.493 -0.5575 -0.3963  2.1665
 2598TIP3   OH229208   3.063   0.607   4.344  0.2196 -0.5000 -1.0029
 2598TIP3    H129209   2.975   0.642   4.331  0.6918  3.3513  3.3579
 2598TIP3    H229210   3.053   0.541   4.413  0.7401  1.0244  0.6144
 2599TIP3   OH229211   1.348   4.930   3.416  0.0507 -0.2206 -0.4056
 2599TIP3    H129212   1.349   4.841   3.450  1.5107 -0.1297 -0.1555
 2599TIP3    H229213   1.310   4.983   3.486  0.6295 -0.4203  0.0622
 2600TIP3   OH229214   4.945   4.685  14.779  0.2547  0.3589  0.2247
 2600TIP3    H129215   4.948   4.695  14.874  0.5136  1.1000  0.1402
 2600TIP3    H229216   4.890   4.757  14.749 -0.2223 -0.1475 -0.1581
 2601TIP3   OH229217   1.244   0.271  15.682  0.2889  0.0614  0.0070
 2601TIP3    H129218   1.226   0.361  15.655  2.0483  0.8976  1.4149
 2601TIP3    H229219   1.225   0.218  15.604 -0.1762  1.6951 -1.0439
 2602TIP3   OH229220   4.548   0.775  12.431  0.3667 -0.3642  0.9159
 2602TIP3    H129221   4.583   0.693  12.466  0.4728 -0.4591  0.5886
 2602TIP3    H229222   4.493   0.748  12.358  1.3397 -0.0661  0.0486
 2603TIP3   OH229223   1.382   0.972  12.819 -0.2511 -0.4005  0.6434
 2603TIP3    H129224   1.354   0.881  12.820 -0.2281 -0.4149  1.6243
 2603TIP3    H229225   1.326   1.015  12.755 -0.5928 -1.0068  0.5330
 2604TIP3   OH229226   2.910   4.392   5.627  0.0854 -0.2162  0.4479
 2604TIP3    H129227   2.847   4.325   5.602 -0.0122  0.0812 -0.1156
 2604TIP3    H229228   2.958   4.354   5.700 -0.4980 -0.5900  0.6454
 2605TIP3   OH229229   6.193   4.336   1.948 -0.8205 -0.2724 -1.0751
 2605TIP3    H129230   6.166   4.294   2.029 -0.1592  1.5768  0.1611
 2605TIP3    H229231   6.244   4.269   1.902 -0.5041 -1.0887  0.4142
 2606TIP3   OH229232   3.047   6.643   1.720  0.5872  0.2200 -0.1309
 2606TIP3    H129233   2.972   6.602   1.763  0.9011  0.1511  0.3526
 2606TIP3    H229234   3.011   6.722   1.679  0.2910  0.2848  0.2519
 2607TIP3   OH229235   6.033   5.472  13.741 -0.3732  0.0040  0.1368
 2607TIP3    H129236   6.052   5.386  13.702 -1.1938 -0.6281  1.0668
 2607TIP3    H229237   6.105   5.487  13.802 -0.5809 -0.3570  0.4765
 2608TIP3   OH229238   1.963   4.378   0.479  0.2027 -0.2048  0.0466
 2608TIP3    H129239   1.926   4.414   0.560  0.1323  0.4259 -0.2630
 2608TIP3    H229240   1.908   4.302   0.460 -1.6594  1.3062 -0.9854
 2609TIP3   OH229241   5.453   1.885  16.494  0.4301  0.4430  0.7326
 2609TIP3    H129242   5.449   1.836  16.576  0.8238  0.5233  0.8008
 2609TIP3    H229243   5.537   1.860  16.455 -0.5601 -1.0554 -0.5694
 2610TIP3   OH229244   0.371   5.716   3.150  0.5481  0.6091 -0.0464
 2610TIP3    H129245   0.282   5.690   3.177 -1.2415  3.2785 -2.6855
 2610TIP3    H229246   0.386   5.665   3.070  0.2457  1.9093 -0.9760
 2611TIP3   OH229247   5.256   5.739   0.536  0.2809 -0.0575 -0.6293
 2611TIP3    H129248   5.250   5.813   0.597  1.1109  1.4958 -2.3185
 2611TIP3    H229249   5.344   5.704   0.550  0.2855 -0.0292 -0.5855
 2612TIP3   OH229250   3.309   6.701  16.466 -0.0588  0.1639  0.2455
 2612TIP3    H129251   3.259   6.755  16.527  0.3014  1.1984 -0.3491
 2612TIP3    H229252   3.250   6.690  16.391 -0.3884 -0.8518  0.6396
 2613TIP3   OH229253   1.791   0.805  11.326 -0.4116 -0.5587  0.2508
 2613TIP3    H129254   1.811   0.773  11.238  0.7993 -0.3858  0.4427
 2613TIP3    H229255   1.729   0.876  11.313  0.3684 -0.0058 -0.5377
 2614TIP3   OH229256   1.425   5.850   0.332 -0.1217  0.2921 -0.3147
 2614TIP3    H129257   1.409   5.767   0.378  4.5246  0.2607  1.7764
 2614TIP3    H229258   1.368   5.913   0.376 -0.5775 -0.9989  1.0407
 2615TIP3   OH229259   3.149   2.535   3.663 -0.2712  0.5337  0.0557
 2615TIP3    H129260   3.065   2.537   3.618  0.2153 -0.2944 -0.9087
 2615TIP3    H229261   3.166   2.627   3.686 -0.6524  0.9314 -1.2100
 2616TIP3   OH229262   5.138   0.525  12.433  0.3592 -0.0327  0.6055
 2616TIP3    H129263   5.108   0.435  12.439 -1.6930  0.6267  1.4592
 2616TIP3    H229264   5.193   0.528  12.354  1.5869 -2.2675  1.3051
 2617TIP3   OH229265   4.971   4.638  16.941 -0.1498 -0.1272  0.6162
 2617TIP3    H129266   5.018   4.621  16.860 -0.3184 -0.3641  0.5647
 2617TIP3    H229267   4.916   4.714  16.922  0.3192  0.2405  0.7234
 2618TIP3   OH229268   2.496   1.509  13.312  0.4003 -0.1817 -0.0232
 2618TIP3    H129269   2.506   1.485  13.220  1.3509  1.3156 -0.3474
 2618TIP3    H229270   2.401   1.512  13.326  0.2413  0.1789 -1.1253
 2619TIP3   OH229271   1.078   1.973  17.069  0.6371  0.1779 -0.5301
 2619TIP3    H129272   1.127   1.896  17.098  2.0836  1.7537  1.4765
 2619TIP3    H229273   1.139   2.022  17.014  0.5149  0.9768  0.0231
 2620TIP3   OH229274   2.490   6.363   3.609  0.7045  0.4063  0.0641
 2620TIP3    H129275   2.525   6.432   3.666  1.1142  0.0963  0.1892
 2620TIP3    H229276   2.554   6.356   3.538  1.4233 -0.8425  0.8050
 2621TIP3   OH229277   3.056   6.672  12.115  0.4199  0.3729 -0.2552
 2621TIP3    H129278   3.056   6.768  12.109  0.4922  0.5408  1.7541
 2621TIP3    H229279   2.968   6.651  12.145  1.0532  0.0160  1.4476
 2622TIP3   OH229280   1.081   0.036  16.450 -0.5953  0.1190  0.2321
 2622TIP3    H129281   1.152   0.019  16.388 -0.7274  1.8473 -0.4592
 2622TIP3    H229282   1.006   0.057  16.394 -0.8117  1.3633  0.9648
 2623TIP3   OH229283   3.094   4.623   0.689 -0.2100 -0.2532  0.1606
 2623TIP3    H129284   3.148   4.701   0.699 -1.7184  0.6709  1.6282
 2623TIP3    H229285   3.113   4.592   0.601  0.6197  1.6272 -0.3702
 2624TIP3   OH229286   3.680   6.605  14.737  0.1832 -0.2884  0.2505
 2624TIP3    H129287   3.747   6.616  14.806  1.7592 -1.5101 -1.0046
 2624TIP3    H229288   3.599   6.588  14.785  1.0428 -0.1529  1.8211
 2625TIP3   OH229289   2.235   1.571   1.938  0.2869  0.0338 -0.4537
 2625TIP3    H129290   2.300   1.593   2.005 -0.1033  0.9396 -0.3549
 2625TIP3    H229291   2.228   1.476   1.942  2.8072 -0.2750 -1.5994
 2626TIP3   OH229292   0.433   4.579  12.441 -0.2986  0.5830  0.5851
 2626TIP3    H129293   0.368   4.510  12.429 -0.9418  0.9924  1.5667
 2626TIP3    H229294   0.411   4.645  12.375  0.0889  0.0370 -0.1056
 2627TIP3   OH229295   6.600   1.181   4.762  0.3292  0.6098 -1.2144
 2627TIP3    H129296   6.690   1.152   4.773  0.2552  0.7434 -0.1830
 2627TIP3    H229297   6.567   1.129   4.689  0.8635 -0.3323 -0.8058
 2628TIP3   OH229298   3.551   5.098  16.147 -0.4849 -0.1900 -0.2560
 2628TIP3    H129299   3.484   5.050  16.197  1.0518 -2.8867 -0.6228
 2628TIP3    H229300   3.516   5.102  16.058 -0.1103 -1.8132 -0.5035
 2629TIP3   OH229301   2.262   0.311   5.118  0.5377 -0.4955  0.4579
 2629TIP3    H129302   2.200   0.247   5.152  1.0734 -0.7629  0.9508
 2629TIP3    H229303   2.216   0.395   5.125 -0.9540 -0.9857 -2.0504
 2630TIP3   OH229304   4.624   4.996   2.431  0.5565  0.4599 -0.0921
 2630TIP3    H129305   4.660   5.072   2.386 -0.3239  0.3781 -0.9832
 2630TIP3    H229306   4.575   5.033   2.505 -0.2762  0.8254 -0.8004
 2631TIP3   OH229307   1.153   2.294  11.681 -0.4718 -0.5577 -0.3757
 2631TIP3    H129308   1.136   2.209  11.721  2.5262 -1.0472  0.0926
 2631TIP3    H229309   1.088   2.352  11.720 -0.6747 -1.9939  1.5869
 2632TIP3   OH229310   3.845   3.462  12.190 -0.5751 -0.2744 -0.3161
 2632TIP3    H129311   3.895   3.405  12.249 -1.1525  1.6221  2.1580
 2632TIP3    H229312   3.912   3.506  12.137  0.0775 -0.8503  0.0037
 2633TIP3   OH229313   5.872   4.383   2.236 -0.0973  0.2990  0.2568
 2633TIP3    H129314   5.842   4.472   2.219  0.9557  1.0500  2.1188
 2633TIP3    H229315   5.921   4.388   2.318 -1.0522 -2.2125  1.1003
 2634TIP3   OH229316   0.587   1.300  15.372 -0.2608 -0.0724  0.2690
 2634TIP3    H129317   0.555   1.382  15.334  1.8036  0.5757 -0.2125
 2634TIP3    H229318   0.573   1.235  15.303  1.0059  0.5612 -0.6302
 2635TIP3   OH229319   0.242   3.473   1.177  0.2609 -0.1827  0.3829
 2635TIP3    H129320   0.262   3.494   1.268  0.9040  0.1814  0.1686
 2635TIP3    H229321   0.235   3.559   1.134  1.9615 -0.3470 -0.3132
 2636TIP3   OH229322   1.387   5.954   0.647 -0.1383 -0.7533 -0.2647
 2636TIP3    H129323   1.476   5.923   0.664  0.5399  1.3593  0.3757
 2636TIP3    H229324   1.358   5.992   0.730 -1.1169 -0.2225 -0.8311
 2637TIP3   OH229325   1.703   5.827  13.478 -0.1858 -0.2540 -0.3915
 2637TIP3    H129326   1.642   5.871  13.419  0.6285  1.6593  0.1295
 2637TIP3    H229327   1.653   5.753  13.513 -1.2235 -0.4670 -2.1716
 2638TIP3   OH229328   6.294   6.209  13.545  0.6133  0.1610  0.6704
 2638TIP3    H129329   6.272   6.302  13.539 -2.8551 -0.0674  4.8066
 2638TIP3    H229330   6.215   6.164  13.513  1.3962 -1.2793  0.6900
 2639TIP3   OH229331   1.396   5.015  14.491 -0.2280  0.6093 -0.3821
 2639TIP3    H129332   1.397   4.996  14.398  0.2786 -0.8916 -0.0921
 2639TIP3    H229333   1.486   5.000  14.520  0.1493  3.0554  0.0095
 2640TIP3   OH229334   2.444   3.304   3.561  0.4984  0.0124 -0.1031
 2640TIP3    H129335   2.449   3.378   3.501 -0.6478 -0.5848 -0.9636
 2640TIP3    H229336   2.358   3.313   3.603  0.0072 -1.2435 -0.7945
 2641TIP3   OH229337   3.656   3.499  14.359 -0.9215  0.2235  0.0217
 2641TIP3    H129338   3.626   3.590  14.367 -2.3695 -0.3036  1.2136
 2641TIP3    H229339   3.745   3.501  14.393 -0.9702  1.1957  0.1373
 2642TIP3   OH229340   3.105   0.413   6.353  0.1708 -0.1535  0.3142
 2642TIP3    H129341   3.026   0.358   6.354 -0.5598  0.8632  1.0048
 2642TIP3    H229342   3.151   0.389   6.434 -0.3205  0.4736  0.7878
 2643TIP3   OH229343   4.201   6.346  16.334 -0.2098  0.0860 -0.7372
 2643TIP3    H129344   4.204   6.271  16.394 -0.4467 -0.6127 -1.5657
 2643TIP3    H229345   4.123   6.394  16.360  0.2432  0.3559  0.1566
 2644TIP3   OH229346   5.362   1.002   6.264 -0.3697 -0.2402 -0.1706
 2644TIP3    H129347   5.275   1.010   6.304 -0.6727 -0.6473 -0.7366
 2644TIP3    H229348   5.347   1.016   6.171  0.0117 -1.2842 -0.4047
 2645TIP3   OH229349   1.425   2.081   3.519  0.0328  0.1463 -0.4757
 2645TIP3    H129350   1.380   2.165   3.533 -0.5150 -0.3166  0.5850
 2645TIP3    H229351   1.406   2.030   3.597  1.8506 -0.3313 -0.2978
 2646TIP3   OH229352   6.568   1.474   2.921 -0.3862  0.3296  0.1303
 2646TIP3    H129353   6.617   1.538   2.972  1.9246  0.2093 -1.7848
 2646TIP3    H229354   6.517   1.426   2.986  1.9573  0.5645  2.2955
 2647TIP3   OH229355   4.533   4.309   1.523  0.6183  0.0479  0.3778
 2647TIP3    H129356   4.438   4.324   1.530  0.4751 -0.9366  0.6924
 2647TIP3    H229357   4.564   4.310   1.614  0.7981 -0.3042  0.3205
 2648TIP3   OH229358   3.614   4.068  14.854 -0.0158 -0.1354 -0.4861
 2648TIP3    H129359   3.683   4.016  14.897  0.1285 -0.3938 -1.0300
 2648TIP3    H229360   3.541   4.065  14.916 -0.3551 -1.7796 -0.9226
 2649TIP3   OH229361   1.967   3.953  16.922 -0.2608 -0.3737 -0.4973
 2649TIP3    H129362   1.981   3.861  16.946  1.0988 -0.3891 -1.2043
 2649TIP3    H229363   2.055   3.990  16.918 -0.8288  1.1636  0.4613
 2650TIP3   OH229364   4.885   3.678   4.677 -0.2563 -0.1630  0.0310
 2650TIP3    H129365   4.861   3.713   4.762  0.5526 -0.9296  0.5910
 2650TIP3    H229366   4.857   3.586   4.680  2.6882 -1.1254  0.7416
 2651TIP3   OH229367   0.090   2.582   4.341  0.4635  0.0020  0.4677
 2651TIP3    H129368   0.131   2.496   4.356  0.6758  0.0606  0.2272
 2651TIP3    H229369   0.110   2.602   4.250  0.4309  0.3180  0.5305
 2652TIP3   OH229370   0.936   5.454  13.356 -0.0393 -0.8193  0.1566
 2652TIP3    H129371   0.939   5.371  13.404  1.7312 -0.0346  1.5287
 2652TIP3    H229372   0.847   5.487  13.369 -0.3428 -1.8448  0.7583
 2653TIP3   OH229373   0.639   4.219  16.305  0.0546 -0.2399 -0.0359
 2653TIP3    H129374   0.692   4.173  16.240  0.3049 -1.3034  0.9036
 2653TIP3    H229375   0.674   4.190  16.389 -0.7534  0.5480  0.5857
 2654TIP3   OH229376   4.052   1.577  12.054 -0.2084 -0.2601 -0.1590
 2654TIP3    H129377   4.028   1.526  12.131  0.9076 -2.4389 -1.1581
 2654TIP3    H229378   3.982   1.560  11.991  0.4851 -1.1588 -0.7199
 2655TIP3   OH229379   3.639   4.647  17.013 -0.6408 -0.4145 -0.5166
 2655TIP3    H129380   3.670   4.721  17.065 -0.2499  0.2447 -1.6571
 2655TIP3    H229381   3.664   4.570  17.064 -0.3453  0.2090  0.3017
 2656TIP3   OH229382   1.607   0.155   6.060  0.5380 -0.6736  0.0688
 2656TIP3    H129383   1.565   0.139   6.144 -0.3136 -1.9861 -0.5858
 2656TIP3    H229384   1.586   0.078   6.007  2.4057 -0.6114 -0.8277
 2657TIP3   OH229385   2.153   5.442  11.076 -0.1888  0.0273  0.4636
 2657TIP3    H129386   2.218   5.486  11.022  1.1097 -1.0102  1.1215
 2657TIP3    H229387   2.071   5.451  11.027  0.7019  0.1890 -1.0671
 2658TIP3   OH229388   3.879   0.675   2.257  0.3160 -0.3429 -0.2271
 2658TIP3    H129389   3.834   0.727   2.191  1.3380  1.2823  0.3107
 2658TIP3    H229390   3.919   0.603   2.208  0.6407  0.5542 -1.3115
 2659TIP3   OH229391   2.057   5.656  15.482  0.2153 -0.3338  0.5244
 2659TIP3    H129392   2.059   5.625  15.392 -2.2530 -3.1658  1.3040
 2659TIP3    H229393   2.111   5.593  15.530  1.9349  1.4345  1.0494
 2660TIP3   OH229394   1.346   1.334  11.130  0.2802 -0.7551 -0.7139
 2660TIP3    H129395   1.330   1.242  11.152 -2.6232 -0.5309 -1.5471
 2660TIP3    H229396   1.293   1.350  11.052 -2.0638  2.4445  1.2893
 2661TIP3   OH229397   3.974   3.020   4.764  0.5789 -0.4895  0.2424
 2661TIP3    H129398   4.056   2.971   4.767  0.4980 -0.6038  1.6248
 2661TIP3    H229399   3.954   3.030   4.671  0.9043 -2.5610 -0.0886
 2662TIP3   OH229400   4.163   6.735   1.074  0.1404  0.1063 -0.0180
 2662TIP3    H129401   4.095   6.736   1.007  0.9273 -0.4195 -0.8529
 2662TIP3    H229402   4.166   6.825   1.107 -1.1248  0.0781  0.2338
 2663TIP3   OH229403   2.605   2.667  17.224  0.2779  0.1108  0.6261
 2663TIP3    H129404   2.589   2.752  17.182 -1.4877 -0.6658 -0.3342
 2663TIP3    H229405   2.633   2.690  17.313 -1.2267  1.7109  0.7419
 2664TIP3   OH229406   5.730   0.003  10.934  0.0575  0.1479  0.3641
 2664TIP3    H129407   5.782   0.081  10.954  0.2398  0.7411 -2.0982
 2664TIP3    H229408   5.795  -0.064  10.912 -0.1377 -0.1657  0.7465
 2665TIP3   OH229409   2.280   5.818   1.280 -0.3089  0.1075 -0.3768
 2665TIP3    H129410   2.351   5.816   1.344  1.0466  2.2627 -1.6747
 2665TIP3    H229411   2.200   5.813   1.332  0.6922 -2.4161  1.1377
 2666TIP3   OH229412   3.135   2.867   5.600  0.4239 -0.8877  0.2775
 2666TIP3    H129413   3.221   2.824   5.609  1.1841  0.5269  0.1461
 2666TIP3    H229414   3.074   2.807   5.642  0.8833 -3.6028 -2.5580
 2667TIP3   OH229415   5.018   4.388   1.727  0.4137  0.4687  0.6328
 2667TIP3    H129416   5.076   4.312   1.733  1.9479  1.5755  0.4926
 2667TIP3    H229417   5.073   4.462   1.753 -1.1679  1.4838  1.1946
 2668TIP3   OH229418   2.780   3.481  11.657  0.2739  0.0127 -0.1940
 2668TIP3    H129419   2.759   3.439  11.573  2.1843 -3.0104  0.6906
 2668TIP3    H229420   2.865   3.444  11.681 -0.4320  0.4237  3.3354
 2669TIP3   OH229421   2.957   1.254   5.990 -0.2631 -0.3328  0.3005
 2669TIP3    H129422   2.974   1.224   5.900  2.0484 -1.9268  1.1751
 2669TIP3    H229423   2.897   1.190   6.026 -2.2560  1.0304 -0.4289
 2670TIP3   OH229424   3.295   0.211  14.225 -0.1625 -0.1024 -0.2273
 2670TIP3    H129425   3.383   0.210  14.262  0.2971 -0.6116 -1.2860
 2670TIP3    H229426   3.285   0.300  14.190 -0.7173  0.4781  1.3387
 2671TIP3   OH229427   6.123   1.253  11.977 -0.4176  0.1417  0.5805
 2671TIP3    H129428   6.217   1.270  11.977 -0.4809  0.6010  1.8915
 2671TIP3    H229429   6.116   1.158  11.985 -0.0117  0.2680  3.6120
 2672TIP3   OH229430   5.265   5.442   6.637 -0.1965 -0.3111  0.0812
 2672TIP3    H129431   5.328   5.376   6.665 -1.0431 -1.1339  0.0821
 2672TIP3    H229432   5.315   5.524   6.636  0.7549 -0.8720  0.4998
 2673TIP3   OH229433   2.753   1.883   0.497  0.5231  0.9206 -0.0603
 2673TIP3    H129434   2.736   1.927   0.413  0.4308  1.6022  0.3027
 2673TIP3    H229435   2.737   1.951   0.562 -0.8578 -0.0000  0.6002
 2674TIP3   OH229436   6.573   5.192  14.966 -0.2343  0.3071  0.5161
 2674TIP3    H129437   6.618   5.134  14.904  0.0322 -0.3917  1.3546
 2674TIP3    H229438   6.639   5.213  15.032 -0.5247  1.0285  0.5900
 2675TIP3   OH229439   4.497   1.185   4.563 -0.8918 -0.2115  0.2633
 2675TIP3    H129440   4.457   1.269   4.586  0.3115 -0.1023  2.1207
 2675TIP3    H229441   4.440   1.151   4.493 -2.9705  0.8869  1.3038
 2676TIP3   OH229442   4.363   1.352   4.079  0.0373 -0.3050  0.4588
 2676TIP3    H129443   4.338   1.297   4.005  0.7457 -0.5648  0.3992
 2676TIP3    H229444   4.387   1.436   4.039 -1.1543  0.1066  0.5608
 2677TIP3   OH229445   5.717   1.082   5.422 -0.5004 -0.1449  0.0533
 2677TIP3    H129446   5.723   0.994   5.461 -1.3142 -0.4237 -0.4339
 2677TIP3    H229447   5.756   1.139   5.488 -0.5249 -0.7910  0.6497
 2678TIP3   OH229448   4.087   0.338   1.909 -0.1149  0.5204  0.2110
 2678TIP3    H129449   4.025   0.327   1.982  1.1846 -3.9011  0.9291
 2678TIP3    H229450   4.166   0.372   1.951 -0.5140  1.5639  0.1443
 2679TIP3   OH229451   6.168   4.413  13.570 -0.1487 -0.7115  0.2719
 2679TIP3    H129452   6.177   4.438  13.478  0.9690  0.1461  0.6004
 2679TIP3    H229453   6.118   4.484  13.610  2.6927  0.9826  1.1192
 2680TIP3   OH229454   6.385   2.636  16.093 -0.0540  0.0423 -0.0413
 2680TIP3    H129455   6.305   2.585  16.081  0.7477 -1.6460  1.3382
 2680TIP3    H229456   6.435   2.623  16.012 -0.1853 -0.8128  0.0026
 2681TIP3   OH229457   3.738   4.825  12.399 -0.0790 -0.2542  0.3290
 2681TIP3    H129458   3.718   4.852  12.489  0.5322 -0.4928  0.5424
 2681TIP3    H229459   3.814   4.767  12.408  1.0872  1.0751 -0.5033
 2682TIP3   OH229460   0.592   6.560  14.579 -0.5576  0.3309 -0.4408
 2682TIP3    H129461   0.537   6.596  14.509  2.3053  1.3099 -2.3771
 2682TIP3    H229462   0.611   6.635  14.636  1.0714  0.7687 -1.4757
 2683TIP3   OH229463   0.643   3.556   4.844  0.1634  0.1231  0.5388
 2683TIP3    H129464   0.630   3.596   4.757 -1.8010 -1.5208  0.0025
 2683TIP3    H229465   0.727   3.511   4.837  0.2942  0.4741 -0.3427
 2684TIP3   OH229466   0.460   4.206  11.955  0.3358  0.7046 -0.1721
 2684TIP3    H129467   0.486   4.293  11.985 -2.2310  1.1140  1.0467
 2684TIP3    H229468   0.505   4.196  11.870  1.4065  2.8003  0.0857
 2685TIP3   OH229469   4.228   4.127  16.198  0.4998 -0.1426  0.2391
 2685TIP3    H129470   4.162   4.078  16.149  1.0219 -0.6971  0.0774
 2685TIP3    H229471   4.241   4.208  16.149 -0.1907  0.0550  0.3716
 2686TIP3   OH229472   2.877   3.109   5.729  0.1501  0.3765 -0.1180
 2686TIP3    H129473   2.786   3.139   5.737  0.1272  0.0491  1.1710
 2686TIP3    H229474   2.882   3.071   5.642 -0.8067  0.8891 -0.4106
 2687TIP3   OH229475   5.248   3.054  11.959 -0.2010  0.5928 -0.3253
 2687TIP3    H129476   5.252   3.083  12.050 -2.7879  1.9624 -0.5363
 2687TIP3    H229477   5.304   3.114  11.911  1.7493 -0.5758  0.3886
 2688TIP3   OH229478   0.681   5.859   1.085 -0.3648  0.6607 -0.2407
 2688TIP3    H129479   0.677   5.954   1.094 -0.6852  0.4928  1.8555
 2688TIP3    H229480   0.605   5.838   1.030 -0.7523  1.5638 -0.0769
 2689TIP3   OH229481   4.024   5.873   5.610 -0.4269 -0.7122 -0.1895
 2689TIP3    H129482   4.119   5.866   5.616 -0.5282 -1.9747  0.1479
 2689TIP3    H229483   4.008   5.900   5.520  0.3490  2.3462  0.4723
 2690TIP3   OH229484   5.811   2.780   0.444 -0.5807  0.0523  1.3792
 2690TIP3    H129485   5.860   2.853   0.483 -0.2015 -0.6140  2.1572
 2690TIP3    H229486   5.740   2.823   0.396  1.2974  1.1091 -0.6198
 2691TIP3   OH229487   0.520   4.619   0.154  0.4747 -0.2920  0.5339
 2691TIP3    H129488   0.437   4.650   0.117  0.3111 -2.8060 -1.4697
 2691TIP3    H229489   0.586   4.679   0.119 -0.2100  0.1094 -0.1051
 2692TIP3   OH229490   1.478   5.391   2.353 -0.1720  0.2421 -0.3259
 2692TIP3    H129491   1.518   5.332   2.288  0.4724  0.1959  0.0938
 2692TIP3    H229492   1.516   5.477   2.334  2.0603 -0.2108  1.5367
 2693TIP3   OH229493   5.599   4.976   4.474  0.1907  0.1255  0.1953
 2693TIP3    H129494   5.684   4.974   4.431  0.4685  1.0038  0.6872
 2693TIP3    H229495   5.552   4.900   4.438  0.9874 -0.0688 -0.4578
 2694TIP3   OH229496   4.344   5.145   3.847  0.0277 -0.0321  0.3034
 2694TIP3    H129497   4.320   5.212   3.912 -0.9074  1.0923 -1.1561
 2694TIP3    H229498   4.320   5.062   3.889 -2.5591  0.7900  0.6179
 2695TIP3   OH229499   0.197   0.446  14.764 -0.9834 -0.5650  0.7180
 2695TIP3    H129500   0.174   0.433  14.856 -1.7923  0.8782  0.7512
 2695TIP3    H229501   0.171   0.536  14.746  1.6713  0.1005 -0.1708
 2696TIP3   OH229502   5.535   6.595   2.675 -0.1119  0.5941  0.3306
 2696TIP3    H129503   5.533   6.503   2.702  2.0101  0.7322  1.1197
 2696TIP3    H229504   5.443   6.621   2.674 -0.6179 -0.5068  3.8549
 2697TIP3   OH229505   5.206   4.121  15.410  0.1840 -0.8968 -0.3080
 2697TIP3    H129506   5.272   4.051  15.408  1.6394  0.3789 -2.5091
 2697TIP3    H229507   5.150   4.103  15.335 -0.6018 -0.7308  0.2296
 2698TIP3   OH229508   0.121   4.917  12.849  0.5098 -0.1197  0.3798
 2698TIP3    H129509   0.085   4.828  12.846  1.0994 -0.3281 -0.9958
 2698TIP3    H229510   0.075   4.958  12.922 -2.2333 -0.5037 -0.9986
 2699TIP3   OH229511   6.397   1.185   1.145 -0.1132  0.8488  0.0686
 2699TIP3    H129512   6.409   1.230   1.229  0.7303 -0.0965  0.4713
 2699TIP3    H229513   6.486   1.166   1.115 -0.4280 -0.3071 -0.2012
 2700TIP3   OH229514   4.846   1.148   1.433 -0.1519  0.2164 -0.2991
 2700TIP3    H129515   4.869   1.147   1.340  1.3620 -0.8698  0.0464
 2700TIP3    H229516   4.920   1.192   1.476  0.7032 -2.0269  0.6932
 2701TIP3   OH229517   5.830   0.850   4.438 -0.2736  0.2326  0.3059
 2701TIP3    H129518   5.850   0.777   4.497  2.9176  2.7513  2.7430
 2701TIP3    H229519   5.842   0.928   4.492  0.0104  2.7001 -3.0219
 2702TIP3   OH229520   4.639   2.033  15.415 -0.2890  0.3348 -0.0033
 2702TIP3    H129521   4.609   2.081  15.492 -0.2374 -0.6028  0.6180
 2702TIP3    H229522   4.563   2.030  15.357 -1.3182 -1.6162  1.3512
 2703TIP3   OH229523   0.987   5.674   2.570 -0.2758  0.4419  0.0325
 2703TIP3    H129524   1.018   5.693   2.482 -0.1154  0.7404  0.1543
 2703TIP3    H229525   1.051   5.612   2.605  0.3083  1.2124  0.3573
 2704TIP3   OH229526   3.532   1.331  13.901 -0.4111  0.1602  0.2291
 2704TIP3    H129527   3.619   1.314  13.938  0.3783  0.8492 -1.2236
 2704TIP3    H229528   3.479   1.255  13.926  0.9492 -0.8592  0.0857
 2705TIP3   OH229529   3.826   2.338  13.289  0.1388  0.4242 -0.6760
 2705TIP3    H129530   3.878   2.393  13.230  0.5821 -0.8521 -1.5064
 2705TIP3    H229531   3.887   2.270  13.318 -0.3438  0.4823  0.5001
 2706TIP3   OH229532   5.294   2.616   4.487 -0.2151  0.6057  0.2750
 2706TIP3    H129533   5.300   2.538   4.541  2.4933  0.0473 -0.6994
 2706TIP3    H229534   5.227   2.595   4.422  0.6093 -1.0028 -0.0965
 2707TIP3   OH229535   0.565   1.380  13.887  0.2083  0.3782 -0.6632
 2707TIP3    H129536   0.539   1.464  13.926  0.0318  0.5832 -1.2164
 2707TIP3    H229537   0.660   1.384  13.885  0.3155 -0.2637  1.1208
 2708TIP3   OH229538   3.628   3.584  13.577 -0.3007 -0.0331 -0.4376
 2708TIP3    H129539   3.597   3.511  13.524 -1.6541 -0.1072  0.4040
 2708TIP3    H229540   3.551   3.640  13.588  0.3760  0.8276  0.0640
 2709TIP3   OH229541   3.029   6.380   0.860 -0.0798  0.4203 -0.5694
 2709TIP3    H129542   2.951   6.433   0.850 -0.9493 -0.9034 -1.0277
 2709TIP3    H229543   3.061   6.402   0.948 -1.0645  0.8439 -0.3009
 2710TIP3   OH229544   4.295   2.919  11.806 -0.2370  0.1609  0.0559
 2710TIP3    H129545   4.293   2.869  11.724 -0.2227  0.9583 -0.4471
 2710TIP3    H229546   4.368   2.979  11.795  0.9086 -0.9326  1.4099
 2711TIP3   OH229547   1.928   4.442  13.772 -0.6283  0.1557 -0.3509
 2711TIP3    H129548   1.869   4.414  13.702 -1.4669 -0.0246  0.4139
 2711TIP3    H229549   1.871   4.472  13.841  0.1957  0.3636  0.2582
 2712TIP3   OH229550   5.380   0.182  14.088 -0.2554  0.2641 -0.0950
 2712TIP3    H129551   5.345   0.099  14.056 -0.2973  1.0363 -2.1750
 2712TIP3    H229552   5.428   0.218  14.014  1.5994  1.1217  1.4419
 2713TIP3   OH229553   2.720   2.800  12.606  0.0415  0.5143 -0.6889
 2713TIP3    H129554   2.675   2.724  12.569 -1.4179  0.6911  0.5984
 2713TIP3    H229555   2.745   2.852  12.530  0.5488 -0.9559 -1.5590
 2714TIP3   OH229556   1.611   3.321  13.004  0.1958  0.3081 -0.0134
 2714TIP3    H129557   1.656   3.325  13.088 -0.9806 -1.7702  0.7948
 2714TIP3    H229558   1.551   3.395  13.004 -0.9861 -0.5747  1.7652
 2715TIP3   OH229559   4.182   4.444  12.510 -0.3749 -0.1499  0.6956
 2715TIP3    H129560   4.128   4.371  12.541 -0.4686 -1.0783 -1.4746
 2715TIP3    H229561   4.247   4.403  12.452 -0.0147  1.4055 -0.0629
 2716TIP3   OH229562   5.395   0.160   2.463  0.3800  0.2006 -0.6067
 2716TIP3    H129563   5.373   0.154   2.370  0.7988  1.3382 -0.7982
 2716TIP3    H229564   5.312   0.184   2.505 -0.1466 -1.7091 -0.4687
 2717TIP3   OH229565   6.690   0.662   5.791  0.1375 -0.5656  0.1923
 2717TIP3    H129566   6.722   0.731   5.849  1.3551 -1.6453  0.8658
 2717TIP3    H229567   6.769   0.615   5.765 -0.7027 -2.0509  0.2111
 2718TIP3   OH229568   2.204   3.173   3.872  0.4114 -0.2647 -0.5492
 2718TIP3    H129569   2.291   3.156   3.908  0.4108  1.2470  0.2246
 2718TIP3    H229570   2.160   3.226   3.938 -1.3029 -1.4204 -0.6933
 2719TIP3   OH229571   1.798   5.473   4.211 -0.1353 -0.1620  0.6001
 2719TIP3    H129572   1.817   5.561   4.245 -2.0479  0.7546 -0.5033
 2719TIP3    H229573   1.812   5.480   4.117  0.5975 -1.3265  0.6135
 2720TIP3   OH229574   1.270   0.092  15.489 -0.2662  0.5890  0.1225
 2720TIP3    H129575   1.226   0.015  15.454 -0.2975 -1.2284  3.6557
 2720TIP3    H229576   1.363   0.075  15.473 -0.4170  1.9897 -2.8371
 2721TIP3   OH229577   2.415   6.132  13.817 -0.3527 -0.0121  0.6931
 2721TIP3    H129578   2.368   6.162  13.894  1.3758 -0.6812  2.0534
 2721TIP3    H229579   2.499   6.177  13.819 -1.0201  1.6078 -2.0236
 2722TIP3   OH229580   0.901   5.599   1.438 -0.4615  0.9558 -0.6043
 2722TIP3    H129581   0.877   5.516   1.396  3.4196 -0.4902 -0.3214
 2722TIP3    H229582   0.848   5.600   1.518 -2.5356  0.1523 -1.8611
 2723TIP3   OH229583   6.439   2.496   4.590  0.0179 -0.3489 -0.1539
 2723TIP3    H129584   6.495   2.450   4.527  2.2308  0.8587  0.8022
 2723TIP3    H229585   6.436   2.586   4.558 -0.1130 -0.0617  0.6357
 2724TIP3   OH229586   5.219   4.087   4.983  0.0869 -0.6647  0.2738
 2724TIP3    H129587   5.261   4.148   5.045 -0.3639 -0.2286  0.1540
 2724TIP3    H229588   5.263   4.103   4.900 -1.7551  1.3873 -0.4057
 2725TIP3   OH229589   4.206   1.985   3.414 -0.0701 -0.0214  0.1617
 2725TIP3    H129590   4.281   2.021   3.367 -0.2110 -1.6948 -1.4077
 2725TIP3    H229591   4.237   1.901   3.449 -0.7853 -0.0345  0.7941
 2726TIP3   OH229592   1.493   5.174  13.752 -0.0705  0.4151  0.0895
 2726TIP3    H129593   1.425   5.195  13.817 -0.2179 -0.4904  0.2386
 2726TIP3    H229594   1.562   5.239  13.768  0.0732 -0.0296  1.4221
 2727TIP3   OH229595   5.516   0.845  15.970 -0.0788 -0.6510  0.0977
 2727TIP3    H129596   5.531   0.857  16.064 -0.4777 -0.1034  0.0980
 2727TIP3    H229597   5.525   0.751  15.956 -1.5196 -0.9565  0.9612
 2728TIP3   OH229598   0.718   6.007  11.975  0.2035  0.2467 -0.0676
 2728TIP3    H129599   0.669   6.047  11.903  0.1533  0.0920 -0.1200
 2728TIP3    H229600   0.805   6.045  11.970  0.2145  0.1984 -0.2407
 2729TIP3   OH229601   6.367   2.577   1.087  0.3442  0.3257 -0.0422
 2729TIP3    H129602   6.302   2.630   1.039 -0.3418 -0.7832 -0.3595
 2729TIP3    H229603   6.315   2.527   1.150  0.8409 -0.8072 -0.5160
 2730TIP3   OH229604   4.025   2.573  13.533 -0.4018  0.2787 -0.1849
 2730TIP3    H129605   3.932   2.559  13.517 -0.0649 -0.5108 -1.5811
 2730TIP3    H229606   4.027   2.633  13.608 -1.9898 -1.2159  1.1399
 2731TIP3   OH229607   3.255   3.836  13.439  0.5635 -0.9599  0.6216
 2731TIP3    H129608   3.235   3.850  13.347 -0.4991 -1.0634  0.8261
 2731TIP3    H229609   3.207   3.756  13.463  0.0071 -0.3853  1.5007
 2732TIP3   OH229610   5.533   0.329  12.577  0.1813  0.2840  0.1226
 2732TIP3    H129611   5.470   0.264  12.607  1.1790  0.2590  2.4001
 2732TIP3    H229612   5.494   0.365  12.497 -1.1818 -1.8877 -0.2832
 2733TIP3   OH229613   2.628   3.178  17.227  0.3910 -0.3358 -0.5131
 2733TIP3    H129614   2.641   3.146  17.317  1.7179  1.3889 -0.0208
 2733TIP3    H229615   2.600   3.102  17.178  1.5360 -1.7833  0.9691
 2734TIP3   OH229616   5.569   1.914  11.768 -0.0241 -0.4988 -0.8897
 2734TIP3    H129617   5.518   1.833  11.774 -0.5019 -0.0946  1.1444
 2734TIP3    H229618   5.602   1.928  11.857 -0.4642  1.8584 -1.0447
 2735TIP3   OH229619   6.700   3.308   2.564  0.2069  0.0240 -0.4228
 2735TIP3    H129620   6.765   3.254   2.518 -0.9433 -2.4755  0.6526
 2735TIP3    H229621   6.619   3.257   2.559 -1.2878  2.2436 -0.2625
 2736TIP3   OH229622   5.258   1.794   0.942  0.3514 -0.5234  0.4146
 2736TIP3    H129623   5.264   1.699   0.953 -3.1299 -0.9700 -0.3058
 2736TIP3    H229624   5.232   1.806   0.850  1.0770  1.1781  0.3940
 2737TIP3   OH229625   3.535   0.275  14.386 -0.1235 -0.1887  0.5013
 2737TIP3    H129626   3.545   0.180  14.382 -0.8285 -0.4048  2.6661
 2737TIP3    H229627   3.624   0.309  14.387  0.1314 -0.7595 -0.8224
 2738TIP3   OH229628   5.282   3.309  15.331  0.7077 -0.0923 -0.3202
 2738TIP3    H129629   5.327   3.252  15.394  0.0487 -0.4612 -0.1653
 2738TIP3    H229630   5.224   3.249  15.283 -1.4308  0.6912  1.1327
 2739TIP3   OH229631   6.092   6.586   2.261  0.0857 -0.5963 -0.5211
 2739TIP3    H129632   6.013   6.601   2.210  1.7975  1.5670 -2.8283
 2739TIP3    H229633   6.080   6.640   2.340 -1.3361 -1.5428 -0.0571
 2740TIP3   OH229634   1.651   5.884  13.795 -0.2348 -0.7069 -0.4540
 2740TIP3    H129635   1.559   5.867  13.773 -0.4093 -0.4336  0.0345
 2740TIP3    H229636   1.698   5.873  13.713 -1.1274  2.4503 -1.5154
 2741TIP3   OH229637   3.384   3.231   5.697 -0.8536 -0.1571 -0.1582
 2741TIP3    H129638   3.385   3.314   5.744  0.8518 -0.3829  0.2531
 2741TIP3    H229639   3.403   3.256   5.606 -1.2602 -0.0146 -0.2071
 2742TIP3   OH229640   3.731   4.462   2.564 -0.5001 -0.0775 -0.7580
 2742TIP3    H129641   3.717   4.449   2.470 -0.8163 -2.2748 -0.4631
 2742TIP3    H229642   3.771   4.380   2.594 -0.2920  0.6219  1.0102
 2743TIP3   OH229643   5.271   4.167   3.793  0.3285  0.6564 -0.2277
 2743TIP3    H129644   5.193   4.165   3.849  0.9499 -1.2163  0.6634
 2743TIP3    H229645   5.297   4.259   3.791  0.2881  0.8103  2.5981
 2744TIP3   OH229646   3.379   6.712   5.494 -0.2843  0.2071  0.6855
 2744TIP3    H129647   3.409   6.719   5.403 -0.2209  1.8310  0.8110
 2744TIP3    H229648   3.312   6.644   5.492 -0.6138  0.5421 -0.6743
 2745TIP3   OH229649   5.050   5.297   0.825 -0.3587 -0.0387  0.0127
 2745TIP3    H129650   5.051   5.343   0.741  0.6460  0.9045  0.5221
 2745TIP3    H229651   5.129   5.243   0.823  0.1108  0.6023  0.6668
 2746TIP3   OH229652   5.894   4.946   4.906 -0.6563 -0.1529 -0.0971
 2746TIP3    H129653   5.815   4.975   4.860 -0.6123  0.7656  0.3678
 2746TIP3    H229654   5.963   4.949   4.840 -0.4155  1.9934  0.1690
 2747TIP3   OH229655   5.930   1.197  17.097 -0.0502 -0.1453  0.1296
 2747TIP3    H129656   5.988   1.226  17.168 -0.6760  0.5972  0.3499
 2747TIP3    H229657   5.855   1.256  17.102 -0.8927 -1.1736 -0.0782
 2748TIP3   OH229658   2.656   2.353  14.319 -0.2008  0.1729  0.2038
 2748TIP3    H129659   2.740   2.380  14.354  0.2663 -1.5333  0.5067
 2748TIP3    H229660   2.603   2.333  14.396 -1.1312  1.8714  0.0331
 2749TIP3   OH229661   5.016   3.815  15.595 -0.5922  0.2818  0.2255
 2749TIP3    H129662   5.014   3.780  15.684 -0.7921  0.6963  0.3848
 2749TIP3    H229663   5.042   3.906  15.605 -0.6552  0.3420 -0.1388
 2750TIP3   OH229664   3.444   5.495   0.349 -0.2591 -0.2951 -0.2364
 2750TIP3    H129665   3.485   5.432   0.409 -2.0086 -0.5885  0.7064
 2750TIP3    H229666   3.437   5.575   0.401 -0.3540 -0.0775 -0.5868
 2751TIP3   OH229667   4.255   2.755  14.926 -0.2887 -0.0738  0.4944
 2751TIP3    H129668   4.174   2.719  14.962 -0.6882  1.3170  1.0634
 2751TIP3    H229669   4.298   2.796  15.001  0.6442 -0.2397  0.0688
 2752TIP3   OH229670   3.816   2.711   0.594 -0.6333 -0.3669 -0.0443
 2752TIP3    H129671   3.810   2.796   0.550  0.7376 -1.4084 -2.4326
 2752TIP3    H229672   3.728   2.696   0.628 -1.5868  0.9302 -1.7567
 2753TIP3   OH229673   2.076   0.759  10.862  0.1616 -0.0496  0.0249
 2753TIP3    H129674   2.013   0.688  10.870 -1.6709  1.4458 -0.2494
 2753TIP3    H229675   2.120   0.744  10.778 -1.1651 -0.1448 -0.6739
 2754TIP3   OH229676   4.497   0.486   1.865 -0.0484  0.1234  0.2634
 2754TIP3    H129677   4.490   0.579   1.882  1.7196  0.6872 -1.7358
 2754TIP3    H229678   4.583   0.461   1.899 -0.6550 -0.8728  1.1149
 2755TIP3   OH229679   2.113   3.959   3.528 -0.4540 -0.4660  0.3287
 2755TIP3    H129680   2.140   3.909   3.451  1.5352  0.2728  0.4691
 2755TIP3    H229681   2.192   3.965   3.581 -1.0688  1.3138  1.1386
 2756TIP3   OH229682   0.935   3.576   3.096 -0.0765  0.1997  0.0156
 2756TIP3    H129683   0.854   3.562   3.144  0.2867 -0.5784  0.4204
 2756TIP3    H229684   0.992   3.504   3.123  1.3602  1.6508  1.0140
 2757TIP3   OH229685   5.967   0.338   2.566 -0.2322  0.6679  0.7010
 2757TIP3    H129686   5.984   0.373   2.479  0.2410  1.4244  1.0891
 2757TIP3    H229687   5.971   0.243   2.554  0.9246  0.7675  0.0936
 2758TIP3   OH229688   5.367   2.442   3.119 -0.0253 -0.7496 -0.0811
 2758TIP3    H129689   5.353   2.416   3.027  2.0156 -1.9702 -0.1114
 2758TIP3    H229690   5.434   2.510   3.114 -0.2374 -0.4925  0.4972
 2759TIP3   OH229691   3.722   1.760   4.586 -0.1555 -0.2837 -0.0486
 2759TIP3    H129692   3.651   1.718   4.538  0.2763 -1.8867  0.6304
 2759TIP3    H229693   3.692   1.760   4.677  0.5980 -0.7580  0.2086
 2760TIP3   OH229694   4.069   2.590   4.500 -0.5890  0.1781  0.4130
 2760TIP3    H129695   4.140   2.633   4.453  0.5455 -0.0666  1.8188
 2760TIP3    H229696   4.109   2.513   4.540 -0.9314  1.3853  3.3612
 2761TIP3   OH229697   0.788   5.024  10.574 -0.3942  0.4322  0.2088
 2761TIP3    H129698   0.827   4.941  10.602  0.4086  1.0262  0.9150
 2761TIP3    H229699   0.826   5.040  10.488 -0.1618  0.3123  0.2880
 2762TIP3   OH229700   2.089   0.754   2.850 -0.5086 -0.4683  0.3080
 2762TIP3    H129701   1.998   0.783   2.840  0.2667  1.6490 -1.3537
 2762TIP3    H229702   2.116   0.787   2.936 -0.7998  0.4769  0.0508
 2763TIP3   OH229703   3.711   0.040   1.861  0.1510 -0.1361 -0.3957
 2763TIP3    H129704   3.666  -0.031   1.815  2.7793 -0.7282 -2.2920
 2763TIP3    H229705   3.790  -0.001   1.896  1.4037  1.7089 -0.9370
 2764TIP3   OH229706   5.088   1.327   1.463 -0.0374 -0.1864  0.3181
 2764TIP3    H129707   5.130   1.282   1.536  1.2907  1.4375  0.5903
 2764TIP3    H229708   5.157   1.340   1.399 -0.3897  1.4013  0.2238
 2765TIP3   OH229709   1.336   1.474   1.940  0.7614  0.0034  0.1455
 2765TIP3    H129710   1.392   1.467   2.017 -0.6260 -1.5229  1.0946
 2765TIP3    H229711   1.252   1.436   1.968  0.0258 -0.0363 -1.9320
 2766TIP3   OH229712   1.986   2.912  11.822  0.0310 -0.4214  0.2253
 2766TIP3    H129713   2.070   2.948  11.849  0.0016 -0.6346  0.6094
 2766TIP3    H229714   1.934   2.909  11.903 -0.0311 -1.1470  0.1660
 2767TIP3   OH229715   1.483   6.465   6.162  0.3876  0.2345 -0.6580
 2767TIP3    H129716   1.404   6.490   6.210 -1.2900 -0.7896 -2.7145
 2767TIP3    H229717   1.481   6.369   6.162  0.5700  0.2033 -2.3113
 2768TIP3   OH229718   5.579   2.876  13.267  0.4459 -0.3195 -0.0449
 2768TIP3    H129719   5.556   2.867  13.360  0.4123 -0.6894 -0.0902
 2768TIP3    H229720   5.674   2.861  13.264  0.3197 -1.1304 -0.1812
 2769TIP3   OH229721   2.871   2.882   5.959  0.2542  0.5390  0.4522
 2769TIP3    H129722   2.915   2.956   5.919  1.1080 -0.4661 -0.5105
 2769TIP3    H229723   2.891   2.889   6.052  1.0530  1.0206  0.2442
 2770TIP3   OH229724   4.847   4.217   4.410 -0.0174  0.3280 -0.0244
 2770TIP3    H129725   4.778   4.151   4.401 -0.7477  1.1156 -0.3860
 2770TIP3    H229726   4.808   4.285   4.465  0.7242  0.4659  0.3446
 2771TIP3   OH229727   6.185   5.986   3.093  0.3136 -0.5736 -0.6219
 2771TIP3    H129728   6.210   5.904   3.051  1.1320 -0.7610  0.1874
 2771TIP3    H229729   6.267   6.020   3.130 -0.2814 -0.1731  0.3797
 2772TIP3   OH229730   0.605   3.601  14.143  0.1030  0.1680 -0.3862
 2772TIP3    H129731   0.603   3.607  14.239  0.1753  0.4556 -0.3991
 2772TIP3    H229732   0.675   3.540  14.124  0.3134  0.3695 -0.2631
 2773TIP3   OH229733   4.415   3.822  12.993 -0.1355  0.1528 -0.0439
 2773TIP3    H129734   4.344   3.814  12.929 -0.4105  1.6203  0.0438
 2773TIP3    H229735   4.383   3.775  13.070 -1.2943  1.2880  0.2038
 2774TIP3   OH229736   4.591   1.160  15.402  0.0345  0.4649 -0.0031
 2774TIP3    H129737   4.581   1.255  15.393  1.2112  0.5542 -0.4501
 2774TIP3    H229738   4.644   1.149  15.480  2.1843  0.3223 -1.4125
 2775TIP3   OH229739   4.048   0.623   2.561  0.3493  0.9954 -0.4853
 2775TIP3    H129740   4.036   0.555   2.494  0.1943 -0.6546  1.1351
 2775TIP3    H229741   3.985   0.600   2.629  3.4961 -0.1141  2.3149
 2776TIP3   OH229742   0.391   4.184   4.361  0.4647  0.3288 -0.5278
 2776TIP3    H129743   0.343   4.158   4.439  1.4278  1.3574  0.4501
 2776TIP3    H229744   0.347   4.264   4.330  1.3162  1.0918  0.1854
 2777TIP3   OH229745   5.433   3.259  16.895  0.5654 -0.4979 -0.0290
 2777TIP3    H129746   5.455   3.284  16.984  2.6535 -1.3398 -0.2690
 2777TIP3    H229747   5.466   3.331  16.840 -0.7534  0.0415 -0.1627
 2778TIP3   OH229748   3.656   5.188   2.778  0.2810  0.0393  0.0811
 2778TIP3    H129749   3.658   5.274   2.737  0.8153  0.1723  0.3705
 2778TIP3    H229750   3.565   5.175   2.803  0.0655  0.2138 -0.5968
 2779TIP3   OH229751   6.574   4.377  15.684 -0.2501 -0.4459  0.0431
 2779TIP3    H129752   6.662   4.400  15.656 -0.8425  0.3633 -1.2458
 2779TIP3    H229753   6.554   4.438  15.754 -0.6501  0.9796 -1.2724
 2780TIP3   OH229754   4.091   2.157  10.766 -0.1594 -0.4373  0.3923
 2780TIP3    H129755   4.174   2.144  10.812 -0.7131 -1.2751  1.1709
 2780TIP3    H229756   4.023   2.134  10.829 -1.0144  0.3575 -0.1908
 2781TIP3   OH229757   5.236   3.784  11.572 -0.2703 -0.4886  0.1669
 2781TIP3    H129758   5.151   3.745  11.596  0.1870 -1.0019  1.0134
 2781TIP3    H229759   5.297   3.748  11.637  0.2918  1.1687  0.5965
 2782TIP3   OH229760   5.696   2.217   0.009  0.0005 -0.8706 -0.1324
 2782TIP3    H129761   5.760   2.154   0.040 -0.6695 -0.8852  1.3179
 2782TIP3    H229762   5.674   2.269   0.086  0.1871  0.8374 -1.1835
 2783TIP3   OH229763   1.213   2.011   4.852 -0.0690 -0.0084 -0.0945
 2783TIP3    H129764   1.305   2.009   4.827 -0.1827 -2.5968 -0.6070
 2783TIP3    H229765   1.214   2.005   4.948  0.2923  0.5522 -0.0608
 2784TIP3   OH229766   0.968   2.243  13.340 -0.2023 -0.0393  0.3240
 2784TIP3    H129767   0.900   2.244  13.272  0.5882 -0.0251 -0.4859
 2784TIP3    H229768   1.049   2.222  13.293  0.2708 -0.6023  1.3578
 2785TIP3   OH229769   5.784   4.242  15.052  0.1000  0.1309 -0.1897
 2785TIP3    H129770   5.697   4.220  15.085 -0.4632  1.0541 -1.0233
 2785TIP3    H229771   5.772   4.324  15.005  1.5251  0.5143  0.0862
 2786TIP3   OH229772   1.859   6.231  13.542  0.4704 -0.8808  0.0898
 2786TIP3    H129773   1.894   6.311  13.503 -2.0609  0.5251  0.5016
 2786TIP3    H229774   1.835   6.176  13.467  0.8185 -0.6179 -0.2192
 2787TIP3   OH229775   1.737   0.959  10.983 -0.4097  0.2437 -0.0208
 2787TIP3    H129776   1.784   0.991  10.906  0.4286  1.7286  1.0520
 2787TIP3    H229777   1.780   0.876  11.005 -0.8696 -0.3598 -1.3130
 2788TIP3   OH229778   3.336   0.621   0.581 -0.0877  0.1889 -0.1162
 2788TIP3    H129779   3.301   0.585   0.499 -0.5191 -0.0008  0.1480
 2788TIP3    H229780   3.339   0.715   0.566 -1.2958  0.2641  0.0755
 2789TIP3   OH229781   4.791   2.675  14.790 -0.5892 -0.0542 -0.3145
 2789TIP3    H129782   4.839   2.752  14.823 -0.0506 -0.9753  1.1426
 2789TIP3    H229783   4.766   2.699  14.701  1.7060  0.8768 -0.7758
 2790TIP3   OH229784   3.738   5.307  14.742 -0.7681  0.1517 -0.0994
 2790TIP3    H129785   3.754   5.333  14.652 -0.8584 -1.0292 -0.4667
 2790TIP3    H229786   3.643   5.318  14.754 -0.5612  1.7969  0.3613
 2791TIP3   OH229787   0.124   4.611   5.221 -0.1484  0.1817 -0.1189
 2791TIP3    H129788   0.126   4.573   5.309  1.2464 -0.5770 -0.4479
 2791TIP3    H229789   0.085   4.543   5.167  1.1070 -0.2882 -0.4689
 2792TIP3   OH229790   5.369   5.267   3.349 -0.0048  0.0448 -0.1477
 2792TIP3    H129791   5.412   5.191   3.390 -0.6491 -0.5810 -0.6137
 2792TIP3    H229792   5.328   5.313   3.422 -0.6214 -0.7231  0.0022
 2793TIP3   OH229793   0.635   1.479   4.352 -0.1353 -0.7608 -0.1526
 2793TIP3    H129794   0.599   1.557   4.393 -1.8458 -2.0820  0.9909
 2793TIP3    H229795   0.585   1.469   4.271 -0.7017 -1.2581  0.2489
 2794TIP3   OH229796   3.980   6.488   6.634  0.2411  0.5615  0.1795
 2794TIP3    H129797   3.927   6.425   6.684 -0.4122  0.9763  0.0260
 2794TIP3    H229798   4.051   6.512   6.694 -0.0329  0.3879  0.5814
 2795TIP3   OH229799   1.086   3.115   4.971  0.0904 -0.4356  0.3551
 2795TIP3    H129800   0.993   3.120   4.996  0.3203  1.5719  0.9330
 2795TIP3    H229801   1.100   3.189   4.913  0.9129 -1.8550 -1.3443
 2796TIP3   OH229802   2.494   4.704   1.840  0.5686 -0.1542 -0.0837
 2796TIP3    H129803   2.554   4.777   1.824  0.1901 -0.0319 -1.0439
 2796TIP3    H229804   2.419   4.723   1.784  0.1977 -0.9721  0.1261
 2797TIP3   OH229805   6.453   6.196  14.683 -0.1741  0.2066  0.2698
 2797TIP3    H129806   6.475   6.155  14.767 -1.3619 -0.2209  0.3823
 2797TIP3    H229807   6.380   6.145  14.650  0.7378 -0.0871 -1.3915
 2798TIP3   OH229808   6.368   5.912  16.824 -0.3464  0.0600 -0.5199
 2798TIP3    H129809   6.357   5.818  16.806 -1.2040  0.2859 -1.2562
 2798TIP3    H229810   6.376   5.917  16.920  1.1174 -0.8830 -0.5727
 2799TIP3   OH229811   0.290   5.185  16.912 -0.1230  0.1339 -0.3714
 2799TIP3    H129812   0.230   5.114  16.888  0.8783 -0.6590 -0.5818
 2799TIP3    H229813   0.375   5.158  16.877  0.2259  1.5848 -0.7126
 2800TIP3   OH229814   1.839   3.950  11.189 -0.3863 -0.4155 -0.1088
 2800TIP3    H129815   1.815   4.039  11.164  0.6597 -0.0700  0.0982
 2800TIP3    H229816   1.830   3.899  11.108 -1.2221 -0.1897 -0.1712
 2801TIP3   OH229817   5.946   1.527   2.741 -0.4906 -0.4221  0.0302
 2801TIP3    H129818   5.934   1.622   2.747  0.5852 -0.3081  0.6344
 2801TIP3    H229819   6.041   1.514   2.745 -0.5575 -1.4673 -1.0314
 2802TIP3   OH229820   2.208   2.943  10.719 -1.0150  0.1745  0.8880
 2802TIP3    H129821   2.241   3.001  10.788 -1.1074  1.2994  0.0046
 2802TIP3    H229822   2.276   2.944  10.652 -0.6796 -1.3397  1.1566
 2803TIP3   OH229823   5.515   1.583   5.188 -0.1526 -0.8731  0.3410
 2803TIP3    H129824   5.509   1.512   5.252  1.5627 -0.7811  0.6496
 2803TIP3    H229825   5.609   1.595   5.173 -0.4057  1.0351 -0.0431
 2804TIP3   OH229826   4.159   3.113  16.503  0.0462  0.0452  0.2010
 2804TIP3    H129827   4.142   3.203  16.528 -1.8486 -0.4350  0.8028
 2804TIP3    H229828   4.076   3.067  16.518 -0.0284 -1.1875 -3.0131
 2805TIP3   OH229829   3.118   1.443  14.828  0.8133  0.1520 -0.3791
 2805TIP3    H129830   3.039   1.393  14.809 -1.2452  2.6586  0.9009
 2805TIP3    H229831   3.160   1.454  14.743 -0.5460 -0.7310 -1.2090
 2806TIP3   OH229832   6.262   6.473   0.672 -0.0957 -0.5428  0.0707
 2806TIP3    H129833   6.324   6.471   0.599 -0.2801  0.0299 -0.1103
 2806TIP3    H229834   6.250   6.382   0.697 -0.6104 -0.8055 -1.0996
 2807TIP3   OH229835   1.142   5.851  14.839 -0.0804 -0.1102  0.3528
 2807TIP3    H129836   1.223   5.809  14.866  0.3595  0.4763 -0.0233
 2807TIP3    H229837   1.076   5.821  14.902  0.3046 -1.0275  0.3244
 2808TIP3   OH229838   4.596   3.862  14.813 -0.6470  0.0355  0.0303
 2808TIP3    H129839   4.571   3.919  14.740 -0.3571  1.9454  1.3379
 2808TIP3    H229840   4.525   3.872  14.877 -0.1504 -0.3616  0.6575
 2809TIP3   OH229841   2.448   5.635   1.870 -0.0672  0.1142  0.4687
 2809TIP3    H129842   2.500   5.574   1.818 -0.7982 -0.1655  0.0433
 2809TIP3    H229843   2.438   5.712   1.814  1.2002  0.8073  1.1652
 2810TIP3   OH229844   1.113   5.823  12.574 -0.5379  0.3375  0.1667
 2810TIP3    H129845   1.134   5.868  12.656  1.4112 -0.6715  0.2636
 2810TIP3    H229846   1.122   5.730  12.594  0.9844  0.0970 -1.4249
 2811TIP3   OH229847   4.253   1.036   3.349 -0.3310 -0.2847  0.1327
 2811TIP3    H129848   4.220   1.122   3.377 -0.2814  0.0087 -0.6687
 2811TIP3    H229849   4.300   1.003   3.425 -2.2356 -0.6123  1.2182
 2812TIP3   OH229850   2.684   3.910  13.061 -0.1106  0.0775 -0.0204
 2812TIP3    H129851   2.656   3.828  13.102 -3.4357  1.4590  0.8393
 2812TIP3    H229852   2.721   3.884  12.977  0.5107 -2.3914  0.9488
 2813TIP3   OH229853   1.822   5.989   3.937 -0.0844 -0.5512  0.6115
 2813TIP3    H129854   1.787   5.966   4.023  2.0042 -0.3847  1.5826
 2813TIP3    H229855   1.903   6.036   3.956  1.2310 -1.8017 -1.4457
 2814TIP3   OH229856   3.713   1.644  13.436  0.3733 -0.3712 -0.0123
 2814TIP3    H129857   3.618   1.647  13.449  0.3768 -0.5778  0.0784
 2814TIP3    H229858   3.725   1.583  13.363  0.5168 -1.5729  0.9855
 2815TIP3   OH229859   5.269   6.373   1.299  0.3833 -0.0718 -0.2572
 2815TIP3    H129860   5.277   6.371   1.394  1.0561  1.7101 -0.2248
 2815TIP3    H229861   5.264   6.466   1.278  3.0452 -0.2366 -2.1292
 2816TIP3   OH229862   3.807   2.743   2.734  0.2073 -0.2663  0.0955
 2816TIP3    H129863   3.870   2.803   2.694  1.4499 -0.6405  1.4050
 2816TIP3    H229864   3.766   2.698   2.660 -2.4642  3.6966 -1.1672
 2817TIP3   OH229865   3.468   4.013  12.925 -0.1192  0.0283 -0.0742
 2817TIP3    H129866   3.423   3.960  12.859  1.5292 -0.4526 -0.8747
 2817TIP3    H229867   3.509   3.949  12.984  0.3137  0.4254  0.0658
 2818TIP3   OH229868   0.769   2.187  15.046 -0.0741  0.7492  0.8671
 2818TIP3    H129869   0.770   2.278  15.017  0.3541  0.1034 -1.3545
 2818TIP3    H229870   0.862   2.164  15.055 -0.1346  0.1611  0.0759
 2819TIP3   OH229871   5.567   5.420  16.950 -0.6185 -0.3519  0.1899
 2819TIP3    H129872   5.503   5.354  16.922 -0.2993 -0.9970  0.9515
 2819TIP3    H229873   5.640   5.370  16.985  2.2480  0.1454 -4.2817
 2820TIP3   OH229874   6.112   4.985  11.655 -0.2539  0.1557  0.3616
 2820TIP3    H129875   6.017   4.981  11.640 -0.1866 -0.4524  0.0713
 2820TIP3    H229876   6.141   5.062  11.607 -0.8670  1.4015  1.9242
 2821TIP3   OH229877   1.935   4.022  13.175  0.0863 -0.0150  0.6855
 2821TIP3    H129878   1.888   3.997  13.096 -1.6338  0.6560  1.4575
 2821TIP3    H229879   1.968   3.939  13.211 -1.1425 -0.5949  0.5132
 2822TIP3   OH229880   3.066   1.166  14.112  0.4347 -0.4804  0.0345
 2822TIP3    H129881   3.150   1.161  14.158  0.3824 -1.7046  0.0337
 2822TIP3    H229882   3.081   1.119  14.030 -0.4965 -1.5786  0.4609
 2823TIP3   OH229883   4.675   6.476   2.596 -0.0448 -0.0212  0.2799
 2823TIP3    H129884   4.770   6.482   2.590 -0.1850  1.0376 -1.7123
 2823TIP3    H229885   4.646   6.568   2.604 -1.0144 -0.0393 -2.2928
 2824TIP3   OH229886   4.368   3.818  15.289  0.2806  0.0582  0.0716
 2824TIP3    H129887   4.460   3.810  15.314  0.0533  0.9914  1.3239
 2824TIP3    H229888   4.333   3.885  15.348 -1.5175 -1.1762  0.4901
 2825TIP3   OH229889   1.228   1.971   2.331  0.0829 -0.3498 -0.0751
 2825TIP3    H129890   1.297   1.905   2.318  0.5327  0.4940 -2.5278
 2825TIP3    H229891   1.275   2.054   2.332 -0.5769  0.0421  2.0222
 2826TIP3   OH229892   5.390   5.656   2.424 -0.1467  0.4497  0.5800
 2826TIP3    H129893   5.297   5.646   2.447 -0.6576  4.2544  0.7547
 2826TIP3    H229894   5.433   5.678   2.506  0.7172  0.0303  0.2539
 2827TIP3   OH229895   4.450   1.083   5.923  0.5122  0.0051  0.7356
 2827TIP3    H129896   4.441   0.995   5.885  0.8539  0.1726  0.2611
 2827TIP3    H229897   4.524   1.075   5.983  0.8874  0.1006  0.2917
 2828TIP3   OH229898   0.738   6.504   3.241 -0.1293 -0.3413  0.2516
 2828TIP3    H129899   0.726   6.508   3.336  0.1761 -1.5918  0.3585
 2828TIP3    H229900   0.652   6.482   3.207 -0.3325  0.4973  0.1854
 2829TIP3   OH229901   3.180   0.030   1.198 -0.3765  0.1256  0.5268
 2829TIP3    H129902   3.264  -0.016   1.201 -0.3172 -0.1722 -2.5427
 2829TIP3    H229903   3.139  -0.002   1.118 -2.0233  2.6108  0.2837
 2830TIP3   OH229904   1.496   1.841   2.602  0.0614  0.1797  0.3258
 2830TIP3    H129905   1.508   1.905   2.533  1.5459 -1.2168 -0.8057
 2830TIP3    H229906   1.553   1.768   2.577 -1.2800 -1.4337  1.7210
 2831TIP3   OH229907   5.188   4.775   0.223  0.4103 -0.1060  0.0991
 2831TIP3    H129908   5.096   4.748   0.223  0.2750  0.3490  0.3338
 2831TIP3    H229909   5.223   4.740   0.141 -0.3875  1.1312 -0.8082
 2832TIP3   OH229910   0.466   5.912   2.557 -0.4205  0.1396  0.2798
 2832TIP3    H129911   0.473   5.876   2.646 -0.9512 -1.2138 -0.2172
 2832TIP3    H229912   0.555   5.941   2.537  0.1350 -1.2912  0.5493
 2833TIP3   OH229913   0.326   1.027   3.247  0.2517 -0.1964  0.4890
 2833TIP3    H129914   0.286   0.940   3.258 -0.2230 -0.3968 -2.1889
 2833TIP3    H229915   0.418   1.009   3.230  0.9261  0.0993  3.2559
 2834TIP3   OH229916   2.047   1.083   6.045 -0.4575  0.0367 -0.1107
 2834TIP3    H129917   1.996   1.042   6.115  0.5516 -0.1479  0.5322
 2834TIP3    H229918   2.111   1.016   6.020 -1.1707 -0.1258 -1.6314
 2835TIP3   OH229919   4.797   2.480  13.451 -0.3230  0.0817 -0.2351
 2835TIP3    H129920   4.746   2.413  13.405  1.8556 -3.2586  1.7687
 2835TIP3    H229921   4.843   2.527  13.382 -2.7440  0.3187 -1.7956
 2836TIP3   OH229922   4.881   0.230   1.653 -0.0081  0.0035  0.1022
 2836TIP3    H129923   4.956   0.290   1.657 -0.3233  0.4092  0.0032
 2836TIP3    H229924   4.847   0.240   1.564 -0.0372 -0.3602  0.0695
 2837TIP3   OH229925   4.741   0.284   1.102  0.6783  0.7936 -0.5508
 2837TIP3    H129926   4.749   0.378   1.119  0.4499  0.4767  1.4773
 2837TIP3    H229927   4.651   0.263   1.126  0.4919  0.1696 -1.7186
 2838TIP3   OH229928   1.256   5.023   1.603  0.7585 -0.0761 -0.2381
 2838TIP3    H129929   1.216   5.020   1.517  1.0404  1.0429 -0.4276
 2838TIP3    H229930   1.184   5.043   1.663  0.7460  0.2964 -0.3713
 2839TIP3   OH229931   0.651   4.946   3.844 -0.8002  0.0754  0.4065
 2839TIP3    H129932   0.640   5.027   3.795  2.5845  1.3986  1.5687
 2839TIP3    H229933   0.615   4.965   3.930  0.5369  0.6193  0.8683
 2840TIP3   OH229934   4.648   3.243   1.437 -0.2402  0.0205 -0.3349
 2840TIP3    H129935   4.640   3.155   1.473  0.5109 -0.0859 -0.4278
 2840TIP3    H229936   4.670   3.229   1.345  0.8554  0.3065 -0.1210
 2841TIP3   OH229937   4.406   2.551   3.892  0.3083  0.0472 -0.6927
 2841TIP3    H129938   4.395   2.628   3.948 -0.1163 -0.2493 -0.3538
 2841TIP3    H229939   4.482   2.505   3.929 -1.2261 -1.2828  1.0404
 2842TIP3   OH229940   2.087   2.048   5.827 -0.1713 -0.2319 -0.3027
 2842TIP3    H129941   2.086   2.117   5.894 -1.4517  1.6038 -2.0835
 2842TIP3    H229942   2.059   1.969   5.873 -0.7955  0.9057  1.3682
 2843TIP3   OH229943   2.602   1.762  13.953 -0.2487 -0.0476  0.5123
 2843TIP3    H129944   2.622   1.671  13.973 -0.2894 -0.2642 -0.3951
 2843TIP3    H229945   2.665   1.812  14.006  0.3921 -0.6264  0.3166
 2844TIP3   OH229946   0.271   0.055  16.823 -0.2527  0.2674  0.3536
 2844TIP3    H129947   0.279   0.140  16.865  0.9110  0.2127  0.2684
 2844TIP3    H229948   0.231   0.073  16.737  0.6573  0.8182  0.0401
 2845TIP3   OH229949   5.461   3.506   1.447 -0.9270 -0.2646  0.4928
 2845TIP3    H129950   5.438   3.423   1.405  0.1695 -0.5051  0.3260
 2845TIP3    H229951   5.435   3.495   1.538 -1.5893 -0.4615  0.2821
 2846TIP3   OH229952   6.442   3.844  12.644  0.0232  0.0544 -0.0215
 2846TIP3    H129953   6.527   3.881  12.620  0.1359 -0.2555 -0.1089
 2846TIP3    H229954   6.463   3.778  12.710  0.0301 -1.0996 -1.1270
 2847TIP3   OH229955   3.112   4.273  11.093  0.0275 -0.1472  0.1571
 2847TIP3    H129956   3.093   4.184  11.064  2.8713 -1.7178  2.6049
 2847TIP3    H229957   3.162   4.312  11.022 -0.6048 -0.7408 -0.6317
 2848TIP3   OH229958   6.261   5.896  12.577  0.2971 -0.2527 -0.0308
 2848TIP3    H129959   6.244   5.965  12.641  1.4855 -0.1965  0.2386
 2848TIP3    H229960   6.203   5.824  12.604  0.1743  0.0773  0.6037
 2849TIP3   OH229961   1.408   0.668  13.499  0.2985 -0.2340 -0.0873
 2849TIP3    H129962   1.421   0.762  13.487  0.6151  0.0077  1.7839
 2849TIP3    H229963   1.340   0.661  13.566 -0.6551 -1.3700 -1.1457
 2850TIP3   OH229964   1.653   0.109   0.339 -0.2043 -0.5880 -0.0764
 2850TIP3    H129965   1.722   0.103   0.405 -1.2102  0.8849  1.1983
 2850TIP3    H229966   1.681   0.180   0.281 -1.3779  1.2719  1.4928
 2851TIP3   OH229967   3.828   6.326   2.350 -0.5400 -0.1109  0.2301
 2851TIP3    H129968   3.733   6.318   2.355 -0.5806 -0.5402 -0.9580
 2851TIP3    H229969   3.846   6.339   2.257  0.6279 -0.8492  0.3385
 2852TIP3   OH229970   5.214   1.000  15.152  0.1359  0.4457  0.4829
 2852TIP3    H129971   5.134   1.045  15.178 -0.1154 -1.1959  2.9280
 2852TIP3    H229972   5.202   0.982  15.059 -0.9689  2.8106  0.0935
 2853TIP3   OH229973   2.210   0.628  15.275  0.5267  0.4144  0.0739
 2853TIP3    H129974   2.248   0.686  15.341  1.1479  1.4879 -1.1861
 2853TIP3    H229975   2.274   0.556  15.268  0.3430  0.1721  0.7863
 2854TIP3   OH229976   5.861   6.577  13.927  0.0007 -0.4418  0.2194
 2854TIP3    H129977   5.873   6.594  14.021  1.8686  2.4215 -0.4354
 2854TIP3    H229978   5.903   6.492  13.914 -0.1687 -0.8400  1.9305
 2855TIP3   OH229979   3.765   2.705   1.188  0.4482  0.4229 -0.4372
 2855TIP3    H129980   3.835   2.640   1.201  0.5865  0.5844 -0.3654
 2855TIP3    H229981   3.811   2.783   1.157  0.1212  0.0420 -1.9231
 2856TIP3   OH229982   3.938   0.250   5.818  0.3450 -0.0554 -0.3843
 2856TIP3    H129983   4.006   0.240   5.885  0.1540  2.5058  0.2910
 2856TIP3    H229984   3.874   0.309   5.858 -0.9187 -0.2595 -2.0233
 2857TIP3   OH229985   0.083   1.845   2.790 -0.3110  0.2873  0.1781
 2857TIP3    H129986   0.049   1.840   2.880 -1.9746 -0.3059 -0.4442
 2857TIP3    H229987   0.065   1.759   2.753  2.2826 -0.1995 -0.1258
 2858TIP3   OH229988   0.402   4.031  13.864 -0.1462 -0.0135  0.6585
 2858TIP3    H129989   0.423   3.966  13.931 -1.4757 -1.2093 -0.0356
 2858TIP3    H229990   0.306   4.037  13.866 -0.0918  1.3833  0.1846
 2859TIP3   OH229991   3.646   1.978  13.373  0.2518  0.5915  0.3797
 2859TIP3    H129992   3.741   1.966  13.376  0.0372 -1.4642  0.3803
 2859TIP3    H229993   3.613   1.897  13.333 -1.5705  0.8140  1.3311
 2860TIP3   OH229994   4.459   2.578  11.669 -0.3395 -0.5730 -0.0054
 2860TIP3    H129995   4.523   2.507  11.664  1.2594  0.8929 -2.1850
 2860TIP3    H229996   4.375   2.534  11.684  0.7371 -2.7983 -0.0904
 2861TIP3   OH229997   5.014   2.583  16.059  0.2055 -0.0191  0.3671
 2861TIP3    H129998   5.026   2.492  16.032 -2.0095 -0.0582 -0.7346
 2861TIP3    H229999   5.031   2.582  16.153  2.7328 -1.0091 -0.0289
 2862TIP3   OH230000   6.312   3.501  15.410 -0.4232 -0.0079  0.4284
 2862TIP3    H130001   6.229   3.536  15.443 -0.8591  0.3836 -1.0326
 2862TIP3    H230002   6.333   3.555  15.334  0.5846 -0.8342  0.0897
 2863TIP3   OH230003   1.647   4.897  13.409 -0.3808  0.5995 -0.1719
 2863TIP3    H130004   1.633   4.898  13.503  1.1444 -2.2554  0.2008
 2863TIP3    H230005   1.566   4.863  13.373 -0.3707  0.0905  0.2807
 2864TIP3   OH230006   4.754   1.357  14.029 -0.1436 -0.5287  0.7358
 2864TIP3    H130007   4.774   1.450  14.037  1.4724 -0.8545  0.9146
 2864TIP3    H230008   4.705   1.349  13.947  0.7633  0.3466  0.0847
 2865TIP3   OH230009   2.696   1.357  17.157  0.7669  0.4012 -0.2183
 2865TIP3    H130010   2.744   1.440  17.163  0.3144  0.6685 -0.2744
 2865TIP3    H230011   2.687   1.341  17.063  0.5413  0.4746 -0.2108
 2866TIP3   OH230012   1.580   5.702  13.003  0.5423 -0.6057 -0.1796
 2866TIP3    H130013   1.610   5.647  13.075 -2.0668 -0.7531  0.8998
 2866TIP3    H230014   1.548   5.640  12.937 -0.2808 -0.4287  0.0471
 2867TIP3   OH230015   0.290   3.275   2.009 -0.0885 -0.0976  0.1962
 2867TIP3    H130016   0.349   3.338   2.052  0.7214 -0.1943 -0.7296
 2867TIP3    H230017   0.285   3.202   2.070 -1.0098  0.8370  1.2705
 2868TIP3   OH230018   6.756   4.429   0.017  0.2217  0.6979  0.0892
 2868TIP3    H130019   6.765   4.370   0.092  0.4358 -0.0288 -0.4982
 2868TIP3    H230020   6.814   4.392  -0.049  0.0675  1.3587 -0.4202
 2869TIP3   OH230021   0.283   0.424   5.303 -0.0822  0.1344 -0.2305
 2869TIP3    H130022   0.256   0.338   5.335 -2.2830 -0.0648 -2.3287
 2869TIP3    H230023   0.214   0.483   5.332  0.4970  0.8725 -0.3156
 2870TIP3   OH230024   0.020   6.485  11.770  0.3267 -0.4106  0.1404
 2870TIP3    H130025   0.092   6.447  11.718  0.2802  1.5363 -1.4608
 2870TIP3    H230026  -0.056   6.432  11.747  0.9787 -1.7367  0.9287
 2871TIP3   OH230027   2.295   6.562   0.786 -0.2457 -0.0340 -0.3801
 2871TIP3    H130028   2.251   6.490   0.740  0.6200 -0.6800 -0.2275
 2871TIP3    H230029   2.292   6.635   0.725 -0.9416 -0.2567 -0.6306
 2872TIP3   OH230030   4.985   4.984  12.271  0.3510  0.0088 -0.2113
 2872TIP3    H130031   5.016   5.072  12.248  0.8265  0.1984  1.0946
 2872TIP3    H230032   5.018   4.928  12.200 -0.1659  0.9036 -1.1917
 2873TIP3   OH230033   0.505   6.509   2.836 -0.1671  0.0305 -0.2164
 2873TIP3    H130034   0.424   6.494   2.884 -0.3003 -0.7535 -0.6541
 2873TIP3    H230035   0.506   6.439   2.769  1.3547 -0.6223  0.4389
 2874TIP3   OH230036   2.047   2.819   4.915  0.2205  0.0003  0.5540
 2874TIP3    H130037   2.063   2.733   4.955  0.7126 -1.1258 -1.8958
 2874TIP3    H230038   2.125   2.836   4.863 -0.3381  1.4381  0.1393
 2875TIP3   OH230039   4.104   1.320  13.065  0.0005  0.3893 -0.1409
 2875TIP3    H130040   4.114   1.268  12.985 -0.7056 -1.5362  0.9583
 2875TIP3    H230041   4.054   1.264  13.124 -0.1352  2.0504  1.4084
 2876TIP3   OH230042   6.413   5.502  11.344  0.2118  0.2670  0.1452
 2876TIP3    H130043   6.490   5.545  11.380 -0.1449  1.4322 -0.4467
 2876TIP3    H230044   6.349   5.502  11.415  0.3646  0.3151  0.2813
 2877TIP3   OH230045   3.427   2.386  13.947 -0.3542  0.2843  0.3213
 2877TIP3    H130046   3.353   2.336  13.982  1.0072 -2.2389 -0.1886
 2877TIP3    H230047   3.421   2.376  13.852  0.8477 -0.3292  0.2869
 2878TIP3   OH230048   5.568   6.178   0.030  0.1921  0.2455  0.5886
 2878TIP3    H130049   5.506   6.250   0.035 -1.3758 -0.7061 -2.6676
 2878TIP3    H230050   5.644   6.214  -0.014 -0.4201  0.0614 -0.6517
 2879TIP3   OH230051   3.260   5.555  17.370 -0.2564  0.4542 -0.2431
 2879TIP3    H130052   3.183   5.533  17.422 -0.0810  2.3693  0.8990
 2879TIP3    H230053   3.225   5.595  17.290 -0.4567  0.2899 -0.2380
 2880TIP3   OH230054   0.364   4.929   0.861 -0.4559 -0.2889  0.1709
 2880TIP3    H130055   0.414   4.911   0.940 -0.2914  0.0732  0.1509
 2880TIP3    H230056   0.362   5.025   0.854 -1.4513 -0.2835  0.3641
 2881TIP3   OH230057   2.312   4.765   4.624  1.0686 -0.4250 -0.2470
 2881TIP3    H130058   2.378   4.744   4.559  1.3100 -0.2757 -0.0524
 2881TIP3    H230059   2.361   4.807   4.695  0.8165 -0.6318  0.0527
 2882TIP3   OH230060   2.535   1.254   4.925  0.2650 -0.3214 -0.3986
 2882TIP3    H130061   2.580   1.179   4.962 -2.4648 -1.6195  0.5812
 2882TIP3    H230062   2.447   1.222   4.906 -0.6162  2.2943 -1.1712
 2883TIP3   OH230063   4.806   1.367  15.218 -0.1668  0.0900  0.2470
 2883TIP3    H130064   4.881   1.424  15.232  0.1528 -0.9247  3.2975
 2883TIP3    H230065   4.836   1.280  15.242 -1.8294 -0.6719 -0.2347
 2884TIP3   OH230066   6.697   1.117  11.530 -0.4583  0.2410  0.1357
 2884TIP3    H130067   6.695   1.085  11.620 -0.3196  1.0415  0.4271
 2884TIP3    H230068   6.648   1.199  11.532 -0.4834  0.2501 -0.5258
 2885TIP3   OH230069   6.631   6.672  15.662 -0.1846  0.1075  0.4764
 2885TIP3    H130070   6.658   6.763  15.674 -1.7278  0.6824 -0.1056
 2885TIP3    H230071   6.677   6.624  15.731  0.2280  1.4131  1.1480
 2886TIP3   OH230072   0.576   6.498   2.037  0.4349 -0.5659  0.0812
 2886TIP3    H130073   0.491   6.537   2.057  0.9953 -0.1828  1.8715
 2886TIP3    H230074   0.630   6.572   2.010  0.4248 -0.7030 -0.3276
 2887TIP3   OH230075   1.022   1.526   4.845  0.5448 -0.3644  0.2212
 2887TIP3    H130076   0.971   1.460   4.891 -1.3042  0.6058 -0.3527
 2887TIP3    H230077   0.997   1.609   4.886 -0.4231  0.4161 -1.7997
 2888TIP3   OH230078   1.872   2.016   1.962 -0.3397  0.0787  0.4259
 2888TIP3    H130079   1.931   2.019   1.887  1.1348  0.6991  1.5808
 2888TIP3    H230080   1.831   1.929   1.956 -0.5094  0.2245 -1.2480
 2889TIP3   OH230081   6.637   0.198   5.113 -0.1545  0.0927  0.0929
 2889TIP3    H130082   6.635   0.290   5.090  1.4979  0.1197 -0.0151
 2889TIP3    H230083   6.725   0.183   5.147 -0.5871 -1.3096  0.6777
 2890TIP3   OH230084   6.375   4.075  14.173  0.4569  0.5874  0.3217
 2890TIP3    H130085   6.440   4.060  14.104  0.2850  2.7491 -0.3703
 2890TIP3    H230086   6.291   4.080  14.126 -0.3458 -2.3553  1.2227
 2891TIP3   OH230087   2.126   0.498   0.296  0.0197  0.1254 -0.3236
 2891TIP3    H130088   2.038   0.512   0.331  0.0130 -0.4428 -0.1082
 2891TIP3    H230089   2.184   0.505   0.372 -0.1443 -2.9308  0.2303
 2892TIP3   OH230090   2.150   0.759  13.392 -0.1407  0.2921  0.3409
 2892TIP3    H130091   2.208   0.748  13.316  0.1813  1.5150  0.3888
 2892TIP3    H230092   2.147   0.673  13.433  0.0746 -0.2655 -0.7827
 2893TIP3   OH230093   2.693   2.652   6.806  0.1117 -0.1458  0.2912
 2893TIP3    H130094   2.598   2.645   6.815  0.2477  0.3264  3.1123
 2893TIP3    H230095   2.707   2.731   6.755 -1.0391  1.1638  1.9203
 2894TIP3   OH230096   2.715   3.941   6.025  0.0201  0.2744 -0.0032
 2894TIP3    H130097   2.767   3.950   6.104 -1.2325 -0.4814  0.9371
 2894TIP3    H230098   2.749   3.862   5.982 -0.9164 -0.7634  1.0905
 2895TIP3   OH230099   5.618   3.177  16.217  0.0487 -0.2983 -0.7024
 2895TIP3    H130100   5.550   3.146  16.276  1.0423  0.2644  0.8110
 2895TIP3    H230101   5.618   3.273  16.228  1.1580 -0.2979 -0.5453
 2896TIP3   OH230102   2.915   2.135   0.452  0.0573  1.4107 -0.1944
 2896TIP3    H130103   2.875   2.202   0.396 -1.5128 -0.2362 -1.1493
 2896TIP3    H230104   2.860   2.133   0.531 -1.2085 -0.1221 -1.0563
 2897TIP3   OH230105   6.115   3.709  16.685  0.3500 -0.5427  0.3355
 2897TIP3    H130106   6.208   3.692  16.672  0.3412  0.1049 -0.7432
 2897TIP3    H230107   6.111   3.800  16.715  0.2203 -1.4080  3.1511
 2898TIP3   OH230108   4.180   6.048   5.017 -0.1393 -0.0361 -0.5920
 2898TIP3    H130109   4.246   5.979   5.009  0.6943  0.6604  0.1776
 2898TIP3    H230110   4.190   6.081   5.106 -0.0751  1.5457 -1.1584
 2899TIP3   OH230111   6.259   3.743   4.784  0.1241 -0.3371  0.0555
 2899TIP3    H130112   6.186   3.698   4.741  0.0982  0.3043 -0.5968
 2899TIP3    H230113   6.333   3.728   4.726  0.1107  0.4586 -0.1786
 2900TIP3   OH230114   4.421   0.098  13.586  0.0203 -0.3126 -0.3935
 2900TIP3    H130115   4.515   0.080  13.581  0.0609  0.1707 -1.5805
 2900TIP3    H230116   4.416   0.190  13.612 -0.1165 -0.2234 -0.7314
 2901TIP3   OH230117   3.614   6.053  16.217  0.1967 -0.3935 -0.2071
 2901TIP3    H130118   3.545   6.102  16.263  1.0685 -0.7253  1.5278
 2901TIP3    H230119   3.682   6.041  16.283  1.5850 -0.7665 -1.6658
 2902TIP3   OH230120   0.016   6.218  15.623  0.2632  0.2312  0.6308
 2902TIP3    H130121   0.093   6.170  15.592 -0.7631 -1.2413  0.2101
 2902TIP3    H230122  -0.023   6.255  15.544 -1.4260 -2.1204  0.2245
 2903TIP3   OH230123   1.963   0.058  17.089 -0.1142 -0.0689  0.3353
 2903TIP3    H130124   1.955   0.072  16.995 -1.2196  0.7619  0.5343
 2903TIP3    H230125   1.917  -0.025  17.105 -0.2985  0.0047  0.1913
 2904TIP3   OH230126   5.526   6.540   4.976 -0.0917 -0.0301  0.2979
 2904TIP3    H130127   5.444   6.557   5.021  0.5104  0.3425  1.2866
 2904TIP3    H230128   5.506   6.468   4.916 -1.1372  0.0817  0.4988
 2905TIP3   OH230129   4.166   6.617  11.072 -0.3462  0.4341  0.2255
 2905TIP3    H130130   4.128   6.560  11.005 -2.8919 -0.1668  2.0246
 2905TIP3    H230131   4.260   6.603  11.064 -0.6693 -1.0024 -1.9859
 2906TIP3   OH230132   5.219   5.859   3.946  0.5359  0.2385  0.0008
 2906TIP3    H130133   5.262   5.824   4.024  1.9945  0.8827 -0.4749
 2906TIP3    H230134   5.126   5.860   3.968  0.8741 -0.0194  1.5557
 2907TIP3   OH230135   1.929   0.818   3.164  0.1946 -0.1673 -0.6250
 2907TIP3    H130136   2.022   0.811   3.141  0.0267  2.6053 -2.6704
 2907TIP3    H230137   1.882   0.797   3.083 -0.8258  1.0119 -0.3772
 2908TIP3   OH230138   2.636   6.035   4.519  0.1546 -0.6654 -0.1952
 2908TIP3    H130139   2.591   5.954   4.495  2.0696 -1.4191 -1.5426
 2908TIP3    H230140   2.584   6.105   4.478 -1.6464 -1.1377  1.1812
 2909TIP3   OH230141   3.333   6.355   0.270 -0.5421 -0.2054 -0.1416
 2909TIP3    H130142   3.289   6.299   0.206 -1.9597  2.7179 -1.9095
 2909TIP3    H230143   3.394   6.408   0.219  0.5488  0.1255  1.4050
 2910TIP3   OH230144   2.153   5.521  11.998  0.3834 -0.8133  0.0826
 2910TIP3    H130145   2.164   5.467  11.920 -0.4979 -0.9125  0.0147
 2910TIP3    H230146   2.206   5.479  12.065  0.2918 -1.3374 -0.1743
 2911TIP3   OH230147   1.358   0.837   4.120 -0.2576 -0.4630  0.0505
 2911TIP3    H130148   1.383   0.767   4.060 -1.6772 -0.4622 -0.5894
 2911TIP3    H230149   1.268   0.859   4.096 -0.1575  0.9779  0.8184
 2912TIP3   OH230150   0.986   5.378   5.272  0.6424  0.2000  0.4937
 2912TIP3    H130151   0.965   5.310   5.337 -0.9136 -0.9156 -1.0649
 2912TIP3    H230152   1.072   5.354   5.239  0.6859 -0.2407  0.9129
 2913TIP3   OH230153   6.688   5.634  15.501 -0.2402  0.1598 -0.1042
 2913TIP3    H130154   6.699   5.567  15.434  1.8855  1.2610 -0.9735
 2913TIP3    H230155   6.766   5.626  15.557 -0.8654  0.7153  0.8936
 2914TIP3   OH230156   3.975   4.041   1.498  0.3871  0.2526 -0.0341
 2914TIP3    H130157   3.992   4.002   1.413 -1.5815  0.2673 -0.4755
 2914TIP3    H230158   4.057   4.030   1.546  0.7902 -1.8898 -1.0939
 2915TIP3   OH230159   2.226   2.013   6.932 -0.0852 -0.4384  0.4196
 2915TIP3    H130160   2.246   1.975   6.847 -1.1438  1.0081 -0.5154
 2915TIP3    H230161   2.198   1.939   6.986 -0.5973 -1.1895 -0.8497
 2916TIP3   OH230162   4.228   1.081  17.346  0.0395 -0.3469 -0.1161
 2916TIP3    H130163   4.177   1.162  17.355 -1.2258 -0.9633 -1.4282
 2916TIP3    H230164   4.309   1.109  17.303 -0.7245  0.1208 -1.2913
 2917TIP3   OH230165   5.039   3.689  15.882 -0.4775 -0.3501  0.0469
 2917TIP3    H130166   5.045   3.785  15.887  0.8788 -0.4741  1.8578
 2917TIP3    H230167   5.109   3.658  15.939 -1.0060 -2.4467 -0.3694
 2918TIP3   OH230168   1.598   0.762   1.828  0.4786  0.0346  0.6180
 2918TIP3    H130169   1.552   0.680   1.839  1.8162 -0.9180 -0.5299
 2918TIP3    H230170   1.598   0.777   1.734 -0.7943  2.0166  0.8712
 2919TIP3   OH230171   4.101   3.883  12.951  0.3563  0.0469 -0.3822
 2919TIP3    H130172   4.023   3.928  12.917  0.0444  0.4357  0.8043
 2919TIP3    H230173   4.096   3.795  12.915 -1.3208 -0.3223  0.6878
 2920TIP3   OH230174   1.161   6.505   2.453  0.3168 -0.1551 -0.1944
 2920TIP3    H130175   1.073   6.483   2.422  0.2252  1.0950 -0.8790
 2920TIP3    H230176   1.150   6.589   2.498  1.0633 -0.3041  0.2842
 2921TIP3   OH230177   1.564   5.372   4.564  0.1111 -0.0859 -0.4957
 2921TIP3    H130178   1.606   5.319   4.497  1.2452  0.2051 -0.0509
 2921TIP3    H230179   1.594   5.334   4.647 -1.0836 -0.3002 -0.1512
 2922TIP3   OH230180   6.482   3.072   2.260  0.3727 -0.3207 -0.3574
 2922TIP3    H130181   6.467   3.166   2.274  1.2619 -0.2166 -0.0414
 2922TIP3    H230182   6.481   3.035   2.349 -1.2174 -0.8218 -0.5535
 2923TIP3   OH230183   6.503   3.959  17.246  0.5337  0.6818  0.6770
 2923TIP3    H130184   6.467   4.043  17.275 -0.1968  0.4048  0.5849
 2923TIP3    H230185   6.498   3.902  17.323 -0.7700  0.1548  0.2357
 2924TIP3   OH230186   1.126   6.552  16.190 -0.0430 -0.7756  0.2041
 2924TIP3    H130187   1.036   6.521  16.182 -0.6481  0.7488  0.7932
 2924TIP3    H230188   1.139   6.609  16.114  0.3789 -0.8864  0.1889
 2925TIP3   OH230189   5.189   5.085   0.544  0.5188  0.2337  0.3135
 2925TIP3    H130190   5.218   5.175   0.528  1.3654 -0.0191  0.3944
 2925TIP3    H230191   5.258   5.030   0.507  0.8654 -0.3806  1.8014
 2926TIP3   OH230192   4.994   4.090  12.282 -0.5369  0.3100  0.1482
 2926TIP3    H130193   5.050   4.157  12.320  0.7485 -0.1931 -0.7936
 2926TIP3    H230194   5.020   4.086  12.190 -0.5101 -1.5240  0.1989
 2927TIP3   OH230195   2.573   0.465   3.535  0.0736 -0.1814 -0.1913
 2927TIP3    H130196   2.518   0.508   3.470  0.4877 -0.2227 -0.5743
 2927TIP3    H230197   2.609   0.388   3.490  3.0428  1.5587 -1.0692
 2928TIP3   OH230198   3.623   3.515   1.077 -0.4388  0.0974  0.4025
 2928TIP3    H130199   3.568   3.570   1.022 -0.8893  0.5503  1.2925
 2928TIP3    H230200   3.708   3.513   1.032 -0.5596  1.1188  0.1094
 2929TIP3   OH230201   3.814   4.860   3.134  0.6985  0.3692 -0.3424
 2929TIP3    H130202   3.782   4.777   3.170 -0.7606  0.5413 -1.1972
 2929TIP3    H230203   3.781   4.926   3.195  2.3656  0.3224  0.6763
 2930TIP3   OH230204   5.130   2.012  13.325 -0.2869 -0.0642 -0.1197
 2930TIP3    H130205   5.035   2.014  13.311 -0.6365 -2.2453  1.3434
 2930TIP3    H230206   5.140   1.968  13.410  1.9712  2.4060  1.0363
 2931TIP3   OH230207   0.132   3.715  12.574  0.0337  0.4733  0.1853
 2931TIP3    H130208   0.175   3.629  12.577  0.5695  0.7216 -0.2097
 2931TIP3    H230209   0.041   3.695  12.553  0.5548  0.1021 -1.9449
 2932TIP3   OH230210   2.144   4.377  13.944 -0.2796  0.0352  0.4015
 2932TIP3    H130211   2.072   4.419  13.897  0.4676  0.2983 -0.5277
 2932TIP3    H230212   2.174   4.444  14.006 -1.1903 -0.2737  1.2053
 2933TIP3   OH230213   5.680   2.960  10.964 -0.1220 -0.1256  0.2574
 2933TIP3    H130214   5.621   2.988  11.034 -1.0807 -0.4536 -0.3902
 2933TIP3    H230215   5.644   2.999  10.885  0.7025 -0.1036 -0.1180
 2934TIP3   OH230216   4.396   3.915   2.033 -0.1805  0.0037  1.2412
 2934TIP3    H130217   4.311   3.952   2.055  0.0768  0.4914  1.4276
 2934TIP3    H230218   4.448   3.990   2.003 -0.3370 -0.5286 -0.5049
 2935TIP3   OH230219   0.727   0.474  16.885 -0.1953 -0.4180  0.2749
 2935TIP3    H130220   0.656   0.424  16.843 -1.5182  1.4635  0.1124
 2935TIP3    H230221   0.794   0.480  16.817 -0.4175 -1.1771 -0.0235
 2936TIP3   OH230222   1.371   5.714  14.927  0.2487 -0.5734  0.0358
 2936TIP3    H130223   1.435   5.759  14.872  0.1866 -1.7513 -1.0274
 2936TIP3    H230224   1.404   5.725  15.016  1.5354 -0.5535 -0.4323
 2937TIP3   OH230225   3.440   1.977   3.782  0.0943 -0.2202 -0.4416
 2937TIP3    H130226   3.370   1.926   3.741  0.3200 -0.3315 -0.6883
 2937TIP3    H230227   3.431   2.065   3.743 -0.8825  0.1958  0.6674
 2938TIP3   OH230228   3.240   2.413   1.026  0.4099 -0.6968 -0.5130
 2938TIP3    H130229   3.290   2.493   1.006 -0.4523 -0.3108 -1.1828
 2938TIP3    H230230   3.255   2.357   0.950 -0.6114 -0.3542 -0.9817
 2939TIP3   OH230231   4.609   3.943   0.039  0.3004 -0.5438 -0.1454
 2939TIP3    H130232   4.690   3.925   0.085  0.5950 -0.1297 -0.4960
 2939TIP3    H230233   4.556   3.993   0.101 -0.2688 -1.9881  0.6027
 2940TIP3   OH230234   6.197   1.711   4.780 -0.5942 -0.2193 -0.0864
 2940TIP3    H130235   6.129   1.745   4.838 -0.3604 -1.8957  1.2261
 2940TIP3    H230236   6.277   1.755   4.808 -0.5196 -0.8740  0.7608
 2941TIP3   OH230237   5.421   3.018  16.349  0.0883  0.2635 -0.8589
 2941TIP3    H130238   5.386   2.990  16.433  0.8714 -0.0434 -0.6240
 2941TIP3    H230239   5.353   3.072  16.311 -0.7832 -0.6011 -0.5723
 2942TIP3   OH230240   1.278   2.901   5.022  0.4046 -0.5518 -0.3720
 2942TIP3    H130241   1.248   2.988   4.994 -0.7094  0.0372  2.3250
 2942TIP3    H230242   1.202   2.844   5.006 -0.3820 -0.1344  1.5843
 2943TIP3   OH230243   4.218   3.730  14.299 -0.0051 -0.8188 -0.0459
 2943TIP3    H130244   4.207   3.806  14.355 -1.0369 -0.6265 -0.4916
 2943TIP3    H230245   4.134   3.720  14.255 -0.2565 -2.8466  0.7813
 2944TIP3   OH230246   5.275   6.183   5.530 -0.4288  0.0016  0.1016
 2944TIP3    H130247   5.192   6.218   5.498  0.0891  0.1536 -1.1395
 2944TIP3    H230248   5.250   6.122   5.600 -1.7071 -1.0114 -1.1788
 2945TIP3   OH230249   3.272   0.357  15.721 -0.4562 -0.1067  0.0487
 2945TIP3    H130250   3.353   0.310  15.700 -0.5026 -0.0653 -0.2201
 2945TIP3    H230251   3.231   0.373  15.637  0.9759  3.0020 -0.2030
 2946TIP3   OH230252   1.347   4.353  11.492  0.0240  0.2921 -0.4566
 2946TIP3    H130253   1.308   4.402  11.565 -0.7463  0.9353 -1.2731
 2946TIP3    H230254   1.301   4.269  11.493 -0.3332  0.4816 -0.4835
 2947TIP3   OH230255   1.912   4.307   2.590  0.4343  0.1993  0.3192
 2947TIP3    H130256   1.957   4.386   2.560 -1.3856  1.0710 -0.2439
 2947TIP3    H230257   1.980   4.257   2.634  2.2255  0.9232 -1.4323
 2948TIP3   OH230258   3.466   5.228  11.344  0.3612 -0.5614  0.4004
 2948TIP3    H130259   3.469   5.306  11.400 -2.2964 -0.4584  0.5635
 2948TIP3    H230260   3.541   5.236  11.286 -0.0345  2.3575  0.1558
 2949TIP3   OH230261   5.364   3.799  16.177  0.0440  0.2267  0.3279
 2949TIP3    H130262   5.301   3.729  16.163 -0.4443  0.1617  2.4254
 2949TIP3    H230263   5.425   3.764  16.243  1.2209  0.9205 -0.3476
 2950TIP3   OH230264   4.161   4.563  15.474 -0.6560  0.5283  0.6081
 2950TIP3    H130265   4.178   4.656  15.458  1.8312  0.1081  0.4936
 2950TIP3    H230266   4.208   4.518  15.404 -0.5537 -0.8720  1.5413
 2951TIP3   OH230267   5.398   5.300  16.311  0.4425  0.4953  0.1083
 2951TIP3    H130268   5.370   5.339  16.394  0.5367  1.5196 -0.3196
 2951TIP3    H230269   5.436   5.373  16.263  1.4510 -0.3191 -0.3769
 2952TIP3   OH230270   0.614   4.739   5.205  0.1836  0.4151  0.2374
 2952TIP3    H130271   0.577   4.820   5.239 -0.3359  0.6232 -0.7635
 2952TIP3    H230272   0.677   4.767   5.139 -1.1155  0.0257 -1.2302
 2953TIP3   OH230273   1.650   1.941   6.525 -0.2996  0.1047  0.6201
 2953TIP3    H130274   1.719   1.889   6.565 -0.0870  1.5168  2.2226
 2953TIP3    H230275   1.588   1.957   6.596 -0.2614  2.1503  0.2472
 2954TIP3   OH230276   2.073   5.271  15.408 -0.6127  0.3713 -0.0665
 2954TIP3    H130277   2.059   5.301  15.498  0.4141  0.6498  0.0147
 2954TIP3    H230278   2.004   5.314  15.358  0.6085  2.6828  0.1062
 2955TIP3   OH230279   2.759   6.434  17.296  0.1212 -0.0709  0.5102
 2955TIP3    H130280   2.693   6.455  17.361  0.3020 -1.6138  1.2100
 2955TIP3    H230281   2.783   6.343  17.312  0.0743 -0.5643 -1.8006
 2956TIP3   OH230282   2.874   3.080   1.392 -0.0595 -0.4281 -0.1070
 2956TIP3    H130283   2.904   3.135   1.464 -0.3514 -4.8822  3.8465
 2956TIP3    H230284   2.922   2.998   1.402 -0.4720 -1.5546 -4.8612
 2957TIP3   OH230285   4.109   3.759   1.406 -0.2421 -0.2108  0.4452
 2957TIP3    H130286   4.181   3.822   1.397  1.4122 -2.2519 -2.5603
 2957TIP3    H230287   4.118   3.724   1.494  1.1384  1.0902  0.8621
 2958TIP3   OH230288   2.120   2.449  13.718 -0.1153  0.6766 -0.3722
 2958TIP3    H130289   2.162   2.439  13.804 -0.7017  0.4260 -0.1052
 2958TIP3    H230290   2.193   2.451  13.656  0.2626 -0.7194 -0.0080
 2959TIP3   OH230291   1.976   5.691   3.796 -0.8113  0.2045  0.3163
 2959TIP3    H130292   1.887   5.705   3.829 -1.1430  1.1971 -0.9018
 2959TIP3    H230293   2.007   5.779   3.775  1.0197  0.0391  2.0397
 2960TIP3   OH230294   4.254   0.096  14.217 -0.0282 -0.1488  0.1633
 2960TIP3    H130295   4.323   0.032  14.201 -0.5727 -0.4932 -0.8670
 2960TIP3    H230296   4.245   0.144  14.135  0.2244  1.1296  0.8537
 2961TIP3   OH230297   1.040   6.061  11.594  0.0197  0.1951 -0.1296
 2961TIP3    H130298   1.050   5.968  11.575 -0.9647 -0.3338  1.7296
 2961TIP3    H230299   1.069   6.105  11.514 -0.1940 -1.7193 -1.3203
 2962TIP3   OH230300   2.170   5.325   5.778 -0.1262 -0.1430 -1.0200
 2962TIP3    H130301   2.075   5.324   5.786 -0.1034  0.9013 -0.4542
 2962TIP3    H230302   2.202   5.324   5.869  0.4026 -0.3268 -1.2040
 2963TIP3   OH230303   3.316   6.326   5.820  0.0178  0.3095  0.1131
 2963TIP3    H130304   3.290   6.241   5.784 -0.1870 -0.1815  1.3382
 2963TIP3    H230305   3.234   6.362   5.855  0.2222  0.7051  0.1801
 2964TIP3   OH230306   4.365   3.879   5.081 -0.1540 -0.2990 -0.4021
 2964TIP3    H130307   4.302   3.946   5.105  0.0838 -0.0901 -0.3606
 2964TIP3    H230308   4.350   3.865   4.987 -2.1752 -2.2580  0.1275
 2965TIP3   OH230309   1.442   5.497   3.999  0.2807 -0.1648 -0.6526
 2965TIP3    H130310   1.355   5.473   4.031  0.2664 -0.1099 -0.6499
 2965TIP3    H230311   1.426   5.532   3.911  0.3281 -0.3852 -0.7478
 2966TIP3   OH230312   3.781   3.011  11.661  0.0866 -0.0963  0.2494
 2966TIP3    H130313   3.765   2.921  11.632 -2.9266  1.6356 -4.5956
 2966TIP3    H230314   3.871   3.029  11.634  1.2528 -1.8934  2.5810
 2967TIP3   OH230315   3.176   1.313  15.086 -0.2712 -0.1432 -0.4353
 2967TIP3    H130316   3.236   1.324  15.159  0.0807 -0.5441 -0.6608
 2967TIP3    H230317   3.226   1.337  15.009 -0.5228 -0.0877 -0.5841
 2968TIP3   OH230318   6.629   6.650   5.691  0.0870 -0.9549  0.1316
 2968TIP3    H130319   6.682   6.706   5.747  0.1843  1.0161 -1.8082
 2968TIP3    H230320   6.690   6.582   5.660  0.6343 -0.6235  0.4656
 2969TIP3   OH230321   0.815   3.195  13.202 -0.2411  0.3227  0.7888
 2969TIP3    H130322   0.855   3.250  13.269  0.3038 -0.6645  1.3077
 2969TIP3    H230323   0.868   3.210  13.123 -0.3688  0.8650  0.8074
 2970TIP3   OH230324   6.598   2.681  15.697  0.0442 -0.4019 -0.1032
 2970TIP3    H130325   6.600   2.724  15.612 -1.3017 -1.8371 -0.8967
 2970TIP3    H230326   6.508   2.691  15.727  0.6967  0.9118  1.6472
 2971TIP3   OH230327   2.111   1.339   5.958  0.1812 -0.9487 -0.4357
 2971TIP3    H130328   2.052   1.264   5.964 -0.0388 -0.7247  0.2578
 2971TIP3    H230329   2.188   1.314   6.009 -0.6557 -0.0091  1.3772
 2972TIP3   OH230330   4.231   6.479   4.023 -0.5119  0.0301 -0.2037
 2972TIP3    H130331   4.203   6.538   3.954 -0.2635 -0.8207 -1.0586
 2972TIP3    H230332   4.284   6.533   4.082  0.0381  0.5664 -1.1737
 2973TIP3   OH230333   5.057   3.190  12.564  0.2648  0.2028  0.5358
 2973TIP3    H130334   5.014   3.114  12.603  0.1561  0.6524  1.3105
 2973TIP3    H230335   5.041   3.181  12.470 -0.0759 -0.5249  0.6550
 2974TIP3   OH230336   0.122   1.881  14.602  0.6399 -0.1409  0.0814
 2974TIP3    H130337   0.174   1.880  14.682 -0.7094 -0.7001  1.0047
 2974TIP3    H230338   0.107   1.788  14.583 -0.2268  0.0070  0.0030
 2975TIP3   OH230339   6.407   2.158   4.280 -0.0386  0.4905  1.0458
 2975TIP3    H130340   6.380   2.204   4.201  1.6894  2.0124  1.2704
 2975TIP3    H230341   6.352   2.195   4.350  0.6344  1.5100  1.0543
 2976TIP3   OH230342   2.195   3.672   5.469 -0.0961  0.2722  0.4463
 2976TIP3    H130343   2.164   3.583   5.456  2.7711 -0.6697 -0.5702
 2976TIP3    H230344   2.115   3.723   5.486 -1.9437 -2.2096 -0.2792
 2977TIP3   OH230345   5.650   3.423   1.195 -0.5228  0.0011  0.0667
 2977TIP3    H130346   5.575   3.363   1.201 -0.3272 -0.1603  1.0755
 2977TIP3    H230347   5.613   3.504   1.160 -1.5812  0.5331  2.2162
 2978TIP3   OH230348   3.275   2.357   4.503 -0.3695  1.0946 -0.4764
 2978TIP3    H130349   3.261   2.403   4.420 -0.4446 -0.7322 -1.5250
 2978TIP3    H230350   3.363   2.321   4.496 -0.1951  1.3011  0.4524
 2979TIP3   OH230351   1.261   2.486   2.546  0.2562 -0.0174  0.1329
 2979TIP3    H130352   1.223   2.476   2.459  1.3307  1.7006 -0.5903
 2979TIP3    H230353   1.355   2.470   2.533  0.8436  2.7321  0.3869
 2980TIP3   OH230354   1.663   1.817   4.677  0.1724  0.9390 -0.5942
 2980TIP3    H130355   1.609   1.855   4.608 -1.0385  0.0049 -0.1932
 2980TIP3    H230356   1.609   1.748   4.715  0.7410  1.5163  1.3995
 2981TIP3   OH230357   5.050   5.830   5.877  0.3745 -0.2496  0.1276
 2981TIP3    H130358   5.137   5.855   5.905 -0.1724  0.8354  0.9057
 2981TIP3    H230359   5.058   5.818   5.782  0.9283  1.8467 -0.1363
 2982TIP3   OH230360   0.230   5.511   3.956  0.0054  0.1917 -0.0999
 2982TIP3    H130361   0.298   5.456   3.995  0.8050  0.1490 -1.5006
 2982TIP3    H230362   0.201   5.567   4.028  0.5597 -0.7184  0.8597
 2983TIP3   OH230363   0.211   0.134  16.206 -0.7926 -0.0889 -0.1947
 2983TIP3    H130364   0.293   0.095  16.238 -0.7871  1.0367  1.3194
 2983TIP3    H230365   0.185   0.079  16.133 -0.5269 -2.5953  1.4813
 2984TIP3   OH230366   1.472   1.105  16.722 -0.2024 -0.2533  0.0446
 2984TIP3    H130367   1.509   1.042  16.660 -0.4379 -0.0395 -0.3156
 2984TIP3    H230368   1.394   1.062  16.757  0.1767 -0.5509  0.5216
 2985TIP3   OH230369   2.059   5.234  16.521 -0.2485 -0.4281  0.8306
 2985TIP3    H130370   2.124   5.297  16.555 -0.8198 -0.2281  1.5855
 2985TIP3    H230371   1.979   5.253  16.571 -1.4558  0.5724 -1.3580
 2986TIP3   OH230372   2.471   0.859  13.555  0.1635 -0.2813  0.1404
 2986TIP3    H130373   2.567   0.859  13.547  0.2249  0.0955  0.7784
 2986TIP3    H230374   2.441   0.918  13.486  0.3508 -0.8716 -0.4499
 2987TIP3   OH230375   2.005   0.648   1.219 -0.4162  0.4119  0.3377
 2987TIP3    H130376   1.962   0.733   1.212 -0.7575  0.2245  0.1232
 2987TIP3    H230377   2.098   0.668   1.221 -0.3214  0.6776 -2.5895
 2988TIP3   OH230378   2.275   1.148   1.806 -0.7075 -1.1735 -0.1901
 2988TIP3    H130379   2.238   1.156   1.893 -2.4539  0.7779 -1.0317
 2988TIP3    H230380   2.358   1.195   1.810 -0.9121 -0.8560  0.3365
 2989TIP3   OH230381   5.306   2.077  11.695  0.6444 -0.3246 -0.1671
 2989TIP3    H130382   5.215   2.046  11.695 -0.1102  1.5722 -2.1201
 2989TIP3    H230383   5.306   2.151  11.756  1.2530 -1.1418  0.8541
 2990TIP3   OH230384   0.312   2.635  15.023  0.2675 -0.2616 -0.2662
 2990TIP3    H130385   0.268   2.569  15.077  0.1992 -1.0611 -1.2658
 2990TIP3    H230386   0.248   2.659  14.956  0.2702  0.8790  0.1216
 2991TIP3   OH230387   1.188   5.844  15.222  0.0111  0.1493  0.2407
 2991TIP3    H130388   1.273   5.882  15.203  0.5462 -0.5134  1.2447
 2991TIP3    H230389   1.128   5.919  15.221  0.7930  0.7970  0.6925
 2992TIP3   OH230390   0.067   3.945   3.169  0.7141  0.0409 -0.1369
 2992TIP3    H130391   0.024   4.009   3.225 -2.7851 -1.7757 -0.4469
 2992TIP3    H230392   0.059   3.981   3.080 -0.8427 -0.5202 -0.2598
 2993TIP3   OH230393   1.943   2.012   3.695  0.4904  0.4088  0.5484
 2993TIP3    H130394   1.874   1.953   3.663  0.5783  1.3013 -1.4692
 2993TIP3    H230395   2.018   1.993   3.639  1.6298  0.0915  2.1280
 2994TIP3   OH230396   1.795   6.157  11.864 -0.0322  0.3369 -0.2074
 2994TIP3    H130397   1.718   6.100  11.861  0.1721  0.0799 -0.9802
 2994TIP3    H230398   1.813   6.176  11.772  0.5850  0.7226 -0.0086
 2995TIP3   OH230399   1.173   2.719  16.917 -0.3864  0.4755 -0.2577
 2995TIP3    H130400   1.087   2.682  16.936 -0.2171  0.0644 -0.2639
 2995TIP3    H230401   1.215   2.729  17.002 -0.9514  1.9913 -0.1324
 2996TIP3   OH230402   3.480   1.900  16.179 -0.0142  0.2534  0.1429
 2996TIP3    H130403   3.457   1.875  16.089 -0.4979  1.7063 -0.1571
 2996TIP3    H230404   3.571   1.926  16.174  0.1014 -0.1274  0.1888
 2997TIP3   OH230405   5.561   1.937   3.301  0.1571 -0.3717 -0.7317
 2997TIP3    H130406   5.591   2.009   3.246  1.7819  0.6655  1.3680
 2997TIP3    H230407   5.475   1.964   3.332 -0.2435 -0.4177 -1.7707
 2998TIP3   OH230408   1.888   5.522  12.076 -0.0165 -0.5753  0.5489
 2998TIP3    H130409   1.865   5.570  12.156  1.2470 -0.4903  0.8893
 2998TIP3    H230410   1.982   5.534  12.067 -0.3511  0.9174 -1.9457
 2999TIP3   OH230411   0.496   4.166   0.125 -0.4400  0.4482 -0.6353
 2999TIP3    H130412   0.531   4.230   0.187 -1.3047 -1.2149  1.7318
 2999TIP3    H230413   0.408   4.198   0.105  0.0474  1.2916 -1.5274
 3000TIP3   OH230414   0.769   3.557  12.262 -0.2353 -0.2676 -0.6849
 3000TIP3    H130415   0.850   3.601  12.288  1.3124 -2.8537 -0.7075
 3000TIP3    H230416   0.714   3.558  12.340  0.3455  0.4265 -0.2762
 3001TIP3   OH230417   4.303   0.369   5.912  0.0435 -0.0346  0.4127
 3001TIP3    H130418   4.282   0.461   5.927 -0.8557 -0.2732  0.7017
 3001TIP3    H230419   4.333   0.337   5.997 -0.7864 -0.2965  0.6104
 3002TIP3   OH230420   6.318   0.165   0.486 -0.1089  0.3206  0.0298
 3002TIP3    H130421   6.332   0.172   0.580 -1.4077  2.1694  0.1336
 3002TIP3    H230422   6.368   0.237   0.448  1.1931 -0.9823 -0.8273
 3003TIP3   OH230423   5.438   0.492   2.593  0.6706  0.2604 -0.1538
 3003TIP3    H130424   5.469   0.581   2.611 -0.8749  0.9050 -0.4766
 3003TIP3    H230425   5.354   0.486   2.639  0.9499 -1.2033  0.2233
 3004TIP3   OH230426   4.156   5.066   5.484 -0.2150  0.2602  0.1686
 3004TIP3    H130427   4.216   5.132   5.518 -1.5725  0.2887  2.8769
 3004TIP3    H230428   4.073   5.085   5.529 -2.8259  1.1891 -4.4696
 3005TIP3   OH230429   3.012   5.344  13.990 -0.3010  0.0816  0.0714
 3005TIP3    H130430   2.994   5.262  14.037  0.6764  0.5223  1.2646
 3005TIP3    H230431   3.040   5.405  14.059 -0.5914  1.2988 -0.8565
 3006TIP3   OH230432   2.840   2.736  12.841  1.0671  0.2841 -0.7803
 3006TIP3    H130433   2.848   2.642  12.828  0.8249  0.1666 -0.0769
 3006TIP3    H230434   2.798   2.768  12.761  2.1425 -0.0428 -1.5000
 3007TIP3   OH230435   1.746   1.120   3.261 -0.5832  0.5977 -0.2423
 3007TIP3    H130436   1.790   1.198   3.292  2.3772  0.0261 -2.5883
 3007TIP3    H230437   1.714   1.144   3.174  0.6360 -0.8374 -1.1195
 3008TIP3   OH230438   1.389   5.948  11.471  0.0696  0.5824  0.4802
 3008TIP3    H130439   1.293   5.954  11.470  0.0253  0.4818 -2.2643
 3008TIP3    H230440   1.407   5.855  11.461  0.5125  0.5325  1.5467
 3009TIP3   OH230441   5.169   3.779  11.284  0.3920  0.2512  0.0568
 3009TIP3    H130442   5.230   3.718  11.241  0.5592 -0.6552  1.5181
 3009TIP3    H230443   5.209   3.797  11.369 -0.7072  0.7539  0.4799
 3010TIP3   OH230444   3.776   2.451  16.179  0.0653  0.9254  0.7888
 3010TIP3    H130445   3.691   2.443  16.135  1.4999  1.8467 -2.4319
 3010TIP3    H230446   3.800   2.360  16.199 -0.4322  0.3692 -0.9224
 3011TIP3   OH230447   5.860   3.989   3.234  0.3537  0.7303  0.3650
 3011TIP3    H130448   5.925   3.924   3.262  0.7910  1.6567  1.6264
 3011TIP3    H230449   5.777   3.942   3.236  0.1976  0.8482  4.1292
 3012TIP3   OH230450   4.389   4.461   5.982  0.2771 -0.2859  0.6653
 3012TIP3    H130451   4.413   4.517   6.056  0.5182 -0.7219  0.9268
 3012TIP3    H230452   4.377   4.374   6.021 -0.8988 -0.2582  0.3963
 3013TIP3   OH230453   4.688   1.970  14.957 -0.1290  0.3561  0.3022
 3013TIP3    H130454   4.700   1.895  15.014 -0.9714  0.3411  0.4675
 3013TIP3    H230455   4.607   1.952  14.909  1.2253 -0.2941 -1.9388
 3014TIP3   OH230456   3.471   1.619   3.026 -0.0888 -0.0375 -0.1017
 3014TIP3    H130457   3.474   1.715   3.030  1.7433  0.0300 -1.7583
 3014TIP3    H230458   3.556   1.594   2.991 -1.1033 -2.1803 -1.2206
 3015TIP3   OH230459   2.055   1.323   2.281  0.3185  0.3367 -0.0828
 3015TIP3    H130460   2.080   1.415   2.285 -0.2492  0.5768 -1.4207
 3015TIP3    H230461   2.116   1.278   2.340  1.3503  1.4056 -0.3076
 3016TIP3   OH230462   5.760   0.378   2.769  0.4086 -0.2803  0.4724
 3016TIP3    H130463   5.673   0.344   2.746 -1.2903  4.0510 -0.4441
 3016TIP3    H230464   5.814   0.358   2.693 -0.3312 -1.1545  0.1496
 3017TIP3   OH230465   0.421   3.194  16.261  0.9770 -0.2075 -0.5385
 3017TIP3    H130466   0.442   3.180  16.168 -1.6945 -0.5993 -1.1602
 3017TIP3    H230467   0.349   3.134  16.279  2.0497 -0.8409  2.1117
 3018TIP3   OH230468   3.567   1.848  12.713 -0.4332 -0.3658 -0.0100
 3018TIP3    H130469   3.603   1.791  12.781  0.5515 -0.5103 -0.6421
 3018TIP3    H230470   3.563   1.935  12.753 -0.9913 -0.6746  0.6226
 3019TIP3   OH230471   0.737   1.296   6.633  1.0733 -0.4158  0.3483
 3019TIP3    H130472   0.647   1.327   6.626  1.6311  1.1307 -0.5085
 3019TIP3    H230473   0.758   1.261   6.547  1.7327  0.6127  0.0612
 3020TIP3   OH230474   0.364   3.853  12.932  0.9351  0.7050 -0.0061
 3020TIP3    H130475   0.353   3.937  12.975  0.5515  0.0899  1.1195
 3020TIP3    H230476   0.404   3.796  12.998 -1.6361 -0.8652  0.3272
 3021TIP3   OH230477   4.373   4.659   3.542  0.0540  0.2288  0.2239
 3021TIP3    H130478   4.316   4.589   3.575 -0.7252  0.2386 -1.0289
 3021TIP3    H230479   4.435   4.614   3.485 -1.0740  0.6080 -1.3963
 3022TIP3   OH230480   2.256   4.205  11.780  0.5529 -0.0610 -0.0815
 3022TIP3    H130481   2.324   4.252  11.732  0.6094 -1.3041 -1.3068
 3022TIP3    H230482   2.301   4.165  11.854  0.4550  1.9378  1.1251
 3023TIP3   OH230483   1.056   2.043  13.655 -0.2791 -0.0772 -0.0174
 3023TIP3    H130484   1.130   2.083  13.702 -0.0458 -1.1171  0.5148
 3023TIP3    H230485   0.979   2.090  13.688  0.1358  1.2576 -0.8265
 3024TIP3   OH230486   5.153   4.566  12.823  0.1193 -0.1827 -0.9409
 3024TIP3    H130487   5.195   4.480  12.829  0.1257 -0.1163  0.2345
 3024TIP3    H230488   5.119   4.570  12.734  1.2682 -0.8621 -1.4403
 3025TIP3   OH230489   1.189   0.536  13.860  0.0545 -0.1170 -0.0411
 3025TIP3    H130490   1.176   0.553  13.767  4.4100 -2.1309 -1.3197
 3025TIP3    H230491   1.151   0.450  13.875  0.3586 -0.3007 -0.3069
 3026TIP3   OH230492   0.386   2.137   4.632  0.0103 -0.6031 -0.0899
 3026TIP3    H130493   0.342   2.135   4.547 -0.1542 -1.2553  0.0047
 3026TIP3    H230494   0.479   2.145   4.611  0.0432 -1.5950 -0.3594
 3027TIP3   OH230495   3.962   1.948   4.189  0.7843 -0.1566  0.3235
 3027TIP3    H130496   3.894   1.970   4.252  0.1069  0.0909 -0.4788
 3027TIP3    H230497   3.961   1.852   4.185 -0.0632 -0.1353 -0.2543
 3028TIP3   OH230498   0.196   1.890   3.411 -0.1966  0.2714  0.2792
 3028TIP3    H130499   0.162   1.827   3.348 -1.1562  1.9576 -0.9749
 3028TIP3    H230500   0.149   1.870   3.492  0.4125 -1.3722  0.2437
 3029TIP3   OH230501   0.262   4.786   1.688  0.7108 -0.3697  0.1273
 3029TIP3    H130502   0.255   4.739   1.771 -1.8931 -1.3944 -0.5685
 3029TIP3    H230503   0.172   4.811   1.668  1.5718  1.8687 -1.2955
 3030TIP3   OH230504   3.121   3.224  11.990 -0.2299  0.0099  0.0752
 3030TIP3    H130505   3.043   3.272  12.019  1.4006  1.3198  2.7076
 3030TIP3    H230506   3.163   3.283  11.927 -0.5258  0.0024 -0.1338
 3031TIP3   OH230507   3.343   3.451   4.178  0.6711 -0.3375 -0.0312
 3031TIP3    H130508   3.395   3.495   4.245  1.9952  0.0074 -1.2394
 3031TIP3    H230509   3.304   3.375   4.222  1.6850 -0.2352  1.0566
 3032TIP3   OH230510   1.192   1.896   3.985 -0.0662  0.0621 -0.6509
 3032TIP3    H130511   1.107   1.920   3.950 -0.1224  0.7435 -0.0657
 3032TIP3    H230512   1.199   1.943   4.069  1.1795  0.6031 -1.0239
 3033TIP3   OH230513   4.305   6.628   0.352  0.1404  0.0990 -0.5066
 3033TIP3    H130514   4.221   6.664   0.381  0.1766 -0.0043 -0.2665
 3033TIP3    H230515   4.370   6.693   0.381  0.1758  0.0014 -0.3613
 3034TIP3   OH230516   5.774   2.054   0.345  0.1883 -0.3395 -0.1199
 3034TIP3    H130517   5.832   2.054   0.268  0.5426  0.5174  0.1343
 3034TIP3    H230518   5.828   2.089   0.416 -0.0385 -1.4145  0.6104
 3035TIP3   OH230519   6.015   4.599   0.647  0.1251  0.7244  0.0227
 3035TIP3    H130520   5.955   4.536   0.608  2.7124 -2.1865  0.4047
 3035TIP3    H230521   6.052   4.554   0.723  2.0611  2.7483  0.3947
 3036TIP3   OH230522   3.646   4.542   5.452  0.5764  0.2302 -0.1899
 3036TIP3    H130523   3.698   4.621   5.467  1.7094 -0.5013 -0.1882
 3036TIP3    H230524   3.560   4.563   5.489  0.6616  1.6880 -0.7770
 3037TIP3   OH230525   0.937   4.325   5.807  0.3135  0.5673  0.0518
 3037TIP3    H130526   0.848   4.296   5.829  0.9943 -1.5478  0.2758
 3037TIP3    H230527   0.924   4.389   5.737 -1.3199 -2.1712 -2.3971
 3038TIP3   OH230528   0.037   2.003  15.317 -0.4104 -0.2365  0.3534
 3038TIP3    H130529   0.065   1.948  15.243 -0.9508  0.1094 -0.1150
 3038TIP3    H230530   0.002   2.082  15.276  1.0809  0.8303  1.0345
 3039TIP3   OH230531   6.107   3.096  14.174  0.6839  0.5068 -0.0893
 3039TIP3    H130532   6.032   3.147  14.143  0.7585  0.6411 -0.0454
 3039TIP3    H230533   6.130   3.040  14.099  2.1051  2.2061 -1.0010
 3040TIP3   OH230534   1.489   3.265   6.011  0.3956 -0.2459 -0.3985
 3040TIP3    H130535   1.500   3.360   6.018  0.1049 -0.2105 -0.4330
 3040TIP3    H230536   1.500   3.233   6.101 -1.9418  0.0706  0.0583
 3041TIP3   OH230537   2.087   5.642  14.160 -0.5335  0.0798  0.5668
 3041TIP3    H130538   2.116   5.658  14.250 -2.1098  0.7819  0.9806
 3041TIP3    H230539   2.103   5.725  14.115  0.2691 -0.2759  0.1772
 3042TIP3   OH230540   2.169   5.805  14.726 -0.7672 -0.1036  0.3271
 3042TIP3    H130541   2.126   5.868  14.784  0.8705  1.8813 -0.5208
 3042TIP3    H230542   2.178   5.726  14.780  0.0673  1.4401  2.5977
 3043TIP3   OH230543   4.701   6.170  15.650  0.0223  0.7416 -0.3052
 3043TIP3    H130544   4.726   6.208  15.734 -0.5555  0.8431 -0.1799
 3043TIP3    H230545   4.784   6.164  15.601  0.7566 -1.2599  1.0332
 3044TIP3   OH230546   3.961   3.687  12.718 -0.5867 -0.3140 -0.8669
 3044TIP3    H130547   3.886   3.693  12.777  1.1717  2.0203  1.3589
 3044TIP3    H230548   3.940   3.748  12.647 -0.3891  1.2314  0.3499
 3045TIP3   OH230549   3.708   0.832  14.852  0.5033  0.4117 -0.6987
 3045TIP3    H130550   3.644   0.785  14.905  1.1035 -0.2734 -0.5648
 3045TIP3    H230551   3.658   0.869  14.779 -0.1645  0.5562 -0.1680
 3046TIP3   OH230552   6.546   0.333  14.202  0.2592  0.6592  0.0400
 3046TIP3    H130553   6.549   0.382  14.120  0.8344  0.8177  0.1497
 3046TIP3    H230554   6.615   0.267  14.194  0.2499  0.6071  0.3534
 3047TIP3   OH230555   1.677   4.804  14.879 -0.3657  0.5776 -0.0964
 3047TIP3    H130556   1.733   4.767  14.811  2.2257 -0.8009  2.5166
 3047TIP3    H230557   1.648   4.727  14.930 -2.6183  1.4952  0.1205
 3048TIP3   OH230558   1.393   2.848   6.215 -0.2300 -0.1998  0.7116
 3048TIP3    H130559   1.308   2.810   6.240 -0.0455 -0.1709  1.4268
 3048TIP3    H230560   1.382   2.942   6.231 -0.3342 -0.0826 -0.0165
 3049TIP3   OH230561   0.402   3.808   2.217  0.3516  0.2273 -0.1072
 3049TIP3    H130562   0.361   3.736   2.266  0.3802  0.6591  0.5673
 3049TIP3    H230563   0.485   3.771   2.185  0.3937 -0.0266  0.2853
 3050TIP3   OH230564   1.466   6.720  16.875 -0.1350 -0.2564  0.5997
 3050TIP3    H130565   1.454   6.658  16.803  0.0193  0.3863  0.0187
 3050TIP3    H230566   1.378   6.737  16.907 -0.3615  0.7238 -0.5126
 3051TIP3   OH230567   3.729   1.928   5.360  0.2987  1.2233 -0.2926
 3051TIP3    H130568   3.782   1.947   5.438  2.4518  0.4958 -1.5103
 3051TIP3    H230569   3.725   2.011   5.313  0.7188  1.1879 -0.3941
 3052TIP3   OH230570   1.075   4.910   4.705 -0.0407 -0.4334 -0.5264
 3052TIP3    H130571   1.155   4.865   4.733  0.1545 -0.2482 -0.7820
 3052TIP3    H230572   1.104   4.999   4.683 -0.3588 -0.2926 -0.3902
 3053TIP3   OH230573   6.288   1.496   3.185  0.3341  0.2380 -0.5481
 3053TIP3    H130574   6.331   1.417   3.153 -1.1929 -1.6571  1.7148
 3053TIP3    H230575   6.361   1.553   3.213  1.4482 -0.5524 -1.7347
 3054TIP3   OH230576   1.536   2.643   0.851 -0.2215 -0.1596 -0.1164
 3054TIP3    H130577   1.490   2.642   0.935 -0.5637 -2.5148 -0.2509
 3054TIP3    H230578   1.478   2.692   0.793 -0.9307 -0.1963  0.5395
 3055TIP3   OH230579   4.276   5.694  15.463 -0.3398  0.2928  0.2119
 3055TIP3    H130580   4.235   5.749  15.397 -0.0685  1.0342  0.6499
 3055TIP3    H230581   4.236   5.720  15.546 -0.8712 -0.8168  0.3204
 3056TIP3   OH230582   1.826   4.259  15.891 -0.3646  0.7352 -0.1365
 3056TIP3    H130583   1.799   4.329  15.951 -1.1472 -0.1530  0.5732
 3056TIP3    H230584   1.877   4.199  15.945 -2.7171 -1.0997  0.1867
 3057TIP3   OH230585   4.975   3.547  16.277 -0.2380 -0.3620 -0.1497
 3057TIP3    H130586   4.930   3.527  16.359 -2.7900  1.6288 -0.9416
 3057TIP3    H230587   5.011   3.635  16.290 -0.6258 -0.0442 -1.1004
 3058TIP3   OH230588   0.665   6.406   5.799 -0.7672 -0.2456  0.2285
 3058TIP3    H130589   0.703   6.478   5.850 -0.9998  0.0703 -0.0354
 3058TIP3    H230590   0.612   6.450   5.732  1.5451 -0.5036 -1.9788
 3059TIP3   OH230591   1.949   2.753   5.313 -0.6114  0.2883 -0.4573
 3059TIP3    H130592   1.979   2.662   5.319 -0.1814  0.3371 -1.7006
 3059TIP3    H230593   1.855   2.747   5.331 -0.8557 -0.6092 -1.8639
 3060TIP3   OH230594   1.736   2.319   5.109  0.1220 -0.4046  0.3044
 3060TIP3    H130595   1.681   2.334   5.185  2.0895 -0.9975  1.9547
 3060TIP3    H230596   1.689   2.359   5.036 -1.3506  1.1282  2.0077
 3061TIP3   OH230597   3.848   5.987   0.354 -0.2467  0.6421 -0.1034
 3061TIP3    H130598   3.937   5.981   0.320  0.5238  0.3526  1.8128
 3061TIP3    H230599   3.851   6.061   0.415 -0.8830 -0.3009  1.1224
 3062TIP3   OH230600   3.582   4.815   3.433  0.5053 -0.0993 -0.1793
 3062TIP3    H130601   3.545   4.737   3.474 -1.1202  0.4979 -0.4193
 3062TIP3    H230602   3.631   4.783   3.358 -0.2432 -0.8767 -0.3446
 3063TIP3   OH230603   5.939   0.351  13.892 -0.0745 -0.1191 -0.0993
 3063TIP3    H130604   5.853   0.391  13.901  0.1317  0.4374 -0.5294
 3063TIP3    H230605   5.969   0.338  13.982  0.4582  2.0496  0.0850
 3064TIP3   OH230606   3.000   6.087   4.977 -0.8141 -0.2487  0.5375
 3064TIP3    H130607   3.025   6.000   4.947  0.4568  0.5986 -1.0366
 3064TIP3    H230608   3.060   6.106   5.049 -0.4466 -0.2944  0.2448
 3065TIP3   OH230609   2.232   2.962  12.442 -0.0978  0.5389 -0.3163
 3065TIP3    H130610   2.174   2.960  12.367  0.4136 -0.2597 -0.7008
 3065TIP3    H230611   2.179   2.930  12.515  0.1641 -1.3224 -0.9007
 3066TIP3   OH230612   2.169   3.108  11.842  0.0704  0.0661  0.2902
 3066TIP3    H130613   2.193   3.098  11.934 -0.0318 -2.3763  0.1007
 3066TIP3    H230614   2.246   3.147  11.802  0.9567 -0.8558  1.0338
 3067TIP3   OH230615   0.496   6.540   1.218 -0.1785 -0.1360 -0.3943
 3067TIP3    H130616   0.542   6.601   1.161  1.9855 -1.5529 -0.2696
 3067TIP3    H230617   0.431   6.498   1.161 -0.4871  0.9994 -0.9020
 3068TIP3   OH230618   2.203   4.483  12.501 -0.4663 -0.3380 -0.4840
 3068TIP3    H130619   2.284   4.485  12.552 -1.4697  0.4623  1.1535
 3068TIP3    H230620   2.227   4.524  12.417  0.3868  1.8241  0.7253
 3069TIP3   OH230621   4.367   4.052   3.809 -0.3146 -0.4849 -0.0600
 3069TIP3    H130622   4.434   4.120   3.799 -2.1988  1.3875 -0.7812
 3069TIP3    H230623   4.396   3.981   3.752  0.0909  1.1179 -1.9760
 3070TIP3   OH230624   3.037   3.638   0.321 -0.1047 -0.0200 -0.3463
 3070TIP3    H130625   2.985   3.581   0.377 -0.1598 -0.1239 -0.5069
 3070TIP3    H230626   3.012   3.727   0.348 -1.1200 -0.0576 -1.1348
 3071TIP3   OH230627   4.284   3.236  11.773  0.6843 -0.1089 -0.4316
 3071TIP3    H130628   4.317   3.271  11.691 -0.5713  1.5687 -0.2724
 3071TIP3    H230629   4.332   3.284  11.841 -1.0352  1.3826 -0.2093
 3072TIP3   OH230630   0.942   5.220  15.817  0.0829  0.4534 -0.0858
 3072TIP3    H130631   1.035   5.240  15.824  0.5123 -1.4213  0.2567
 3072TIP3    H230632   0.916   5.197  15.906 -0.3216 -0.4652 -0.4229
 3073TIP3   OH230633   3.239   4.753   0.321 -0.6470 -0.3283 -0.0263
 3073TIP3    H130634   3.310   4.815   0.336 -1.1224  0.0816  0.6039
 3073TIP3    H230635   3.265   4.674   0.370 -0.1881 -0.5183 -0.5723
 3074TIP3   OH230636   6.065   0.978  14.090  0.2056 -0.0636 -0.0880
 3074TIP3    H130637   6.007   1.021  14.027 -0.6184 -1.4801 -0.3185
 3074TIP3    H230638   6.046   1.021  14.173  0.1557  0.7328 -0.5029
 3075TIP3   OH230639   2.488   0.599  13.716 -0.1689  0.0744 -0.0651
 3075TIP3    H130640   2.406   0.646  13.733  0.2477  0.9973 -0.5386
 3075TIP3    H230641   2.546   0.665  13.677  1.1322 -0.3226  1.1217
 3076TIP3   OH230642   4.446   4.864  12.546 -0.3001  0.5406 -0.3544
 3076TIP3    H130643   4.541   4.875  12.537 -0.1104  0.0952  0.9303
 3076TIP3    H230644   4.435   4.771  12.566 -0.8158  1.0020  1.6656
 3077TIP3   OH230645   3.476   2.007  15.637  0.7650  0.7006  0.7272
 3077TIP3    H130646   3.524   1.930  15.606 -0.5594  1.1374 -3.0160
 3077TIP3    H230647   3.393   1.973  15.669  0.5346  0.4744 -0.0904
 3078TIP3   OH230648   1.521   4.938   3.219  0.0019  0.1676  0.1208
 3078TIP3    H130649   1.489   4.851   3.194 -0.3240 -0.2493  1.8627
 3078TIP3    H230650   1.487   4.952   3.307  0.4033  1.9013  0.0375
 3079TIP3   OH230651   2.217   4.277   4.240 -0.4351 -0.0603  0.3464
 3079TIP3    H130652   2.166   4.242   4.312  0.2646 -1.7269  0.0632
 3079TIP3    H230653   2.232   4.203   4.182  1.9595  0.4248  0.2123
 3080TIP3   OH230654   4.301   0.962  16.880  0.5244 -0.8446  0.3954
 3080TIP3    H130655   4.266   0.874  16.867 -1.7794 -0.5669  3.5220
 3080TIP3    H230656   4.357   0.954  16.958  0.0411  0.4806  0.9042
 3081TIP3   OH230657   0.144   1.186   5.057 -0.1775  0.4168  0.2952
 3081TIP3    H130658   0.110   1.097   5.051  0.4563  0.2463 -1.3674
 3081TIP3    H230659   0.152   1.203   5.151  0.4226 -1.5692  0.6424
 3082TIP3   OH230660   5.036   4.195   2.856  0.5396  0.3370  0.1677
 3082TIP3    H130661   4.995   4.271   2.897  0.4904  1.2146 -1.4501
 3082TIP3    H230662   5.104   4.231   2.799  0.9922 -0.8804 -0.1010
 3083TIP3   OH230663   2.944   2.138   1.806  0.2289 -0.3594  0.3233
 3083TIP3    H130664   3.017   2.193   1.836  0.5554 -0.8190  0.3904
 3083TIP3    H230665   2.914   2.179   1.725 -0.3328  0.6171  0.9971
 3084TIP3   OH230666   0.027   6.633   1.971 -0.0800 -0.4198  0.0979
 3084TIP3    H130667  -0.044   6.680   2.016  0.2029 -0.1683  0.2824
 3084TIP3    H230668   0.104   6.690   1.981 -0.0018 -0.3771 -0.6714
 3085TIP3   OH230669   4.853   1.603  13.502 -1.0268 -0.0537 -0.3116
 3085TIP3    H130670   4.868   1.513  13.473 -0.9591  0.2953 -1.4171
 3085TIP3    H230671   4.919   1.618  13.569  0.5492 -0.0754 -1.7798
 3086TIP3   OH230672   3.677   0.111  13.513  0.5535  0.3862 -0.3462
 3086TIP3    H130673   3.654   0.018  13.518  1.5236  0.1467 -0.2813
 3086TIP3    H230674   3.664   0.144  13.601  1.9639 -0.1159  0.0730
 3087TIP3   OH230675   2.090   0.568   1.759  0.4977 -0.1777 -0.2137
 3087TIP3    H130676   2.162   0.506   1.766 -0.0148 -0.6518  1.2594
 3087TIP3    H230677   2.062   0.561   1.668 -0.1586 -2.8599  0.0947
 3088TIP3   OH230678   6.669   1.432  13.806  0.2743  0.2723 -0.2967
 3088TIP3    H130679   6.718   1.513  13.790  2.0546 -0.6850  0.0188
 3088TIP3    H230680   6.617   1.450  13.884  1.6503  0.7318  0.5506
 3089TIP3   OH230681   3.772   5.935   5.655  0.2866 -0.0632  0.0885
 3089TIP3    H130682   3.709   5.908   5.588  1.2172  1.0430 -1.2879
 3089TIP3    H230683   3.858   5.921   5.615  0.9572 -1.2048  1.7929
 3090TIP3   OH230684   3.125   2.536   5.241  0.4703 -0.4605 -0.1713
 3090TIP3    H130685   3.206   2.528   5.292  1.1783  1.2753 -0.9162
 3090TIP3    H230686   3.142   2.487   5.160  1.6218  1.4958 -1.2011
 3091TIP3   OH230687   5.268   1.800   2.116  0.2120  0.0199 -0.2504
 3091TIP3    H130688   5.202   1.865   2.094  0.3158 -0.1504 -1.0942
 3091TIP3    H230689   5.351   1.840   2.091  0.4188  0.1446  0.5980
 3092TIP3   OH230690   2.113   4.129   5.032  0.0336 -0.1395 -0.4458
 3092TIP3    H130691   2.017   4.133   5.041  0.1060  0.3517  0.1664
 3092TIP3    H230692   2.139   4.060   5.093  0.1501  0.3570  0.0707
 3093TIP3   OH230693   5.981   0.758   5.833 -0.1891 -0.1712  0.0907
 3093TIP3    H130694   5.888   0.753   5.853 -0.3134 -0.5484 -0.5601
 3093TIP3    H230695   5.985   0.769   5.738  0.4360 -0.4965  0.0707
 3094TIP3   OH230696   0.695   4.315  16.971 -0.0974 -0.5988 -0.5906
 3094TIP3    H130697   0.779   4.305  17.017 -0.0333 -3.1492 -1.1032
 3094TIP3    H230698   0.684   4.233  16.923 -1.9392  0.4977 -2.1804
 3095TIP3   OH230699   6.077   5.932  12.339  0.1576 -0.0643 -0.4035
 3095TIP3    H130700   6.148   5.880  12.377 -0.2346  1.0551  2.0619
 3095TIP3    H230701   5.999   5.878  12.350 -0.1032  0.5925  1.3518
 3096TIP3   OH230702   1.876   4.942   4.954 -0.5088  0.1142 -0.5519
 3096TIP3    H130703   1.898   4.860   4.997  1.6381  0.7650 -0.2997
 3096TIP3    H230704   1.927   4.942   4.873  1.5070  2.1623  0.5685
 3097TIP3   OH230705   1.682   2.109   3.384 -0.0572  0.0940 -0.0914
 3097TIP3    H130706   1.701   2.091   3.476  1.1706 -1.4456 -0.6235
 3097TIP3    H230707   1.587   2.099   3.377 -0.0719 -0.5471  0.8470
 3098TIP3   OH230708   4.390   5.742   3.869 -0.5403 -0.1149  0.4160
 3098TIP3    H130709   4.348   5.797   3.936 -0.5485  2.2912 -1.4377
 3098TIP3    H230710   4.324   5.676   3.848 -1.3928  0.4549  1.2082
 3099TIP3   OH230711   3.468   3.062   1.404 -0.0277 -0.1374  0.0266
 3099TIP3    H130712   3.463   3.035   1.312 -0.2007  0.9536 -0.2964
 3099TIP3    H230713   3.383   3.103   1.422 -1.6825 -3.9066  1.8959
 3100TIP3   OH230714   3.138   0.743   1.784  0.1274 -0.4742 -0.1461
 3100TIP3    H130715   3.132   0.806   1.713  1.4343 -0.7504 -0.5241
 3100TIP3    H230716   3.118   0.658   1.743  1.1545 -0.6707 -0.2618
 3101TIP3   OH230717   0.133   2.551   2.529  0.3284 -0.3320  0.0132
 3101TIP3    H130718   0.111   2.551   2.435 -2.9053  0.0893  0.6575
 3101TIP3    H230719   0.167   2.463   2.545  1.7690 -0.1335 -1.6831
 3102TIP3   OH230720   1.575   4.304   3.353 -0.1674  0.4264 -0.1287
 3102TIP3    H130721   1.562   4.393   3.385  0.6464  0.1922  0.8668
 3102TIP3    H230722   1.623   4.260   3.422 -2.2474 -1.3631  0.2692
 3103TIP3   OH230723   5.115   5.386  11.371  0.4519 -0.3705 -0.5329
 3103TIP3    H130724   5.184   5.360  11.309 -0.1043 -1.0533 -0.8655
 3103TIP3    H230725   5.143   5.473  11.400  0.5617  0.1152 -1.9887
 3104TIP3   OH230726   2.514   4.858  15.021 -0.7641  0.2319  0.6361
 3104TIP3    H130727   2.605   4.874  14.995 -0.2571 -0.6868  1.7289
 3104TIP3    H230728   2.473   4.945  15.019  0.8954  1.1669  2.8153
 3105TIP3   OH230729   2.108   2.563  13.397  0.3542 -0.3368  0.1677
 3105TIP3    H130730   2.101   2.624  13.324  1.3596 -0.5765 -0.1441
 3105TIP3    H230731   2.167   2.495  13.365  1.8539  0.2143  1.6251
 3106TIP3   OH230732   6.603   3.083  12.070  0.2713  0.4045  0.5324
 3106TIP3    H130733   6.641   3.171  12.084  1.2619  0.1452 -0.3984
 3106TIP3    H230734   6.516   3.100  12.034  0.0718  1.0088  1.2630
 3107TIP3   OH230735   3.359   3.973   2.985 -0.1915  0.1708 -0.1446
 3107TIP3    H130736   3.375   4.042   2.921 -1.2581 -0.3535 -1.0289
 3107TIP3    H230737   3.283   3.926   2.950  0.4527 -1.3945  0.4648
 3108TIP3   OH230738   2.880   5.862  16.029 -0.4786 -0.0658 -0.0607
 3108TIP3    H130739   2.859   5.852  16.122  1.5930  0.1684  0.4681
 3108TIP3    H230740   2.937   5.787  16.010  1.3469  1.3615 -0.4091
 3109TIP3   OH230741   1.762   6.666   6.687 -0.1001 -0.5745  0.5269
 3109TIP3    H130742   1.671   6.641   6.671 -0.7138  1.1246  1.1332
 3109TIP3    H230743   1.768   6.756   6.655  1.8001 -1.1383 -0.8984
 3110TIP3   OH230744   2.393   3.773   6.068 -0.5748  0.2764 -0.4843
 3110TIP3    H130745   2.375   3.865   6.049 -0.4172  0.2716 -0.6591
 3110TIP3    H230746   2.352   3.758   6.153  1.0510  1.0258  0.4825
 3111TIP3   OH230747   3.559   5.956  16.654 -0.0648 -0.2497 -0.5667
 3111TIP3    H130748   3.651   5.955  16.628  0.5705  1.3566  1.3638
 3111TIP3    H230749   3.521   6.028  16.603 -0.3697 -1.1412 -1.6272
 3112TIP3   OH230750   0.766   5.925  13.840  0.6219  0.1774  0.2148
 3112TIP3    H130751   0.858   5.939  13.862  0.1195 -0.0203  2.7341
 3112TIP3    H230752   0.735   6.011  13.811  1.2182  0.6329  0.8958
 3113TIP3   OH230753   2.634   4.041   3.333 -0.6226  0.2731  0.0479
 3113TIP3    H130754   2.630   4.074   3.423 -1.5147  1.2655 -0.3220
 3113TIP3    H230755   2.570   3.970   3.330  0.1762 -0.4761  0.4548
 3114TIP3   OH230756   5.615   5.236   4.890 -0.5478  0.0189  0.3511
 3114TIP3    H130757   5.566   5.297   4.944 -0.5302  1.2697 -0.9939
 3114TIP3    H230758   5.704   5.272   4.887 -0.2652 -0.6574  0.4059
 3115TIP3   OH230759   6.222   4.959  13.488 -0.1256  0.3981 -0.1663
 3115TIP3    H130760   6.222   5.052  13.508  0.9619  0.2062  0.8419
 3115TIP3    H230761   6.226   4.916  13.573  2.6915 -0.4782 -0.6342
 3116TIP3   OH230762   5.952   6.633  15.338 -0.0212  0.1816 -0.0110
 3116TIP3    H130763   5.895   6.560  15.315 -1.1556  0.0095  2.9031
 3116TIP3    H230764   5.906   6.710  15.306 -0.8762 -0.1169  0.4648
 3117TIP3   OH230765   3.847   2.351  12.447  0.0707  0.0397 -0.1123
 3117TIP3    H130766   3.759   2.369  12.479 -0.3104 -0.8413 -0.6208
 3117TIP3    H230767   3.843   2.261  12.414  1.2906 -0.1917  0.3001
 3118TIP3   OH230768   0.291   1.478  15.695  0.1631 -0.1134 -0.8155
 3118TIP3    H130769   0.343   1.532  15.635  0.7411 -1.4426 -1.5514
 3118TIP3    H230770   0.320   1.505  15.782 -0.1998  1.3668 -1.1147
 3119TIP3   OH230771   5.065   4.393   0.423  0.0834  0.0955  0.2598
 3119TIP3    H130772   5.108   4.340   0.356 -0.5361 -0.0545 -0.0234
 3119TIP3    H230773   5.131   4.404   0.491  0.8715  0.6358 -0.5778
 3120TIP3   OH230774   1.250   2.471   3.737 -0.0379 -0.9516  0.4189
 3120TIP3    H130775   1.241   2.514   3.823  0.2126 -0.8066  0.3716
 3120TIP3    H230776   1.212   2.534   3.676  0.5714 -0.6850  0.3166
 3121TIP3   OH230777   2.576   5.424   5.477 -0.5179 -0.4862  0.1392
 3121TIP3    H130778   2.551   5.387   5.562 -0.4323  0.7209  0.7120
 3121TIP3    H230779   2.497   5.418   5.424 -0.8097 -0.4926  0.5714
 3122TIP3   OH230780   4.312   5.072   2.456  0.0448 -0.3344  0.0553
 3122TIP3    H130781   4.257   5.133   2.405 -2.4542 -0.8257  1.9781
 3122TIP3    H230782   4.287   4.986   2.423 -0.5349 -0.5709  1.0767
 3123TIP3   OH230783   0.960   2.074   0.967  0.1476  0.6098 -0.3777
 3123TIP3    H130784   1.050   2.057   0.936  1.5479  0.7685  3.1615
 3123TIP3    H230785   0.963   2.164   1.000 -0.8684  0.1092  1.1457
 3124TIP3   OH230786   4.473   0.160   4.112  0.6326 -0.8302 -0.5016
 3124TIP3    H130787   4.514   0.216   4.179 -1.0705  0.0836 -0.1770
 3124TIP3    H230788   4.465   0.075   4.153  1.1246 -0.7223 -0.1665
 3125TIP3   OH230789   4.549   4.052   2.573 -0.2458 -0.5200 -1.1476
 3125TIP3    H130790   4.489   4.014   2.509 -1.8627 -2.1824  1.1768
 3125TIP3    H230791   4.535   4.147   2.566 -2.6130 -0.8261 -1.2233
 3126TIP3   OH230792   5.070   5.614   5.239  0.4475  0.6796  0.5160
 3126TIP3    H130793   5.046   5.529   5.277 -0.2424  0.2533 -0.8143
 3126TIP3    H230794   5.155   5.598   5.197 -1.0039 -0.2571 -2.3371
 3127TIP3   OH230795   4.653   1.050   3.323  0.3006 -0.1303 -0.0058
 3127TIP3    H130796   4.576   1.096   3.354  3.4074  4.2456  2.3510
 3127TIP3    H230797   4.667   0.980   3.387 -1.3875 -0.7557 -0.2692
 3128TIP3   OH230798   6.625   2.991  13.106  0.4486  0.2660  0.5169
 3128TIP3    H130799   6.585   2.965  13.023  0.0468  0.2630  0.7072
 3128TIP3    H230800   6.630   3.087  13.101 -1.7437  0.4808  1.4332
 3129TIP3   OH230801   0.829   5.744  15.242  0.2300 -0.3432 -0.8468
 3129TIP3    H130802   0.866   5.758  15.329  2.1092 -0.1929 -1.6214
 3129TIP3    H230803   0.738   5.722  15.258  0.2290  0.8539  1.0864
 3130TIP3   OH230804   2.693   2.835   6.586 -0.5178  0.3207 -0.3145
 3130TIP3    H130805   2.769   2.864   6.535 -0.3929  1.7519  0.6454
 3130TIP3    H230806   2.619   2.877   6.543 -0.8015 -0.9342 -1.1402
 3131TIP3   OH230807   6.472   4.397   2.568 -0.1344 -0.8824  0.1524
 3131TIP3    H130808   6.471   4.485   2.607  1.3880 -0.3706 -0.8605
 3131TIP3    H230809   6.537   4.349   2.620 -1.3917 -1.6389  1.0862
 3132TIP3   OH230810   2.739   5.778  13.733  0.2451 -0.6068 -0.8046
 3132TIP3    H130811   2.765   5.709  13.673  0.2402 -0.7709 -0.6175
 3132TIP3    H230812   2.647   5.793  13.715 -0.5298 -2.6180  1.0794
 3133TIP3   OH230813   0.780   3.366   3.220  1.1206  0.7478  0.0386
 3133TIP3    H130814   0.819   3.304   3.282 -0.5905 -0.1319  0.2975
 3133TIP3    H230815   0.812   3.336   3.135  0.6891 -0.2216  0.2023
 3134TIP3   OH230816   5.164   4.097  17.101 -0.5577  0.2460 -0.2500
 3134TIP3    H130817   5.165   4.061  17.013  1.6786  0.9831 -0.5761
 3134TIP3    H230818   5.105   4.172  17.096  1.9558  2.2745 -2.0503
 3135TIP3   OH230819   2.474   6.121  11.656 -0.5490 -0.2591 -0.5060
 3135TIP3    H130820   2.450   6.038  11.616 -1.3826 -0.3708  0.2066
 3135TIP3    H230821   2.434   6.187  11.601 -1.6442 -0.4097  0.0858
 3136TIP3   OH230822   3.218   1.913  15.677 -0.2132  0.2432  0.5454
 3136TIP3    H130823   3.140   1.892  15.626 -0.9913  1.0286  1.3658
 3136TIP3    H230824   3.186   1.920  15.767  0.8456  0.3797  0.9228
 3137TIP3   OH230825   4.085   3.823   0.526 -0.0072 -0.1290 -0.2234
 3137TIP3    H130826   4.090   3.765   0.601  1.7475  0.3534  0.0934
 3137TIP3    H230827   4.121   3.771   0.453 -1.5993 -0.5600 -0.7437
 3138TIP3   OH230828   3.778   1.876   0.435 -0.2033  0.7891  0.4586
 3138TIP3    H130829   3.763   1.934   0.361 -0.7622 -1.5562 -1.3854
 3138TIP3    H230830   3.693   1.872   0.479 -0.1736  1.2775  0.5734
 3139TIP3   OH230831   1.405   1.153  12.464  0.0330  1.2284  0.1082
 3139TIP3    H130832   1.324   1.115  12.430 -0.3896  2.2653 -0.0736
 3139TIP3    H230833   1.474   1.092  12.437 -0.4413  1.4048 -1.5607
 3140TIP3   OH230834   5.618   4.458   3.728  0.2590 -0.1450 -0.2115
 3140TIP3    H130835   5.631   4.496   3.641 -0.8534 -1.5668 -1.0572
 3140TIP3    H230836   5.681   4.386   3.732 -0.1189 -0.4746 -0.1104
 3141TIP3   OH230837   5.129   2.919  11.275 -0.1304 -0.0471 -0.0810
 3141TIP3    H130838   5.059   2.887  11.218 -1.4444  1.1969  0.7609
 3141TIP3    H230839   5.102   2.893  11.363 -0.5132  2.0239  0.4618
 3142TIP3   OH230840   6.753   2.569  16.105  0.1774  0.0081 -0.0987
 3142TIP3    H130841   6.716   2.545  16.020 -0.7648  0.5918  0.1235
 3142TIP3    H230842   6.743   2.664  16.109  0.0177 -0.0359  0.7527
 3143TIP3   OH230843   1.444   0.972   5.936 -0.0408  0.0621 -0.1183
 3143TIP3    H130844   1.390   0.957   6.014  1.0123  0.0767  0.6326
 3143TIP3    H230845   1.440   1.067   5.922 -2.2205 -0.1819 -1.5806
 3144TIP3   OH230846   3.800   1.929   6.522 -0.5716  0.7499  0.2420
 3144TIP3    H130847   3.734   1.997   6.529 -0.2883  0.9004  1.9412
 3144TIP3    H230848   3.847   1.949   6.441 -1.4623  1.6758 -0.0602
 3145TIP3   OH230849   1.951   0.422  17.020 -0.1845  0.3332  0.3427
 3145TIP3    H130850   2.041   0.417  16.987  0.1504  1.3880  1.0286
 3145TIP3    H230851   1.955   0.383  17.107 -0.7992 -1.2854 -0.3208
 3146TIP3   OH230852   3.930   0.540   1.263  0.2646  0.5257  0.8462
 3146TIP3    H130853   3.982   0.495   1.196 -0.2373  0.7143  0.3286
 3146TIP3    H230854   3.995   0.583   1.319  0.6314  1.7935 -0.5197
 3147TIP3   OH230855   0.195   1.338  15.054 -0.0592 -0.1698 -0.2385
 3147TIP3    H130856   0.266   1.389  15.092 -0.5559  0.3125  0.0476
 3147TIP3    H230857   0.117   1.365  15.101 -0.4033 -0.8786 -0.3797
 3148TIP3   OH230858   2.964   0.952  15.758  0.0703 -0.1567 -0.3056
 3148TIP3    H130859   2.915   0.923  15.835 -1.1051 -0.6830 -1.2036
 3148TIP3    H230860   3.043   0.991  15.793 -0.8084  0.3653  1.2024
 3149TIP3   OH230861   5.206   0.175   1.328 -0.4427  0.2617 -0.1814
 3149TIP3    H130862   5.116   0.167   1.359 -0.8427  1.5084 -0.9892
 3149TIP3    H230863   5.245   0.241   1.385 -0.0416 -0.2299  0.1247
 3150TIP3   OH230864   4.835   5.953   0.905  0.6507  0.7128 -0.6068
 3150TIP3    H130865   4.892   5.948   0.981 -0.7740  0.0209  0.4578
 3150TIP3    H230866   4.834   6.046   0.882  1.2936  0.8952  0.0566
 3151TIP3   OH230867   0.534   6.751  16.939  0.2207 -0.2024  0.2142
 3151TIP3    H130868   0.472   6.800  16.886 -0.4994 -0.6807  0.5959
 3151TIP3    H230869   0.532   6.663  16.902  2.8785  0.4088 -1.6752
 3152TIP3   OH230870   0.328   3.759   2.855 -0.0853  0.2216  0.4931
 3152TIP3    H130871   0.362   3.824   2.917 -0.6701  2.3800 -1.3284
 3152TIP3    H230872   0.235   3.753   2.877  0.4092 -2.0633  2.3406
 3153TIP3   OH230873   3.992   5.244  14.547 -0.2336  0.0358  0.2045
 3153TIP3    H130874   4.057   5.175  14.559  0.0301  0.2477  0.0043
 3153TIP3    H230875   4.043   5.322  14.524 -0.5733  0.1497 -0.1763
 3154TIP3   OH230876   5.705   6.751   5.080  0.0420 -0.2572  0.1984
 3154TIP3    H130877   5.776   6.696   5.048 -0.9336 -1.2739 -0.2957
 3154TIP3    H230878   5.626   6.714   5.040 -0.7630  0.8445  0.7187
 3155TIP3   OH230879   0.883   1.226  13.338  0.5047  0.1294 -0.2313
 3155TIP3    H130880   0.787   1.228  13.345  0.5350 -0.1845  0.3322
 3155TIP3    H230881   0.905   1.303  13.286 -0.0928 -0.0824 -0.8139
 3156TIP3   OH230882   0.081   1.017  15.742 -0.0463  0.2088  0.3088
 3156TIP3    H130883   0.107   1.032  15.833 -0.0983  0.9508  0.2130
 3156TIP3    H230884   0.160   1.038  15.691 -0.3278  0.8574  0.1232
 3157TIP3   OH230885   2.861   5.523   1.886  0.0258  0.7471  0.6941
 3157TIP3    H130886   2.825   5.570   1.811  0.1513  0.1248  0.2307
 3157TIP3    H230887   2.954   5.513   1.864  0.3756  1.7938  1.5890
 3158TIP3   OH230888   2.988   1.548  12.405  0.0267  0.2303 -0.7935
 3158TIP3    H130889   3.014   1.471  12.354 -0.8502 -0.8581  0.3202
 3158TIP3    H230890   2.901   1.570  12.371 -0.8299 -0.8825  0.5926
 3159TIP3   OH230891   2.079   2.380   4.653  0.5110 -0.4456  0.0176
 3159TIP3    H130892   2.094   2.391   4.747  0.4511 -0.2768  0.0060
 3159TIP3    H230893   2.164   2.350   4.619  0.8486  0.5420 -0.0482
 3160TIP3   OH230894   3.678   6.375  16.888  0.2762 -0.1208 -0.0626
 3160TIP3    H130895   3.639   6.295  16.923 -0.8094  0.8666  1.0951
 3160TIP3    H230896   3.607   6.438  16.888  0.8879  0.6343 -1.7814
 3161TIP3   OH230897   3.250   6.057  16.007  0.3408 -0.1507 -0.2713
 3161TIP3    H130898   3.258   6.046  16.102 -2.4052  0.2285  0.0797
 3161TIP3    H230899   3.302   6.135  15.987  0.0823  0.3942  1.1012
 3162TIP3   OH230900   5.890   0.956  11.798 -0.3448  0.0585 -0.1481
 3162TIP3    H130901   5.870   0.915  11.881 -0.9598  0.9114  0.1402
 3162TIP3    H230902   5.833   1.033  11.795 -0.9941 -0.4367 -1.7487
 3163TIP3   OH230903   4.585   6.150   4.975 -0.0491  0.2168  0.4242
 3163TIP3    H130904   4.640   6.122   4.902 -0.6080 -3.3694  1.1998
 3163TIP3    H230905   4.645   6.159   5.049 -0.0195 -0.1184  0.4408
 3164TIP3   OH230906   5.989   0.581   2.269  0.1049 -0.2031 -0.0309
 3164TIP3    H130907   5.930   0.507   2.256  0.1222  0.1244 -2.3662
 3164TIP3    H230908   6.071   0.542   2.297  0.7659 -1.4004 -3.1759
 3165TIP3   OH230909   0.625   0.975   0.086  0.0337  0.2506  0.3787
 3165TIP3    H130910   0.640   0.913   0.015  1.5891  0.7874  0.1819
 3165TIP3    H230911   0.574   1.045   0.046  0.8507  0.5213 -0.2219
 3166TIP3   OH230912   3.272   6.569   0.473 -0.4162 -0.0330 -0.1658
 3166TIP3    H130913   3.296   6.494   0.420 -0.0625  1.2321 -1.8608
 3166TIP3    H230914   3.292   6.645   0.419 -0.7405  1.3053  1.4969
 3167TIP3   OH230915   6.682   3.779   0.319 -0.1596  0.4477  0.1264
 3167TIP3    H130916   6.616   3.773   0.388 -0.9980 -0.1335 -0.7120
 3167TIP3    H230917   6.766   3.774   0.366 -0.7130 -1.1337  1.0104
 3168TIP3   OH230918   0.024   4.433   5.030  0.2610  0.1538 -0.1540
 3168TIP3    H130919   0.068   4.355   4.995  0.7799 -0.6018  2.0690
 3168TIP3    H230920  -0.067   4.407   5.041  0.2554  0.1469 -0.2176
 3169TIP3   OH230921   1.625   1.257  10.887 -0.0730 -0.3392  0.0789
 3169TIP3    H130922   1.565   1.298  10.824 -0.1151  1.0516  0.9989
 3169TIP3    H230923   1.706   1.245  10.838 -0.5423 -0.6048 -0.6593
 3170TIP3   OH230924   0.861   5.244   3.048 -0.6114 -0.1120 -0.0234
 3170TIP3    H130925   0.870   5.339   3.042  0.1961 -0.2171 -0.8341
 3170TIP3    H230926   0.871   5.213   2.957  1.1875 -1.1072  0.4450
 3171TIP3   OH230927   1.785   5.051  14.082  0.5898 -0.5195  0.1420
 3171TIP3    H130928   1.696   5.050  14.117  0.9419  1.3227  1.1991
 3171TIP3    H230929   1.828   4.976  14.124 -0.0117 -0.4835  0.8466
 3172TIP3   OH230930   3.047   1.391  11.944  0.1102  0.2591 -0.2059
 3172TIP3    H130931   2.998   1.415  11.866 -0.9446 -0.0580  0.3383
 3172TIP3    H230932   2.980   1.380  12.012  0.9326 -0.2021  0.5542
 3173TIP3   OH230933   1.794   1.568  15.485 -0.3821 -0.2259  0.2829
 3173TIP3    H130934   1.876   1.560  15.435 -0.2509 -0.3718  0.5203
 3173TIP3    H230935   1.757   1.480  15.483 -0.7599 -0.0637 -0.2043
 3174TIP3   OH230936   0.160   1.053  13.588  0.2253  0.3335 -0.4667
 3174TIP3    H130937   0.108   1.133  13.598  0.5202  0.3714  1.0234
 3174TIP3    H230938   0.108   0.986  13.633  0.0827 -0.2821 -1.5212
 3175TIP3   OH230939   6.519   1.940   2.832  0.3259  0.5361 -0.6716
 3175TIP3    H130940   6.488   1.959   2.743 -0.2531  1.4572 -0.2954
 3175TIP3    H230941   6.550   1.850   2.828 -1.9416 -0.2959 -1.2246
 3176TIP3   OH230942   6.150   4.503   2.421 -0.4000 -0.2398  0.1874
 3176TIP3    H130943   6.165   4.541   2.335  1.2963  0.7977  0.9121
 3176TIP3    H230944   6.161   4.409   2.408 -0.8735 -0.1638 -0.8540
 3177TIP3   OH230945   5.735   0.666   5.274  0.3150  0.4899 -0.4758
 3177TIP3    H130946   5.792   0.605   5.320  0.5449  0.6823 -0.5011
 3177TIP3    H230947   5.712   0.732   5.339  0.9241  0.9561 -0.7142
 3178TIP3   OH230948   1.982   6.113   0.756 -0.0421  0.7451  0.1565
 3178TIP3    H130949   2.023   6.163   0.685 -1.3635  2.2301  0.3849
 3178TIP3    H230950   1.912   6.064   0.712  1.1652 -0.8877 -0.0450
 3179TIP3   OH230951   1.006   4.734   5.059  0.0425  0.3202  0.0152
 3179TIP3    H130952   1.092   4.736   5.018 -0.0000  0.2456 -0.0763
 3179TIP3    H230953   1.017   4.786   5.139  0.1277  0.4541 -0.0825
 3180TIP3   OH230954   1.696   5.645  12.538  0.0404  0.6167  0.1646
 3180TIP3    H130955   1.613   5.690  12.524  0.7589  1.7194 -0.7419
 3180TIP3    H230956   1.751   5.708  12.583  1.2133  0.8777 -1.5087
 3181TIP3   OH230957   0.076   4.445  15.671 -0.1228 -0.0011 -0.0394
 3181TIP3    H130958   0.099   4.437  15.578 -0.4562  0.4078 -0.1589
 3181TIP3    H230959   0.136   4.511  15.706 -0.5758  0.4870 -0.1696
 3182TIP3   OH230960   4.846   0.392  15.271 -0.2676  0.1973 -0.2616
 3182TIP3    H130961   4.898   0.315  15.293  0.9857  1.2683  0.7038
 3182TIP3    H230962   4.787   0.363  15.203  1.3477 -1.1848 -1.1406
 3183TIP3   OH230963   6.573   2.840  16.095  0.1504  0.4762  0.3884
 3183TIP3    H130964   6.527   2.756  16.100  0.7027  0.2091  1.3383
 3183TIP3    H230965   6.507   2.904  16.124  0.0282  0.2403  0.6398
 3184TIP3   OH230966   6.126   0.561  15.727 -0.0738  0.2411  0.5464
 3184TIP3    H130967   6.184   0.536  15.798  0.4841  1.1393  0.4307
 3184TIP3    H230968   6.158   0.648  15.700 -0.6113  0.1482 -0.4283
 3185TIP3   OH230969   6.419   5.077  14.158 -0.1084 -0.0233  0.0388
 3185TIP3    H130970   6.353   5.138  14.191  0.2445  0.8942 -0.9164
 3185TIP3    H230971   6.384   5.046  14.075 -0.4393 -1.4236  0.6513
 3186TIP3   OH230972   4.632   1.521  15.379  0.3235  0.4716 -0.1507
 3186TIP3    H130973   4.711   1.569  15.407 -0.1481  1.2785 -0.1656
 3186TIP3    H230974   4.666   1.445  15.332  1.1087  0.1788  0.8319
 3187TIP3   OH230975   1.481   3.180  11.274  0.4427 -0.1057 -0.1556
 3187TIP3    H130976   1.437   3.225  11.202 -1.4280  0.4461  1.2163
 3187TIP3    H230977   1.517   3.251  11.328  1.4089 -0.4814 -0.2911
 3188TIP3   OH230978   2.928   3.540  14.339 -0.2797  0.5797  0.1013
 3188TIP3    H130979   3.001   3.505  14.388 -0.2811  1.2249  0.5748
 3188TIP3    H230980   2.935   3.635  14.348 -1.0331  0.6632 -0.0482
 3189TIP3   OH230981   2.182   4.163  13.791 -0.0012  0.1803  0.6694
 3189TIP3    H130982   2.181   4.096  13.860  0.5696  0.5808  1.0846
 3189TIP3    H230983   2.187   4.245  13.839  0.6519  0.4527  0.1436
 3190TIP3   OH230984   0.758   2.054   2.619 -0.3741 -0.3818  0.3097
 3190TIP3    H130985   0.840   2.010   2.598  0.2996  0.7231  0.5060
 3190TIP3    H230986   0.779   2.148   2.610 -2.3507 -0.0716 -2.4619
 3191TIP3   OH230987   3.844   3.103   6.075 -0.6444 -0.0735 -0.4815
 3191TIP3    H130988   3.816   3.166   6.141  2.0449  1.1569 -0.3569
 3191TIP3    H230989   3.928   3.070   6.108 -1.3566 -2.8324 -1.1694
 3192TIP3   OH230990   6.138   6.445   3.396 -0.7592  0.0516 -0.3237
 3192TIP3    H130991   6.091   6.408   3.471 -0.2304 -1.2496 -0.6144
 3192TIP3    H230992   6.156   6.370   3.340  0.1707  0.7943 -1.0375
 3193TIP3   OH230993   0.504   0.666  16.692  0.0640  0.2188 -0.2404
 3193TIP3    H130994   0.527   0.575  16.710 -0.9823 -0.9232 -3.8000
 3193TIP3    H230995   0.431   0.684  16.751  1.1538 -0.7168  1.4897
 3194TIP3   OH230996   2.585   4.375   3.930  0.5669  0.2866  0.3269
 3194TIP3    H130997   2.572   4.290   3.887 -3.2094  0.3219  1.0994
 3194TIP3    H230998   2.652   4.358   3.996  1.5779 -1.4416 -1.0344
 3195TIP3   OH230999   4.689   5.673   6.753  0.2472 -0.4692  0.2221
 3195TIP3    H131000   4.708   5.760   6.717 -0.8140 -0.8401 -1.3453
 3195TIP3    H231001   4.594   5.667   6.751  0.1616 -0.8410  2.4785
 3196TIP3   OH231002   1.520   1.339   6.628 -0.3482  0.7704 -0.1742
 3196TIP3    H131003   1.602   1.364   6.585 -0.5531  2.5170  0.3702
 3196TIP3    H231004   1.547   1.281   6.700  0.4083  1.2816 -0.0380
 3197TIP3   OH231005   0.546   2.477   4.968 -0.5883  0.4773 -0.2796
 3197TIP3    H131006   0.618   2.538   4.982  0.7453 -1.4161  1.7350
 3197TIP3    H231007   0.548   2.459   4.874  0.1015  2.1407 -0.6116
 3198TIP3   OH231008   3.715   3.044  10.963 -0.1846  0.8789  0.2774
 3198TIP3    H131009   3.683   2.974  11.020 -1.6086  0.5237 -0.8936
 3198TIP3    H231010   3.792   3.007  10.919 -0.6735  0.1985 -0.0097
 3199TIP3   OH231011   6.122   3.391   0.233  0.3434  0.1623 -0.2146
 3199TIP3    H131012   6.176   3.315   0.211  0.6117  0.3624 -0.2463
 3199TIP3    H231013   6.183   3.464   0.234  0.5579  0.0364  2.1389
 3200TIP3   OH231014   4.523   1.301   2.087  0.0271 -0.1689 -0.2866
 3200TIP3    H131015   4.606   1.333   2.121 -0.7140 -0.0679  1.5610
 3200TIP3    H231016   4.541   1.280   1.995  1.2578  2.8932 -0.8647
 3201TIP3   OH231017   0.420   0.209   2.414 -0.5926  0.0816  0.3585
 3201TIP3    H131018   0.381   0.121   2.411  0.0269 -0.3290  2.4850
 3201TIP3    H231019   0.424   0.230   2.507  0.3451  1.8929 -0.0497
 3202TIP3   OH231020   0.025   6.387  13.542  0.1262 -0.0204  0.7213
 3202TIP3    H131021   0.053   6.344  13.623 -0.1661  1.3602  1.5928
 3202TIP3    H231022   0.105   6.424  13.506  0.3018 -0.8605  0.2071
 3203TIP3   OH231023   5.472   0.539  14.665 -0.3303 -0.1303  0.0577
 3203TIP3    H131024   5.396   0.558  14.719 -0.0612 -3.0002  1.6373
 3203TIP3    H231025   5.438   0.537  14.575 -1.2045  2.6419  0.2487
 3204TIP3   OH231026   1.661   2.613   6.006 -0.2405  0.5861  0.0873
 3204TIP3    H131027   1.755   2.596   6.003 -0.6917 -2.4427 -0.5336
 3204TIP3    H231028   1.642   2.623   6.100  0.7792  2.0542  0.1595
 3205TIP3   OH231029   5.522   5.646  16.770 -0.1775  0.5563 -0.7021
 3205TIP3    H131030   5.543   5.600  16.852 -0.1393 -0.2992 -1.1799
 3205TIP3    H231031   5.430   5.626  16.755 -0.2292  0.8536 -0.7886
 3206TIP3   OH231032   2.935   2.139  13.304  0.4729  0.4900 -0.4815
 3206TIP3    H131033   3.030   2.148  13.306  0.4241  1.2353  1.5576
 3206TIP3    H231034   2.902   2.229  13.308 -0.2490  0.1882  1.4550
 3207TIP3   OH231035   1.524   1.273  13.347 -0.1396 -0.0178 -0.4541
 3207TIP3    H131036   1.617   1.255  13.341 -0.0558  0.1217  0.3758
 3207TIP3    H231037   1.508   1.339  13.280  0.1994 -0.6181 -1.1417
 3208TIP3   OH231038   2.926   0.131  13.130  0.2924 -0.3580 -0.0549
 3208TIP3    H131039   2.871   0.204  13.159  0.8141 -0.6735  1.8727
 3208TIP3    H231040   2.966   0.162  13.049 -0.5516  0.9655  0.0002
 3209TIP3   OH231041   4.549   1.054   0.086  0.1476  0.0078  0.0760
 3209TIP3    H131042   4.618   1.106   0.128 -1.0005  0.5956  1.3110
 3209TIP3    H231043   4.591   0.969   0.068  0.9856  0.0808  1.5138
 3210TIP3   OH231044   0.729   4.006   4.256  0.1613  0.1878 -0.7818
 3210TIP3    H131045   0.686   4.081   4.215 -1.5517  0.3254  1.1495
 3210TIP3    H231046   0.780   3.966   4.185  0.4279  2.6456 -2.0604
 3211TIP3   OH231047   3.527   0.007  12.101 -0.4738  0.1858  0.2796
 3211TIP3    H131048   3.593  -0.062  12.111  2.1738  2.8161  5.3557
 3211TIP3    H231049   3.551   0.051  12.020  0.5128 -2.1759 -0.8035
 3212TIP3   OH231050   2.277   5.200   4.297  0.4177 -0.0413 -0.2216
 3212TIP3    H131051   2.354   5.256   4.286  1.0372 -0.3208  2.2385
 3212TIP3    H231052   2.204   5.261   4.305  0.6856  0.3071 -0.3947
 3213TIP3   OH231053   4.803   5.605   3.046  0.2259 -0.5309  0.2549
 3213TIP3    H131054   4.814   5.681   3.103  1.5974 -0.7907  0.3636
 3213TIP3    H231055   4.802   5.530   3.105  0.2107 -0.6962  0.0478
 3214TIP3   OH231056   0.644   0.690  13.549  0.0986 -0.5338  0.4127
 3214TIP3    H131057   0.652   0.758  13.615  0.3507 -1.2056  1.0873
 3214TIP3    H231058   0.690   0.725  13.472 -1.3642  0.8214  0.1160
 3215TIP3   OH231059   5.930   0.325  15.495 -0.2247  0.2885  0.2391
 3215TIP3    H131060   6.019   0.309  15.527 -0.4248  0.8298  1.1063
 3215TIP3    H231061   5.923   0.271  15.416  1.4889  1.6071 -0.8896
 3216TIP3   OH231062   0.798   5.626  13.038  0.4073 -0.2950 -0.3029
 3216TIP3    H131063   0.845   5.547  13.065  0.2205 -0.2916  0.0337
 3216TIP3    H231064   0.848   5.659  12.964 -0.2750 -1.5129 -1.3617
 3217TIP3   OH231065   0.859   6.238  12.925 -0.6017 -0.0300  0.0627
 3217TIP3    H131066   0.871   6.327  12.959 -0.0180  0.1924 -0.6796
 3217TIP3    H231067   0.925   6.186  12.970 -1.6330 -0.3259  1.2785
 3218TIP3   OH231068   6.523   1.288  12.570  0.2183 -0.3757  0.3801
 3218TIP3    H131069   6.546   1.325  12.655  0.5902 -0.1844  0.1949
 3218TIP3    H231070   6.531   1.193  12.582  1.0161 -0.3182  0.3452
 3219TIP3   OH231071   3.386   5.887  12.416 -0.1729 -0.1907  0.2342
 3219TIP3    H131072   3.377   5.913  12.507  0.0016 -0.0286  0.2065
 3219TIP3    H231073   3.297   5.879  12.383 -0.2330 -0.0934  0.3766
 3220TIP3   OH231074   0.151   6.336   6.585  0.1860 -0.0255  0.1407
 3220TIP3    H131075   0.164   6.388   6.505  0.0865 -0.5250 -0.2020
 3220TIP3    H231076   0.161   6.400   6.656  1.0031  0.2850 -0.2345
 3221TIP3   OH231077   3.478   2.584   3.003 -0.3389  0.5524 -0.8215
 3221TIP3    H131078   3.571   2.564   2.990 -0.3773  0.2812 -0.6829
 3221TIP3    H231079   3.474   2.617   3.092 -0.4785 -0.0809 -0.5893
 3222TIP3   OH231080   0.809   0.662   5.540  0.0097 -0.0146 -0.0665
 3222TIP3    H131081   0.887   0.705   5.504 -1.5129  1.0024 -2.4845
 3222TIP3    H231082   0.829   0.569   5.538  1.3262  0.2548 -0.2005
 3223TIP3   OH231083   1.127   2.768   1.828 -0.0425 -0.1185  0.5926
 3223TIP3    H131084   1.046   2.736   1.787 -1.5264  3.1963  0.6296
 3223TIP3    H231085   1.174   2.813   1.758  1.6455 -1.6135  0.6875
 3224TIP3   OH231086   0.427   0.988  17.171 -0.6132 -0.4840 -0.2062
 3224TIP3    H131087   0.386   1.005  17.256  1.6748  2.3821  0.4594
 3224TIP3    H231088   0.502   0.932  17.191 -0.3245 -0.1661 -0.3857
 3225TIP3   OH231089   2.184   4.051  14.227 -0.1011  1.0691 -0.4049
 3225TIP3    H131090   2.094   4.050  14.193 -0.7060  0.9870  1.1234
 3225TIP3    H231091   2.238   4.066  14.150 -1.0373 -3.1698 -2.1906
 3226TIP3   OH231092   5.007   4.976   3.600  0.1995  0.0477 -0.4124
 3226TIP3    H131093   4.963   4.893   3.577 -0.2033  0.3393 -0.7110
 3226TIP3    H231094   5.080   4.949   3.655 -1.4758 -0.3280  1.7892
 3227TIP3   OH231095   3.316   3.213  11.695 -0.2068 -0.4377 -0.0072
 3227TIP3    H131096   3.352   3.249  11.776  0.0784 -0.5076 -0.1023
 3227TIP3    H231097   3.301   3.290  11.640 -0.2842 -0.4006  0.0665
 3228TIP3   OH231098   0.568   4.726  12.622 -0.0327 -0.5143  0.2044
 3228TIP3    H131099   0.533   4.664  12.558  2.2889  0.9032 -2.6926
 3228TIP3    H231100   0.502   4.794  12.629 -0.4057 -0.7964 -0.5232
 3229TIP3   OH231101   0.560   1.135  12.737  0.4503  0.6432 -0.0572
 3229TIP3    H131102   0.638   1.169  12.780 -0.0845  0.1967  1.3387
 3229TIP3    H231103   0.577   1.041  12.728  0.5515  0.7337 -0.8172
 3230TIP3   OH231104   4.414   6.560  16.329  0.3003  0.4876 -0.4940
 3230TIP3    H131105   4.403   6.646  16.290  1.5764  0.8847 -0.0297
 3230TIP3    H231106   4.340   6.509  16.296  0.3722  1.3023 -2.0029
 3231TIP3   OH231107   1.836   5.740   3.184 -0.0531 -0.0380  0.3522
 3231TIP3    H131108   1.896   5.703   3.118  0.6132  2.2230 -0.3998
 3231TIP3    H231109   1.752   5.745   3.139 -0.6470 -2.2308  1.0686
 3232TIP3   OH231110   5.538   2.751   5.522  0.0475 -0.1812  0.1151
 3232TIP3    H131111   5.614   2.803   5.494 -0.2766  0.2867  0.0978
 3232TIP3    H231112   5.489   2.735   5.442 -1.7239  2.5042  0.5342
 3233TIP3   OH231113   1.195   1.717  15.469 -0.3965  0.9751  0.2814
 3233TIP3    H131114   1.272   1.771  15.484  0.7555 -0.4408 -0.2689
 3233TIP3    H231115   1.199   1.650  15.538  1.0253 -1.3359 -1.8555
 3234TIP3   OH231116   5.198   4.092   0.833  0.2132 -0.0441  0.2453
 3234TIP3    H131117   5.159   4.097   0.920  0.4482 -2.2163  0.5242
 3234TIP3    H231118   5.266   4.025   0.841  1.3548  0.8870 -1.2165
 3235TIP3   OH231119   2.535   6.272   1.812  0.8237  0.1134  0.1444
 3235TIP3    H131120   2.484   6.227   1.744  0.2761  0.5348  0.2649
 3235TIP3    H231121   2.545   6.361   1.780  0.3069  0.3982  0.7372
 3236TIP3   OH231122   2.420   0.306  10.635  0.4547  0.3186 -0.3252
 3236TIP3    H131123   2.441   0.400  10.637  0.8530  0.2607  2.4669
 3236TIP3    H231124   2.501   0.264  10.607  1.3092  0.6954  1.3923
 3237TIP3   OH231125   4.964   0.889   5.651  0.2985  0.5708 -0.2075
 3237TIP3    H131126   4.927   0.853   5.732 -0.9153 -0.0561 -1.0172
 3237TIP3    H231127   4.889   0.922   5.603  0.6728 -1.1361 -2.1015
 3238TIP3   OH231128   2.427   2.772  16.741  0.8098 -0.0568  0.4245
 3238TIP3    H131129   2.391   2.694  16.699 -0.0375  0.1240  0.7795
 3238TIP3    H231130   2.458   2.740  16.826 -1.5582  0.3403  1.5167
 3239TIP3   OH231131   0.085   2.075  12.673 -0.1732  0.2787 -0.4511
 3239TIP3    H131132   0.162   2.020  12.688  1.1882  0.9730 -3.8687
 3239TIP3    H231133   0.105   2.157  12.716  1.5600  0.7823 -2.0622
 3240TIP3   OH231134   2.814   1.354   1.799  0.1394 -0.1772  0.3898
 3240TIP3    H131135   2.812   1.402   1.882  0.8509 -0.3235  0.4970
 3240TIP3    H231136   2.844   1.267   1.822 -1.9517 -0.9700  0.3148
 3241TIP3   OH231137   4.205   1.400   0.268  0.6941  0.0343 -0.4305
 3241TIP3    H131138   4.213   1.359   0.182  0.5163 -0.4369 -0.2240
 3241TIP3    H231139   4.126   1.454   0.261  1.4512  1.1190 -1.0073
 3242TIP3   OH231140   3.028   0.711   2.593  0.7015  0.0019  0.4689
 3242TIP3    H131141   3.012   0.725   2.500 -0.2493 -3.1492  0.0406
 3242TIP3    H231142   3.121   0.694   2.600  1.0281  1.5785  0.3572
 3243TIP3   OH231143   1.809   3.460  16.406  0.0073  0.2691 -0.0296
 3243TIP3    H131144   1.799   3.369  16.434  2.6519  0.0838  0.5130
 3243TIP3    H231145   1.745   3.469  16.335 -0.4007 -1.9654 -0.0363
 3244TIP3   OH231146   3.542   3.393  13.099 -0.2850  0.2909 -0.3003
 3244TIP3    H131147   3.563   3.338  13.174 -1.1506  0.8992  0.4086
 3244TIP3    H231148   3.496   3.468  13.136 -1.4273  0.2349 -1.5167
 3245TIP3   OH231149   4.719   1.017   3.773 -0.2956  0.2978  0.2110
 3245TIP3    H131150   4.667   0.994   3.850 -0.8697  0.7322 -0.0354
 3245TIP3    H231151   4.728   1.112   3.778  3.8862 -0.0045  2.3945
 3246TIP3   OH231152   1.306   2.494   5.688 -0.3510 -0.2559  0.0063
 3246TIP3    H131153   1.319   2.411   5.644 -0.1732  0.9266 -2.3151
 3246TIP3    H231154   1.385   2.506   5.741 -0.0028 -1.1793 -0.2990
 3247TIP3   OH231155   3.482   1.035   2.245 -0.4747 -0.0489  0.2979
 3247TIP3    H131156   3.407   1.027   2.304 -1.9424  0.3744 -1.4332
 3247TIP3    H231157   3.476   0.960   2.187 -0.8991  1.1700 -1.2871
 3248TIP3   OH231158   1.714   3.872  12.616 -0.4103  0.0136 -0.0782
 3248TIP3    H131159   1.634   3.837  12.576 -0.8206 -0.4087  1.0606
 3248TIP3    H231160   1.780   3.806  12.597 -0.1698  0.6366 -1.5226
 3249TIP3   OH231161   6.677   4.553   2.845 -0.2532 -0.2590 -0.0955
 3249TIP3    H131162   6.730   4.525   2.920 -2.7879  0.7703  2.2565
 3249TIP3    H231163   6.698   4.646   2.834 -0.6423 -0.1554  0.0287
 3250TIP3   OH231164   3.491   0.143  13.748 -0.4419  0.0114  0.1147
 3250TIP3    H131165   3.488   0.151  13.844  0.0256  1.9493  0.0131
 3250TIP3    H231166   3.450   0.224  13.716 -0.0356 -0.3210 -1.3180
 3251TIP3   OH231167   5.580   4.888  11.637 -0.0904 -0.0635 -0.0682
 3251TIP3    H131168   5.613   4.837  11.711 -0.7070 -0.8717 -0.3341
 3251TIP3    H231169   5.546   4.968  11.677  0.5163 -0.0325  0.4022
 3252TIP3   OH231170   2.580   0.286   2.921 -0.0046 -0.2719  0.1201
 3252TIP3    H131171   2.573   0.197   2.888  3.3891 -1.1503  1.3212
 3252TIP3    H231172   2.541   0.341   2.852  1.1913 -2.4163 -2.4438
 3253TIP3   OH231173   2.166   1.807   0.069 -0.0231  0.3474  0.2896
 3253TIP3    H131174   2.226   1.881   0.058  1.5467 -0.8620  0.3339
 3253TIP3    H231175   2.157   1.797   0.164 -0.3765  0.5813  0.2825
 3254TIP3   OH231176   3.856   0.482  14.896 -0.6518  0.6290  0.0746
 3254TIP3    H131177   3.823   0.516  14.979  0.6953  0.2183  0.8174
 3254TIP3    H231178   3.857   0.558  14.838 -1.0184  1.0611  0.6199
 3255TIP3   OH231179   0.269   3.992   3.671 -0.1578  0.8347  0.0268
 3255TIP3    H131180   0.307   4.027   3.590  2.3158  0.4259  0.9260
 3255TIP3    H231181   0.234   3.907   3.646  0.2471  0.8701 -0.6953
 3256TIP3   OH231182   4.803   1.472   1.861 -0.1397  0.4153  0.2085
 3256TIP3    H131183   4.727   1.493   1.805 -0.1897  1.5425  0.6678
 3256TIP3    H231184   4.838   1.557   1.886  1.1687 -0.0918  0.1863
 3257TIP3   OH231185   5.525   1.793   5.640  0.4348  0.6295 -0.1292
 3257TIP3    H131186   5.575   1.864   5.681  0.3058  1.7916 -1.9104
 3257TIP3    H231187   5.457   1.772   5.705  2.2275  0.0321  1.6934
 3258TIP3   OH231188   1.127   3.112  16.163 -0.8568 -0.1764  0.5625
 3258TIP3    H131189   1.056   3.157  16.208 -2.3656  1.7221 -3.2169
 3258TIP3    H231190   1.207   3.155  16.195 -1.9232  1.9250  0.5819
 3259TIP3   OH231191   5.043   3.737   2.506  0.0139 -0.3801  0.2513
 3259TIP3    H131192   5.014   3.826   2.529  2.5488  1.4512 -2.8156
 3259TIP3    H231193   4.967   3.698   2.463 -0.2790  1.5661 -1.1773
 3260TIP3   OH231194   3.099   1.616  11.549 -0.1521 -0.6261  0.0939
 3260TIP3    H131195   3.032   1.653  11.606  1.4942 -1.5114  2.7794
 3260TIP3    H231196   3.097   1.522  11.567  3.8531 -0.4160  2.8672
 3261TIP3   OH231197   1.991   3.574   4.569  0.5253  0.6535 -0.1488
 3261TIP3    H131198   2.072   3.586   4.619  1.4852 -0.9493 -1.2088
 3261TIP3    H231199   1.944   3.505   4.616 -0.4584  1.8683  0.6978
 3262TIP3   OH231200   6.017   2.501  17.094 -0.7106  0.1866 -0.4303
 3262TIP3    H131201   5.980   2.483  17.181  0.6166  1.6046  0.4785
 3262TIP3    H231202   6.108   2.470  17.100  0.7149  3.9807  0.1901
 3263TIP3   OH231203   1.297   1.988   5.833 -0.5536  0.8317 -0.1380
 3263TIP3    H131204   1.322   2.076   5.863  0.1869  0.2135  1.1237
 3263TIP3    H231205   1.373   1.956   5.785 -0.9389  0.9777 -0.8694
 3264TIP3   OH231206   3.659   0.767  15.945  0.5855 -0.1751 -0.7636
 3264TIP3    H131207   3.592   0.702  15.927 -1.6224  1.9372 -0.7895
 3264TIP3    H231208   3.697   0.741  16.029 -2.8044  0.3558  1.1083
 3265TIP3   OH231209   6.331   2.434  16.668 -0.0101  0.1698  0.0762
 3265TIP3    H131210   6.251   2.381  16.666 -0.1495  0.3927 -0.1536
 3265TIP3    H231211   6.319   2.490  16.745 -0.7501  1.2612 -0.8103
 3266TIP3   OH231212   3.164   1.603  16.841 -0.5832 -0.2908  0.6411
 3266TIP3    H131213   3.196   1.525  16.795  0.7613  0.7892 -0.3709
 3266TIP3    H231214   3.135   1.571  16.926 -0.3346 -1.9300  0.1402
 3267TIP3   OH231215   0.607   6.639  13.779  0.3720 -0.4711  0.0279
 3267TIP3    H131216   0.595   6.648  13.685  0.1075  0.2860  0.1280
 3267TIP3    H231217   0.535   6.584  13.808 -0.5287  0.6832  0.0279
 3268TIP3   OH231218   5.693   4.960  13.973 -0.7784 -0.0689 -0.0898
 3268TIP3    H131219   5.687   4.937  14.066 -2.0621 -0.0697 -0.1533
 3268TIP3    H231220   5.765   5.024  13.969  0.2707 -1.1709  0.6579
 3269TIP3   OH231221   3.143   1.488   6.362 -0.0916  0.1555 -0.2317
 3269TIP3    H131222   3.149   1.568   6.414 -0.6418 -0.7217  1.2390
 3269TIP3    H231223   3.231   1.450   6.365 -0.3620 -0.4246  0.9867
 3270TIP3   OH231224   4.102   6.542  12.501  0.2171 -0.1597 -0.2600
 3270TIP3    H131225   4.198   6.537  12.497  0.2887 -0.7720  1.2672
 3270TIP3    H231226   4.073   6.459  12.463  0.3103 -0.0875 -0.4879
 3271TIP3   OH231227   3.273   1.640  17.235 -0.6216 -0.0395 -0.6754
 3271TIP3    H131228   3.268   1.732  17.259 -1.9233 -0.5176  1.0811
 3271TIP3    H231229   3.367   1.622  17.225 -0.4013  1.9851 -3.4971
 3272TIP3   OH231230   1.851   4.587   2.513  0.4920 -0.0698  0.1265
 3272TIP3    H131231   1.882   4.677   2.503 -0.2663  0.2264  0.3785
 3272TIP3    H231232   1.842   4.555   2.423 -3.5016  1.6085 -0.2653
 3273TIP3   OH231233   6.450   6.371   3.747  0.5214  0.6563 -0.7167
 3273TIP3    H131234   6.405   6.454   3.764  0.9079  0.6016  0.7064
 3273TIP3    H231235   6.543   6.394   3.741  0.6114  0.3583 -0.5107
 3274TIP3   OH231236   4.267   5.162  15.013  0.3500  0.2995  0.2436
 3274TIP3    H131237   4.189   5.195  15.057 -0.2545 -2.1495  1.1543
 3274TIP3    H231238   4.338   5.174  15.076  0.8186  2.6218 -0.6237
 3275TIP3   OH231239   5.532   2.158   4.488  0.1509 -0.8776  0.2455
 3275TIP3    H131240   5.521   2.147   4.393 -0.9763 -1.4671  0.4201
 3275TIP3    H231241   5.614   2.114   4.508  1.2434  0.6453 -0.6762
 3276TIP3   OH231242   5.750   5.726   2.513  0.0773 -0.0258  0.1459
 3276TIP3    H131243   5.773   5.755   2.602 -0.6319 -0.3340  0.4383
 3276TIP3    H231244   5.797   5.787   2.456  0.8161 -0.0270  0.7209
 3277TIP3   OH231245   0.728   5.534   5.656 -0.4544  0.3229 -0.0359
 3277TIP3    H131246   0.686   5.484   5.585  1.2331  1.3160 -1.8389
 3277TIP3    H231247   0.690   5.621   5.650  1.1257  0.9696 -1.0814
 3278TIP3   OH231248   2.866   3.163  11.535 -0.2598  0.1334  0.4878
 3278TIP3    H131249   2.928   3.233  11.516 -0.7581  0.5476  0.3569
 3278TIP3    H231250   2.900   3.087  11.488 -1.0801  0.9480 -1.4860
 3279TIP3   OH231251   6.285   5.250   2.306  0.3742 -0.0850 -0.1996
 3279TIP3    H131252   6.268   5.174   2.361  1.7667 -1.2932 -1.3446
 3279TIP3    H231253   6.379   5.248   2.290  0.0970  0.4636 -2.2372
 3280TIP3   OH231254   5.850   4.932   4.301 -0.2362 -0.3542  0.6716
 3280TIP3    H131255   5.938   4.910   4.332  0.0673 -0.0926  0.0253
 3280TIP3    H231256   5.848   4.900   4.211 -1.3475 -1.7302  1.1700
 3281TIP3   OH231257   0.753   2.389  14.336 -0.4410  0.3393  0.2081
 3281TIP3    H131258   0.760   2.400  14.431 -3.8925  3.2029  0.3484
 3281TIP3    H231259   0.688   2.320  14.325  0.6649 -0.6760 -0.1646
 3282TIP3   OH231260   3.745   5.897   6.541  0.1226  0.5700 -0.3333
 3282TIP3    H131261   3.656   5.863   6.549  0.7818 -1.0313  0.6777
 3282TIP3    H231262   3.736   5.991   6.557 -1.3070  0.3428  0.3726
 3283TIP3   OH231263   1.747   1.712   4.992  0.1460 -0.6840 -0.2484
 3283TIP3    H131264   1.694   1.790   5.010  0.2652 -0.5471 -0.4845
 3283TIP3    H231265   1.692   1.658   4.936  0.4361 -0.3192 -0.9007
 3284TIP3   OH231266   5.786   0.804   3.914 -0.3905  0.2237 -0.2624
 3284TIP3    H131267   5.754   0.888   3.946 -0.7495 -0.1867  0.4836
 3284TIP3    H231268   5.854   0.779   3.976 -0.7235 -0.3343 -0.1153
 3285TIP3   OH231269   5.212   0.633  14.564  0.6964 -0.1926 -0.2740
 3285TIP3    H131270   5.205   0.606  14.655  0.1370 -1.7992 -0.7486
 3285TIP3    H231271   5.147   0.703  14.554 -1.6874 -2.2441 -0.1721
 3286TIP3   OH231272   2.869   6.221   0.504 -0.0668 -0.0035  0.1017
 3286TIP3    H131273   2.830   6.150   0.556 -1.0094 -0.7568 -1.5614
 3286TIP3    H231274   2.955   6.188   0.478  0.6509  0.6019  1.5823
 3287TIP3   OH231275   3.039   3.929   1.267 -0.5710 -0.8614 -0.2808
 3287TIP3    H131276   2.967   3.991   1.257  1.5320  1.6312 -1.2030
 3287TIP3    H231277   3.048   3.917   1.361 -1.0434  0.2067 -0.0902
 3288TIP3   OH231278   0.510   1.671  15.620  0.1444  0.4012 -0.4107
 3288TIP3    H131279   0.599   1.644  15.599  0.6128  1.8071 -0.3299
 3288TIP3    H231280   0.499   1.756  15.577 -0.1269  1.6325  1.9229
 3289TIP3   OH231281   5.292   5.626   4.430 -0.1714  0.1176  0.3399
 3289TIP3    H131282   5.354   5.566   4.472 -1.1118 -0.9858  0.1941
 3289TIP3    H231283   5.288   5.597   4.339 -0.5721  0.4646  0.2438
 3290TIP3   OH231284   3.213   1.337   5.795  0.2104 -0.4881 -0.3329
 3290TIP3    H131285   3.258   1.379   5.722 -0.1428 -0.4484 -0.5319
 3290TIP3    H231286   3.197   1.409   5.857  1.3340 -0.6874  0.2140
 3291TIP3   OH231287   3.525   4.960  17.224 -0.4599 -0.3701 -0.1282
 3291TIP3    H131288   3.572   5.033  17.264 -0.9984 -0.2330  0.2511
 3291TIP3    H231289   3.519   4.894  17.293 -1.5594 -0.0574  0.0863
 3292TIP3   OH231290   5.611   1.759   6.380 -0.0410  0.7333 -0.3169
 3292TIP3    H131291   5.676   1.794   6.442  0.6172  1.8145 -1.5487
 3292TIP3    H231292   5.657   1.688   6.334 -0.7181 -0.4605  0.7933
 3293TIP3   OH231293   0.325   1.873   4.724 -0.1277 -0.1681  0.3780
 3293TIP3    H131294   0.309   1.835   4.638  0.6821 -0.2476  0.2520
 3293TIP3    H231295   0.322   1.967   4.709  0.5343 -0.1788  0.1521
 3294TIP3   OH231296   2.752   6.043   1.629 -0.5279 -0.6395 -0.0002
 3294TIP3    H131297   2.734   6.093   1.709  0.0005 -0.5086  0.0421
 3294TIP3    H231298   2.847   6.032   1.629 -0.6100 -1.4365 -0.1378
 3295TIP3   OH231299   4.946   0.103   1.391  0.2412 -0.3617 -0.0027
 3295TIP3    H131300   4.870   0.046   1.383  1.0301 -1.2399 -1.8601
 3295TIP3    H231301   4.910   0.192   1.388 -0.8152 -0.7352  0.8233
 3296TIP3   OH231302   0.143   1.222   1.929  0.4675  0.0770  0.0447
 3296TIP3    H131303   0.118   1.130   1.920  0.9687 -0.0281 -0.3369
 3296TIP3    H231304   0.175   1.229   2.019 -1.0296  0.2493  0.5903
 3297TIP3   OH231305   2.204   1.045  17.330  0.2119  0.0715  0.2299
 3297TIP3    H131306   2.267   0.989  17.377 -0.7117 -0.3852  0.9512
 3297TIP3    H231307   2.258   1.115  17.293  1.2617 -0.7615  0.1255
 3298TIP3   OH231308   6.141   0.188  16.521  0.0981  0.6235  0.1230
 3298TIP3    H131309   6.127   0.142  16.604  1.2815 -0.4429 -0.2368
 3298TIP3    H231310   6.194   0.264  16.545 -2.1535  2.0864  0.7756
 3299TIP3   OH231311   3.806   4.268   0.880 -0.6475 -0.4905 -0.3939
 3299TIP3    H131312   3.758   4.340   0.921 -1.2890 -0.5394 -1.0361
 3299TIP3    H231313   3.877   4.310   0.833 -1.5721 -0.1740 -1.5468
 3300TIP3   OH231314   6.364   6.677   4.630  0.0584  1.0388 -0.0904
 3300TIP3    H131315   6.400   6.589   4.637 -0.2979  0.9205  0.2795
 3300TIP3    H231316   6.435   6.735   4.657  0.7270  0.9526 -1.5576
 3301TIP3   OH231317   0.753   3.666   1.228 -0.1020 -0.9059  0.3230
 3301TIP3    H131318   0.666   3.634   1.251 -1.3843  1.6697 -0.5306
 3301TIP3    H231319   0.792   3.691   1.312 -1.5015  0.8345  0.5272
 3302TIP3   OH231320   3.347   5.841  13.703 -0.1724 -0.7127 -0.1125
 3302TIP3    H131321   3.287   5.766  13.703  0.1965 -1.0427 -2.0895
 3302TIP3    H231322   3.434   5.802  13.697 -0.0332 -0.2690 -5.1140
 3303TIP3   OH231323   3.979   2.397  10.829  0.3176 -0.2934 -0.5702
 3303TIP3    H131324   3.909   2.359  10.882 -0.8816  0.7633 -1.3511
 3303TIP3    H231325   4.017   2.322  10.784  0.0814 -0.9577  0.2925
 3304TIP3   OH231326   5.696   6.397  15.835 -0.2115  0.0645  0.1710
 3304TIP3    H131327   5.782   6.408  15.795 -0.4174 -0.1826 -0.3565
 3304TIP3    H231328   5.706   6.430  15.924  0.6973 -0.8643  0.4335
 3305TIP3   OH231329   0.010   1.893  16.773  0.2938 -0.1813  0.6048
 3305TIP3    H131330  -0.034   1.867  16.692  2.4870 -0.2128 -0.6474
 3305TIP3    H231331   0.024   1.811  16.820  1.2491 -0.4876 -0.1895
 3306TIP3   OH231332   4.416   3.357  17.366  0.1613 -0.5930 -0.9202
 3306TIP3    H131333   4.343   3.311  17.324 -0.8849 -1.4921  1.7134
 3306TIP3    H231334   4.377   3.437  17.402  0.6901 -0.5790 -0.3615
 3307TIP3   OH231335   5.506   5.124  14.418  0.0599  0.7792 -0.2378
 3307TIP3    H131336   5.510   5.088  14.507  1.6903  0.6901 -0.3013
 3307TIP3    H231337   5.553   5.208  14.424  1.5856  0.0509 -1.2922
 3308TIP3   OH231338   6.224   2.871   5.527 -0.3875 -0.0167  0.2892
 3308TIP3    H131339   6.170   2.794   5.543 -0.0127 -0.0918  1.2579
 3308TIP3    H231340   6.297   2.862   5.588  0.3810  0.4144 -0.5457
 3309TIP3   OH231341   1.409   4.946   0.332 -0.1094 -0.0931 -0.0299
 3309TIP3    H131342   1.326   4.950   0.283 -1.1288 -2.9245  1.2782
 3309TIP3    H231343   1.476   4.937   0.264 -1.0069  0.6205 -1.0570
 3310TIP3   OH231344   5.688   6.670  14.787  0.3561  0.1383 -0.9780
 3310TIP3    H131345   5.737   6.654  14.867 -0.9232  4.1030  0.8553
 3310TIP3    H231346   5.601   6.634  14.804  0.6938 -1.0225 -1.5810
 3311TIP3   OH231347   3.426   2.004   6.411  0.2422  0.2373  0.1967
 3311TIP3    H131348   3.384   1.964   6.334  3.6044 -2.8707 -0.3022
 3311TIP3    H231349   3.410   1.941   6.481  2.4875 -0.2052  0.3712
 3312TIP3   OH231350   1.242   1.111  15.576 -0.2468 -0.1627  0.1945
 3312TIP3    H131351   1.177   1.050  15.543 -0.9421  1.0182 -0.6938
 3312TIP3    H231352   1.222   1.119  15.669  0.5850 -2.1263  0.6032
 3313TIP3   OH231353   6.448   3.510   4.962 -0.8262 -0.0391  0.4854
 3313TIP3    H131354   6.472   3.434   5.015 -3.2616 -0.4005  1.1637
 3313TIP3    H231355   6.372   3.482   4.911 -1.2214  1.6563  0.0635
 3314TIP3   OH231356   4.551   5.471  14.684 -0.2110 -0.2296  0.5116
 3314TIP3    H131357   4.567   5.563  14.664  1.5856 -0.3304  1.3427
 3314TIP3    H231358   4.630   5.426  14.656 -1.0169 -1.5351  0.2145
 3315TIP3   OH231359   3.111   5.098   2.907 -0.0829  0.4588 -0.3062
 3315TIP3    H131360   3.037   5.048   2.873 -0.9450  0.9881  0.7100
 3315TIP3    H231361   3.111   5.079   3.001  0.9464  0.6501 -0.2538
 3316TIP3   OH231362   1.644   1.158   0.666  0.1473 -0.1523  0.1148
 3316TIP3    H131363   1.559   1.138   0.626 -0.2431  3.3775 -1.2318
 3316TIP3    H231364   1.626   1.163   0.760 -0.3746 -2.4014  0.1895
 3317TIP3   OH231365   6.404   5.850   6.071  0.0516  0.0657  0.0382
 3317TIP3    H131366   6.386   5.766   6.113 -2.3401 -0.1846 -1.2941
 3317TIP3    H231367   6.375   5.838   5.980  1.4814  1.7537 -0.7038
 3318TIP3   OH231368   5.390   3.467   2.689  0.0354  0.1145  0.4228
 3318TIP3    H131369   5.340   3.395   2.728  1.3877 -0.5021  1.0955
 3318TIP3    H231370   5.466   3.425   2.649  0.9459  1.1649  0.9822
 3319TIP3   OH231371   6.426   1.201   0.881  0.2744  0.3284 -0.3056
 3319TIP3    H131372   6.405   1.109   0.863 -0.8679  0.6071 -0.4644
 3319TIP3    H231373   6.400   1.214   0.972  1.4326  0.2295  0.0568
 3320TIP3   OH231374   1.220   6.069  12.310  0.1096  0.7384  0.3589
 3320TIP3    H131375   1.288   6.023  12.261  0.6865  1.1164  0.7967
 3320TIP3    H231376   1.198   6.144  12.255  0.3212  0.8324  0.4053
 3321TIP3   OH231377   0.882   3.383   1.783  0.0864  0.4833 -0.7803
 3321TIP3    H131378   0.821   3.391   1.710 -1.6625  0.1736  0.5923
 3321TIP3    H231379   0.901   3.289   1.788 -0.0372  0.4650 -0.6516
 3322TIP3   OH231380   6.624   3.269  15.782  0.3603 -0.1972 -0.0991
 3322TIP3    H131381   6.585   3.356  15.785  1.8694  0.6090 -1.9421
 3322TIP3    H231382   6.579   3.225  15.709 -0.9327 -1.3052  1.2884
 3323TIP3   OH231383   1.894   6.357  14.478  0.6062  0.0691  0.1655
 3323TIP3    H131384   1.846   6.307  14.544 -0.4384  0.7505 -0.0454
 3323TIP3    H231385   1.922   6.291  14.414 -2.5284 -0.1572 -1.2081
 3324TIP3   OH231386   6.331   5.595  15.060  0.0832  0.8202 -0.5405
 3324TIP3    H131387   6.382   5.600  14.978  1.5144 -0.0487  0.2555
 3324TIP3    H231388   6.335   5.503  15.085 -0.3325  1.0742  0.5128
 3325TIP3   OH231389   6.381   1.532  17.245 -0.5784  0.6500 -0.3693
 3325TIP3    H131390   6.334   1.538  17.328 -0.0939  0.3541 -0.0733
 3325TIP3    H231391   6.469   1.505  17.269  0.7657  4.3466 -0.5602
 3326TIP3   OH231392   1.325   3.785  14.774 -0.6391 -0.0785 -0.1595
 3326TIP3    H131393   1.331   3.777  14.869 -0.2229  2.6839  0.1248
 3326TIP3    H231394   1.409   3.752  14.742 -0.4085 -0.1507  0.5093
 3327TIP3   OH231395   6.275   6.661   0.408 -0.0938  0.5492  0.6637
 3327TIP3    H131396   6.279   6.753   0.433  0.5990  0.4832  0.8076
 3327TIP3    H231397   6.352   6.622   0.448  0.0877  0.0848 -0.1352
 3328TIP3   OH231398   4.467   3.386   2.950  0.2476 -0.2523 -0.6888
 3328TIP3    H131399   4.372   3.380   2.961  0.3668 -1.8920 -0.4084
 3328TIP3    H231400   4.503   3.327   3.016  1.4736  0.3587 -0.7828
 3329TIP3   OH231401   5.967   4.149   1.354 -0.0867 -0.9436 -0.4328
 3329TIP3    H131402   5.945   4.170   1.445 -1.1545 -2.2640 -0.3408
 3329TIP3    H231403   5.992   4.056   1.357 -0.1691 -1.0095 -1.4857
 3330TIP3   OH231404   0.919   1.205  11.280  0.4138 -0.3133  0.6824
 3330TIP3    H131405   0.901   1.173  11.191 -0.2603 -1.1655  1.1082
 3330TIP3    H231406   0.837   1.190  11.328 -0.3827  3.1152  0.6566
 3331TIP3   OH231407   4.103   2.398  17.067  0.5249 -0.4518 -0.8801
 3331TIP3    H131408   4.188   2.439  17.083  1.0209 -1.1215 -1.7446
 3331TIP3    H231409   4.113   2.308  17.098 -0.1322 -0.3169 -0.2371
 3332TIP3   OH231410   5.379   3.637  11.184  0.8954 -0.3964  0.0685
 3332TIP3    H131411   5.408   3.608  11.098  1.5134  0.5597 -0.0652
 3332TIP3    H231412   5.458   3.674  11.224  0.5109 -0.4373  0.8753
 3333TIP3   OH231413   2.210   5.638  16.058 -0.0556 -0.4224  0.5597
 3333TIP3    H131414   2.230   5.546  16.074  0.5543 -0.2563  0.7877
 3333TIP3    H231415   2.116   5.645  16.073 -0.4462 -1.3673 -1.2551
 3334TIP3   OH231416   0.740   5.367  15.705 -0.2223 -0.1706  0.1108
 3334TIP3    H131417   0.805   5.308  15.743 -1.5784 -1.1923  0.9045
 3334TIP3    H231418   0.703   5.413  15.780  0.2549  1.1592 -0.4245
 3335TIP3   OH231419   1.446   2.812   3.129  0.6203 -0.0702 -0.4411
 3335TIP3    H131420   1.492   2.834   3.210  1.1183 -0.5271 -0.5907
 3335TIP3    H231421   1.383   2.883   3.117  1.0864  0.4161 -0.0776
 3336TIP3   OH231422   0.807   0.635  13.116  0.0870  0.3856  0.3411
 3336TIP3    H131423   0.759   0.714  13.091  2.5088  1.4593 -1.2012
 3336TIP3    H231424   0.773   0.567  13.056  0.2119  1.0239 -0.4652
 3337TIP3   OH231425   3.825   1.020  16.637  0.0486  0.1522 -0.2720
 3337TIP3    H131426   3.912   0.981  16.639  0.6791  1.4932 -0.4163
 3337TIP3    H231427   3.827   1.081  16.564 -1.2055 -0.2031 -0.6216
 3338TIP3   OH231428   3.349   0.610   5.463  0.8546 -0.1879  0.3873
 3338TIP3    H131429   3.362   0.564   5.545  0.1700  1.9519  1.7914
 3338TIP3    H231430   3.300   0.549   5.408 -0.6048 -0.9290  2.3902
 3339TIP3   OH231431   0.320   6.175   2.944 -0.4832 -0.8066  0.5057
 3339TIP3    H131432   0.400   6.122   2.936  1.5620  2.2563 -1.0917
 3339TIP3    H231433   0.249   6.115   2.918  1.2680 -3.4887  1.4356
 3340TIP3   OH231434   1.441   0.988   2.937  0.2960 -0.0631  0.4646
 3340TIP3    H131435   1.424   0.945   3.021  3.1961 -2.2037  0.1511
 3340TIP3    H231436   1.474   1.074   2.961  0.1746 -0.2848  1.4918
 3341TIP3   OH231437   4.836   3.602  14.412 -0.0545  0.0377 -0.9540
 3341TIP3    H131438   4.840   3.522  14.465 -1.7182  0.1917 -0.5607
 3341TIP3    H231439   4.887   3.666  14.462 -2.0505  0.3354  0.8060
 3342TIP3   OH231440   6.161   0.105  14.254  0.4230  0.4002  0.2776
 3342TIP3    H131441   6.199   0.019  14.236 -1.9231 -0.6539  0.1139
 3342TIP3    H231442   6.226   0.148  14.310  0.9029 -2.1282  1.8282
 3343TIP3   OH231443   1.672   5.958  15.316  0.0259  0.1063  0.0121
 3343TIP3    H131444   1.662   5.946  15.411 -1.5775  1.0872  0.0072
 3343TIP3    H231445   1.749   6.014  15.307 -1.3322  2.3010  0.9747
 3344TIP3   OH231446   4.349   1.120  15.909 -0.0410  0.4211 -0.8413
 3344TIP3    H131447   4.290   1.137  15.836 -3.1186 -2.9587  0.5646
 3344TIP3    H231448   4.419   1.066  15.871 -1.0538 -0.4533 -1.5059
 3345TIP3   OH231449   6.099   1.658   3.086  0.3630  0.5104 -0.2910
 3345TIP3    H131450   6.187   1.623   3.100  0.2885  0.9866  1.4817
 3345TIP3    H231451   6.058   1.595   3.026  1.0261 -1.1905  0.9524
 3346TIP3   OH231452   6.152   0.206   2.335  0.2978  0.0488  0.2068
 3346TIP3    H131453   6.064   0.225   2.302 -1.0429 -3.3064  1.4108
 3346TIP3    H231454   6.139   0.134   2.398  3.9952 -1.1473 -0.1687
 3347TIP3   OH231455   6.231   4.657  16.799  0.2061  0.0618 -0.2219
 3347TIP3    H131456   6.289   4.639  16.873 -0.0164 -0.5917 -0.1954
 3347TIP3    H231457   6.146   4.620  16.826 -0.0496  0.4135 -0.5322
 3348TIP3   OH231458   4.511   1.760  17.302  0.3757 -0.2242 -0.0038
 3348TIP3    H131459   4.539   1.677  17.264  0.4561 -0.4279  0.4932
 3348TIP3    H231460   4.415   1.755  17.301  0.3599  0.1170 -0.9236
 3349TIP3   OH231461   1.661   6.225   6.437 -0.5167 -0.2150  0.0846
 3349TIP3    H131462   1.693   6.138   6.415 -2.6424 -1.1603  0.4024
 3349TIP3    H231463   1.737   6.282   6.431  1.3864 -2.4151  1.7639
 3350TIP3   OH231464   2.101   1.522  14.907  0.1944 -0.4158  0.0109
 3350TIP3    H131465   2.133   1.450  14.962  0.6332 -0.4139 -0.2439
 3350TIP3    H231466   2.136   1.504  14.820 -0.6677 -0.5290 -0.3246
 3351TIP3   OH231467   2.644   4.573   4.287  0.0672 -0.4629 -0.0093
 3351TIP3    H131468   2.557   4.536   4.305 -1.6575  2.7686 -0.8489
 3351TIP3    H231469   2.682   4.515   4.221 -1.7817 -1.5556 -0.1928
 3352TIP3   OH231470   6.321   5.660  13.584 -0.1766  0.2452  0.2908
 3352TIP3    H131471   6.314   5.754  13.570  0.1076 -0.1040 -2.9898
 3352TIP3    H231472   6.403   5.635  13.542 -0.4419 -1.5245  0.7256
 3353TIP3   OH231473   2.561   5.499  16.637 -0.2194  0.2976  0.3960
 3353TIP3    H131474   2.532   5.581  16.598 -1.4138 -0.6936 -0.9131
 3353TIP3    H231475   2.539   5.508  16.730 -2.5161  0.5925 -0.1069
 3354TIP3   OH231476   3.688   3.468   3.308 -0.7954 -0.0753 -0.4130
 3354TIP3    H131477   3.682   3.456   3.213 -0.8323 -0.4828 -0.3624
 3354TIP3    H231478   3.640   3.393   3.344 -1.2396  0.3656 -0.0764
 3355TIP3   OH231479   0.182   2.163  15.529 -0.0457 -0.2928 -0.2133
 3355TIP3    H131480   0.171   2.191  15.438  3.0924 -1.7887 -1.1897
 3355TIP3    H231481   0.272   2.185  15.551 -0.1763 -1.5583  1.9568
 3356TIP3   OH231482   3.876   4.016  11.943 -0.3766  0.1290 -0.0621
 3356TIP3    H131483   3.881   4.098  11.893  0.1328 -0.0423 -0.2966
 3356TIP3    H231484   3.805   4.031  12.006 -0.0262  0.9022  0.1638
 3357TIP3   OH231485   4.834   0.960  13.634 -0.2596  0.2788  0.1370
 3357TIP3    H131486   4.917   0.952  13.587 -1.0209 -0.5397 -1.1157
 3357TIP3    H231487   4.769   0.924  13.574 -1.0977 -2.3956  2.4231
 3358TIP3   OH231488   2.978   4.574  15.938 -0.1106 -0.5574 -0.6446
 3358TIP3    H131489   2.891   4.557  15.973  0.1483 -1.2986 -0.3355
 3358TIP3    H231490   3.029   4.497  15.962  0.4639 -0.4139 -1.3778
 3359TIP3   OH231491   3.102   6.360  16.493  0.0308 -0.2941  0.0813
 3359TIP3    H131492   3.108   6.449  16.459 -0.3524 -0.4608 -0.4222
 3359TIP3    H231493   3.016   6.329  16.465  1.1882 -1.7806 -2.0621
 3360TIP3   OH231494   0.812   5.113  14.022  0.2689  0.2503 -0.3282
 3360TIP3    H131495   0.756   5.110  14.099 -1.2498 -2.7546 -1.4148
 3360TIP3    H231496   0.755   5.144  13.952  0.7189 -0.2378 -0.9164
 3361TIP3   OH231497   3.941   0.091  14.073  0.2152 -0.0671 -0.6885
 3361TIP3    H131498   4.004   0.019  14.070  1.7297  1.1453  0.1579
 3361TIP3    H231499   3.992   0.168  14.048 -0.2269  1.3913  2.4880
 3362TIP3   OH231500   4.459   0.500   0.073  0.8463  0.2978 -0.3352
 3362TIP3    H131501   4.484   0.410   0.051  1.3932  1.1299 -3.8039
 3362TIP3    H231502   4.364   0.496   0.083  0.7594 -0.5905 -1.2472
 3363TIP3   OH231503   5.433   5.725   3.110 -0.3814 -0.2172  0.4905
 3363TIP3    H131504   5.364   5.733   3.043 -0.3306 -0.6280  0.3867
 3363TIP3    H231505   5.440   5.631   3.126  2.0766 -0.4940 -1.5256
 3364TIP3   OH231506   3.852   1.335  12.387 -0.0960  0.3756  0.1754
 3364TIP3    H131507   3.877   1.261  12.332 -0.0946 -1.1014  2.0550
 3364TIP3    H231508   3.767   1.363  12.352  0.3033  0.0748 -1.1045
 3365TIP3   OH231509   2.520   5.543  17.196 -0.1712  0.2866 -0.7411
 3365TIP3    H131510   2.476   5.468  17.157 -2.1673  0.6953  0.5432
 3365TIP3    H231511   2.522   5.524  17.290  0.3658  1.3029 -0.5236
 3366TIP3   OH231512   0.237   1.118  13.079  0.2531 -0.3778 -0.4643
 3366TIP3    H131513   0.239   1.111  12.984 -1.3339  0.8264 -0.6260
 3366TIP3    H231514   0.153   1.081  13.105  0.0554  0.5732  0.3276
 3367TIP3   OH231515   1.338   6.338   0.428 -0.0611  0.1321  0.0155
 3367TIP3    H131516   1.398   6.374   0.493 -0.7305  1.5844 -0.1230
 3367TIP3    H231517   1.301   6.415   0.385 -1.5711 -0.7443 -0.3163
 3368TIP3   OH231518   0.663   1.492   5.319  0.1100 -0.5473 -0.4654
 3368TIP3    H131519   0.696   1.450   5.399 -0.5795 -0.9860 -0.4087
 3368TIP3    H231520   0.742   1.514   5.270  0.4933 -2.1197 -0.5955
 3369TIP3   OH231521   0.487   6.198  16.906  0.4245  0.3408  0.5640
 3369TIP3    H131522   0.407   6.228  16.948 -0.5846  1.5357 -1.9885
 3369TIP3    H231523   0.476   6.221  16.814  2.1906 -2.6295 -0.5483
 3370TIP3   OH231524   6.484   5.922  15.720 -0.1070  0.3146 -0.0911
 3370TIP3    H131525   6.413   5.866  15.750  0.5014 -1.3116 -1.5217
 3370TIP3    H231526   6.448   5.967  15.643  0.4002 -0.5648 -0.8597
 3371TIP3   OH231527   5.371   5.537   0.839 -0.4965  0.6819  0.3456
 3371TIP3    H131528   5.423   5.527   0.919 -1.0504  0.7517  0.7197
 3371TIP3    H231529   5.288   5.573   0.869 -1.3505 -0.8874 -0.0476
 3372TIP3   OH231530   0.947   4.938  17.338 -0.4693 -0.1144 -0.4003
 3372TIP3    H131531   0.960   4.980  17.253 -0.0912  0.9446  0.1520
 3372TIP3    H231532   0.853   4.936  17.351 -0.4976  0.4884 -0.4882
 3373TIP3   OH231533   3.987   5.168  15.189 -0.4512  0.2824 -0.4359
 3373TIP3    H131534   3.987   5.148  15.095  1.8619  1.2057 -0.6798
 3373TIP3    H231535   3.894   5.163  15.214 -1.0233 -0.9438 -2.5342
 3374TIP3   OH231536   0.918   4.959  12.289 -0.2865  0.3052  0.7564
 3374TIP3    H131537   0.934   5.049  12.261  0.3271 -0.0062  0.0483
 3374TIP3    H231538   0.832   4.960  12.330 -1.4003  0.7431 -1.4755
 3375TIP3   OH231539   4.997   1.372  12.450  0.0072 -0.6193 -0.2058
 3375TIP3    H131540   4.933   1.323  12.398  0.6091 -1.3969 -0.2266
 3375TIP3    H231541   5.068   1.310  12.466  0.1641 -0.1732  0.9334
 3376TIP3   OH231542   0.403   5.989   4.141 -0.1088 -0.2546  0.2211
 3376TIP3    H131543   0.366   6.040   4.214  0.5890  2.9173 -1.4874
 3376TIP3    H231544   0.498   6.000   4.150  0.0154 -0.5864 -0.6484
 3377TIP3   OH231545   5.698   2.182  15.887 -0.1731  0.5812 -0.6380
 3377TIP3    H131546   5.669   2.159  15.976 -1.8642  0.1765 -1.2540
 3377TIP3    H231547   5.625   2.234  15.852  0.2086  0.2349 -1.9929
 3378TIP3   OH231548   0.196   1.065  12.752  0.2072  0.1868  0.1914
 3378TIP3    H131549   0.211   1.109  12.668 -0.3744 -0.3830 -0.2260
 3378TIP3    H231550   0.136   1.122  12.799  0.1567  0.2722  0.0229
 3379TIP3   OH231551   3.120   4.765   5.218  0.1884 -0.1151 -0.7055
 3379TIP3    H131552   3.092   4.796   5.132 -0.6664 -0.0391 -0.4083
 3379TIP3    H231553   3.211   4.795   5.227 -0.2417  1.2952 -0.9010
 3380TIP3   OH231554   0.382   5.932  11.297 -0.0982  0.3833 -0.0263
 3380TIP3    H131555   0.444   5.862  11.273  1.3961  0.9919  1.8158
 3380TIP3    H231556   0.352   5.908  11.384 -2.8874 -0.1070 -1.0206
 3381TIP3   OH231557   3.267   6.610   1.519 -0.7046 -0.2052 -0.1237
 3381TIP3    H131558   3.174   6.615   1.542 -0.2499  0.0627  1.8387
 3381TIP3    H231559   3.295   6.523   1.548 -0.5033 -0.6068 -1.4622
 3382TIP3   OH231560   6.570   6.540  13.067  0.3479  0.0345  0.3208
 3382TIP3    H131561   6.653   6.587  13.081  1.3979 -1.3297 -0.9769
 3382TIP3    H231562   6.565   6.527  12.973 -1.0366 -0.4883  0.4371
 3383TIP3   OH231563   4.586   6.003  14.925  0.3151 -0.0438 -0.6542
 3383TIP3    H131564   4.670   6.045  14.944  0.3288  1.1198 -2.9979
 3383TIP3    H231565   4.587   5.987  14.831 -2.1845  0.1881 -0.7974
 3384TIP3   OH231566   6.294   3.620   3.387  0.5449 -0.1539 -0.0604
 3384TIP3    H131567   6.260   3.531   3.379  0.9663 -0.3085 -0.1604
 3384TIP3    H231568   6.355   3.630   3.313  0.2506  0.3339 -0.2488
 3385TIP3   OH231569   6.360   4.078   2.241 -0.2634  0.3741  0.2181
 3385TIP3    H131570   6.454   4.072   2.260 -0.4662 -1.1029  0.8921
 3385TIP3    H231571   6.335   4.165   2.273  0.9770  1.0345 -0.5345
 3386TIP3   OH231572   5.414   1.959  14.751 -0.3898 -0.6865  0.0328
 3386TIP3    H131573   5.356   1.886  14.772 -0.8519 -0.1257  0.7086
 3386TIP3    H231574   5.485   1.918  14.701  0.4398 -1.9815  2.1173
 3387TIP3   OH231575   3.642   5.919   4.035 -0.6327 -0.4342 -0.6479
 3387TIP3    H131576   3.562   5.948   3.991 -1.4519 -0.4016  0.8074
 3387TIP3    H231577   3.618   5.914   4.128  1.4544  1.0715  0.0598
 3388TIP3   OH231578   4.226   3.912   0.118 -0.2842  0.2200  0.2100
 3388TIP3    H131579   4.140   3.924   0.077 -0.5203 -0.3238  0.5290
 3388TIP3    H231580   4.286   3.899   0.045 -0.5039  0.4547 -0.0109
 3389TIP3   OH231581   5.266   6.537  15.655 -0.0169  0.6208 -0.4541
 3389TIP3    H131582   5.346   6.589  15.662  1.4308 -1.4089 -1.1741
 3389TIP3    H231583   5.242   6.541  15.563  0.9273 -1.0790 -0.8100
 3390TIP3   OH231584   0.311   5.153  12.470  0.2695  0.2490 -0.0412
 3390TIP3    H131585   0.257   5.074  12.465 -0.0555  0.4911 -0.3991
 3390TIP3    H231586   0.254   5.223  12.440  1.0907  0.3550 -1.4351
 3391TIP3   OH231587   5.802   6.500   0.429  0.7838  0.1571  0.5919
 3391TIP3    H131588   5.828   6.467   0.343 -0.2833 -0.2419  0.4120
 3391TIP3    H231589   5.825   6.593   0.426  1.1573  0.0553  0.0409
 3392TIP3   OH231590   0.356   1.734  13.714 -0.5570  0.0476 -0.3929
 3392TIP3    H131591   0.364   1.738  13.809  1.2084  0.8306 -0.5415
 3392TIP3    H231592   0.430   1.681  13.686 -1.4612 -0.7661 -1.3027
 3393TIP3   OH231593   6.296   3.906  14.724  0.2559  0.0963  0.2291
 3393TIP3    H131594   6.267   3.882  14.637 -0.3482  0.3349  0.3590
 3393TIP3    H231595   6.281   4.000  14.729 -0.4011 -0.0343  0.8421
 3394TIP3   OH231596   3.834   4.768   3.580 -0.1986  0.2470  0.0647
 3394TIP3    H131597   3.869   4.679   3.573  0.7452  0.6052  0.1015
 3394TIP3    H231598   3.755   4.767   3.525  0.4192 -0.3014 -0.8346
 3395TIP3   OH231599   4.907   4.772   0.148  0.4221 -0.1682 -0.6479
 3395TIP3    H131600   4.839   4.708   0.126 -0.2935  1.1134 -2.4135
 3395TIP3    H231601   4.872   4.818   0.225  0.3116 -0.9601 -0.2157
 3396TIP3   OH231602   2.034   0.436   5.032  0.1821 -0.3546 -0.4388
 3396TIP3    H131603   1.957   0.407   4.984 -0.0129 -1.4159  0.4824
 3396TIP3    H231604   2.092   0.472   4.964 -1.0117  0.2573 -1.1602
 3397TIP3   OH231605   5.435   6.556  14.843  0.2251  0.1704  0.6643
 3397TIP3    H131606   5.384   6.636  14.832 -0.0330 -0.1774 -0.9665
 3397TIP3    H231607   5.379   6.487  14.809 -0.3498 -1.0808  3.8062
 3398TIP3   OH231608   3.694   0.626  16.184  0.3910 -0.4724  0.5090
 3398TIP3    H131609   3.788   0.643  16.188  0.5040 -0.5900 -0.9753
 3398TIP3    H231610   3.687   0.541  16.141 -0.3975 -0.4727  0.6212
 3399TIP3   OH231611   0.153   5.595  15.697  0.0629  0.2346 -0.5036
 3399TIP3    H131612   0.155   5.675  15.749 -0.7610 -0.2270  0.2764
 3399TIP3    H231613   0.114   5.530  15.755  0.2074 -0.5949 -1.3132
 3400TIP3   OH231614   3.376   0.105   1.586  0.4169  0.1810  0.1985
 3400TIP3    H131615   3.361   0.028   1.531 -1.5129  0.0200  0.8495
 3400TIP3    H231616   3.348   0.178   1.532  2.1324  0.4416 -0.3742
 3401TIP3   OH231617   2.190   5.218   0.573  0.4129  0.1795 -0.3229
 3401TIP3    H131618   2.281   5.208   0.545  0.4159  0.2880 -0.3531
 3401TIP3    H231619   2.141   5.156   0.518  0.3333  0.8352 -1.0125
 3402TIP3   OH231620   4.411   1.223   1.465 -0.1709 -0.1473  0.4907
 3402TIP3    H131621   4.330   1.245   1.512 -0.6945 -0.0465 -0.4443
 3402TIP3    H231622   4.437   1.304   1.422 -0.2161 -0.4746 -0.1592
 3403TIP3   OH231623   3.821   3.717   1.447 -0.2900 -0.8771  0.6395
 3403TIP3    H131624   3.914   3.718   1.425 -0.2416 -2.2622  0.6381
 3403TIP3    H231625   3.819   3.725   1.542 -0.0459 -2.5028  0.8118
 3404TIP3   OH231626   1.637   1.102  15.599  0.1466 -0.6487  0.1782
 3404TIP3    H131627   1.591   1.144  15.672 -0.7688  1.0777 -1.3183
 3404TIP3    H231628   1.715   1.063  15.639 -0.9143 -0.7945  2.2523
 3405TIP3   OH231629   5.689   0.783  16.911 -0.0031 -0.4049 -0.6593
 3405TIP3    H131630   5.725   0.871  16.914 -2.3902  0.6805 -1.6078
 3405TIP3    H231631   5.719   0.741  16.992  0.0906  1.7010  0.4407
 3406TIP3   OH231632   2.901   4.107  13.038 -0.5433 -0.6025 -0.2521
 3406TIP3    H131633   2.842   4.059  12.981 -0.7706  0.2115 -0.7190
 3406TIP3    H231634   2.956   4.040  13.078  0.9786 -1.0819 -2.9144
 3407TIP3   OH231635   3.511   3.305  15.360 -0.2659 -0.3617  0.1193
 3407TIP3    H131636   3.579   3.253  15.315 -1.3371 -0.4003 -1.5440
 3407TIP3    H231637   3.507   3.387  15.310 -0.3087  0.3194  1.2225
 3408TIP3   OH231638   3.530   4.736  17.381  0.3346 -0.0505 -0.0800
 3408TIP3    H131639   3.596   4.729  17.451  1.4644 -0.6350 -1.1497
 3408TIP3    H231640   3.464   4.671  17.404  0.2075  0.4176  0.9253
 3409TIP3   OH231641   6.475   4.649   3.139 -0.7224 -0.0525  0.2717
 3409TIP3    H131642   6.451   4.646   3.047 -1.6056 -0.7359  0.5106
 3409TIP3    H231643   6.508   4.738   3.152  0.3342 -0.2436 -0.9117
 3410TIP3   OH231644   0.970   1.688  13.342 -0.0161 -0.4347  0.1438
 3410TIP3    H131645   0.890   1.671  13.393  0.8824  0.0575  1.7995
 3410TIP3    H231646   0.978   1.612  13.284 -0.4321 -1.6933  1.6499
 3411TIP3   OH231647   3.980   0.617   6.102 -0.0695  0.1929 -0.2964
 3411TIP3    H131648   3.934   0.693   6.066 -0.1700 -0.6563 -2.0485
 3411TIP3    H231649   3.911   0.563   6.141  0.1231  1.4827  2.0119
 3412TIP3   OH231650   3.349   5.559   4.785 -0.2921  0.4945  0.3079
 3412TIP3    H131651   3.402   5.566   4.865 -1.2563  1.0601  0.9117
 3412TIP3    H231652   3.279   5.498   4.808  1.3486 -2.1651 -1.2191
 3413TIP3   OH231653   0.204   1.945  13.615  0.2084 -0.0879 -0.6648
 3413TIP3    H131654   0.259   1.892  13.672  0.5042  0.4118 -0.4734
 3413TIP3    H231655   0.265   2.003  13.570 -0.0537 -0.2648 -1.2639
 3414TIP3   OH231656   5.174   5.522  15.334 -0.1027 -0.3610 -0.6086
 3414TIP3    H131657   5.251   5.489  15.286 -0.2184 -0.8168 -0.4884
 3414TIP3    H231658   5.182   5.483  15.421 -0.8718 -1.0214 -0.8288
 3415TIP3   OH231659   2.171   3.791   4.862  0.5416 -0.3195 -0.4797
 3415TIP3    H131660   2.176   3.739   4.782  0.6351  0.6729 -1.1372
 3415TIP3    H231661   2.243   3.759   4.916 -0.1668 -1.7142 -0.3387
 3416TIP3   OH231662   1.133   0.232  16.611  0.4123 -0.3186  0.2091
 3416TIP3    H131663   1.052   0.228  16.662 -0.8345  0.3997 -1.6007
 3416TIP3    H231664   1.137   0.147  16.567  0.0840  0.0157 -0.4800
 3417TIP3   OH231665   0.009   6.739  14.545  0.3915  0.1906  0.5992
 3417TIP3    H131666  -0.006   6.647  14.566  0.7113  0.0757  0.3234
 3417TIP3    H231667  -0.072   6.767  14.502  0.8375 -0.3530 -0.6211
 3418TIP3   OH231668   0.945   4.140  15.403 -0.5657  0.0810 -0.5611
 3418TIP3    H131669   1.037   4.112  15.398 -0.3632  0.9178 -2.6434
 3418TIP3    H231670   0.925   4.142  15.497  0.5699 -3.1034 -0.1457
 3419TIP3   OH231671   3.000   0.508  15.219 -1.0221  0.1591  0.0203
 3419TIP3    H131672   2.926   0.500  15.158 -0.6469 -0.0038 -0.4163
 3419TIP3    H231673   3.077   0.492  15.165 -0.7264 -0.7170  0.6977
 3420TIP3   OH231674   2.705   5.405  12.538 -0.3000 -0.1276  0.2179
 3420TIP3    H131675   2.776   5.384  12.599  2.0845  0.5838 -2.1436
 3420TIP3    H231676   2.645   5.330  12.545  1.8244 -1.8892  0.7361
 3421TIP3   OH231677   5.516   0.662   2.937  0.4813  0.3596  0.1845
 3421TIP3    H131678   5.584   0.630   2.878 -0.8897 -1.0085 -0.7439
 3421TIP3    H231679   5.480   0.739   2.893 -1.3971 -1.3703 -1.5517
 3422TIP3   OH231680   5.904   2.303   2.864  0.1045 -0.4532  0.7038
 3422TIP3    H131681   5.984   2.354   2.882  0.8985  0.2056 -3.5042
 3422TIP3    H231682   5.836   2.369   2.853  0.3253 -0.4842 -1.1998
 3423TIP3   OH231683   2.577   1.079   4.496 -0.2872  0.2892  0.1779
 3423TIP3    H131684   2.504   1.082   4.434  0.2902 -0.4654 -0.5564
 3423TIP3    H231685   2.646   1.132   4.455  1.2652 -2.7289 -1.4421
 3424TIP3   OH231686   2.856   0.381   2.805 -0.5411  0.2222 -0.1000
 3424TIP3    H131687   2.811   0.312   2.757 -0.2201  0.6376 -1.0329
 3424TIP3    H231688   2.946   0.378   2.771 -0.5462  1.1369 -0.2143
 3425TIP3   OH231689   4.449   3.914  16.802  0.1636 -0.0263  0.3161
 3425TIP3    H131690   4.466   3.992  16.748  0.8128 -0.5631 -0.2678
 3425TIP3    H231691   4.517   3.852  16.776 -1.4271 -1.4702 -0.5265
 3426TIP3   OH231692   5.221   3.585   1.040  0.2014  0.2827  0.4069
 3426TIP3    H131693   5.128   3.586   1.019 -0.0586 -1.0494  1.3741
 3426TIP3    H231694   5.230   3.643   1.115 -0.1230 -0.7359  1.2571
 3427TIP3   OH231695   6.733   1.890   5.243 -0.1655  0.4520  0.9499
 3427TIP3    H131696   6.807   1.910   5.185  0.3804 -1.2391  0.9963
 3427TIP3    H231697   6.656   1.914   5.193  0.3699  0.7184  0.2384
 3428TIP3   OH231698   0.786   5.228   5.052 -0.1715  0.1541 -0.3678
 3428TIP3    H131699   0.839   5.285   4.997 -1.0336  0.0442 -1.3419
 3428TIP3    H231700   0.849   5.173   5.098  0.5977  0.8546 -0.5687
 3429TIP3   OH231701   5.084   2.756  15.874  0.1464  0.6152  0.3031
 3429TIP3    H131702   5.063   2.694  15.944 -1.4620 -1.1497 -1.5737
 3429TIP3    H231703   5.040   2.837  15.900 -0.5055 -0.0323  1.3097
 3430TIP3   OH231704   3.314   6.702  14.666  0.2518  0.0282 -0.1837
 3430TIP3    H131705   3.392   6.756  14.654 -0.1391  0.6379 -0.0165
 3430TIP3    H231706   3.317   6.640  14.593  1.0072 -0.1040 -0.0511
 3431TIP3   OH231707   2.326   2.047  13.544  0.0867  0.0431 -0.0726
 3431TIP3    H131708   2.264   2.057  13.472  0.1745 -0.3598 -0.2021
 3431TIP3    H231709   2.374   2.130  13.545 -0.2990  0.2700 -0.1139
 3432TIP3   OH231710   3.321   6.178  12.048 -0.1234 -0.1765  0.3038
 3432TIP3    H131711   3.227   6.167  12.054 -0.0165 -2.0324 -0.8427
 3432TIP3    H231712   3.333   6.260  12.000 -1.1350 -0.0139  0.3154
 3433TIP3   OH231713   2.242   4.153   5.811 -0.2023 -0.1852  0.0405
 3433TIP3    H131714   2.314   4.128   5.869 -0.9735  0.0285  1.1242
 3433TIP3    H231715   2.198   4.224   5.857 -1.2202 -0.4397 -0.5070
 3434TIP3   OH231716   6.597   6.359  12.457 -0.0937 -0.4672 -0.4084
 3434TIP3    H131717   6.663   6.319  12.513 -0.1148  0.6025  0.4188
 3434TIP3    H231718   6.611   6.320  12.371  2.3464  0.5027 -0.5245
 3435TIP3   OH231719   0.545   1.629  13.996 -0.7988  0.2792 -0.4716
 3435TIP3    H131720   0.586   1.613  14.081  1.3227  1.6190 -1.1590
 3435TIP3    H231721   0.461   1.669  14.018 -1.5584 -1.9154  0.9873
 3436TIP3   OH231722   5.403   1.981  16.126  0.6800  0.2071 -0.4206
 3436TIP3    H131723   5.333   1.961  16.189 -0.4714 -0.1647 -1.7797
 3436TIP3    H231724   5.446   1.897  16.111  1.2044  0.3693  0.1487
 3437TIP3   OH231725   5.899   6.681   5.314 -0.4093 -0.4017 -0.0936
 3437TIP3    H131726   5.989   6.664   5.343  0.2610  1.5912 -0.8251
 3437TIP3    H231727   5.909   6.729   5.232 -2.1993 -1.3634 -0.9449
 3438TIP3   OH231728   2.905   4.960   1.238  0.6468 -0.1428  0.3296
 3438TIP3    H131729   2.894   4.977   1.332 -0.7417  1.6178 -0.1111
 3438TIP3    H231730   2.957   4.880   1.235 -2.2488 -2.3172  2.6119
 3439TIP3   OH231731   6.137   1.342   1.271 -0.4283  0.1715 -0.0187
 3439TIP3    H131732   6.150   1.266   1.215 -1.3139  0.9284 -1.3154
 3439TIP3    H231733   6.047   1.333   1.303 -1.0664  1.3405 -1.3385
 3440TIP3   OH231734   5.640   4.227  11.973  0.4493 -0.4539 -0.0749
 3440TIP3    H131735   5.688   4.178  12.039  1.6091  0.2119 -0.3902
 3440TIP3    H231736   5.675   4.316  11.979 -1.1305  0.1927  0.0373
 3441TIP3   OH231737   4.397   0.227  16.459  0.5142  0.6018 -0.3109
 3441TIP3    H131738   4.380   0.218  16.553 -0.0295  0.0747 -0.4500
 3441TIP3    H231739   4.490   0.248  16.453  0.9583 -1.0181  0.2752
 3442TIP3   OH231740   3.710   0.518   3.377  0.3451  0.7262 -0.1522
 3442TIP3    H131741   3.746   0.433   3.351  0.6288  0.6197  0.5734
 3442TIP3    H231742   3.687   0.560   3.294 -1.9876 -0.9811 -0.4448
 3443TIP3   OH231743   3.490   1.055  11.535  0.0377  0.5096  0.4840
 3443TIP3    H131744   3.431   1.041  11.461  2.3023 -1.1138 -1.1668
 3443TIP3    H231745   3.471   1.144  11.564 -0.8937  1.2574 -2.1170
 3444TIP3   OH231746   1.208   3.087   1.183 -0.1868 -0.2920 -0.3721
 3444TIP3    H131747   1.225   3.084   1.089 -0.3404  0.1276 -0.4130
 3444TIP3    H231748   1.136   3.149   1.193  0.6202  0.5994  0.1279
 3445TIP3   OH231749   5.745   1.489  13.105 -0.2103 -0.1902  0.0659
 3445TIP3    H131750   5.659   1.451  13.085  1.0015 -1.8776 -2.3815
 3445TIP3    H231751   5.805   1.446  13.045  2.3344  1.2228  1.4404
 3446TIP3   OH231752   0.608   5.459  15.921 -0.2043  0.8852  0.4648
 3446TIP3    H131753   0.592   5.375  15.966  0.7026 -1.0048 -2.4641
 3446TIP3    H231754   0.527   5.477  15.875  0.7945 -0.6805 -2.1672
 3447TIP3   OH231755   5.361   2.344  15.560 -0.0324  0.1539  0.2411
 3447TIP3    H131756   5.339   2.336  15.467 -0.9567  1.5174  0.3070
 3447TIP3    H231757   5.279   2.370  15.602  0.7292  1.1692  1.1839
 3448TIP3   OH231758   6.339   2.967  15.018  0.0031 -0.1283  0.2102
 3448TIP3    H131759   6.376   3.010  14.941 -0.7249 -2.1179 -1.3583
 3448TIP3    H231760   6.303   2.885  14.984 -2.0849 -0.2133  2.3469
 3449TIP3   OH231761   4.560   0.055  12.092  0.3778 -0.7559  0.2052
 3449TIP3    H131762   4.468   0.071  12.072  0.8031 -0.8667 -2.0671
 3449TIP3    H231763   4.595   0.142  12.113  0.3751 -0.2139 -1.8693
 3450TIP3   OH231764   3.850   1.761  14.750  0.2180 -0.2314 -0.2302
 3450TIP3    H131765   3.912   1.804  14.691 -1.1853  3.8793  0.8847
 3450TIP3    H231766   3.788   1.716  14.692  0.0696  1.8999 -1.8613
 3451TIP3   OH231767   6.430   6.709   4.174 -0.1581 -0.6074 -0.1177
 3451TIP3    H131768   6.380   6.720   4.093 -0.3224 -0.3293  0.0199
 3451TIP3    H231769   6.378   6.646   4.225 -0.2208 -0.5386 -0.0955
 3452TIP3   OH231770   2.090   4.339   1.714  0.4203  0.1700  0.0479
 3452TIP3    H131771   2.072   4.313   1.804 -0.6712 -2.8205 -0.8890
 3452TIP3    H231772   2.155   4.409   1.721 -1.0153  1.3671  3.1626
 3453TIP3   OH231773   4.133   1.512   4.662 -0.6881 -0.7421  0.0889
 3453TIP3    H131774   4.104   1.579   4.600 -1.8641  0.9959  2.3618
 3453TIP3    H231775   4.228   1.514   4.658 -0.6055  2.1530  1.0385
 3454TIP3   OH231776   4.033   2.180   0.548 -0.2291 -0.3679 -0.3525
 3454TIP3    H131777   4.028   2.221   0.461 -1.4318 -0.4201 -0.3192
 3454TIP3    H231778   4.100   2.112   0.538 -0.7518 -0.7531 -1.4123
 3455TIP3   OH231779   2.461   3.489   1.741 -0.4186  0.3307  0.5102
 3455TIP3    H131780   2.424   3.481   1.829 -0.4620 -0.5573  0.4282
 3455TIP3    H231781   2.413   3.424   1.689 -0.4278  0.8785 -0.1848
 3456TIP3   OH231782   4.761   4.111  15.576  0.3308 -0.0511 -0.0817
 3456TIP3    H131783   4.752   4.075  15.664 -1.0407 -0.3883 -0.3298
 3456TIP3    H231784   4.855   4.115  15.561  0.5810 -1.9224  0.6375
 3457TIP3   OH231785   1.125   0.465  15.154 -0.1695 -0.5025 -0.6287
 3457TIP3    H131786   1.208   0.512  15.141  0.2023 -0.4029  1.7826
 3457TIP3    H231787   1.151   0.373  15.163 -0.1635 -0.3609  1.1122
 3458TIP3   OH231788   2.002   4.001   6.184 -0.2684 -0.2315 -0.1402
 3458TIP3    H131789   1.934   3.986   6.118 -0.6918 -1.6309  0.5684
 3458TIP3    H231790   1.983   4.089   6.217 -2.0860 -0.7651  0.3934
 3459TIP3   OH231791   5.540   3.175   2.565  0.5167  0.2046  0.5755
 3459TIP3    H131792   5.512   3.194   2.475  1.1397  1.1946  0.5744
 3459TIP3    H231793   5.633   3.198   2.566  1.0263 -1.6507  0.9556
 3460TIP3   OH231794   6.241   0.011   4.001 -0.3978 -0.2322  0.0448
 3460TIP3    H131795   6.169   0.011   3.938  0.9862  1.9287 -1.6919
 3460TIP3    H231796   6.228   0.091   4.053 -0.2773 -0.8195  1.0023
 3461TIP3   OH231797   1.160   6.381   1.088  0.3473  0.3705  0.5482
 3461TIP3    H131798   1.084   6.346   1.135  0.3019  0.4826  0.5577
 3461TIP3    H231799   1.234   6.330   1.120  0.4149  0.8666  1.2054
 3462TIP3   OH231800   0.039   4.816   0.313 -0.4521  0.2963  0.5443
 3462TIP3    H131801   0.065   4.731   0.279  0.0366  0.7849 -0.3266
 3462TIP3    H231802  -0.009   4.796   0.394  1.6173 -0.6880  1.5903
 3463TIP3   OH231803   2.702   1.076  15.962  0.3080  0.5989  0.7920
 3463TIP3    H131804   2.763   1.027  16.018 -0.4400 -0.9720  0.2930
 3463TIP3    H231805   2.623   1.084  16.015  0.1735  0.5818  0.5958
 3464TIP3   OH231806   6.087   5.278  16.631  0.6517  0.7728  0.3133
 3464TIP3    H131807   6.007   5.296  16.681  0.5201  0.3548  0.2589
 3464TIP3    H231808   6.150   5.342  16.663 -0.0444  1.8897 -0.4850
 3465TIP3   OH231809   0.540   1.743   4.425  0.0194 -0.7249 -0.4893
 3465TIP3    H131810   0.609   1.757   4.361  0.2770 -3.2770 -0.8771
 3465TIP3    H231811   0.568   1.792   4.502  2.1257 -1.4546 -0.7435
 3466TIP3   OH231812   6.105   4.435  12.735  0.4060 -0.6426 -0.2904
 3466TIP3    H131813   6.116   4.352  12.689  1.2578 -1.6897  1.6672
 3466TIP3    H231814   6.171   4.433  12.804 -0.6997  0.8772  0.8945
 3467TIP3   OH231815   6.453   6.521   6.275 -0.2023  0.3717 -0.3320
 3467TIP3    H131816   6.459   6.565   6.359 -0.3637 -0.6229  0.2112
 3467TIP3    H231817   6.377   6.560   6.233 -2.4699 -1.7393  1.5716
 3468TIP3   OH231818   2.275   5.306  12.183 -0.4189 -0.0920 -0.3116
 3468TIP3    H131819   2.339   5.262  12.127 -1.2772 -1.4254 -0.2882
 3468TIP3    H231820   2.327   5.349  12.250  0.7070  2.0380 -2.3924
 3469TIP3   OH231821   2.631   5.575  13.569  0.4764 -0.2397  0.4589
 3469TIP3    H131822   2.636   5.529  13.486  1.6422  0.1200  0.3201
 3469TIP3    H231823   2.551   5.542  13.610 -0.7147  0.3924 -1.2674
 3470TIP3   OH231824   6.122   5.132   3.700 -0.0216 -0.1463 -0.2411
 3470TIP3    H131825   6.182   5.066   3.666  1.2213 -0.2792  1.9773
 3470TIP3    H231826   6.137   5.209   3.646 -0.5521 -1.2535 -2.0473
 3471TIP3   OH231827   2.103   0.411   4.310  0.5966  0.0532  0.1135
 3471TIP3    H131828   2.029   0.400   4.370  0.7214  1.4630  0.5535
 3471TIP3    H231829   2.069   0.466   4.240  0.9618 -0.1027 -0.1922
 3472TIP3   OH231830   1.705   3.072   1.705  0.3780 -0.5299  0.8447
 3472TIP3    H131831   1.615   3.052   1.729 -0.0606  0.4112  0.0593
 3472TIP3    H231832   1.750   2.988   1.710 -0.8858 -1.3123 -0.2240
 3473TIP3   OH231833   4.047   6.596  15.568 -0.1890  0.4205  0.5696
 3473TIP3    H131834   3.952   6.595  15.581 -0.1348 -1.2717  1.1384
 3473TIP3    H231835   4.063   6.524  15.506  0.6019  1.6068 -0.6596
 3474TIP3   OH231836   1.748   5.634  14.417 -0.2373 -0.7543  0.7621
 3474TIP3    H131837   1.726   5.575  14.489  1.4485  1.9871  3.7894
 3474TIP3    H231838   1.843   5.634  14.413 -0.1994  1.1842  0.4429
 3475TIP3   OH231839   0.465   4.603   0.993 -0.0677 -0.1336 -0.3575
 3475TIP3    H131840   0.426   4.587   1.079 -0.5032 -0.2400 -0.5709
 3475TIP3    H231841   0.501   4.692   0.999  0.6312 -0.4463  0.1949
 3476TIP3   OH231842   2.730   0.508  16.483  0.2103  0.0276 -0.0125
 3476TIP3    H131843   2.761   0.599  16.483  1.0296 -0.1635  2.8475
 3476TIP3    H231844   2.637   0.515  16.460 -0.0234  1.7457  1.2222
 3477TIP3   OH231845   2.709   2.548  13.054 -0.4219  0.5245 -0.3933
 3477TIP3    H131846   2.728   2.563  12.961 -0.8985  0.5156 -0.4984
 3477TIP3    H231847   2.652   2.621  13.079  2.3167  2.4209  0.7953
 3478TIP3   OH231848   6.642   2.319  11.953 -0.1688  0.2569 -0.3812
 3478TIP3    H131849   6.613   2.397  11.999  0.8904 -0.0333  0.8183
 3478TIP3    H231850   6.563   2.288  11.908 -0.9862  1.1262  0.4018
 3479TIP3   OH231851   2.435   6.020   3.314 -0.0091 -0.1559  0.1974
 3479TIP3    H131852   2.384   6.082   3.366 -1.1500 -0.2652 -0.7352
 3479TIP3    H231853   2.398   5.935   3.335  0.1611 -0.2990 -0.0743
 3480TIP3   OH231854   5.046   0.921   0.161 -0.4751 -0.3712 -0.6847
 3480TIP3    H131855   5.013   1.005   0.193  1.0414 -0.2606  0.6907
 3480TIP3    H231856   5.111   0.944   0.095  1.6631 -0.2865  1.3154
 3481TIP3   OH231857   2.855   2.032  14.893 -0.1436  0.1805  0.0430
 3481TIP3    H131858   2.871   2.086  14.816 -1.9975 -0.3967 -0.7951
 3481TIP3    H231859   2.884   1.944  14.867 -1.1986 -0.1104 -0.1829
 3482TIP3   OH231860   0.863   1.730  12.712  0.4705 -0.0971 -0.5031
 3482TIP3    H131861   0.842   1.714  12.619  0.4166 -2.1303 -0.1968
 3482TIP3    H231862   0.788   1.693  12.759  0.8437  0.2592  0.3821
 3483TIP3   OH231863   5.099   1.341   2.288 -0.3636  0.0212 -0.2346
 3483TIP3    H131864   5.157   1.395   2.233 -0.7088 -0.6479 -1.2998
 3483TIP3    H231865   5.147   1.329   2.370  0.1065  1.1815 -0.3248
 3484TIP3   OH231866   6.403   0.147   1.930 -0.5323  0.2353  0.1838
 3484TIP3    H131867   6.377   0.169   2.020 -2.3521 -1.5513  0.1795
 3484TIP3    H231868   6.493   0.179   1.923  1.0525 -2.6598  3.8432
 3485TIP3   OH231869   5.970   2.130  15.856  0.3908  0.4122 -0.3509
 3485TIP3    H131870   5.876   2.145  15.850  0.4517  1.4812  0.9894
 3485TIP3    H231871   5.979   2.035  15.852 -0.7726  0.2722 -0.1096
 3486TIP3   OH231872   2.211   4.005  15.631  0.0336 -0.3801  0.3621
 3486TIP3    H131873   2.162   3.934  15.590 -0.4158 -0.9234  1.7895
 3486TIP3    H231874   2.147   4.075  15.641  0.3711  0.0952 -0.6543
 3487TIP3   OH231875   2.062   3.369   0.362 -0.2883  0.1272 -0.2383
 3487TIP3    H131876   1.994   3.409   0.307 -0.4244  0.8371  0.4346
 3487TIP3    H231877   2.110   3.312   0.302 -2.2423 -1.3709 -0.4928
 3488TIP3   OH231878   2.024   6.707   5.891  0.2130  0.0423 -0.2597
 3488TIP3    H131879   2.114   6.707   5.860 -0.3828 -0.1309 -2.1290
 3488TIP3    H231880   1.973   6.673   5.817 -1.3562 -0.1287  0.8418
 3489TIP3   OH231881   5.449   4.824   1.597 -0.0605  0.2585 -0.0120
 3489TIP3    H131882   5.399   4.885   1.651 -2.1438  0.5871 -2.1446
 3489TIP3    H231883   5.446   4.862   1.509  1.2846 -1.3601 -0.8230
 3490TIP3   OH231884   0.964   3.258  11.631  0.3205  0.3475  0.0909
 3490TIP3    H131885   0.869   3.259  11.619  0.5160 -0.2616 -1.8807
 3490TIP3    H231886   0.976   3.271  11.725 -1.7567 -1.0026  0.6173
 3491TIP3   OH231887   5.800   2.106  15.339  0.1153 -0.3796 -0.3925
 3491TIP3    H131888   5.838   2.018  15.347  2.6008  0.6506  0.1442
 3491TIP3    H231889   5.791   2.137  15.430 -0.3479  0.0864 -0.5906
 3492TIP3   OH231890   3.377   4.323  15.486  0.2603  0.5709 -0.6879
 3492TIP3    H131891   3.426   4.344  15.565  1.4378 -0.4711 -1.1167
 3492TIP3    H231892   3.323   4.401  15.470  1.6603  1.7072 -0.1025
 3493TIP3   OH231893   1.823   2.501   1.465  0.1107 -0.0029  0.1953
 3493TIP3    H131894   1.871   2.425   1.433  0.4638  0.1389  0.3799
 3493TIP3    H231895   1.772   2.532   1.390  1.1888  0.5329 -0.3396
 3494TIP3   OH231896   0.444   4.359   4.044 -0.3740 -0.0704  0.4380
 3494TIP3    H131897   0.390   4.292   4.001  0.4182 -0.5347  0.1346
 3494TIP3    H231898   0.393   4.385   4.121 -0.2454 -1.7976  1.1632
 3495TIP3   OH231899   1.703   4.575  12.699  0.2009  0.4510  0.0440
 3495TIP3    H131900   1.713   4.501  12.759  1.5018  1.2552  0.8710
 3495TIP3    H231901   1.792   4.597  12.673 -0.3497 -0.3961 -2.9132
 3496TIP3   OH231902   1.701   5.727   5.853  0.3619  0.6570  0.1552
 3496TIP3    H131903   1.616   5.763   5.831 -0.1045 -0.7415 -0.4553
 3496TIP3    H231904   1.687   5.678   5.934 -0.1423 -1.9211 -1.3864
 3497TIP3   OH231905   0.643   1.220  16.780  0.1529  0.8496  0.1582
 3497TIP3    H131906   0.684   1.196  16.697  0.0671 -2.3203  0.9243
 3497TIP3    H231907   0.550   1.228  16.760  0.3783  2.2361 -0.4265
 3498TIP3   OH231908   3.125   6.410  12.679 -0.2230 -0.1392  0.2567
 3498TIP3    H131909   3.184   6.474  12.639  0.8088 -0.6018  0.9844
 3498TIP3    H231910   3.115   6.342  12.612  0.6761 -0.4118  0.3813
 3499TIP3   OH231911   2.839   2.115   2.100  0.2512 -0.2529 -0.3100
 3499TIP3    H131912   2.785   2.194   2.107 -2.8461 -1.9245 -2.6372
 3499TIP3    H231913   2.869   2.113   2.009  0.2640 -1.7232 -0.3081
 3500TIP3   OH231914   5.535   0.021   1.506  0.0393 -0.5414  0.1825
 3500TIP3    H131915   5.521   0.029   1.411  2.2238  1.2516 -0.0836
 3500TIP3    H231916   5.479   0.090   1.544 -1.1595 -1.5345  0.2809
 3501TIP3   OH231917   0.045   6.475   5.608 -0.9399 -0.7157 -0.2985
 3501TIP3    H131918   0.060   6.417   5.683 -2.0154 -0.1601  0.3719
 3501TIP3    H231919   0.070   6.423   5.532  0.6390 -1.1280  0.4544
 3502TIP3   OH231920   1.174   3.624  12.292  0.1754  0.2221 -0.2217
 3502TIP3    H131921   1.098   3.680  12.301  1.3291  1.6388  1.4001
 3502TIP3    H231922   1.161   3.555  12.358  0.5304  0.7924  0.4623
 3503TIP3   OH231923   1.471   0.618   5.396  0.0822  0.1346 -0.3917
 3503TIP3    H131924   1.480   0.526   5.421  0.3379  0.1153 -0.5487
 3503TIP3    H231925   1.549   0.660   5.432  1.0504 -0.1066 -2.1027
 3504TIP3   OH231926   6.451   2.186  12.587 -0.1348  0.2627 -0.1498
 3504TIP3    H131927   6.433   2.107  12.639 -0.9346  0.7311  0.2930
 3504TIP3    H231928   6.532   2.165  12.540 -0.0914 -0.6530  0.3085
 3505TIP3   OH231929   2.430   2.616  15.213  0.4616  0.4582 -0.0564
 3505TIP3    H131930   2.360   2.674  15.184  0.7137  0.3446 -0.9473
 3505TIP3    H231931   2.495   2.622  15.143  0.8409 -0.2774  0.2284
 3506TIP3   OH231932   1.759   4.763  15.290  0.5266  0.1000 -0.4346
 3506TIP3    H131933   1.820   4.788  15.221  1.8797 -1.7950 -0.0285
 3506TIP3    H231934   1.707   4.692  15.251 -0.3627  0.6462 -0.2642
 3507TIP3   OH231935   4.825   3.161   4.989  0.2546  0.0846  0.2255
 3507TIP3    H131936   4.813   3.231   5.054  0.5256 -0.2821  0.6860
 3507TIP3    H231937   4.907   3.184   4.945 -1.6418  2.2404 -2.4739
 3508TIP3   OH231938   1.506   3.923   3.927  0.0934 -0.3509  0.1869
 3508TIP3    H131939   1.430   3.902   3.980  0.1344 -0.4484  0.2076
 3508TIP3    H231940   1.470   3.952   3.843 -0.0751  1.9891  0.9780
 3509TIP3   OH231941   6.063   1.960   2.745 -0.3783  0.1487  0.2950
 3509TIP3    H131942   6.154   1.976   2.719  0.5831 -1.7838  2.1888
 3509TIP3    H231943   6.062   1.975   2.839 -2.3854  1.4088  0.1448
 3510TIP3   OH231944   5.235   0.900  15.467 -0.5580  0.0861  0.1833
 3510TIP3    H131945   5.222   0.991  15.440 -0.7721  0.1116  0.3754
 3510TIP3    H231946   5.147   0.867  15.484 -0.4600 -0.0798  0.3706
 3511TIP3   OH231947   1.360   1.738   2.281  0.0427  0.1497  0.4769
 3511TIP3    H131948   1.311   1.709   2.358  0.4045  1.3652  1.1994
 3511TIP3    H231949   1.408   1.661   2.253  1.5073  0.1281  2.7333
 3512TIP3   OH231950   5.409   2.408  14.045 -0.1256  0.2037  0.0068
 3512TIP3    H131951   5.500   2.439  14.045  0.2725 -0.9127 -0.3513
 3512TIP3    H231952   5.398   2.365  14.130 -1.0980  2.4203  1.0798
 3513TIP3   OH231953   5.126   3.090   4.179 -0.3389  0.2343 -0.2097
 3513TIP3    H131954   5.178   3.133   4.247 -0.3286 -2.7387  1.8362
 3513TIP3    H231955   5.187   3.031   4.135 -1.6036 -2.9464  1.9094
 3514TIP3   OH231956   2.869   3.795  14.185 -0.1171  0.0071  0.5244
 3514TIP3    H131957   2.858   3.724  14.121  0.2263 -0.0360  0.5117
 3514TIP3    H231958   2.963   3.810  14.188 -0.2644  1.4484 -0.5620
 3515TIP3   OH231959   4.388   2.803   2.528  0.3156 -0.2036  0.0485
 3515TIP3    H131960   4.357   2.894   2.535  1.7659  0.5705 -2.3584
 3515TIP3    H231961   4.317   2.758   2.483 -0.4284 -0.3157  1.2843
 3516TIP3   OH231962   0.373   6.506  13.924  0.1877  0.5774  0.3255
 3516TIP3    H131963   0.356   6.598  13.905 -0.9890  0.4678  0.7707
 3516TIP3    H231964   0.306   6.482  13.988  0.5787 -0.5501  0.3322
 3517TIP3   OH231965   5.727   0.725  12.136 -0.1686 -0.5211  0.0151
 3517TIP3    H131966   5.717   0.820  12.141 -2.6887 -0.7613  1.3136
 3517TIP3    H231967   5.817   0.711  12.106  0.8624  2.2424  1.4944
 3518TIP3   OH231968   3.659   6.503   4.130 -0.4312 -0.5249 -0.1334
 3518TIP3    H131969   3.638   6.432   4.069  0.8889 -0.3819 -0.8025
 3518TIP3    H231970   3.753   6.493   4.145 -0.4710  0.3422  0.7346
 3519TIP3   OH231971   1.375   3.131  13.181  0.1699  0.4543  0.1429
 3519TIP3    H131972   1.421   3.178  13.250  0.5533  0.1111  0.1256
 3519TIP3    H231973   1.331   3.200  13.131  0.0102  0.7166  0.6364
 3520TIP3   OH231974   4.709   4.921  12.245 -0.2434  0.4259  0.1315
 3520TIP3    H131975   4.795   4.962  12.250  0.1265 -0.2386 -0.6137
 3520TIP3    H231976   4.727   4.830  12.220 -1.1427  0.2015  0.2641
 3521TIP3   OH231977   2.041   1.221   4.727  0.9966 -0.5344 -0.1340
 3521TIP3    H131978   2.057   1.315   4.738  1.8057 -0.4842 -1.5471
 3521TIP3    H231979   1.959   1.205   4.775  1.1306  0.7740  0.5778
 3522TIP3   OH231980   5.662   4.856  13.708 -0.4548  0.4980 -0.8759
 3522TIP3    H131981   5.663   4.869  13.802 -3.1251  0.1199 -0.7142
 3522TIP3    H231982   5.749   4.881  13.679 -0.0626  2.1619  1.4813
 3523TIP3   OH231983   5.228   3.546  16.083  0.0198  0.1731 -0.0235
 3523TIP3    H131984   5.277   3.485  16.029 -1.6756  0.8367 -2.5014
 3523TIP3    H231985   5.230   3.508  16.171  1.1428 -2.0761 -0.9444
 3524TIP3   OH231986   6.179   0.952  16.990  0.3555 -0.2547 -0.1962
 3524TIP3    H131987   6.260   0.957  16.939 -0.2485  1.1071 -1.0781
 3524TIP3    H231988   6.111   0.982  16.930 -0.7082 -0.7198  0.7505
 3525TIP3   OH231989   5.083   6.425   6.192  0.1264  0.2775 -0.0255
 3525TIP3    H131990   4.995   6.433   6.155 -0.2531 -0.2028  0.7529
 3525TIP3    H231991   5.088   6.335   6.224  1.3259 -0.0723 -1.0952
 3526TIP3   OH231992   1.551   0.114   2.037  0.5539  0.2777  0.3839
 3526TIP3    H131993   1.646   0.106   2.030  0.4825 -0.7430  0.4349
 3526TIP3    H231994   1.537   0.196   2.085  1.3566  1.1802 -0.8400
 3527TIP3   OH231995   4.592   3.254  17.097 -0.1011  0.3512  0.3346
 3527TIP3    H131996   4.662   3.281  17.038  0.1032 -1.3785 -0.2801
 3527TIP3    H231997   4.589   3.322  17.164  2.2128  0.4499  0.4038
 3528TIP3   OH231998   6.367   2.881  13.928  0.5112 -0.0283 -0.3877
 3528TIP3    H131999   6.373   2.820  13.854  0.0259 -0.2581 -0.2409
 3528TIP3    H232000   6.441   2.858  13.984  0.2629 -0.5758 -0.2694
 3529TIP3   OH232001   0.031   1.097   3.929  0.2659  0.4002 -0.3772
 3529TIP3    H132002   0.007   1.190   3.937  1.5054  0.7362 -0.3174
 3529TIP3    H232003   0.045   1.068   4.019  0.3543  0.2926 -0.4255
 3530TIP3   OH232004   3.720   0.834   4.332  0.0900  0.2974  0.1705
 3530TIP3    H132005   3.707   0.799   4.420 -0.7975 -2.1300 -0.8349
 3530TIP3    H232006   3.632   0.861   4.304  0.4726  1.7065  0.2219
 3531TIP3   OH232007   0.937   3.755   5.222  0.3858  0.3755 -0.7369
 3531TIP3    H132008   0.911   3.770   5.313  1.8591  1.6545 -0.4836
 3531TIP3    H232009   0.890   3.676   5.196  0.5287 -0.4778  1.3895
 3532TIP3   OH232010   6.522   0.989   4.587  0.1957 -0.2223 -0.2944
 3532TIP3    H132011   6.441   0.950   4.554 -0.4510  2.4929 -2.2583
 3532TIP3    H232012   6.592   0.937   4.546 -0.5699 -0.8392 -0.8529
 3533TIP3   OH232013   1.018   6.113   3.003 -0.6475 -0.8675  0.0141
 3533TIP3    H132014   0.987   6.100   3.092  0.1255 -0.6057  0.3310
 3533TIP3    H232015   1.044   6.205   3.000 -1.3787 -0.6648 -0.7154
 3534TIP3   OH232016   5.039   3.014  15.971  0.3643 -0.4467  0.1758
 3534TIP3    H132017   5.006   2.988  16.057  1.8463 -0.1449  0.8760
 3534TIP3    H232018   5.073   3.102  15.984  1.3972 -0.7239 -0.4845
 3535TIP3   OH232019   5.334   2.908  15.965 -0.4963  0.4008  1.0902
 3535TIP3    H132020   5.293   2.973  15.909  1.5171 -0.5299 -1.6851
 3535TIP3    H232021   5.269   2.838  15.973 -0.1490 -0.4800 -2.1564
 3536TIP3   OH232022   6.447   0.945  13.326 -0.6075  0.4355  0.1735
 3536TIP3    H132023   6.432   0.921  13.235  1.8446 -1.3960  0.1755
 3536TIP3    H232024   6.361   0.973  13.357 -1.4296  1.6348 -2.7934
 3537TIP3   OH232025   4.317   5.464  13.638 -0.3766 -0.2613 -0.2277
 3537TIP3    H132026   4.287   5.440  13.550  0.7997 -0.7700 -0.5039
 3537TIP3    H232027   4.387   5.527  13.623  0.5149 -1.1045  0.3012
 3538TIP3   OH232028   0.424   1.109  15.267 -0.3100  0.2621  0.1339
 3538TIP3    H132029   0.356   1.082  15.205  1.6939  0.3944 -2.2507
 3538TIP3    H232030   0.379   1.168  15.328 -2.5012 -0.3434 -0.8032
 3539TIP3   OH232031   6.419   3.736   3.994  0.3415 -0.5299  1.0263
 3539TIP3    H132032   6.416   3.644   3.971  0.7329 -0.6232  1.3212
 3539TIP3    H232033   6.512   3.758   3.992  0.1528  0.2517 -0.5222
 3540TIP3   OH232034   0.939   3.774  12.355 -0.0893 -0.4791 -0.3709
 3540TIP3    H132035   0.945   3.823  12.273  0.4889  0.1604  0.0394
 3540TIP3    H232036   0.918   3.840  12.421 -0.4774 -0.9764  0.0129
 3541TIP3   OH232037   6.625   5.218  14.525 -0.0409 -0.4266 -0.2898
 3541TIP3    H132038   6.577   5.135  14.528  0.3789 -0.6913 -0.7897
 3541TIP3    H232039   6.662   5.221  14.437  0.7337 -0.1443  0.0419
 3542TIP3   OH232040   5.995   6.382  13.597 -0.1788  0.2548 -0.1971
 3542TIP3    H132041   6.080   6.416  13.623 -0.1309 -0.3144  0.4222
 3542TIP3    H232042   5.953   6.454  13.549  0.0268  1.0713  0.8309
 3543TIP3   OH232043   1.524   1.592  10.918  0.8922 -0.0605  0.2895
 3543TIP3    H132044   1.438   1.553  10.903  0.6927  0.4952 -0.0675
 3543TIP3    H232045   1.540   1.644  10.839  0.8418  1.1167  1.0293
 3544TIP3   OH232046   3.861   6.592   1.969 -0.3319  0.0419  0.2669
 3544TIP3    H132047   3.867   6.528   2.040 -0.2274 -1.0275 -0.6882
 3544TIP3    H232048   3.941   6.578   1.918 -0.7493  0.3138 -0.4641
 3545TIP3   OH232049   0.970   4.372   0.600 -0.0742  0.3396  0.1169
 3545TIP3    H132050   0.941   4.287   0.565 -0.2813  0.0357  1.0162
 3545TIP3    H232051   0.989   4.424   0.522  0.5898 -0.7140 -0.4459
 3546TIP3   OH232052   5.715   2.384  14.010  0.5528 -0.5665  0.1947
 3546TIP3    H132053   5.795   2.338  13.982  0.1887 -1.4526  0.5611
 3546TIP3    H232054   5.734   2.413  14.099  0.5551 -0.5636  0.1930
 3547TIP3   OH232055   3.197   3.122  16.870 -0.2840  0.1203 -0.6851
 3547TIP3    H132056   3.228   3.047  16.819  1.1669 -0.6988  1.3052
 3547TIP3    H232057   3.193   3.090  16.960 -0.0510  2.3276  0.1629
 3548TIP3   OH232058   3.418   0.468   3.972  0.1668 -0.7417 -0.7694
 3548TIP3    H132059   3.498   0.513   3.946 -0.2444  0.0338 -0.7180
 3548TIP3    H232060   3.360   0.538   4.003 -0.2018 -1.3907  0.0382
 3549TIP3   OH232061   2.417   5.937  16.366 -0.3554 -0.0774 -0.2076
 3549TIP3    H132062   2.386   6.018  16.326 -1.8820  0.1722  1.3524
 3549TIP3    H232063   2.360   5.869  16.330 -2.1530  0.2291  1.8185
 3550TIP3   OH232064   3.830   3.432   5.830  0.2275  0.6479  0.4310
 3550TIP3    H132065   3.865   3.450   5.917  1.4204  1.8700 -0.2576
 3550TIP3    H232066   3.784   3.513   5.806  3.0689  1.8263 -1.5161
 3551TIP3   OH232067   0.857   2.457   5.240 -0.3135 -0.8892  0.0316
 3551TIP3    H132068   0.894   2.481   5.325 -0.2421  2.9129 -0.9017
 3551TIP3    H232069   0.902   2.375   5.217  0.9677 -1.0920  2.8355
 3552TIP3   OH232070   2.342   3.009  13.857 -0.6280 -0.2755 -0.4518
 3552TIP3    H132071   2.419   2.973  13.813  1.5917  1.3294  1.8781
 3552TIP3    H232072   2.284   2.934  13.869  0.5462 -1.5509 -2.2158
 3553TIP3   OH232073   3.560   4.866   4.078  0.7038  0.2517 -0.2460
 3553TIP3    H132074   3.485   4.922   4.060  0.1903  0.2584  1.6552
 3553TIP3    H232075   3.636   4.922   4.063  0.3492  0.3685 -1.7867
 3554TIP3   OH232076   3.521   0.870   2.977  0.1546  0.0514 -0.0246
 3554TIP3    H132077   3.588   0.929   3.012 -1.2065  3.2464 -2.3144
 3554TIP3    H232078   3.446   0.882   3.034  0.2720 -0.5220  0.2590
 3555TIP3   OH232079   1.911   3.267  12.170  0.1402 -0.6031 -0.2459
 3555TIP3    H132080   2.005   3.284  12.178  0.4920 -1.9974 -0.9858
 3555TIP3    H232081   1.896   3.258  12.076 -0.6539 -0.7889 -0.1073
 3556TIP3   OH232082   2.595   0.453   1.112 -0.7143  0.1279  0.4916
 3556TIP3    H132083   2.588   0.371   1.161 -0.0660  0.9863  2.1084
 3556TIP3    H232084   2.678   0.491   1.141 -0.7170  1.0876 -0.6756
 3557TIP3   OH232085   6.320   2.914   2.969  0.2180  0.0471 -0.5824
 3557TIP3    H132086   6.227   2.924   2.946  0.2973 -1.4553 -1.6268
 3557TIP3    H232087   6.334   2.820   2.972  2.0655  0.2484 -1.8732
 3558TIP3   OH232088   2.142   0.748   4.163 -0.4049  0.6188 -0.0721
 3558TIP3    H132089   2.092   0.666   4.163  0.3167  0.1625  0.5427
 3558TIP3    H232090   2.075   0.816   4.164 -1.0519  0.0159  1.4900
 3559TIP3   OH232091   1.011   0.595  14.829 -0.0767 -0.2847  0.1215
 3559TIP3    H132092   0.941   0.625  14.770 -0.1606 -0.3723  0.1758
 3559TIP3    H232093   0.976   0.610  14.916  0.6830  1.3900  0.1839
 3560TIP3   OH232094   3.394   6.598   1.247  0.2218 -0.5127 -0.1846
 3560TIP3    H132095   3.487   6.604   1.269  0.2076  0.1955 -0.2913
 3560TIP3    H232096   3.349   6.600   1.331  0.2538  0.2375 -0.1853
 3561TIP3   OH232097   2.171   3.275  12.280  0.2326  0.1249  0.1733
 3561TIP3    H132098   2.159   3.194  12.230 -1.2033  0.5555 -0.2237
 3561TIP3    H232099   2.213   3.335  12.219 -0.2499  0.2053 -0.0866
 3562TIP3   OH232100   6.714   1.643   3.071  0.6957 -0.5049 -0.1123
 3562TIP3    H132101   6.649   1.659   3.139 -0.4128 -0.7114 -1.0904
 3562TIP3    H232102   6.772   1.577   3.108  0.8147  0.2438  1.0715
 3563TIP3   OH232103   1.343   4.055  10.621 -0.2832  0.3728 -0.1669
 3563TIP3    H132104   1.332   3.994  10.549 -0.6889  0.8439 -0.5176
 3563TIP3    H232105   1.421   4.025  10.667 -0.0440  0.0405 -0.7768
 3564TIP3   OH232106   5.063   2.662   4.841 -0.9317 -0.0185 -0.2892
 3564TIP3    H132107   4.969   2.647   4.845 -0.7179 -1.6563 -0.4429
 3564TIP3    H232108   5.086   2.650   4.749 -0.6695  1.1747 -0.3974
 3565TIP3   OH232109   2.133   1.982  17.163  0.1322 -0.0658 -0.3349
 3565TIP3    H132110   2.203   1.980  17.228  1.1427 -1.9692 -1.4027
 3565TIP3    H232111   2.172   2.024  17.086 -1.0879  2.2927  0.2213
 3566TIP3   OH232112   6.315   2.986   3.979  0.4898  0.1132  0.2428
 3566TIP3    H132113   6.220   2.995   3.980  0.6072  2.4452  3.2626
 3566TIP3    H232114   6.345   3.054   3.918  0.2826 -0.1293 -0.1369
 3567TIP3   OH232115   1.514   0.115   3.618 -0.7411 -0.0942  0.0256
 3567TIP3    H132116   1.429   0.097   3.577 -1.3202 -0.2293  1.2415
 3567TIP3    H232117   1.492   0.153   3.703  0.4364  0.5565  0.0558
 3568TIP3   OH232118   4.159   4.013   4.696 -0.5602 -0.1022  0.4012
 3568TIP3    H132119   4.136   3.947   4.762  0.2831  0.2570  1.0729
 3568TIP3    H232120   4.091   4.005   4.630 -0.7801 -1.2837  0.7347
 3569TIP3   OH232121   6.410   2.240  16.231  0.2465 -0.1532 -0.2945
 3569TIP3    H132122   6.336   2.236  16.170  1.7741  0.1340 -2.2852
 3569TIP3    H232123   6.413   2.331  16.259 -0.9955 -0.4660  0.9909
 3570TIP3   OH232124   0.841   1.018  16.285  0.3456 -0.0044 -0.8464
 3570TIP3    H132125   0.899   1.060  16.349 -0.8948  0.9075 -0.2851
 3570TIP3    H232126   0.827   0.930  16.321  0.1776  0.2862 -0.1797
 3571TIP3   OH232127   2.623   3.085   1.311  0.1546 -0.3709  0.1266
 3571TIP3    H132128   2.600   3.018   1.247  0.1854  2.1072 -2.7268
 3571TIP3    H232129   2.717   3.074   1.324  0.0339 -1.3019  0.2718
 3572TIP3   OH232130   3.286   3.220  13.131  0.0616 -0.0928 -0.5324
 3572TIP3    H132131   3.192   3.209  13.148  0.1604  0.3395  0.3471
 3572TIP3    H232132   3.291   3.276  13.053 -0.4129 -2.2862 -2.2500
 3573TIP3   OH232133   2.192   1.468   4.766 -0.3477 -0.1901 -0.1755
 3573TIP3    H132134   2.241   1.454   4.846 -1.8460 -1.1981  0.6033
 3573TIP3    H232135   2.142   1.548   4.782 -0.5173 -0.2966 -0.1719
 3574TIP3   OH232136   3.571   5.608   2.144 -0.3459 -0.0396  0.2540
 3574TIP3    H132137   3.485   5.569   2.160 -1.4663  3.0787  2.9038
 3574TIP3    H232138   3.554   5.680   2.083  0.5444  0.0920  0.1464
 3575TIP3   OH232139   3.392   3.878  16.204  0.2933  0.6302  0.3035
 3575TIP3    H132140   3.298   3.895  16.208 -0.3027 -1.8607 -0.7014
 3575TIP3    H232141   3.432   3.948  16.254 -2.2715  0.5613  2.6761
 3576TIP3   OH232142   3.174   4.089  11.917  0.2846  0.5352 -0.2469
 3576TIP3    H132143   3.117   4.038  11.860  0.6300  1.2755 -1.2871
 3576TIP3    H232144   3.223   4.024  11.968 -0.9793 -0.1132  0.1800
 3577TIP3   OH232145   1.347   0.637   3.328  0.4633  0.0947 -0.7409
 3577TIP3    H132146   1.423   0.614   3.382 -0.9921  0.2196  1.4959
 3577TIP3    H232147   1.312   0.553   3.300 -0.0045 -0.0927  0.3579
 3578TIP3   OH232148   6.390   6.623   3.375  0.3562 -0.2436 -0.7100
 3578TIP3    H132149   6.468   6.569   3.364 -0.0392 -0.4592 -2.8231
 3578TIP3    H232150   6.318   6.559   3.383  0.1864 -0.0378 -0.5897
 3579TIP3   OH232151   1.580   6.226  12.133  0.5065 -0.0707  0.1688
 3579TIP3    H132152   1.613   6.141  12.102 -1.6997 -0.9989  0.2307
 3579TIP3    H232153   1.622   6.238  12.218 -0.1733 -1.7888  0.7937
 3580TIP3   OH232154   5.052   4.167   3.989  0.4964  0.8266  1.2003
 3580TIP3    H132155   5.032   4.140   4.079 -0.0800  1.2398  1.2056
 3580TIP3    H232156   5.043   4.262   3.991  0.2656  0.8186  0.6567
 3581TIP3   OH232157   6.066   5.784   1.928  0.0946 -0.2460  0.0656
 3581TIP3    H132158   6.027   5.728   1.860 -1.2649  1.9718 -1.1174
 3581TIP3    H232159   6.024   5.756   2.009 -0.9882 -0.5933 -0.5885
 3582TIP3   OH232160   0.795   1.949  16.309  0.1141 -0.4230  0.4840
 3582TIP3    H132161   0.713   1.922  16.269 -0.1987  0.0589  0.7912
 3582TIP3    H232162   0.828   2.019  16.252 -1.3820  1.7546  2.1403
 3583TIP3   OH232163   4.726   1.540  10.692  0.5636  0.1616 -0.6526
 3583TIP3    H132164   4.721   1.604  10.763  0.3249  0.6539 -1.1093
 3583TIP3    H232165   4.650   1.484  10.706 -1.8320  2.5928 -2.7276
 3584TIP3   OH232166   6.403   5.318  16.176  0.1108  0.3281 -0.1007
 3584TIP3    H132167   6.376   5.264  16.250 -0.4629 -0.4757 -0.8692
 3584TIP3    H232168   6.339   5.390  16.175 -0.5665 -0.2625 -0.4641
 3585TIP3   OH232169   4.879   1.331   0.912  0.3075 -0.1215 -0.4982
 3585TIP3    H132170   4.970   1.336   0.884  0.1406 -0.6718 -1.1740
 3585TIP3    H232171   4.832   1.390   0.853  0.1836 -0.0478 -0.3290
 3586TIP3   OH232172   1.957   1.391   6.236 -0.0859  0.1756 -0.6060
 3586TIP3    H132173   1.956   1.425   6.325  0.1388 -0.9614 -0.1558
 3586TIP3    H232174   2.028   1.440   6.193  1.1212 -0.6316  0.4025
 3587TIP3   OH232175   3.897   2.932   1.080  0.4954 -0.0267 -0.3854
 3587TIP3    H132176   3.987   2.907   1.060  0.5150  0.1804 -0.5676
 3587TIP3    H232177   3.866   2.973   0.999  0.0453 -0.6242 -0.5230
 3588TIP3   OH232178   0.496   1.590   4.096  0.1008  0.3807 -0.4616
 3588TIP3    H132179   0.554   1.646   4.044  0.7647  2.1875  2.0111
 3588TIP3    H232180   0.412   1.591   4.049  1.4668 -0.8767 -3.1954
 3589TIP3   OH232181   0.395   2.965   1.888 -0.5219  0.6242  0.2010
 3589TIP3    H132182   0.305   2.934   1.901 -0.8487  1.3486 -0.2769
 3589TIP3    H232183   0.443   2.929   1.963 -0.8981 -0.9108 -0.2573
 3590TIP3   OH232184   4.581   4.880   4.046 -0.2544 -0.4745  0.0741
 3590TIP3    H132185   4.560   4.931   4.125 -0.2454 -1.1130  0.5030
 3590TIP3    H232186   4.640   4.811   4.078  1.4567  0.4985 -0.8661
 3591TIP3   OH232187   3.024   1.512   4.446  0.3418  0.1417  0.3702
 3591TIP3    H132188   2.944   1.499   4.496 -0.4082 -0.0059 -0.8442
 3591TIP3    H232189   3.033   1.607   4.439 -0.6869  0.1786 -0.9372
 3592TIP3   OH232190   3.709   5.141   4.913 -0.5664  0.3535 -0.0132
 3592TIP3    H132191   3.693   5.083   4.987  1.7018 -0.5944 -0.1959
 3592TIP3    H232192   3.802   5.163   4.918 -1.0745  3.0568 -0.6519
 3593TIP3   OH232193   6.295   6.651   2.905  0.2719  0.1862 -0.0679
 3593TIP3    H132194   6.386   6.625   2.891 -0.2071 -1.4334 -0.3507
 3593TIP3    H232195   6.257   6.580   2.956 -0.9558  0.6223 -0.3450
 3594TIP3   OH232196   3.270   4.139   5.265  0.0832  0.0660 -0.0559
 3594TIP3    H132197   3.191   4.188   5.286 -0.3442 -0.8326  0.4946
 3594TIP3    H232198   3.295   4.170   5.178 -1.2653 -0.1145 -0.5341
 3595TIP3   OH232199   0.009   0.751   4.534  0.1539 -0.9250  0.4269
 3595TIP3    H132200  -0.059   0.694   4.568 -0.3516 -1.2875 -1.0975
 3595TIP3    H232201   0.066   0.693   4.483  0.2366 -0.2546 -0.2702
 3596TIP3   OH232202   2.142   4.852   1.139 -0.5291  0.0488 -0.1301
 3596TIP3    H132203   2.142   4.837   1.045  1.1237  2.2830 -0.5547
 3596TIP3    H232204   2.086   4.928   1.152  1.5399  1.5868  0.2687
 3597TIP3   OH232205   3.759   4.226  12.088 -0.0676  0.1089 -0.0927
 3597TIP3    H132206   3.843   4.218  12.134 -0.4043 -0.2224  0.4832
 3597TIP3    H232207   3.751   4.319  12.069  1.7639 -0.1641 -2.7638
 3598TIP3   OH232208   6.362   3.468   3.898  0.2282 -0.0979 -0.3700
 3598TIP3    H132209   6.285   3.413   3.908  0.7797 -1.2353 -1.9516
 3598TIP3    H232210   6.335   3.536   3.837 -0.3975  1.3672  1.4420
 3599TIP3   OH232211   1.889   5.527  15.777  1.1813  0.3940  0.2359
 3599TIP3    H132212   1.856   5.438  15.788 -0.6988  1.0826  0.4963
 3599TIP3    H232213   1.960   5.518  15.714  0.6854 -1.2212 -0.1506
 3600TIP3   OH232214   0.473   3.007   4.250  0.3882  0.1074 -0.2214
 3600TIP3    H132215   0.434   2.986   4.165  0.4103 -1.4954  0.1446
 3600TIP3    H232216   0.564   3.029   4.230  0.7225 -1.4482 -0.5024
 3601TIP3   OH232217   0.605   5.064   3.448  0.1753 -0.3082  0.7157
 3601TIP3    H132218   0.664   5.099   3.382 -0.6961  0.0860  0.1242
 3601TIP3    H232219   0.613   5.125   3.522 -2.0506  1.8769 -0.6501
 3602TIP3   OH232220   2.562   5.109   0.327  0.3476 -0.5629 -0.0074
 3602TIP3    H132221   2.477   5.121   0.285 -0.4625  2.1488  2.1094
 3602TIP3    H232222   2.544   5.053   0.402  0.8135 -1.4038 -0.5087
 3603TIP3   OH232223   6.691   5.339  16.209 -0.5955 -0.6107 -0.0112
 3603TIP3    H132224   6.613   5.290  16.184 -0.7663 -0.9968  1.2302
 3603TIP3    H232225   6.695   5.411  16.146 -2.1184 -0.4185  0.0840
 3604TIP3   OH232226   2.467   2.291  13.825  0.2798 -0.1240 -0.1792
 3604TIP3    H132227   2.523   2.270  13.751  1.0568 -0.5599  0.5194
 3604TIP3    H232228   2.468   2.387  13.830 -0.2971 -0.0597 -1.1134
 3605TIP3   OH232229   5.230   3.266  14.380 -0.1609  0.1643 -0.6243
 3605TIP3    H132230   5.167   3.264  14.451 -0.9542 -1.6656 -1.3090
 3605TIP3    H232231   5.314   3.249  14.422 -0.5643 -0.5008 -0.0647
 3606TIP3   OH232232   1.835   4.621  15.880  0.4446 -0.2593 -0.0180
 3606TIP3    H132233   1.773   4.567  15.928  0.6187  0.5063  1.1198
 3606TIP3    H232234   1.889   4.559  15.831  0.0126 -1.0389  0.4809
 3607TIP3   OH232235   6.022   3.430   1.646 -0.1496  0.2280  0.0544
 3607TIP3    H132236   6.017   3.493   1.718  0.5270 -0.2600  0.5366
 3607TIP3    H232237   6.053   3.482   1.571 -1.9379  0.9927 -0.2278
 3608TIP3   OH232238   5.953   0.271   5.330 -0.3955  0.3048  0.1070
 3608TIP3    H132239   5.939   0.218   5.251 -0.3782  1.1097 -0.4497
 3608TIP3    H232240   5.871   0.318   5.341 -0.8656 -0.7234  1.3107
 3609TIP3   OH232241   3.914   5.639   3.595 -0.1894 -0.0516 -0.6727
 3609TIP3    H132242   3.956   5.701   3.535  0.3749 -1.1633 -1.4765
 3609TIP3    H232243   3.824   5.670   3.603  0.0758  0.8522 -1.0758
 3610TIP3   OH232244   5.979   5.483  10.925  0.0508  0.1159  0.4325
 3610TIP3    H132245   6.068   5.488  10.958 -0.3269  2.2965  1.3043
 3610TIP3    H232246   5.963   5.569  10.884 -0.9377 -0.9931 -1.7038
 3611TIP3   OH232247   3.770   0.704  12.775 -0.4241  0.7056  0.1007
 3611TIP3    H132248   3.760   0.686  12.681  1.1868 -0.9917  0.2021
 3611TIP3    H232249   3.753   0.621  12.818 -0.6118  1.3394  1.2963
 3612TIP3   OH232250   0.601   2.064   0.843  0.6751 -0.3758  0.5748
 3612TIP3    H132251   0.612   2.140   0.786  0.1157 -1.3668 -0.9189
 3612TIP3    H232252   0.506   2.050   0.847  0.7976 -1.4806  0.1304
 3613TIP3   OH232253   5.798   3.161   5.532 -0.1914 -0.3527  0.3349
 3613TIP3    H132254   5.844   3.121   5.458  0.3582  0.5498  0.1769
 3613TIP3    H232255   5.709   3.128   5.525 -0.0369 -0.6247 -0.4752
 3614TIP3   OH232256   0.583   2.568   5.375  0.2451  0.4261  0.0477
 3614TIP3    H132257   0.614   2.495   5.321 -0.1937  0.1073  0.2185
 3614TIP3    H232258   0.489   2.574   5.356 -0.4151 -1.1113  2.3564
 3615TIP3   OH232259   0.895   6.215  14.666 -0.4659 -0.2107 -0.0146
 3615TIP3    H132260   0.883   6.287  14.604  1.7357  1.8826  1.7264
 3615TIP3    H232261   0.869   6.252  14.751  2.2826 -0.7647  1.2104
 3616TIP3   OH232262   1.590   5.647   2.292 -0.5475 -0.4637  0.2603
 3616TIP3    H132263   1.612   5.649   2.198  1.8667 -1.9112  0.7042
 3616TIP3    H232264   1.664   5.691   2.334 -0.8446 -1.2042  1.5857
 3617TIP3   OH232265   5.624   5.942   3.480 -0.0200  0.1520  0.2753
 3617TIP3    H132266   5.689   6.000   3.519 -0.0463  1.8754 -2.0401
 3617TIP3    H232267   5.674   5.865   3.453  1.1531  1.4923 -1.5535
 3618TIP3   OH232268   0.739   5.877  13.147 -0.2784  0.0076  0.6272
 3618TIP3    H132269   0.748   5.788  13.114 -1.3275 -0.3581  1.2970
 3618TIP3    H232270   0.693   5.924  13.077  2.9669  0.8947 -1.1170
 3619TIP3   OH232271   0.903   0.716   2.541  0.6260 -0.5610  0.3694
 3619TIP3    H132272   0.808   0.728   2.538  0.4150 -1.7997 -2.8927
 3619TIP3    H232273   0.939   0.797   2.506  0.5561 -0.9747 -0.7190
 3620TIP3   OH232274   4.830   0.468   3.511  0.2758 -0.1693  0.1373
 3620TIP3    H132275   4.915   0.490   3.550  1.2767 -0.1501 -1.8772
 3620TIP3    H232276   4.815   0.538   3.447 -1.9834  0.5894  1.4199
 3621TIP3   OH232277   5.868   5.977  17.371 -0.1207 -0.3010  0.2593
 3621TIP3    H132278   5.861   6.041  17.300  3.4448  1.0149  0.8521
 3621TIP3    H232279   5.910   5.901  17.330  0.8741  0.0115  0.6647
 3622TIP3   OH232280   6.001   2.937   1.821  0.0162 -0.3125 -0.1936
 3622TIP3    H132281   6.075   2.963   1.765  0.8571  0.1683  1.1028
 3622TIP3    H232282   5.928   2.991   1.790  0.5939  0.3170 -0.4925
 3623TIP3   OH232283   4.732   3.383  12.191 -0.2056  0.0730 -0.0004
 3623TIP3    H132284   4.728   3.297  12.233 -1.4473 -0.1583 -0.5739
 3623TIP3    H232285   4.661   3.433  12.231  0.5588  0.8930  0.3967
 3624TIP3   OH232286   1.021   2.583  13.328  0.0026 -0.3062 -0.4976
 3624TIP3    H132287   1.038   2.656  13.269 -0.2646 -0.4819 -0.7914
 3624TIP3    H232288   1.103   2.534  13.330  0.8745  1.1033  1.2759
 3625TIP3   OH232289   2.752   0.683   1.166 -0.0153 -0.1701  0.5736
 3625TIP3    H132290   2.725   0.730   1.087  1.2315  0.1695  0.3303
 3625TIP3    H232291   2.678   0.691   1.226  0.2939  2.4953  0.7068
 3626TIP3   OH232292   6.302   1.977  13.019 -0.3127 -0.4153  0.3008
 3626TIP3    H132293   6.394   2.003  13.020  0.6991 -3.6008 -0.0660
 3626TIP3    H232294   6.285   1.943  13.107 -0.5575 -1.4919 -0.1372
 3627TIP3   OH232295   4.763   2.725   1.771 -0.1357  0.2247 -0.0725
 3627TIP3    H132296   4.776   2.693   1.860 -0.2149  2.4677  0.8012
 3627TIP3    H232297   4.847   2.766   1.748  0.1200 -0.9180 -1.3290
 3628TIP3   OH232298   3.402   2.066  12.534 -0.4828  0.0647 -0.1615
 3628TIP3    H132299   3.331   2.017  12.575  2.2453 -0.9977  4.0249
 3628TIP3    H232300   3.397   2.153  12.572  0.7014 -0.2060  0.6965
 3629TIP3   OH232301   5.277   3.626  12.463 -0.4446 -0.3799  0.0997
 3629TIP3    H132302   5.268   3.707  12.513 -0.7629 -0.0115 -0.5372
 3629TIP3    H232303   5.272   3.556  12.529 -1.0685  0.0842  0.5616
 3630TIP3   OH232304   5.101   5.485  16.293 -0.0105  0.0169 -0.0409
 3630TIP3    H132305   5.043   5.504  16.367 -1.3770  0.6609 -1.2171
 3630TIP3    H232306   5.093   5.391  16.280  0.5464 -0.1682  0.8462
 3631TIP3   OH232307   0.970   6.670  13.773  0.1181  0.3652  0.2666
 3631TIP3    H132308   0.896   6.729  13.758 -0.9687 -1.4584 -2.2305
 3631TIP3    H232309   1.044   6.713  13.732 -0.6893  0.0458 -1.6384
 3632TIP3   OH232310   2.414   0.818  16.905  0.4512  0.6336  0.1230
 3632TIP3    H132311   2.417   0.905  16.947  1.6062 -0.0374  1.5137
 3632TIP3    H232312   2.356   0.767  16.961  1.2362 -0.0042  0.3650
 3633TIP3   OH232313   5.754   6.043  15.651 -0.2124 -0.2920  0.7736
 3633TIP3    H132314   5.777   6.050  15.744 -0.1187  2.2629  0.6371
 3633TIP3    H232315   5.673   6.094  15.643  0.3816  0.4720 -0.7122
 3634TIP3   OH232316   5.299   1.442   6.706  0.5129  0.4594  0.1221
 3634TIP3    H132317   5.251   1.361   6.728  1.1852 -0.4067 -1.4578
 3634TIP3    H232318   5.231   1.509   6.702 -0.0737 -0.0232  1.3809
 3635TIP3   OH232319   4.310   4.233   6.154  0.2616  0.1672  0.2365
 3635TIP3    H132320   4.296   4.289   6.231 -0.9564 -0.4684  0.5132
 3635TIP3    H232321   4.290   4.145   6.185 -1.5625  0.0450 -1.0998
 3636TIP3   OH232322   4.286   1.330   5.146  0.2698 -0.1324 -0.2372
 3636TIP3    H132323   4.205   1.356   5.102 -0.0799  0.0962  0.5246
 3636TIP3    H232324   4.264   1.331   5.239  1.2688  0.3614  0.0032
 3637TIP3   OH232325   4.974   5.619   6.125 -0.2950  0.6305  0.2950
 3637TIP3    H132326   4.995   5.530   6.154  0.1450  0.0636 -1.6068
 3637TIP3    H232327   5.041   5.674   6.166  0.3829 -0.1348  0.2413
 3638TIP3   OH232328   0.049   6.375   3.175  0.2448 -0.0156 -0.2852
 3638TIP3    H132329   0.019   6.465   3.158 -0.0327  0.2276  1.3726
 3638TIP3    H232330  -0.029   6.329   3.204  0.4384 -0.7597 -0.9113
 3639TIP3   OH232331   3.114   6.549  15.856 -0.1368 -0.4378 -0.3820
 3639TIP3    H132332   3.050   6.572  15.923 -0.2494 -2.7515  0.3955
 3639TIP3    H232333   3.110   6.622  15.793 -2.6029  0.0980  0.2803
 3640TIP3   OH232334   4.878   3.168  15.755  0.1404  0.9564 -0.2646
 3640TIP3    H132335   4.896   3.074  15.753  0.1375  0.9132  0.9316
 3640TIP3    H232336   4.962   3.210  15.736 -0.0460  0.7229 -1.6967
 3641TIP3   OH232337   0.204   6.580   4.366 -0.2139 -0.4247 -0.0345
 3641TIP3    H132338   0.187   6.592   4.459 -1.9479 -0.5221 -0.3207
 3641TIP3    H232339   0.297   6.601   4.356 -0.4889  1.8250  1.3569
 3642TIP3   OH232340   0.707   1.305   0.697 -0.5306  0.2260  0.9842
 3642TIP3    H132341   0.679   1.289   0.787 -1.6479 -0.2061  0.5769
 3642TIP3    H232342   0.803   1.297   0.700 -0.6686 -1.7111  1.7644
 3643TIP3   OH232343   2.127   5.577   6.355 -0.0982 -0.1959 -0.3512
 3643TIP3    H132344   2.203   5.620   6.394 -0.8728  0.5028  0.4514
 3643TIP3    H232345   2.121   5.493   6.400 -0.6581  0.3737  0.6713
 3644TIP3   OH232346   0.381   0.900   0.362 -0.4228  0.4821  0.6068
 3644TIP3    H132347   0.474   0.890   0.383  0.0050 -1.8949 -1.8617
 3644TIP3    H232348   0.341   0.819   0.393 -1.0692  0.1494 -0.9832
 3645TIP3   OH232349   5.552   5.500   4.644  0.3371  0.1218  0.5082
 3645TIP3    H132350   5.551   5.590   4.610  0.0877  0.2242  0.7910
 3645TIP3    H232351   5.575   5.509   4.736  0.4809 -0.1189  0.4970
 3646TIP3   OH232352   4.962   0.880  15.118  0.3483  0.5172 -0.1689
 3646TIP3    H132353   4.921   0.881  15.031 -0.6112  0.2278  0.2703
 3646TIP3    H232354   4.943   0.794  15.153 -0.8576  1.2534  1.0607
 3647TIP3   OH232355   0.957   2.018   3.921 -0.3333  0.5644 -0.0907
 3647TIP3    H132356   0.923   1.992   3.835  1.3627 -2.7758  0.0911
 3647TIP3    H232357   0.888   1.992   3.983 -0.2880  0.1050 -0.2293
 3648TIP3   OH232358   3.718   1.055  15.897  0.0926  0.3672  0.1653
 3648TIP3    H132359   3.790   1.050  15.834  1.5336 -1.3093  1.8288
 3648TIP3    H232360   3.683   0.966  15.900 -1.7888  1.0528 -0.2560
 3649TIP3   OH232361   4.576   5.448  17.247  0.0451 -0.0901  0.2935
 3649TIP3    H132362   4.535   5.534  17.246  1.3822  0.6016 -1.6575
 3649TIP3    H232363   4.543   5.404  17.169  0.5498 -0.7490  0.4381
 3650TIP3   OH232364   4.337   6.568  15.911  0.0273 -0.0629 -0.0030
 3650TIP3    H132365   4.273   6.499  15.927 -0.0478 -0.0526 -0.2571
 3650TIP3    H232366   4.419   6.534  15.946  0.1547 -0.5893 -0.8048
 3651TIP3   OH232367   2.079   4.847  16.818 -0.5447  0.0908 -0.0841
 3651TIP3    H132368   2.162   4.804  16.839 -0.1172  1.5865  1.6109
 3651TIP3    H232369   2.103   4.919  16.760 -0.5729  0.7033  0.6387
 3652TIP3   OH232370   0.651   4.361  14.796 -0.6906  0.6765  0.0387
 3652TIP3    H132371   0.596   4.398  14.865 -0.9133 -2.4672  1.6916
 3652TIP3    H232372   0.599   4.289  14.760  1.3318 -0.7929 -0.0896
 3653TIP3   OH232373   5.410   2.203   2.287 -0.0069 -0.2842 -0.3344
 3653TIP3    H132374   5.397   2.275   2.226 -0.3506  0.0622  0.1393
 3653TIP3    H232375   5.323   2.187   2.324 -0.1042 -1.4913 -1.0241
 3654TIP3   OH232376   3.953   0.594   2.827  1.0528 -0.0849  0.2608
 3654TIP3    H132377   3.962   0.683   2.860 -0.8913  0.1189  0.3308
 3654TIP3    H232378   3.859   0.579   2.821  1.2945 -1.1439 -2.4513
 3655TIP3   OH232379   0.628   6.691   0.974  0.1752  0.1999  0.5227
 3655TIP3    H132380   0.643   6.655   0.887 -2.2219  0.1837  0.0680
 3655TIP3    H232381   0.605   6.783   0.958  1.0677  0.5687  1.2704
 3656TIP3   OH232382   3.146   3.797  14.129 -0.2871 -0.2784  0.4110
 3656TIP3    H132383   3.157   3.878  14.180 -0.3505  0.7361 -1.1087
 3656TIP3    H232384   3.233   3.758  14.129  0.1578  0.6613 -0.1943
 3657TIP3   OH232385   3.005   4.001   4.273 -0.5987  0.5326  0.2616
 3657TIP3    H132386   3.094   3.990   4.241 -1.0362 -1.0915 -0.4889
 3657TIP3    H232387   2.992   4.096   4.275  1.2896  0.8270  0.8608
 3658TIP3   OH232388   5.027   0.253  13.643  0.6246 -0.8031  0.1042
 3658TIP3    H132389   5.099   0.314  13.652  0.7515 -0.9481  0.0741
 3658TIP3    H232390   5.061   0.170  13.676 -0.0217 -0.5104  1.6015
 3659TIP3   OH232391   6.580   0.579   1.978  0.2652  0.1651 -0.2782
 3659TIP3    H132392   6.527   0.560   1.900 -0.7824  0.2859  0.3851
 3659TIP3    H232393   6.544   0.522   2.046  2.8722 -1.9451 -0.4904
 3660TIP3   OH232394   6.079   2.393   3.652  0.9578  0.4047 -0.1161
 3660TIP3    H132395   6.006   2.396   3.590  1.0622  1.5489 -0.1985
 3660TIP3    H232396   6.068   2.471   3.706  0.9760 -0.4698  1.2095
 3661TIP3   OH232397   0.326   5.495   4.771  0.0826  0.5689 -0.2268
 3661TIP3    H132398   0.343   5.480   4.678 -1.3305 -0.5506 -0.3468
 3661TIP3    H232399   0.270   5.422   4.796 -0.3259  1.3729  1.2800
 3662TIP3   OH232400   2.331   0.241   1.456 -0.6806 -0.2518 -0.0747
 3662TIP3    H132401   2.401   0.210   1.399 -0.2841  0.3845  0.0585
 3662TIP3    H232402   2.359   0.216   1.544 -0.0476  1.0135  0.1040
 3663TIP3   OH232403   2.909   4.172   1.919 -0.4122  0.1018 -0.3010
 3663TIP3    H132404   2.868   4.252   1.888 -1.1052 -0.1513 -0.0591
 3663TIP3    H232405   2.842   4.105   1.908  0.1562 -0.4419 -0.4839
 3664TIP3   OH232406   2.344   5.651  11.303 -0.3373  0.0421  0.8382
 3664TIP3    H132407   2.395   5.711  11.248 -1.1989 -1.4142 -1.6986
 3664TIP3    H232408   2.276   5.706  11.342 -0.2978  0.9720 -0.3405
 3665TIP3   OH232409   1.349   2.113  12.802 -0.1989 -0.5895  0.1834
 3665TIP3    H132410   1.316   2.149  12.884 -1.0638 -0.3228 -0.2798
 3665TIP3    H232411   1.321   2.175  12.735  3.1060  0.8916 -0.0403
 3666TIP3   OH232412   5.029   3.938  16.599 -0.9013  0.3009 -0.8844
 3666TIP3    H132413   5.075   3.954  16.681 -1.5111 -2.5110  0.1457
 3666TIP3    H232414   4.968   4.011  16.591  1.2246  2.2217 -0.4687
 3667TIP3   OH232415   2.908   5.538   2.418  0.0577 -0.2666  0.2386
 3667TIP3    H132416   2.922   5.543   2.324 -0.0682 -1.1065  0.1683
 3667TIP3    H232417   2.996   5.527   2.455  0.1192  0.1871  0.2326
 3668TIP3   OH232418   2.144   1.862  15.980  0.5301  0.3092 -0.1761
 3668TIP3    H132419   2.180   1.794  16.036 -0.9707  0.4079  0.9826
 3668TIP3    H232420   2.202   1.937  15.992  1.5647 -0.4022 -0.6168
 3669TIP3   OH232421   0.439   2.945  12.649  0.6368  0.4783  0.1685
 3669TIP3    H132422   0.459   3.013  12.584  2.0917  2.2096  2.3115
 3669TIP3    H232423   0.358   2.975  12.691 -0.2473 -0.5933 -0.6791
 3670TIP3   OH232424   6.471   5.372   0.539  0.2772  0.2053  0.0388
 3670TIP3    H132425   6.555   5.335   0.566 -0.6177 -1.3545  0.7964
 3670TIP3    H232426   6.490   5.416   0.456  1.7233 -0.5999 -0.0877
 3671TIP3   OH232427   2.809   5.735  15.646 -0.0029 -0.5384 -0.4589
 3671TIP3    H132428   2.799   5.650  15.688 -1.3639 -0.4206 -0.5019
 3671TIP3    H232429   2.808   5.717  15.552 -0.1972 -0.4855 -0.4681
 3672TIP3   OH232430   3.765   2.437   1.488  0.4950  0.2708 -0.0043
 3672TIP3    H132431   3.830   2.504   1.507  0.9999  0.4992 -2.3434
 3672TIP3    H232432   3.697   2.482   1.438 -2.7433  0.5858  4.0437
 3673TIP3   OH232433   3.176   0.056  14.865  0.1136 -0.5826 -0.7452
 3673TIP3    H132434   3.111  -0.012  14.882 -0.7546  0.6351  1.1375
 3673TIP3    H232435   3.236   0.017  14.802 -0.6522 -2.8917 -0.1346
 3674TIP3   OH232436   0.870   1.021  12.239  0.3074 -0.0633  0.0906
 3674TIP3    H132437   0.934   1.084  12.207  0.3109 -0.0644  0.0957
 3674TIP3    H232438   0.785   1.060  12.216  0.2989  0.1363  0.4538
 3675TIP3   OH232439   5.055   1.015  12.549  0.5807  0.1157  0.2423
 3675TIP3    H132440   4.972   1.011  12.597 -0.3667 -0.9891 -1.3780
 3675TIP3    H232441   5.056   0.936  12.496  2.4840  0.3399 -0.1308
 3676TIP3   OH232442   1.614   6.069  14.605  0.0646 -0.1470 -0.4683
 3676TIP3    H132443   1.621   6.022  14.522 -0.0735 -3.3230  1.1631
 3676TIP3    H232444   1.535   6.122  14.596  0.6534  0.4495 -2.6981
 3677TIP3   OH232445   2.754   2.777   6.199  0.1768 -0.3056  0.2697
 3677TIP3    H132446   2.747   2.724   6.119 -0.3670 -0.6732  0.5516
 3677TIP3    H232447   2.665   2.810   6.213  0.5907  1.0330 -0.1241
 3678TIP3   OH232448   6.656   4.421  11.374 -0.2940  0.5304  0.3245
 3678TIP3    H132449   6.574   4.455  11.409 -1.5109 -0.6352 -1.2282
 3678TIP3    H232450   6.677   4.478  11.300 -1.3571 -0.8862 -1.1364
 3679TIP3   OH232451   4.038   6.339  17.354 -0.6568 -0.3405 -0.2089
 3679TIP3    H132452   4.069   6.426  17.380 -2.2202 -0.1708  1.2834
 3679TIP3    H232453   3.999   6.353  17.268 -2.4233  0.8881  0.7167
 3680TIP3   OH232454   5.191   2.457   0.388  0.4138  0.1906 -0.2879
 3680TIP3    H132455   5.134   2.527   0.420  1.4365  0.1750  1.7579
 3680TIP3    H232456   5.280   2.488   0.409  0.9750 -1.0494 -0.7580
 3681TIP3   OH232457   6.197   3.679   0.004  0.3784 -0.5232 -0.0474
 3681TIP3    H132458   6.276   3.662   0.056 -0.3674  0.3347  1.4534
 3681TIP3    H232459   6.229   3.703  -0.083  2.0681  3.5749  1.4676
 3682TIP3   OH232460   0.308   2.477   5.115 -0.2069 -0.4131 -0.4175
 3682TIP3    H132461   0.388   2.475   5.062  0.1324  0.2963  0.0524
 3682TIP3    H232462   0.313   2.560   5.163 -0.4464 -1.0954  0.8264
 3683TIP3   OH232463   5.701   1.356   1.825  0.0663 -0.0919  0.2627
 3683TIP3    H132464   5.742   1.351   1.912  0.8031  0.2033 -0.0573
 3683TIP3    H232465   5.751   1.423   1.779 -0.0338 -0.5579 -0.5405
 3684TIP3   OH232466   0.805   6.551  16.879 -0.5817  0.6617 -0.1594
 3684TIP3    H132467   0.853   6.620  16.833 -0.1785  1.3323  1.2096
 3684TIP3    H232468   0.780   6.490  16.810 -1.5474  2.4952 -1.5312
 3685TIP3   OH232469   1.966   0.511   2.128 -0.2706  0.0824 -0.4281
 3685TIP3    H132470   1.982   0.602   2.152 -1.6957  0.2534 -0.0278
 3685TIP3    H232471   1.965   0.464   2.212  2.0226 -0.6073 -0.7267
 3686TIP3   OH232472   3.770   6.397   4.914  0.0831 -0.0526  0.1064
 3686TIP3    H132473   3.857   6.381   4.877 -0.6093 -0.4376 -1.4485
 3686TIP3    H232474   3.765   6.492   4.925  0.2838  0.0853 -0.9021
 3687TIP3   OH232475   4.370   2.968  16.431  0.3841  0.3887  0.5859
 3687TIP3    H132476   4.295   3.016  16.465 -0.1078  0.3691 -0.4058
 3687TIP3    H232477   4.384   3.004  16.343  0.2121 -1.0091 -0.0562
 3688TIP3   OH232478   4.589   3.669   6.827 -0.1370 -0.1854 -0.1315
 3688TIP3    H132479   4.520   3.731   6.854  0.3884  0.1949  0.3624
 3688TIP3    H232480   4.665   3.724   6.808  1.2036 -0.7679  2.8871
 3689TIP3   OH232481   3.579   1.531  12.031  0.1534 -0.5527  0.6215
 3689TIP3    H132482   3.628   1.514  11.951  0.0048  1.2865  0.0957
 3689TIP3    H232483   3.487   1.533  12.003 -0.1269 -2.2704  1.2960
 3690TIP3   OH232484   2.305   6.541   6.034 -0.0951 -0.4283 -0.2798
 3690TIP3    H132485   2.301   6.606   5.964  0.2518  1.0114  0.9810
 3690TIP3    H232486   2.397   6.542   6.062 -0.6900  1.0120  1.9281
 3691TIP3   OH232487   6.689   0.113   2.259  0.0013  0.3205  0.1125
 3691TIP3    H132488   6.614   0.142   2.310 -0.7038 -1.6771  0.3106
 3691TIP3    H232489   6.652   0.052   2.195  0.8631  2.5984 -2.7940
 3692TIP3   OH232490   5.041   5.751   6.560  0.4798 -0.6330 -0.4797
 3692TIP3    H132491   4.978   5.758   6.489  0.4148  1.2878 -0.2691
 3692TIP3    H232492   4.988   5.737   6.638  0.4552 -1.0228 -0.5608
 3693TIP3   OH232493   5.440   0.998   3.918  0.8247  0.4035  0.1147
 3693TIP3    H132494   5.482   0.919   3.887  2.9212  1.4919  0.0058
 3693TIP3    H232495   5.489   1.022   3.997  0.3754  1.6839  0.0353
 3694TIP3   OH232496   2.861   2.808   1.220  1.0390 -0.4881 -0.2538
 3694TIP3    H132497   2.817   2.730   1.187  1.2823 -1.0521  0.7220
 3694TIP3    H232498   2.905   2.779   1.300 -1.1374  1.2526  1.7140
 3695TIP3   OH232499   3.679   1.094  13.073 -0.1412 -0.2182  0.0713
 3695TIP3    H132500   3.618   1.085  12.999  0.8334  1.7027 -1.0429
 3695TIP3    H232501   3.736   1.018  13.066  0.0317  0.0067 -1.2714
 3696TIP3   OH232502   2.304   1.698   5.135  0.1369  0.7453 -0.1146
 3696TIP3    H132503   2.342   1.622   5.091 -0.6288  0.1167  0.2807
 3696TIP3    H232504   2.260   1.662   5.211  2.1677  1.9054  1.7087
 3697TIP3   OH232505   3.767   0.978  14.348  0.2310 -0.1129 -0.5914
 3697TIP3    H132506   3.760   1.074  14.355  0.4394 -0.2017  3.1920
 3697TIP3    H232507   3.676   0.948  14.355  0.3761 -0.1694  2.2861
 3698TIP3   OH232508   6.177   5.231   3.104 -0.1912 -0.4125  0.1233
 3698TIP3    H132509   6.185   5.148   3.056 -0.7428 -0.2925 -0.1823
 3698TIP3    H232510   6.139   5.292   3.040 -1.2710 -0.3445  0.8130
 3699TIP3   OH232511   2.357   2.042  15.996 -0.1991 -0.2563 -0.0321
 3699TIP3    H132512   2.450   2.036  16.020  0.0187  0.8330 -0.5522
 3699TIP3    H232513   2.357   2.081  15.909 -1.1160 -1.3908 -0.5636
 3700TIP3   OH232514   1.996   1.789   3.326 -0.0755 -0.0630  0.2223
 3700TIP3    H132515   1.916   1.822   3.366  0.7003  1.3747  0.6463
 3700TIP3    H232516   1.972   1.772   3.235 -0.8147  0.5131  0.3022
 3701TIP3   OH232517   3.716   2.238   4.275  0.1415  0.2844  0.2241
 3701TIP3    H132518   3.785   2.277   4.329 -0.6845 -0.6200  1.9984
 3701TIP3    H232519   3.741   2.261   4.185  2.9822 -0.3599  0.7385
 3702TIP3   OH232520   6.353   2.323   0.264 -0.0708 -0.0247  0.0957
 3702TIP3    H132521   6.378   2.245   0.215 -1.8761  0.1829 -1.2254
 3702TIP3    H232522   6.407   2.393   0.226 -0.6593 -0.0731 -0.8348
 3703TIP3   OH232523   4.405   4.913  16.677 -0.0769  0.3159 -0.3009
 3703TIP3    H132524   4.407   4.829  16.633 -0.0334  1.0231 -1.7048
 3703TIP3    H232525   4.312   4.938  16.677  0.1322  1.1710 -1.7166
 3704TIP3   OH232526   2.321   2.218   1.050  0.2970 -0.4810 -0.0849
 3704TIP3    H132527   2.269   2.138   1.042 -1.3863  0.3981  1.3027
 3704TIP3    H232528   2.261   2.288   1.022  2.0438  0.2699 -2.2208
 3705TIP3   OH232529   0.416   0.787   0.805 -0.2083 -0.3514  0.0133
 3705TIP3    H132530   0.379   0.790   0.893 -0.7700 -0.0124 -0.2290
 3705TIP3    H232531   0.427   0.879   0.779 -0.9788 -0.4297 -0.6457
 3706TIP3   OH232532   0.232   5.046  14.014 -0.4725  0.7908 -0.1078
 3706TIP3    H132533   0.178   5.069  13.938  0.0681  0.1084 -0.7132
 3706TIP3    H232534   0.206   4.957  14.035  1.8043 -0.3333 -1.6875
 3707TIP3   OH232535   0.307   3.666   5.649 -0.1211 -0.4141  0.4004
 3707TIP3    H132536   0.253   3.711   5.584  1.4565  1.8548  0.5155
 3707TIP3    H232537   0.262   3.681   5.732 -0.2220 -0.0315  0.2807
 3708TIP3   OH232538   6.070   1.466  13.962  0.0874  0.2802  0.0903
 3708TIP3    H132539   6.128   1.527  14.008 -0.0542 -0.2593  1.0109
 3708TIP3    H232540   5.991   1.517  13.944  0.5677  0.8160 -0.5553
 3709TIP3   OH232541   4.273   3.329  13.853  0.6274 -0.1737  0.1448
 3709TIP3    H132542   4.268   3.361  13.943  1.3803  0.1147  0.0965
 3709TIP3    H232543   4.320   3.246  13.860  3.3544  1.2130 -0.2447
 3710TIP3   OH232544   4.406   2.242  11.496 -0.6261  0.0690  0.1225
 3710TIP3    H132545   4.317   2.218  11.522 -0.3607  0.4579  1.4703
 3710TIP3    H232546   4.455   2.245  11.579  0.7688 -0.6547 -0.6424
 3711TIP3   OH232547   3.381   1.569   5.254 -0.3997  0.3930  0.0734
 3711TIP3    H132548   3.466   1.596   5.288  0.0553 -1.4296  0.5339
 3711TIP3    H232549   3.323   1.569   5.330  0.4680 -3.0900  0.9183
 3712TIP3   OH232550   4.985   5.292  12.840 -0.5154 -0.6782 -0.0198
 3712TIP3    H132551   4.951   5.248  12.918 -1.2264  3.1163  2.1163
 3712TIP3    H232552   5.073   5.320  12.865  0.5002 -2.0086 -1.8541
 3713TIP3   OH232553   1.587   3.250   3.107 -0.5093 -0.2961 -0.1215
 3713TIP3    H132554   1.611   3.315   3.041  1.8420  1.4378  2.2388
 3713TIP3    H232555   1.648   3.178   3.094  0.7465  0.5683  0.8565
 3714TIP3   OH232556   4.127   3.554   5.889 -0.8529 -0.6284 -0.1501
 3714TIP3    H132557   4.194   3.560   5.956  0.4916 -0.0288 -1.4838
 3714TIP3    H232558   4.046   3.532   5.936  0.0559 -0.2955  1.6083
 3715TIP3   OH232559   3.444   3.829   0.579 -0.3797  0.4302 -0.2105
 3715TIP3    H132560   3.435   3.811   0.485 -0.6852 -0.3986 -0.0353
 3715TIP3    H232561   3.354   3.832   0.612 -0.3684  2.4425 -0.2180
 3716TIP3   OH232562   6.392   2.491   3.956  0.4659  1.1349  0.4780
 3716TIP3    H132563   6.329   2.497   4.028  0.7831  1.3307  0.7401
 3716TIP3    H232564   6.374   2.405   3.917 -1.7715  2.2280 -1.1521
 3717TIP3   OH232565   0.096   5.729  10.383  0.1965 -0.5879 -0.1940
 3717TIP3    H132566   0.160   5.761  10.446  0.1487  0.8509 -0.8187
 3717TIP3    H232567   0.018   5.709  10.435  0.1883  0.4936  0.2294
 3718TIP3   OH232568   0.201   1.675  11.880  0.1629 -0.1123 -0.0145
 3718TIP3    H132569   0.222   1.678  11.973  0.2321 -2.3676  0.0991
 3718TIP3    H232570   0.235   1.757  11.844  0.4932  0.6029  1.8622
 3719TIP3   OH232571   0.357   0.945   5.187  0.2821  0.4190 -0.0361
 3719TIP3    H132572   0.388   1.000   5.114  1.1650  1.4105  1.0501
 3719TIP3    H232573   0.385   0.992   5.265  1.3986 -1.7645  0.9572
 3720TIP3   OH232574   4.167   3.161   5.898  0.3524 -0.2985 -0.2981
 3720TIP3    H132575   4.248   3.210   5.907  0.4483 -0.4685 -0.2213
 3720TIP3    H232576   4.117   3.181   5.977 -0.3959  1.0934 -1.0799
 3721TIP3   OH232577   5.807   0.000   4.150  0.2457 -0.2002 -0.2312
 3721TIP3    H132578   5.748   0.040   4.214  0.6745 -2.1303  1.4589
 3721TIP3    H232579   5.894   0.030   4.176  0.2209  1.1765 -1.6118
 3722TIP3   OH232580   1.371   6.536  13.562 -0.1502  0.1021 -0.2234
 3722TIP3    H132581   1.307   6.467  13.575  1.0879 -0.8785  1.0728
 3722TIP3    H232582   1.443   6.493  13.516  0.0284  0.9087 -0.7161
 3723TIP3   OH232583   2.727   3.855  15.721 -0.4465 -0.4117 -0.0109
 3723TIP3    H132584   2.787   3.817  15.785  1.6891  1.3891 -0.8261
 3723TIP3    H232585   2.640   3.846  15.761  0.6579 -0.5383  2.5270
 3724TIP3   OH232586   3.448   0.311  15.296 -0.1442 -0.2007  0.2304
 3724TIP3    H132587   3.490   0.228  15.274  0.8448  0.4169 -0.2748
 3724TIP3    H232588   3.516   0.361  15.342 -0.0534  1.0941 -1.2277
 3725TIP3   OH232589   1.443   5.636   0.922  0.9402  0.0235 -0.3475
 3725TIP3    H132590   1.405   5.697   0.985  1.6552  0.7708 -0.6162
 3725TIP3    H232591   1.368   5.589   0.885  0.4673  0.0235  0.5978
 3726TIP3   OH232592   0.917   6.248  14.040  0.2380 -0.4256  0.6224
 3726TIP3    H132593   0.878   6.286  14.119 -2.0820 -0.8466 -0.2373
 3726TIP3    H232594   0.959   6.322  13.995 -1.0117  0.4167  0.7949
 3727TIP3   OH232595   4.091   3.809  16.396 -0.1488  0.3069 -0.4750
 3727TIP3    H132596   4.147   3.769  16.462  2.4477  2.1630 -1.3980
 3727TIP3    H232597   4.054   3.886  16.440 -0.1149  0.3859 -0.5869
 3728TIP3   OH232598   4.044   6.751   5.312 -0.4317  0.1017  0.0279
 3728TIP3    H132599   4.061   6.841   5.340  0.1269 -0.1351  0.4770
 3728TIP3    H232600   4.041   6.701   5.393  0.3853 -0.4634 -0.2743
 3729TIP3   OH232601   5.429   0.768   5.647 -0.3131  0.0593  0.1264
 3729TIP3    H132602   5.356   0.716   5.613 -0.3255 -0.6423  1.1873
 3729TIP3    H232603   5.389   0.849   5.677 -0.5941 -0.1482  0.3143
 3730TIP3   OH232604   6.622   3.641  13.459 -0.5348 -0.3815 -0.0263
 3730TIP3    H132605   6.668   3.724  13.451  0.3944 -0.6115  2.1920
 3730TIP3    H232606   6.624   3.621  13.553 -0.6316 -2.9343 -0.4806
 3731TIP3   OH232607   1.569   2.772  11.665  0.1630  0.0045 -0.0237
 3731TIP3    H132608   1.517   2.762  11.745 -1.6186  0.6751 -1.0546
 3731TIP3    H232609   1.615   2.855  11.677 -1.4767  0.9936 -0.4161
 3732TIP3   OH232610   2.133   6.150   0.072 -0.0161  0.2101 -0.3867
 3732TIP3    H132611   2.159   6.058   0.062  0.9566  0.4413 -0.0315
 3732TIP3    H232612   2.155   6.191  -0.011  2.3321  0.7653  0.4589
 3733TIP3   OH232613   2.599   1.751  14.607 -0.1881 -0.1506  0.0520
 3733TIP3    H132614   2.647   1.677  14.645 -1.5124 -1.2873 -0.3941
 3733TIP3    H232615   2.642   1.767  14.523 -0.7875 -1.4325 -0.5330
 3734TIP3   OH232616   2.641   2.074   3.550 -0.2760  0.3299  0.6113
 3734TIP3    H132617   2.640   1.996   3.605  3.3646  0.7520  1.5561
 3734TIP3    H232618   2.565   2.124   3.578 -0.6538 -1.2135  2.5668
 3735TIP3   OH232619   3.655   4.552  16.196  0.0497  0.0001  0.1285
 3735TIP3    H132620   3.575   4.583  16.238  0.4671  1.8848 -0.3692
 3735TIP3    H232621   3.726   4.595  16.244  0.5957  0.9604 -1.4579
 3736TIP3   OH232622   1.158   2.698   5.984 -0.7932  0.1177 -0.1421
 3736TIP3    H132623   1.135   2.607   5.967  1.3462 -0.4505 -0.2442
 3736TIP3    H232624   1.133   2.713   6.075  0.5724 -1.1749  0.4633
 3737TIP3   OH232625   2.629   3.096   3.516  0.0451 -0.2193 -0.1370
 3737TIP3    H132626   2.584   3.177   3.540 -1.2973 -1.1486  0.5866
 3737TIP3    H232627   2.574   3.058   3.447  1.9931  0.6744 -2.3140
 3738TIP3   OH232628   2.955   1.902  15.304  0.0042  0.4358 -0.3785
 3738TIP3    H132629   2.900   1.972  15.340  1.7598  2.8172 -1.9695
 3738TIP3    H232630   3.045   1.931  15.324  0.8163 -1.2245 -1.4164
 3739TIP3   OH232631   5.153   1.338   0.948  0.1876 -0.3174 -0.7681
 3739TIP3    H132632   5.239   1.350   0.907 -0.5492  0.3902 -2.1821
 3739TIP3    H232633   5.156   1.249   0.984  1.1170 -0.7188 -1.7755
 3740TIP3   OH232634   4.833   1.430   5.771  0.0334  0.2735  0.9889
 3740TIP3    H132635   4.844   1.511   5.722  0.0684 -1.0333 -1.2970
 3740TIP3    H232636   4.916   1.418   5.817  0.1369  1.3665  1.1039
 3741TIP3   OH232637   2.617   5.390   0.032 -0.3403  0.2723 -0.5154
 3741TIP3    H132638   2.655   5.466   0.077 -0.0485 -0.6685  0.8973
 3741TIP3    H232639   2.572   5.341   0.101 -2.0007  0.0308 -1.7000
 3742TIP3   OH232640   2.766   0.781  14.954 -0.6209  0.1840 -0.4104
 3742TIP3    H132641   2.818   0.850  14.995  0.5882  0.6680 -2.6285
 3742TIP3    H232642   2.820   0.749  14.882 -1.6089 -2.3730 -0.1045
 3743TIP3   OH232643   4.450   3.495   6.274  0.0988 -0.1610  0.4612
 3743TIP3    H132644   4.538   3.526   6.296 -0.1721  0.3678  0.8281
 3743TIP3    H232645   4.440   3.414   6.323  0.3710 -0.2128  0.4337
 3744TIP3   OH232646   4.396   6.374   0.357 -0.3780 -0.1481  0.3753
 3744TIP3    H132647   4.367   6.464   0.344  0.2829  0.0139 -0.0407
 3744TIP3    H232648   4.364   6.327   0.280 -0.3741 -0.1750  0.3903
 3745TIP3   OH232649   2.471   1.618  14.376 -0.2997  0.0720  0.2463
 3745TIP3    H132650   2.477   1.564  14.455 -0.6612  0.6192  0.6639
 3745TIP3    H232651   2.537   1.583  14.317  2.4088  1.7565  2.0600
 3746TIP3   OH232652   1.263   2.726   0.326  0.3249 -0.3632  0.8321
 3746TIP3    H132653   1.311   2.703   0.247 -1.0852 -2.7069  0.5624
 3746TIP3    H232654   1.174   2.696   0.310 -0.9433  2.4002  1.9297
 3747TIP3   OH232655   5.962   1.140   5.201 -0.0205 -0.4485 -0.8595
 3747TIP3    H132656   5.937   1.059   5.245  3.0526 -0.9950  0.1233
 3747TIP3    H232657   5.956   1.208   5.268  1.1850 -0.6331 -0.5340
 3748TIP3   OH232658   2.211   6.157   1.973 -0.2632 -0.0051  0.0579
 3748TIP3    H132659   2.126   6.114   1.962 -0.5896  0.8304 -0.7840
 3748TIP3    H232660   2.274   6.085   1.976 -1.0318 -0.6474  1.0446
 3749TIP3   OH232661   4.383   5.982  12.480  0.1794 -0.5087 -0.1091
 3749TIP3    H132662   4.415   6.003  12.568  0.3640 -0.4664 -0.1856
 3749TIP3    H232663   4.334   5.901  12.491 -2.0802  0.8653  0.5378
 3750TIP3   OH232664   0.967   2.321   4.409 -1.0170 -0.2356 -0.0183
 3750TIP3    H132665   1.010   2.304   4.493 -0.8647  0.4282  0.0478
 3750TIP3    H232666   0.877   2.343   4.432 -1.1679 -0.7798 -0.0881
 3751TIP3   OH232667   0.359   3.970   0.491  0.0901 -0.0975 -0.1115
 3751TIP3    H132668   0.330   4.021   0.415 -0.6995  1.5500  1.2199
 3751TIP3    H232669   0.298   3.995   0.561  1.4125 -0.7603  1.3368
 3752TIP3   OH232670   0.741   6.279  12.348  0.0892  0.3282 -0.2265
 3752TIP3    H132671   0.709   6.309  12.433  1.7567  1.7701 -0.0423
 3752TIP3    H232672   0.662   6.264  12.296 -0.9270  0.6332  1.1772
 3753TIP3   OH232673   5.634   4.738  14.835  0.3180  0.2710 -0.0783
 3753TIP3    H132674   5.653   4.662  14.781  2.1167  0.7419 -0.1811
 3753TIP3    H232675   5.540   4.733  14.852  0.1695 -1.2420 -1.1592
 3754TIP3   OH232676   5.355   1.037   5.665 -0.3388 -0.2281 -0.0267
 3754TIP3    H132677   5.273   1.071   5.700 -0.7772  0.3974 -1.5764
 3754TIP3    H232678   5.421   1.101   5.692 -0.5983  0.0336 -0.0092
 3755TIP3   OH232679   2.060   1.062   3.407 -0.4756 -0.3379  0.2703
 3755TIP3    H132680   2.000   1.119   3.453 -0.5670 -0.1945 -0.0228
 3755TIP3    H232681   2.145   1.105   3.414 -0.7215  0.3696 -0.8265
 3756TIP3   OH232682   3.057   3.877   2.057 -0.3620 -0.4117  0.7732
 3756TIP3    H132683   3.088   3.799   2.102 -0.8469 -0.8505  0.3489
 3756TIP3    H232684   2.972   3.853   2.021  0.4173 -0.3740 -1.1991
 3757TIP3   OH232685   1.100   1.619  16.654 -0.6346 -0.8540 -0.3582
 3757TIP3    H132686   1.123   1.529  16.678 -0.9181 -0.6780  0.6071
 3757TIP3    H232687   1.174   1.672  16.684 -1.0384 -0.6159  0.2227
 3758TIP3   OH232688   2.543   0.792   6.691  0.9584 -0.1930  0.4492
 3758TIP3    H132689   2.557   0.799   6.597 -2.5598  0.7115 -0.1350
 3758TIP3    H232690   2.631   0.776   6.727  2.2351 -2.1046 -3.0509
 3759TIP3   OH232691   0.535   5.963   0.446  0.1646 -0.0526  0.3022
 3759TIP3    H132692   0.560   5.876   0.475 -0.9319  0.2164  2.2412
 3759TIP3    H232693   0.471   5.947   0.377  0.3658 -0.7776  0.2740
 3760TIP3   OH232694   1.117   5.079   0.678  0.0668 -1.0270  0.2290
 3760TIP3    H132695   1.141   4.989   0.701 -0.7297 -0.7658  2.2194
 3760TIP3    H232696   1.023   5.084   0.695  0.0589  0.1176 -0.1096
 3761TIP3   OH232697   0.296   1.712   0.275  0.3112  0.2481 -0.0360
 3761TIP3    H132698   0.340   1.726   0.358  2.5853 -0.8963 -0.9742
 3761TIP3    H232699   0.356   1.748   0.209 -0.3895 -0.8766 -1.3364
 3762TIP3   OH232700   4.482   2.270  15.200  0.5802 -0.7332 -0.2820
 3762TIP3    H132701   4.485   2.351  15.149  0.2241 -0.4338  0.1667
 3762TIP3    H232702   4.392   2.239  15.193  0.4235 -0.4791  0.4824
 3763TIP3   OH232703   5.970   5.788   4.159  0.3046 -0.1714 -0.0483
 3763TIP3    H132704   5.933   5.814   4.243  1.1229  0.9450 -0.0127
 3763TIP3    H232705   5.993   5.696   4.170  1.4143  0.2456  1.3385
 3764TIP3   OH232706   1.241   0.967  16.803  0.5819  0.1593  0.0545
 3764TIP3    H132707   1.176   0.924  16.859  0.4177 -0.1691 -0.3899
 3764TIP3    H232708   1.193   1.039  16.762  0.9383  0.9943  1.0534
 3765TIP3   OH232709   0.257   5.688  11.428 -0.5842  0.1947  0.3469
 3765TIP3    H132710   0.245   5.717  11.518 -2.6206 -1.1569  0.5878
 3765TIP3    H232711   0.242   5.593  11.431  0.0464  0.0009 -1.3013
 3766TIP3   OH232712   1.279   3.087   3.161  0.1373 -0.0248 -0.0743
 3766TIP3    H132713   1.196   3.121   3.195  0.7050  0.3494  0.9959
 3766TIP3    H232714   1.346   3.132   3.213  1.0299 -0.0247 -1.1851
 3767TIP3   OH232715   3.258   4.887   5.860  0.6555 -0.1124 -0.0259
 3767TIP3    H132716   3.269   4.797   5.892  0.7266 -0.0730  0.0638
 3767TIP3    H232717   3.238   4.938   5.939 -0.5820 -0.2472 -0.2474
 3768TIP3   OH232718   0.630   5.302   0.114  0.0673 -0.7645  0.1543
 3768TIP3    H132719   0.708   5.340   0.155  1.7547 -0.7776 -2.7818
 3768TIP3    H232720   0.567   5.373   0.112  0.3091 -0.4636  1.6850
 3769TIP3   OH232721   1.658   6.421   5.000  0.0456 -0.1262 -0.0609
 3769TIP3    H132722   1.721   6.383   4.939  2.3575  2.1575  0.7524
 3769TIP3    H232723   1.581   6.440   4.946  1.7307  1.1608 -2.1558
 3770TIP3   OH232724   5.753   1.006   4.844 -0.4493  0.1787 -0.1916
 3770TIP3    H132725   5.811   1.025   4.918 -1.1464 -0.8158  0.6541
 3770TIP3    H232726   5.736   0.912   4.851 -4.0457  0.7648  1.0927
 3771TIP3   OH232727   0.624   3.145  14.231  0.1849  0.0327  0.0608
 3771TIP3    H132728   0.535   3.168  14.203  0.5318  3.3726  1.2546
 3771TIP3    H232729   0.676   3.147  14.151 -0.5060 -0.3057 -0.4095
 3772TIP3   OH232730   4.933   2.205  12.491  0.6458 -0.3197 -0.3236
 3772TIP3    H132731   4.916   2.112  12.507  0.6994  0.0213  2.0952
 3772TIP3    H232732   4.998   2.229  12.557 -1.0075  1.9197  0.6123
 3773TIP3   OH232733   2.810   3.808  13.874 -0.3825 -0.0570  0.2212
 3773TIP3    H132734   2.850   3.724  13.893 -0.5975  0.0315  1.1488
 3773TIP3    H232735   2.875   3.854  13.820 -0.0913 -0.6555  0.0530
 3774TIP3   OH232736   5.870   6.056   5.850  0.3618 -0.3890  0.4623
 3774TIP3    H132737   5.802   6.044   5.916  0.9224  1.7525  1.4985
 3774TIP3    H232738   5.952   6.059   5.899  0.9239 -0.0075 -0.4629
 3775TIP3   OH232739   2.778   2.403   5.848  0.7023 -0.5107  0.2699
 3775TIP3    H132740   2.790   2.456   5.769  2.3104  0.0638  0.8592
 3775TIP3    H232741   2.736   2.462   5.910  2.0420 -0.0415  0.7620
 3776TIP3   OH232742   1.160   0.312  15.942  0.1881 -0.0472  0.5522
 3776TIP3    H132743   1.246   0.335  15.976  0.4624  2.5047 -1.5611
 3776TIP3    H232744   1.172   0.305  15.848 -1.6278 -1.1717  0.3515
 3777TIP3   OH232745   0.360   5.940   0.223 -0.4738  0.2831 -0.2766
 3777TIP3    H132746   0.356   5.864   0.166  1.9224  0.3626 -0.6350
 3777TIP3    H232747   0.398   6.009   0.170  0.8669  0.6477  1.0804
 3778TIP3   OH232748   1.633   4.554  15.145  0.1909 -1.1560 -0.2913
 3778TIP3    H132749   1.586   4.472  15.165  0.4443 -1.1417  0.3907
 3778TIP3    H232750   1.658   4.545  15.054 -1.6544 -0.9135 -0.8713
 3779TIP3   OH232751   0.433   5.521   2.950 -0.0856  0.3865 -0.4413
 3779TIP3    H132752   0.419   5.548   2.859 -0.2561  0.1190 -0.4949
 3779TIP3    H232753   0.528   5.522   2.961 -0.0337 -0.1600 -0.8034
 3780TIP3   OH232754   3.310   0.130  13.273 -0.3394 -0.2069  0.0110
 3780TIP3    H132755   3.337   0.125  13.364  0.7773 -0.4357 -0.3198
 3780TIP3    H232756   3.333   0.045  13.236 -1.2382 -0.2944 -0.3699
 3781TIP3   OH232757   4.278   1.751   3.134  0.0274 -0.2993  0.9563
 3781TIP3    H132758   4.312   1.722   3.219 -1.0878 -0.7606  1.2549
 3781TIP3    H232759   4.184   1.738   3.140 -0.3081  1.5285  0.3694
 3782TIP3   OH232760   2.773   0.103  16.471  0.0876 -0.0078  0.1292
 3782TIP3    H132761   2.764   0.020  16.518  3.0257 -1.3180 -1.3335
 3782TIP3    H232762   2.686   0.141  16.473 -1.0093 -2.3316  2.2993
 3783TIP3   OH232763   5.321   3.262   5.041 -0.1519 -0.2501  0.2816
 3783TIP3    H132764   5.347   3.341   4.996  1.1099  0.3714  1.9942
 3783TIP3    H232765   5.401   3.209   5.046 -0.1540 -0.1574  1.9759
 3784TIP3   OH232766   5.752   1.665  16.765 -0.0339 -0.1711 -0.3442
 3784TIP3    H132767   5.734   1.737  16.825  1.3537  0.3663 -0.5315
 3784TIP3    H232768   5.729   1.700  16.679 -2.5310 -1.1166 -0.1639
 3785TIP3   OH232769   5.650   4.105  15.255  0.4541  0.4074  0.0921
 3785TIP3    H132770   5.602   4.184  15.280  0.9465  0.8407 -0.2916
 3785TIP3    H232771   5.725   4.103  15.315  0.0459 -0.1829  0.5913
 3786TIP3   OH232772   3.466   3.928   2.149  0.1355 -0.3532  0.2004
 3786TIP3    H132773   3.398   3.968   2.094 -1.2174 -0.8265  1.4677
 3786TIP3    H232774   3.442   3.835   2.151  1.9353 -0.8942 -0.8550
 3787TIP3   OH232775   1.590   3.859  15.506  0.2169  0.0371 -0.0797
 3787TIP3    H132776   1.502   3.851  15.543 -0.0138 -2.8462 -0.9970
 3787TIP3    H232777   1.584   3.933  15.446 -0.6419  1.8798  2.1243
 3788TIP3   OH232778   5.831   2.275   3.186 -0.6708 -0.3074  0.4927
 3788TIP3    H132779   5.888   2.282   3.109 -0.0069 -0.8645  0.9183
 3788TIP3    H232780   5.759   2.219   3.156 -0.1155 -1.0058  0.4393
 3789TIP3   OH232781   5.807   6.294  16.738 -0.0059 -0.1808  0.4588
 3789TIP3    H132782   5.871   6.277  16.806  0.6708 -1.1907 -0.3995
 3789TIP3    H232783   5.727   6.250  16.767 -0.0489  0.3242  1.1092
 3790TIP3   OH232784   0.242   3.058  12.804  0.3970  0.1774 -0.5178
 3790TIP3    H132785   0.192   3.138  12.821 -1.4587 -0.8544 -0.8285
 3790TIP3    H232786   0.314   3.060  12.867 -0.3295  1.4810  0.3099
 3791TIP3   OH232787   1.152   3.131   0.074 -0.3464  0.1959  1.0985
 3791TIP3    H132788   1.196   3.208   0.109 -0.6844 -0.5128  3.1909
 3791TIP3    H232789   1.065   3.162   0.048  0.0589  0.8162  0.4536
 3792TIP3   OH232790   2.401   0.775   2.968  0.2367  0.4359  0.3336
 3792TIP3    H132791   2.332   0.837   2.947 -2.8172 -2.3962  1.0766
 3792TIP3    H232792   2.434   0.745   2.883 -0.9579  0.3440 -0.1137
 3793TIP3   OH232793   5.260   0.622   3.387  0.9110  0.0345  0.0125
 3793TIP3    H132794   5.356   0.618   3.380  0.8662  0.9406 -1.4398
 3793TIP3    H232795   5.231   0.534   3.363  1.4040 -0.8041  2.1875
 3794TIP3   OH232796   2.902   3.258  12.765  0.4246  0.0403  0.0261
 3794TIP3    H132797   2.928   3.195  12.832  1.5963 -0.3260 -0.7482
 3794TIP3    H232798   2.925   3.344  12.803  2.8097 -0.2513 -0.5810
 3795TIP3   OH232799   0.731   4.816  13.186  0.0154 -0.3685 -0.4500
 3795TIP3    H132800   0.649   4.824  13.137 -0.1790  1.1495  0.0532
 3795TIP3    H232801   0.789   4.880  13.145 -0.4695  1.6799  1.8404
 3796TIP3   OH232802   1.483   2.464  15.847  0.9546  0.4438 -0.0851
 3796TIP3    H132803   1.515   2.375  15.829  2.9178  1.5567 -2.7146
 3796TIP3    H232804   1.445   2.493  15.765 -0.8569  1.6582  1.0973
 3797TIP3   OH232805   2.622   5.260  15.410 -0.3343 -0.2034 -0.9556
 3797TIP3    H132806   2.559   5.189  15.410  1.2045 -1.6381 -1.0069
 3797TIP3    H232807   2.704   5.219  15.382  0.3665  1.8226 -2.1163
 3798TIP3   OH232808   2.037   6.198   3.943 -0.0095 -0.8211  0.0111
 3798TIP3    H132809   2.044   6.261   4.015  0.4484 -0.3438 -0.4452
 3798TIP3    H232810   2.125   6.163   3.933 -0.2178 -1.3795  0.1197
 3799TIP3   OH232811   4.156   4.723  14.515 -0.4650 -0.8047  0.2505
 3799TIP3    H132812   4.062   4.711  14.532 -0.4373 -0.1924  0.8592
 3799TIP3    H232813   4.189   4.766  14.594  0.2679 -0.7215 -0.0994
 3800TIP3   OH232814   4.917   5.273  16.475 -0.0237 -0.2084 -0.5326
 3800TIP3    H132815   4.963   5.201  16.432 -1.6439 -1.8990  0.4246
 3800TIP3    H232816   4.941   5.265  16.567 -3.3498 -2.2554  0.3422
 3801TIP3   OH232817   5.391   0.024  12.044 -0.5205 -0.0426 -0.1926
 3801TIP3    H132818   5.339   0.073  11.980  0.7878 -0.3310 -1.5450
 3801TIP3    H232819   5.331   0.007  12.116 -3.4083 -3.1901 -2.9542
 3802TIP3   OH232820   2.050   3.009  14.140  0.7281 -0.0486 -0.2848
 3802TIP3    H132821   2.033   2.924  14.180  1.1139 -0.1905 -0.4240
 3802TIP3    H232822   2.034   2.995  14.046  1.2067 -0.0791 -0.3647
 3803TIP3   OH232823   2.561   6.718  12.562  0.3688 -0.1453 -0.6869
 3803TIP3    H132824   2.654   6.694  12.559  0.9777  2.0155 -0.7602
 3803TIP3    H232825   2.557   6.787  12.628 -1.3143 -0.6502 -0.2335
 3804TIP3   OH232826   0.055   5.949  17.050  0.1146  0.4859 -0.8973
 3804TIP3    H132827   0.012   5.953  17.136  0.6104 -0.8107 -0.5750
 3804TIP3    H232828  -0.013   5.916  16.991  0.1182  0.2286 -0.7591
 3805TIP3   OH232829   5.763   6.312   4.478 -0.4787 -0.3712 -0.4956
 3805TIP3    H132830   5.788   6.296   4.569 -0.6532 -0.2771 -0.4322
 3805TIP3    H232831   5.808   6.394   4.455  0.1636 -0.7810 -0.7256
 3806TIP3   OH232832   3.647   5.142  12.250 -0.5610 -0.0631  0.1870
 3806TIP3    H132833   3.718   5.205  12.239 -2.3038  1.6780 -1.8058
 3806TIP3    H232834   3.676   5.065  12.201 -0.6923  1.2602 -2.1132
 3807TIP3   OH232835   6.579   2.777  14.181 -0.0738  0.3211 -0.3148
 3807TIP3    H132836   6.545   2.689  14.169  0.6455  0.0780 -0.6492
 3807TIP3    H232837   6.673   2.769  14.166  0.2051  0.8972  1.0174
 3808TIP3   OH232838   4.424   1.588   2.898  0.1191 -0.0438 -0.3650
 3808TIP3    H132839   4.395   1.546   2.979 -0.3676 -1.5274 -1.2596
 3808TIP3    H232840   4.372   1.668   2.893 -1.7962 -1.2067 -0.4655
 3809TIP3   OH232841   5.087   1.091   0.490  0.9331 -0.0721 -0.2213
 3809TIP3    H132842   5.022   1.115   0.556  1.5257  1.4754 -0.1766
 3809TIP3    H232843   5.043   1.102   0.406  0.9182  0.3098 -0.1642
 3810TIP3   OH232844   5.947   5.948   5.152  0.2373 -0.3023 -0.5791
 3810TIP3    H132845   5.895   5.999   5.214 -0.4766 -0.7430 -0.7966
 3810TIP3    H232846   6.038   5.972   5.170  0.0556 -0.4761  0.6878
 3811TIP3   OH232847   1.826   5.351  14.990  0.0879  0.3561  0.5253
 3811TIP3    H132848   1.866   5.402  14.920 -0.2271  1.1938  0.9435
 3811TIP3    H232849   1.803   5.267  14.949  2.8015 -0.4188  0.4095
 3812TIP3   OH232850   5.004   0.147   4.890  0.5279  0.3961 -0.3775
 3812TIP3    H132851   4.966   0.211   4.829  0.1626  0.6995  0.1592
 3812TIP3    H232852   5.044   0.081   4.834 -0.5680  0.2091 -0.9643
 3813TIP3   OH232853   6.553   0.236  12.096 -0.0829 -0.4300  0.2054
 3813TIP3    H132854   6.635   0.285  12.099 -0.7019  0.7133 -0.6955
 3813TIP3    H232855   6.555   0.182  12.175  1.1298  0.2337  0.6663
 3814TIP3   OH232856   4.752   3.994  12.116 -0.2758 -0.3498 -0.0803
 3814TIP3    H132857   4.787   4.070  12.069 -0.8887  0.5092  0.8121
 3814TIP3    H232858   4.829   3.949  12.150  0.0424  0.8627  0.8672
 3815TIP3   OH232859   6.668   6.761   6.261 -0.1978  0.0397  0.1453
 3815TIP3    H132860   6.625   6.732   6.181  2.1571  0.5028 -1.4102
 3815TIP3    H232861   6.603   6.749   6.329 -1.8517 -1.7227 -1.5995
 3816TIP3   OH232862   2.787   6.211   0.202 -0.3237 -0.4029  0.4112
 3816TIP3    H132863   2.840   6.251   0.271  0.6892 -2.4561  0.9057
 3816TIP3    H232864   2.851   6.176   0.140 -1.0967 -1.7388  0.3165
 3817TIP3   OH232865   4.535   3.410  14.535 -0.0208  0.0192  0.1834
 3817TIP3    H132866   4.495   3.345  14.593  1.1828  0.7255  1.8948
 3817TIP3    H232867   4.629   3.390  14.536  0.0736  0.2750 -1.2589
 3818TIP3   OH232868   5.012   3.592  13.774  0.0012 -0.0355 -0.0696
 3818TIP3    H132869   5.059   3.673  13.756  1.1614 -0.6838 -0.1127
 3818TIP3    H232870   4.933   3.597  13.720 -0.5637  1.5789  0.8556
 3819TIP3   OH232871   1.085   2.521  12.946  0.0433 -0.3648 -0.5315
 3819TIP3    H132872   1.019   2.460  12.914 -0.3251  0.2150 -0.8973
 3819TIP3    H232873   1.121   2.561  12.867  0.1759  0.0005 -0.2881
 3820TIP3   OH232874   3.075   5.195   0.149  0.4857 -0.1506  0.0787
 3820TIP3    H132875   3.006   5.147   0.196 -0.5560  2.4939  1.4387
 3820TIP3    H232876   3.061   5.286   0.173  3.0825  0.7492 -1.4771
 3821TIP3   OH232877   3.848   6.647  14.960  0.8942  0.7171 -0.2416
 3821TIP3    H132878   3.890   6.699  14.892 -0.6915  0.8223 -1.2073
 3821TIP3    H232879   3.869   6.692  15.041 -1.9027  4.1268 -1.1248
 3822TIP3   OH232880   4.845   4.444  16.649  0.1816  0.4445  0.0044
 3822TIP3    H132881   4.795   4.494  16.584  1.5813  1.1443 -0.5716
 3822TIP3    H232882   4.778   4.398  16.699 -1.0758  1.6533 -0.4736
 3823TIP3   OH232883   5.986   4.069   5.389  0.1293 -0.1377  0.0850
 3823TIP3    H132884   5.903   4.054   5.434  0.0525 -0.4559 -0.1657
 3823TIP3    H232885   5.964   4.123   5.314  0.5141  1.9527  1.4101
 3824TIP3   OH232886   3.789   4.643   2.026  0.4322 -0.3661 -0.2148
 3824TIP3    H132887   3.700   4.610   2.009  1.3537 -2.0756 -2.1000
 3824TIP3    H232888   3.776   4.735   2.048 -1.7930 -0.5336 -0.5529
 3825TIP3   OH232889   5.993   1.081  14.319  0.1127 -0.0672  0.0350
 3825TIP3    H132890   5.899   1.097  14.326  0.1473 -0.0739  0.5582
 3825TIP3    H232891   6.033   1.150  14.373  0.4806  0.7667 -1.2614
 3826TIP3   OH232892   3.346   4.516  14.578 -0.0975  0.1960 -0.5607
 3826TIP3    H132893   3.313   4.594  14.535  2.5382  1.5509 -0.3429
 3826TIP3    H232894   3.401   4.474  14.512  0.9402  0.2296  0.2466
 3827TIP3   OH232895   0.931   0.199  17.187 -0.1138  0.1100 -0.6463
 3827TIP3    H132896   0.956   0.268  17.126 -0.5535  0.5791 -0.2989
 3827TIP3    H232897   0.861   0.151  17.142 -1.4396  1.3351  0.0560
 3828TIP3   OH232898   5.259   6.736  16.472 -0.6387  0.2839  0.8539
 3828TIP3    H132899   5.294   6.690  16.549 -1.3711 -1.9068 -0.0344
 3828TIP3    H232900   5.320   6.715  16.402 -0.7699  1.0611  0.4989
 3829TIP3   OH232901   2.633   1.508  14.134  0.2048  0.2523  0.2168
 3829TIP3    H132902   2.722   1.494  14.166 -0.1779  0.4936  1.4601
 3829TIP3    H232903   2.637   1.488  14.040  1.3361 -0.7331  0.4484
 3830TIP3   OH232904   1.864   0.935  16.599  0.4747  0.2028  0.6109
 3830TIP3    H132905   1.881   0.841  16.606  1.5137  0.3852  0.7471
 3830TIP3    H232906   1.933   0.968  16.541 -0.3560  0.7589 -0.0892
 3831TIP3   OH232907   6.480   1.074   2.948 -0.6737  0.4177 -0.7436
 3831TIP3    H132908   6.400   1.071   2.895 -0.4120 -0.7209 -1.0973
 3831TIP3    H232909   6.478   0.993   2.998 -0.6024  1.1940  0.5608
 3832TIP3   OH232910   5.921   2.474  14.372 -0.4137  0.1868  0.1123
 3832TIP3    H132911   5.832   2.481  14.338  0.3633  0.8468 -1.9666
 3832TIP3    H232912   5.949   2.385  14.347 -1.9813 -2.0098  4.9813
 3833TIP3   OH232913   4.947   1.069   0.738 -0.1329  0.2498 -0.3429
 3833TIP3    H132914   4.925   1.056   0.831  0.0232  0.1659 -0.3172
 3833TIP3    H232915   4.872   1.117   0.702  0.4411  1.5385  0.1499
 3834TIP3   OH232916   4.324   3.261  16.764  0.5066  0.3244  0.5126
 3834TIP3    H132917   4.312   3.288  16.673  0.2772 -0.1234  0.4066
 3834TIP3    H232918   4.373   3.179  16.759 -1.1817 -0.7434  0.6778
 3835TIP3   OH232919   6.706   2.356   4.888 -0.1644 -0.6138 -0.2544
 3835TIP3    H132920   6.724   2.327   4.977 -1.2192 -0.3616  0.0581
 3835TIP3    H232921   6.773   2.421   4.869  1.0213 -1.7876 -0.2331
 3836TIP3   OH232922   5.827   6.240   2.253 -0.5087 -0.3242 -0.2551
 3836TIP3    H132923   5.874   6.254   2.335  0.9867 -0.9810 -0.9611
 3836TIP3    H232924   5.824   6.327   2.212 -0.9725 -0.0585  0.3144
 3837TIP3   OH232925   0.879   4.257  15.681 -0.1113 -0.1973 -0.2226
 3837TIP3    H132926   0.879   4.352  15.694 -0.5714 -0.3119  0.6662
 3837TIP3    H232927   0.800   4.226  15.725  0.2672 -1.0424 -0.1133
 3838TIP3   OH232928   3.538   0.105   4.989 -0.0858  0.1464 -0.2564
 3838TIP3    H132929   3.532   0.061   4.904  0.4444  1.1359 -0.8287
 3838TIP3    H232930   3.564   0.195   4.968 -0.5075  0.5693  0.9182
 3839TIP3   OH232931   4.068   2.383   6.298 -0.1411  0.6193  0.4430
 3839TIP3    H132932   3.980   2.360   6.267  0.3458  1.0957 -1.4475
 3839TIP3    H232933   4.055   2.412   6.388 -1.7453 -0.4238  0.5954
 3840TIP3   OH232934   5.369   2.392   3.658 -0.3770  0.7381  0.5205
 3840TIP3    H132935   5.441   2.455   3.659  1.1131 -0.7800 -1.6371
 3840TIP3    H232936   5.373   2.349   3.743  0.4051  1.5956  0.9357
 3841TIP3   OH232937   6.073   4.733   5.440 -0.1581 -0.8419  0.1879
 3841TIP3    H132938   6.093   4.825   5.422  0.6450 -0.7833  1.3040
 3841TIP3    H232939   6.150   4.686   5.408 -0.7310 -1.1796 -0.7336
 3842TIP3   OH232940   6.240   0.599  16.227  0.4416  0.1829  0.2479
 3842TIP3    H132941   6.210   0.689  16.218  0.5181  0.6394  3.4117
 3842TIP3    H232942   6.160   0.546  16.221  0.4328  0.3362 -1.9271
 3843TIP3   OH232943   3.107   4.123  17.140  0.6590  0.0441 -0.0157
 3843TIP3    H132944   3.199   4.118  17.169  0.3507 -1.6780  0.7951
 3843TIP3    H232945   3.090   4.039  17.097  0.5068  1.7713 -3.7040
 3844TIP3   OH232946   3.038   5.918  11.366 -0.2396 -0.2180 -0.0387
 3844TIP3    H132947   2.971   5.901  11.300 -0.6701  0.1108  0.3018
 3844TIP3    H232948   2.988   5.936  11.446  0.2818 -1.2983  0.5499
 3845TIP3   OH232949   6.082   0.297  12.276 -0.4374 -0.3184 -0.4007
 3845TIP3    H132950   6.057   0.308  12.184  0.7469  0.3811 -0.6518
 3845TIP3    H232951   6.067   0.204  12.294  0.3413 -0.7022 -1.6251
 3846TIP3   OH232952   5.195   5.584  10.941 -0.0552 -0.5871  0.1630
 3846TIP3    H132953   5.119   5.639  10.954 -0.4579 -1.1120  0.0644
 3846TIP3    H232954   5.185   5.548  10.853  0.5526 -0.2896 -0.0357
 3847TIP3   OH232955   2.505   4.278  13.106 -0.1983  0.5328 -0.3763
 3847TIP3    H132956   2.566   4.233  13.165 -0.7330  0.2426 -0.0418
 3847TIP3    H232957   2.541   4.366  13.098  1.5080 -0.2117 -1.9385
 3848TIP3   OH232958   1.057   6.110   3.611  0.7976  0.2655 -0.5407
 3848TIP3    H132959   1.125   6.121   3.676 -0.2056 -1.1597  0.8178
 3848TIP3    H232960   1.067   6.020   3.580  0.8093  0.6959 -1.8444
 3849TIP3   OH232961   6.284   3.936   2.593  0.2723  0.0397 -1.1423
 3849TIP3    H132962   6.363   3.924   2.646 -1.8525 -1.9180  1.9351
 3849TIP3    H232963   6.253   4.024   2.614  0.2924 -0.1411 -0.3357
 3850TIP3   OH232964   6.662   2.389  16.702 -0.4213  0.0135 -0.2054
 3850TIP3    H132965   6.722   2.315  16.691  0.8340  0.9647 -0.0066
 3850TIP3    H232966   6.719   2.463  16.725 -1.4785  1.3713 -1.7323
 3851TIP3   OH232967   4.133   0.224   5.409 -0.2318  0.1430 -0.1389
 3851TIP3    H132968   4.139   0.255   5.499  1.6187 -1.0432  0.1886
 3851TIP3    H232969   4.215   0.252   5.368  0.6862 -2.5760 -0.3368
 3852TIP3   OH232970   0.274   5.130   4.939 -0.1763 -0.4364 -0.0986
 3852TIP3    H132971   0.338   5.117   5.008  0.0086  0.5724 -0.0721
 3852TIP3    H232972   0.202   5.179   4.980  0.7939  1.9308 -1.0248
 3853TIP3   OH232973   6.298   1.101  14.285 -0.5319 -0.1948 -0.5473
 3853TIP3    H132974   6.222   1.141  14.327  1.5397  1.6439  1.7520
 3853TIP3    H232975   6.294   1.009  14.309 -1.0654  0.2394  1.1315
 3854TIP3   OH232976   2.577   3.092   4.968 -1.0784 -0.4796  0.2913
 3854TIP3    H132977   2.658   3.127   5.003  0.8179 -3.0911 -1.0998
 3854TIP3    H232978   2.552   3.022   5.029 -1.9850 -0.0859  0.3916
 3855TIP3   OH232979   4.592   6.061   0.427  0.5369  0.3663 -0.0340
 3855TIP3    H132980   4.599   6.083   0.335  1.8632 -0.8943 -0.2783
 3855TIP3    H232981   4.586   5.965   0.428  1.1227  0.3252  1.2028
 3856TIP3   OH232982   5.069   5.655   4.152 -0.1570 -0.2013  0.2477
 3856TIP3    H132983   5.155   5.688   4.176 -0.6534  1.0344  0.4139
 3856TIP3    H232984   5.083   5.602   4.073  0.9305 -1.1199  1.0296
 3857TIP3   OH232985   3.607   4.998  13.710 -0.2372 -0.6937  0.4710
 3857TIP3    H132986   3.602   4.993  13.615 -0.3936 -0.9351  0.4919
 3857TIP3    H232987   3.670   4.931  13.735  0.7783  0.2247  0.4462
 3858TIP3   OH232988   4.286   5.362  12.877 -0.1935  0.2694 -0.3300
 3858TIP3    H132989   4.288   5.344  12.783 -0.2513  0.5690 -0.3903
 3858TIP3    H232990   4.375   5.393  12.897 -1.2023  4.2620 -1.1185
 3859TIP3   OH232991   2.030   3.195  15.647  0.5937 -0.5597  0.1306
 3859TIP3    H132992   1.989   3.129  15.591  0.1607  0.2595 -0.5422
 3859TIP3    H232993   2.029   3.156  15.735 -0.6465 -1.0133 -0.0580
 3860TIP3   OH232994   3.650   5.573  14.415 -0.7738 -0.2017 -0.1709
 3860TIP3    H132995   3.688   5.487  14.426  0.0951  0.2604  0.5985
 3860TIP3    H232996   3.608   5.592  14.499  1.4465  1.2320  0.7302
 3861TIP3   OH232997   5.325   0.347  12.092  0.5549 -0.1157 -0.0790
 3861TIP3    H132998   5.375   0.318  12.016  1.4170  0.6002  0.2043
 3861TIP3    H232999   5.281   0.427  12.063  3.3897  1.9962  1.0428
 3862TIP3   OH233000   4.934   0.252   0.087 -0.1620  0.7594 -0.5585
 3862TIP3    H133001   4.948   0.313   0.015 -0.8041 -1.0423 -2.3161
 3862TIP3    H233002   5.020   0.214   0.103  0.4820  2.7967  1.3001
 3863TIP3   OH233003   1.651   4.489  12.094 -0.2162 -0.2456 -0.2666
 3863TIP3    H133004   1.661   4.472  12.187  0.4120  1.8938  0.1052
 3863TIP3    H233005   1.737   4.466  12.057  0.6910  1.9960  0.2622
 3864TIP3   OH233006   1.888   6.017  13.389 -0.2107 -0.3095 -0.0655
 3864TIP3    H133007   1.837   5.951  13.437  1.2492 -1.7453 -0.3970
 3864TIP3    H233008   1.871   5.998  13.297 -1.2919  1.0474 -0.1745
 3865TIP3   OH233009   5.668   1.515   4.713 -0.1923  0.0992 -0.4055
 3865TIP3    H133010   5.629   1.506   4.800 -0.6514 -0.7409 -0.6903
 3865TIP3    H233011   5.595   1.538   4.656 -0.0497 -0.2166 -0.7192
 3866TIP3   OH233012   2.498   5.116  12.297 -0.4014  0.6020 -0.1922
 3866TIP3    H133013   2.482   5.028  12.333  1.0648  0.8106  1.0933
 3866TIP3    H233014   2.428   5.129  12.233 -0.5335 -1.5792 -0.5652
 3867TIP3   OH233015   1.617   2.087  16.606  0.2070  0.1050 -0.7537
 3867TIP3    H133016   1.679   2.018  16.583  0.7258  0.5672 -0.7729
 3867TIP3    H233017   1.654   2.127  16.685 -1.0263 -0.8081  0.3391
 3868TIP3   OH233018   4.603   0.200  11.469 -0.0493  0.1122 -0.6079
 3868TIP3    H133019   4.510   0.189  11.445  0.0928 -0.9820 -0.7237
 3868TIP3    H233020   4.644   0.231  11.389 -0.4581  1.5083 -0.3051
 3869TIP3   OH233021   6.369   4.771   4.550 -0.6302  0.2749 -0.4264
 3869TIP3    H133022   6.380   4.684   4.513 -0.7283  0.5178 -1.0369
 3869TIP3    H233023   6.337   4.755   4.639 -1.5381 -0.2953 -0.8410
 3870TIP3   OH233024   0.731   2.838  15.147  0.6343 -0.5598 -0.0294
 3870TIP3    H133025   0.825   2.859  15.153  0.0879  1.7705  2.2952
 3870TIP3    H233026   0.721   2.757  15.197  1.4181 -1.0345 -0.6090
 3871TIP3   OH233027   5.643   3.034  17.163  0.0228  0.2514 -0.3925
 3871TIP3    H133028   5.719   2.995  17.121 -0.6028  1.5747 -2.9901
 3871TIP3    H233029   5.616   2.971  17.230  3.3804 -0.2223  0.6663
 3872TIP3   OH233030   5.700   6.563  12.982  0.3085  0.2019  0.0210
 3872TIP3    H133031   5.700   6.628  12.911  0.1291 -1.2331 -1.3640
 3872TIP3    H233032   5.779   6.510  12.966  0.1962 -0.2257  0.8198
 3873TIP3   OH233033   4.509   4.241  13.073 -0.1602  0.4493 -0.1257
 3873TIP3    H133034   4.492   4.191  12.993 -2.5796  2.3763 -0.9826
 3873TIP3    H233035   4.454   4.199  13.139 -0.7000  0.7920 -0.3489
 3874TIP3   OH233036   0.768   2.493   1.207 -0.6428  0.8097 -0.0802
 3874TIP3    H133037   0.783   2.404   1.240  0.6146  1.5601  1.4975
 3874TIP3    H233038   0.789   2.488   1.114 -1.7013 -0.7763 -0.2811
 3875TIP3   OH233039   1.983   0.118  12.040 -0.6025 -0.1286  0.1773
 3875TIP3    H133040   1.975   0.084  11.951 -1.6842  0.9777 -0.1713
 3875TIP3    H233041   2.074   0.101  12.064  0.0241  0.5648 -1.5621
 3876TIP3   OH233042   6.153   0.088  16.191 -0.3231 -0.4788  0.3038
 3876TIP3    H133043   6.127   0.114  16.279  0.7851 -0.7612  0.7360
 3876TIP3    H233044   6.235   0.039  16.203  0.9422  1.1533 -1.0098
 3877TIP3   OH233045   5.367   3.641  12.916  0.6861  0.0587  0.0049
 3877TIP3    H133046   5.445   3.662  12.866 -0.6235  0.1025 -2.1268
 3877TIP3    H233047   5.365   3.545  12.919 -0.3391 -0.0363 -2.0012
 3878TIP3   OH233048   6.633   5.455  17.099  0.3355 -0.0236  0.0926
 3878TIP3    H133049   6.722   5.477  17.070  0.2743 -0.8864 -0.7929
 3878TIP3    H233050   6.641   5.368  17.138 -0.2505 -0.4364 -0.6896
 3879TIP3   OH233051   0.501   4.448  12.159 -0.8861 -0.3761  0.1663
 3879TIP3    H133052   0.488   4.378  12.224 -2.8640 -1.8399 -1.6498
 3879TIP3    H233053   0.413   4.472  12.132 -0.1729  1.6637 -0.5199
 3880TIP3   OH233054   2.485   3.684  12.889 -0.2393  0.1619  0.8252
 3880TIP3    H133055   2.419   3.677  12.958  0.1080 -0.1698  1.1287
 3880TIP3    H233056   2.568   3.664  12.933  0.0017  0.0800  0.3399
 3881TIP3   OH233057   6.682   6.263  17.063 -0.2430  0.1434  0.0284
 3881TIP3    H133058   6.677   6.237  17.154 -1.5100 -1.7467 -0.5192
 3881TIP3    H233059   6.747   6.205  17.024 -1.0763 -0.3845 -0.6342
 3882TIP3   OH233060   0.279   3.755   5.950 -0.5289  0.6219 -0.2456
 3882TIP3    H133061   0.291   3.836   6.001 -1.8949  0.0240  1.1403
 3882TIP3    H233062   0.357   3.703   5.968 -0.2693  1.0806 -0.0365
 3883TIP3   OH233063   5.257   6.269   0.060  0.3852 -0.2351 -0.0345
 3883TIP3    H133064   5.212   6.185   0.055 -0.7282  0.3390  0.0737
 3883TIP3    H233065   5.188   6.334   0.050  1.3372  0.6726 -0.9233
 3884TIP3   OH233066   2.934   1.578  10.591 -0.3797  0.7413 -0.0305
 3884TIP3    H133067   2.938   1.632  10.512 -3.4218  0.9694 -0.1265
 3884TIP3    H233068   2.944   1.640  10.663 -0.9773  1.0452 -0.1999
 3885TIP3   OH233069   5.645   1.999  14.251 -0.0029  0.2222  0.6841
 3885TIP3    H133070   5.720   2.019  14.196 -1.0126  1.2289 -0.3950
 3885TIP3    H233071   5.679   2.003  14.341  0.8054  2.8469  0.3520
 3886TIP3   OH233072   0.276   4.094  13.539  0.3360 -0.5042 -0.0650
 3886TIP3    H133073   0.371   4.080  13.537  0.8561  2.4211 -0.7921
 3886TIP3    H233074   0.249   4.087  13.447  0.7020  2.8514 -0.5522
 3887TIP3   OH233075   5.420   3.166   3.719 -0.5770  0.3060  0.0865
 3887TIP3    H133076   5.331   3.199   3.717 -0.3510  0.9559  0.7056
 3887TIP3    H233077   5.439   3.150   3.811 -0.4147 -0.8515 -0.1219
 3888TIP3   OH233078   3.180   2.667  13.444 -0.2263 -0.2045  0.1567
 3888TIP3    H133079   3.148   2.755  13.465 -0.4128 -0.0413 -0.7774
 3888TIP3    H233080   3.249   2.681  13.379 -2.0902 -0.8479 -2.1290
 3889TIP3   OH233081   6.594   3.032   3.225 -0.5439 -0.1892 -0.1147
 3889TIP3    H133082   6.688   3.030   3.244 -0.4340 -2.3590 -0.6310
 3889TIP3    H233083   6.553   3.022   3.311 -0.2000 -2.3935 -0.1565
 3890TIP3   OH233084   6.575   1.972  11.986 -0.1655  0.7247  0.2348
 3890TIP3    H133085   6.530   2.044  11.942  0.5216  1.3075  0.4638
 3890TIP3    H233086   6.619   2.013  12.060  0.7555  0.1742  0.0082
 3891TIP3   OH233087   4.351   4.655   2.328  0.3177 -0.2323  0.0206
 3891TIP3    H133088   4.404   4.592   2.376  1.4079 -0.2593 -1.1627
 3891TIP3    H233089   4.415   4.708   2.279 -0.7588 -1.6125 -3.0938
 3892TIP3   OH233090   5.247   4.789   1.398  0.3082 -0.3399 -0.4291
 3892TIP3    H133091   5.190   4.713   1.383 -0.3066  0.1033 -0.3624
 3892TIP3    H233092   5.189   4.856   1.434  1.0215 -0.1156  0.3190
 3893TIP3   OH233093   1.992   0.182   3.499  0.1660  0.2904 -0.0366
 3893TIP3    H133094   2.000   0.110   3.435 -0.4739  0.5509 -0.4217
 3893TIP3    H233095   1.907   0.167   3.541  0.4034  0.3561  0.4735
 3894TIP3   OH233096   3.821   5.803  13.331 -0.3885  0.1027  0.1233
 3894TIP3    H133097   3.820   5.734  13.397 -1.9831 -0.7344 -0.7102
 3894TIP3    H233098   3.774   5.876  13.372  1.5796  0.8867  1.1275
 3895TIP3   OH233099   1.032   4.144  12.982 -0.1143  0.7687  0.4076
 3895TIP3    H133100   0.939   4.166  12.973 -0.1476  0.9125  1.0202
 3895TIP3    H233101   1.078   4.227  12.976 -0.0738  0.7681  0.6923
 3896TIP3   OH233102   4.494   1.789   5.562 -0.5034 -0.2721  0.3837
 3896TIP3    H133103   4.488   1.884   5.573  0.6469  0.0984 -1.5217
 3896TIP3    H233104   4.411   1.764   5.522  0.1766  0.4307 -1.6039
 3897TIP3   OH233105   0.711   1.589   3.882  0.1464  0.1968  0.6599
 3897TIP3    H133106   0.767   1.553   3.950  0.5127  0.1736  0.3518
 3897TIP3    H233107   0.756   1.567   3.800  0.1421  0.9443  0.4484
 3898TIP3   OH233108   3.281   3.243  14.294  0.4801 -0.1402  0.3552
 3898TIP3    H133109   3.358   3.242  14.237 -0.2999  0.1090 -0.7512
 3898TIP3    H233110   3.291   3.166  14.350  2.1334  0.5638  1.0951
 3899TIP3   OH233111   3.519   3.733  14.396  0.1870 -0.1006  0.5971
 3899TIP3    H133112   3.430   3.699  14.392  0.3393 -0.4671  0.1972
 3899TIP3    H233113   3.520   3.790  14.473  0.0330 -1.3341  1.5510
 3900TIP3   OH233114   2.304   3.610   3.174  0.1243 -0.4409  0.4963
 3900TIP3    H133115   2.268   3.540   3.119 -0.8536  1.7579 -1.8851
 3900TIP3    H233116   2.378   3.644   3.124 -0.9939  1.8582  0.2704
 3901TIP3   OH233117   5.954   2.806  16.712 -0.4173 -0.0539 -0.0890
 3901TIP3    H133118   5.976   2.899  16.718 -1.1501  0.0438  1.3385
 3901TIP3    H233119   5.944   2.790  16.618 -0.6010  1.3778 -0.3313
 3902TIP3   OH233120   4.566   0.235  16.996  0.2661 -0.3636 -0.3286
 3902TIP3    H133121   4.571   0.257  17.089 -1.4470  0.6363 -0.4234
 3902TIP3    H233122   4.614   0.306  16.952  0.3135 -0.3505 -0.2553
 3903TIP3   OH233123   2.422   2.645   0.241 -0.3571  0.2210 -0.3756
 3903TIP3    H133124   2.428   2.728   0.289  1.8334 -0.5816  0.8923
 3903TIP3    H233125   2.413   2.579   0.309 -1.9669 -0.6248 -1.3680
 3904TIP3   OH233126   1.115   0.835  13.400  0.7316 -0.1587 -0.1869
 3904TIP3    H133127   1.150   0.921  13.422  2.0987 -0.7644  0.0593
 3904TIP3    H233128   1.147   0.818  13.311 -2.6811  1.1829 -1.8599
 3905TIP3   OH233129   4.616   5.582   3.829  0.4189  0.2753  0.5179
 3905TIP3    H133130   4.545   5.645   3.842  0.6062  0.8358 -0.9346
 3905TIP3    H233131   4.619   5.531   3.910 -2.6255 -0.7826  0.0845
 3906TIP3   OH233132   3.380   6.092  15.418 -0.1334 -0.1229  0.0934
 3906TIP3    H133133   3.415   6.037  15.489 -0.1493  0.7666  0.8178
 3906TIP3    H233134   3.458   6.121  15.370 -0.0869 -0.4128 -0.0034
 3907TIP3   OH233135   4.504   3.139  12.536 -0.1215  0.3921  0.2000
 3907TIP3    H133136   4.555   3.146  12.617 -0.5355  0.6355  0.4426
 3907TIP3    H233137   4.416   3.112  12.565  0.1551 -1.1870 -0.3023
 3908TIP3   OH233138   4.064   4.242  13.989 -0.2207  0.3859  0.0686
 3908TIP3    H133139   4.065   4.323  14.040  0.5731 -1.1119  2.6147
 3908TIP3    H233140   4.157   4.224  13.970 -0.3496 -0.1678 -0.0639
 3909TIP3   OH233141   2.845   3.737  15.931  0.1761 -0.1402 -0.2399
 3909TIP3    H133142   2.939   3.741  15.945 -0.0115 -0.6105  1.3386
 3909TIP3    H233143   2.815   3.666  15.987 -0.9976 -0.7032 -1.5227
 3910TIP3   OH233144   3.817   6.424   5.868  0.1992  0.4638  0.2607
 3910TIP3    H133145   3.732   6.415   5.911 -0.2056  1.3886 -0.3061
 3910TIP3    H233146   3.825   6.345   5.816  0.7598 -0.7422  2.0866
 3911TIP3   OH233147   3.325   2.598   2.175 -0.0224 -0.0698  0.0698
 3911TIP3    H133148   3.331   2.563   2.087 -0.9425  2.0077 -0.9017
 3911TIP3    H233149   3.242   2.645   2.176 -0.2091 -0.3322  2.1814
 3912TIP3   OH233150   6.249   1.059   3.135  0.5904  0.2253  0.0050
 3912TIP3    H133151   6.267   1.007   3.214  0.1984 -1.4646 -0.9594
 3912TIP3    H233152   6.227   1.146   3.168 -0.2408 -0.6181  1.8148
 3913TIP3   OH233153   5.573   0.658   0.052  0.0837  0.0916  0.3552
 3913TIP3    H133154   5.501   0.667  -0.011  0.3568  0.8423  0.1475
 3913TIP3    H233155   5.537   0.690   0.134  0.6011  1.7974 -0.0585
 3914TIP3   OH233156   1.263   2.741  11.458 -0.5185 -0.4397  0.5454
 3914TIP3    H133157   1.240   2.772  11.546 -4.3216 -0.9346 -0.1038
 3914TIP3    H233158   1.287   2.820  11.411 -3.7213  0.7286  0.6717
 3915TIP3   OH233159   5.130   5.716  17.166  0.4126  0.3023  0.4804
 3915TIP3    H133160   5.044   5.707  17.207  0.3887  1.3586  0.6789
 3915TIP3    H233161   5.116   5.692  17.075  0.1106 -0.4206  0.7102
 3916TIP3   OH233162   0.556   1.277   3.784 -0.0625  0.0592 -0.7242
 3916TIP3    H133163   0.577   1.293   3.692 -3.1126 -0.2239 -1.5894
 3916TIP3    H233164   0.460   1.280   3.787 -0.1703 -2.2707  2.0199
 3917TIP3   OH233165   2.817   0.585   0.886  0.1030 -0.2357  0.0108
 3917TIP3    H133166   2.903   0.548   0.905  1.0663  1.5231 -0.6401
 3917TIP3    H233167   2.755   0.524   0.926  1.5222 -2.6269 -1.1777
 3918TIP3   OH233168   6.583   0.282  11.360  0.1564 -0.6269 -0.0758
 3918TIP3    H133169   6.655   0.238  11.314 -1.1378 -0.9674 -1.8862
 3918TIP3    H233170   6.601   0.375  11.348  0.0132 -0.7116 -1.0308
 3919TIP3   OH233171   5.229   0.397   6.179 -0.3203 -0.0058 -0.4536
 3919TIP3    H133172   5.237   0.476   6.233  1.1229 -0.6135  0.3119
 3919TIP3    H233173   5.304   0.401   6.119  0.2713 -1.1582  0.1552
 3920TIP3   OH233174   1.911   0.628  15.635 -0.4982 -0.0647 -0.4094
 3920TIP3    H133175   1.842   0.665  15.691 -1.0595 -1.2148 -0.3223
 3920TIP3    H233176   1.887   0.657  15.547 -0.8894 -0.1423 -0.3330
 3921TIP3   OH233177   0.039   1.183   1.184 -0.0688 -0.3899  0.1389
 3921TIP3    H133178  -0.034   1.246   1.184  0.0944 -0.1942  0.8706
 3921TIP3    H233179   0.012   1.116   1.121 -0.3527  0.2839 -0.4774
 3922TIP3   OH233180   0.878   4.097   2.056 -0.1907 -0.2405 -0.1631
 3922TIP3    H133181   0.924   4.082   1.974 -1.9001  1.2014 -1.4570
 3922TIP3    H233182   0.793   4.055   2.043  0.2175 -1.8243  1.7209
 3923TIP3   OH233183   6.348   4.937  12.879 -0.7862 -0.5479 -0.1260
 3923TIP3    H133184   6.327   4.848  12.906 -0.6026  0.1413  2.5134
 3923TIP3    H233185   6.434   4.954  12.917 -0.4567  0.5180 -1.2723
 3924TIP3   OH233186   2.455   4.072   5.995 -0.1617 -0.2771  0.4858
 3924TIP3    H133187   2.543   4.040   6.015  0.0788  0.2881  0.3330
 3924TIP3    H233188   2.430   4.124   6.071 -0.1134  0.0840  0.2532
 3925TIP3   OH233189   3.034   4.702   2.777  0.1565 -0.5739 -0.1688
 3925TIP3    H133190   2.970   4.725   2.844  0.4269 -1.4039  0.3936
 3925TIP3    H233191   2.987   4.712   2.694 -1.3408 -2.9860  0.2883
 3926TIP3   OH233192   2.804   0.293   3.130 -0.0178 -0.5217 -0.5093
 3926TIP3    H133193   2.735   0.291   3.063 -1.6655  0.5474  1.0407
 3926TIP3    H233194   2.883   0.317   3.083 -1.3583  1.4054 -1.9439
 3927TIP3   OH233195   2.073   2.871   0.443  0.3854 -0.2061  0.4430
 3927TIP3    H133196   2.112   2.800   0.392  1.9818  0.5884  0.4726
 3927TIP3    H233197   2.136   2.943   0.436 -0.1084  0.4625  2.2291
 3928TIP3   OH233198   4.753   6.308  16.582  0.4579 -0.5741 -0.4269
 3928TIP3    H133199   4.778   6.381  16.526 -1.6563  0.3662 -0.2002
 3928TIP3    H233200   4.659   6.298  16.569  0.1357 -1.1688  1.9535
 3929TIP3   OH233201   5.643   2.138  16.154 -0.4414 -0.2369 -0.8647
 3929TIP3    H133202   5.715   2.075  16.159  0.4896  0.8624 -0.0530
 3929TIP3    H233203   5.565   2.084  16.145  0.3580 -1.4937 -0.4811
 3930TIP3   OH233204   5.860   6.420  15.188  0.2670  0.5953 -0.2323
 3930TIP3    H133205   5.845   6.332  15.222  0.1585 -0.0645 -1.9147
 3930TIP3    H233206   5.953   6.420  15.163  0.5194  1.2964  0.6582
 3931TIP3   OH233207   2.354   4.841   5.388  0.0659 -0.1737 -0.1962
 3931TIP3    H133208   2.397   4.772   5.438 -0.5509  0.6859  1.6011
 3931TIP3    H233209   2.327   4.906   5.454 -0.4250  1.2163 -1.6900
 3932TIP3   OH233210   2.068   4.204   1.007  0.6156  0.4324  0.1837
 3932TIP3    H133211   1.988   4.219   0.956  0.9129  0.4838 -0.2738
 3932TIP3    H233212   2.080   4.109   1.005  0.3067  0.3835  0.6527
 3933TIP3   OH233213   2.606   3.249  14.920  0.5309  0.1148  0.2041
 3933TIP3    H133214   2.666   3.177  14.899  0.9058  0.8306 -1.3699
 3933TIP3    H233215   2.649   3.327  14.884  0.2189  1.1756  2.0405
 3934TIP3   OH233216   1.671   2.732   5.078  0.8093 -0.0475 -0.1195
 3934TIP3    H133217   1.579   2.708   5.086  0.8619  0.0367  0.9401
 3934TIP3    H233218   1.704   2.729   5.168  1.6815  0.5624 -0.4063
 3935TIP3   OH233219   2.730   2.540   1.734 -0.9348  0.2399 -0.2013
 3935TIP3    H133220   2.642   2.502   1.731 -1.4251  0.7449  3.3425
 3935TIP3    H233221   2.717   2.633   1.713 -1.4490  0.4854  1.0890
 3936TIP3   OH233222   2.221   3.859  16.604  0.1400 -0.1539  0.3176
 3936TIP3    H133223   2.202   3.837  16.513  1.6162  0.3850 -0.1495
 3936TIP3    H233224   2.138   3.846  16.650 -0.4198 -1.2382 -0.9455
 3937TIP3   OH233225   3.424   5.608   6.166  0.8352 -0.2234 -0.1704
 3937TIP3    H133226   3.359   5.538   6.160  0.6116 -0.3779  2.7456
 3937TIP3    H233227   3.447   5.612   6.259  3.0712  1.5968 -0.7012
 3938TIP3   OH233228   3.192   2.937   6.402  0.0098 -0.3886  0.2999
 3938TIP3    H133229   3.258   2.877   6.437  1.2352  0.4991 -0.4034
 3938TIP3    H233230   3.164   2.989   6.478 -0.1341 -0.9942  0.6670
 3939TIP3   OH233231   3.213   2.196   2.140  1.4561 -0.2736  0.0511
 3939TIP3    H133232   3.267   2.231   2.068  2.7676 -1.3970  0.4436
 3939TIP3    H233233   3.234   2.103   2.142  1.5233 -0.2493  1.9567
 3940TIP3   OH233234   6.654   5.438  13.081 -0.2190  0.1925 -0.4141
 3940TIP3    H133235   6.583   5.492  13.047 -0.3705  0.5390  0.4269
 3940TIP3    H233236   6.685   5.485  13.158  0.2895 -0.4353 -0.2278
 3941TIP3   OH233237   5.017   4.008  15.931 -0.0044  0.5589  0.0258
 3941TIP3    H133238   4.951   4.063  15.888 -0.1217 -0.5644 -1.2839
 3941TIP3    H233239   5.101   4.048  15.905 -0.1134  0.9932  0.3216
 3942TIP3   OH233240   6.026   1.929  11.157  0.1131  0.0596  0.2199
 3942TIP3    H133241   5.950   1.987  11.167 -0.7723 -1.0612  0.1382
 3942TIP3    H233242   6.045   1.930  11.063  0.1839  0.3083  0.2354
 3943TIP3   OH233243   4.628   0.368  13.228  0.0365 -0.6357 -0.2734
 3943TIP3    H133244   4.568   0.424  13.179 -0.1116 -0.4406  0.1260
 3943TIP3    H233245   4.613   0.280  13.194 -1.1698 -0.7468  0.4861
 3944TIP3   OH233246   0.188   3.438   5.432 -0.3277 -0.2417  0.9805
 3944TIP3    H133247   0.167   3.462   5.342  1.3323  2.0920  1.1134
 3944TIP3    H233248   0.125   3.487   5.485 -0.4177 -0.5253  1.1379
 3945TIP3   OH233249   0.268   1.178   5.541 -0.0553 -0.5581  0.1804
 3945TIP3    H133250   0.305   1.215   5.461  0.4735 -1.8714 -0.1982
 3945TIP3    H233251   0.331   1.203   5.609 -1.0169  1.4458  0.4258
 3946TIP3   OH233252   6.333   3.158  12.151 -0.2518 -0.1332 -0.3742
 3946TIP3    H133253   6.372   3.084  12.196 -0.1987 -0.1176 -0.3947
 3946TIP3    H233254   6.402   3.224  12.148 -0.2316 -0.1627 -0.5462
 3947TIP3   OH233255   6.547   0.626  16.936  0.3290 -0.0113 -0.1729
 3947TIP3    H133256   6.638   0.598  16.946  0.3597 -0.0469 -0.5465
 3947TIP3    H233257   6.553   0.718  16.909  0.2241  0.4972  1.4033
 3948TIP3   OH233258   1.711   2.512  14.667 -0.2420  0.0900 -0.6388
 3948TIP3    H133259   1.784   2.498  14.727  0.4399  0.7428 -1.3121
 3948TIP3    H233260   1.636   2.528  14.725 -0.2757 -2.3435  0.1098
 3949TIP3   OH233261   4.117   3.094   5.379  0.0870  0.4252  0.0361
 3949TIP3    H133262   4.157   3.108   5.464  0.2124  0.4897 -0.0331
 3949TIP3    H233263   4.032   3.055   5.398  0.1161  0.4390  0.1901
 3950TIP3   OH233264   5.136   3.968  12.791 -0.0077  0.0793 -0.0809
 3950TIP3    H133265   5.067   3.981  12.726 -0.6275 -0.7829  0.3900
 3950TIP3    H233266   5.211   3.934  12.742 -0.1400  0.3801 -0.4898
 3951TIP3   OH233267   5.175   1.999  15.499  0.1291 -0.1731  0.6725
 3951TIP3    H133268   5.260   1.995  15.455 -1.9640  1.0204 -4.2709
 3951TIP3    H233269   5.177   2.081  15.548  1.8724 -0.2819  0.8346
 3952TIP3   OH233270   4.383   1.493  11.376  0.3411  0.5113 -0.2687
 3952TIP3    H133271   4.377   1.450  11.462  1.6230  1.1370  0.1527
 3952TIP3    H233272   4.402   1.584  11.397  0.5873  0.6847 -1.2294
 3953TIP3   OH233273   4.473   5.135   5.295  0.0750 -0.3102  0.0622
 3953TIP3    H133274   4.455   5.138   5.388 -2.6214  0.1328 -0.3868
 3953TIP3    H233275   4.393   5.169   5.254  2.1847  2.3892 -2.3132
 3954TIP3   OH233276   6.112   0.558   0.254 -0.2208 -0.4508 -0.1238
 3954TIP3    H133277   6.080   0.469   0.238 -0.9130 -0.3906  0.7938
 3954TIP3    H233278   6.047   0.596   0.313  0.1494  0.6178 -0.3841
 3955TIP3   OH233279   6.271   2.408  11.627  0.1926  0.6273  0.6073
 3955TIP3    H133280   6.253   2.502  11.625 -0.5290  0.5512  1.9655
 3955TIP3    H233281   6.252   2.383  11.718 -0.2753 -0.9597  0.0958
 3956TIP3   OH233282   4.205   1.813   0.126  0.3498  0.2065  0.0805
 3956TIP3    H133283   4.146   1.827   0.200 -0.1177  0.4734 -0.3322
 3956TIP3    H233284   4.290   1.846   0.156 -0.0655  1.2613  0.1473
 3957TIP3   OH233285   1.384   2.965   4.455 -0.1441 -0.6786 -1.0173
 3957TIP3    H133286   1.314   3.028   4.474 -0.8285 -1.6990 -0.0098
 3957TIP3    H233287   1.421   2.944   4.541  3.6414  2.1901 -1.6311
 3958TIP3   OH233288   6.527   4.666   5.464  0.0482 -0.3319 -0.0751
 3958TIP3    H133289   6.618   4.640   5.454 -0.4731 -1.6716 -1.5980
 3958TIP3    H233290   6.531   4.760   5.481  1.8038 -0.7362  2.3189
 3959TIP3   OH233291   6.384   2.354   5.185  0.4884 -0.2122 -0.2457
 3959TIP3    H133292   6.406   2.423   5.122 -0.5172 -0.9169 -1.4064
 3959TIP3    H233293   6.467   2.309   5.200  0.8263  0.2205 -0.7635
 3960TIP3   OH233294   4.407   3.280   2.379 -0.7317 -0.6101 -0.0143
 3960TIP3    H133295   4.328   3.244   2.340 -1.1893  0.1992  0.1558
 3960TIP3    H233296   4.376   3.340   2.446 -0.0180  1.2843 -1.3170
 3961TIP3   OH233297   4.445   3.613  17.154 -0.2064  0.8365  0.2362
 3961TIP3    H133298   4.442   3.537  17.211 -1.8476  1.4347  1.0061
 3961TIP3    H233299   4.403   3.584  17.073  1.1804  0.3031 -0.3348
 3962TIP3   OH233300   3.000   5.872   2.361  0.0387 -0.2264  0.3930
 3962TIP3    H133301   2.940   5.838   2.427 -1.3209  1.1274 -0.0646
 3962TIP3    H233302   3.085   5.873   2.404 -0.0395 -3.0126  0.7801
 3963TIP3   OH233303   5.766   5.312  12.922 -0.1937 -0.0537  0.3744
 3963TIP3    H133304   5.674   5.290  12.936  0.2337 -1.1681  1.6139
 3963TIP3    H233305   5.814   5.241  12.963  1.2575 -0.6933 -2.2016
 3964TIP3   OH233306   6.053   3.148  11.104 -0.0987 -0.0590  0.1394
 3964TIP3    H133307   6.131   3.174  11.056  0.9203  1.9286  2.6322
 3964TIP3    H233308   5.982   3.197  11.064  0.8366  2.0737  0.9544
 3965TIP3   OH233309   5.829   0.873   0.833 -0.6525  0.2440  0.4120
 3965TIP3    H133310   5.922   0.877   0.855 -0.2911 -2.0949 -0.3762
 3965TIP3    H233311   5.816   0.945   0.771  0.5310  0.8398  0.8286
 3966TIP3   OH233312   5.569   1.999  13.924  0.4134 -0.0722  0.5219
 3966TIP3    H133313   5.567   1.955  13.839  0.7666  1.4573 -0.3083
 3966TIP3    H233314   5.596   1.931  13.985  1.0259 -0.9881 -0.7204
 3967TIP3   OH233315   2.776   4.126   4.024 -0.1396  0.8924 -0.4961
 3967TIP3    H133316   2.740   4.040   4.045 -0.7628  1.0852 -0.7540
 3967TIP3    H233317   2.718   4.187   4.069  0.4211  1.1797 -0.1410
 3968TIP3   OH233318   2.381   5.156  16.006  0.0437 -0.0617 -0.2575
 3968TIP3    H133319   2.328   5.096  15.954  1.6390 -0.5858 -1.3535
 3968TIP3    H233320   2.379   5.119  16.094  1.3718 -2.0374 -1.0053
 3969TIP3   OH233321   1.491   6.700   2.354  0.3694  0.5435  0.4502
 3969TIP3    H133322   1.422   6.763   2.374 -0.3462 -0.6457  1.8803
 3969TIP3    H233323   1.469   6.667   2.267 -0.1727  1.0521  0.3920
 3970TIP3   OH233324   0.140   3.932  16.817 -1.2748  0.4479  0.2822
 3970TIP3    H133325   0.191   3.857  16.786  1.6113  1.2410  2.6612
 3970TIP3    H233326   0.144   3.995  16.745  2.5836  1.0618  0.8037
 3971TIP3   OH233327   3.375   5.693  15.708  0.0726  0.4839 -0.3675
 3971TIP3    H133328   3.459   5.648  15.709 -0.7445 -1.2025  2.5306
 3971TIP3    H233329   3.387   5.768  15.766 -0.3920  0.2773  0.0005
 3972TIP3   OH233330   2.527   0.586   1.382 -0.0321 -0.0373  0.2898
 3972TIP3    H133331   2.535   0.663   1.439  1.9804 -0.6218  0.8823
 3972TIP3    H233332   2.469   0.527   1.429  1.1096 -0.2485  1.4957
 3973TIP3   OH233333   5.599   0.588   5.051 -0.5644 -0.3287  0.2027
 3973TIP3    H133334   5.646   0.636   5.119 -0.9525  1.3621 -0.6506
 3973TIP3    H233335   5.580   0.503   5.089  2.4046 -0.7794  0.9009
 3974TIP3   OH233336   2.516   2.642  11.391 -0.1529  0.2350  0.0492
 3974TIP3    H133337   2.553   2.730  11.400  0.9613  0.0386 -2.0552
 3974TIP3    H233338   2.463   2.645  11.312  1.1524 -1.3341 -0.9653
 3975TIP3   OH233339   5.175   6.324   3.010 -0.0851  0.2001 -0.6437
 3975TIP3    H133340   5.125   6.280   3.079 -0.1116  2.1553  0.6864
 3975TIP3    H233341   5.112   6.341   2.940  0.2023 -2.8718 -1.7847
 3976TIP3   OH233342   5.903   3.839  12.764  0.6700  0.6498  0.0833
 3976TIP3    H133343   5.904   3.769  12.699 -0.6448  0.4009  0.3186
 3976TIP3    H233344   5.877   3.918  12.715  0.3363  0.5982  0.1781
 3977TIP3   OH233345   3.915   5.435   5.185  0.4299 -0.0856  0.3126
 3977TIP3    H133346   3.983   5.501   5.196 -0.3629  0.5564  1.4855
 3977TIP3    H233347   3.902   5.430   5.090  1.8998 -0.0249  0.0855
 3978TIP3   OH233348   6.340   5.779  14.602  0.1203  0.3120  0.1817
 3978TIP3    H133349   6.276   5.829  14.551  1.8490  1.6900 -0.7564
 3978TIP3    H233350   6.292   5.750  14.680 -1.5814  1.4159 -0.4024
 3979TIP3   OH233351   3.531   5.549  11.957 -0.7968 -0.0159  0.2964
 3979TIP3    H133352   3.543   5.642  11.937 -1.0579  0.1788  1.0032
 3979TIP3    H233353   3.471   5.518  11.890 -1.8759  0.6835  0.9058
 3980TIP3   OH233354   0.235   6.485  12.039 -0.7574 -0.4057  0.0004
 3980TIP3    H133355   0.277   6.429  11.974  0.5150  1.0748 -0.5124
 3980TIP3    H233356   0.142   6.464  12.032 -0.3826 -2.0460 -0.5427
 3981TIP3   OH233357   1.139   5.747  11.692  0.0785 -0.1057 -0.0887
 3981TIP3    H133358   1.062   5.786  11.733  1.7072  1.9476  1.1834
 3981TIP3    H233359   1.147   5.791  11.608  0.8193  0.9863  0.5295
 3982TIP3   OH233360   5.627   6.085  14.691  0.2504 -0.0349 -0.0579
 3982TIP3    H133361   5.538   6.119  14.695 -0.4455 -1.5153 -1.6278
 3982TIP3    H233362   5.621   5.998  14.730  1.0635 -0.0531  0.0388
 3983TIP3   OH233363   2.795   4.368   1.056 -0.4192  0.1273  0.3529
 3983TIP3    H133364   2.877   4.324   1.034 -1.5548 -1.1182 -1.8071
 3983TIP3    H233365   2.783   4.434   0.988 -1.7262 -0.4782 -0.0453
 3984TIP3   OH233366   2.553   5.228   5.034  0.5794 -0.1859 -0.0095
 3984TIP3    H133367   2.495   5.156   5.060  0.5803  0.0455  0.6480
 3984TIP3    H233368   2.538   5.238   4.940 -1.7263  0.9639  0.3948
 3985TIP3   OH233369   4.373   6.300  15.621  0.0580 -0.4872 -0.5817
 3985TIP3    H133370   4.454   6.248  15.622  0.1715 -0.3085 -0.2868
 3985TIP3    H233371   4.318   6.257  15.556  0.3069 -0.7420 -0.6280
 3986TIP3   OH233372   3.476   4.286   1.282 -0.4130 -0.5543 -0.2007
 3986TIP3    H133373   3.432   4.367   1.255  1.3566  0.2190 -0.9293
 3986TIP3    H233374   3.452   4.222   1.216  0.9387  0.3520 -1.6533
 3987TIP3   OH233375   0.052   3.197   5.468  0.0144 -0.4533  0.0444
 3987TIP3    H133376   0.106   3.274   5.486 -0.6903  0.1265 -0.2825
 3987TIP3    H233377   0.106   3.143   5.410 -0.0247  0.4823 -0.9045
 3988TIP3   OH233378   4.856   6.110  13.308 -0.1336 -0.2058  0.1328
 3988TIP3    H133379   4.855   6.166  13.385 -1.5626 -0.3409  0.2414
 3988TIP3    H233380   4.822   6.165  13.238 -1.0030 -0.7349  0.1159
 3989TIP3   OH233381   3.083   2.048  11.418 -0.1151 -0.5059 -0.2098
 3989TIP3    H133382   3.030   2.118  11.456  0.9795 -0.3463  1.0954
 3989TIP3    H233383   3.046   1.967  11.453  1.3455 -0.3329  1.9461
 3990TIP3   OH233384   0.242   2.140   3.282 -0.3365 -0.0689  0.4113
 3990TIP3    H133385   0.233   2.054   3.324  0.7277 -0.7075 -0.5956
 3990TIP3    H233386   0.194   2.131   3.199  2.9580 -1.1183 -1.5998
 3991TIP3   OH233387   1.367   3.607   6.469  0.1348 -0.3958  0.3332
 3991TIP3    H133388   1.289   3.573   6.514  0.6317 -0.7140  0.9657
 3991TIP3    H233389   1.408   3.529   6.431 -0.5883 -0.0736 -1.2043
 3992TIP3   OH233390   3.188   6.075  15.674  0.1379 -0.5335 -0.4150
 3992TIP3    H133391   3.280   6.054  15.690 -0.1669 -1.0490  0.7457
 3992TIP3    H233392   3.181   6.169  15.695  0.8961  0.1443 -2.8895
 3993TIP3   OH233393   1.104   2.160   3.307 -0.5929  0.1998 -0.1187
 3993TIP3    H133394   1.181   2.216   3.318 -0.3118 -0.0647 -0.7073
 3993TIP3    H233395   1.079   2.170   3.215 -0.8989 -0.1849 -0.0813
 3994TIP3   OH233396   2.669   2.319   1.994 -0.4619 -0.2407  0.4800
 3994TIP3    H133397   2.645   2.411   2.002  2.3180  0.5584  0.2903
 3994TIP3    H233398   2.657   2.299   1.902 -3.3196 -0.8327  0.8769
 3995TIP3   OH233399   5.747   5.395  11.298  0.4265 -0.0111  0.5422
 3995TIP3    H133400   5.757   5.447  11.218  2.9805 -0.9223  0.1726
 3995TIP3    H233401   5.742   5.305  11.268  2.6351 -0.4747  1.3744
 3996TIP3   OH233402   2.721   5.312   4.681  0.5908  0.7105  0.2540
 3996TIP3    H133403   2.719   5.397   4.637 -1.2722  0.7334  0.3045
 3996TIP3    H233404   2.810   5.305   4.715  0.7166  2.7788  0.4942
 3997TIP3   OH233405   0.968   5.482  12.239  0.0699  0.5615 -0.5202
 3997TIP3    H133406   0.989   5.445  12.153 -0.4582 -2.2930  0.4749
 3997TIP3    H233407   1.038   5.546  12.255  1.3716 -0.3713 -2.1584
 3998TIP3   OH233408   2.571   4.391  12.023  0.6665 -0.0545  0.1121
 3998TIP3    H133409   2.633   4.354  11.961  1.7755 -1.9370  2.2012
 3998TIP3    H233410   2.624   4.443  12.083  0.3495 -1.6244  1.8813
 3999TIP3   OH233411   2.634   3.655  17.206  0.0485  0.4956 -0.3127
 3999TIP3    H133412   2.702   3.588  17.199  0.7641  1.2950 -1.1658
 3999TIP3    H233413   2.583   3.646  17.125  0.2044  1.0412 -0.4725
 4000TIP3   OH233414   0.284   6.017  12.629 -0.4300 -1.0092 -0.4856
 4000TIP3    H133415   0.260   5.925  12.620 -0.6390 -1.2360  1.7697
 4000TIP3    H233416   0.258   6.039  12.719 -0.2389  1.2075 -0.9364
 4001TIP3   OH233417   0.846   2.350   3.216  0.5700 -0.3116  0.2794
 4001TIP3    H133418   0.786   2.424   3.219  2.5381  1.3713  0.3451
 4001TIP3    H233419   0.932   2.389   3.199  2.0771 -2.3148  2.5464
 4002TIP3   OH233420   0.763   4.042   1.745 -0.4914 -0.3007  0.6104
 4002TIP3    H133421   0.702   4.000   1.685  0.0359 -1.0853  0.5995
 4002TIP3    H233422   0.833   3.978   1.756 -0.3837 -0.0210  1.7497
 4003TIP3   OH233423   5.331   3.990  16.365  0.4000  0.2616 -0.2218
 4003TIP3    H133424   5.380   3.929  16.419 -1.5370  0.4740  1.9004
 4003TIP3    H233425   5.302   3.938  16.290 -0.3765 -1.2229  1.0522
 4004TIP3   OH233426   2.589   4.321  15.258 -0.0140 -0.0950  0.2671
 4004TIP3    H133427   2.574   4.412  15.283  1.1925 -0.1427  1.2532
 4004TIP3    H233428   2.643   4.285  15.329  0.4395 -1.2717 -0.6447
 4005TIP3   OH233429   4.724   3.733   3.361  0.1484 -0.0419 -0.5292
 4005TIP3    H133430   4.683   3.783   3.290 -0.5532 -1.2522 -1.0021
 4005TIP3    H233431   4.664   3.740   3.434  0.4764  0.5203 -0.3053
 4006TIP3   OH233432   0.263   4.204   3.881  0.2605  0.2136  0.0669
 4006TIP3    H133433   0.192   4.253   3.838 -0.0310  0.6111  0.9796
 4006TIP3    H233434   0.274   4.126   3.826 -0.1087  0.6981 -0.7212
 4007TIP3   OH233435   0.321   3.562   2.393  0.4332  0.4451  0.3830
 4007TIP3    H133436   0.380   3.516   2.453 -0.0590  1.4667  1.7105
 4007TIP3    H233437   0.314   3.504   2.317  0.6017 -1.2044  1.5637
 4008TIP3   OH233438   2.830   5.598  14.941 -0.2818  0.3199  0.0118
 4008TIP3    H133439   2.891   5.591  14.868 -1.3008  0.2321 -0.8720
 4008TIP3    H233440   2.806   5.507  14.961  0.7979  0.2676  1.1955
 4009TIP3   OH233441   4.524   3.656   2.134  0.1135  0.5820 -0.3409
 4009TIP3    H133442   4.464   3.731   2.130 -1.5301 -0.6334  0.5821
 4009TIP3    H233443   4.611   3.696   2.137 -0.7157  2.4748  0.1664
 4010TIP3   OH233444   3.197   3.598   5.306 -0.2003  0.5832 -0.6251
 4010TIP3    H133445   3.192   3.562   5.218  0.7942 -1.9996  0.2805
 4010TIP3    H233446   3.133   3.549   5.356  2.1406 -1.1057  0.9626
 4011TIP3   OH233447   5.214   3.556  14.594  0.7627  0.2581 -0.5660
 4011TIP3    H133448   5.163   3.547  14.514  0.6142  0.9782 -0.5537
 4011TIP3    H233449   5.279   3.624  14.575  3.2253 -2.1267 -1.3399
 4012TIP3   OH233450   6.575   4.813  16.051  0.3409 -0.1370  0.8528
 4012TIP3    H133451   6.619   4.795  16.134 -0.0389  0.1155  1.1175
 4012TIP3    H233452   6.541   4.903  16.062 -0.7451 -0.5330  0.8951
 4013TIP3   OH233453   2.307   2.539  16.666 -0.5777 -0.1491  0.8741
 4013TIP3    H133454   2.308   2.470  16.732  0.4577 -0.5193  0.4984
 4013TIP3    H233455   2.266   2.499  16.589  2.3442 -1.2969 -0.2441
 4014TIP3   OH233456   1.727   2.951  14.505 -1.1436 -0.1140 -0.0105
 4014TIP3    H133457   1.633   2.938  14.489 -0.9971 -3.3745  1.0654
 4014TIP3    H233458   1.742   2.908  14.589  1.4333 -0.1432 -0.4330
 4015TIP3   OH233459   4.695   3.093  12.032  0.1772 -0.4856  0.1907
 4015TIP3    H133460   4.678   3.006  12.068 -3.1249 -0.3985 -0.7639
 4015TIP3    H233461   4.789   3.095  12.017  1.0885 -2.2637  4.1427
 4016TIP3   OH233462   6.120   0.669  14.607 -0.3742  0.2029  0.2205
 4016TIP3    H133463   6.120   0.582  14.568 -0.1118  0.5074 -0.4880
 4016TIP3    H233464   6.096   0.728  14.535 -0.0038  0.7710  0.5486
 4017TIP3   OH233465   5.231   2.076   3.654  0.5691 -0.2253  0.2865
 4017TIP3    H133466   5.247   2.158   3.607  0.6915 -0.8579 -0.7934
 4017TIP3    H233467   5.138   2.079   3.675  0.2263 -0.4837 -1.1010
 4018TIP3   OH233468   6.505   2.688   0.060 -0.3382 -0.1051 -0.2453
 4018TIP3    H133469   6.436   2.740   0.020 -1.2608 -0.1059  1.2643
 4018TIP3    H233470   6.537   2.741   0.133 -1.1935 -1.5131  1.2394
 4019TIP3   OH233471   3.059   6.546   4.222 -0.2843 -0.0261  0.0342
 4019TIP3    H133472   3.097   6.478   4.277 -0.6594  0.0262  0.3586
 4019TIP3    H233473   3.020   6.498   4.149  0.0363 -0.1088 -0.0873
 4020TIP3   OH233474   5.771   1.231  15.873  0.3588 -0.0786 -0.0002
 4020TIP3    H133475   5.858   1.193  15.862  0.3217 -1.0086  2.2865
 4020TIP3    H233476   5.741   1.249  15.784  2.4781 -0.6435 -0.8945
 4021TIP3   OH233477   5.301   1.347  16.395 -0.2571  0.8928  0.1621
 4021TIP3    H133478   5.386   1.303  16.390 -0.4634  0.3947  0.9183
 4021TIP3    H233479   5.302   1.393  16.479 -1.0821  0.1354  0.5970
 4022TIP3   OH233480   3.990   4.969  12.687  0.0576  0.0408  1.0862
 4022TIP3    H133481   4.085   4.981  12.695  0.4374 -2.2740  0.9726
 4022TIP3    H233482   3.959   5.048  12.642  2.1659  0.2032 -0.2285
 4023TIP3   OH233483   0.509   6.550   5.598 -0.0204  0.4177  0.0747
 4023TIP3    H133484   0.502   6.633   5.643  1.8899  0.6114  0.0915
 4023TIP3    H233485   0.563   6.569   5.521  1.2560 -0.9491  0.5775
 4024TIP3   OH233486   6.276   1.223  13.175 -0.1050 -0.1231  0.2122
 4024TIP3    H133487   6.310   1.215  13.086 -1.0803  0.1347 -0.1942
 4024TIP3    H233488   6.258   1.133  13.202 -3.2416 -0.0637 -1.2455
 4025TIP3   OH233489   5.562   4.548   6.227 -0.2242  0.4389  0.1319
 4025TIP3    H133490   5.633   4.562   6.289  0.0098  0.1662 -0.0735
 4025TIP3    H233491   5.559   4.453   6.216  0.6071  0.5557 -1.2827
 4026TIP3   OH233492   5.051   1.720  16.538 -0.6673  0.1004 -0.0995
 4026TIP3    H133493   4.965   1.756  16.519 -0.5898  0.5438  0.3675
 4026TIP3    H233494   5.088   1.779  16.603 -1.3318 -1.8865  2.2236
 4027TIP3   OH233495   4.537   4.969   0.538 -0.3148  0.1529  0.2966
 4027TIP3    H133496   4.462   5.018   0.570 -0.5341  0.3845 -0.5613
 4027TIP3    H233497   4.608   4.991   0.599 -0.5729  1.0534  0.2772
 4028TIP3   OH233498   5.518   6.092   5.750  0.1179  0.3234  0.4834
 4028TIP3    H133499   5.529   6.111   5.844 -0.4190  1.1479  0.3885
 4028TIP3    H233500   5.555   6.167   5.706 -0.6525  0.4660  0.0579
 4029TIP3   OH233501   0.696   3.072   4.046 -0.1766  0.0617  0.0590
 4029TIP3    H133502   0.791   3.069   4.033 -0.0917  1.6083  0.1628
 4029TIP3    H233503   0.662   3.006   3.986  0.8303  0.8526 -1.4350
 4030TIP3   OH233504   2.514   3.587   0.985  0.5592  0.1142 -0.2433
 4030TIP3    H133505   2.515   3.520   0.917 -1.5015 -0.3107  0.0936
 4030TIP3    H233506   2.422   3.601   1.004  1.0679  0.1717  2.5445
 4031TIP3   OH233507   3.794   1.049   6.648 -0.1710  0.1688  0.2905
 4031TIP3    H133508   3.866   1.064   6.587  0.7098 -1.4361  0.8762
 4031TIP3    H233509   3.832   0.996   6.718 -1.9019 -0.7109  0.6318
 4032TIP3   OH233510   1.191   4.645   1.491  0.0452 -0.1517  0.1125
 4032TIP3    H133511   1.282   4.654   1.519  0.2342 -0.2550 -0.4574
 4032TIP3    H233512   1.160   4.734   1.476 -0.4187 -0.0129  1.7554
 4033TIP3   OH233513   5.938   1.806   4.740  0.4262  0.3445  0.2601
 4033TIP3    H133514   6.015   1.863   4.729 -0.3605  1.4687  0.3266
 4033TIP3    H233515   5.889   1.846   4.812 -0.0419 -0.5699  0.4608
 4034TIP3   OH233516   6.570   2.653  16.511 -0.0078  0.0415  0.2570
 4034TIP3    H133517   6.657   2.692  16.520  0.6968 -1.4010 -0.1052
 4034TIP3    H233518   6.524   2.713  16.452  0.5718  1.0617  0.8028
 4035TIP3   OH233519   4.115   0.773   4.036  0.3778 -0.4937 -0.1362
 4035TIP3    H133520   4.122   0.686   4.077 -2.3620 -1.8432 -2.2186
 4035TIP3    H233521   4.137   0.758   3.944  1.1606  1.3569 -0.2968
 4036TIP3   OH233522   1.815   4.737   3.791  0.8397 -0.0221 -0.0550
 4036TIP3    H133523   1.761   4.809   3.760  2.2198  0.5997 -1.0996
 4036TIP3    H233524   1.764   4.698   3.862 -0.6619  0.9427 -0.5623
 4037TIP3   OH233525   4.778   3.517  11.731  0.1912 -0.6250 -0.1359
 4037TIP3    H133526   4.724   3.521  11.653 -0.4718  1.6990  0.3707
 4037TIP3    H233527   4.752   3.435  11.774 -1.7541 -0.3850 -0.7517
 4038TIP3   OH233528   3.578   0.701  11.116  0.1012  0.5148 -0.2771
 4038TIP3    H133529   3.503   0.682  11.173  0.5397 -0.2242  0.0691
 4038TIP3    H233530   3.643   0.636  11.140  0.9624  1.3188 -0.3874
 4039TIP3   OH233531   2.579   5.831   0.620  0.8587  0.2664 -0.1295
 4039TIP3    H133532   2.553   5.786   0.539  0.3218 -1.3511  0.8934
 4039TIP3    H233533   2.517   5.904   0.627 -1.1377 -1.3791  0.3665
 4040TIP3   OH233534   4.735   0.825  15.411 -0.4093 -0.1320 -0.7005
 4040TIP3    H133535   4.727   0.818  15.507  0.1603 -1.7237 -0.7338
 4040TIP3    H233536   4.645   0.830  15.380 -0.5950  0.8217 -0.0768
 4041TIP3   OH233537   0.132   3.192   1.029  0.0328  0.8981 -0.1666
 4041TIP3    H133538   0.074   3.192   0.953 -0.2224 -1.0730 -0.0057
 4041TIP3    H233539   0.218   3.215   0.993  0.2174 -1.3841 -1.3465
 4042TIP3   OH233540   4.590   4.426  14.001 -0.2138  0.5565  0.2988
 4042TIP3    H133541   4.533   4.385  13.936  1.4027  0.6493 -1.2605
 4042TIP3    H233542   4.567   4.382  14.083 -1.5465 -0.3724 -0.5101
 4043TIP3   OH233543   5.120   1.657  13.979 -0.5140 -0.0724 -0.2604
 4043TIP3    H133544   5.170   1.734  13.954 -1.4452  0.3475 -0.8866
 4043TIP3    H233545   5.052   1.690  14.039 -0.1705 -0.6011  0.4413
 4044TIP3   OH233546   3.667   2.971   0.889  0.1091  0.2050 -0.2504
 4044TIP3    H133547   3.696   2.977   0.798  0.7289  0.1967 -0.0588
 4044TIP3    H233548   3.701   3.050   0.931  2.3629 -1.1295  0.6518
 4045TIP3   OH233549   6.449   0.300  12.768  0.4479 -0.4874  0.5725
 4045TIP3    H133550   6.467   0.313  12.861 -1.5777  1.2587  0.7813
 4045TIP3    H233551   6.471   0.384  12.727  1.6594 -1.3379 -0.6471
 4046TIP3   OH233552   0.627   2.948   2.816 -0.0186 -0.3424 -0.8836
 4046TIP3    H133553   0.573   2.904   2.882  1.6109 -0.8084  0.2079
 4046TIP3    H233554   0.687   2.881   2.786  1.2289  0.6133 -0.6220
 4047TIP3   OH233555   6.687   2.494   6.344  0.0028  0.0244 -0.0069
 4047TIP3    H133556   6.706   2.573   6.395  0.9507 -0.5753  0.5897
 4047TIP3    H233557   6.607   2.459   6.384  0.6428 -0.3492  0.9724
 4048TIP3   OH233558   3.639   3.825   2.919 -0.0455  0.1726 -0.1670
 4048TIP3    H133559   3.546   3.826   2.940 -0.0372  0.3931 -0.1374
 4048TIP3    H233560   3.681   3.859   2.998  0.0396  0.3372 -0.2837
 4049TIP3   OH233561   4.474   4.222  13.638  0.7342  0.3049  0.2727
 4049TIP3    H133562   4.434   4.135  13.648  0.8461  0.0738 -1.0356
 4049TIP3    H233563   4.401   4.278  13.610  0.6388  0.6790  1.2225
 4050TIP3   OH233564   2.040   4.202  15.630  0.2469 -0.0336  0.2551
 4050TIP3    H133565   2.036   4.267  15.560  0.8444  0.7366  0.9060
 4050TIP3    H233566   1.953   4.164  15.633  0.1452  0.1136 -0.7274
 4051TIP3   OH233567   5.636   4.787   4.117 -0.3037  0.8364  0.2793
 4051TIP3    H133568   5.679   4.707   4.087 -1.8635  0.3557 -0.8312
 4051TIP3    H233569   5.634   4.779   4.213  4.7726  2.3924  0.7862
 4052TIP3   OH233570   1.838   0.480   4.454  0.2606 -0.4942 -0.4615
 4052TIP3    H133571   1.809   0.392   4.479 -0.0517 -0.1807  0.3133
 4052TIP3    H233572   1.801   0.494   4.367 -0.6656 -0.6916 -0.1105
 4053TIP3   OH233573   2.539   1.704   4.691  0.1177  0.2233 -0.4341
 4053TIP3    H133574   2.628   1.678   4.716  0.7119  1.4461 -1.2021
 4053TIP3    H233575   2.498   1.623   4.663  0.0157 -0.9271  2.5843
 4054TIP3   OH233576   0.021   2.163  13.277 -0.0224 -0.1357  0.0611
 4054TIP3    H133577   0.028   2.084  13.331  0.9809 -1.0998 -1.4000
 4054TIP3    H233578   0.111   2.184  13.252  0.1818  3.4205  2.9214
 4055TIP3   OH233579   1.939   4.270   6.255 -0.4985  0.2488  0.2225
 4055TIP3    H133580   1.970   4.360   6.266 -1.2788  0.5702 -0.1544
 4055TIP3    H233581   1.845   4.275   6.273 -0.3491 -0.7145  1.3856
 4056TIP3   OH233582   5.075   5.169   6.438  0.2420  0.2892 -0.0828
 4056TIP3    H133583   5.009   5.154   6.371 -0.3533  1.8037  0.1142
 4056TIP3    H233584   5.060   5.260   6.466  0.8392 -0.1102  1.6738
 4057TIP3   OH233585   5.677   3.598   3.071  0.5366  0.2224 -0.1031
 4057TIP3    H133586   5.609   3.530   3.070  1.5154 -0.7714 -0.9271
 4057TIP3    H233587   5.630   3.678   3.046 -0.3036 -0.4791 -0.8477
 4058TIP3   OH233588   6.712   0.452  10.530  0.5692  0.0118 -0.3103
 4058TIP3    H133589   6.765   0.511  10.584  1.8679 -0.3877 -1.0939
 4058TIP3    H233590   6.623   0.485  10.539  0.7911  0.1693  1.7781
 4059TIP3   OH233591   2.948   1.227  13.670  0.6162 -0.5635 -0.6322
 4059TIP3    H133592   2.965   1.321  13.660  0.6611 -0.4015  0.7869
 4059TIP3    H233593   2.856   1.217  13.644  0.3363  0.0432  0.0768
 4060TIP3   OH233594   4.846   5.598  16.398  0.2677  0.4030 -0.5514
 4060TIP3    H133595   4.861   5.503  16.403  2.2990  0.7204  0.1060
 4060TIP3    H233596   4.755   5.606  16.368  0.3001 -1.7468 -1.3828
 4061TIP3   OH233597   4.752   2.641  13.935 -0.2978 -0.0382  0.2797
 4061TIP3    H133598   4.700   2.607  13.862 -0.1893 -0.0566  0.2110
 4061TIP3    H233599   4.753   2.570  13.999 -1.0734  0.2694  0.6483
 4062TIP3   OH233600   5.194   5.548  12.272  0.6673 -0.0893  0.0133
 4062TIP3    H133601   5.186   5.565  12.178  1.8347 -1.3562 -0.3447
 4062TIP3    H233602   5.245   5.467  12.277  0.5884 -0.0551  1.7475
 4063TIP3   OH233603   5.392   6.094   0.675 -0.0676  0.0338 -0.1236
 4063TIP3    H133604   5.322   6.029   0.679  0.8105 -0.9612 -0.5313
 4063TIP3    H233605   5.376   6.141   0.593 -0.4161  0.0153 -0.0708
 4064TIP3   OH233606   0.464   3.512   5.062  0.5649 -0.2157 -0.0652
 4064TIP3    H133607   0.534   3.483   5.005  0.1440 -0.6701 -0.3593
 4064TIP3    H233608   0.506   3.527   5.147  0.9311 -0.9615 -0.1066
 4065TIP3   OH233609   3.048   3.080   6.588 -0.2873 -0.9181  0.0462
 4065TIP3    H133610   3.044   3.141   6.661  0.7805  1.1067 -1.4815
 4065TIP3    H233611   2.968   3.094   6.539 -0.5580 -1.5824  0.2823
 4066TIP3   OH233612   5.223   5.406   4.212  0.2360  0.5010 -0.0558
 4066TIP3    H133613   5.146   5.410   4.155  0.4942  1.2548 -0.3552
 4066TIP3    H233614   5.234   5.312   4.230 -0.2271  0.3109 -0.7228
 4067TIP3   OH233615   2.778   2.950  12.385  0.1494  0.2281 -0.2131
 4067TIP3    H133616   2.765   3.038  12.420 -2.4806 -0.3144  0.3659
 4067TIP3    H233617   2.871   2.947  12.363  0.8154  2.3696  1.8726
 4068TIP3   OH233618   3.281   5.898   0.789  0.0584 -0.3226  0.3836
 4068TIP3    H133619   3.366   5.867   0.818 -0.9010 -2.0273  1.5648
 4068TIP3    H233620   3.275   5.987   0.824  1.1566 -0.3606  0.7072
 4069TIP3   OH233621   2.909   5.132  15.296  0.2489 -0.1283  0.6571
 4069TIP3    H133622   2.924   5.063  15.232  1.8478 -0.2607  1.1419
 4069TIP3    H233623   2.913   5.087  15.381  0.2682  0.3875  0.9308
 4070TIP3   OH233624   4.061   2.708   4.069 -0.2276  0.6138 -0.0351
 4070TIP3    H133625   4.093   2.701   3.979  2.1391  0.4200  0.7307
 4070TIP3    H233626   4.106   2.786   4.103 -2.2478  1.5664  0.5715
 4071TIP3   OH233627   0.068   1.580   2.739  0.1451  0.5639  0.1309
 4071TIP3    H133628   0.125   1.522   2.789 -0.7887  0.7660  1.4931
 4071TIP3    H233629   0.036   1.525   2.667  1.6701  0.3288 -0.3917
 4072TIP3   OH233630   4.395   6.364  14.141  0.5652 -0.3106 -0.1605
 4072TIP3    H133631   4.438   6.363  14.056 -0.3609 -1.8832 -0.6600
 4072TIP3    H233632   4.321   6.303  14.132 -0.0542  0.1107  1.5145
 4073TIP3   OH233633   4.367   1.384   5.465 -0.5884  0.3448 -0.2115
 4073TIP3    H133634   4.446   1.412   5.512 -0.7205 -0.7199  0.6974
 4073TIP3    H233635   4.311   1.348   5.534 -1.1752 -0.4104 -1.0675
 4074TIP3   OH233636   1.909   4.567   1.848 -0.3946 -0.0001 -0.1431
 4074TIP3    H133637   1.864   4.506   1.908 -1.0533  0.4037 -0.2186
 4074TIP3    H233638   1.998   4.533   1.842 -0.7375 -0.9343 -0.1422
 4075TIP3   OH233639   1.611   1.966   0.303 -0.1546 -0.1517 -0.1391
 4075TIP3    H133640   1.647   1.949   0.216 -1.0201 -0.0754 -0.5191
 4075TIP3    H233641   1.536   2.023   0.288 -1.1487 -1.2373  0.5147
 4076TIP3   OH233642   4.087   5.560   2.331 -0.2591 -0.2649  0.6437
 4076TIP3    H133643   4.123   5.636   2.287 -1.2318  0.2939  0.7824
 4076TIP3    H233644   3.995   5.557   2.304 -0.0965 -1.7483  0.1592
 4077TIP3   OH233645   5.592   1.809   1.138 -0.4888 -0.7392  0.1960
 4077TIP3    H133646   5.538   1.774   1.068 -0.2711 -1.6497  0.4703
 4077TIP3    H233647   5.539   1.879   1.177 -2.3391 -2.8665  1.7315
 4078TIP3   OH233648   2.317   5.303   3.754 -0.0727 -0.6449  0.2368
 4078TIP3    H133649   2.353   5.275   3.670  0.6066  3.1277 -0.8952
 4078TIP3    H233650   2.392   5.337   3.803 -0.7255 -1.2308  1.7169
 4079TIP3   OH233651   0.101   0.303  12.767 -0.0912  0.8712  0.0109
 4079TIP3    H133652   0.042   0.296  12.842 -0.3200  0.8437 -0.1710
 4079TIP3    H233653   0.129   0.395  12.767 -1.0705  1.1838 -0.6032
 4080TIP3   OH233654   2.593   4.044   2.486  0.2039  0.1290  0.7528
 4080TIP3    H133655   2.583   3.960   2.532 -0.1231  0.9414  2.2368
 4080TIP3    H233656   2.688   4.058   2.483  0.2869 -0.5263  0.0356
 4081TIP3   OH233657   1.067   6.417  15.326  0.1908  0.0743  0.2345
 4081TIP3    H133658   1.063   6.341  15.268  1.6904  0.6503 -0.6820
 4081TIP3    H233659   1.013   6.393  15.401  1.5293 -2.3888  0.5231
 4082TIP3   OH233660   1.338   4.126   5.845  0.1552 -0.5978 -0.4948
 4082TIP3    H133661   1.381   4.200   5.888  1.1336 -0.6187 -1.4242
 4082TIP3    H233662   1.389   4.110   5.766 -1.4911 -0.6720 -1.6137
 4083TIP3   OH233663   2.533   1.697  12.264 -0.3967  0.4806 -0.1258
 4083TIP3    H133664   2.540   1.778  12.214 -0.2598  1.5657  1.5601
 4083TIP3    H233665   2.559   1.721  12.353 -1.8190 -1.0656  0.7693
 4084TIP3   OH233666   0.223   6.589  13.330  0.1532 -0.0672 -0.1799
 4084TIP3    H133667   0.278   6.514  13.305  1.3843  0.3919  1.0352
 4084TIP3    H233668   0.167   6.603  13.254  1.9114 -0.3974 -1.6293
 4085TIP3   OH233669   3.088   1.703   5.636 -0.0522  0.5035 -0.0047
 4085TIP3    H133670   3.059   1.732   5.722  2.8524  0.9325  0.9393
 4085TIP3    H233671   3.052   1.767   5.575  0.7074  2.2768  1.3154
 4086TIP3   OH233672   5.563   3.326   3.276 -0.2321  0.2500  0.4968
 4086TIP3    H133673   5.574   3.300   3.185  0.9885 -1.5703  1.1115
 4086TIP3    H233674   5.536   3.245   3.321  1.0580  0.6393  2.0518
 4087TIP3   OH233675   5.757   5.232  12.159  0.2042 -0.2741 -0.2262
 4087TIP3    H133676   5.781   5.270  12.243 -0.9529 -1.2181  0.5577
 4087TIP3    H233677   5.811   5.279  12.095  2.4041 -0.7542  1.1759
 4088TIP3   OH233678   6.621   3.757   3.203 -0.4063 -0.0488  0.1341
 4088TIP3    H133679   6.650   3.737   3.292  0.0519 -3.8015 -0.6752
 4088TIP3    H233680   6.677   3.829   3.174  1.3436 -0.6133  1.9634
 4089TIP3   OH233681   0.178   5.305   2.112  0.1050 -0.2813  0.5457
 4089TIP3    H133682   0.199   5.328   2.022 -1.8711 -1.0527 -0.1687
 4089TIP3    H233683   0.250   5.341   2.164  0.4298  1.6526 -1.1429
 4090TIP3   OH233684   3.088   1.090  14.748  0.2333 -0.3547  0.6778
 4090TIP3    H133685   3.025   1.161  14.755 -0.1903 -0.7608  1.0421
 4090TIP3    H233686   3.041   1.012  14.779  0.8297 -0.7078  0.7217
 4091TIP3   OH233687   4.066   3.246   1.171  0.3215 -0.2361 -0.1317
 4091TIP3    H133688   3.995   3.290   1.218 -0.6609 -0.6189 -1.2041
 4091TIP3    H233689   4.099   3.312   1.110 -0.6913 -0.7145 -1.2535
 4092TIP3   OH233690   5.705   0.481  11.104 -0.0580  0.1974  0.6887
 4092TIP3    H133691   5.628   0.470  11.047 -0.3209  1.9073  0.6409
 4092TIP3    H233692   5.671   0.528  11.180  0.8562  0.5971  0.8613
 4093TIP3   OH233693   0.983   0.743   1.698 -0.3059 -0.2485 -0.3506
 4093TIP3    H133694   1.012   0.827   1.734  1.2205 -0.9145  0.0555
 4093TIP3    H233695   0.956   0.693   1.775 -1.5403 -0.0362 -0.6242
 4094TIP3   OH233696   4.837   5.971  15.416 -0.0514 -0.0437  0.1160
 4094TIP3    H133697   4.880   6.018  15.488  0.6706 -1.0993  0.3878
 4094TIP3    H233698   4.900   5.903  15.391 -0.3245  0.2488 -1.4621
 4095TIP3   OH233699   5.627   5.160  12.677 -0.9560 -0.0069 -0.0647
 4095TIP3    H133700   5.617   5.069  12.704 -0.4428  0.0888  0.4744
 4095TIP3    H233701   5.696   5.195  12.734 -1.5749  0.8911  0.1716
 4096TIP3   OH233702   2.656   6.057   4.001 -0.9173 -0.4606 -0.2221
 4096TIP3    H133703   2.672   6.144   4.039 -0.7919 -0.0886 -1.1149
 4096TIP3    H233704   2.621   6.075   3.914 -0.3620 -1.3065 -0.6246
 4097TIP3   OH233705   3.040   6.293   4.418  0.1391 -0.9712 -1.1904
 4097TIP3    H133706   3.014   6.221   4.475 -0.7963  0.8081  0.7424
 4097TIP3    H233707   3.089   6.353   4.475 -0.1624  0.5211 -2.4160
 4098TIP3   OH233708   2.950   4.527   3.806  0.0229 -0.2797 -0.1548
 4098TIP3    H133709   3.007   4.482   3.868 -0.0133 -1.5536 -1.0134
 4098TIP3    H233710   2.984   4.503   3.720 -0.9539  0.0801 -0.6607
 4099TIP3   OH233711   3.417   0.758   1.719 -0.1959 -0.0049  0.5793
 4099TIP3    H133712   3.331   0.720   1.737  0.6547 -2.3523 -0.0428
 4099TIP3    H233713   3.407   0.801   1.634 -1.1911  1.3565  1.3311
 4100TIP3   OH233714   2.898   6.597  11.709 -0.6005 -0.0047  0.3008
 4100TIP3    H133715   2.977   6.636  11.747 -0.9464  1.0532 -0.0262
 4100TIP3    H233716   2.830   6.611  11.774 -1.0545  1.2634 -0.4112
 4101TIP3   OH233717   1.712   1.257  12.577 -0.1690  0.2360 -0.0611
 4101TIP3    H133718   1.697   1.184  12.518  1.4268 -2.6748  2.8364
 4101TIP3    H233719   1.636   1.259  12.634 -1.2826  2.4580 -1.4670
 4102TIP3   OH233720   6.516   6.263  10.686 -0.5396 -0.0389  0.0244
 4102TIP3    H133721   6.599   6.226  10.657 -1.1312 -0.2459 -1.4553
 4102TIP3    H233722   6.500   6.222  10.771  0.3567 -0.7957 -0.1617
 4103TIP3   OH233723   3.868   4.313   4.641  0.0394 -0.0584  0.4495
 4103TIP3    H133724   3.944   4.343   4.591  2.5136 -1.1187  3.2407
 4103TIP3    H233725   3.833   4.391   4.683 -0.4196  0.4284 -0.8020
 4104TIP3   OH233726   0.089   4.265   1.303 -0.5036 -0.3317 -0.3749
 4104TIP3    H133727   0.174   4.296   1.335 -0.6056 -0.3034 -0.1309
 4104TIP3    H233728   0.093   4.277   1.208  0.3456 -1.7018 -0.5473
 4105TIP3   OH233729   2.205   0.150   4.275  0.6897 -0.0462 -0.3049
 4105TIP3    H133730   2.182   0.234   4.314  0.4270 -0.6484  0.8910
 4105TIP3    H233731   2.269   0.171   4.208 -0.5514  1.2751 -1.1269
 4106TIP3   OH233732   2.015   5.669  15.204  0.0062 -0.0064  0.1634
 4106TIP3    H133733   2.076   5.730  15.162  0.7593 -0.4809  0.5465
 4106TIP3    H233734   1.934   5.719  15.213  0.2344  0.5321 -0.6459
 4107TIP3   OH233735   2.537   6.093  14.942  0.1586 -0.0716 -0.2336
 4107TIP3    H133736   2.457   6.136  14.912  0.7276  1.3995  0.2814
 4107TIP3    H233737   2.560   6.032  14.871 -1.3396 -0.4527 -0.4262
 4108TIP3   OH233738   6.406   6.193  16.953  0.3236 -0.5578  0.2765
 4108TIP3    H133739   6.491   6.159  16.981 -0.1641 -1.3331  0.8468
 4108TIP3    H233740   6.400   6.169  16.860  0.8863 -0.1369  0.1186
 4109TIP3   OH233741   3.627   0.318   2.844 -0.5585 -0.2142  0.7824
 4109TIP3    H133742   3.655   0.404   2.877  0.2567  0.2509 -0.9981
 4109TIP3    H233743   3.536   0.332   2.818  0.1438  0.7577 -1.3956
 4110TIP3   OH233744   5.890   0.129   2.879 -0.5605  0.2802 -0.0268
 4110TIP3    H133745   5.842   0.203   2.841 -0.5221 -0.5653 -1.8271
 4110TIP3    H233746   5.821   0.069   2.909 -0.5910  0.9755  1.3650
 4111TIP3   OH233747   3.304   1.268  11.637  0.5972 -0.4353  0.2689
 4111TIP3    H133748   3.215   1.303  11.642  0.7410 -0.2117  1.8635
 4111TIP3    H233749   3.349   1.324  11.573 -0.0267  0.3586  0.5150
 4112TIP3   OH233750   4.135   5.602  14.105  0.0687  0.2686 -0.2673
 4112TIP3    H133751   4.198   5.539  14.139  0.0783  0.0577 -0.6711
 4112TIP3    H233752   4.051   5.573  14.141  0.4810  1.9992  2.3698
 4113TIP3   OH233753   3.815   0.185   3.783 -0.4626 -0.3102 -0.2143
 4113TIP3    H133754   3.842   0.150   3.698  0.2343 -0.4321  0.0528
 4113TIP3    H233755   3.730   0.226   3.766 -0.6739 -0.9782 -0.8109
 4114TIP3   OH233756   3.625   3.345  13.411  0.2465 -0.5327 -0.0915
 4114TIP3    H133757   3.563   3.283  13.451 -0.0125  1.1450  2.3206
 4114TIP3    H233758   3.711   3.309  13.432  0.0977 -0.1741  1.2211
 4115TIP3   OH233759   5.245   1.804  16.339  0.3514  0.3950  0.2710
 4115TIP3    H133760   5.323   1.845  16.375 -0.0782  2.2472 -0.7626
 4115TIP3    H233761   5.211   1.750  16.410  1.2208  1.4963  1.5778
 4116TIP3   OH233762   6.078   2.858   6.252 -0.6628  0.5579 -0.1542
 4116TIP3    H133763   6.070   2.766   6.229 -1.7355  0.5031  0.3580
 4116TIP3    H233764   6.115   2.900   6.174 -0.3313 -0.2721 -0.4493
 4117TIP3   OH233765   4.762   1.716  14.750  0.0199  0.3489 -0.4610
 4117TIP3    H133766   4.806   1.797  14.776  0.3811  0.7842 -2.2376
 4117TIP3    H233767   4.711   1.741  14.672 -0.0314 -1.0812 -0.9219
 4118TIP3   OH233768   0.878   4.298  12.385  0.3367 -0.7527  0.3406
 4118TIP3    H133769   0.974   4.297  12.375  0.2084 -2.8619 -1.4807
 4118TIP3    H233770   0.847   4.345  12.307 -0.1279  0.8151  1.4284
 4119TIP3   OH233771   5.427   5.598  16.368 -0.2381 -0.3860  0.7052
 4119TIP3    H133772   5.401   5.606  16.276  1.3206  2.4036  0.4063
 4119TIP3    H233773   5.362   5.649  16.416 -0.4805 -1.0127  1.0573
 4120TIP3   OH233774   1.233   0.518  16.521 -0.1533  0.4000  0.3321
 4120TIP3    H133775   1.140   0.523  16.501 -0.3420  3.1355  1.4872
 4120TIP3    H233776   1.241   0.441  16.577 -1.2310 -1.3546 -1.7791
 4121TIP3   OH233777   6.083   2.289   1.637 -0.0583 -0.2748  0.0167
 4121TIP3    H133778   5.990   2.307   1.652  0.0490  0.1779  0.1710
 4121TIP3    H233779   6.107   2.346   1.564  0.3243  0.3356  0.6022
 4122TIP3   OH233780   0.455   4.916  14.138  0.1252  0.4551 -0.1057
 4122TIP3    H133781   0.377   4.969  14.120 -0.8831 -1.1234 -0.5414
 4122TIP3    H233782   0.427   4.826  14.125  1.5895 -0.2683  1.3770
 4123TIP3   OH233783   0.587   3.308   4.061 -0.6218 -0.6449 -0.6767
 4123TIP3    H133784   0.634   3.225   4.067 -1.0972 -0.8679  0.0920
 4123TIP3    H233785   0.499   3.284   4.031  0.1365 -0.0793 -3.6755
 4124TIP3   OH233786   6.442   2.007  13.876  0.1763  0.9586  0.5843
 4124TIP3    H133787   6.485   1.951  13.940  1.5297  1.1310 -0.1356
 4124TIP3    H233788   6.438   2.093  13.919  1.2962  1.1324  0.3815
 4125TIP3   OH233789   2.969   0.293   1.218 -0.0716 -0.1595 -0.0368
 4125TIP3    H133790   2.902   0.299   1.285 -1.0479  1.2889 -1.0775
 4125TIP3    H233791   2.992   0.384   1.199  2.4065 -0.6025  0.4559
 4126TIP3   OH233792   2.175   1.505   0.022  0.4715  0.0046  0.1727
 4126TIP3    H133793   2.194   1.510  -0.072  0.0250 -1.1869 -0.0009
 4126TIP3    H233794   2.212   1.586   0.058  1.7239 -0.0690 -0.8448
 4127TIP3   OH233795   5.079   4.780   3.304  0.0895 -0.0285  0.2488
 4127TIP3    H133796   5.089   4.872   3.280  0.3594 -0.3490 -0.9585
 4127TIP3    H233797   5.162   4.756   3.344  0.2268  0.1066  0.0473
 4128TIP3   OH233798   4.771   4.886   1.414  0.3125 -0.1636 -0.4205
 4128TIP3    H133799   4.720   4.872   1.335 -1.1365  0.6600  0.3190
 4128TIP3    H233800   4.713   4.860   1.485  0.7858  1.1087  0.4779
 4129TIP3   OH233801   1.114   0.173   3.847  0.1723  0.1786  0.2826
 4129TIP3    H133802   1.091   0.080   3.844  1.5524 -0.1688 -1.6162
 4129TIP3    H233803   1.032   0.217   3.868 -0.4424 -1.4704  1.5522
 4130TIP3   OH233804   4.008   5.708   5.325 -0.3467  0.2609 -0.2304
 4130TIP3    H133805   4.069   5.717   5.252 -2.5451 -1.5047 -2.4156
 4130TIP3    H233806   3.928   5.752   5.296 -1.6912 -1.5548  0.5372
 4131TIP3   OH233807   5.273   1.838   4.099 -0.8442  0.5547  0.6867
 4131TIP3    H133808   5.333   1.879   4.037 -1.2896  1.4989  0.8473
 4131TIP3    H233809   5.258   1.750   4.065  0.3583  0.4237  0.4710
 4132TIP3   OH233810   5.388   0.248   3.896  0.9064  0.6700  0.1634
 4132TIP3    H133811   5.315   0.290   3.941  1.9316  2.2530  0.4245
 4132TIP3    H233812   5.391   0.160   3.933 -0.4549  0.7902  0.6059
 4133TIP3   OH233813   6.733   1.604  14.086  0.6480 -0.0764  0.1723
 4133TIP3    H133814   6.780   1.539  14.137  1.0275  0.2828  0.2867
 4133TIP3    H233815   6.793   1.627  14.015 -0.8541 -2.5656 -2.1331
 4134TIP3   OH233816   0.336   1.858  11.730  0.3668  0.0530  0.3622
 4134TIP3    H133817   0.395   1.933  11.732  0.9857 -0.4424  0.7337
 4134TIP3    H233818   0.349   1.820  11.643  0.3510  0.1272  0.3261
 4135TIP3   OH233819   1.988   1.145   0.077 -0.1273 -0.3956 -0.0894
 4135TIP3    H133820   2.033   1.208   0.133  1.5171 -2.0607  0.5650
 4135TIP3    H233821   2.059   1.100   0.031 -1.1858 -2.2312  0.0000
 4136TIP3   OH233822   0.877   2.757   0.772  0.1634  0.3289 -0.2106
 4136TIP3    H133823   0.851   2.679   0.722 -1.4571  0.6760  0.0400
 4136TIP3    H233824   0.895   2.823   0.706 -0.4884  0.3430 -0.3803
 4137TIP3   OH233825   3.224   3.316  16.700  0.1868 -0.2625  0.3838
 4137TIP3    H133826   3.187   3.261  16.768 -0.8781 -1.3339 -0.9934
 4137TIP3    H233827   3.291   3.369  16.744 -0.0854 -1.3045  2.1059
 4138TIP3   OH233828   0.513   6.416  12.728  0.0533  0.3760 -0.3678
 4138TIP3    H133829   0.598   6.453  12.706 -0.3057 -0.0790 -2.7604
 4138TIP3    H233830   0.521   6.323  12.705 -0.5993 -0.0230  0.9315
 4139TIP3   OH233831   2.088   5.019  13.383  0.0063 -0.5430 -0.4079
 4139TIP3    H133832   2.112   4.992  13.472  2.4704  4.6512  0.8695
 4139TIP3    H233833   1.997   5.047  13.390  0.1977 -0.1312  0.5078
 4140TIP3   OH233834   4.628   4.584  11.668  0.2753 -0.0143  0.6796
 4140TIP3    H133835   4.586   4.656  11.621 -0.9835 -0.8273  0.4932
 4140TIP3    H233836   4.696   4.552  11.609 -2.4768 -2.2467 -1.5737
 4141TIP3   OH233837   4.235   0.826   5.827  0.1764  0.0567 -0.4012
 4141TIP3    H133838   4.234   0.730   5.818  0.3063  0.0371 -0.2126
 4141TIP3    H233839   4.220   0.841   5.920  0.5816  0.2085 -0.3579
 4142TIP3   OH233840   6.376   2.543  13.039  0.3649  0.2135 -0.0170
 4142TIP3    H133841   6.351   2.462  12.995  2.0227 -0.5258  0.3079
 4142TIP3    H233842   6.450   2.576  12.988 -0.7458  1.9464 -0.5757
 4143TIP3   OH233843   2.859   5.133   3.439 -0.0721  0.2275 -0.3047
 4143TIP3    H133844   2.857   5.213   3.492 -0.5639 -0.3401  0.5641
 4143TIP3    H233845   2.774   5.131   3.395 -0.6092 -0.4990  0.7390
 4144TIP3   OH233846   0.292   1.679   3.949  0.3834  0.3304  0.3131
 4144TIP3    H133847   0.241   1.733   4.010  0.4111 -0.0124  0.6426
 4144TIP3    H233848   0.227   1.630   3.900  0.2988  1.4890 -0.7875
 4145TIP3   OH233849   3.384   2.697  15.142  0.4617  0.1632  0.1778
 4145TIP3    H133850   3.295   2.703  15.109  0.6966  1.7196 -0.2593
 4145TIP3    H233851   3.406   2.786  15.169  1.7157 -0.2840  0.7437
 4146TIP3   OH233852   0.991   1.082   5.622  0.0632 -0.5890  0.3801
 4146TIP3    H133853   0.988   1.151   5.556  0.3492 -0.8911  0.0449
 4146TIP3    H233854   1.046   1.118   5.692  1.7197 -1.1391 -0.5858
 4147TIP3   OH233855   3.323   5.511  14.392 -0.2209 -0.4698  0.5283
 4147TIP3    H133856   3.381   5.582  14.416 -0.0542 -0.7114  0.8486
 4147TIP3    H233857   3.292   5.476  14.476 -1.5129  0.2109  0.3635
 4148TIP3   OH233858   4.105   4.913  15.036  0.4813  0.3164 -0.1102
 4148TIP3    H133859   4.172   4.973  15.002 -1.4708  1.8342 -1.5386
 4148TIP3    H233860   4.064   4.877  14.958 -0.0457 -0.9918  0.7407
 4149TIP3   OH233861   6.529   0.497   0.945 -0.0473 -1.0439  0.6012
 4149TIP3    H133862   6.597   0.509   0.880  1.0942 -0.9649  1.7669
 4149TIP3    H233863   6.448   0.524   0.901  1.0617  1.8331  0.0965
 4150TIP3   OH233864   5.095   1.409   3.795 -0.7152 -0.2644 -0.0842
 4150TIP3    H133865   5.179   1.365   3.782 -0.0292  1.5256 -2.4046
 4150TIP3    H233866   5.036   1.369   3.732 -0.8487  0.2739 -0.3094
 4151TIP3   OH233867   6.651   1.872  16.537  0.6166  0.7635 -0.3412
 4151TIP3    H133868   6.555   1.866  16.535  0.5935  0.3700  0.8047
 4151TIP3    H233869   6.676   1.893  16.447 -0.6032  1.7619 -0.4816
 4152TIP3   OH233870   4.168   0.856  13.215 -0.5115 -0.2354  0.0951
 4152TIP3    H133871   4.160   0.762  13.228 -0.1127 -0.1599  0.9586
 4152TIP3    H233872   4.094   0.893  13.264 -1.7388 -0.1655 -1.6911
 4153TIP3   OH233873   2.410   6.078   4.179 -0.7875 -0.3283 -0.2892
 4153TIP3    H133874   2.427   6.143   4.248 -3.7254 -0.5411  0.7808
 4153TIP3    H233875   2.458   6.111   4.103  0.2885  1.4345  1.0615
 4154TIP3   OH233876   4.168   5.568   3.283 -0.1403 -0.3107 -0.2137
 4154TIP3    H133877   4.201   5.507   3.349 -0.1350  0.7876  0.8345
 4154TIP3    H233878   4.200   5.533   3.200  1.2426 -0.8455  0.5132
 4155TIP3   OH233879   1.700   0.392   4.186 -0.1645  0.2625 -0.3793
 4155TIP3    H133880   1.615   0.349   4.190  0.0485 -0.3537 -1.8770
 4155TIP3    H233881   1.761   0.323   4.161  1.2224  0.1836  2.6863
 4156TIP3   OH233882   5.312   4.039  16.048  0.2108 -0.0122  0.4310
 4156TIP3    H133883   5.220   4.059  16.035  0.1349  0.2925  1.3677
 4156TIP3    H233884   5.313   3.961  16.103  0.5233 -0.6279 -0.4152
 4157TIP3   OH233885   3.536   5.650   3.190  0.0805 -0.1789  0.5397
 4157TIP3    H133886   3.560   5.564   3.226  0.9372  0.5386  1.7458
 4157TIP3    H233887   3.459   5.676   3.240 -0.5403 -0.4884 -0.2348
 4158TIP3   OH233888   5.009   2.356  13.078  0.7658 -0.1964 -0.0563
 4158TIP3    H133889   5.087   2.301  13.086 -0.2138 -1.4348  1.4341
 4158TIP3    H233890   4.936   2.298  13.098 -0.4725  1.2219 -0.2711
 4159TIP3   OH233891   5.261   2.558  12.211 -0.2029  1.0686 -0.0154
 4159TIP3    H133892   5.246   2.576  12.118 -0.4674  0.2422 -0.1418
 4159TIP3    H233893   5.355   2.547  12.218 -0.2512  0.2973 -0.3608
 4160TIP3   OH233894   3.150   2.129  17.076 -0.3675 -0.3355 -0.2167
 4160TIP3    H133895   3.087   2.190  17.039 -0.6766 -1.7586 -2.1961
 4160TIP3    H233896   3.215   2.185  17.119 -1.6263  1.2614 -0.2712
 4161TIP3   OH233897   1.546   6.630  12.100 -0.5678 -0.0314 -0.7538
 4161TIP3    H133898   1.579   6.708  12.055 -2.1542  0.1300 -1.7122
 4161TIP3    H233899   1.617   6.567  12.095  0.6689  1.2567 -0.1592
 4162TIP3   OH233900   0.583   0.626   1.099 -0.2083  0.6905 -0.7335
 4162TIP3    H133901   0.600   0.698   1.039 -0.4536  0.3449 -1.2187
 4162TIP3    H233902   0.629   0.551   1.062 -0.6464  0.3883 -0.6871
 4163TIP3   OH233903   3.221   1.711   2.009 -0.7111 -0.3026 -0.5065
 4163TIP3    H133904   3.246   1.759   2.088 -1.5348 -0.6060 -0.0502
 4163TIP3    H233905   3.179   1.776   1.954 -0.8112 -0.2514 -0.3709
 4164TIP3   OH233906   0.894   0.350   3.947  0.5616 -0.4063  0.1496
 4164TIP3    H133907   0.966   0.411   3.960  0.0078  0.0328  1.3521
 4164TIP3    H233908   0.815   0.403   3.961 -0.0401 -0.7244 -1.7601
 4165TIP3   OH233909   2.800   1.961   1.046  0.1967 -0.1499 -0.4030
 4165TIP3    H133910   2.709   1.990   1.039  0.0544 -0.6067 -0.4715
 4165TIP3    H233911   2.834   2.006   1.123 -0.0322  0.1592 -0.4797
 4166TIP3   OH233912   3.142   0.431   0.674 -0.3553 -0.7075  0.4339
 4166TIP3    H133913   3.122   0.474   0.757  2.0627 -1.6842  1.6138
 4166TIP3    H233914   3.206   0.488   0.632 -0.4894 -0.9363 -0.0883
 4167TIP3   OH233915   3.149   6.381  17.197  0.0916  0.3091  0.6636
 4167TIP3    H133916   3.082   6.359  17.132  0.8925  3.1617 -1.3283
 4167TIP3    H233917   3.122   6.467  17.231  1.5541  0.4882  1.4595
 4168TIP3   OH233918   1.102   5.313   5.875 -1.0746  0.3763 -0.3035
 4168TIP3    H133919   1.036   5.248   5.898 -0.5424 -0.1603 -0.2896
 4168TIP3    H233920   1.077   5.343   5.787  0.0812 -1.6785 -1.4054
 4169TIP3   OH233921   0.716   5.943  11.215  0.1186  0.0360  0.3822
 4169TIP3    H133922   0.810   5.947  11.197  0.2350 -0.6334  0.8110
 4169TIP3    H233923   0.688   5.857  11.182 -0.5716  0.6616 -0.7482
 4170TIP3   OH233924   2.974   0.823  14.727 -0.3596  0.1832  0.2303
 4170TIP3    H133925   3.029   0.748  14.752  1.3250  1.1218 -0.4931
 4170TIP3    H233926   2.991   0.835  14.634 -2.0017  0.3824 -0.0744
 4171TIP3   OH233927   5.722   1.916  12.425 -0.0631 -0.0485 -0.1570
 4171TIP3    H133928   5.662   1.843  12.416  0.7459 -0.5596 -1.9315
 4171TIP3    H233929   5.702   1.954  12.510 -1.1688 -1.7247  0.3695
 4172TIP3   OH233930   5.731   2.114  17.099  0.5595 -0.6406 -0.7175
 4172TIP3    H133931   5.703   2.204  17.116 -0.5317 -0.7093 -1.9763
 4172TIP3    H233932   5.723   2.070  17.184 -1.0164 -0.0695 -0.5361
 4173TIP3   OH233933   5.380   3.037   4.684 -0.0156 -0.4694 -0.3823
 4173TIP3    H133934   5.313   2.988   4.732  1.2713  0.7649  2.9482
 4173TIP3    H233935   5.438   2.969   4.649 -0.6569 -1.4633  0.4186
 4174TIP3   OH233936   3.526   4.812   0.674 -0.1842 -0.3224  0.6652
 4174TIP3    H133937   3.580   4.858   0.738 -0.5254 -0.2403  0.8906
 4174TIP3    H233938   3.542   4.719   0.692 -0.2863 -0.2991  0.8693
 4175TIP3   OH233939   0.696   0.831  14.585 -0.5598  0.2381  0.0174
 4175TIP3    H133940   0.741   0.916  14.584 -1.4742  0.7503 -1.5766
 4175TIP3    H233941   0.727   0.787  14.506 -1.3759 -0.1957 -0.0705
 4176TIP3   OH233942   6.566   3.796   0.073 -0.4523  0.1697  0.1665
 4176TIP3    H133943   6.637   3.792   0.137 -1.2989 -0.3545  1.1048
 4176TIP3    H233944   6.499   3.737   0.108 -1.2717  0.4932 -0.8015
 4177TIP3   OH233945   6.258   2.712  11.711 -0.4332 -0.0803  0.0342
 4177TIP3    H133946   6.313   2.780  11.671 -0.3377 -0.2579 -0.1456
 4177TIP3    H233947   6.168   2.738  11.692 -0.4091  0.2181  0.3378
 4178TIP3   OH233948   5.006   6.175  14.803  0.4452 -0.1365 -0.1758
 4178TIP3    H133949   5.073   6.145  14.741  0.3773  0.2689 -0.4445
 4178TIP3    H233950   5.010   6.270  14.799  0.1826 -0.1084  0.1683
 4179TIP3   OH233951   4.123   6.252  14.390  0.1151  0.4752  0.1554
 4179TIP3    H133952   4.128   6.160  14.364  0.1272  0.7576 -0.8624
 4179TIP3    H233953   4.184   6.260  14.463 -0.0796 -0.3793  0.4203
 4180TIP3   OH233954   0.284   5.182  16.572  0.2965 -0.3707 -0.6438
 4180TIP3    H133955   0.246   5.216  16.491  0.7020  0.2801 -0.5695
 4180TIP3    H233956   0.210   5.147  16.621 -0.5714  2.5388  0.3474
 4181TIP3   OH233957   3.342   4.583   1.058 -0.2732  0.2990 -0.3846
 4181TIP3    H133958   3.349   4.663   1.008  0.5143  0.9152  0.6698
 4181TIP3    H233959   3.426   4.574   1.103  0.0661 -1.6852 -1.2934
 4182TIP3   OH233960   5.766   0.202  14.759 -0.1541 -0.0353 -0.0195
 4182TIP3    H133961   5.785   0.108  14.767  0.4674  0.1560  0.9504
 4182TIP3    H233962   5.681   0.206  14.715  0.2350 -1.0272 -0.8936
 4183TIP3   OH233963   4.132   0.969  13.530  0.3776  0.4227 -0.4934
 4183TIP3    H133964   4.041   0.957  13.503 -0.1501  1.9647  0.4836
 4183TIP3    H233965   4.127   1.024  13.607  2.1177 -0.1795  0.0947
 4184TIP3   OH233966   6.456   5.365  13.598  0.0267 -0.1612  0.3872
 4184TIP3    H133967   6.410   5.430  13.546 -0.8025 -1.0339 -0.0046
 4184TIP3    H233968   6.387   5.307  13.630  0.7976 -1.2410  0.1519
 4185TIP3   OH233969   4.050   0.618  16.484 -0.2832 -0.1319 -0.2962
 4185TIP3    H133970   4.140   0.646  16.467  0.1532 -1.3094 -0.0506
 4185TIP3    H233971   4.008   0.615  16.398  0.7126 -2.1139 -0.7933
 4186TIP3   OH233972   1.738   1.153  14.452 -0.2704  0.2330  0.2848
 4186TIP3    H133973   1.668   1.186  14.509 -0.5779  0.8091 -0.3976
 4186TIP3    H233974   1.722   1.059  14.446 -0.4369  0.2244  0.8789
 4187TIP3   OH233975   1.273   3.812   4.784  0.1266  0.4646  0.0366
 4187TIP3    H133976   1.332   3.829   4.711  1.0208  0.6853  0.7852
 4187TIP3    H233977   1.195   3.775   4.744  1.0584 -0.5550 -0.9146
 4188TIP3   OH233978   3.763   5.554   0.330 -0.3029  0.1998 -0.5468
 4188TIP3    H133979   3.760   5.587   0.419  0.0973 -1.1015 -0.0269
 4188TIP3    H233980   3.787   5.631   0.277  2.3883  0.4301  0.8100
 4189TIP3   OH233981   1.212   1.746  14.357  0.5623  0.4257  0.1504
 4189TIP3    H133982   1.182   1.658  14.382  0.5843 -0.6218 -3.0709
 4189TIP3    H233983   1.298   1.732  14.318 -0.0989  1.5735 -1.8762
 4190TIP3   OH233984   2.735   3.899   4.265 -0.1576  0.5543 -0.2918
 4190TIP3    H133985   2.740   3.864   4.176 -0.2828 -1.6526  0.5196
 4190TIP3    H233986   2.821   3.939   4.280 -0.5920  2.1768 -1.8385
 4191TIP3   OH233987   6.339   4.172  13.268  0.2344 -0.1438  0.3659
 4191TIP3    H133988   6.408   4.234  13.290 -0.2401  0.8024 -0.6938
 4191TIP3    H233989   6.332   4.115  13.344  0.5670  1.2154  1.4511
 4192TIP3   OH233990   0.402   5.966   5.599 -0.0737  0.0667  0.0602
 4192TIP3    H133991   0.338   5.913   5.645 -0.4976 -0.0294 -0.6322
 4192TIP3    H233992   0.445   6.018   5.668 -0.7301 -0.0361  0.5503
 4193TIP3   OH233993   2.502   4.429   1.723 -0.5283  0.0825 -0.6819
 4193TIP3    H133994   2.489   4.510   1.673  0.4113  1.0359  0.5488
 4193TIP3    H233995   2.519   4.459   1.812  1.8598 -1.3494 -0.5681
 4194TIP3   OH233996   6.016   5.737  16.207  0.1261 -0.3392  0.0254
 4194TIP3    H133997   5.957   5.791  16.155  0.7156  1.9032  1.5651
 4194TIP3    H233998   6.101   5.781  16.202  0.6191 -1.0538  1.3891
 4195TIP3   OH233999   5.797   6.290  11.685 -0.8058 -0.5469 -0.5683
 4195TIP3    H134000   5.789   6.212  11.741 -1.8194  0.5453  0.8772
 4195TIP3    H234001   5.728   6.280  11.620 -1.7940 -0.2819  0.3972
 4196TIP3   OH234002   3.110   4.345  13.575 -0.3945  0.2234  0.0377
 4196TIP3    H134003   3.046   4.406  13.538 -2.3774 -0.9181  1.3979
 4196TIP3    H234004   3.111   4.272  13.514  0.8635  0.9423 -0.8236
 4197TIP3   OH234005   0.771   5.349   1.399  0.0969 -0.4039 -0.4521
 4197TIP3    H134006   0.809   5.275   1.447 -2.5602  0.2842  3.1005
 4197TIP3    H234007   0.677   5.330   1.395 -0.6200  2.4842  0.1942
 4198TIP3   OH234008   3.036   2.565  15.822 -0.0370 -0.2044 -0.0304
 4198TIP3    H134009   3.069   2.548  15.734 -2.6187  0.6317 -1.2661
 4198TIP3    H234010   3.064   2.655  15.841  1.8034 -0.8908  0.6911
 4199TIP3   OH234011   1.962   3.511  13.514 -0.1417  0.0165  0.1699
 4199TIP3    H134012   1.901   3.520  13.442 -1.2080  0.3259  1.0847
 4199TIP3    H234013   2.045   3.485  13.473 -0.0845  2.4271 -1.4235
 4200TIP3   OH234014   2.260   2.012   0.616 -0.0326  0.2101 -0.0295
 4200TIP3    H134015   2.304   1.945   0.669  0.7989  0.4753 -0.3706
 4200TIP3    H234016   2.187   1.966   0.575 -1.0039  0.1038  1.7140
 4201TIP3   OH234017   0.125   2.484   0.635 -0.2923 -0.3218  0.1463
 4201TIP3    H134018   0.111   2.566   0.587  0.1244 -0.3372 -0.0109
 4201TIP3    H234019   0.037   2.452   0.654 -0.4850  0.8896  1.4824
 4202TIP3   OH234020   0.529   5.701  11.648 -0.4890  0.3316 -0.2427
 4202TIP3    H134021   0.498   5.773  11.593 -0.4211  0.9451  0.5033
 4202TIP3    H234022   0.622   5.694  11.629 -0.3781  0.8198  0.0789
 4203TIP3   OH234023   1.835   4.162   3.163  0.0856 -0.3196 -0.3350
 4203TIP3    H134024   1.842   4.166   3.068  4.7909  0.1266 -0.2034
 4203TIP3    H234025   1.780   4.237   3.187  1.5057  1.6053 -2.6428
 4204TIP3   OH234026   0.060   2.536  15.768 -0.1064  0.1362 -0.5003
 4204TIP3    H134027   0.014   2.597  15.710 -0.6078  0.4072  0.1713
 4204TIP3    H234028   0.021   2.451  15.748 -1.0709  0.3944  0.2098
 4205TIP3   OH234029   5.683   2.190   1.963 -0.2809 -0.3767 -0.5057
 4205TIP3    H134030   5.593   2.221   1.978 -0.1783  0.1417 -0.9222
 4205TIP3    H234031   5.738   2.266   1.985  0.0689 -0.7536 -0.0624
 4206TIP3   OH234032   4.108   6.123   3.012  0.3603  0.3062  0.4310
 4206TIP3    H134033   4.057   6.183   3.065 -0.7724  2.0388 -2.4009
 4206TIP3    H234034   4.052   6.045   3.004 -0.4329  0.9020  0.0256
 4207TIP3   OH234035   5.920   2.215  13.948  0.5710  0.1759  0.0754
 4207TIP3    H134036   5.911   2.120  13.949 -0.4654  0.2682 -0.1833
 4207TIP3    H234037   5.947   2.236  13.859  1.4884  0.0831  0.3119
 4208TIP3   OH234038   1.135   0.165   5.070 -0.1847 -0.1415  0.0122
 4208TIP3    H134039   1.088   0.131   4.994 -0.9250  0.6699  0.0932
 4208TIP3    H234040   1.068   0.171   5.139  0.2918 -0.0735  0.4744
 4209TIP3   OH234041   3.587   3.583   2.041  0.2708 -0.6639  0.1555
 4209TIP3    H134042   3.623   3.568   1.954 -0.3288  1.3905 -0.4868
 4209TIP3    H234043   3.630   3.662   2.073 -0.7436 -0.4349  1.0201
 4210TIP3   OH234044   5.669   2.155   0.957  0.4452 -0.2434  0.0034
 4210TIP3    H134045   5.613   2.193   0.890  0.0861  0.2709  0.5806
 4210TIP3    H234046   5.747   2.126   0.910  0.7400  1.2171 -0.4626
 4211TIP3   OH234047   0.862   4.070   5.607 -0.1190  0.5960 -0.1615
 4211TIP3    H134048   0.839   4.147   5.659 -0.8264  0.2309  0.0797
 4211TIP3    H234049   0.945   4.040   5.644 -0.5624  0.4006  0.7013
 4212TIP3   OH234050   2.284   6.695   1.489 -0.2358 -0.1893 -0.3650
 4212TIP3    H134051   2.339   6.733   1.558 -1.9174 -0.8189  1.3999
 4212TIP3    H234052   2.219   6.763   1.470 -1.2347 -0.8978  0.4256
 4213TIP3   OH234053   1.266   6.627   4.181 -0.2975 -0.1626 -0.1915
 4213TIP3    H134054   1.317   6.593   4.255  0.8589 -0.3315 -1.0277
 4213TIP3    H234055   1.288   6.569   4.108 -0.5462  0.6570 -0.9432
 4214TIP3   OH234056   0.307   6.517   5.066 -0.3522  0.1930 -0.2176
 4214TIP3    H134057   0.306   6.436   5.116 -0.1257  1.3643  1.7936
 4214TIP3    H234058   0.215   6.540   5.056 -0.3770  0.8581  1.2835
 4215TIP3   OH234059   5.630   6.422   1.971  0.1359  0.3958  0.5616
 4215TIP3    H134060   5.568   6.490   1.947 -0.0605  1.2014  3.0812
 4215TIP3    H234061   5.579   6.341   1.972 -0.2128  0.6052 -0.0208
 4216TIP3   OH234062   1.146   6.636  13.069  0.5049  0.1323  0.4124
 4216TIP3    H134063   1.161   6.685  13.150  1.2723  1.8908 -0.7304
 4216TIP3    H234064   1.140   6.703  13.001  3.1983 -1.3889 -1.5169
 4217TIP3   OH234065   5.329   5.301   0.706 -0.3921 -0.2521 -0.0491
 4217TIP3    H134066   5.394   5.250   0.755  0.1426  0.5471  0.1096
 4217TIP3    H234067   5.342   5.391   0.738 -1.3213 -0.0241 -0.3019
 4218TIP3   OH234068   4.112   1.003  14.989  0.1169 -0.2482 -0.4424
 4218TIP3    H134069   4.048   1.030  15.055  0.9331  0.2687  0.1573
 4218TIP3    H234070   4.067   1.015  14.905 -0.2175  1.0986 -0.0905
 4219TIP3   OH234071   3.369   1.471  14.618 -0.1646  0.0054  0.2258
 4219TIP3    H134072   3.413   1.444  14.537 -0.5440 -0.5188  0.1832
 4219TIP3    H234073   3.335   1.558  14.599 -0.3711 -0.1711 -0.2336
 4220TIP3   OH234074   0.458   1.626  16.300  0.2513 -0.5616 -0.7295
 4220TIP3    H134075   0.486   1.594  16.214  0.4336 -1.1443 -0.4565
 4220TIP3    H234076   0.412   1.707  16.281  2.6944  0.8167 -1.1353
 4221TIP3   OH234077   4.934   2.509  14.547 -0.0790 -0.2547  0.3301
 4221TIP3    H134078   4.914   2.471  14.633 -0.4653  0.1233  0.4121
 4221TIP3    H234079   4.864   2.572  14.532 -0.1309 -0.4595 -0.3547
 4222TIP3   OH234080   3.826   6.548  15.955  0.0811  0.2436  0.3499
 4222TIP3    H134081   3.794   6.510  16.037  0.9633  0.2832  0.7370
 4222TIP3    H234082   3.755   6.536  15.892 -0.2224 -0.6947  0.8561
 4223TIP3   OH234083   6.132   1.988  10.926 -0.3099 -0.6386 -0.1184
 4223TIP3    H134084   6.098   1.957  10.842  1.0979 -0.7679 -0.6686
 4223TIP3    H234085   6.170   2.074  10.907  0.4250 -0.8647  0.2675
 4224TIP3   OH234086   1.810   4.587  14.027  0.1538  0.2435 -0.0980
 4224TIP3    H134087   1.805   4.499  14.065 -0.4759  0.0617 -0.5716
 4224TIP3    H234088   1.753   4.640  14.083  1.1746  0.5524  0.6807
 4225TIP3   OH234089   0.960   3.853  14.487 -0.0813 -0.0444 -0.7613
 4225TIP3    H134090   1.055   3.858  14.492 -0.0904  0.1817 -0.7997
 4225TIP3    H234091   0.942   3.817  14.400  0.0441 -2.8377  0.2878
 4226TIP3   OH234092   3.465   0.772  16.245  0.0541 -0.1092 -0.3514
 4226TIP3    H134093   3.479   0.866  16.252 -0.5892 -0.0936  1.2122
 4226TIP3    H234094   3.553   0.735  16.232  0.5257  0.6013  0.6833
 4227TIP3   OH234095   5.771   5.410  13.793  0.1700 -0.5853  0.3993
 4227TIP3    H134096   5.861   5.432  13.771  0.5689 -0.1340  2.2788
 4227TIP3    H234097   5.723   5.492  13.782 -0.0643 -0.8511 -0.7073
 4228TIP3   OH234098   5.162   2.251   5.702 -0.0835 -0.2529 -0.0935
 4228TIP3    H134099   5.168   2.312   5.776 -0.2089  0.2907 -0.5241
 4228TIP3    H234100   5.131   2.304   5.630 -0.1831 -0.8344 -0.4843
 4229TIP3   OH234101   1.793   6.256   4.528  0.0664 -0.5912 -0.2935
 4229TIP3    H134102   1.860   6.300   4.477 -0.0922 -1.1616 -1.0058
 4229TIP3    H234103   1.756   6.191   4.469 -0.9465 -0.4560  0.1712
 4230TIP3   OH234104   3.089   3.107  15.624  0.3111 -0.0794 -1.0416
 4230TIP3    H134105   3.031   3.183  15.621  0.0228 -0.2877 -0.8264
 4230TIP3    H234106   3.151   3.127  15.695  0.9015  0.4181 -1.6743
 4231TIP3   OH234107   2.752   5.933  13.950 -0.0582  0.0792  0.0241
 4231TIP3    H134108   2.768   6.017  13.905 -3.4955  0.6847 -0.3684
 4231TIP3    H234109   2.751   5.869  13.879 -0.6980  0.2764 -0.1577
 4232TIP3   OH234110   3.441   3.869  11.901 -0.1671 -0.1455  0.4226
 4232TIP3    H134111   3.475   3.941  11.847  3.0002 -0.9724  1.1505
 4232TIP3    H234112   3.458   3.896  11.991 -0.1093 -1.2672  0.7607
 4233TIP3   OH234113   3.352   3.639  11.059 -0.4447  0.1104 -0.0137
 4233TIP3    H134114   3.440   3.621  11.090 -0.7706  2.3625  2.5773
 4233TIP3    H234115   3.356   3.624  10.965  3.4353  2.5769 -0.4592
 4234TIP3   OH234116   1.132   5.929  13.623 -0.0416  0.0738 -0.9059
 4234TIP3    H134117   1.172   5.967  13.701  0.1841  0.3466 -1.1549
 4234TIP3    H234118   1.166   5.839  13.620 -0.3686 -0.0724 -0.4664
 4235TIP3   OH234119   4.235   1.723   5.702 -0.0409  0.0595  0.1732
 4235TIP3    H134120   4.247   1.764   5.616 -0.9889  1.1950  0.5637
 4235TIP3    H234121   4.317   1.738   5.748 -0.0742  0.7700  0.0035
 4236TIP3   OH234122   6.538   5.585  14.872 -0.6330 -1.1316  0.5122
 4236TIP3    H134123   6.590   5.563  14.950 -1.1274 -1.4619  0.7583
 4236TIP3    H234124   6.561   5.675  14.852  0.5586 -1.4951  0.1984
 4237TIP3   OH234125   4.626   6.553   1.047 -0.0963  0.3045  0.1826
 4237TIP3    H134126   4.549   6.526   0.998 -0.3166  0.5738  0.3758
 4237TIP3    H234127   4.686   6.589   0.982 -0.3973  0.6843  0.1126
 4238TIP3   OH234128   3.738   5.980  11.424  0.1981 -0.1408  0.0933
 4238TIP3    H134129   3.733   6.064  11.379 -0.6419 -0.0361  0.3651
 4238TIP3    H234130   3.808   5.992  11.488 -1.9845  1.5209  2.3933
 4239TIP3   OH234131   1.401   4.227  15.437  0.0320 -0.0992 -0.4001
 4239TIP3    H134132   1.412   4.266  15.351 -0.0078  0.8566  0.0147
 4239TIP3    H234133   1.311   4.249  15.462  0.5387  0.9892  0.5327
 4240TIP3   OH234134   2.212   4.471   1.445 -0.0603 -0.2773  0.3884
 4240TIP3    H134135   2.157   4.534   1.399 -1.0788 -1.8913 -0.6937
 4240TIP3    H234136   2.190   4.387   1.406  1.2642 -1.3228  1.7801
 4241TIP3   OH234137   4.097   1.834  16.797 -0.5075  0.7554 -0.1301
 4241TIP3    H134138   4.101   1.930  16.803 -1.0051  0.6800  2.1404
 4241TIP3    H234139   4.029   1.809  16.859  1.0759 -1.1927  0.9304
 4242TIP3   OH234140   6.181   4.472  11.137 -0.3566  0.1721  0.3005
 4242TIP3    H134141   6.245   4.439  11.200 -0.0229 -0.1908 -0.2223
 4242TIP3    H234142   6.097   4.437  11.168  0.0905 -1.9757 -0.7359
 4243TIP3   OH234143   3.495   0.600   1.054 -0.1346 -0.9351 -0.6817
 4243TIP3    H134144   3.464   0.689   1.035  0.7210 -0.4127  0.2541
 4243TIP3    H234145   3.480   0.551   0.973 -0.3697  0.1314 -1.3004
 4244TIP3   OH234146   1.758   0.013  16.423  0.2450  0.4645  0.1792
 4244TIP3    H134147   1.715   0.041  16.504 -1.2406  0.6822 -0.6566
 4244TIP3    H234148   1.781   0.095  16.378 -0.0944  0.3461 -0.2151
 4245TIP3   OH234149   6.071   2.619   3.821  0.0610  0.2949 -0.0368
 4245TIP3    H134150   6.165   2.635   3.835  0.0850 -0.5023  0.7959
 4245TIP3    H234151   6.048   2.551   3.885 -0.7327 -0.6587 -1.2746
 4246TIP3   OH234152   1.724   1.916   2.331  0.3598 -0.8314  0.4143
 4246TIP3    H134153   1.800   1.924   2.388 -0.2296 -1.8798  1.3944
 4246TIP3    H234154   1.745   1.843   2.273 -0.0942 -1.4920  1.0552
 4247TIP3   OH234155   6.389   1.472  15.648  0.3498 -0.1349 -0.5160
 4247TIP3    H134156   6.412   1.414  15.575 -0.2022 -1.1022  0.0510
 4247TIP3    H234157   6.348   1.414  15.712 -0.8237  0.9996 -0.1964
 4248TIP3   OH234158   5.434   2.572  12.457  0.5975 -0.4217  0.2705
 4248TIP3    H134159   5.466   2.637  12.395 -3.2866 -2.0938 -4.0204
 4248TIP3    H234160   5.400   2.623  12.531 -0.1984  2.3319 -1.8583
 4249TIP3   OH234161   4.273   0.268  14.473  0.2466 -0.3531 -0.1169
 4249TIP3    H134162   4.180   0.272  14.496 -0.1129 -0.4099 -1.4590
 4249TIP3    H234163   4.275   0.214  14.394  1.6219 -1.7491  0.8213
 4250TIP3   OH234164   3.886   0.892   1.167  0.1278 -0.1844  0.4541
 4250TIP3    H134165   3.867   0.868   1.076 -1.0938 -0.1320  0.6741
 4250TIP3    H234166   3.837   0.828   1.219  3.3109 -2.2857  1.1814
 4251TIP3   OH234167   2.785   1.761   2.681 -0.3441 -0.3446 -0.3910
 4251TIP3    H134168   2.809   1.823   2.750 -0.4694 -1.3141  0.5564
 4251TIP3    H234169   2.852   1.773   2.614  0.7320 -0.5004  0.6214
 4252TIP3   OH234170   6.358   2.113  16.952  0.1182 -0.2737  0.1790
 4252TIP3    H134171   6.436   2.140  16.903 -1.0081 -0.5355 -1.9131
 4252TIP3    H234172   6.351   2.019  16.936 -1.3385 -0.0257 -0.8497
 4253TIP3   OH234173   2.249   5.717   6.778  0.9625  0.0302 -0.3397
 4253TIP3    H134174   2.302   5.675   6.846  3.1224 -0.4884 -2.2183
 4253TIP3    H234175   2.285   5.806   6.772  1.9921 -0.4696 -1.9476
 4254TIP3   OH234176   6.498   3.340   3.355  0.4738  1.1141 -0.1343
 4254TIP3    H134177   6.512   3.356   3.448  1.9008  0.0753 -0.1284
 4254TIP3    H234178   6.585   3.317   3.322 -0.4524 -1.3182 -1.1202
 4255TIP3   OH234179   1.419   1.048   2.190  0.4001 -0.1646 -0.0840
 4255TIP3    H134180   1.363   1.101   2.247  1.3390 -0.4599  1.1410
 4255TIP3    H234181   1.414   1.092   2.105  0.6549  1.5344  0.7431
 4256TIP3   OH234182   4.576   2.034  14.694 -0.3160  0.5544 -0.6254
 4256TIP3    H134183   4.648   2.083  14.655  1.6978 -0.9849  0.9486
 4256TIP3    H234184   4.553   1.969  14.627  0.6574  0.2220 -0.6479
 4257TIP3   OH234185   5.165   4.962  15.923  0.2973  0.0919  0.3777
 4257TIP3    H134186   5.158   5.057  15.918 -0.7898  0.0574  1.0556
 4257TIP3    H234187   5.120   4.938  16.004 -0.1633 -1.0658 -0.1978
 4258TIP3   OH234188   2.405   1.585  15.314 -0.1275  0.1334 -0.5205
 4258TIP3    H134189   2.356   1.648  15.368  0.7938 -0.3506  0.9447
 4258TIP3    H234190   2.442   1.638  15.243  1.1978  1.4253  1.0529
 4259TIP3   OH234191   4.142   2.124   4.303  0.4045 -0.0204 -0.5374
 4259TIP3    H134192   4.097   2.075   4.234 -0.0329 -1.1701  0.5250
 4259TIP3    H234193   4.081   2.194   4.326 -0.1172 -0.5599 -0.2649
 4260TIP3   OH234194   2.069   2.584  14.074 -0.3506  0.1107 -0.7524
 4260TIP3    H134195   2.123   2.617  14.001 -0.2017 -0.5050 -0.9245
 4260TIP3    H234196   2.060   2.490  14.057  2.7981 -0.8912  1.9118
 4261TIP3   OH234197   4.391   6.759  15.331  0.7624 -0.6177  0.5693
 4261TIP3    H134198   4.485   6.767  15.321  0.3769  1.2672 -2.7567
 4261TIP3    H234199   4.371   6.669  15.303  1.3896 -0.3033 -0.9483
 4262TIP3   OH234200   6.121   4.700   1.281  0.2026  0.2602 -0.1170
 4262TIP3    H134201   6.074   4.684   1.199  1.3555 -2.3485 -0.3664
 4262TIP3    H234202   6.077   4.644   1.346  2.0277 -1.2235 -0.0615
 4263TIP3   OH234203   4.119   0.593   5.874  0.1325 -0.9454 -0.3049
 4263TIP3    H134204   4.080   0.549   5.798 -1.4341  0.8714 -0.6382
 4263TIP3    H234205   4.050   0.591   5.940  0.8415 -0.9100  0.4524
 4264TIP3   OH234206   4.189   5.084   3.545 -0.6093  0.2962 -0.2004
 4264TIP3    H134207   4.094   5.070   3.546 -0.6151  0.2085  1.5530
 4264TIP3    H234208   4.218   5.052   3.630  0.7640  1.8678 -0.0306
 4265TIP3   OH234209   5.262   3.118  16.740  0.0641 -0.1438  0.1052
 4265TIP3    H134210   5.269   3.158  16.826  0.0829 -0.5705  0.3049
 4265TIP3    H234211   5.343   3.067  16.730 -0.0585 -0.3101 -0.0530
 4266TIP3   OH234212   4.048   3.763   2.483  0.3773  1.0501 -0.4332
 4266TIP3    H134213   4.042   3.793   2.392  0.4275  0.5495 -0.6076
 4266TIP3    H234214   4.142   3.753   2.499  0.3593  0.9422 -0.3938
 4267TIP3   OH234215   1.527   2.813  15.170 -0.0717 -0.7523 -0.5087
 4267TIP3    H134216   1.558   2.723  15.180  0.6573 -0.7919 -2.6065
 4267TIP3    H234217   1.442   2.805  15.128  0.2402 -0.4787 -1.2188
 4268TIP3   OH234218   6.744   4.344   6.258 -0.0687 -0.4711  0.4639
 4268TIP3    H134219   6.725   4.298   6.340 -1.7035 -1.8483 -0.6211
 4268TIP3    H234220   6.704   4.430   6.269 -0.7961 -0.8542  0.9066
 4269TIP3   OH234221   5.860   4.711  15.835 -0.4472  0.5159  0.7311
 4269TIP3    H134222   5.842   4.760  15.915  0.0870  0.2576  1.0195
 4269TIP3    H234223   5.832   4.769  15.765 -0.8912  0.7594  1.1026
 4270TIP3   OH234224   3.987   3.955   1.136  0.1516  0.0174 -0.1714
 4270TIP3    H134225   4.067   4.007   1.131  0.8736 -1.1273 -2.5884
 4270TIP3    H234226   3.948   3.965   1.049 -1.8521 -0.1850  0.6759
 4271TIP3   OH234227   4.208   0.229   0.228 -0.1676  0.4650  0.3764
 4271TIP3    H134228   4.273   0.206   0.294  2.2301 -0.2110 -2.0311
 4271TIP3    H234229   4.225   0.322   0.209 -0.8453  0.6575  0.6736
 4272TIP3   OH234230   3.489   2.239   6.255  0.2250  0.3926 -0.1076
 4272TIP3    H134231   3.531   2.157   6.283  2.4977  1.7924  0.9463
 4272TIP3    H234232   3.398   2.231   6.283  0.8263 -1.0791  1.5925
 4273TIP3   OH234233   1.778   4.217  11.123  0.8176  0.3264 -0.0681
 4273TIP3    H134234   1.871   4.239  11.132  0.6258  0.9474  0.4928
 4273TIP3    H234235   1.732   4.298  11.145  0.1611  0.4462 -1.7431
 4274TIP3   OH234236   6.635   1.668   6.207  0.2536  0.2127  0.3087
 4274TIP3    H134237   6.619   1.762   6.194  1.9176  0.3875 -0.6959
 4274TIP3    H234238   6.631   1.631   6.118  1.8585 -0.2682  0.4079
 4275TIP3   OH234239   0.328   4.871   3.058 -0.4125  0.2091 -0.1618
 4275TIP3    H134240   0.413   4.895   3.021 -0.1190  0.8439  0.8735
 4275TIP3    H234241   0.325   4.917   3.142 -0.6623 -1.8919  1.0586
 4276TIP3   OH234242   4.670   5.383  11.496 -0.3132 -0.6295  0.6147
 4276TIP3    H134243   4.597   5.436  11.527  0.3226  0.1507  0.8350
 4276TIP3    H234244   4.712   5.438  11.428 -1.1206 -1.9054 -0.9767
 4277TIP3   OH234245   5.647   4.821   3.485 -0.5242  0.5096 -0.0253
 4277TIP3    H134246   5.680   4.895   3.434 -1.6945  1.9410  1.2101
 4277TIP3    H234247   5.658   4.848   3.576 -0.0080 -1.2988  0.4944
 4278TIP3   OH234248   3.967   2.656   4.897 -0.5038  0.0058  0.2550
 4278TIP3    H134249   3.974   2.575   4.846 -0.0770  0.0152  0.2991
 4278TIP3    H234250   4.010   2.723   4.843 -2.1355  0.5272 -0.4557
 4279TIP3   OH234251   1.687   6.295   2.686 -0.0496  0.3797  0.0385
 4279TIP3    H134252   1.619   6.311   2.752  1.4133  1.2571  1.3930
 4279TIP3    H234253   1.714   6.205   2.701 -3.1120 -1.2443 -2.7184
 4280TIP3   OH234254   0.895   3.725   1.003  0.1917  0.3040  0.2676
 4280TIP3    H134255   0.849   3.808   1.016  0.2398  0.1291  1.8513
 4280TIP3    H234256   0.878   3.675   1.084  0.8697 -0.8794 -0.2801
 4281TIP3   OH234257   6.210   4.613  17.183 -0.0953  0.2410  0.9725
 4281TIP3    H134258   6.277   4.644  17.122 -2.0088  1.4439 -0.6039
 4281TIP3    H234259   6.200   4.684  17.246  0.4749 -0.1788  1.5539
 4282TIP3   OH234260   1.904   0.183   3.075 -0.0680  0.3682 -0.4992
 4282TIP3    H134261   1.962   0.199   3.001  0.8196 -0.0385  0.1003
 4282TIP3    H234262   1.961   0.182   3.151 -0.9699  0.7401  0.1994
 4283TIP3   OH234263   5.440   3.648  14.363  0.1664  0.3658 -0.5912
 4283TIP3    H134264   5.421   3.722  14.422  1.1465 -1.0762  1.6842
 4283TIP3    H234265   5.355   3.614  14.339 -0.3619 -0.7316  2.4116
 4284TIP3   OH234266   1.102   3.491   2.848  0.3177  0.1963  0.0371
 4284TIP3    H134267   1.100   3.571   2.900 -0.1234  0.2725 -0.0967
 4284TIP3    H234268   1.017   3.451   2.862  1.2892 -1.3923  1.8787
 4285TIP3   OH234269   1.847   0.155   4.118  0.4591 -0.1575  0.4855
 4285TIP3    H134270   1.774   0.142   4.057  1.1647  0.4910 -0.5324
 4285TIP3    H234271   1.870   0.067   4.148 -1.3386 -0.2947  1.5638
 4286TIP3   OH234272   6.104   1.517  12.203  1.0792  0.6087 -0.0974
 4286TIP3    H134273   6.101   1.512  12.108 -2.2553 -0.2934 -0.0603
 4286TIP3    H234274   6.134   1.607  12.221  0.6514  1.1829 -1.9906
 4287TIP3   OH234275   6.275   0.751   5.216 -0.0001 -0.3105 -0.2426
 4287TIP3    H134276   6.286   0.700   5.296 -0.4150  0.0771  0.0664
 4287TIP3    H234277   6.272   0.842   5.245 -0.2512 -0.1705 -0.6877
 4288TIP3   OH234278   5.484   3.087   3.347 -0.0620  0.1963  0.3884
 4288TIP3    H134279   5.433   3.030   3.405 -0.1441 -0.2376 -0.0949
 4288TIP3    H234280   5.539   3.026   3.297  0.6690  0.6367  0.6570
 4289TIP3   OH234281   4.723   2.740  15.412 -0.3124  0.4248 -0.0661
 4289TIP3    H134282   4.635   2.764  15.382 -0.8729 -0.4795  0.8170
 4289TIP3    H234283   4.709   2.689  15.491  1.0111  0.1486  0.0162
 4290TIP3   OH234284   5.858   3.280   4.025  0.1025 -0.1528 -0.6091
 4290TIP3    H134285   5.880   3.288   4.118 -0.6752  1.4726 -0.5461
 4290TIP3    H234286   5.784   3.339   4.011  1.1781  0.8577 -2.5745
 4291TIP3   OH234287   4.888   0.781   5.386 -0.0115 -0.0322  0.5893
 4291TIP3    H134288   4.850   0.703   5.427 -1.3509  0.9322  1.2548
 4291TIP3    H234289   4.824   0.850   5.401  0.5925  0.9433 -1.0317
 4292TIP3   OH234290   6.014   1.424  14.791  0.1542 -0.2355 -0.3870
 4292TIP3    H134291   5.992   1.332  14.776 -0.0654 -0.2235 -0.1414
 4292TIP3    H234292   5.936   1.461  14.833  0.2477  0.0596 -0.4677
 4293TIP3   OH234293   0.443   4.920  14.831 -0.2191  0.0441  1.1916
 4293TIP3    H134294   0.376   4.854  14.817  0.0703 -0.3572  1.6409
 4293TIP3    H234295   0.513   4.873  14.877  0.1791  0.5561  1.1147
 4294TIP3   OH234296   6.660   2.999  14.391 -0.2211 -0.6789 -0.3414
 4294TIP3    H134297   6.723   3.064  14.358 -1.1500  0.4056 -0.0629
 4294TIP3    H234298   6.713   2.936  14.439  0.7404 -0.2080 -0.7594
 4295TIP3   OH234299   1.468   0.694   0.009  0.3541  0.0785 -0.4351
 4295TIP3    H134300   1.541   0.679   0.068  0.2544 -0.1313 -0.3633
 4295TIP3    H234301   1.409   0.620   0.025 -0.5637  0.9893  0.5525
 4296TIP3   OH234302   6.454   6.276  16.238  0.0785 -1.2799  0.2187
 4296TIP3    H134303   6.524   6.316  16.186  0.2334  0.0027  1.3592
 4296TIP3    H234304   6.424   6.346  16.296 -0.4180 -2.5321  1.5254
 4297TIP3   OH234305   0.021   1.795  11.619 -0.7074 -0.2132 -0.0744
 4297TIP3    H134306   0.002   1.867  11.679 -0.3416  1.1226 -1.4687
 4297TIP3    H234307   0.084   1.740  11.665 -2.3714 -0.6943  1.7538
 4298TIP3   OH234308   2.430   2.693  11.919 -0.2413  0.4310  0.4450
 4298TIP3    H134309   2.513   2.647  11.934 -0.0303  0.5254 -0.3906
 4298TIP3    H234310   2.374   2.664  11.991 -1.0541 -3.3172 -1.4364
 4299TIP3   OH234311   2.327   3.769  11.123  0.0533 -0.3352 -0.0353
 4299TIP3    H134312   2.272   3.742  11.197 -0.0714 -0.8406 -0.3061
 4299TIP3    H234313   2.308   3.704  11.055 -0.6062  0.7045 -0.8760
 4300TIP3   OH234314   1.202   2.949   3.771 -0.2777 -0.1819  0.2731
 4300TIP3    H134315   1.274   2.887   3.756 -0.4091 -0.4978  0.9330
 4300TIP3    H234316   1.239   3.034   3.749 -0.1819 -0.5082 -0.9441
 4301TIP3   OH234317   3.776   0.118   3.124 -0.5476 -0.3114 -0.2942
 4301TIP3    H134318   3.819   0.037   3.150 -1.8459 -1.2070 -0.8120
 4301TIP3    H234319   3.728   0.095   3.044 -1.7868  0.6593  0.1325
 4302TIP3   OH234320   0.538   3.756   3.991  0.0097 -0.4267  0.7126
 4302TIP3    H134321   0.550   3.782   3.900  0.8468  0.2510  1.0029
 4302TIP3    H234322   0.525   3.838   4.038  1.5514 -0.5868  1.4829
 4303TIP3   OH234323   0.420   2.676   3.993  0.3764  0.0604 -0.4343
 4303TIP3    H134324   0.502   2.695   4.037  1.0871  1.0717 -2.0868
 4303TIP3    H234325   0.387   2.762   3.965 -0.1985 -0.4930 -1.5513
 4304TIP3   OH234326   0.654   4.842   0.051 -0.3221  0.7984 -0.5151
 4304TIP3    H134327   0.682   4.918   0.102 -0.3556  1.9269 -2.1006
 4304TIP3    H234328   0.599   4.878  -0.018 -0.1333 -0.6446 -1.4675
 4305TIP3   OH234329   4.603   4.279  16.491  0.3424 -0.1153 -0.5670
 4305TIP3    H134330   4.528   4.274  16.432  0.3421  2.5504 -0.9419
 4305TIP3    H234331   4.613   4.373  16.508  3.5054 -0.3784 -0.4106
 4306TIP3   OH234332   3.819   4.476  11.041  0.8999  0.2113 -0.6856
 4306TIP3    H134333   3.764   4.420  10.986  0.3821 -1.8625  1.7811
 4306TIP3    H234334   3.760   4.541  11.077  0.6590 -0.1750 -0.3780
 4307TIP3   OH234335   1.880   2.074  13.350  0.1929 -0.5819 -0.3275
 4307TIP3    H134336   1.886   2.027  13.433 -0.6472  1.9947  1.3144
 4307TIP3    H234337   1.966   2.115  13.339  0.4367 -1.2490 -0.9681
 4308TIP3   OH234338   3.171   5.180  13.536 -0.3356  0.0778  0.0915
 4308TIP3    H134339   3.086   5.166  13.577 -0.0777 -0.3414  0.4908
 4308TIP3    H234340   3.154   5.245  13.468 -0.5676  1.6570  1.5799
 4309TIP3   OH234341   4.557   3.912  11.501 -0.7242  0.3965 -0.1356
 4309TIP3    H134342   4.521   3.824  11.508 -0.8762  0.4880  0.2409
 4309TIP3    H234343   4.581   3.936  11.591  0.1046  0.4114 -0.3520
 4310TIP3   OH234344   6.284   6.683  11.800  0.4559 -0.6556 -0.2447
 4310TIP3    H134345   6.209   6.738  11.822 -0.3497 -1.1156 -1.6666
 4310TIP3    H234346   6.360   6.736  11.821 -0.2741  0.1993  0.3187
 4311TIP3   OH234347   1.369   0.324   5.474  0.6036  0.0428  0.3851
 4311TIP3    H134348   1.353   0.350   5.383 -0.4791 -2.4382 -0.2231
 4311TIP3    H234349   1.313   0.382   5.525  0.2243  0.6176 -0.6419
 4312TIP3   OH234350   5.185   1.566  11.402 -0.1640  0.3671  0.1244
 4312TIP3    H134351   5.256   1.615  11.443  0.8193 -0.9900  0.1118
 4312TIP3    H234352   5.140   1.631  11.347  1.8651  1.0001 -0.8855
 4313TIP3   OH234353   0.864   0.708   0.252 -0.2564  0.6518  0.1825
 4313TIP3    H134354   0.861   0.786   0.307 -2.2185  0.0720  1.0254
 4313TIP3    H234355   0.850   0.636   0.313  2.9653 -0.5731 -0.3470
 4314TIP3   OH234356   5.013   3.463   4.887  0.3665  0.2806 -0.3685
 4314TIP3    H134357   4.929   3.434   4.923  1.8073 -1.7333  1.6179
 4314TIP3    H234358   5.043   3.530   4.949  0.8919 -0.0558 -0.2578
 4315TIP3   OH234359   2.514   0.315   5.291  0.9817 -0.1995 -0.0897
 4315TIP3    H134360   2.577   0.281   5.227 -0.2881 -0.3129 -1.3360
 4315TIP3    H234361   2.433   0.327   5.240  0.3095  0.9939  1.2032
 4316TIP3   OH234362   2.882   1.854   4.282 -0.2242 -0.1889 -0.2663
 4316TIP3    H134363   2.961   1.861   4.337 -0.6320  0.8213  0.2111
 4316TIP3    H234364   2.812   1.889   4.336 -0.9760 -0.8702 -0.7756
 4317TIP3   OH234365   3.378   0.370  13.644 -0.0492 -0.2080 -0.4957
 4317TIP3    H134366   3.321   0.361  13.568 -1.1186 -0.9077  0.3608
 4317TIP3    H234367   3.376   0.464  13.665  0.7225  0.0791 -1.6686
 4318TIP3   OH234368   0.210   4.586  14.205 -0.5353 -0.3185 -0.3729
 4318TIP3    H134369   0.191   4.673  14.171 -1.7014 -0.9472 -1.3932
 4318TIP3    H234370   0.251   4.540  14.132  0.5039 -0.5059  0.3029
 4319TIP3   OH234371   5.505   2.200  16.845  0.2430  0.0004  0.1388
 4319TIP3    H134372   5.479   2.155  16.926  0.6008 -0.1744  0.1559
 4319TIP3    H234373   5.578   2.149  16.811  0.9431  0.8053  0.3891
 4320TIP3   OH234374   1.669   3.550  15.345 -0.2392 -0.6863 -0.3662
 4320TIP3    H134375   1.641   3.551  15.437 -1.0341  0.1866 -0.6011
 4320TIP3    H234376   1.627   3.473  15.308 -0.8166 -0.4320 -0.2541
 4321TIP3   OH234377   6.477   6.139   1.469 -0.6495  0.2739 -0.5204
 4321TIP3    H134378   6.570   6.139   1.493 -0.5191  1.1747 -0.9976
 4321TIP3    H234379   6.433   6.182   1.543 -0.1074  4.1492 -2.2657
 4322TIP3   OH234380   4.234   4.993   2.751 -0.0200 -0.0344 -0.7018
 4322TIP3    H134381   4.256   5.077   2.711  1.5782  0.7426  1.5917
 4322TIP3    H234382   4.233   5.011   2.845 -1.9406 -2.1162 -0.2270
 4323TIP3   OH234383   4.435   3.232  11.049 -0.4142 -0.0523  0.3396
 4323TIP3    H134384   4.378   3.167  11.008  1.1528 -1.7077  0.6634
 4323TIP3    H234385   4.374   3.293  11.093 -1.9464 -0.9709 -0.4198
 4324TIP3   OH234386   6.169   2.199   6.352 -0.1237  0.1384 -0.6073
 4324TIP3    H134387   6.102   2.168   6.290 -1.2313  0.2274  0.4927
 4324TIP3    H234388   6.252   2.173   6.313 -0.8949 -3.1599 -0.4013
 4325TIP3   OH234389   0.113   0.365  17.248 -0.2822 -0.7876  0.1273
 4325TIP3    H134390   0.025   0.348  17.215 -0.7307 -0.0101  0.9067
 4325TIP3    H234391   0.123   0.307  17.323 -0.1352 -0.8681  0.0452
 4326TIP3   OH234392   2.403   4.794  15.290 -0.0098 -0.0035 -0.0328
 4326TIP3    H134393   2.368   4.780  15.202 -0.0548 -0.2041  0.0174
 4326TIP3    H234394   2.328   4.827  15.340  0.4151  1.7701 -0.4915
 4327TIP3   OH234395   4.954   5.462   4.852 -0.6538  0.4613 -0.0901
 4327TIP3    H134396   4.910   5.540   4.886  0.8384  0.0844  3.0795
 4327TIP3    H234397   4.884   5.397   4.846 -1.4109  1.2465 -0.0919
 4328TIP3   OH234398   2.684   2.233   2.305 -0.0749 -0.4037  0.3778
 4328TIP3    H134399   2.677   2.167   2.374  1.2594  0.8060  1.7184
 4328TIP3    H234400   2.594   2.266   2.296 -0.5097 -1.4585  0.6034
 4329TIP3   OH234401   5.984   6.081  14.070  0.2409 -0.4005  0.6686
 4329TIP3    H134402   5.981   5.988  14.050  1.4088  0.1255 -2.8886
 4329TIP3    H234403   5.893   6.109  14.071 -0.0607 -1.1043 -1.6014
 4330TIP3   OH234404   0.001   3.352   3.889 -0.6380  0.7323  0.2224
 4330TIP3    H134405   0.012   3.428   3.832 -0.4540  0.5169 -0.0327
 4330TIP3    H234406   0.043   3.280   3.841 -2.2927  0.0919 -0.3504
 4331TIP3   OH234407   4.723   2.656   0.443  0.7131 -0.2334 -0.1851
 4331TIP3    H134408   4.688   2.734   0.486  0.2868 -0.4843 -0.0693
 4331TIP3    H234409   4.706   2.670   0.350  2.3409  0.6643 -0.3653
 4332TIP3   OH234410   0.512   2.577  12.953  0.7101  0.3209 -0.5145
 4332TIP3    H134411   0.580   2.534  13.005  0.7505  0.1599 -0.6986
 4332TIP3    H234412   0.551   2.661  12.927  0.7712  0.3062 -0.4701
 4333TIP3   OH234413   0.510   0.242  12.984 -0.5427  0.9388 -0.3765
 4333TIP3    H134414   0.576   0.185  13.024 -0.9889  0.9230  0.3497
 4333TIP3    H234415   0.492   0.202  12.899 -0.1325  0.5535 -0.2876
 4334TIP3   OH234416   2.697   3.265   5.352  0.0395  0.1111 -0.0484
 4334TIP3    H134417   2.613   3.303   5.325  0.4570  0.8550 -0.3232
 4334TIP3    H234418   2.756   3.339   5.357  1.4583 -0.7054 -2.7071
 4335TIP3   OH234419   3.874   4.272  14.792 -0.4278  0.2498  0.3363
 4335TIP3    H134420   3.788   4.274  14.749 -0.8007 -1.4531  0.9011
 4335TIP3    H234421   3.856   4.241  14.881  0.8837 -1.5041  0.0479
 4336TIP3   OH234422   6.163   2.622  15.470 -0.4062 -0.8041 -0.6593
 4336TIP3    H134423   6.158   2.595  15.378 -1.1014 -1.6473 -0.3815
 4336TIP3    H234424   6.123   2.550  15.519 -0.4255 -0.1775  0.2747
 4337TIP3   OH234425   5.863   1.475  12.344 -0.0572 -0.4358  0.8849
 4337TIP3    H134426   5.948   1.502  12.308 -0.7637  0.4367 -0.2276
 4337TIP3    H234427   5.844   1.540  12.411 -0.7221  0.5666 -0.2337
 4338TIP3   OH234428   4.671   1.816   1.226  0.4369 -0.1892  0.2833
 4338TIP3    H134429   4.717   1.733   1.241  0.0853 -0.4555 -0.1037
 4338TIP3    H234430   4.579   1.792   1.224  0.4189 -0.0905 -1.6651
 4339TIP3   OH234431   0.967   0.365   2.948 -0.1029 -0.0319  0.1625
 4339TIP3    H134432   1.041   0.427   2.949 -0.4605  0.4459  2.0694
 4339TIP3    H234433   0.962   0.333   3.038 -1.9515 -0.3945 -0.0280
 4340TIP3   OH234434   5.915   4.029   1.963 -0.1597  0.2795 -0.2917
 4340TIP3    H134435   6.005   4.014   1.992  1.0149  4.1466 -1.3076
 4340TIP3    H234436   5.862   3.972   2.018  2.8031 -1.4518  0.9995
 4341TIP3   OH234437   5.089   4.999  13.267 -0.3645  1.0412 -0.1747
 4341TIP3    H134438   5.061   4.934  13.331  1.0658  1.1006  0.5529
 4341TIP3    H234439   5.072   5.083  13.310 -0.9774  1.1235 -0.5725
 4342TIP3   OH234440   0.009   1.481   2.507 -0.3026  0.4946 -0.2239
 4342TIP3    H134441  -0.071   1.433   2.531  0.0509  0.1945  0.3946
 4342TIP3    H234442   0.027   1.454   2.417 -0.5713  0.1103 -0.1677
 4343TIP3   OH234443   5.275   0.110   6.016  0.1693 -0.4258 -0.1072
 4343TIP3    H134444   5.198   0.133   6.068  0.8799 -0.1017  0.8175
 4343TIP3    H234445   5.245   0.039   5.958 -0.5472 -1.0157  0.9603
 4344TIP3   OH234446   0.113   3.312  16.946  0.4889 -0.3128 -0.6090
 4344TIP3    H134447   0.090   3.399  16.978  2.4008  0.7798 -1.9712
 4344TIP3    H234448   0.188   3.286  16.998  0.4556 -0.7763 -0.7854
 4345TIP3   OH234449   0.752   2.033   0.077 -0.2242 -0.3161 -0.2522
 4345TIP3    H134450   0.669   1.985   0.073  0.9202 -2.4294 -0.0343
 4345TIP3    H234451   0.810   1.978   0.129  0.8942  1.8477  0.9425
 4346TIP3   OH234452   4.830   0.438   2.596 -0.4994  0.1158 -0.5882
 4346TIP3    H134453   4.746   0.473   2.566 -1.4445 -0.7460  0.9043
 4346TIP3    H234454   4.896   0.494   2.555 -1.7580  0.3603 -2.3913
 4347TIP3   OH234455   4.650   3.598  10.604  0.3014 -0.3055  0.1060
 4347TIP3    H134456   4.714   3.527  10.608 -0.9262 -1.3946  1.8191
 4347TIP3    H234457   4.621   3.610  10.694 -0.4829  1.5039 -0.3457
 4348TIP3   OH234458   1.173   1.528   0.086  0.3473 -0.1242 -0.4594
 4348TIP3    H134459   1.155   1.436   0.066 -0.6947 -0.3486  1.3347
 4348TIP3    H234460   1.261   1.528   0.123  0.2315 -0.4625 -0.1754
 4349TIP3   OH234461   2.044   1.504  11.387 -0.4336 -0.6077 -0.3196
 4349TIP3    H134462   2.061   1.468  11.299  2.1214  2.0984 -1.1003
 4349TIP3    H234463   1.969   1.562  11.376  1.1879  1.4288 -1.3867
 4350TIP3   OH234464   4.062   1.661  15.417  0.5535  0.1358 -0.5286
 4350TIP3    H134465   4.018   1.596  15.472  0.8031 -1.7419 -2.4418
 4350TIP3    H234466   4.152   1.661  15.448  0.0232  1.5508  1.1897
 4351TIP3   OH234467   6.430   6.127   3.840  0.8969  0.3716  0.1996
 4351TIP3    H134468   6.445   6.218   3.814  0.6360  0.3248 -0.1350
 4351TIP3    H234469   6.336   6.122   3.857  0.7807  0.0016 -0.4812
 4352TIP3   OH234470   1.217   1.408  11.540  0.1484  0.4409 -0.4046
 4352TIP3    H134471   1.152   1.477  11.526  0.4109  0.5346 -1.2452
 4352TIP3    H234472   1.176   1.329  11.506  0.6627  0.6011 -1.4448
 4353TIP3   OH234473   4.930   1.018  14.742  0.4676  0.0915  0.8033
 4353TIP3    H134474   4.915   0.968  14.662 -1.4931  0.0535  1.1481
 4353TIP3    H234475   4.883   0.970  14.810  2.6903 -0.2978  2.1989
 4354TIP3   OH234476   3.564   1.641   4.043 -0.6249 -0.0849 -0.0529
 4354TIP3    H134477   3.470   1.626   4.033 -0.8513  0.5398  0.9914
 4354TIP3    H234478   3.580   1.724   3.998  0.0015 -1.6148 -2.8300
 4355TIP3   OH234479   5.951   0.341   0.154 -0.4621 -0.2730  0.5672
 4355TIP3    H134480   5.857   0.330   0.172 -0.8445  2.9522  1.1594
 4355TIP3    H234481   5.953   0.385   0.068  0.6703 -2.1780 -0.4390
 4356TIP3   OH234482   3.536   1.026  12.264  0.4409 -0.0232 -0.0836
 4356TIP3    H134483   3.459   1.083  12.276  0.7043  0.5936 -1.1573
 4356TIP3    H234484   3.500   0.937  12.266 -0.0405  0.1741  1.1979
 4357TIP3   OH234485   3.123   6.411  14.783  0.2877  0.1128 -0.0038
 4357TIP3    H134486   3.157   6.391  14.695  1.1299  0.8007  0.1442
 4357TIP3    H234487   3.075   6.333  14.808 -2.8224  1.0481 -2.3848
 4358TIP3   OH234488   1.724   0.895  13.231 -0.2813  0.1958  0.0372
 4358TIP3    H134489   1.666   0.827  13.266  1.4464 -1.2164  0.2889
 4358TIP3    H234490   1.716   0.887  13.136 -0.3988 -0.0594  0.0684
 4359TIP3   OH234491   0.102   4.234   0.997 -0.1705 -0.0149  0.3366
 4359TIP3    H134492   0.184   4.193   0.968 -0.7363 -0.1393 -1.2072
 4359TIP3    H234493   0.120   4.328   0.993 -0.1009 -0.0411 -0.0174
 4360TIP3   OH234494   5.430   2.681  11.325 -0.2900 -0.2334  0.4156
 4360TIP3    H134495   5.346   2.644  11.298 -0.3105 -0.6107  0.9592
 4360TIP3    H234496   5.425   2.683  11.421 -0.5390  1.7993  0.3927
 4361TIP3   OH234497   4.438   0.120  14.979 -0.4970 -0.1797  0.4951
 4361TIP3    H134498   4.363   0.102  15.037  0.1573  0.1029  1.4551
 4361TIP3    H234499   4.451   0.215  14.984 -0.4880 -0.1412 -0.1926
 4362TIP3   OH234500   6.160   4.206   2.949  0.3072  0.0501 -0.3806
 4362TIP3    H134501   6.142   4.120   2.986 -0.7242  0.8793  1.1643
 4362TIP3    H234502   6.074   4.249   2.947  1.0859  1.7774  0.8660
 4363TIP3   OH234503   1.250   4.906   4.295  0.2044 -0.1116 -0.4151
 4363TIP3    H134504   1.194   4.845   4.343 -0.5628 -0.0335 -1.1705
 4363TIP3    H234505   1.245   4.988   4.344  0.7873 -0.4935  0.2938
 4364TIP3   OH234506   5.004   5.345   4.607 -0.5103  0.3733 -0.1105
 4364TIP3    H134507   5.025   5.408   4.538  1.4896 -0.1648 -0.0605
 4364TIP3    H234508   4.996   5.398   4.686  0.8749  0.6444 -0.1186
 4365TIP3   OH234509   0.833   6.384  15.923  0.1786  0.0851 -0.1131
 4365TIP3    H134510   0.794   6.439  15.855  0.0514  0.3714  0.1894
 4365TIP3    H234511   0.797   6.419  16.005 -1.7559 -1.8585 -0.0287
 4366TIP3   OH234512   3.027   2.347  15.245 -0.2650  0.2883  0.2187
 4366TIP3    H134513   3.009   2.359  15.151  1.4508 -1.4528 -0.3817
 4366TIP3    H234514   2.944   2.314  15.280 -0.9563  1.0188 -0.6344
 4367TIP3   OH234515   1.688   0.821  16.889  0.3784  1.0099 -0.6392
 4367TIP3    H134516   1.634   0.777  16.823  0.2164 -0.8849  0.6731
 4367TIP3    H234517   1.772   0.775  16.885  0.2103  0.5399  0.7763
 4368TIP3   OH234518   5.854   4.250  11.744 -0.0419  0.2714 -0.3147
 4368TIP3    H134519   5.779   4.243  11.685  1.0456  0.9361 -1.8475
 4368TIP3    H234520   5.845   4.336  11.785  0.3644  0.7558 -1.2188
 4369TIP3   OH234521   2.545   5.574  13.137  0.1522 -0.0344 -0.5507
 4369TIP3    H134522   2.504   5.599  13.220  1.1302  0.7377 -0.2785
 4369TIP3    H234523   2.631   5.540  13.162 -0.1217 -1.1881 -1.1414
 4370TIP3   OH234524   1.747   2.892  12.792  0.3520 -0.2703  0.6471
 4370TIP3    H134525   1.722   2.857  12.878  0.4613  1.8076  1.6004
 4370TIP3    H234526   1.685   2.963  12.776  1.9137  1.1007  0.2896
 4371TIP3   OH234527   5.622   6.583  17.366  0.2643 -0.1697 -0.1734
 4371TIP3    H134528   5.556   6.548  17.425  1.3678 -0.4352  0.9390
 4371TIP3    H234529   5.681   6.509  17.349  3.0576  1.1361  2.7975
 4372TIP3   OH234530   0.274   1.025  12.268 -0.0845  0.3138  0.6491
 4372TIP3    H134531   0.255   1.034  12.174 -1.2595  0.7892  0.9133
 4372TIP3    H234532   0.217   0.954  12.297 -0.9846  1.2856  1.3269
 4373TIP3   OH234533   5.803   1.646  14.542  0.1106  0.4898  0.0377
 4373TIP3    H134534   5.808   1.677  14.452 -2.9323  0.4145 -0.2535
 4373TIP3    H234535   5.801   1.550  14.534  1.2615  0.4282  0.3242
 4374TIP3   OH234536   0.731   1.221   0.434 -0.2767 -0.0971  0.6856
 4374TIP3    H134537   0.685   1.286   0.381 -0.1992  0.4048  1.2137
 4374TIP3    H234538   0.730   1.258   0.523  1.6426  0.2146  0.6192
 4375TIP3   OH234539   1.124   5.797   6.698 -0.0325  0.5508 -0.4849
 4375TIP3    H134540   1.206   5.840   6.672 -0.1373  2.4692  1.9060
 4375TIP3    H234541   1.081   5.774   6.616  2.3507  0.5761 -1.8174
 4376TIP3   OH234542   5.371   5.322  13.238  0.2629  0.0044  0.4503
 4376TIP3    H134543   5.455   5.278  13.247 -0.6843 -1.7367  1.3300
 4376TIP3    H234544   5.346   5.309  13.147  1.6718  2.0453 -0.3128
 4377TIP3   OH234545   3.371   4.790  16.591 -0.6610  0.0304  0.7695
 4377TIP3    H134546   3.289   4.740  16.594 -0.9132  0.4200  0.5407
 4377TIP3    H234547   3.405   4.786  16.680 -1.5946  0.9438  1.1906
 4378TIP3   OH234548   6.071   1.053  10.754 -0.3232 -0.0067  0.1850
 4378TIP3    H134549   6.096   1.013  10.838 -0.2198 -0.8703 -0.2495
 4378TIP3    H234550   5.997   1.000  10.723 -0.1226  0.0792 -0.4487
 4379TIP3   OH234551   0.719   6.742   1.986  0.4233 -0.0480 -0.1316
 4379TIP3    H134552   0.666   6.820   2.002  2.0842  1.4962 -1.7027
 4379TIP3    H234553   0.803   6.761   2.027  0.9555 -0.8616 -0.8030
 4380TIP3   OH234554   1.120   4.127   0.869 -0.0377  0.0161  0.6306
 4380TIP3    H134555   1.201   4.110   0.821 -1.0205 -0.2593 -1.0075
 4380TIP3    H234556   1.072   4.045   0.862 -0.8089  0.4456  0.8589
 4381TIP3   OH234557   2.919   0.912  15.146  0.3069  0.6011 -0.6193
 4381TIP3    H134558   2.914   0.996  15.192  1.2825 -0.1421  0.9244
 4381TIP3    H234559   3.012   0.894  15.139  0.1152 -0.1800 -1.2743
 4382TIP3   OH234560   5.560   5.712   1.870 -0.0527  0.0747 -0.0732
 4382TIP3    H134561   5.583   5.783   1.809 -1.1251 -0.7982 -1.5722
 4382TIP3    H234562   5.464   5.710   1.869 -0.0570 -0.6460  0.8574
 4383TIP3   OH234563   2.501   5.505  16.299  0.2861 -0.6565  0.3334
 4383TIP3    H134564   2.447   5.432  16.330 -0.1193 -0.7435 -0.5649
 4383TIP3    H234565   2.580   5.462  16.265 -0.3235 -0.7505 -0.9867
 4384TIP3   OH234566   4.655   6.024   1.168  0.2835 -0.1344  0.5129
 4384TIP3    H134567   4.729   6.008   1.108  0.1066  0.4725  0.1184
 4384TIP3    H234568   4.662   6.117   1.190 -0.8548  0.1465 -0.2195
 4385TIP3   OH234569   6.104   1.575  12.994  0.1153 -0.2221  0.1248
 4385TIP3    H134570   6.121   1.668  12.981  2.1876 -0.5453  0.0947
 4385TIP3    H234571   6.050   1.571  13.073 -0.0074  1.0027  0.1212
 4386TIP3   OH234572   4.105   6.619  16.882 -0.7476  0.1171  0.3055
 4386TIP3    H134573   4.155   6.698  16.863 -2.3951  0.9226 -0.9356
 4386TIP3    H234574   4.126   6.599  16.973  3.9331 -1.2462 -0.8249
 4387TIP3   OH234575   3.815   1.817   3.315 -0.3095 -0.1311  0.4141
 4387TIP3    H134576   3.813   1.823   3.220 -0.3808  0.2252  0.4391
 4387TIP3    H234577   3.736   1.862   3.344  0.5018  1.1753  0.7052
 4388TIP3   OH234578   1.481   4.359   3.984  0.0606  0.8340 -0.2953
 4388TIP3    H134579   1.521   4.313   3.910 -0.9387  0.3137 -0.5270
 4388TIP3    H234580   1.394   4.384   3.952  0.4306  2.5507 -0.0460
 4389TIP3   OH234581   6.108   2.642   4.937 -0.1992 -0.1999 -0.2859
 4389TIP3    H134582   6.062   2.559   4.953  0.9475 -1.1924 -1.7431
 4389TIP3    H234583   6.126   2.641   4.843  0.5974  1.3217 -0.1824
 4390TIP3   OH234584   1.781   2.811  11.379 -0.0744 -0.5251  0.0402
 4390TIP3    H134585   1.737   2.896  11.384 -0.3883 -0.7149  0.5442
 4390TIP3    H234586   1.839   2.809  11.455  0.4874 -0.4625 -0.3750
 4391TIP3   OH234587   2.481   5.367  14.731 -0.1611 -0.1002  0.4869
 4391TIP3    H134588   2.439   5.281  14.731 -1.7837  0.5903  2.5627
 4391TIP3    H234589   2.538   5.366  14.808 -3.1144  1.8174  2.9532
 4392TIP3   OH234590   5.822   0.231   5.757 -0.1044 -0.0702 -0.0124
 4392TIP3    H134591   5.889   0.202   5.819  0.8307  0.2613 -0.8681
 4392TIP3    H234592   5.826   0.168   5.686 -0.1014  0.4607 -0.4859
 4393TIP3   OH234593   5.095   2.087  11.174 -0.0159  0.0636  0.0311
 4393TIP3    H134594   5.043   2.126  11.104 -1.9324 -0.4946  1.0813
 4393TIP3    H234595   5.166   2.043  11.128 -2.3050 -2.0105 -1.7916
 4394TIP3   OH234596   5.081   5.908   2.280 -0.4929 -0.1935  0.4552
 4394TIP3    H134597   4.986   5.905   2.293 -0.4883 -1.0808  0.3735
 4394TIP3    H234598   5.093   5.880   2.189 -0.1488 -0.1382  0.4833
 4395TIP3   OH234599   3.662   1.347  15.602 -0.0529  0.2388  0.0957
 4395TIP3    H134600   3.716   1.272  15.576  0.3035  0.5330 -0.0172
 4395TIP3    H234601   3.650   1.397  15.521 -2.1160 -0.8252 -0.3173
 4396TIP3   OH234602   3.873   6.722   1.606 -0.3146 -0.0161  0.1195
 4396TIP3    H134603   3.912   6.789   1.663 -1.6747  0.2801  0.7313
 4396TIP3    H234604   3.904   6.744   1.519 -2.0032  2.4395  0.0258
 4397TIP3   OH234605   4.625   4.329   0.067  0.7583  0.0739  0.0820
 4397TIP3    H134606   4.655   4.419   0.054  1.0044 -0.2643 -2.0584
 4397TIP3    H234607   4.671   4.298   0.145  0.6449  1.7886  0.8611
 4398TIP3   OH234608   0.806   1.912  12.980 -0.2214  0.6335  0.6399
 4398TIP3    H134609   0.873   1.849  12.953  0.0347 -0.3498  3.3341
 4398TIP3    H234610   0.855   1.983  13.022 -0.7423  1.0649  0.5379
 4399TIP3   OH234611   6.144   1.125   2.056 -0.0023 -0.7868  0.1797
 4399TIP3    H134612   6.214   1.061   2.043 -0.3928 -0.8485 -1.9941
 4399TIP3    H234613   6.175   1.204   2.012 -1.8795 -1.3039 -2.3109
 4400TIP3   OH234614   2.444   1.511  15.003 -0.3768 -0.0710 -0.4301
 4400TIP3    H134615   2.432   1.605  14.999 -0.7018 -0.1443 -1.3791
 4400TIP3    H234616   2.358   1.475  14.980 -0.1359 -0.5977 -0.5171
 4401TIP3   OH234617   5.771   4.383  14.435 -0.4612  0.1165 -0.0262
 4401TIP3    H134618   5.823   4.310  14.467 -0.0940  1.1486  1.8434
 4401TIP3    H234619   5.834   4.455  14.425 -1.1046  0.6639 -0.2249
 4402TIP3   OH234620   5.623   2.602   5.736  0.0904  0.2064  0.4351
 4402TIP3    H134621   5.563   2.581   5.808 -1.2831 -0.1088 -0.7690
 4402TIP3    H234622   5.573   2.660   5.679 -0.0453 -2.0361 -1.8929
 4403TIP3   OH234623   1.116   5.042   6.347 -0.4946  0.1023 -0.2410
 4403TIP3    H134624   1.178   5.115   6.350 -0.8217  0.3825 -0.2800
 4403TIP3    H234625   1.168   4.965   6.371 -0.2038  0.3831  0.0303
 4404TIP3   OH234626   5.710   4.008   5.434 -0.5189  0.8029 -0.1711
 4404TIP3    H134627   5.715   4.044   5.523 -0.8388  1.9564 -0.6051
 4404TIP3    H234628   5.737   3.917   5.444 -0.4387  0.9441  1.0924
 4405TIP3   OH234629   4.986   1.040   6.645  0.3728 -0.3297  0.2882
 4405TIP3    H134630   5.033   0.957   6.646 -1.3528 -1.3479  0.8545
 4405TIP3    H234631   4.895   1.017   6.663 -0.2626  1.6268 -0.1225
 4406TIP3   OH234632   0.613   6.351   4.333  0.1299  0.7614 -0.5763
 4406TIP3    H134633   0.575   6.398   4.259 -2.4028 -0.0215  0.1249
 4406TIP3    H234634   0.537   6.323   4.385  1.6504 -1.7179  0.4696
 4407TIP3   OH234635   4.344   2.127  12.843  0.2124  0.3357  0.2662
 4407TIP3    H134636   4.319   2.195  12.906  0.3617 -1.5625  2.5024
 4407TIP3    H234637   4.432   2.151  12.815 -0.0647  1.5011  0.3528
 4408TIP3   OH234638   2.184   5.410   2.015  0.5672  0.1707 -0.2933
 4408TIP3    H134639   2.150   5.359   1.941  0.4107  0.6753 -0.5755
 4408TIP3    H234640   2.112   5.468   2.039  0.2813 -0.6303  0.8716
 4409TIP3   OH234641   0.592   1.933   2.797 -0.4138 -0.1107 -0.2624
 4409TIP3    H134642   0.627   1.953   2.710  0.5167 -0.0882  0.1038
 4409TIP3    H234643   0.497   1.936   2.786 -0.3207  1.2398 -0.9809
 4410TIP3   OH234644   2.346   1.033  14.381 -0.2371  0.3694  0.0428
 4410TIP3    H134645   2.440   1.039  14.363 -0.7648 -0.1782 -3.5759
 4410TIP3    H234646   2.310   1.116  14.349 -1.1540  0.0112  0.1166
 4411TIP3   OH234647   5.922   0.431   3.576  0.7509 -0.8756 -0.8157
 4411TIP3    H134648   5.888   0.482   3.650 -0.5732 -1.9379 -0.6391
 4411TIP3    H234649   5.875   0.465   3.500 -0.1985 -1.8245 -0.6857
 4412TIP3   OH234650   0.577   4.608   1.392 -0.3414  0.2784 -0.7465
 4412TIP3    H134651   0.514   4.674   1.420 -0.6432  0.7091 -2.3402
 4412TIP3    H234652   0.632   4.653   1.328  0.2241 -0.6925 -0.9671
 4413TIP3   OH234653   4.569   4.518   3.401  0.2779  0.0527 -0.5693
 4413TIP3    H134654   4.650   4.512   3.351 -0.0384  0.4285 -1.1317
 4413TIP3    H234655   4.554   4.429   3.433  2.9278  0.5817  2.7708
 4414TIP3   OH234656   5.065   2.350  15.559 -0.0849 -0.2744 -0.2270
 4414TIP3    H134657   5.054   2.276  15.618 -0.3883 -1.4712 -1.7468
 4414TIP3    H234658   5.005   2.334  15.486 -0.5310  1.7227 -0.3805
 4415TIP3   OH234659   4.758   3.023   5.612  0.5336  0.2303 -0.3135
 4415TIP3    H134660   4.707   3.042   5.691 -1.5487 -0.1204 -1.5211
 4415TIP3    H234661   4.835   3.080   5.620  0.6463 -0.1225  2.1752
 4416TIP3   OH234662   1.327   4.516  12.175  0.0720  0.6353 -0.5849
 4416TIP3    H134663   1.236   4.505  12.201  0.4863 -0.3154  0.5703
 4416TIP3    H234664   1.374   4.532  12.257  1.4311 -2.4533 -0.5824
 4417TIP3   OH234665   4.621   3.587  16.828 -0.2446  0.2395 -0.2506
 4417TIP3    H134666   4.527   3.605  16.824  0.0668  2.0083 -0.9800
 4417TIP3    H234667   4.662   3.672  16.811  1.4839 -0.7823 -1.5686
 4418TIP3   OH234668   2.468   4.623  16.178 -0.0717 -0.3405  0.1416
 4418TIP3    H134669   2.551   4.640  16.223  0.0274 -1.2026  0.3179
 4418TIP3    H234670   2.470   4.528  16.161 -0.9699 -0.3477  0.0442
 4419TIP3   OH234671   1.909   4.982   3.334 -0.0016 -0.3482  0.4184
 4419TIP3    H134672   1.859   4.921   3.279  1.6034 -0.2305 -1.2681
 4419TIP3    H234673   1.897   5.067   3.293  1.1487 -0.2414  0.2531
 4420TIP3   OH234674   5.231   6.720  15.336  0.3225 -0.1943  0.1949
 4420TIP3    H134675   5.323   6.693  15.331  0.3584  0.0740 -0.9263
 4420TIP3    H234676   5.195   6.698  15.250 -0.4462  0.4634  0.3345
 4421TIP3   OH234677   1.620   3.671  15.071  0.4417  0.6642 -0.9105
 4421TIP3    H134678   1.624   3.646  15.163  0.5264 -0.0806 -1.1108
 4421TIP3    H234679   1.697   3.631  15.031  2.3647  3.7424 -0.6864
 4422TIP3   OH234680   1.683   6.073  15.593  0.1543 -0.2688  0.0822
 4422TIP3    H134681   1.759   6.103  15.644 -0.9356 -0.2668  1.7673
 4422TIP3    H234682   1.630   6.024  15.655 -1.8963  0.8419 -0.6794
 4423TIP3   OH234683   3.463   5.684   0.154 -0.0754  0.0249  0.6505
 4423TIP3    H134684   3.379   5.646   0.129  0.2612 -0.7358  0.6436
 4423TIP3    H234685   3.490   5.635   0.231  1.6789 -1.7315 -0.9592
 4424TIP3   OH234686   5.013   0.992   2.605  0.0781  0.0888  0.0856
 4424TIP3    H134687   5.041   0.999   2.513  2.0592 -3.4208  0.2751
 4424TIP3    H234688   4.924   0.957   2.600  0.6231 -1.2787 -0.5549
 4425TIP3   OH234689   6.324   5.033   0.612  0.4338 -0.3336  0.0535
 4425TIP3    H134690   6.331   4.942   0.586  0.2728 -0.6628  1.1234
 4425TIP3    H234691   6.317   5.031   0.707  0.5542  0.8003  0.1052
 4426TIP3   OH234692   0.165   4.921  12.496  0.1005  0.0828  0.2672
 4426TIP3    H134693   0.100   4.858  12.465 -0.3618  1.2138 -1.1485
 4426TIP3    H234694   0.244   4.869  12.511 -0.7558 -1.1104  0.8586
 4427TIP3   OH234695   5.421   6.460  13.971  0.6193 -0.3493 -0.5115
 4427TIP3    H134696   5.481   6.391  14.001  1.1252 -0.0591 -0.8613
 4427TIP3    H234697   5.409   6.442  13.878 -1.8110 -1.9071  0.0042
 4428TIP3   OH234698   5.210   1.038   4.063 -0.2711 -0.6098 -0.2816
 4428TIP3    H134699   5.203   1.015   4.156 -1.8557 -1.0678 -0.4870
 4428TIP3    H234700   5.280   0.982   4.030  0.2281 -0.5298  0.6042
 4429TIP3   OH234701   3.853   6.284   1.067  0.3620  0.4505  0.1512
 4429TIP3    H134702   3.943   6.308   1.088  0.6139  2.6816 -2.8618
 4429TIP3    H234703   3.799   6.344   1.119  0.6373  0.0382  0.9216
 4430TIP3   OH234704   2.789   5.724   6.155  0.4948 -0.2368  0.0356
 4430TIP3    H134705   2.825   5.649   6.108  1.4367  0.3275 -0.1690
 4430TIP3    H234706   2.851   5.795   6.138  1.6043 -0.3165  3.2192
 4431TIP3   OH234707   6.372   0.853   6.082  0.3368 -0.2057  0.1801
 4431TIP3    H134708   6.398   0.934   6.038 -0.2972  0.3727  0.8342
 4431TIP3    H234709   6.276   0.858   6.086  0.3647 -0.3239  1.4496
 4432TIP3   OH234710   5.151   1.404  16.111  0.3172 -0.1728 -0.2417
 4432TIP3    H134711   5.064   1.374  16.085  0.0197  1.4192 -1.2124
 4432TIP3    H234712   5.179   1.341  16.177 -1.3973 -0.9503 -0.2013
 4433TIP3   OH234713   0.907   2.987   4.648 -0.1993 -0.0725  0.5491
 4433TIP3    H134714   0.847   2.969   4.720  0.1097 -0.1537  0.7899
 4433TIP3    H234715   0.934   2.901   4.616  0.1948 -0.0417  0.7868
 4434TIP3   OH234716   3.298   5.189   4.852 -0.6080 -0.2359  0.0026
 4434TIP3    H134717   3.268   5.099   4.859  0.0272 -0.3888  1.0857
 4434TIP3    H234718   3.268   5.231   4.934  1.5612 -0.2619  0.8787
 4435TIP3   OH234719   2.538   1.506   5.644  0.2438 -0.4737  0.0105
 4435TIP3    H134720   2.493   1.573   5.593  1.8074  0.5316 -0.1391
 4435TIP3    H234721   2.469   1.463   5.694 -1.2269 -0.8525 -2.1913
 4436TIP3   OH234722   6.148   0.741  12.351  0.5962  0.2741 -0.1820
 4436TIP3    H134723   6.166   0.734  12.257  0.4188 -1.8372 -0.1045
 4436TIP3    H234724   6.158   0.834  12.371  2.6598  0.4784 -1.8842
 4437TIP3   OH234725   0.178   5.432  12.647 -0.2979 -0.0944 -0.0047
 4437TIP3    H134726   0.136   5.482  12.718  0.0277 -0.9310  0.7882
 4437TIP3    H234727   0.146   5.474  12.567 -2.0221 -0.1882  0.5844
 4438TIP3   OH234728   1.047   0.236  13.227 -0.3926  0.1598  0.2810
 4438TIP3    H134729   1.054   0.232  13.131  1.2548  0.1054  0.3601
 4438TIP3    H234730   1.111   0.302  13.252 -0.5347 -0.0987  1.3700
 4439TIP3   OH234731   4.562   3.658   3.000  0.2472  0.5384  0.1615
 4439TIP3    H134732   4.567   3.568   2.968  0.0965  1.2438 -1.9988
 4439TIP3    H234733   4.518   3.651   3.085 -1.7240 -1.2411 -0.9038
 4440TIP3   OH234734   5.693   2.053  10.770 -0.4583 -0.0664  0.3000
 4440TIP3    H134735   5.680   2.079  10.679  1.0666  3.8839  1.0507
 4440TIP3    H234736   5.609   2.072  10.812 -0.8271 -0.9090 -0.0245
 4441TIP3   OH234737   3.742   5.947  14.349 -0.4126  0.1379 -0.3872
 4441TIP3    H134738   3.749   5.877  14.413 -0.0741 -1.0523 -1.6649
 4441TIP3    H234739   3.648   5.957  14.334 -0.4737  0.1585  0.0071
 4442TIP3   OH234740   5.567   1.282  16.384 -0.3637  0.3175  0.0580
 4442TIP3    H134741   5.563   1.191  16.414 -1.5198  0.2446 -0.2768
 4442TIP3    H234742   5.642   1.284  16.324 -0.8802 -0.6424 -0.6448
 4443TIP3   OH234743   0.840   4.909   1.920  0.5296 -0.0967  0.0363
 4443TIP3    H134744   0.773   4.849   1.953 -1.4307  0.4193 -2.7477
 4443TIP3    H234745   0.906   4.852   1.881 -0.4183 -0.5432 -0.9627
 4444TIP3   OH234746   3.751   4.879  12.106 -0.2504 -0.9385  0.0534
 4444TIP3    H134747   3.780   4.791  12.082  1.6662 -0.6290  0.9870
 4444TIP3    H234748   3.727   4.871  12.198  0.8732 -0.3001  0.4130
 4445TIP3   OH234749   5.882   5.461   2.743  0.3471  0.1596 -0.0537
 4445TIP3    H134750   5.787   5.462   2.729  0.3874 -2.0187 -0.9366
 4445TIP3    H234751   5.919   5.443   2.656  1.4418 -0.8241  0.5762
 4446TIP3   OH234752   6.268   4.816  13.720 -0.5802  0.0458 -0.3567
 4446TIP3    H134753   6.182   4.788  13.753 -0.6297  0.2355 -0.3221
 4446TIP3    H234754   6.315   4.734  13.705  0.3024 -0.0677  2.4014
 4447TIP3   OH234755   2.378   4.298  16.190  0.1862 -0.3036 -0.3938
 4447TIP3    H134756   2.411   4.324  16.276  0.9902  1.0749 -1.0862
 4447TIP3    H234757   2.352   4.206  16.201 -0.0995 -0.0452  1.4084
 4448TIP3   OH234758   0.961   4.313  13.749  0.2063 -0.7103  0.8793
 4448TIP3    H134759   0.964   4.266  13.666  1.0998  3.2105 -1.5432
 4448TIP3    H234760   0.868   4.309  13.775 -0.4157 -0.6199 -1.1996
 4449TIP3   OH234761   1.389   3.564  13.781  0.3067  0.0215  0.4502
 4449TIP3    H134762   1.476   3.541  13.814  0.3185  1.6551  1.6878
 4449TIP3    H234763   1.406   3.626  13.710  0.1875 -1.7144 -1.1977
 4450TIP3   OH234764   4.207   0.764  12.960  0.7980 -0.1620 -0.2323
 4450TIP3    H134765   4.135   0.701  12.966  1.1348 -0.4725  0.7914
 4450TIP3    H234766   4.196   0.819  13.037  1.4318  0.0325 -0.2782
 4451TIP3   OH234767   0.090   5.640  16.415  0.0104 -0.2868 -0.1701
 4451TIP3    H134768   0.039   5.615  16.338 -0.5313 -0.9054  0.3766
 4451TIP3    H234769   0.158   5.699  16.381  0.2212 -1.1087 -1.2310
 4452TIP3   OH234770   6.213   3.369   1.996 -0.5875  0.6194  0.3799
 4452TIP3    H134771   6.281   3.434   1.979 -0.5765 -0.0787 -2.7233
 4452TIP3    H234772   6.142   3.392   1.936 -1.0762 -1.5191  0.0654
 4453TIP3   OH234773   1.484   0.993   0.261  0.6195  0.2526 -0.5770
 4453TIP3    H134774   1.462   1.007   0.169  1.3765  1.4891 -0.5944
 4453TIP3    H234775   1.454   1.072   0.305  3.4958  1.3520 -0.3649
 4454TIP3   OH234776   1.057   6.271   0.783 -0.0912 -0.0168  0.0961
 4454TIP3    H134777   1.070   6.333   0.711 -0.8933  0.5802  0.4617
 4454TIP3    H234778   1.133   6.213   0.777  1.0709  1.4345  0.1986
 4455TIP3   OH234779   6.467   5.180   5.836 -0.1751  0.6369  0.1007
 4455TIP3    H134780   6.472   5.191   5.741  1.6313 -0.6951 -0.0181
 4455TIP3    H234781   6.484   5.087   5.850 -3.0779  0.2222  1.6284
 4456TIP3   OH234782   6.495   5.470   1.560  0.4208 -0.1958 -0.2077
 4456TIP3    H134783   6.524   5.560   1.576 -0.5913  0.3646 -1.4034
 4456TIP3    H234784   6.402   5.470   1.585  0.6087 -1.1394  0.5672
 4457TIP3   OH234785   5.603   3.986  15.938  0.0092 -0.3596 -0.0542
 4457TIP3    H134786   5.617   4.047  15.865  1.9302 -1.5247 -0.7275
 4457TIP3    H234787   5.508   3.979  15.945 -0.2327  0.4693 -1.8771
 4458TIP3   OH234788   3.297   1.892   0.711 -0.0003  0.2023  0.2261
 4458TIP3    H134789   3.282   1.967   0.653  1.2941  1.1349  1.0430
 4458TIP3    H234790   3.235   1.903   0.782  0.3967  0.6728  0.5002
 4459TIP3   OH234791   1.108   2.994  12.934 -0.4819 -0.0168  0.3697
 4459TIP3    H134792   1.169   2.997  12.861 -0.7213 -5.3388 -0.4754
 4459TIP3    H234793   1.042   3.061  12.914  2.4079  2.6238 -1.1246
 4460TIP3   OH234794   3.007   0.290  11.701 -0.0436  0.2261 -0.0449
 4460TIP3    H134795   3.041   0.310  11.788  1.1578 -1.8531  0.0369
 4460TIP3    H234796   3.082   0.302  11.642 -0.3920 -0.0220 -0.5490
 4461TIP3   OH234797   4.779   3.561   4.097 -0.1893 -0.2087 -0.6802
 4461TIP3    H134798   4.867   3.558   4.134  0.1376 -0.1198 -1.4325
 4461TIP3    H234799   4.793   3.562   4.002 -0.9991 -0.1470 -0.8046
 4462TIP3   OH234800   2.131   2.722  12.095 -0.1471  0.7563 -0.3429
 4462TIP3    H134801   2.040   2.729  12.066 -0.9660  0.1904  1.8942
 4462TIP3    H234802   2.152   2.629  12.086  0.2269  0.8821 -0.8290
 4463TIP3   OH234803   6.194   2.692  13.482 -0.2713 -0.2618  0.0156
 4463TIP3    H134804   6.134   2.636  13.433 -0.0107  0.2536 -0.9215
 4463TIP3    H234805   6.254   2.632  13.525  0.4486 -0.7263 -1.5396
 4464TIP3   OH234806   4.867   6.133   4.777  0.0783 -0.3035  0.1511
 4464TIP3    H134807   4.863   6.052   4.726 -2.1598 -0.4576  0.4518
 4464TIP3    H234808   4.783   6.176   4.761 -0.2888  0.1863  2.8237
 4465TIP3   OH234809   0.673   4.092  17.309 -0.0887  0.4761  0.4661
 4465TIP3    H134810   0.612   4.096  17.382 -1.9049 -0.2390 -0.9397
 4465TIP3    H234811   0.665   4.177  17.266 -1.9865 -0.4089 -1.0966
 4466TIP3   OH234812   3.481   5.540  12.873 -0.3691 -0.1517 -0.2306
 4466TIP3    H134813   3.524   5.582  12.799  2.1296 -1.7869  0.1657
 4466TIP3    H234814   3.551   5.493  12.918 -2.1956 -1.0158  1.9160
 4467TIP3   OH234815   0.212   0.693  15.257 -0.7067 -0.1692 -0.5926
 4467TIP3    H134816   0.220   0.606  15.295 -2.7607  0.9024  2.6784
 4467TIP3    H234817   0.120   0.700  15.232 -0.7551  1.2931 -0.0761
 4468TIP3   OH234818   1.846   6.361   4.809 -0.2615 -0.2951  0.1596
 4468TIP3    H134819   1.940   6.378   4.807 -0.4439  0.7444 -0.4954
 4468TIP3    H234820   1.828   6.318   4.726 -0.8683  2.6833 -1.4040
 4469TIP3   OH234821   4.389   3.432   4.401 -0.7006 -0.1172  0.0090
 4469TIP3    H134822   4.430   3.518   4.397  1.9605 -1.3132 -1.0424
 4469TIP3    H234823   4.419   3.388   4.321 -2.4178 -1.8597  0.2518
 4470TIP3   OH234824   2.802   3.216   5.036  0.2332 -0.2174 -0.1335
 4470TIP3    H134825   2.898   3.216   5.032  0.1839 -0.2044 -1.7408
 4470TIP3    H234826   2.782   3.152   5.104  1.3598 -0.9496 -0.4540
 4471TIP3   OH234827   3.639   3.905   5.160  0.8148  0.8119  0.4722
 4471TIP3    H134828   3.725   3.946   5.167  0.8299  0.6157  1.5746
 4471TIP3    H234829   3.587   3.967   5.109  1.4857  1.1146  0.1380
 4472TIP3   OH234830   5.805   1.082   3.494  0.6325  0.6701 -0.2745
 4472TIP3    H134831   5.769   1.170   3.503 -1.9019  0.0380 -2.8136
 4472TIP3    H234832   5.840   1.079   3.405 -2.0474 -1.6328 -1.4165
 4473TIP3   OH234833   2.597   2.685  15.013 -0.4692  0.8345 -0.1173
 4473TIP3    H134834   2.680   2.640  15.024 -1.8391 -1.8326  0.0850
 4473TIP3    H234835   2.604   2.729  14.929  2.6503  4.3931  1.6918
 4474TIP3   OH234836   2.758   6.431  16.144  0.1341  0.0986 -0.8695
 4474TIP3    H134837   2.751   6.400  16.054 -0.1473  2.1388 -1.5962
 4474TIP3    H234838   2.675   6.477  16.161 -0.1951 -1.0097  0.7616
 4475TIP3   OH234839   4.484   2.460   5.323 -0.0375  0.0387  0.4711
 4475TIP3    H134840   4.404   2.477   5.273 -0.1040 -0.9195  0.2307
 4475TIP3    H234841   4.460   2.477   5.414 -0.0021  1.5005  0.2365
 4476TIP3   OH234842   1.858   1.617   4.648  0.1135 -0.3679 -0.0390
 4476TIP3    H134843   1.850   1.575   4.562 -0.1635 -0.1012 -0.1493
 4476TIP3    H234844   1.791   1.686   4.646  1.3680  0.8848 -0.3474
 4477TIP3   OH234845   3.233   6.413  13.680  0.0061  0.0301  0.4184
 4477TIP3    H134846   3.215   6.408  13.774 -0.2974 -0.3940  0.3455
 4477TIP3    H234847   3.150   6.442  13.641  0.1448  0.2524  0.2855
 4478TIP3   OH234848   0.340   4.113   1.015  0.4192  0.2099  0.3286
 4478TIP3    H134849   0.376   4.200   1.001  1.2430 -0.1984 -0.1475
 4478TIP3    H234850   0.416   4.056   1.020 -0.1130 -1.0204 -2.9640
 4479TIP3   OH234851   3.816   5.870   2.567 -0.2334 -0.4908 -0.3924
 4479TIP3    H134852   3.771   5.954   2.553  0.3317  0.0489  0.8508
 4479TIP3    H234853   3.762   5.806   2.522 -1.2499  0.4052 -0.4885
 4480TIP3   OH234854   5.500   1.963   4.676 -0.2186  0.3742  0.0454
 4480TIP3    H134855   5.484   1.886   4.621 -0.7342  0.5279 -0.0249
 4480TIP3    H234856   5.498   2.037   4.616 -0.8347  0.5476  0.2690
 4481TIP3   OH234857   5.691   3.981  11.791  0.0264 -0.4430 -0.3342
 4481TIP3    H134858   5.733   4.016  11.869  0.7872  0.3807 -1.0888
 4481TIP3    H234859   5.626   3.919  11.824  0.1759  0.0593  0.9511
 4482TIP3   OH234860   6.475   1.656  14.664 -0.5700 -0.1319  0.5750
 4482TIP3    H134861   6.530   1.689  14.593  0.4272 -2.4646  0.1593
 4482TIP3    H234862   6.446   1.570  14.634 -2.2279 -0.1055  1.9557
 4483TIP3   OH234863   5.178   1.475   4.659  0.1855  0.7534 -0.3614
 4483TIP3    H134864   5.110   1.426   4.704  1.9433 -0.0306  1.5727
 4483TIP3    H234865   5.164   1.566   4.686  1.3243  0.2814  2.0840
 4484TIP3   OH234866   6.637   1.409   3.408  0.8574  0.3825  0.1730
 4484TIP3    H134867   6.652   1.321   3.374 -0.5267  0.6139 -1.1642
 4484TIP3    H234868   6.710   1.425   3.467  2.1487 -0.9443 -0.9819
 4485TIP3   OH234869   5.368   0.673  17.228  0.2979  0.1275 -0.0312
 4485TIP3    H134870   5.297   0.641  17.172  0.0922  0.7831 -0.1501
 4485TIP3    H234871   5.448   0.644  17.184  0.3298  3.5922 -2.6391
 4486TIP3   OH234872   0.880   3.397  16.938  0.5812 -0.1946  0.3392
 4486TIP3    H134873   0.918   3.485  16.931  0.6971  0.2778  4.4429
 4486TIP3    H234874   0.955   3.338  16.933  0.7647  0.0705 -0.1488
 4487TIP3   OH234875   0.772   2.143   1.512 -0.1216  0.3102 -0.0691
 4487TIP3    H134876   0.797   2.155   1.420 -0.1621 -0.4959 -0.1955
 4487TIP3    H234877   0.677   2.134   1.510 -0.2389  1.3837  0.1850
 4488TIP3   OH234878   3.879   3.148  16.674 -0.7908  0.0565 -0.2189
 4488TIP3    H134879   3.905   3.056  16.665 -0.0130  0.2410 -0.0175
 4488TIP3    H234880   3.784   3.147  16.670 -0.7480 -0.5385 -2.2043
 4489TIP3   OH234881   4.814   5.732   4.016 -0.3751  0.0049  0.4572
 4489TIP3    H134882   4.872   5.672   4.062 -1.7402 -0.1147  2.1119
 4489TIP3    H234883   4.762   5.677   3.957 -1.8957 -0.5648  2.2519
 4490TIP3   OH234884   1.962   3.285   5.755  0.4628  0.0713  0.1703
 4490TIP3    H134885   1.903   3.223   5.797  0.5710  0.5021  0.9813
 4490TIP3    H234886   2.022   3.231   5.704 -0.7351 -0.3710 -0.8447
 4491TIP3   OH234887   6.218   6.461  13.879  0.8059 -0.8134  0.0351
 4491TIP3    H134888   6.276   6.385  13.885  0.8512 -0.8368 -0.6443
 4491TIP3    H234889   6.130   6.425  13.881  0.8261 -0.8576  0.0960
 4492TIP3   OH234890   3.534   0.208   4.671  0.2399  0.3707 -0.3544
 4492TIP3    H134891   3.572   0.205   4.583  2.0930  0.7032  0.3963
 4492TIP3    H234892   3.578   0.280   4.714 -1.1444  0.6511  0.6619
 4493TIP3   OH234893   0.647   4.652   2.446  0.1874 -0.1193  0.3837
 4493TIP3    H134894   0.723   4.707   2.459 -0.0976  0.4503 -0.3430
 4493TIP3    H234895   0.676   4.582   2.387 -0.0715  0.5814 -0.5906
 4494TIP3   OH234896   6.356   2.064  14.251 -0.1939  0.2800 -0.5809
 4494TIP3    H134897   6.445   2.092  14.233  0.0663  0.3681  0.7870
 4494TIP3    H234898   6.346   2.072  14.346 -2.1681  1.7962 -0.8439
 4495TIP3   OH234899   6.491   3.359   2.269  0.2988 -0.6039 -0.1499
 4495TIP3    H134900   6.572   3.367   2.219  1.3698 -0.8313  1.4876
 4495TIP3    H234901   6.476   3.446   2.306  0.8039 -1.0015  1.0231
 4496TIP3   OH234902   0.645   5.159  13.794 -0.7613 -0.1879 -0.7691
 4496TIP3    H134903   0.679   5.240  13.756 -0.9871 -0.2158 -1.0287
 4496TIP3    H234904   0.686   5.089  13.742  1.1201 -0.3362  0.7676
 4497TIP3   OH234905   1.607   5.295  15.282  0.2544 -0.0434  0.6612
 4497TIP3    H134906   1.592   5.201  15.292 -1.6492  0.2295  0.8158
 4497TIP3    H234907   1.699   5.303  15.259  0.4438 -1.9428  0.6389
 4498TIP3   OH234908   6.731   4.312   0.268  0.6569  0.0704  0.5481
 4498TIP3    H134909   6.689   4.226   0.274  1.5322 -0.6440 -1.9774
 4498TIP3    H234910   6.672   4.372   0.314 -2.8206 -0.9917 -2.1071
 4499TIP3   OH234911   5.576   2.219  11.854 -0.3111 -0.1530  0.1623
 4499TIP3    H134912   5.558   2.131  11.821 -1.3671  1.0390 -2.7578
 4499TIP3    H234913   5.518   2.229  11.929  0.1207 -2.0458  0.7934
 4500TIP3   OH234914   3.304   6.028   1.183  0.3441 -0.6368  0.1463
 4500TIP3    H134915   3.344   5.941   1.193 -0.5519 -1.3425 -1.9232
 4500TIP3    H234916   3.220   6.021   1.229 -0.4774 -1.4687 -1.3898
 4501TIP3   OH234917   3.599   4.903   0.967  0.5670  0.0485 -0.2618
 4501TIP3    H134918   3.641   4.842   1.027  0.4792 -0.2289 -0.4784
 4501TIP3    H234919   3.668   4.926   0.905  0.6567  0.3319 -0.0560
 4502TIP3   OH234920   4.493   3.901  12.135  0.0492  0.5328  0.1931
 4502TIP3    H134921   4.577   3.932  12.167 -0.4140  0.5940  1.3892
 4502TIP3    H234922   4.435   3.905  12.211 -0.3675 -2.0118  0.1049
 4503TIP3   OH234923   5.846   5.805  11.552  0.7989 -0.2240  0.6117
 4503TIP3    H134924   5.924   5.829  11.502  0.0067 -0.1177 -0.6200
 4503TIP3    H234925   5.820   5.720  11.518 -0.9997  0.8072 -0.7624
 4504TIP3   OH234926   3.592   4.035  15.719 -0.0551 -0.9037  0.6915
 4504TIP3    H134927   3.546   4.104  15.671  0.0996  0.5118  2.4618
 4504TIP3    H234928   3.684   4.060  15.715 -0.2623  1.2688  4.4717
 4505TIP3   OH234929   5.645   6.429  13.620 -0.2302  0.3824  0.8184
 4505TIP3    H134930   5.553   6.455  13.618 -0.1724  0.5777 -0.9212
 4505TIP3    H234931   5.692   6.506  13.588  0.1267 -0.9973 -2.3608
 4506TIP3   OH234932   4.560   2.659   2.352 -0.4849 -0.0507  0.0220
 4506TIP3    H134933   4.539   2.632   2.442 -1.3175  2.9829  0.8780
 4506TIP3    H234934   4.499   2.730   2.334  0.7580  0.5193 -2.3679
 4507TIP3   OH234935   4.389   4.579  14.453  0.0502  0.1236 -0.2453
 4507TIP3    H134936   4.409   4.652  14.394  0.1562 -0.6450 -1.1799
 4507TIP3    H234937   4.460   4.517  14.439 -0.4022 -0.4592  0.0431
 4508TIP3   OH234938   3.922   0.877  13.353 -0.2275 -0.4853 -0.4945
 4508TIP3    H134939   3.847   0.935  13.367 -0.5401 -1.1930  1.0051
 4508TIP3    H234940   3.884   0.798  13.314 -0.1146 -0.4490 -0.6749
 4509TIP3   OH234941   4.379   2.678  12.884 -0.5408  0.7404 -0.6158
 4509TIP3    H134942   4.329   2.753  12.852 -0.0781  1.3458  0.0302
 4509TIP3    H234943   4.470   2.699  12.860 -0.1782  1.2224  1.0405
 4510TIP3   OH234944   6.592   4.531  16.620  0.3726 -0.2021 -0.0994
 4510TIP3    H134945   6.596   4.627  16.621 -0.9323 -0.1303  0.0837
 4510TIP3    H234946   6.669   4.504  16.569  0.6023  0.9544 -0.3889
 4511TIP3   OH234947   1.477   4.521  17.205 -0.3712 -0.3723  0.3700
 4511TIP3    H134948   1.551   4.464  17.184  0.7048  0.5023  1.6688
 4511TIP3    H234949   1.503   4.607  17.171  0.3751  0.5286  3.0275
 4512TIP3   OH234950   4.679   6.311   3.911 -0.3550  0.4153  0.2058
 4512TIP3    H134951   4.762   6.333   3.869 -0.3347 -0.6543 -0.3742
 4512TIP3    H234952   4.636   6.395   3.925  0.8184  0.9922  0.5249
 4513TIP3   OH234953   2.194   6.490   4.412  0.1212  0.0681  0.2397
 4513TIP3    H134954   2.251   6.497   4.335  0.3511  0.4529  0.4435
 4513TIP3    H234955   2.200   6.576   4.454 -1.0138  0.2888 -0.0182
 4514TIP3   OH234956   4.132   1.265   3.498  0.0115  0.3340  0.3724
 4514TIP3    H134957   4.209   1.275   3.554 -0.3789 -3.2174  1.7868
 4514TIP3    H234958   4.063   1.235   3.558 -0.7595 -2.4192 -1.7064
 4515TIP3   OH234959   2.127   6.531   1.080  0.0693 -0.1710 -0.1369
 4515TIP3    H134960   2.112   6.461   1.017  0.2649 -0.2766 -0.0636
 4515TIP3    H234961   2.091   6.609   1.037  0.7255 -0.1322 -0.6213
 4516TIP3   OH234962   2.300   6.251  16.754 -0.0910  0.6322  0.0045
 4516TIP3    H134963   2.365   6.311  16.717 -0.0824  0.0356 -0.9698
 4516TIP3    H234964   2.223   6.261  16.698 -0.3262  0.2233  0.2484
 4517TIP3   OH234965   5.195   3.385   0.091 -0.0444 -0.4079 -0.0310
 4517TIP3    H134966   5.147   3.385   0.174 -0.8717 -2.3748 -0.4593
 4517TIP3    H234967   5.128   3.367   0.025  0.6138  1.0615 -1.1479
 4518TIP3   OH234968   0.328   5.195   0.833 -0.5320  0.0629 -0.1635
 4518TIP3    H134969   0.256   5.210   0.894 -2.0794 -2.1361 -1.3024
 4518TIP3    H234970   0.290   5.210   0.747  0.7415  0.1226 -0.7367
 4519TIP3   OH234971   4.552   2.988  14.408 -0.5560  0.0699  0.2675
 4519TIP3    H134972   4.494   2.925  14.366 -1.6188 -0.0539  1.8339
 4519TIP3    H234973   4.507   3.072  14.402  1.2300  0.9799 -2.5628
 4520TIP3   OH234974   0.507   0.052  12.119  0.2263 -0.3910  0.2268
 4520TIP3    H134975   0.424   0.016  12.148  0.3734 -2.4267 -1.6149
 4520TIP3    H234976   0.489   0.144  12.101 -0.8745 -0.1026  2.4917
 4521TIP3   OH234977   3.381   0.671  12.032  0.2351 -0.1310  0.2118
 4521TIP3    H134978   3.310   0.699  11.974 -0.0848  1.5915  1.3378
 4521TIP3    H234979   3.449   0.737  12.020  0.8783 -0.7259  0.5160
 4522TIP3   OH234980   5.335   3.192  12.762  0.8488  0.1378 -0.9632
 4522TIP3    H134981   5.383   3.233  12.835  0.9685 -0.9913 -0.3864
 4522TIP3    H234982   5.403   3.158  12.704  0.7781 -1.0356 -0.3903
 4523TIP3   OH234983   5.248   4.866  11.810  0.0654  0.2582 -0.0256
 4523TIP3    H134984   5.222   4.915  11.732 -1.6201  1.1243  1.0142
 4523TIP3    H234985   5.231   4.775  11.788  1.3750  0.2727 -1.2904
 4524TIP3   OH234986   2.605   1.831  15.656 -0.5397  0.8423  0.0802
 4524TIP3    H134987   2.519   1.873  15.658 -0.7231  0.4827 -0.2130
 4524TIP3    H234988   2.651   1.874  15.584 -0.7771  0.4493 -0.3098
 4525TIP3   OH234989   5.504   6.156   2.199 -0.0362  0.0482 -0.0695
 4525TIP3    H134990   5.464   6.219   2.139 -0.0084 -0.1213 -0.2669
 4525TIP3    H234991   5.431   6.115   2.244 -0.0165  1.2831  1.1571
 4526TIP3   OH234992   4.950   3.616  14.909 -0.1880  0.6503  0.1504
 4526TIP3    H134993   5.001   3.535  14.902 -0.6889  0.4670 -1.7491
 4526TIP3    H234994   4.868   3.589  14.951 -1.0894 -0.2369 -2.0354
 4527TIP3   OH234995   6.492   1.051   0.460  0.1332  0.1515 -0.1679
 4527TIP3    H134996   6.436   1.106   0.405  1.5924  0.6684 -1.2062
 4527TIP3    H234997   6.567   1.107   0.480  0.0561 -0.3419  1.6360
 4528TIP3   OH234998   0.685   6.554   4.055  0.0383  0.0087  0.5116
 4528TIP3    H134999   0.643   6.491   3.996  1.3541 -0.2976 -0.1462
 4528TIP3    H235000   0.772   6.516   4.071  1.4493  2.3354 -1.1003
 4529TIP3   OH235001   2.973   4.895  17.062 -0.1242  0.0432  0.2676
 4529TIP3    H135002   2.963   4.840  16.984  3.0644  0.0852 -0.3106
 4529TIP3    H235003   2.970   4.833  17.135 -1.9432 -0.1409  0.0811
 4530TIP3   OH235004   4.533   1.869   4.377  0.7781 -0.3517 -0.0013
 4530TIP3    H135005   4.620   1.901   4.401  0.5459  0.7774 -0.5631
 4530TIP3    H235006   4.549   1.796   4.318  1.3406 -0.4772  0.3002
 4531TIP3   OH235007   1.158   1.915  15.961 -0.4412  0.7567 -0.0881
 4531TIP3    H135008   1.116   1.844  16.010 -1.1697  1.5092  0.3984
 4531TIP3    H235009   1.232   1.873  15.917  0.7757  0.2350  2.3455
 4532TIP3   OH235010   4.959   1.254  13.686  0.0623 -0.4791 -0.2496
 4532TIP3    H135011   4.928   1.164  13.694 -2.4481  0.3246  0.0595
 4532TIP3    H235012   4.926   1.283  13.600  2.3020 -0.3300 -1.1141
 4533TIP3   OH235013   2.037   4.950  15.717  0.3382 -0.4137 -0.6077
 4533TIP3    H135014   1.979   4.988  15.651 -2.4998 -1.2992  1.1870
 4533TIP3    H235015   2.058   4.863  15.685  1.8629  0.3664 -1.8761
 4534TIP3   OH235016   2.325   5.225   2.670 -0.2227 -0.1108  0.8338
 4534TIP3    H135017   2.375   5.248   2.749  0.4597 -0.4420  0.5092
 4534TIP3    H235018   2.358   5.284   2.603  2.5399 -2.7631 -0.3678
 4535TIP3   OH235019   1.050   2.787   5.413 -0.1757 -0.1591  0.1291
 4535TIP3    H135020   0.956   2.806   5.411 -0.1120  0.3971  1.3473
 4535TIP3    H235021   1.061   2.728   5.488  0.3909 -0.5192 -0.2353
 4536TIP3   OH235022   3.355   2.087  11.511 -0.0488  0.2708  0.1327
 4536TIP3    H135023   3.414   2.055  11.442  1.3497 -0.6708  1.6922
 4536TIP3    H235024   3.268   2.061  11.481 -0.0353  3.2183 -3.0873
 4537TIP3   OH235025   1.619   1.828   5.940  0.0523 -0.3887  0.4434
 4537TIP3    H135026   1.561   1.785   6.003  0.0322 -0.4473  0.3842
 4537TIP3    H235027   1.611   1.776   5.860  1.3393 -1.3249  0.8778
 4538TIP3   OH235028   4.082   3.275   4.181  0.4103  0.3424 -0.5138
 4538TIP3    H135029   4.102   3.200   4.126 -1.4701  0.7128 -1.8168
 4538TIP3    H235030   4.130   3.259   4.263 -0.2147 -2.4570 -0.5966
 4539TIP3   OH235031   6.290   6.394  13.201  0.2570 -0.3550 -0.0126
 4539TIP3    H135032   6.247   6.308  13.195 -0.6320  0.0336  0.6260
 4539TIP3    H235033   6.290   6.427  13.111 -1.6698  0.0530  0.1063
 4540TIP3   OH235034   1.010   0.779   1.431 -0.3724  0.2149 -0.2093
 4540TIP3    H135035   0.953   0.856   1.427 -0.7559 -0.0703 -0.2964
 4540TIP3    H235036   1.000   0.748   1.521 -0.5181  0.0433 -0.2840
 4541TIP3   OH235037   5.739   3.625  14.782 -0.0592  0.0131 -0.3858
 4541TIP3    H135038   5.747   3.699  14.722  0.5962  1.9611  1.9410
 4541TIP3    H235039   5.646   3.603  14.781 -0.7062  2.4126  0.5303
 4542TIP3   OH235040   0.001   2.723   0.524 -0.6186 -0.1277  0.1753
 4542TIP3    H135041  -0.047   2.724   0.607  0.0853  1.5563  0.5924
 4542TIP3    H235042  -0.032   2.800   0.477  1.1097  0.6453  0.1618
 4543TIP3   OH235043   1.789   0.650   6.262  0.1661  0.0237  0.5450
 4543TIP3    H135044   1.835   0.649   6.346  1.8409  0.5456 -0.3101
 4543TIP3    H235045   1.817   0.569   6.219 -0.3847 -0.0594  0.3405
 4544TIP3   OH235046   0.114   5.900   3.110  0.0737  0.1493  0.5365
 4544TIP3    H135047   0.120   5.829   3.174  1.5087 -1.3851 -1.1552
 4544TIP3    H235048   0.166   5.971   3.148  0.7846 -0.6709  1.1571
 4545TIP3   OH235049   0.864   6.561  15.512 -0.2182  0.6440  0.1619
 4545TIP3    H135050   0.773   6.530  15.515 -0.0108 -0.2898 -1.8742
 4545TIP3    H235051   0.911   6.503  15.573 -0.3748 -1.2986 -1.4476
 4546TIP3   OH235052   2.057   0.611  14.711 -1.1112 -0.4604 -0.5693
 4546TIP3    H135053   1.985   0.618  14.774 -0.1259  0.7973  0.4731
 4546TIP3    H235054   2.130   0.577  14.763 -0.7855 -1.2286 -1.4953
 4547TIP3   OH235055   1.969   6.332   2.677  0.0134  0.0878 -0.0334
 4547TIP3    H135056   1.884   6.338   2.632  1.0258 -0.4392 -2.1293
 4547TIP3    H235057   1.956   6.266   2.744 -1.4783  0.6675  0.2877
 4548TIP3   OH235058   5.142   3.161  13.350 -0.0818  0.5497  0.4907
 4548TIP3    H135059   5.109   3.198  13.268 -1.1378 -2.1621 -0.4368
 4548TIP3    H235060   5.237   3.165  13.342 -0.1798  1.5174 -0.2827
 4549TIP3   OH235061   5.112   3.131   4.877 -0.2878  0.3328  0.0615
 4549TIP3    H135062   5.135   3.039   4.868  0.1969  0.3484  1.0769
 4549TIP3    H235063   5.187   3.171   4.920 -0.8975  1.0082  0.5305
 4550TIP3   OH235064   3.948   2.484  13.987 -0.8973 -0.1083  0.1294
 4550TIP3    H135065   3.864   2.526  14.006  0.1210  1.2454  1.9169
 4550TIP3    H235066   3.999   2.551  13.943 -0.3689 -0.5507  0.0665
 4551TIP3   OH235067   1.107   2.445  12.312  0.7139 -0.4963  0.6749
 4551TIP3    H135068   1.164   2.512  12.350 -0.9652  0.9089  0.8504
 4551TIP3    H235069   1.042   2.495  12.261 -0.2149 -2.0378  0.2855
 4552TIP3   OH235070   5.321   1.405   5.872  0.1334 -0.1666  0.1116
 4552TIP3    H135071   5.315   1.356   5.790  0.1964  3.2120 -2.0822
 4552TIP3    H235072   5.413   1.399   5.897  0.5729  0.4997 -1.2686
 4553TIP3   OH235073   0.183   2.353  11.252 -0.2482  0.3727 -0.2967
 4553TIP3    H135074   0.105   2.382  11.206  0.3062  1.2539 -0.6955
 4553TIP3    H235075   0.255   2.398  11.210  0.5404 -0.7468 -0.2079
 4554TIP3   OH235076   2.576   0.967  11.814 -0.0914  0.0989 -0.3122
 4554TIP3    H135077   2.589   1.004  11.727 -0.7468  0.5919 -0.2053
 4554TIP3    H235078   2.552   1.041  11.869 -2.5972 -0.6173 -0.3409
 4555TIP3   OH235079   0.661   2.695   4.152 -0.5634 -0.6559  0.4033
 4555TIP3    H135080   0.715   2.676   4.076 -1.5822  1.5645 -0.9748
 4555TIP3    H235081   0.722   2.729   4.217  0.0988 -1.0110 -0.0232
 4556TIP3   OH235082   1.596   6.367   1.339  0.1302  0.1737 -0.0728
 4556TIP3    H135083   1.633   6.297   1.394  1.6301  0.4731 -0.6553
 4556TIP3    H235084   1.534   6.321   1.282  0.2997 -0.5131  0.2786
 4557TIP3   OH235085   3.464   3.702   3.546 -0.2862  0.5067 -0.1313
 4557TIP3    H135086   3.373   3.691   3.573 -0.1257  0.6322  0.4770
 4557TIP3    H235087   3.486   3.620   3.502 -0.2277 -0.1695  1.0977
 4558TIP3   OH235088   2.859   4.694   3.019 -0.3242 -0.1010 -0.5162
 4558TIP3    H135089   2.828   4.710   3.108  0.1572  0.2045 -0.4011
 4558TIP3    H235090   2.803   4.623   2.986 -1.8923  1.1511 -0.6973
 4559TIP3   OH235091   4.741   2.408   0.528  0.3745 -0.4608  0.0203
 4559TIP3    H135092   4.687   2.444   0.599 -1.4794 -0.4308 -1.3127
 4559TIP3    H235093   4.760   2.483   0.473 -0.7509 -0.9369 -1.0583
 4560TIP3   OH235094   2.156   6.268  11.298 -0.5649 -0.1720 -0.2749
 4560TIP3    H135095   2.233   6.322  11.283 -1.3039  0.9554 -0.1525
 4560TIP3    H235096   2.103   6.279  11.219 -0.2607 -1.5534 -0.6916
 4561TIP3   OH235097   6.600   2.581  13.203  0.0391 -0.2474  0.0792
 4561TIP3    H135098   6.624   2.513  13.140  1.3325  1.2547 -1.1182
 4561TIP3    H235099   6.504   2.579  13.206 -0.0026 -0.9417 -1.2393
 4562TIP3   OH235100   2.076   5.590   6.065 -0.1646 -0.2475 -0.2299
 4562TIP3    H135101   2.084   5.612   6.158 -1.9339 -0.6131  0.0480
 4562TIP3    H235102   2.034   5.504   6.065  0.7253 -0.7104 -1.3771
 4563TIP3   OH235103   5.227   0.724  11.122  0.1580  0.2147  0.6745
 4563TIP3    H135104   5.170   0.652  11.094 -3.6950  3.5948 -1.4049
 4563TIP3    H235105   5.298   0.725  11.058 -1.6590  0.2036 -1.4802
 4564TIP3   OH235106   3.141   6.270   2.846  0.7011  0.3262 -0.4435
 4564TIP3    H135107   3.189   6.353   2.837  1.7746 -0.0363  1.4647
 4564TIP3    H235108   3.112   6.268   2.937 -1.1046 -0.4809 -1.0046
 4565TIP3   OH235109   6.295   5.581  17.096  0.1729 -0.0460 -0.2346
 4565TIP3    H135110   6.370   5.591  17.155  0.4794 -3.0836  0.0192
 4565TIP3    H235111   6.233   5.527  17.145 -0.2720 -1.2608 -2.0478
 4566TIP3   OH235112   1.230   2.147  12.038 -0.4379  0.3076  0.0714
 4566TIP3    H135113   1.145   2.108  12.016 -0.4085 -0.0385  0.5534
 4566TIP3    H235114   1.293   2.078  12.020 -0.3738  0.1631  0.8281
 4567TIP3   OH235115   5.067   2.323   4.737 -0.2303  0.3564  0.1002
 4567TIP3    H135116   5.023   2.259   4.791  1.3215  0.0690  1.0966
 4567TIP3    H235117   5.079   2.399   4.794  1.0478  0.2064  0.0751
 4568TIP3   OH235118   6.217   0.438   2.965  0.7490 -0.4324  0.0050
 4568TIP3    H135119   6.210   0.345   2.986  2.2740 -0.8774 -1.2311
 4568TIP3    H235120   6.150   0.480   3.019 -0.7541 -2.3655 -0.2497
 4569TIP3   OH235121   3.129   0.893   0.876 -0.3127  0.1800 -0.2921
 4569TIP3    H135122   3.222   0.881   0.895 -0.4006  1.1929  0.8278
 4569TIP3    H235123   3.098   0.954   0.942 -0.7108  3.8109 -3.4742
 4570TIP3   OH235124   1.006   2.469   5.463 -0.0852  0.0535  0.1233
 4570TIP3    H135125   0.960   2.507   5.537 -0.4109  1.1759 -0.6266
 4570TIP3    H235126   1.043   2.387   5.496 -1.7330 -0.3554  1.0190
 4571TIP3   OH235127   1.479   0.737  14.228 -0.7873  0.3814  0.3746
 4571TIP3    H135128   1.386   0.740  14.251 -1.0953 -0.9510 -0.5639
 4571TIP3    H235129   1.483   0.678  14.152  0.7687  0.7791  0.1057
 4572TIP3   OH235130   3.571   5.034   5.647 -0.4187  0.4045  0.3146
 4572TIP3    H135131   3.573   5.122   5.684 -1.3415  0.8478 -0.6362
 4572TIP3    H235132   3.622   4.981   5.708 -0.8505  1.3546  1.5322
 4573TIP3   OH235133   5.050   6.514   3.681 -0.0493  0.8919 -0.0811
 4573TIP3    H135134   5.006   6.567   3.614 -2.4381 -0.0564  0.6232
 4573TIP3    H235135   5.007   6.428   3.676 -0.1657  0.7201  2.5032
 4574TIP3   OH235136   5.212   0.730   5.863 -0.0061 -0.0205  0.9959
 4574TIP3    H135137   5.276   0.659   5.864 -0.6866 -0.7295 -1.0049
 4574TIP3    H235138   5.176   0.728   5.774 -1.3364  1.6802  1.4548
 4575TIP3   OH235139   6.192   2.219  16.095 -0.0547 -0.0443  0.5328
 4575TIP3    H135140   6.117   2.267  16.132  1.0909  1.5463  0.8826
 4575TIP3    H235141   6.153   2.161  16.030 -1.8144 -0.7311  2.1150
 4576TIP3   OH235142   1.543   0.649  16.710 -0.4853 -0.2122  0.0546
 4576TIP3    H135143   1.494   0.632  16.629  0.5036  1.7120 -0.9910
 4576TIP3    H235144   1.582   0.564  16.732 -2.5279 -1.3035 -0.2173
 4577TIP3   OH235145   6.105   0.779   4.723  0.2825  0.2933  0.8827
 4577TIP3    H135146   6.125   0.865   4.687 -1.2808  0.3864  0.1631
 4577TIP3    H235147   6.121   0.788   4.817 -0.5593  1.5826  0.9199
 4578TIP3   OH235148   2.889   4.293   3.204  0.1735  0.2497  0.4896
 4578TIP3    H135149   2.948   4.364   3.179 -0.5812 -0.1354 -2.7951
 4578TIP3    H235150   2.804   4.337   3.217 -0.6309 -0.0335 -2.9081
 4579TIP3   OH235151   6.701   4.153   6.460 -0.4996  0.2087  0.5692
 4579TIP3    H135152   6.608   4.135   6.446 -0.2602 -1.5870  0.9820
 4579TIP3    H235153   6.712   4.147   6.555  0.3756 -1.6949  0.4009
 4580TIP3   OH235154   2.944   5.377   1.365 -0.0435  0.1115  0.2300
 4580TIP3    H135155   2.983   5.365   1.278 -1.9683  3.4950 -1.3152
 4580TIP3    H235156   2.868   5.318   1.365 -0.0388  0.0997 -0.4161
 4581TIP3   OH235157   6.098   2.874   4.609  0.0913 -0.3607 -0.0347
 4581TIP3    H135158   6.006   2.857   4.626  0.0497 -0.7299 -0.5987
 4581TIP3    H235159   6.101   2.905   4.519  0.2977  1.6184  0.5872
 4582TIP3   OH235160   1.315   5.390   0.279  0.2087 -0.0245  0.3308
 4582TIP3    H135161   1.278   5.357   0.198 -0.6693 -0.7591  1.0087
 4582TIP3    H235162   1.305   5.318   0.342  0.8174  0.5424  1.1059
 4583TIP3   OH235163   2.784   5.745   7.045  0.5383 -0.0372  0.0427
 4583TIP3    H135164   2.799   5.740   6.951 -0.0313 -0.5075 -0.0322
 4583TIP3    H235165   2.840   5.677   7.083 -0.8352 -1.3496 -0.1749
 4584TIP3   OH235166   4.220   2.605   5.246  0.0520 -0.3151  0.5037
 4584TIP3    H135167   4.196   2.538   5.311  0.3684  1.0611  2.1277
 4584TIP3    H235168   4.139   2.653   5.230 -0.0360 -0.6802 -0.1865
 4585TIP3   OH235169   0.021   5.026   5.232  0.0730  0.0575 -0.2779
 4585TIP3    H135170   0.014   4.981   5.148 -1.8793  0.3355 -0.3062
 4585TIP3    H235171   0.113   5.017   5.256  0.1462 -2.3334 -1.1664
 4586TIP3   OH235172   2.062   5.628   3.073 -0.3432  0.1946 -0.0657
 4586TIP3    H135173   2.080   5.552   3.129  0.9645  1.0626  0.7384
 4586TIP3    H235174   2.115   5.612   2.995 -3.0773 -1.6127 -1.7139
 4587TIP3   OH235175   4.446   5.116  14.576 -0.3960  0.2148  0.2220
 4587TIP3    H135176   4.447   5.196  14.629 -1.1613  0.0318  0.5286
 4587TIP3    H235177   4.527   5.120  14.525 -0.0609  0.8144  0.7831
 4588TIP3   OH235178   2.685   3.720   0.824  0.1049  0.4799 -0.5089
 4588TIP3    H135179   2.766   3.671   0.838  0.5574  1.4500  0.4478
 4588TIP3    H235180   2.626   3.690   0.893  0.0291  0.5276 -0.5534
 4589TIP3   OH235181   4.122   1.831  14.962  0.0908  0.2585  0.1987
 4589TIP3    H135182   4.116   1.924  14.938  0.6231 -0.2352 -2.0788
 4589TIP3    H235183   4.197   1.827  15.022 -0.5765  1.4097  1.1719
 4590TIP3   OH235184   2.831   3.816   1.917 -0.0522 -0.5271 -0.6259
 4590TIP3    H135185   2.772   3.816   1.992  0.3724  1.5310 -0.2158
 4590TIP3    H235186   2.774   3.805   1.841 -0.6912 -0.8690 -0.1018
 4591TIP3   OH235187   0.095   1.018   4.186 -0.4216  0.6267 -0.3222
 4591TIP3    H135188   0.092   1.078   4.261  0.9371  0.7391 -0.3410
 4591TIP3    H235189   0.042   0.943   4.214 -1.7700  1.6143 -0.1261
 4592TIP3   OH235190   3.514   3.340   4.493  1.1582  1.0275 -0.4279
 4592TIP3    H135191   3.606   3.319   4.475  0.8884 -0.1515 -0.4772
 4592TIP3    H235192   3.464   3.270   4.450  0.3169  0.6002  1.1637
 4593TIP3   OH235193   0.518   3.772  16.918  0.0798 -0.0701 -0.2475
 4593TIP3    H135194   0.493   3.796  16.829  1.3496 -0.4352 -0.7275
 4593TIP3    H235195   0.562   3.850  16.953 -2.1198  0.8038  0.8215
 4594TIP3   OH235196   1.071   3.647  11.198 -0.5881 -0.7636 -0.0821
 4594TIP3    H135197   0.985   3.627  11.236 -1.5575  3.7455  0.6617
 4594TIP3    H235198   1.129   3.649  11.274 -0.7914  0.3221  0.0612
 4595TIP3   OH235199   2.927   2.502   3.461 -0.4264 -0.3961  0.8277
 4595TIP3    H135200   2.850   2.483   3.409  0.1102 -2.3580  0.6763
 4595TIP3    H235201   2.951   2.591   3.437 -1.9520 -0.1695  0.0297
 4596TIP3   OH235202   3.186   2.146  13.185  0.2710 -0.2136  0.8182
 4596TIP3    H135203   3.232   2.226  13.211  1.9696 -0.5374 -0.9456
 4596TIP3    H235204   3.229   2.120  13.104  0.0832 -3.1743  1.5658
 4597TIP3   OH235205   3.014   4.555  13.401 -0.3351 -0.1266 -0.2134
 4597TIP3    H135206   3.089   4.578  13.456  0.1165 -1.5414 -0.2246
 4597TIP3    H235207   2.979   4.640  13.373  1.9363  0.5648 -1.1499
 4598TIP3   OH235208   6.132   2.416   3.013 -0.1946  0.3538 -0.3467
 4598TIP3    H135209   6.200   2.348   3.016 -0.1515  0.4023 -0.2284
 4598TIP3    H235210   6.180   2.498   3.026 -0.4118  0.3045  0.9042
 4599TIP3   OH235211   4.042   0.372   3.784  0.0014 -0.4916  0.9650
 4599TIP3    H135212   4.102   0.339   3.850  1.3297 -1.2841 -0.5706
 4599TIP3    H235213   3.970   0.308   3.783  2.1670 -3.1921 -1.4244
 4600TIP3   OH235214   3.019   4.711  17.270 -0.3690  0.3150  0.2394
 4600TIP3    H135215   3.071   4.646  17.224  0.5230  0.8951  0.4073
 4600TIP3    H235216   3.067   4.728  17.351 -1.7683 -0.5000  1.3007
 4601TIP3   OH235217   0.955   1.581  11.504  0.2260 -0.3346 -0.2839
 4601TIP3    H135218   0.902   1.640  11.557  0.9459 -0.3432  0.4720
 4601TIP3    H235219   0.910   1.497  11.508 -0.4386 -0.0109 -0.8021
 4602TIP3   OH235220   5.864   3.062  15.887  0.5337  0.6062  0.1387
 4602TIP3    H135221   5.858   3.092  15.978  0.2548  0.3149  0.2181
 4602TIP3    H235222   5.799   2.992  15.881  0.1393  1.0224 -0.4543
 4603TIP3   OH235223   5.910   4.028   2.861 -0.0795  0.2266  0.4547
 4603TIP3    H135224   5.988   3.990   2.900  0.7530  0.9775 -0.4366
 4603TIP3    H235225   5.847   4.034   2.933  0.5758 -0.6544  1.1104
 4604TIP3   OH235226   3.865   1.029  12.779  0.0442  0.1625 -0.3263
 4604TIP3    H135227   3.835   1.114  12.811 -1.9704 -0.5164 -0.3125
 4604TIP3    H235228   3.798   0.967  12.806  0.0615 -1.0146 -2.6877
 4605TIP3   OH235229   1.629   0.553  11.379 -0.7246 -0.4425 -0.0763
 4605TIP3    H135230   1.674   0.496  11.317  1.1122 -0.5990  1.3408
 4605TIP3    H235231   1.607   0.631  11.327 -0.1395 -0.9940 -1.1848
 4606TIP3   OH235232   0.908   4.814   3.394 -0.6720  0.0716 -0.1277
 4606TIP3    H135233   0.923   4.813   3.488  1.1851 -0.0941 -0.3839
 4606TIP3    H235234   0.834   4.873   3.382 -0.6435  0.4581  1.3906
 4607TIP3   OH235235   6.296   4.183  11.486  0.1523  0.7398  0.1626
 4607TIP3    H135236   6.237   4.172  11.412  0.6022 -0.9451  0.0247
 4607TIP3    H235237   6.237   4.199  11.561 -0.5096 -0.8159  0.0148
 4608TIP3   OH235238   3.814   1.287   0.301  0.1110  0.2082  0.4303
 4608TIP3    H135239   3.822   1.306   0.395  0.2680 -0.9551  0.6659
 4608TIP3    H235240   3.721   1.270   0.288  0.0194  0.7887  0.2771
 4609TIP3   OH235241   0.462   1.170  16.441  0.0339  0.0182  0.2420
 4609TIP3    H135242   0.538   1.197  16.390  0.2666 -0.3864  0.3681
 4609TIP3    H235243   0.446   1.080  16.414 -1.1558  0.4963 -0.6764
 4610TIP3   OH235244   0.929   0.394   3.225 -0.3675 -0.1219 -0.5401
 4610TIP3    H135245   1.010   0.366   3.267 -0.8625 -1.3139 -0.3414
 4610TIP3    H235246   0.912   0.481   3.261  1.0474  0.3451 -0.9246
 4611TIP3   OH235247   1.483   4.504   0.615 -0.2399 -0.4593  0.1103
 4611TIP3    H135248   1.540   4.553   0.556  1.4493 -0.6651  1.4879
 4611TIP3    H235249   1.395   4.539   0.598  0.2425 -0.2383 -2.1800
 4612TIP3   OH235250   2.226   4.112  15.202  0.0772 -0.0130  0.0503
 4612TIP3    H135251   2.299   4.075  15.252 -1.1592 -0.9455  1.2577
 4612TIP3    H235252   2.217   4.201  15.236  1.2211  0.4399 -0.7800
 4613TIP3   OH235253   3.455   5.157   1.018  0.5106  0.1785 -0.4110
 4613TIP3    H135254   3.371   5.159   0.972  0.1340 -0.9571  0.1792
 4613TIP3    H235255   3.492   5.072   0.997 -0.0511 -0.7269  1.9696
 4614TIP3   OH235256   2.216   4.541   1.834  0.0684  0.0023 -0.2523
 4614TIP3    H135257   2.220   4.627   1.792  1.5719  0.3741  0.5601
 4614TIP3    H235258   2.252   4.556   1.922 -0.3796 -1.3082  0.1828
 4615TIP3   OH235259   5.383   3.885   0.299 -0.1526  0.2813  0.2531
 4615TIP3    H135260   5.354   3.965   0.254 -1.1305 -0.2130 -0.0299
 4615TIP3    H235261   5.396   3.821   0.230  0.2275  0.0716  0.5148
 4616TIP3   OH235262   4.262   5.001  15.278  0.5487 -0.1025  0.1724
 4616TIP3    H135263   4.288   5.088  15.246  1.6786 -0.0543  1.1453
 4616TIP3    H235264   4.194   4.972  15.217  1.0446  0.9272 -0.9115
 4617TIP3   OH235265   1.593   0.991   4.560  0.7130  0.0989 -0.0722
 4617TIP3    H135266   1.624   0.905   4.529  0.3513  0.0629 -0.3482
 4617TIP3    H235267   1.525   0.970   4.623  1.5730  0.1717  0.8963
 4618TIP3   OH235268   1.422   0.832   3.541 -0.2109  0.3800 -0.3478
 4618TIP3    H135269   1.373   0.896   3.593  0.5203 -0.8244  1.9588
 4618TIP3    H235270   1.505   0.822   3.587 -0.3302 -2.2709 -0.5526
 4619TIP3   OH235271   3.608   4.802  13.426  0.1699 -0.5897  0.1773
 4619TIP3    H135272   3.516   4.789  13.406 -0.1157  0.8798  0.4095
 4619TIP3    H235273   3.637   4.719  13.465  0.1353 -2.7446 -3.8732
 4620TIP3   OH235274   2.222   0.924   1.012  0.3299  0.1116  0.1253
 4620TIP3    H135275   2.291   0.863   0.985  0.8092  0.4670  0.5371
 4620TIP3    H235276   2.153   0.867   1.046 -0.1483 -0.3332 -1.4657
 4621TIP3   OH235277   4.624   3.262  14.032  0.2182 -0.7352 -0.2850
 4621TIP3    H135278   4.646   3.290  14.121 -0.1834  1.1695 -0.7530
 4621TIP3    H235279   4.548   3.204  14.044 -0.3741  0.1860  0.5501
 4622TIP3   OH235280   4.914   1.196   1.159  0.4434 -0.8472 -0.4888
 4622TIP3    H135281   5.005   1.174   1.139 -0.0079 -1.3002 -2.2558
 4622TIP3    H235282   4.879   1.230   1.077 -1.0230 -0.7968  0.1213
 4623TIP3   OH235283   0.758   1.693   2.749  0.3622 -0.3736  0.3555
 4623TIP3    H135284   0.720   1.773   2.787  1.8494  0.6552 -0.2275
 4623TIP3    H235285   0.686   1.654   2.700 -0.5413  0.3288  1.0794
 4624TIP3   OH235286   2.147   1.790   2.114 -0.0398 -0.0434  0.9049
 4624TIP3    H135287   2.114   1.735   2.044 -0.2919 -0.3835  1.2890
 4624TIP3    H235288   2.225   1.832   2.077 -0.5703  0.3214  0.1906
 4625TIP3   OH235289   0.263   3.898   1.972 -0.1769 -0.1428 -0.1077
 4625TIP3    H135290   0.342   3.873   2.020 -0.4141  1.1724  1.0402
 4625TIP3    H235291   0.295   3.923   1.885  0.5510 -0.5056  0.0459
 4626TIP3   OH235292   1.527   5.527   1.225  0.1696  0.5991 -0.1381
 4626TIP3    H135293   1.605   5.538   1.171  1.3479 -1.4258  1.0371
 4626TIP3    H235294   1.455   5.556   1.169  1.5164  0.3680 -2.0810
 4627TIP3   OH235295   5.674   3.021  14.809  0.0491 -0.3405  0.0029
 4627TIP3    H135296   5.666   2.936  14.766  0.0245  0.0075 -0.6887
 4627TIP3    H235297   5.762   3.051  14.787 -0.8378  0.9796 -1.9627
 4628TIP3   OH235298   4.338   2.397   0.637 -0.4369 -0.6136  0.2980
 4628TIP3    H135299   4.395   2.409   0.713 -1.5570 -0.0843  1.1053
 4628TIP3    H235300   4.258   2.358   0.674 -1.2229  0.1782 -0.5080
 4629TIP3   OH235301   2.606   1.246   6.076  0.0500  0.6574 -0.2360
 4629TIP3    H135302   2.693   1.278   6.055  1.0865 -1.6794  0.1996
 4629TIP3    H235303   2.621   1.173   6.136 -2.0760 -1.0035 -1.5868
 4630TIP3   OH235304   5.918   5.005  11.345 -0.0225 -0.1965 -0.2787
 4630TIP3    H135305   5.985   4.937  11.346  1.5019  1.2410 -0.5985
 4630TIP3    H235306   5.884   5.007  11.435  2.7887  1.2794  0.8716
 4631TIP3   OH235307   6.687   2.571   2.697  0.3836 -0.2923 -0.6297
 4631TIP3    H135308   6.752   2.594   2.630  0.8461  1.8864  0.4756
 4631TIP3    H235309   6.606   2.557   2.648  0.6592  1.4559 -1.6653
 4632TIP3   OH235310   3.300   1.802  12.667  0.0394 -0.4996 -0.3159
 4632TIP3    H135311   3.302   1.723  12.721  0.3276 -0.1841  0.1395
 4632TIP3    H235312   3.392   1.822  12.651  0.0818  1.0760  1.5529
 4633TIP3   OH235313   4.333   0.445  16.880 -0.0853  0.2624 -0.6419
 4633TIP3    H135314   4.374   0.445  16.966  0.7467  2.6276 -0.9651
 4633TIP3    H235315   4.257   0.388  16.890  0.3159  0.0044  1.4819
 4634TIP3   OH235316   0.738   3.632   0.131  0.2125 -0.2705 -0.4065
 4634TIP3    H135317   0.721   3.695   0.202  1.9551  1.0686 -1.1104
 4634TIP3    H235318   0.758   3.550   0.177  2.4585  0.8432  0.7785
 4635TIP3   OH235319   0.039   1.738   4.403 -0.5679 -0.3616  0.2285
 4635TIP3    H135320   0.118   1.699   4.439  0.5118  1.3932 -0.1462
 4635TIP3    H235321  -0.027   1.726   4.471  0.5746  0.0117  1.4409
 4636TIP3   OH235322   4.649   3.063   0.252 -0.2694 -0.1503 -0.0664
 4636TIP3    H135323   4.654   3.128   0.183 -1.2198  0.7426  0.6795
 4636TIP3    H235324   4.659   2.979   0.207  0.3649  0.4713 -1.1148
 4637TIP3   OH235325   5.493   2.392  11.409  0.5717  0.0311  0.3643
 4637TIP3    H135326   5.490   2.302  11.442  0.7336  0.1613  0.7415
 4637TIP3    H235327   5.406   2.428  11.430 -0.3195 -0.7182 -1.7809
 4638TIP3   OH235328   5.606   2.556  13.764  0.1081 -0.2677  0.5314
 4638TIP3    H135329   5.589   2.507  13.684 -0.0556 -0.1423  0.4893
 4638TIP3    H235330   5.622   2.489  13.830  0.3107 -0.3703  0.3790
 4639TIP3   OH235331   6.226   1.216   1.593  1.1701  0.3696  0.3693
 4639TIP3    H135332   6.134   1.218   1.621  1.4273 -0.5859  1.3466
 4639TIP3    H235333   6.236   1.131   1.551  1.9445 -0.1112  1.4991
 4640TIP3   OH235334   1.355   1.191  15.342 -0.0324  0.2032 -0.5098
 4640TIP3    H135335   1.353   1.107  15.297  2.6138 -0.7494  0.9054
 4640TIP3    H235336   1.282   1.187  15.404  1.4494 -2.1781  1.2394
 4641TIP3   OH235337   5.183   5.214  14.552 -0.7567  0.8231  0.2768
 4641TIP3    H135338   5.106   5.260  14.586  0.3918  2.1297  1.2368
 4641TIP3    H235339   5.255   5.277  14.563  1.3240 -1.7513  3.5070
 4642TIP3   OH235340   1.939   2.947   0.110  0.2756 -0.3038 -0.5039
 4642TIP3    H135341   1.909   2.865   0.149 -0.5239  0.1173 -0.1855
 4642TIP3    H235342   1.860   2.985   0.072  0.8297 -0.1509 -1.5338
 4643TIP3   OH235343   2.994   1.859   3.094 -0.2401  0.1857 -0.6010
 4643TIP3    H135344   2.934   1.869   3.020 -0.8064 -1.6664 -0.4455
 4643TIP3    H235345   3.079   1.887   3.060 -1.3746  4.8070 -0.2832
 4644TIP3   OH235346   4.236   2.485  14.807  0.9690  0.2199  0.2755
 4644TIP3    H135347   4.223   2.522  14.894 -1.5902 -0.7999  0.3978
 4644TIP3    H235348   4.319   2.438  14.813  0.7477  0.0150  2.2251
 4645TIP3   OH235349   3.790   2.326   2.824 -0.2541 -0.0949  0.3590
 4645TIP3    H135350   3.860   2.306   2.762 -0.0532 -2.3062  1.1838
 4645TIP3    H235351   3.717   2.271   2.796 -0.8279  0.3517  0.9501
 4646TIP3   OH235352   2.327   5.777   3.355 -0.1284 -0.1973  0.0604
 4646TIP3    H135353   2.319   5.684   3.377  0.3300 -0.5683 -1.2195
 4646TIP3    H235354   2.257   5.792   3.291  1.3131 -0.3180 -1.6293
 4647TIP3   OH235355   3.373   6.051  14.652 -0.9360 -0.0021  0.2409
 4647TIP3    H135356   3.426   6.130  14.650 -2.2730  0.9242  0.8182
 4647TIP3    H235357   3.283   6.081  14.649 -1.6421 -1.2803  3.8888
 4648TIP3   OH235358   6.124   6.714  13.880 -0.1903  0.6592  0.0054
 4648TIP3    H135359   6.050   6.695  13.938  1.8680 -0.6325  2.4592
 4648TIP3    H235360   6.166   6.629  13.866  0.3654  1.2126 -2.0716
 4649TIP3   OH235361   4.825   4.077   1.301  0.0837 -0.2946  0.3426
 4649TIP3    H135362   4.875   4.157   1.287 -0.7924  0.4973  1.4435
 4649TIP3    H235363   4.886   4.018   1.344  0.2840  0.4437  1.1264
 4650TIP3   OH235364   4.511   5.639   5.399 -0.2891 -0.4682 -0.1357
 4650TIP3    H135365   4.528   5.545   5.410  2.7932 -0.3191 -2.4635
 4650TIP3    H235366   4.584   5.682   5.443 -1.3459  0.8828  0.3732
 4651TIP3   OH235367   5.212   0.923  13.231 -0.5094 -0.1744  0.4748
 4651TIP3    H135368   5.154   0.928  13.155 -1.3120 -2.5020  0.8536
 4651TIP3    H235369   5.263   0.843  13.217  1.1733  0.7282  1.1648
 4652TIP3   OH235370   2.387   4.177  12.044  0.0926 -0.4733  0.4133
 4652TIP3    H135371   2.437   4.106  12.004  1.4711  0.9510 -0.4762
 4652TIP3    H235372   2.442   4.255  12.034 -2.0045  1.0422  0.0073
 4653TIP3   OH235373   6.449   2.247   0.561  0.2629 -0.1278 -0.5488
 4653TIP3    H135374   6.410   2.260   0.475 -1.2014  0.0942  0.1143
 4653TIP3    H235375   6.522   2.187   0.546 -1.8568 -2.6553 -1.5074
 4654TIP3   OH235376   2.758   5.378   3.592  0.4506  0.2880  0.4541
 4654TIP3    H135377   2.810   5.398   3.670  0.5074  1.3628  0.1592
 4654TIP3    H235378   2.720   5.292   3.609  0.4804  0.5044  1.6565
 4655TIP3   OH235379   1.536   1.399  15.567 -0.1919 -0.4989 -0.1448
 4655TIP3    H135380   1.538   1.404  15.663  1.2744 -0.1153 -0.1632
 4655TIP3    H235381   1.476   1.469  15.541 -0.5977 -0.5969  0.4880
 4656TIP3   OH235382   6.028   3.875   4.252 -0.1411 -0.4371  0.9236
 4656TIP3    H135383   5.937   3.884   4.279 -0.3280 -2.1549  0.9406
 4656TIP3    H235384   6.069   3.820   4.319  0.7204 -0.3031  0.5290
 4657TIP3   OH235385   6.190   1.159   3.604 -0.0372 -0.1249  0.3983
 4657TIP3    H135386   6.104   1.184   3.570  0.2513  0.1598 -0.1275
 4657TIP3    H235387   6.245   1.148   3.526  0.6962  0.7630  0.7671
 4658TIP3   OH235388   5.236   0.083   3.433  0.5894 -0.4105  0.2858
 4658TIP3    H135389   5.211  -0.009   3.445 -2.2538  0.2128 -0.0375
 4658TIP3    H235390   5.232   0.096   3.338 -0.3234  0.3258  0.4110
 4659TIP3   OH235391   5.571   3.668  12.447 -0.4946  0.4401  0.0618
 4659TIP3    H135392   5.480   3.676  12.474 -0.3159  0.6904  0.6076
 4659TIP3    H235393   5.608   3.605  12.509 -0.8989 -1.6182 -1.6819
 4660TIP3   OH235394   4.263   5.282  15.393  0.0671 -0.3328 -0.4146
 4660TIP3    H135395   4.268   5.328  15.477  1.7424  2.5578 -1.9271
 4660TIP3    H235396   4.170   5.262  15.382 -0.8457  2.8544  0.4066
 4661TIP3   OH235397   4.830   0.212  15.961  0.6265  0.2503 -0.0255
 4661TIP3    H135398   4.842   0.184  15.870  0.9984 -0.0566  0.1133
 4661TIP3    H235399   4.792   0.136  16.005 -2.8841  1.4479 -0.6298
 4662TIP3   OH235400   3.505   3.040  17.007 -0.6104 -0.0371 -0.5698
 4662TIP3    H135401   3.468   3.004  16.927 -1.1105 -0.8119  0.0064
 4662TIP3    H235402   3.563   2.971  17.040 -1.1706 -0.1144  0.2622
 4663TIP3   OH235403   4.497   2.366  12.676  0.4336 -0.6599  0.0413
 4663TIP3    H135404   4.511   2.409  12.592  0.3334  0.5604  0.6176
 4663TIP3    H235405   4.563   2.405  12.734  2.2729 -3.3539 -0.0641
 4664TIP3   OH235406   5.739   0.892  11.558 -0.2778 -0.5732  0.0494
 4664TIP3    H135407   5.815   0.891  11.617  0.0460 -2.2663 -0.3639
 4664TIP3    H235408   5.757   0.965  11.498  0.5479 -0.3395  0.5642
 4665TIP3   OH235409   4.299   1.863  11.430  0.0077  0.1394  0.2908
 4665TIP3    H135410   4.304   1.832  11.340  0.4844 -0.4474  0.5077
 4665TIP3    H235411   4.375   1.823  11.473 -1.5981 -1.7674  1.5855
 4666TIP3   OH235412   0.174   0.759  11.534 -0.0950  0.5933 -0.1366
 4666TIP3    H135413   0.261   0.790  11.508 -0.5916  0.1834 -2.5086
 4666TIP3    H235414   0.192   0.685  11.592  1.1669 -0.2024 -1.4754
 4667TIP3   OH235415   2.832   1.649  11.922 -0.2361  0.3449  0.0720
 4667TIP3    H135416   2.840   1.633  12.016  0.8428  0.6968  0.0545
 4667TIP3    H235417   2.812   1.564  11.884  1.3872 -0.2326  0.4189
 4668TIP3   OH235418   2.463   0.569  16.364  0.2835  0.5314  0.3918
 4668TIP3    H135419   2.396   0.637  16.352  1.2854  1.1737 -2.3102
 4668TIP3    H235420   2.424   0.507  16.426 -2.1260  1.7169  0.1742
 4669TIP3   OH235421   3.772   1.881  16.192 -0.0534  0.1926 -0.1236
 4669TIP3    H135422   3.839   1.813  16.201  0.2563  0.5758  0.5457
 4669TIP3    H235423   3.746   1.877  16.100 -1.0069 -1.7290  0.1870
 4670TIP3   OH235424   5.915   5.209  10.940  0.3080 -0.2063 -0.4310
 4670TIP3    H135425   5.915   5.304  10.932  0.8808 -0.2375 -0.8713
 4670TIP3    H235426   5.982   5.179  10.878  0.5229 -0.8568  0.0954
 4671TIP3   OH235427   0.707   0.190  15.171 -0.1104  0.0820  0.4643
 4671TIP3    H135428   0.768   0.206  15.243  1.0926 -0.5740 -0.3707
 4671TIP3    H235429   0.696   0.095  15.169 -0.6284  0.1470  0.1828
 4672TIP3   OH235430   0.131   5.082   0.274 -0.3051  0.0782  0.0783
 4672TIP3    H135431   0.159   4.991   0.280  0.4323  0.3711  1.2916
 4672TIP3    H235432   0.204   5.128   0.233 -0.6084  0.1598 -0.3799
 4673TIP3   OH235433   0.732   3.220   5.605  0.0761 -0.1062 -0.7593
 4673TIP3    H135434   0.697   3.239   5.692 -2.4185  0.3154 -1.7843
 4673TIP3    H235435   0.721   3.301   5.556  1.5524 -0.3004 -1.4786
 4674TIP3   OH235436   1.329   3.785   5.947  0.1375  0.4379 -0.1809
 4674TIP3    H135437   1.397   3.818   5.888 -0.0232 -0.5970 -0.9547
 4674TIP3    H235438   1.369   3.792   6.034  0.7490  1.0336 -0.4956
 4675TIP3   OH235439   1.831   5.233  16.678  0.1997 -0.1643 -0.2718
 4675TIP3    H135440   1.759   5.257  16.619  0.3236  0.6667 -0.0980
 4675TIP3    H235441   1.788   5.190  16.751 -0.4099  2.2925  0.9160
 4676TIP3   OH235442   6.663   2.590   4.023 -0.2393 -0.2769  0.2892
 4676TIP3    H135443   6.600   2.540   3.970  1.5879 -1.0746 -1.2387
 4676TIP3    H235444   6.622   2.596   4.109 -2.0896 -1.3635 -0.4523
 4677TIP3   OH235445   3.794   3.335  12.797 -0.5366  0.2173 -0.4645
 4677TIP3    H135446   3.705   3.340  12.763 -0.5613  0.0298 -0.4277
 4677TIP3    H235447   3.848   3.317  12.721 -0.5093  0.5048 -0.5131
 4678TIP3   OH235448   1.922   3.334   0.823 -0.0248 -0.6176  0.1571
 4678TIP3    H135449   1.979   3.375   0.758 -0.8188 -0.7340 -0.6386
 4678TIP3    H235450   1.908   3.402   0.889  0.4553 -0.3543 -0.0075
 4679TIP3   OH235451   4.235   1.492  10.694  0.0123  0.7395 -0.1888
 4679TIP3    H135452   4.175   1.488  10.768 -0.7799 -2.9305 -0.8004
 4679TIP3    H235453   4.269   1.581  10.695 -2.1190  1.6893  2.8144
 4680TIP3   OH235454   1.707   4.495  13.424  0.0624 -0.0002 -0.0335
 4680TIP3    H135455   1.670   4.542  13.499 -0.3699  1.1250 -0.9215
 4680TIP3    H235456   1.786   4.544  13.401 -0.1560  0.0482 -0.7050
 4681TIP3   OH235457   0.063   1.038   5.649 -0.8978  0.7615  0.3137
 4681TIP3    H135458   0.125   1.086   5.593 -0.0127 -0.7137 -0.0443
 4681TIP3    H235459   0.012   0.986   5.587 -1.2357  0.5817  0.7443
 4682TIP3   OH235460   4.502   1.996   1.987 -1.0722 -0.1338  0.1792
 4682TIP3    H135461   4.501   1.996   1.892  1.7087 -1.0816  0.0557
 4682TIP3    H235462   4.530   1.907   2.011 -0.5668  0.4240  1.8127
 4683TIP3   OH235463   0.817   2.965   2.358 -0.2027  0.2000  0.7567
 4683TIP3    H135464   0.886   2.907   2.327  0.6485  1.0044  1.1288
 4683TIP3    H235465   0.823   3.043   2.304 -1.7822 -0.2797 -0.1958
 4684TIP3   OH235466   0.283   4.408   4.248 -0.2844 -0.5218 -0.1015
 4684TIP3    H135467   0.196   4.371   4.234 -1.2809  1.9654 -0.9953
 4684TIP3    H235468   0.272   4.471   4.320  0.6185  0.2269 -0.5928
 4685TIP3   OH235469   0.460   5.321  16.310  1.1271  0.1295  0.0307
 4685TIP3    H135470   0.369   5.335  16.335  1.6083  0.3262  1.9020
 4685TIP3    H235471   0.460   5.239  16.261 -0.0235  0.0057  0.2163
 4686TIP3   OH235472   0.928   1.619   1.892 -0.0036  0.2732 -0.0170
 4686TIP3    H135473   0.945   1.692   1.832  2.6118 -0.1694  0.1050
 4686TIP3    H235474   0.893   1.550   1.836 -1.5670  1.2148 -0.2903
 4687TIP3   OH235475   4.898   4.832   4.191 -0.4654 -0.9400  0.7467
 4687TIP3    H135476   4.847   4.778   4.251 -0.8990  0.7256  1.9559
 4687TIP3    H235477   4.858   4.919   4.197 -1.4605 -0.9509 -3.0579
 4688TIP3   OH235478   6.439   2.226  11.419  0.2393  0.5712  0.1514
 4688TIP3    H135479   6.494   2.299  11.389 -0.8848  0.6201 -1.9430
 4688TIP3    H235480   6.501   2.166  11.462  1.6006  1.5264 -0.3915
 4689TIP3   OH235481   3.164   4.513  10.859  0.0335 -0.3890  0.5748
 4689TIP3    H135482   3.179   4.607  10.863 -1.8577 -0.0701  1.4115
 4689TIP3    H235483   3.248   4.474  10.884  0.6243  1.0858  0.9780
 4690TIP3   OH235484   5.533   0.508  10.811 -0.4635  0.2987 -0.6232
 4690TIP3    H135485   5.469   0.501  10.740  0.4268 -0.0322 -1.4144
 4690TIP3    H235486   5.521   0.429  10.863 -0.4193  0.0437 -1.0036
 4691TIP3   OH235487   1.295   2.780  12.129 -0.6607 -0.0905  0.1598
 4691TIP3    H135488   1.250   2.835  12.193 -0.9293 -1.0425  0.8139
 4691TIP3    H235489   1.229   2.761  12.062 -0.7316 -0.0813  0.2277
 4692TIP3   OH235490   4.038   6.721   6.493  0.1579  0.0911  0.0577
 4692TIP3    H135491   3.997   6.665   6.558 -1.5397  0.0173 -1.0135
 4692TIP3    H235492   4.006   6.809   6.514 -0.2754  0.0876 -0.5668
 4693TIP3   OH235493   3.770   2.268   0.602  1.0089 -0.0168  0.1313
 4693TIP3    H135494   3.792   2.361   0.614  1.5368 -0.2399  0.9556
 4693TIP3    H235495   3.854   2.226   0.587  0.6094 -0.1035 -2.2276
 4694TIP3   OH235496   2.797   5.959  16.967  0.3066  0.1431  0.4629
 4694TIP3    H135497   2.875   5.937  17.018 -0.0130  1.1155  1.4291
 4694TIP3    H235498   2.737   5.886  16.981  0.4122  0.1730  1.0949
 4695TIP3   OH235499   3.844   6.242  14.695 -0.3878 -0.0965  0.0232
 4695TIP3    H135500   3.863   6.278  14.782  0.3605 -0.8180  0.1701
 4695TIP3    H235501   3.835   6.148  14.709  1.1060 -0.4027 -0.8834
 4696TIP3   OH235502   0.714   3.314   6.116 -0.0237 -0.0517 -0.5698
 4696TIP3    H135503   0.746   3.282   6.200  0.9126 -0.6183 -1.1185
 4696TIP3    H235504   0.722   3.409   6.121  0.5746 -0.1160 -0.2233
 4697TIP3   OH235505   4.462   3.088   6.103 -0.1496  0.2524  0.1753
 4697TIP3    H135506   4.543   3.040   6.088 -1.5091 -1.5722 -2.1478
 4697TIP3    H235507   4.397   3.020   6.121 -1.4201  1.5607  0.7160
 4698TIP3   OH235508   1.868   2.803  15.666  0.7565  0.4502  0.1108
 4698TIP3    H135509   1.789   2.837  15.708  0.1894 -1.1311  0.3987
 4698TIP3    H235510   1.932   2.797  15.737  0.2904 -0.7307  0.4572
 4699TIP3   OH235511   2.607   2.457  12.787  0.0800  0.0739  0.1524
 4699TIP3    H135512   2.565   2.542  12.773 -0.2473 -0.2892 -1.2663
 4699TIP3    H235513   2.534   2.396  12.798  0.2888 -0.1794  0.1505
 4700TIP3   OH235514   5.016   4.357   0.100  0.1331  0.4128 -0.4593
 4700TIP3    H135515   5.012   4.411   0.022 -0.6279  0.2915 -0.5160
 4700TIP3    H235516   5.103   4.373   0.137  0.5183  0.4146 -1.3609
 4701TIP3   OH235517   5.203   1.900   1.662 -0.4660  0.3538 -0.2438
 4701TIP3    H135518   5.172   1.822   1.708  0.4243  1.0211  1.6151
 4701TIP3    H235519   5.125   1.952   1.648 -0.6659  0.6724  1.7001
 4702TIP3   OH235520   1.240   3.653  12.036  0.0269 -0.2944  0.1842
 4702TIP3    H135521   1.159   3.699  12.014  1.5359  2.1591 -0.5859
 4702TIP3    H235522   1.236   3.640  12.131 -0.5306  1.3670  0.4122
 4703TIP3   OH235523   0.135   5.242   2.565  0.2651  0.2155  0.0467
 4703TIP3    H135524   0.187   5.211   2.640  0.7781  0.4388 -0.2093
 4703TIP3    H235525   0.049   5.260   2.601  0.5037  0.3073  0.5854
 4704TIP3   OH235526   5.808   3.213   2.615  0.0615  0.0223 -0.7374
 4704TIP3    H135527   5.773   3.281   2.672  0.3421  1.0169 -1.7210
 4704TIP3    H235528   5.876   3.171   2.667 -1.0795 -0.5029  0.4074
 4705TIP3   OH235529   5.409   2.171   1.688  0.0336  0.0962 -0.1515
 4705TIP3    H135530   5.418   2.265   1.701 -0.5256  0.2790 -1.0700
 4705TIP3    H235531   5.324   2.160   1.647 -1.0710 -1.0342  2.2212
 4706TIP3   OH235532   2.712   3.812   5.579 -0.1746 -0.1488  0.2805
 4706TIP3    H135533   2.639   3.810   5.642 -0.4482  0.6557  0.0095
 4706TIP3    H235534   2.699   3.735   5.524 -0.0931 -0.7097  1.0292
 4707TIP3   OH235535   2.900   1.467  16.396  0.2400 -0.3749  0.4663
 4707TIP3    H135536   2.883   1.509  16.311  0.9072 -0.7515  0.1386
 4707TIP3    H235537   2.815   1.434  16.423 -0.0983  0.2696  0.2295
 4708TIP3   OH235538   5.431   5.746  12.326 -0.2357 -0.4133  0.6131
 4708TIP3    H135539   5.344   5.784  12.338 -0.4277 -1.4903  3.0754
 4708TIP3    H235540   5.420   5.685  12.253 -0.8532  1.2774 -0.8027
 4709TIP3   OH235541   1.139   3.119  14.689 -0.3791 -0.4037 -0.5419
 4709TIP3    H135542   1.058   3.115  14.638 -0.0981 -0.2889 -1.0021
 4709TIP3    H235543   1.187   3.194  14.652 -0.2814 -0.1669  0.0552
 4710TIP3   OH235544   5.610   2.417  17.037 -0.0215  0.2020 -0.1481
 4710TIP3    H135545   5.534   2.377  16.994 -0.9674  1.4427  0.3151
 4710TIP3    H235546   5.677   2.421  16.969 -0.6163 -0.2403 -0.7685
 4711TIP3   OH235547   2.242   6.095   1.110 -0.4128  0.7375 -0.3337
 4711TIP3    H135548   2.289   6.033   1.054  0.6347 -0.4819  1.7635
 4711TIP3    H235549   2.182   6.040   1.161 -0.5634  1.6504  0.4957
 4712TIP3   OH235550   1.989   5.628   2.121 -0.4628  0.6099 -0.4371
 4712TIP3    H135551   1.956   5.539   2.105 -0.0676  0.1127  1.3244
 4712TIP3    H235552   1.952   5.680   2.049  0.3610 -1.1980 -2.2806
 4713TIP3   OH235553   0.635   4.423   4.832 -0.2252  0.0083  0.1316
 4713TIP3    H135554   0.671   4.338   4.857  1.7704  0.3563 -1.3050
 4713TIP3    H235555   0.705   4.485   4.853 -0.6055  0.9456 -1.2221
 4714TIP3   OH235556   4.497   1.442   1.056 -0.1562 -0.1040 -0.3569
 4714TIP3    H135557   4.496   1.467   1.148  0.8655  2.5548 -0.9589
 4714TIP3    H235558   4.511   1.347   1.056 -0.6674 -0.2339  2.1969
 4715TIP3   OH235559   1.991   6.245   5.906  0.4661  0.0245 -0.2226
 4715TIP3    H135560   1.950   6.163   5.933  0.6938  0.5546  1.8977
 4715TIP3    H235561   1.966   6.308   5.974  0.9561  1.5272 -1.3729
 4716TIP3   OH235562   3.155   0.136  15.831 -0.0279  0.5225 -0.0170
 4716TIP3    H135563   3.211   0.203  15.791 -0.7395  0.6786 -0.7706
 4716TIP3    H235564   3.138   0.170  15.919  5.3437 -1.9226  2.4529
 4717TIP3   OH235565   2.866   1.435   2.509  0.7683 -0.7509 -0.0334
 4717TIP3    H135566   2.871   1.350   2.465  0.6253 -1.2377  0.8556
 4717TIP3    H235567   2.834   1.414   2.597 -0.1981  0.3417 -0.1037
 4718TIP3   OH235568   0.656   3.927   2.050  0.0614 -0.2494  0.2835
 4718TIP3    H135569   0.675   3.864   2.119  2.1089 -0.9499 -0.8466
 4718TIP3    H235570   0.611   3.875   1.983 -0.1274 -0.0135  0.2258
 4719TIP3   OH235571   1.985   2.735   3.424  0.4378 -0.6999  0.1428
 4719TIP3    H135572   1.982   2.828   3.446  0.4702 -0.3935 -1.0869
 4719TIP3    H235573   2.071   2.706   3.454 -0.3005 -0.8180  2.2756
 4720TIP3   OH235574   5.241   3.524   5.359  0.3206  0.3083 -0.1199
 4720TIP3    H135575   5.301   3.544   5.287  0.2778  1.5107  0.1639
 4720TIP3    H235576   5.266   3.585   5.428  0.1209 -0.5899  0.7585
 4721TIP3   OH235577   4.872   1.695   0.854  0.8951  0.1007  0.2209
 4721TIP3    H135578   4.831   1.608   0.855  1.7334 -0.3365  1.9996
 4721TIP3    H235579   4.800   1.756   0.839  0.0803 -0.8361  0.2192
 4722TIP3   OH235580   2.877   2.550  16.037  0.6009  0.0138  0.9113
 4722TIP3    H135581   2.946   2.507  16.089  1.8215  0.9486  0.1271
 4722TIP3    H235582   2.910   2.547  15.947  0.2522  1.6742  0.7035
 4723TIP3   OH235583   0.973   6.563   2.925  0.4208 -0.4694  0.6037
 4723TIP3    H135584   1.032   6.545   2.852  0.8274 -1.1541  1.0954
 4723TIP3    H235585   0.893   6.514   2.905  0.3940 -0.3592  0.4390
 4724TIP3   OH235586   5.298   3.928   3.635 -0.3990  0.0077 -0.2253
 4724TIP3    H135587   5.274   3.958   3.723 -1.5211  1.3864 -0.9449
 4724TIP3    H235588   5.367   3.988   3.607  0.8311 -1.1922  0.1536
 4725TIP3   OH235589   5.284   4.942   4.829  0.6417  0.2976 -0.5257
 4725TIP3    H135590   5.210   4.893   4.794 -0.2060  0.7290  0.6210
 4725TIP3    H235591   5.256   5.034   4.826  1.4327  0.5463 -0.7794
 4726TIP3   OH235592   3.839   4.967   2.847  0.0788 -0.1371  0.1286
 4726TIP3    H135593   3.837   4.926   2.934  0.3935 -0.8275 -0.1887
 4726TIP3    H235594   3.766   5.030   2.850  0.8655  0.7654  1.3256
 4727TIP3   OH235595   0.677   4.962  15.393 -0.0558 -0.0439 -0.0232
 4727TIP3    H135596   0.724   4.917  15.323  2.0436 -2.7032  2.8598
 4727TIP3    H235597   0.741   5.024  15.429 -0.5125  0.0237  0.6900
 4728TIP3   OH235598   2.659   3.262  11.781  0.3765  0.6810 -0.1514
 4728TIP3    H135599   2.723   3.226  11.842  1.1930 -0.2640 -1.5088
 4728TIP3    H235600   2.697   3.345  11.753  0.2185  0.8976  0.2662
 4729TIP3   OH235601   6.045   0.293   4.564 -0.7879 -0.5611 -0.2364
 4729TIP3    H135602   5.977   0.299   4.497  0.3638 -1.8553 -1.5933
 4729TIP3    H235603   6.059   0.199   4.576  0.3296 -0.3335  0.4390
 4730TIP3   OH235604   5.661   6.759   4.375 -0.0012 -0.1110  0.2224
 4730TIP3    H135605   5.580   6.762   4.425  0.4573 -1.2511  1.0805
 4730TIP3    H235606   5.728   6.792   4.435  0.1595  0.9292 -0.5153
 4731TIP3   OH235607   5.376   4.091   5.695 -0.1287  1.2784  0.4188
 4731TIP3    H135608   5.428   4.011   5.685 -0.7619  0.9068 -0.0535
 4731TIP3    H235609   5.291   4.068   5.656 -0.2837  2.2161  0.1864
 4732TIP3   OH235610   2.388   3.699  13.750  0.9616 -0.3650 -0.8820
 4732TIP3    H135611   2.427   3.679  13.835  0.1957  0.1685 -0.3994
 4732TIP3    H235612   2.461   3.730  13.696  1.2854  0.1639 -0.1397
 4733TIP3   OH235613   1.526   4.665   0.243  0.0581  0.2431 -0.6448
 4733TIP3    H135614   1.523   4.705   0.330 -0.5541  0.9270 -0.9718
 4733TIP3    H235615   1.608   4.616   0.242 -0.6525 -1.0958  0.8949
 4734TIP3   OH235616   3.637   6.571  14.418  0.1164 -0.0243  0.7150
 4734TIP3    H135617   3.597   6.626  14.485 -0.4590 -0.8838  1.0884
 4734TIP3    H235618   3.670   6.495  14.465 -1.1130 -1.0898 -0.0836
 4735TIP3   OH235619   6.682   4.894  13.237  0.0255 -0.6067 -0.5908
 4735TIP3    H135620   6.735   4.972  13.255 -0.3813 -0.0563 -1.7025
 4735TIP3    H235621   6.594   4.918  13.265  0.0552 -0.9887 -0.1458
 4736TIP3   OH235622   4.759   6.096   2.295  0.3379 -0.2190 -0.0460
 4736TIP3    H135623   4.769   6.191   2.303  1.0285 -0.2640 -0.3547
 4736TIP3    H235624   4.693   6.085   2.227  0.4928  0.0363 -0.2385
 4737TIP3   OH235625   5.256   2.501  16.971 -0.0607  0.3805 -0.1372
 4737TIP3    H135626   5.263   2.453  17.053 -0.3769  0.5640  0.0047
 4737TIP3    H235627   5.216   2.439  16.910 -1.2685  0.7130  0.2774
 4738TIP3   OH235628   0.875   5.272   3.513  0.0348  0.3378 -0.2249
 4738TIP3    H135629   0.873   5.250   3.421 -3.7479 -0.4725 -0.0992
 4738TIP3    H235630   0.847   5.364   3.517 -0.3308  0.2160  0.1347
 4739TIP3   OH235631   0.930   3.391  14.339 -0.1647  0.8773  0.3499
 4739TIP3    H135632   0.856   3.352  14.385 -0.4950  1.0611 -0.0148
 4739TIP3    H235633   0.904   3.389  14.247  1.2474 -1.1798 -0.0751
 4740TIP3   OH235634   6.516   6.202  12.843 -0.0340 -0.0466  0.5929
 4740TIP3    H135635   6.599   6.249  12.831  0.1840 -0.9347 -2.0050
 4740TIP3    H235636   6.532   6.117  12.804 -1.4379 -1.1703  2.3400
 4741TIP3   OH235637   6.296   1.534   2.536 -0.0260 -0.1702 -0.0515
 4741TIP3    H135638   6.297   1.459   2.477  0.6108 -0.2409  0.0415
 4741TIP3    H235639   6.272   1.608   2.480 -0.4792 -0.4147 -0.1793
 4742TIP3   OH235640   4.871   5.787  16.194  0.3844  0.4041  0.4866
 4742TIP3    H135641   4.889   5.738  16.274 -1.6726 -0.0134  0.7380
 4742TIP3    H235642   4.846   5.721  16.129  0.0197  0.8999  0.1102
 4743TIP3   OH235643   0.506   0.706   5.155 -0.0111  0.4391 -0.0782
 4743TIP3    H135644   0.547   0.729   5.238 -2.0662 -1.3963  1.5703
 4743TIP3    H235645   0.448   0.780   5.136  0.5639  0.9287  0.0278
 4744TIP3   OH235646   0.960   1.521   4.565 -0.4349  0.5457  0.2456
 4744TIP3    H135647   0.876   1.516   4.519 -0.9658 -1.0033  1.2887
 4744TIP3    H235648   0.937   1.548   4.654  0.0598 -0.5173  0.7226
 4745TIP3   OH235649   1.671   6.737   0.756  0.3857 -0.3514 -0.4357
 4745TIP3    H135650   1.633   6.792   0.688 -0.6043  1.8988  1.7551
 4745TIP3    H235651   1.615   6.751   0.832  1.6754 -2.3854  0.9869
 4746TIP3   OH235652   3.593   4.077   3.616  0.3332  0.3371  0.2460
 4746TIP3    H135653   3.574   4.024   3.539  0.7835 -0.0096  0.3688
 4746TIP3    H235654   3.526   4.052   3.679  1.3375 -1.1249  0.7954
 4747TIP3   OH235655   5.443   4.481   2.682  0.0302 -0.1587  0.2416
 4747TIP3    H135656   5.439   4.531   2.764 -1.0484 -0.8284  0.6142
 4747TIP3    H235657   5.389   4.404   2.698  1.1445 -1.1352 -0.5489
 4748TIP3   OH235658   5.119   1.088   5.785 -0.4460  0.3295 -0.1025
 4748TIP3    H135659   5.065   1.166   5.773 -1.9160 -0.5756  0.4083
 4748TIP3    H235660   5.077   1.021   5.732 -1.0517 -0.9380  1.8546
 4749TIP3   OH235661   4.487   2.123   1.135 -0.1148 -0.9374  0.1795
 4749TIP3    H135662   4.491   2.037   1.092  0.5283 -0.5572 -0.5524
 4749TIP3    H235663   4.546   2.115   1.210 -0.7215 -1.3967  0.6164
 4750TIP3   OH235664   6.102   0.425  10.997 -0.8198 -0.5232  0.3848
 4750TIP3    H135665   6.045   0.477  11.053  0.5163  1.6658 -0.1540
 4750TIP3    H235666   6.172   0.394  11.054  0.2177  1.2083  0.1366
 4751TIP3   OH235667   1.782   4.610  17.026  0.4115  0.4990  0.2923
 4751TIP3    H135668   1.816   4.557  16.954  1.0205  0.5961  0.5041
 4751TIP3    H235669   1.687   4.611  17.012  0.5605  0.8784 -0.7547
 4752TIP3   OH235670   0.752   0.396  12.224 -0.1611  0.1867 -0.0410
 4752TIP3    H135671   0.662   0.397  12.257  0.1625  1.3421  0.8559
 4752TIP3    H235672   0.806   0.422  12.298  1.1843 -2.5389  0.0510
 4753TIP3   OH235673   2.652   0.617   1.952 -0.2151 -0.1660 -0.0229
 4753TIP3    H135674   2.603   0.607   1.870  1.1701 -0.9335 -0.7963
 4753TIP3    H235675   2.585   0.631   2.018 -1.4597 -0.8743 -1.0894
 4754TIP3   OH235676   5.965   5.260  16.375  0.1999  0.0471 -0.0760
 4754TIP3    H135677   6.019   5.270  16.453  2.5627  1.0968 -1.7306
 4754TIP3    H235678   6.025   5.231  16.307 -1.6154 -0.1240 -1.7038
 4755TIP3   OH235679   1.651   3.532  12.743  0.5915 -0.3309  0.1204
 4755TIP3    H135680   1.699   3.581  12.676  0.6201 -1.1860 -0.5016
 4755TIP3    H235681   1.587   3.480  12.694  1.1899 -1.6294  0.6559
 4756TIP3   OH235682   6.034   4.813   2.506  0.5511  0.1546 -0.0507
 4756TIP3    H135683   6.055   4.767   2.588 -0.5031  0.7711  0.5832
 4756TIP3    H235684   6.038   4.744   2.439 -2.0708 -1.1966  1.0159
 4757TIP3   OH235685   2.291   4.790  13.518 -0.1406  0.1425  0.1710
 4757TIP3    H135686   2.376   4.832  13.510  0.8044 -1.2081  2.2778
 4757TIP3    H235687   2.247   4.837  13.589 -0.5248 -0.1910  0.1594
 4758TIP3   OH235688   2.366   2.597  11.176 -0.4104  0.3221  0.1487
 4758TIP3    H135689   2.308   2.656  11.127 -0.5896 -1.5879 -2.1176
 4758TIP3    H235690   2.445   2.593  11.122  0.1914 -0.3081  1.0679
 4759TIP3   OH235691   0.216   2.837  10.818 -0.0503  0.1269 -0.4502
 4759TIP3    H135692   0.258   2.818  10.735 -1.0135 -2.3112 -0.4475
 4759TIP3    H235693   0.189   2.929  10.811  1.8097  0.6161 -1.9159
 4760TIP3   OH235694   0.107   5.254   1.011 -0.6023 -0.0068  0.4061
 4760TIP3    H135695   0.081   5.304   1.088 -0.0553 -0.1487  0.6881
 4760TIP3    H235696   0.090   5.162   1.034  0.8505 -0.1775  0.8997
 4761TIP3   OH235697   4.007   2.371   0.018  0.4845  0.3883 -0.0139
 4761TIP3    H135698   3.978   2.283  -0.005  0.6324  0.1975  0.5253
 4761TIP3    H235699   4.101   2.371  -0.002  0.4253  0.5265 -0.3075
 4762TIP3   OH235700   6.423   5.568   6.147  0.5404 -0.0124  0.3061
 4762TIP3    H135701   6.393   5.509   6.078  2.9747 -1.9817  0.7895
 4762TIP3    H235702   6.353   5.569   6.212 -1.3203  1.0143 -1.5986
 4763TIP3   OH235703   6.678   2.118   0.565  0.1426  0.3543  0.4274
 4763TIP3    H135704   6.753   2.157   0.519  0.1510  1.4802  1.3517
 4763TIP3    H235705   6.717   2.076   0.642 -0.0463 -0.1637  0.2453
 4764TIP3   OH235706   1.879   6.578  14.828 -0.1512 -0.0877 -0.5085
 4764TIP3    H135707   1.827   6.555  14.752  0.4581 -3.7659  0.0199
 4764TIP3    H235708   1.963   6.609  14.793 -0.9630  1.3101 -1.2858
 4765TIP3   OH235709   0.048   3.736   2.949  0.1182 -0.3238 -0.6377
 4765TIP3    H135710   0.058   3.725   3.044 -0.2421  0.4959 -0.4984
 4765TIP3    H235711   0.020   3.650   2.918  0.0922 -0.5596  0.0189
 4766TIP3   OH235712   1.680   1.552  15.055 -0.3036 -0.2320  0.7155
 4766TIP3    H135713   1.747   1.582  14.993 -0.6031 -1.4288 -0.2415
 4766TIP3    H235714   1.598   1.561  15.007 -0.6613 -0.2035  1.3282
 4767TIP3   OH235715   3.255   1.557  12.043 -0.0550 -0.8296 -0.1700
 4767TIP3    H135716   3.200   1.626  12.007 -2.0804 -0.9901  2.2920
 4767TIP3    H235717   3.208   1.476  12.023  0.0047 -1.0960  0.7233
 4768TIP3   OH235718   0.821   3.467   4.059 -0.3651 -0.4945  0.4815
 4768TIP3    H135719   0.779   3.514   4.131 -1.0280 -0.0601 -0.1807
 4768TIP3    H235720   0.757   3.402   4.032  0.2082 -1.2204  0.8164
 4769TIP3   OH235721   6.119   1.153  11.626 -0.3034  0.5084 -0.2509
 4769TIP3    H135722   6.051   1.117  11.683 -1.6956  0.2023 -2.0238
 4769TIP3    H235723   6.087   1.240  11.603  0.2726  0.6456 -0.5520
 4770TIP3   OH235724   4.795   5.763  14.189  0.1298  0.0462  0.3822
 4770TIP3    H135725   4.778   5.684  14.137  0.1081  0.6556 -0.5628
 4770TIP3    H235726   4.722   5.769  14.250  0.1662 -0.6972  0.5084
 4771TIP3   OH235727   5.960   0.984   2.978  0.5345 -0.3411 -0.0370
 4771TIP3    H135728   5.917   0.903   3.007  0.6165 -0.1891  0.5101
 4771TIP3    H235729   6.051   0.958   2.962  0.6497 -0.2726  0.5065
 4772TIP3   OH235730   5.618   4.728   4.792 -0.2961  0.3314  0.0882
 4772TIP3    H135731   5.705   4.689   4.800  0.2077  1.6237  1.4056
 4772TIP3    H235732   5.634   4.820   4.772 -1.2970  0.8719  1.5670
 4773TIP3   OH235733   0.393   1.491   4.710  0.1202 -0.0037 -0.2780
 4773TIP3    H135734   0.428   1.501   4.799  0.4578 -1.6337 -0.1912
 4773TIP3    H235735   0.457   1.435   4.666 -0.4453  0.1569 -1.3128
 4774TIP3   OH235736   5.103   3.934   0.341 -0.1417 -0.3049  0.1195
 4774TIP3    H135737   5.190   3.896   0.330  1.1102  2.3113  0.1540
 4774TIP3    H235738   5.091   3.941   0.435 -0.1185 -0.1104  0.1085
 4775TIP3   OH235739   0.106   5.146  11.633 -0.2467  0.6014 -0.6533
 4775TIP3    H135740   0.145   5.119  11.716  0.3616 -1.9220 -1.6745
 4775TIP3    H235741   0.012   5.134  11.646 -0.0709 -1.1270 -0.7040
 4776TIP3   OH235742   0.459   3.374  14.956  0.0081 -0.2166 -0.3276
 4776TIP3    H135743   0.462   3.425  14.875 -1.6321  1.1063  0.3864
 4776TIP3    H235744   0.497   3.432  15.022 -0.0133 -0.7240  0.1419
 4777TIP3   OH235745   6.650   6.029   6.020 -0.8715  0.3535 -0.2029
 4777TIP3    H135746   6.605   5.972   6.082  1.8915 -2.2369 -0.3379
 4777TIP3    H235747   6.680   5.970   5.951  2.3371  1.9007 -0.3002
 4778TIP3   OH235748   6.084   4.914   5.921 -0.0154 -0.5204  0.1795
 4778TIP3    H135749   6.030   4.938   5.996  1.6820  2.9826  0.4878
 4778TIP3    H235750   6.173   4.908   5.957  0.4908 -1.1838 -1.1321
 4779TIP3   OH235751   3.515   5.269   4.055  0.0496  0.5848  0.4878
 4779TIP3    H135752   3.467   5.188   4.072 -0.9251  0.8123 -1.0244
 4779TIP3    H235753   3.607   5.243   4.056 -0.0770  0.0238  2.7963
 4780TIP3   OH235754   2.500   0.346  13.599  0.3835  0.3966 -0.5437
 4780TIP3    H135755   2.455   0.270  13.638 -0.4009  1.0234 -0.2068
 4780TIP3    H235756   2.507   0.409  13.671  1.3570  0.5106 -0.7316
 4781TIP3   OH235757   2.891   6.543  13.113  0.2255 -0.1018  0.3717
 4781TIP3    H135758   2.875   6.456  13.151  2.3176  0.1546  2.0146
 4781TIP3    H235759   2.892   6.602  13.188  0.5906  1.0802 -0.5382
 4782TIP3   OH235760   0.328   0.004  14.169  0.2796  0.4819 -0.4055
 4782TIP3    H135761   0.312   0.097  14.187  2.5295  1.1513 -1.4941
 4782TIP3    H235762   0.370   0.003  14.083  0.3871 -1.5484 -0.3757
 4783TIP3   OH235763   1.287   3.961  16.942 -0.2628  0.1567 -0.2287
 4783TIP3    H135764   1.204   3.929  16.978  0.5112  0.2167  1.7807
 4783TIP3    H235765   1.283   3.940  16.849 -2.5227  0.1736 -0.1886
 4784TIP3   OH235766   3.992   2.937  14.433  0.6603 -0.8833 -0.4558
 4784TIP3    H135767   3.957   3.020  14.465  0.2556 -0.7471 -1.2389
 4784TIP3    H235768   3.978   2.876  14.506  0.4983 -0.3918 -0.0651
 4785TIP3   OH235769   5.185   6.043  14.597  0.5877  0.1222  0.4172
 4785TIP3    H135770   5.147   6.014  14.514  2.9102  0.3590 -0.8210
 4785TIP3    H235771   5.184   5.965  14.652 -1.4606  0.0892  0.4142
 4786TIP3   OH235772   4.654   3.549   0.688  0.0315  0.0624  0.5779
 4786TIP3    H135773   4.729   3.601   0.658 -0.2881  0.0934 -0.1964
 4786TIP3    H235774   4.586   3.613   0.707 -0.4082 -0.0665 -0.5076
 4787TIP3   OH235775   3.410   6.446  14.824  0.2409 -0.7386 -0.1853
 4787TIP3    H135776   3.331   6.498  14.811 -0.0034 -1.5980 -2.6820
 4787TIP3    H235777   3.396   6.399  14.906 -1.0572  0.4294  0.2988
 4788TIP3   OH235778   4.436   2.772   6.292 -0.0272  0.3915 -0.0156
 4788TIP3    H135779   4.363   2.816   6.250  1.1712  2.2316 -0.2734
 4788TIP3    H235780   4.514   2.811   6.253  1.1371 -1.6391  0.0992
 4789TIP3   OH235781   4.880   3.129  14.509  0.9105  0.2995  0.5140
 4789TIP3    H135782   4.893   3.052  14.454  0.8352  0.3982  0.3564
 4789TIP3    H235783   4.832   3.096  14.585 -0.3308  0.4261 -0.1892
 4790TIP3   OH235784   5.402   4.873   5.416 -0.1698 -0.3021 -0.0119
 4790TIP3    H135785   5.481   4.869   5.362  0.0516 -0.5064  0.3296
 4790TIP3    H235786   5.338   4.919   5.360  0.0545 -0.5106 -0.4476
 4791TIP3   OH235787   1.328   3.235  12.235  0.0239 -0.3379 -0.9979
 4791TIP3    H135788   1.361   3.325  12.229  0.1949 -0.3976 -0.9452
 4791TIP3    H235789   1.369   3.189  12.163  0.8914 -0.6766 -0.3075
 4792TIP3   OH235790   5.438   2.255  14.280  0.0424  0.4295 -0.4952
 4792TIP3    H135791   5.509   2.242  14.343 -0.2365  3.2501  0.5384
 4792TIP3    H235792   5.373   2.188  14.303  1.2496 -0.5571  0.1808
 4793TIP3   OH235793   2.114   1.735   5.709 -0.0320  0.0353  0.2707
 4793TIP3    H135794   2.062   1.657   5.690  0.0694  0.3847 -1.6115
 4793TIP3    H235795   2.079   1.767   5.792 -1.4505 -0.8762  0.0602
 4794TIP3   OH235796   4.964   6.338   1.425 -0.0883  1.2190 -0.1632
 4794TIP3    H135797   5.046   6.344   1.472 -0.6200  0.9555  0.8199
 4794TIP3    H235798   4.954   6.424   1.383  1.2914  0.8369 -1.3688
 4795TIP3   OH235799   5.913   0.320  13.445 -0.0883  0.4043 -0.2006
 4795TIP3    H135800   5.952   0.383  13.506 -1.3761  1.2241 -0.1653
 4795TIP3    H235801   5.933   0.234  13.482 -2.0234  0.8832  2.2256
 4796TIP3   OH235802   4.838   0.695  12.694 -0.0567  0.2668  0.1069
 4796TIP3    H135803   4.898   0.652  12.754 -0.6977 -0.0447  0.5277
 4796TIP3    H235804   4.775   0.740  12.750 -2.0448 -1.9079 -0.2548
 4797TIP3   OH235805   5.381   6.515   5.409  0.3619  0.4835  0.1215
 4797TIP3    H135806   5.415   6.489   5.494 -0.3396  0.0264  0.2742
 4797TIP3    H235807   5.290   6.540   5.426  0.0241 -0.1997 -0.5797
 4798TIP3   OH235808   4.498   3.396   4.971 -0.0260 -0.8831  0.2310
 4798TIP3    H135809   4.465   3.342   5.043 -0.6685 -0.0121  0.6027
 4798TIP3    H235810   4.429   3.392   4.905  0.1243 -0.8788  0.0738
 4799TIP3   OH235811   6.619   3.675   4.319  0.0268  0.4887  0.4860
 4799TIP3    H135812   6.586   3.675   4.229 -0.2315 -3.0023  0.4318
 4799TIP3    H235813   6.711   3.651   4.311  0.4238  1.7008  1.1291
 4800TIP3   OH235814   3.196   1.221   4.155  0.1608  0.0414 -0.4771
 4800TIP3    H135815   3.214   1.231   4.249 -0.5403  1.2099 -0.4513
 4800TIP3    H235816   3.134   1.148   4.151  0.1506  0.0174 -0.0329
 4801TIP3   OH235817   4.659   6.063  11.580  0.5516  0.0562  0.3770
 4801TIP3    H135818   4.716   6.110  11.520  0.4534  0.7640  0.8288
 4801TIP3    H235819   4.578   6.047  11.530  0.5658  0.4092  0.2433
 4802TIP3   OH235820   2.402   3.005   2.717  0.0253 -0.5830  0.2219
 4802TIP3    H135821   2.481   3.059   2.710 -1.0634  1.1787  0.8815
 4802TIP3    H235822   2.376   2.990   2.626  0.1502  0.3195  0.0263
 4803TIP3   OH235823   2.875   5.476  12.101  0.2025  0.0781 -0.4119
 4803TIP3    H135824   2.930   5.488  12.023 -0.6329  1.8409 -0.7797
 4803TIP3    H235825   2.813   5.408  12.077  0.1340  0.4112 -1.1838
 4804TIP3   OH235826   3.458   3.126  14.563  0.2878 -0.2437  0.1203
 4804TIP3    H135827   3.492   3.066  14.629 -0.0812 -1.2407 -0.5659
 4804TIP3    H235828   3.417   3.197  14.613 -1.2092 -1.6593  0.9994
 4805TIP3   OH235829   1.656   4.047   1.952  0.6659 -0.0789 -0.2509
 4805TIP3    H135830   1.629   4.116   1.891 -0.1458 -0.8787 -0.8330
 4805TIP3    H235831   1.708   3.987   1.898  1.6106  0.2099  0.3152
 4806TIP3   OH235832   5.390   6.545   0.727 -0.0395 -0.8814  0.0644
 4806TIP3    H135833   5.311   6.493   0.712  0.0540 -0.8648 -0.5308
 4806TIP3    H235834   5.454   6.484   0.763 -0.2103 -0.9736  0.2117
 4807TIP3   OH235835   2.234   4.795   4.912 -0.7801 -0.3637 -0.1012
 4807TIP3    H135836   2.172   4.822   4.980 -0.3894  2.1938 -0.6494
 4807TIP3    H235837   2.180   4.751   4.846 -1.1176 -3.2038  1.9054
 4808TIP3   OH235838   6.470   0.541   0.162  0.4521 -0.0013 -0.1928
 4808TIP3    H135839   6.399   0.550   0.225 -0.0828 -0.7108 -0.6643
 4808TIP3    H235840   6.425   0.528   0.078  1.1476  0.5179 -0.6535
 4809TIP3   OH235841   2.428   6.643  12.326 -0.4758  0.1711  0.0694
 4809TIP3    H135842   2.449   6.710  12.260 -2.4105  1.1391  0.3418
 4809TIP3    H235843   2.488   6.660  12.398  0.3715  0.3440 -0.6603
 4810TIP3   OH235844   3.772   5.816  17.203 -0.1156  0.8044  0.2006
 4810TIP3    H135845   3.861   5.783  17.189  0.5078  2.7391 -0.7052
 4810TIP3    H235846   3.772   5.850  17.293 -0.4901 -0.7125  0.8095
 4811TIP3   OH235847   3.071   6.153   6.123  0.1958 -0.3391  0.2668
 4811TIP3    H135848   3.017   6.228   6.150 -0.1529 -0.9008  1.2018
 4811TIP3    H235849   3.156   6.191   6.102 -0.4599  0.5265 -0.9083
 4812TIP3   OH235850   2.345   4.351  12.269 -0.3843  0.0370 -0.1317
 4812TIP3    H135851   2.348   4.295  12.191 -4.4446  1.0767 -1.2793
 4812TIP3    H235852   2.263   4.328  12.312 -0.4503  2.6074  1.3407
 4813TIP3   OH235853   2.221   3.421  14.395 -0.2444 -0.2595 -0.2348
 4813TIP3    H135854   2.218   3.409  14.300 -0.5788  0.4276 -0.3144
 4813TIP3    H235855   2.288   3.488  14.409 -1.7092  1.2604 -0.1697
 4814TIP3   OH235856   2.913   1.992  16.889 -0.0481 -0.6199  0.2186
 4814TIP3    H135857   2.940   2.079  16.861 -0.4279 -0.5309  0.1218
 4814TIP3    H235858   2.859   2.007  16.966 -0.2305 -0.7586  0.1204
 4815TIP3   OH235859   0.699   1.556   4.719 -0.5386  0.2446 -0.3189
 4815TIP3    H135860   0.738   1.551   4.806  1.2279 -1.5921 -1.1230
 4815TIP3    H235861   0.679   1.648   4.706  0.0333  0.6791  1.6565
 4816TIP3   OH235862   6.484   6.717  16.624 -0.1342  0.3390 -0.1039
 4816TIP3    H135863   6.396   6.710  16.661 -0.2647  1.7652 -0.0950
 4816TIP3    H235864   6.510   6.808  16.642  2.4250 -0.7335  2.3103
 4817TIP3   OH235865   2.936   5.526   4.527 -0.9444  0.2325 -0.0589
 4817TIP3    H135866   2.943   5.443   4.481 -2.2441  0.0666  0.0212
 4817TIP3    H235867   2.845   5.553   4.515 -0.7389  1.2643  0.5734
 4818TIP3   OH235868   0.943   4.338   2.793 -0.1457 -0.0263  0.1866
 4818TIP3    H135869   1.028   4.348   2.751  0.3067  1.8917  1.4327
 4818TIP3    H235870   0.925   4.424   2.832 -3.3032  0.0907 -1.1885
 4819TIP3   OH235871   4.857   3.129   2.149  0.2593 -0.2993  0.5396
 4819TIP3    H135872   4.912   3.169   2.082  0.7397 -1.2573  0.3401
 4819TIP3    H235873   4.843   3.198   2.213  0.9601  0.2225  0.1477
 4820TIP3   OH235874   6.477   5.255  16.444  0.1258 -1.0192 -0.0038
 4820TIP3    H135875   6.523   5.197  16.382 -1.0411 -1.3432 -0.5949
 4820TIP3    H235876   6.498   5.219  16.530  3.9649  0.9656  0.1180
 4821TIP3   OH235877   6.076   0.294  13.231 -0.2667  0.3697 -0.3230
 4821TIP3    H135878   5.993   0.326  13.268 -0.1989  0.1887 -0.0102
 4821TIP3    H235879   6.131   0.278  13.307 -0.4815 -0.9882 -0.4357
 4822TIP3   OH235880   6.069   1.810  16.606  0.6208 -0.1087 -0.1010
 4822TIP3    H135881   6.003   1.836  16.542  0.9780  0.8047 -0.1063
 4822TIP3    H235882   6.019   1.766  16.675  0.0971 -0.0597 -0.4437
 4823TIP3   OH235883   0.736   6.286  16.363  0.1496  0.1432 -0.2947
 4823TIP3    H135884   0.651   6.290  16.319  0.0788  1.3873 -0.1040
 4823TIP3    H235885   0.784   6.361  16.328  1.3155 -0.7617 -0.6667
 4824TIP3   OH235886   2.462   4.433   5.690 -0.2585  0.5857  0.0594
 4824TIP3    H135887   2.488   4.376   5.763 -0.6617  0.0691 -0.1915
 4824TIP3    H235888   2.388   4.388   5.650 -0.9337  1.5561  0.1756
 4825TIP3   OH235889   3.524   2.231   4.033 -0.0047 -0.9789  0.3571
 4825TIP3    H135890   3.611   2.210   4.065  0.1325 -0.3052  0.4320
 4825TIP3    H235891   3.539   2.285   3.956 -0.3606 -0.1880  0.8344
 4826TIP3   OH235892   6.598   3.933  13.389 -0.0013 -0.5543 -0.2547
 4826TIP3    H135893   6.558   4.018  13.406 -1.6338 -1.2583 -0.4757
 4826TIP3    H235894   6.582   3.916  13.297  1.0128 -0.7687 -0.4067
 4827TIP3   OH235895   0.485   3.654   3.553 -0.7834  0.0850 -0.1735
 4827TIP3    H135896   0.524   3.659   3.466 -2.6336  1.8225 -1.0112
 4827TIP3    H235897   0.524   3.577   3.593  0.5833 -0.4212 -2.3116
 4828TIP3   OH235898   1.984   3.940  14.656  0.0712  0.0169 -0.3360
 4828TIP3    H135899   1.954   3.851  14.636 -0.5016  0.3690 -1.1380
 4828TIP3    H235900   2.065   3.950  14.607 -2.3590  1.5887 -4.6084
 4829TIP3   OH235901   0.488   0.350  16.103  0.1222 -0.3144  0.0572
 4829TIP3    H135902   0.401   0.379  16.078 -0.4719 -0.8000  1.4450
 4829TIP3    H235903   0.506   0.276  16.045 -0.3566 -0.1763 -0.2760
 4830TIP3   OH235904   2.432   1.965  14.790  0.3013 -0.2097  0.0374
 4830TIP3    H135905   2.374   2.019  14.735 -1.6643 -0.7850  1.4114
 4830TIP3    H235906   2.455   1.890  14.736 -0.0165  0.1773 -0.6412
 4831TIP3   OH235907   3.546   1.188   0.217  0.2858 -0.0611  0.2150
 4831TIP3    H135908   3.557   1.144   0.133 -1.3238  0.9148 -0.5672
 4831TIP3    H235909   3.453   1.178   0.237  0.1597  1.7426  0.6936
 4832TIP3   OH235910   3.228   3.013  12.141  0.2302  0.2311  0.2127
 4832TIP3    H135911   3.241   2.951  12.069 -3.0583 -2.2056  1.4772
 4832TIP3    H235912   3.187   3.089  12.100 -2.4252 -1.4708 -0.5325
 4833TIP3   OH235913   1.693   3.204   4.787  0.4227  0.2335  0.0729
 4833TIP3    H135914   1.614   3.151   4.778  0.9260 -0.2774 -1.8127
 4833TIP3    H235915   1.686   3.271   4.720  2.4563 -1.0377 -1.5322
 4834TIP3   OH235916   1.936   3.706   2.501  0.1237 -0.0917 -0.6695
 4834TIP3    H135917   2.013   3.698   2.444 -1.4511 -0.9142 -2.8339
 4834TIP3    H235918   1.888   3.780   2.465 -0.1223  0.4103  0.6547
 4835TIP3   OH235919   1.253   0.764  14.399  0.0050 -1.1350  0.2150
 4835TIP3    H135920   1.193   0.800  14.464 -0.8224 -1.6006 -0.2696
 4835TIP3    H235921   1.197   0.747  14.323  0.6906 -1.9157 -0.1210
 4836TIP3   OH235922   0.175   5.337  12.276 -0.0303  0.4173 -0.3679
 4836TIP3    H135923   0.125   5.303  12.201 -1.0229  1.5832 -0.2705
 4836TIP3    H235924   0.108   5.374  12.334  0.6839 -0.7557  1.2703
 4837TIP3   OH235925   5.940   3.143   1.349 -0.6370 -0.4191  0.1034
 4837TIP3    H135926   5.917   3.131   1.257  1.2130 -2.5476 -0.1655
 4837TIP3    H235927   5.861   3.182   1.388 -0.8198  2.3635 -2.6600
 4838TIP3   OH235928   0.709   4.877   1.632  0.2155  0.2688 -0.1077
 4838TIP3    H135929   0.782   4.819   1.656 -0.1946  0.2097  1.0604
 4838TIP3    H235930   0.641   4.856   1.696 -0.8283  0.3267 -1.1867
 4839TIP3   OH235931   4.604   2.658  16.682  0.0926  0.4294  0.0808
 4839TIP3    H135932   4.693   2.672  16.649  0.5232 -1.5386  0.2550
 4839TIP3    H235933   4.548   2.684  16.610  0.8765  0.3857 -0.5680
 4840TIP3   OH235934   0.199   4.134   2.989 -0.0011  0.3818 -0.5655
 4840TIP3    H135935   0.231   4.218   2.957  1.7203  0.2607  0.7156
 4840TIP3    H235936   0.246   4.119   3.071 -1.1554 -1.2777 -0.1372
 4841TIP3   OH235937   2.044   3.050   2.170  0.0849  0.0927  0.2421
 4841TIP3    H135938   2.103   3.088   2.104  0.2726 -0.6592 -0.0247
 4841TIP3    H235939   1.980   3.001   2.119 -1.7423  2.1370  0.4086
 4842TIP3   OH235940   3.549   4.056   5.952  0.4601  0.5177 -0.3276
 4842TIP3    H135941   3.579   3.966   5.942  0.0954  0.5081 -1.4363
 4842TIP3    H235942   3.548   4.091   5.863 -0.7944  1.1526 -0.0827
 4843TIP3   OH235943   4.345   4.286   3.119 -0.8242  0.4900  0.2714
 4843TIP3    H135944   4.277   4.286   3.187 -0.8968  1.2931  0.2072
 4843TIP3    H235945   4.343   4.375   3.084  0.0097  0.4110  0.0144
 4844TIP3   OH235946   5.553   0.489  13.560  0.4684 -0.2692 -0.2903
 4844TIP3    H135947   5.501   0.414  13.586 -0.4883  0.2715 -0.6028
 4844TIP3    H235948   5.579   0.470  13.469  0.4502 -0.3417 -0.2804
 4845TIP3   OH235949   4.432   4.997   3.446  0.1882 -1.1880  0.3200
 4845TIP3    H135950   4.415   4.952   3.364  0.6788 -0.3999 -0.2324
 4845TIP3    H235951   4.352   5.047   3.463  0.2778 -0.9424  0.0385
 4846TIP3   OH235952   3.587   0.772   5.391  0.0972 -0.1199  0.5323
 4846TIP3    H135953   3.537   0.755   5.470 -0.3659 -1.6184 -0.0604
 4846TIP3    H235954   3.587   0.689   5.343  2.0570  0.1889 -0.1024
 4847TIP3   OH235955   5.602   3.937   1.925  0.2263 -0.1682  0.0299
 4847TIP3    H135956   5.618   3.844   1.913  1.0780  0.2292 -2.6478
 4847TIP3    H235957   5.558   3.944   2.009  2.2878 -2.7267  1.4436
 4848TIP3   OH235958   3.477   5.210  13.782  0.1056  0.1672 -0.1393
 4848TIP3    H135959   3.507   5.128  13.744  0.5302  0.0700  0.3984
 4848TIP3    H235960   3.420   5.185  13.854 -0.1265  0.3488 -0.2569
 4849TIP3   OH235961   1.739   2.270  12.672 -0.4493  0.1865 -0.6008
 4849TIP3    H135962   1.715   2.327  12.600 -4.1837  0.1226  0.4040
 4849TIP3    H235963   1.684   2.193  12.662 -0.3701 -0.2685  1.7571
 4850TIP3   OH235964   4.930   4.352   1.189  0.1865  0.4562  0.2840
 4850TIP3    H135965   5.020   4.384   1.176  1.1622 -1.0201  2.7579
 4850TIP3    H235966   4.894   4.412   1.255 -0.7264  1.1068 -0.7801
 4851TIP3   OH235967   2.113   2.705   6.155 -0.4143  0.3572 -0.4113
 4851TIP3    H135968   2.119   2.613   6.180 -1.8295  0.3754  0.0997
 4851TIP3    H235969   2.175   2.750   6.213  1.0554 -0.3640 -1.3612
 4852TIP3   OH235970   3.864   5.897   0.754  0.3833  0.3137  0.1956
 4852TIP3    H135971   3.839   5.893   0.846  2.8158  1.3272  0.9779
 4852TIP3    H235972   3.915   5.978   0.746  0.7533 -0.0582 -1.9048
 4853TIP3   OH235973   5.412   6.402   4.747  0.6615  0.1347  0.2439
 4853TIP3    H135974   5.369   6.321   4.775 -0.1226  0.5123  0.1564
 4853TIP3    H235975   5.439   6.386   4.657 -0.0910  0.1971  0.0014
 4854TIP3   OH235976   0.495   1.914  16.642 -0.1178 -0.0761 -0.3693
 4854TIP3    H135977   0.495   1.835  16.696  0.7714  0.5507  0.5748
 4854TIP3    H235978   0.581   1.915  16.600 -0.7011 -0.4171 -1.6303
 4855TIP3   OH235979   0.292   0.353  16.686  0.0883 -0.3434 -0.1349
 4855TIP3    H135980   0.280   0.357  16.780 -1.4881  1.3848 -0.3682
 4855TIP3    H235981   0.234   0.283  16.657  0.3936 -0.7112  0.1231
 4856TIP3   OH235982   3.593   5.122   6.031  0.2561 -0.3878 -0.2320
 4856TIP3    H135983   3.506   5.159   6.020 -0.6927 -2.7804 -1.5819
 4856TIP3    H235984   3.653   5.195   6.015 -1.4771  1.0044 -0.6141
 4857TIP3   OH235985   6.609   4.586  11.958 -0.5395  0.3965  0.1845
 4857TIP3    H135986   6.596   4.681  11.953  1.7649  0.7607  0.2862
 4857TIP3    H235987   6.687   4.575  12.012  0.3777 -1.4437 -1.3995
 4858TIP3   OH235988   5.680   0.349   0.134  0.3249 -1.2904 -0.3013
 4858TIP3    H135989   5.671   0.369   0.041  0.8952  0.5495  0.0020
 4858TIP3    H235990   5.593   0.364   0.170  0.7075  0.6330 -0.1074
 4859TIP3   OH235991   5.804   5.210   2.563 -0.0652 -0.0506  0.5794
 4859TIP3    H135992   5.756   5.243   2.639  2.4036  2.5399  1.1400
 4859TIP3    H235993   5.896   5.221   2.585  0.7807 -0.9602 -2.0862
 4860TIP3   OH235994   4.869   2.077   2.336 -0.0216  0.0113 -0.2628
 4860TIP3    H135995   4.858   2.163   2.294  0.8980  0.5395  0.5378
 4860TIP3    H235996   4.830   2.088   2.422  2.2350  0.4333  0.7913
 4861TIP3   OH235997   0.728   0.002  13.984 -0.6199 -0.0112 -0.1254
 4861TIP3    H135998   0.705  -0.042  13.902  1.0452 -3.1883  0.8968
 4861TIP3    H235999   0.667   0.075  13.991 -2.5184 -1.1577 -2.8974
 4862TIP3   OH236000   6.691   1.451   1.926 -0.4723 -0.5751  0.5179
 4862TIP3    H136001   6.680   1.423   1.835  2.3445  0.4141 -0.2385
 4862TIP3    H236002   6.756   1.390   1.962 -0.6781 -0.2287  1.5166
 4863TIP3   OH236003   3.337   4.455  11.699  0.1634  0.2950  0.3661
 4863TIP3    H136004   3.250   4.471  11.664  1.3456  1.3776 -2.4152
 4863TIP3    H236005   3.375   4.390  11.639  1.0621 -0.6465  1.8994
 4864TIP3   OH236006   0.393   3.080  13.455 -0.6952  0.1627 -0.1363
 4864TIP3    H136007   0.431   2.995  13.435 -0.6449  0.2969 -0.6515
 4864TIP3    H236008   0.299   3.064  13.461 -0.5696 -0.1782  1.1872
 4865TIP3   OH236009   2.981   5.369  10.610  0.1238  0.4111 -0.0409
 4865TIP3    H136010   3.012   5.314  10.682  2.3407  1.1821 -0.3512
 4865TIP3    H236011   2.886   5.357  10.610  0.4742 -4.0700 -0.6119
 4866TIP3   OH236012   2.281   0.921  15.565  0.1789  0.1116 -0.3062
 4866TIP3    H136013   2.348   0.934  15.632  1.0536 -1.1769 -0.8686
 4866TIP3    H236014   2.322   0.954  15.484 -0.8996  1.7487 -0.2237
 4867TIP3   OH236015   3.076   6.340   3.980 -0.2848  0.4432 -0.0757
 4867TIP3    H136016   3.014   6.303   3.917 -1.8612 -0.3404  1.8074
 4867TIP3    H236017   3.129   6.265   4.009  1.4701  1.0632 -1.4917
 4868TIP3   OH236018   5.057   6.149   5.930  0.5989  0.0124 -0.2474
 4868TIP3    H136019   5.030   6.064   5.966 -0.7956  1.1317  1.5437
 4868TIP3    H236020   5.127   6.179   5.988  2.6504 -0.8318 -2.1823
 4869TIP3   OH236021   3.951   2.553  13.136  0.4016 -0.1936 -0.2264
 4869TIP3    H136022   4.033   2.561  13.185  0.8087  2.0342 -1.1482
 4869TIP3    H236023   3.978   2.556  13.044 -0.5281 -2.1992 -0.6105
 4870TIP3   OH236024   2.572   6.537   3.834 -0.2124  0.2954 -0.3897
 4870TIP3    H136025   2.510   6.475   3.873 -1.4220  1.9208  0.3958
 4870TIP3    H236026   2.608   6.586   3.909 -0.2627  1.4054 -1.0660
 4871TIP3   OH236027   1.641   0.206  13.006 -0.5604  0.1848 -0.2927
 4871TIP3    H136028   1.734   0.206  13.027 -1.2921 -0.9887  3.9033
 4871TIP3    H236029   1.608   0.287  13.044 -1.7820 -1.3234  2.0954
 4872TIP3   OH236030   3.104   5.199  14.419  0.2926  0.4255 -0.4022
 4872TIP3    H136031   3.021   5.190  14.373  0.0430  2.2916 -0.3839
 4872TIP3    H236032   3.101   5.132  14.487 -1.2622  0.5318 -0.3290
 4873TIP3   OH236033   0.506   3.443   0.157  0.0410  0.0138  0.5890
 4873TIP3    H136034   0.485   3.408   0.244  0.3415 -0.8451  0.3344
 4873TIP3    H236035   0.601   3.456   0.160  0.2033 -0.9381  0.0889
 4874TIP3   OH236036   5.190   4.805   6.246 -0.1230 -0.9366 -0.4414
 4874TIP3    H136037   5.104   4.824   6.209  0.0146  1.1146  0.1440
 4874TIP3    H236038   5.176   4.798   6.340  0.5329  1.0601 -0.1492
 4875TIP3   OH236039   5.157   3.779  13.011 -0.6617  0.0929  0.5290
 4875TIP3    H136040   5.210   3.707  12.976 -2.0224 -1.4319  1.4652
 4875TIP3    H236041   5.135   3.833  12.935  1.2515  0.1358 -0.0425
 4876TIP3   OH236042   2.462   0.565   3.800 -0.0321  0.0950 -0.2368
 4876TIP3    H136043   2.436   0.492   3.857  0.3448  1.5573  1.9137
 4876TIP3    H236044   2.495   0.522   3.721  1.2190 -2.1211  1.3695
 4877TIP3   OH236045   3.675   6.071   4.739  0.1804 -0.1606 -0.4176
 4877TIP3    H136046   3.653   6.131   4.811  0.6232  0.1310 -0.5194
 4877TIP3    H236047   3.747   6.018   4.773 -0.3248 -0.7576 -0.2681
 4878TIP3   OH236048   5.366   6.726  13.008  0.8832  0.2298  0.3246
 4878TIP3    H136049   5.448   6.772  13.024 -0.1719  1.7711  1.7212
 4878TIP3    H236050   5.348   6.681  13.091 -0.2409  0.8903  0.4614
 4879TIP3   OH236051   1.182   5.268   3.032 -0.0463 -0.3129 -0.0472
 4879TIP3    H136052   1.108   5.225   2.989 -0.1141  0.8391 -1.1146
 4879TIP3    H236053   1.254   5.206   3.023 -0.6187 -1.0173  0.1183
 4880TIP3   OH236054   4.104   3.394  13.438  0.0159 -0.7958 -0.1310
 4880TIP3    H136055   4.095   3.299  13.432 -0.7874 -0.8598  1.6215
 4880TIP3    H236056   4.062   3.418  13.521 -1.5566  1.3109 -1.4042
 4881TIP3   OH236057   2.193   1.826   3.919  0.2113  0.1607 -0.1579
 4881TIP3    H136058   2.248   1.902   3.904 -0.7713  0.8482 -0.3834
 4881TIP3    H236059   2.206   1.771   3.841  0.8454  0.1317 -0.0376
 4882TIP3   OH236060   4.293   1.202  12.492  0.4901  0.1731  0.5810
 4882TIP3    H136061   4.311   1.117  12.531  1.5985  0.0808 -0.0952
 4882TIP3    H236062   4.207   1.226  12.526 -0.0089 -1.3862  0.4923
 4883TIP3   OH236063   2.217   0.816  15.968  0.0862  0.1482  0.2298
 4883TIP3    H136064   2.124   0.835  15.983  0.4854  0.4472  2.7189
 4883TIP3    H236065   2.264   0.879  16.023  1.8527  0.6969 -1.7529
 4884TIP3   OH236066   4.805   2.169   5.886  0.5473 -0.5674  0.4037
 4884TIP3    H136067   4.857   2.139   5.811  0.2309 -0.6551  0.2155
 4884TIP3    H236068   4.858   2.237   5.927  0.5474 -0.2289 -0.1449
 4885TIP3   OH236069   5.264   1.244   1.650 -0.1082  0.1256 -0.0800
 4885TIP3    H136070   5.337   1.305   1.659 -0.1618  0.2804 -0.6263
 4885TIP3    H236071   5.231   1.233   1.739  1.7700 -1.4499  0.4853
 4886TIP3   OH236072   4.142   1.116  16.700 -0.2409 -0.3620  0.1574
 4886TIP3    H136073   4.181   1.053  16.760 -0.1113  0.5456  1.0490
 4886TIP3    H236074   4.175   1.201  16.729  0.3158  0.0598 -1.5777
 4887TIP3   OH236075   4.814   2.694  12.015  0.2306  0.0683 -0.3872
 4887TIP3    H136076   4.840   2.756  12.084  1.5148  1.3736 -1.9672
 4887TIP3    H236077   4.879   2.706  11.946 -1.3573 -0.7402 -2.1154
 4888TIP3   OH236078   6.129   1.185   0.688  0.2768  0.3182 -0.0859
 4888TIP3    H136079   6.123   1.090   0.671 -0.3754  0.4039 -0.3689
 4888TIP3    H236080   6.097   1.195   0.778 -1.0922  0.4235 -0.5555
 4889TIP3   OH236081   3.866   6.709  13.783 -0.5962  0.4182  0.8536
 4889TIP3    H136082   3.857   6.804  13.786 -0.5586  0.4376  0.4770
 4889TIP3    H236083   3.808   6.677  13.852  0.9708  0.7939  2.3943
 4890TIP3   OH236084   6.009   6.186   1.844 -0.4399 -0.1621 -0.1136
 4890TIP3    H136085   6.061   6.114   1.809 -1.4735 -0.9483 -0.0692
 4890TIP3    H236086   6.015   6.255   1.778  2.3658  0.6096  0.8175
 4891TIP3   OH236087   1.776   2.590   3.303 -0.5544 -0.3361  0.1636
 4891TIP3    H136088   1.696   2.574   3.354 -0.7705  0.5221  0.1121
 4891TIP3    H236089   1.840   2.618   3.368 -0.6060  0.0028  0.0717
 4892TIP3   OH236090   5.885   0.188  16.422  0.0984 -0.0015  0.3409
 4892TIP3    H136091   5.973   0.177  16.459  0.2464 -0.7065 -0.2059
 4892TIP3    H236092   5.899   0.188  16.328 -0.6410 -1.6105  0.1977
 4893TIP3   OH236093   2.221   3.288  16.369  0.3201 -0.2588  0.1741
 4893TIP3    H136094   2.215   3.327  16.456  1.0802  2.0663 -0.7244
 4893TIP3    H236095   2.171   3.348  16.313 -1.9503 -2.7944 -0.7424
 4894TIP3   OH236096   1.934   6.571  16.378 -0.1864  0.3018 -0.2039
 4894TIP3    H136097   1.876   6.521  16.320  0.2243 -0.6633  0.2005
 4894TIP3    H236098   1.882   6.647  16.403 -1.1915 -0.4125 -0.0611
 4895TIP3   OH236099   2.465   4.356   3.563  0.2772 -0.3397  0.4095
 4895TIP3    H136100   2.501   4.444   3.563 -0.0858 -0.1644 -0.7285
 4895TIP3    H236101   2.379   4.365   3.605  0.3283 -0.1910  0.4809
 4896TIP3   OH236102   2.707   6.402  13.614 -0.5015 -0.0793 -0.8279
 4896TIP3    H136103   2.676   6.345  13.684  0.2257  1.2490  0.6420
 4896TIP3    H236104   2.627   6.442  13.579 -0.7726  0.8816  0.7542
 4897TIP3   OH236105   5.386   1.063   0.425  0.7418 -0.1629  0.0338
 4897TIP3    H136106   5.293   1.045   0.430  0.7905 -0.0863  2.6809
 4897TIP3    H236107   5.392   1.159   0.425  0.8062 -0.1618 -1.1506
 4898TIP3   OH236108   5.531   4.353   0.305  0.7174 -0.2192 -0.0961
 4898TIP3    H136109   5.585   4.286   0.264  1.8479  0.2783  0.5470
 4898TIP3    H236110   5.565   4.436   0.271  1.1383  0.1611  1.1948
 4899TIP3   OH236111   0.943   3.784   3.412  0.1203  0.1567 -0.4694
 4899TIP3    H136112   0.933   3.798   3.506 -2.3406 -0.3083 -0.6150
 4899TIP3    H236113   0.948   3.689   3.402  0.4211  0.2047 -0.8146
 4900TIP3   OH236114   2.139   1.936   3.520 -0.1484 -0.1973 -0.4448
 4900TIP3    H136115   2.141   1.860   3.463 -1.1773  1.3991 -2.7732
 4900TIP3    H236116   2.202   1.997   3.481  0.0231  0.4934  0.8491
 4901TIP3   OH236117   3.145   1.840   4.891  0.7165  0.4425 -0.0969
 4901TIP3    H136118   3.133   1.746   4.905 -0.5672  0.4266 -1.0990
 4901TIP3    H236119   3.103   1.881   4.968 -0.9746  0.2274 -0.8654
 4902TIP3   OH236120   0.174   0.405  15.918 -0.0493  0.4210  0.2220
 4902TIP3    H136121   0.109   0.473  15.902 -0.0989  0.4007  0.3342
 4902TIP3    H236122   0.126   0.337  15.966 -0.2303 -0.1069 -0.6911
 4903TIP3   OH236123   1.620   4.646   6.292  0.1436 -0.1170  0.0507
 4903TIP3    H136124   1.600   4.560   6.254 -1.1301 -0.4105  1.3425
 4903TIP3    H236125   1.552   4.704   6.258  2.4028  1.1100 -2.9151
 4904TIP3   OH236126   2.560   2.573  13.823  0.2660  0.1310 -0.1802
 4904TIP3    H136127   2.631   2.522  13.785  0.9003  1.1454 -0.3961
 4904TIP3    H236128   2.569   2.560  13.918  1.4021  1.0809 -0.1387
 4905TIP3   OH236129   5.304   0.166  11.578 -0.2560  0.3847  0.0689
 4905TIP3    H136130   5.222   0.152  11.626 -1.0551  1.8876 -0.7753
 4905TIP3    H236131   5.363   0.098  11.611 -2.0033 -1.0977  0.2950
 4906TIP3   OH236132   0.514   1.223  14.439  0.2338 -0.3122 -0.1142
 4906TIP3    H136133   0.479   1.178  14.516 -1.7909  0.2640 -0.6556
 4906TIP3    H236134   0.522   1.154  14.373 -0.1560 -0.4092 -0.0644
 4907TIP3   OH236135   0.053   6.622   5.108  0.2609  0.2740  0.2540
 4907TIP3    H136136   0.091   6.709   5.118 -0.8550  0.8808 -0.5024
 4907TIP3    H236137   0.020   6.601   5.195  0.3148  0.7244  0.3889
 4908TIP3   OH236138   0.591   0.995  13.295 -0.4198 -0.2769 -0.3173
 4908TIP3    H136139   0.598   1.076  13.345 -1.4781 -0.3264 -0.0665
 4908TIP3    H236140   0.667   0.943  13.321 -0.4921  0.0582  0.5838
 4909TIP3   OH236141   3.139   4.293   3.076 -0.4836  0.0888 -0.6380
 4909TIP3    H136142   3.196   4.359   3.115  1.2752 -1.4159 -0.5357
 4909TIP3    H236143   3.109   4.241   3.151  1.2732 -1.5562 -0.9921
 4910TIP3   OH236144   6.248   2.487   4.191  0.4304  0.5166 -0.1196
 4910TIP3    H136145   6.206   2.542   4.258 -1.7216 -1.1071 -0.0392
 4910TIP3    H236146   6.310   2.433   4.240 -1.2553 -0.7829  0.6900
 4911TIP3   OH236147   6.493   5.380   4.631  0.2981 -0.2067  0.0270
 4911TIP3    H136148   6.527   5.446   4.571 -0.9492  1.1740  0.7859
 4911TIP3    H236149   6.398   5.384   4.620  0.1291 -0.9290  1.0773
 4912TIP3   OH236150   2.589   4.565  11.133 -0.1734 -0.2440 -0.0057
 4912TIP3    H136151   2.554   4.567  11.044 -2.5679  0.1955  0.8929
 4912TIP3    H236152   2.651   4.492  11.132 -1.5808 -1.4923 -1.5303
 4913TIP3   OH236153   3.104   6.487   3.703 -0.1235 -0.2175  0.4863
 4913TIP3    H136154   3.135   6.555   3.642 -0.1964 -0.3761  0.2702
 4913TIP3    H236155   3.177   6.474   3.763 -0.5849  0.9931  1.3495
 4914TIP3   OH236156   2.167   6.476   1.369  0.1290 -0.0531 -0.2919
 4914TIP3    H136157   2.193   6.550   1.424 -0.2196 -0.2106  0.0825
 4914TIP3    H236158   2.138   6.516   1.287 -0.8002  0.2734  0.1919
 4915TIP3   OH236159   5.932   3.386  16.211  0.2416  0.0323 -0.3052
 4915TIP3    H136160   6.015   3.412  16.172 -0.4680 -0.5151 -2.2584
 4915TIP3    H236161   5.865   3.427  16.157 -0.7962 -0.7150  0.3537
 4916TIP3   OH236162   1.543   5.814   3.955 -0.2723 -0.0475 -0.4497
 4916TIP3    H136163   1.604   5.784   3.887 -1.1307  0.0778 -1.2908
 4916TIP3    H236164   1.600   5.851   4.023  0.6694 -1.2124 -0.5654
 4917TIP3   OH236165   1.956   3.243  17.278 -0.4704  0.1268 -0.2817
 4917TIP3    H136166   2.030   3.212  17.227 -0.5599  0.0273 -0.3534
 4917TIP3    H236167   1.883   3.185  17.252 -0.7622  0.7093 -0.7913
 4918TIP3   OH236168   5.568   1.753   0.864  0.2126  1.0108  0.5217
 4918TIP3    H136169   5.615   1.709   0.793  1.0696 -0.3820  1.8897
 4918TIP3    H236170   5.533   1.833   0.824  2.7117  1.5095 -0.8553
 4919TIP3   OH236171   1.759   3.897  11.874  0.1363  0.3062 -0.4713
 4919TIP3    H136172   1.842   3.939  11.896  1.0534 -1.1648 -1.0020
 4919TIP3    H236173   1.772   3.864  11.785  0.0869 -2.5507  0.5013
 4920TIP3   OH236174   4.915   2.854   2.236 -0.5896  0.6425  0.5398
 4920TIP3    H136175   4.944   2.806   2.159  0.5314 -0.8553  1.8376
 4920TIP3    H236176   4.913   2.946   2.208  1.4603  0.3388 -0.7893
 4921TIP3   OH236177   1.019   5.074  16.068  0.2763  0.3674  0.4355
 4921TIP3    H136178   1.007   4.984  16.098  0.4173  0.2216  0.0713
 4921TIP3    H236179   1.111   5.076  16.038  0.1852  0.5442  0.1628
 4922TIP3   OH236180   2.067   0.891   6.695  0.4918 -0.0543  0.0263
 4922TIP3    H136181   2.160   0.895   6.716  0.6867 -0.3594 -0.7380
 4922TIP3    H236182   2.027   0.851   6.772  1.2186 -1.3962 -0.2615
 4923TIP3   OH236183   6.204   5.171   6.370 -0.0692 -0.2380  0.1088
 4923TIP3    H136184   6.227   5.230   6.442 -0.8222  0.1515  0.0415
 4923TIP3    H236185   6.174   5.091   6.413  1.8956 -0.9762  0.1966
 4924TIP3   OH236186   3.386   6.481  11.494  0.0451  0.0830 -0.1083
 4924TIP3    H136187   3.362   6.460  11.584  1.1233  0.4339  0.2663
 4924TIP3    H236188   3.353   6.570  11.480  0.7124  0.3866  0.2511
 4925TIP3   OH236189   3.565   5.241  11.647 -0.0770 -0.5659 -0.4546
 4925TIP3    H136190   3.620   5.319  11.652 -2.0286  0.8458 -0.0453
 4925TIP3    H236191   3.590   5.200  11.564  2.6834 -0.8945  0.4327
 4926TIP3   OH236192   2.869   1.074   1.558  0.2851 -0.0180 -0.2616
 4926TIP3    H136193   2.880   1.161   1.521 -1.5623  0.1505 -0.5031
 4926TIP3    H236194   2.778   1.072   1.590  0.7606 -1.3128  1.1809
 4927TIP3   OH236195   4.330   0.575   1.543  0.0070  0.2089  0.1860
 4927TIP3    H136196   4.387   0.501   1.522 -1.2045 -0.3759 -1.1885
 4927TIP3    H236197   4.391   0.647   1.561  1.2000 -0.4843 -0.8500
 4928TIP3   OH236198   5.207   2.325  11.843  0.0311  0.0259 -0.2268
 4928TIP3    H136199   5.242   2.399  11.793 -1.3861  1.2004  0.4253
 4928TIP3    H236200   5.112   2.338  11.840 -0.2069 -1.3686  0.5411
 4929TIP3   OH236201   5.061   3.532   0.484 -0.2046 -0.6942  0.3438
 4929TIP3    H136202   5.044   3.457   0.427  0.9844  0.6373 -1.9019
 4929TIP3    H236203   5.151   3.519   0.514 -0.3388 -0.6611  0.7597
 4930TIP3   OH236204   3.995   3.446  14.038  0.5418  0.1875 -0.4686
 4930TIP3    H136205   4.058   3.487  13.978 -1.9860 -1.0295 -4.3190
 4930TIP3    H236206   3.921   3.507  14.041 -1.0817 -1.5526 -2.1102
 4931TIP3   OH236207   5.226   3.447  13.208  0.4028 -0.4425  0.2491
 4931TIP3    H136208   5.168   3.392  13.155 -0.7192 -0.3187  1.3231
 4931TIP3    H236209   5.176   3.467  13.286  1.3585  0.8970  0.5463
 4932TIP3   OH236210   2.313   2.269   4.017  0.1654 -0.3637 -0.6189
 4932TIP3    H136211   2.397   2.313   4.030 -0.4923  0.6360  0.4234
 4932TIP3    H236212   2.265   2.325   3.956  0.3185 -1.0613 -1.4089
 4933TIP3   OH236213   3.104   0.651   6.203 -0.1670 -0.7002  0.2025
 4933TIP3    H136214   3.182   0.692   6.240 -0.5320  0.7190 -0.5556
 4933TIP3    H236215   3.106   0.561   6.237  0.4741  0.0065  2.1800
 4934TIP3   OH236216   0.657   5.599   3.994  0.1709  0.4710 -1.0012
 4934TIP3    H136217   0.572   5.604   4.038  0.2727 -0.3323 -0.6894
 4934TIP3    H236218   0.674   5.688   3.964 -0.0921  0.9602  0.2378
 4935TIP3   OH236219   5.632   2.686   0.670 -0.1965 -0.1274  0.5746
 4935TIP3    H136220   5.675   2.716   0.590  2.1182 -0.8335  1.4872
 4935TIP3    H236221   5.639   2.759   0.731  0.2318 -0.4555  0.9199
 4936TIP3   OH236222   6.217   6.323   1.989  0.2597 -0.3018 -0.1200
 4936TIP3    H136223   6.125   6.297   1.993  0.5574 -1.2736  0.8950
 4936TIP3    H236224   6.254   6.269   1.919  0.5417 -1.6022  0.9906
 4937TIP3   OH236225   2.468   0.357  12.867  0.2529  0.1553  0.1439
 4937TIP3    H136226   2.557   0.394  12.864 -0.4694  1.9699 -1.2043
 4937TIP3    H236227   2.479   0.266  12.841  1.6194  0.6527 -1.1732
 4938TIP3   OH236228   5.014   2.987   1.506  0.5668  0.2699  0.0961
 4938TIP3    H136229   5.075   2.976   1.579 -0.4532  0.5020  1.0046
 4938TIP3    H236230   5.069   3.018   1.434  2.3539 -3.5605 -0.5003
 4939TIP3   OH236231   3.119   4.570   5.777  0.0082  0.3267 -0.1191
 4939TIP3    H136232   3.167   4.587   5.858 -2.2223 -0.0058  1.3372
 4939TIP3    H236233   3.150   4.485   5.748  1.5509  0.8875 -0.2041
 4940TIP3   OH236234   0.186   3.025   0.154  0.1960 -0.4804  0.5722
 4940TIP3    H136235   0.171   3.098   0.094 -0.2177 -1.3720 -0.4546
 4940TIP3    H236236   0.200   2.950   0.096  3.8094 -0.7039  1.5031
 4941TIP3   OH236237   2.452   0.180   4.575  0.3175 -0.1214  0.3127
 4941TIP3    H136238   2.458   0.262   4.527  0.4456  0.4252  1.2324
 4941TIP3    H236239   2.449   0.206   4.667 -2.2546 -0.9925  0.5611
 4942TIP3   OH236240   6.558   2.263  10.656  0.3550  0.7591 -0.8719
 4942TIP3    H136241   6.590   2.293  10.741  1.5546  0.5855 -1.2358
 4942TIP3    H236242   6.471   2.302  10.648 -1.1314 -1.6555  1.7442
 4943TIP3   OH236243   1.264   5.446  15.323 -0.2639  0.0508 -0.3438
 4943TIP3    H136244   1.197   5.501  15.363  0.3335  0.2169  0.4569
 4943TIP3    H236245   1.239   5.357  15.348 -1.4663 -0.1123 -1.9915
 4944TIP3   OH236246   0.588   0.333   0.446 -0.4518  0.0176  0.8501
 4944TIP3    H136247   0.589   0.369   0.357  1.9786  0.8999  1.1457
 4944TIP3    H236248   0.502   0.293   0.455 -0.8835  0.1712 -1.7925
 4945TIP3   OH236249   0.234   3.502   0.178  0.7060 -0.2879  0.0518
 4945TIP3    H136250   0.317   3.527   0.137  0.9376 -1.5559 -0.3022
 4945TIP3    H236251   0.256   3.490   0.270  0.5468  0.9334  0.2711
 4946TIP3   OH236252   1.492   3.640  11.530 -0.2613  1.0149 -0.3815
 4946TIP3    H136253   1.548   3.705  11.488  2.0558 -0.7236 -0.1190
 4946TIP3    H236254   1.505   3.655  11.624  0.2595  0.2221 -0.3203
 4947TIP3   OH236255   4.559   1.010  15.763  0.3340  0.1760 -0.2672
 4947TIP3    H136256   4.570   0.953  15.687  0.1165 -0.8948  0.4916
 4947TIP3    H236257   4.641   1.003  15.812 -0.3830 -0.9757  0.8097
 4948TIP3   OH236258   3.165   3.881   5.358 -0.4501 -0.6052  0.3750
 4948TIP3    H136259   3.153   3.788   5.337 -1.3593 -0.7765  1.5155
 4948TIP3    H236260   3.178   3.923   5.273  1.1161 -1.9108 -0.0792
 4949TIP3   OH236261   0.652   0.406   0.908 -0.3241  0.4710  0.0710
 4949TIP3    H136262   0.672   0.388   1.000 -1.1598 -1.3567 -0.0629
 4949TIP3    H236263   0.721   0.361   0.860 -0.0138  1.2449 -0.2292
 4950TIP3   OH236264   0.545   5.610  16.236 -0.5421  0.0119 -0.1512
 4950TIP3    H136265   0.547   5.575  16.147 -0.3821 -0.9737  0.2273
 4950TIP3    H236266   0.471   5.566  16.278 -2.9419  3.0918 -0.7988
 4951TIP3   OH236267   1.886   6.378  12.541  0.1232 -0.2041  0.1438
 4951TIP3    H136268   1.835   6.310  12.497 -0.3238 -0.2016  0.6478
 4951TIP3    H236269   1.856   6.460  12.502 -0.2642 -0.2024  0.4475
 4952TIP3   OH236270   3.447   2.672  11.921 -0.5078  0.4398 -0.1618
 4952TIP3    H136271   3.513   2.699  11.857 -0.9348  0.5347 -0.5768
 4952TIP3    H236272   3.490   2.678  12.006  0.2141 -0.1152 -0.4767
 4953TIP3   OH236273   1.066   5.374   2.098 -0.4449  0.1465 -0.2409
 4953TIP3    H136274   1.079   5.280   2.082  1.4160  0.3583 -0.1791
 4953TIP3    H236275   0.990   5.378   2.156 -0.1657 -1.3561  0.2732
 4954TIP3   OH236276   0.588   0.495  13.261 -0.3520  0.3141  0.1456
 4954TIP3    H136277   0.631   0.554  13.199 -0.1759 -1.5175 -1.6049
 4954TIP3    H236278   0.556   0.423  13.207 -0.0253 -1.5006  2.1965
 4955TIP3   OH236279   5.389   4.226   5.369 -0.5558 -0.0159 -0.2589
 4955TIP3    H136280   5.342   4.143   5.370 -1.4605  0.4457 -1.2401
 4955TIP3    H236281   5.359   4.272   5.447 -2.3071  0.5272 -1.1865
 4956TIP3   OH236282   4.034   1.557  11.449  0.3187 -0.2043  0.2129
 4956TIP3    H136283   3.939   1.564  11.460  0.1686 -0.8801 -0.5747
 4956TIP3    H236284   4.070   1.580  11.535 -0.6546 -2.0950  1.1841
 4957TIP3   OH236285   0.823   1.359   2.632  0.0051  0.3864  0.5222
 4957TIP3    H136286   0.783   1.366   2.719 -1.4328  3.2053 -0.2609
 4957TIP3    H236287   0.749   1.358   2.571  1.0147 -0.3464 -0.7467
 4958TIP3   OH236288   4.120   4.542  15.920  0.0704 -0.3557  0.4120
 4958TIP3    H136289   4.026   4.535  15.935 -0.0038  0.5626  0.4475
 4958TIP3    H236290   4.131   4.523  15.827 -0.5241  2.2246 -0.2773
 4959TIP3   OH236291   1.311   0.764   0.337 -0.0077 -0.2623  0.4938
 4959TIP3    H136292   1.233   0.764   0.283 -0.9772 -1.6588  1.8052
 4959TIP3    H236293   1.383   0.778   0.276 -1.1886 -0.0151 -0.8860
 4960TIP3   OH236294   3.015   6.001  17.176  0.0685 -0.2763 -0.1803
 4960TIP3    H136295   2.978   6.014  17.264 -0.2657  0.0044 -0.3612
 4960TIP3    H236296   3.102   6.039  17.181  0.6169 -1.5544  0.4582
 4961TIP3   OH236297   4.372   3.020  13.400 -0.2965 -0.0310 -1.1862
 4961TIP3    H136298   4.440   2.962  13.366 -1.2048 -0.3114 -2.5915
 4961TIP3    H236299   4.420   3.081  13.456  0.7450 -1.8527  0.0184
 4962TIP3   OH236300   2.911   5.797   3.078  0.3361  0.3853  0.5514
 4962TIP3    H136301   2.917   5.705   3.106 -2.3671  0.3045  1.0713
 4962TIP3    H236302   2.952   5.798   2.992  1.2824 -1.0924  0.9444
 4963TIP3   OH236303   2.985   5.827   4.585  0.0599  0.5954 -0.4625
 4963TIP3    H136304   2.971   5.768   4.511 -1.5706 -1.8242  1.6098
 4963TIP3    H236305   3.076   5.811   4.612 -1.0541 -3.3480  1.7576
 4964TIP3   OH236306   5.235   5.638  16.125 -0.9366 -0.2117 -0.2250
 4964TIP3    H136307   5.192   5.583  16.191  0.3348 -0.2548  0.5866
 4964TIP3    H236308   5.211   5.727  16.149 -0.5272 -0.2306  0.2600
 4965TIP3   OH236309   2.113   4.401  16.432 -0.4311  0.2455  0.0802
 4965TIP3    H136310   2.101   4.489  16.468  1.3399 -0.2308  1.9847
 4965TIP3    H236311   2.202   4.402  16.396 -0.1093 -0.9711  0.7966
 4966TIP3   OH236312   0.295   3.738   3.363 -0.1821 -0.0499  0.1420
 4966TIP3    H136313   0.343   3.738   3.445 -0.3856  0.1273  0.2631
 4966TIP3    H236314   0.203   3.730   3.389 -0.3026  0.7106 -0.0361
 4967TIP3   OH236315   6.042   3.121  11.369  0.8011 -0.2043  0.0789
 4967TIP3    H136316   6.035   3.112  11.274 -2.6912 -1.4666  0.3110
 4967TIP3    H236317   5.998   3.204  11.388 -2.0643 -1.7358  0.7334
 4968TIP3   OH236318   5.845   5.883   5.634 -0.5516  0.3979 -0.6061
 4968TIP3    H136319   5.767   5.923   5.594 -0.1586  0.5062 -1.2854
 4968TIP3    H236320   5.845   5.914   5.724 -0.6733  1.3151 -0.9158
 4969TIP3   OH236321   0.106   1.022   2.930 -0.1068  0.2903 -0.0712
 4969TIP3    H136322   0.041   1.088   2.905  1.2427  0.7234 -2.7554
 4969TIP3    H236323   0.125   1.040   3.022 -1.7801  1.8649  0.0119
 4970TIP3   OH236324   5.774   3.281  12.384  0.4940  0.0122 -0.1883
 4970TIP3    H136325   5.724   3.229  12.322 -0.3939  1.0967 -0.4194
 4970TIP3    H236326   5.727   3.365  12.389  0.1457 -0.2560  2.4407
 4971TIP3   OH236327   6.504   1.921  17.164  0.0060  0.0207  0.0930
 4971TIP3    H136328   6.482   1.865  17.090 -1.3447  1.6110 -0.7907
 4971TIP3    H236329   6.549   1.996  17.125  0.3324  0.3187  1.0276
 4972TIP3   OH236330   5.478   4.976  11.935  0.1511 -0.3414 -0.4062
 4972TIP3    H136331   5.421   4.947  11.863 -0.4754  0.7722 -0.3842
 4972TIP3    H236332   5.460   4.915  12.006  1.2837 -1.8964 -1.3716
 4973TIP3   OH236333   6.411   0.422   3.309 -0.0646 -0.4555 -0.7455
 4973TIP3    H136334   6.383   0.345   3.260  1.1662 -1.8529  0.6501
 4973TIP3    H236335   6.350   0.427   3.383 -0.2184  0.0038 -0.8972
 4974TIP3   OH236336   1.250   5.349  12.363  0.8685 -0.2262 -0.0631
 4974TIP3    H136337   1.242   5.256  12.380 -0.6534  0.0843  1.1270
 4974TIP3    H236338   1.298   5.383  12.439  2.9236 -0.2389 -1.2830
 4975TIP3   OH236339   5.215   5.015   0.925  0.6280  0.2558  0.0617
 4975TIP3    H136340   5.125   4.982   0.916 -0.0364  1.3273  2.1545
 4975TIP3    H236341   5.259   4.950   0.980  0.5693  0.6946  0.6290
 4976TIP3   OH236342   0.205   3.359   5.929  0.1725  0.0519  0.4428
 4976TIP3    H136343   0.289   3.387   5.894 -0.0982 -2.0628 -2.1414
 4976TIP3    H236344   0.140   3.397   5.870 -0.6981  0.7770  1.7948
 4977TIP3   OH236345   3.567   5.007  15.164  0.7192  0.4193 -0.0223
 4977TIP3    H136346   3.581   4.979  15.254  3.0373  2.4696  0.3886
 4977TIP3    H236347   3.586   4.930  15.111 -0.0986 -0.6595  1.1966
 4978TIP3   OH236348   3.624   4.756  15.079 -0.3547  0.1833  0.2375
 4978TIP3    H136349   3.564   4.687  15.051  0.2712  0.2437 -1.3823
 4978TIP3    H236350   3.694   4.710  15.126  1.3642 -0.7285 -2.9236
 4979TIP3   OH236351   3.746   5.186  11.454 -0.6088 -0.9959  0.4565
 4979TIP3    H136352   3.759   5.237  11.374 -0.8855 -3.7784 -1.4960
 4979TIP3    H236353   3.790   5.238  11.522  0.7880  0.8814 -1.7052
 4980TIP3   OH236354   4.554   5.892  14.441  0.8042  0.6242  0.5745
 4980TIP3    H136355   4.562   5.959  14.373  1.8889 -1.4149 -1.4599
 4980TIP3    H236356   4.473   5.846  14.420  1.8489 -0.9215 -0.3149
 4981TIP3   OH236357   3.203   3.277  16.417  0.2341 -0.5761 -0.1329
 4981TIP3    H136358   3.208   3.298  16.510 -1.9850  0.3301 -0.1479
 4981TIP3    H236359   3.289   3.302  16.382  1.1369 -1.0176  1.6518
 4982TIP3   OH236360   5.780   3.890  13.556 -0.0054  0.3729  0.5954
 4982TIP3    H136361   5.834   3.825  13.600 -0.6682 -0.7158 -0.1539
 4982TIP3    H236362   5.838   3.928  13.490 -0.1225 -0.7955 -0.2110
 4983TIP3   OH236363   3.224   5.076  12.802 -0.1666  0.3450  0.1896
 4983TIP3    H136364   3.293   5.013  12.783 -0.4792 -0.2762  1.0526
 4983TIP3    H236365   3.262   5.161  12.778  0.3577 -0.1268 -0.7147
 4984TIP3   OH236366   0.780   2.310  16.529  0.3881  0.2552 -0.0529
 4984TIP3    H136367   0.698   2.270  16.556  0.2446  0.2791 -0.4485
 4984TIP3    H236368   0.788   2.290  16.436  1.2755 -0.5169  0.1786
 4985TIP3   OH236369   0.621   4.366  13.485  0.4155  0.7599  0.2231
 4985TIP3    H136370   0.640   4.460  13.478  0.4390  0.6740 -1.2307
 4985TIP3    H236371   0.688   4.324  13.432 -0.1570  0.0034  0.0848
 4986TIP3   OH236372   3.853   4.030   3.535 -0.3497  0.3390  0.1193
 4986TIP3    H136373   3.769   4.032   3.580 -0.5880  1.3193 -0.3358
 4986TIP3    H236374   3.904   3.964   3.581 -1.0633  0.3584  0.9560
 4987TIP3   OH236375   4.223   4.952   4.166 -0.5669 -0.7459  0.8510
 4987TIP3    H136376   4.270   4.925   4.087  2.0868  0.8330  1.7471
 4987TIP3    H236377   4.136   4.914   4.156 -0.0997 -1.3036 -2.4221
 4988TIP3   OH236378   0.738   6.636  14.304 -0.5769 -0.8670 -0.0062
 4988TIP3    H136379   0.650   6.651  14.271 -0.4432  1.8364  0.5931
 4988TIP3    H236380   0.795   6.651  14.229 -0.4371  2.3539  0.6158
 4989TIP3   OH236381   0.481   1.701  11.346 -0.8123  0.6136  0.5983
 4989TIP3    H136382   0.416   1.763  11.379 -0.0821  1.8948 -0.2839
 4989TIP3    H236383   0.500   1.730  11.257  0.6943  0.0545  0.7070
 4990TIP3   OH236384   4.299   3.002   3.649  0.2281  0.3368  0.2821
 4990TIP3    H136385   4.344   2.942   3.708 -1.2993 -0.4898  0.6486
 4990TIP3    H236386   4.332   3.089   3.673  2.2246 -0.2796 -0.0382
 4991TIP3   OH236387   0.538   1.939  14.262  0.2353 -0.0452  0.3526
 4991TIP3    H136388   0.473   1.902  14.202  0.6152  0.9944 -0.7418
 4991TIP3    H236389   0.622   1.912  14.224  0.6099  3.2987 -1.5222
 4992TIP3   OH236390   4.961   3.529   4.418 -0.3718  0.3190  0.0109
 4992TIP3    H136391   4.997   3.533   4.330  0.6736  2.4342  0.4851
 4992TIP3    H236392   4.910   3.609   4.428 -1.7777 -0.6167  0.8366
 4993TIP3   OH236393   4.567   5.960  11.819  0.2028 -0.1675  0.2120
 4993TIP3    H136394   4.607   5.960  11.906 -0.3729 -0.7996  0.4846
 4993TIP3    H236395   4.638   5.986  11.760  1.2034 -1.8240  0.6085
 4994TIP3   OH236396   5.580   6.244  15.224 -0.4107  0.4934  0.1946
 4994TIP3    H136397   5.578   6.327  15.176  4.0918  0.1209 -1.0527
 4994TIP3    H236398   5.612   6.267  15.311 -1.0949  0.2320  0.5277
 4995TIP3   OH236399   0.105   3.825  13.509  0.0017  0.6796 -0.2535
 4995TIP3    H136400   0.191   3.865  13.512  0.6644 -0.6834 -0.2508
 4995TIP3    H236401   0.045   3.897  13.492  0.8277  2.0509  2.2287
 4996TIP3   OH236402   2.813   4.016   3.759 -0.1171  0.3943  0.2512
 4996TIP3    H136403   2.814   4.063   3.842 -0.7956 -0.9124  1.0360
 4996TIP3    H236404   2.733   4.046   3.715  0.5322  1.5028 -0.2018
 4997TIP3   OH236405   3.675   6.220   1.674 -0.1760 -0.2518  0.0188
 4997TIP3    H136406   3.585   6.217   1.708  0.7707 -1.1040  2.6516
 4997TIP3    H236407   3.691   6.313   1.658 -1.7779 -0.1607 -1.3258
 4998TIP3   OH236408   3.814   2.270  15.450 -0.5530  0.9474  0.1634
 4998TIP3    H136409   3.723   2.242  15.437  0.1712 -0.5063 -2.7805
 4998TIP3    H236410   3.820   2.291  15.543 -3.4892 -0.4645  0.7931
 4999TIP3   OH236411   4.716   6.595  16.239 -0.0394  0.0279 -0.1581
 4999TIP3    H136412   4.678   6.667  16.289 -1.4590 -0.2914 -0.7376
 4999TIP3    H236413   4.643   6.535  16.224  1.3287 -2.1866  1.3537
 5000TIP3   OH236414   4.423   6.240   4.167  0.2732  0.1304 -0.1927
 5000TIP3    H136415   4.497   6.240   4.228  1.6917 -0.2857 -1.8398
 5000TIP3    H236416   4.398   6.332   4.160 -0.4336  0.1151  1.5592
 5001TIP3   OH236417   4.664   2.372  17.084 -0.2940  0.4941  0.2623
 5001TIP3    H136418   4.574   2.361  17.114 -0.9876 -0.3456 -1.9350
 5001TIP3    H236419   4.692   2.283  17.060  0.6884  0.9139 -0.2109
 5002TIP3   OH236420   4.781   1.447  14.579  0.4530  0.1980 -0.4558
 5002TIP3    H136421   4.780   1.502  14.657  2.1239 -1.8191  1.0933
 5002TIP3    H236422   4.744   1.364  14.607  1.7039 -0.8054 -1.5953
 5003TIP3   OH236423   3.040   4.867  13.475 -0.4504 -0.0349 -0.2747
 5003TIP3    H136424   3.111   4.847  13.535 -0.2474  1.6487  0.1037
 5003TIP3    H236425   3.010   4.955  13.501 -1.8706 -0.2107 -1.1835
 5004TIP3   OH236426   2.062   0.945  14.298  0.0696  0.4235 -0.2961
 5004TIP3    H136427   2.130   0.882  14.274  0.6810  0.6360  0.7925
 5004TIP3    H236428   2.024   0.910  14.378  0.7810  1.6659  0.6263
 5005TIP3   OH236429   1.444   4.250  10.893  0.0934  0.6313  0.2797
 5005TIP3    H136430   1.401   4.208  10.818 -0.1651  0.1776  0.6746
 5005TIP3    H236431   1.384   4.318  10.921 -0.7766 -0.5364  1.3453
 5006TIP3   OH236432   0.047   1.367   2.236 -0.0760  0.1852  0.2887
 5006TIP3    H136433  -0.004   1.286   2.239  0.7393 -0.3987 -0.8849
 5006TIP3    H236434   0.138   1.339   2.250  0.3939  0.6775 -1.4875
 5007TIP3   OH236435   5.876   1.383   5.394 -0.2369  0.4079 -0.1929
 5007TIP3    H136436   5.943   1.422   5.450 -0.9435  2.6122 -0.8023
 5007TIP3    H236437   5.798   1.437   5.408 -2.0347 -2.1579  0.6240
 5008TIP3   OH236438   2.467   6.025  16.709  0.0591  0.1588  0.7011
 5008TIP3    H136439   2.536   6.084  16.679 -0.2900 -0.9148 -2.6067
 5008TIP3    H236440   2.391   6.082  16.725  0.7938  0.9815  1.3335
 5009TIP3   OH236441   0.556   5.588   3.353  0.0668 -0.1591 -0.1167
 5009TIP3    H136442   0.484   5.553   3.405  0.7975 -0.2153  0.8918
 5009TIP3    H236443   0.514   5.624   3.275 -0.9230 -1.3448 -0.1713
 5010TIP3   OH236444   3.816   4.299  14.203  0.4676 -0.2240  0.6293
 5010TIP3    H136445   3.809   4.278  14.110  1.6128 -1.6442  0.8297
 5010TIP3    H236446   3.737   4.261  14.242  0.3134 -0.2120  0.3294
 5011TIP3   OH236447   3.280   0.187   2.714 -0.4558  0.8963  0.2181
 5011TIP3    H136448   3.199   0.149   2.748  0.3240 -0.4476  0.6222
 5011TIP3    H236449   3.308   0.249   2.782 -0.4388  0.3759  0.6872
 5012TIP3   OH236450   1.509   3.943  11.499  0.0004  0.0759  0.1113
 5012TIP3    H136451   1.581   3.951  11.561  0.6587  2.0056 -0.8229
 5012TIP3    H236452   1.551   3.920  11.416 -0.6405 -0.3642 -0.1025
 5013TIP3   OH236453   6.295   3.416  11.603  0.6743 -0.1798  0.0323
 5013TIP3    H136454   6.269   3.336  11.557  0.1224 -0.2150  0.3945
 5013TIP3    H236455   6.293   3.484  11.536 -0.2219 -0.2095  0.0130
 5014TIP3   OH236456   4.551   2.869  16.009  0.2608 -0.4398  0.3503
 5014TIP3    H136457   4.599   2.849  15.929  1.5109  0.3221  0.8754
 5014TIP3    H236458   4.466   2.827  15.997  0.0621  0.4186 -1.7800
 5015TIP3   OH236459   1.766   5.253   0.404 -0.2186 -0.3580 -0.1020
 5015TIP3    H136460   1.856   5.276   0.429 -0.9284  1.2963  1.1123
 5015TIP3    H236461   1.714   5.328   0.431 -2.0565 -1.5065 -0.3148
 5016TIP3   OH236462   4.849   4.536   0.498 -0.0891  0.6708  0.5750
 5016TIP3    H136463   4.930   4.489   0.474  0.0220  0.9238  0.4481
 5016TIP3    H236464   4.864   4.625   0.468 -0.0882  0.9165  1.2823
 5017TIP3   OH236465   3.163   4.126  15.997 -0.8221 -1.1558  0.1072
 5017TIP3    H136466   3.178   4.079  15.915 -0.3781 -1.0640  0.1312
 5017TIP3    H236467   3.198   4.068  16.065  1.4165 -0.0427 -0.0082
 5018TIP3   OH236468   2.225   5.543  14.795 -0.4671 -0.0029 -0.9378
 5018TIP3    H136469   2.208   5.535  14.889 -0.7250 -0.4347 -1.0160
 5018TIP3    H236470   2.291   5.477  14.776  0.1393  0.5931 -0.9271
 5019TIP3   OH236471   5.820   4.861   1.813  1.0143 -0.0545 -0.1098
 5019TIP3    H136472   5.817   4.907   1.729 -0.2639  1.1088  0.5275
 5019TIP3    H236473   5.908   4.823   1.816  1.0730 -0.1810 -1.9783
 5020TIP3   OH236474   0.856   6.454  14.536 -0.4908  0.2495 -0.2558
 5020TIP3    H136475   0.883   6.536  14.495 -0.1561 -0.1818 -0.9187
 5020TIP3    H236476   0.770   6.472  14.572  0.2973  1.4101  1.1565
 5021TIP3   OH236477   4.083   5.318   3.018  0.2129  0.1641  0.0169
 5021TIP3    H136478   4.061   5.313   3.111  1.3806 -1.1171  0.2391
 5021TIP3    H236479   3.998   5.311   2.974 -0.2402 -0.4681  0.9464
 5022TIP3   OH236480   3.791   2.595  15.356 -0.1396  0.5479 -0.1143
 5022TIP3    H136481   3.793   2.563  15.266 -1.2893 -1.5695  0.5493
 5022TIP3    H236482   3.706   2.568  15.389 -0.9255  3.7371  0.8216
 5023TIP3   OH236483   2.076   3.921   1.008 -0.0626  0.0284  0.3571
 5023TIP3    H136484   2.155   3.882   0.970 -0.6622 -1.1967  0.2976
 5023TIP3    H236485   2.081   3.898   1.101 -0.0074  0.5543  0.4853
 5024TIP3   OH236486   3.861   3.061   4.524 -0.2722  0.6480 -0.2532
 5024TIP3    H136487   3.898   3.016   4.449  1.2268  1.7264 -0.2104
 5024TIP3    H236488   3.805   3.129   4.486 -0.3026  0.5596 -0.3670
 5025TIP3   OH236489   0.422   0.547  12.048 -0.3949 -0.6473  0.2650
 5025TIP3    H136490   0.390   0.612  12.110 -1.9075  0.6995 -1.7900
 5025TIP3    H236491   0.351   0.537  11.984  0.3199 -3.3572 -0.2467
 5026TIP3   OH236492   6.112   6.428   2.740  0.0647  0.8985  0.0230
 5026TIP3    H136493   6.109   6.337   2.711 -2.1997  0.9514 -0.1396
 5026TIP3    H236494   6.127   6.423   2.834  0.0007  0.3576  0.0052
 5027TIP3   OH236495   5.989   0.102   0.940  0.1684  0.7874  0.3766
 5027TIP3    H136496   5.904   0.069   0.969  0.5705  1.6439  2.7541
 5027TIP3    H236497   6.037   0.024   0.913 -1.2499  0.2607 -0.7492
 5028TIP3   OH236498   0.552   2.477  11.328  0.0560  0.0282  0.3938
 5028TIP3    H136499   0.580   2.386  11.342  1.1373  0.3815  0.6335
 5028TIP3    H236500   0.556   2.517  11.415  0.6914  0.5899  0.1179
 5029TIP3   OH236501   5.168   3.861   4.312 -0.4661  0.4640  0.2181
 5029TIP3    H136502   5.234   3.808   4.355 -0.6826  1.6868  2.2168
 5029TIP3    H236503   5.115   3.798   4.263  1.0180 -0.7590  0.1039
 5030TIP3   OH236504   1.353   2.850  13.411 -0.1508  0.1070 -0.6272
 5030TIP3    H136505   1.326   2.905  13.484 -1.8952 -0.3908 -0.8531
 5030TIP3    H236506   1.359   2.762  13.447 -0.9715 -0.1338 -1.0413
 5031TIP3   OH236507   5.420   5.854  13.990  0.0103 -0.1461 -0.0107
 5031TIP3    H136508   5.379   5.844  13.904 -0.3784 -0.7088  0.2386
 5031TIP3    H236509   5.452   5.767  14.012 -0.3145 -0.1073  0.6333
 5032TIP3   OH236510   2.869   5.522   2.983 -0.0633  0.2636 -0.0660
 5032TIP3    H136511   2.836   5.488   3.066  0.1759 -0.5731 -0.3079
 5032TIP3    H236512   2.948   5.471   2.966 -0.5328 -0.1203 -1.1920
 5033TIP3   OH236513   3.149   1.050  11.017 -0.4036  0.4952 -0.4426
 5033TIP3    H136514   3.124   1.095  10.936 -0.9108  0.1166 -0.5017
 5033TIP3    H236515   3.235   1.086  11.039 -0.1697  0.4487 -1.2549
 5034TIP3   OH236516   5.901   5.736   2.186  0.1393 -0.3015  0.0724
 5034TIP3    H136517   5.944   5.796   2.247  0.9263 -0.4797 -0.2932
 5034TIP3    H236518   5.813   5.773   2.174  0.3146  0.2850  0.5339
 5035TIP3   OH236519   1.297   4.779   4.698 -0.2558 -0.0949  0.1321
 5035TIP3    H136520   1.325   4.702   4.649 -0.4463 -0.6487  0.8712
 5035TIP3    H236521   1.350   4.851   4.664  0.4414 -0.6933 -0.0586
 5036TIP3   OH236522   2.319   4.404   2.654  0.2518 -0.2842  0.4716
 5036TIP3    H136523   2.342   4.314   2.677  0.8692 -0.8607 -2.0570
 5036TIP3    H236524   2.368   4.458   2.716  2.6394 -1.6608 -0.0674
 5037TIP3   OH236525   4.584   6.523   2.938 -0.2859 -0.4762  0.4247
 5037TIP3    H136526   4.495   6.495   2.916  0.2799 -2.0727  0.0704
 5037TIP3    H236527   4.580   6.619   2.937 -1.3105 -0.4634 -2.4860
 5038TIP3   OH236528   5.914   1.605   4.268 -0.5066  0.1813  0.0541
 5038TIP3    H136529   5.914   1.661   4.345  0.6989 -1.0091  0.9593
 5038TIP3    H236530   5.980   1.643   4.210 -0.7801  0.5617 -0.0112
 5039TIP3   OH236531   1.923   2.280   3.572  0.8045 -0.1984 -0.4476
 5039TIP3    H136532   1.900   2.320   3.656 -1.0119  0.2682 -1.1206
 5039TIP3    H236533   1.908   2.186   3.585 -0.2349 -0.0388 -0.4788
 5040TIP3   OH236534   4.453   5.268   2.235  0.3893 -0.0979  0.2044
 5040TIP3    H136535   4.473   5.330   2.165  0.0003 -0.6224 -0.3867
 5040TIP3    H236536   4.529   5.272   2.293  0.8556  0.1345 -0.4050
 5041TIP3   OH236537   4.219   2.311   3.254 -0.3283  0.5936 -0.3887
 5041TIP3    H136538   4.272   2.326   3.175  0.5897  0.7017  0.2250
 5041TIP3    H236539   4.129   2.313   3.224  0.0258 -0.0046 -1.5442
 5042TIP3   OH236540   5.699   5.001  16.648  0.2479 -0.1484  0.4041
 5042TIP3    H136541   5.772   5.002  16.587  1.0206 -0.6773  1.2940
 5042TIP3    H236542   5.629   5.049  16.603  0.6086 -0.9849 -1.1024
 5043TIP3   OH236543   5.363   0.331  16.107 -0.2397  0.5191  0.7079
 5043TIP3    H136544   5.292   0.395  16.117 -0.1120  0.7137  0.3900
 5043TIP3    H236545   5.319   0.249  16.085 -0.2441  1.2899 -2.5952
 5044TIP3   OH236546   2.469   0.592  14.276  0.7864 -0.7678  0.0119
 5044TIP3    H136547   2.558   0.594  14.311  0.9363 -1.5862 -0.3000
 5044TIP3    H236548   2.480   0.568  14.184  0.2284 -1.0610  0.0169
 5045TIP3   OH236549   4.976   1.675  14.494  0.0294 -0.7213 -1.2383
 5045TIP3    H136550   4.975   1.731  14.571 -0.0882  0.6859 -2.2245
 5045TIP3    H236551   4.906   1.709  14.438  0.6241 -1.2061 -2.3076
 5046TIP3   OH236552   0.846   4.025   0.222 -0.0837 -0.3714 -0.6759
 5046TIP3    H136553   0.766   3.985   0.255  1.0744 -1.9802  0.3672
 5046TIP3    H236554   0.863   3.980   0.140 -1.1007  1.1694 -1.7839
 5047TIP3   OH236555   0.970   0.419   5.556  0.0108  0.1330  0.0543
 5047TIP3    H136556   0.907   0.353   5.527  0.0597  0.4477 -0.8284
 5047TIP3    H236557   1.000   0.389   5.641 -0.3503 -0.7154 -0.1073
 5048TIP3   OH236558   1.882   4.196  17.076 -0.2227 -0.0856  0.7841
 5048TIP3    H136559   1.889   4.253  16.999 -1.1548  0.2273  0.9171
 5048TIP3    H236560   1.893   4.107  17.041  0.0177  0.0994  0.3864
 5049TIP3   OH236561   2.036   5.360   1.737 -0.3494 -0.3804 -0.3503
 5049TIP3    H136562   2.015   5.272   1.704 -1.5258  0.1297 -1.0251
 5049TIP3    H236563   1.965   5.415   1.704 -1.5444  0.2195  2.9159
 5050TIP3   OH236564   5.689   5.653  16.546  0.2815  0.0171 -0.2461
 5050TIP3    H136565   5.652   5.565  16.538  0.3178  0.0417 -0.7229
 5050TIP3    H236566   5.663   5.683  16.632  1.5741 -1.0737  0.5699
 5051TIP3   OH236567   1.121   3.796   4.361 -0.2399 -0.2260  0.8557
 5051TIP3    H136568   1.071   3.871   4.392 -0.5901 -0.1056  0.0288
 5051TIP3    H236569   1.067   3.720   4.383 -0.1148 -0.2079  1.2422
 5052TIP3   OH236570   1.849   1.810  16.056 -0.1055  0.2429 -0.1871
 5052TIP3    H136571   1.868   1.857  16.137  0.3852 -1.9086  1.0338
 5052TIP3    H236572   1.934   1.782  16.024 -0.4341 -0.5630 -0.3869
 5053TIP3   OH236573   2.231   1.381   1.639  0.0344 -0.7415  0.7337
 5053TIP3    H136574   2.199   1.324   1.569  0.1934  0.6913 -0.5385
 5053TIP3    H236575   2.239   1.323   1.715 -2.3861 -1.8628  0.2259
 5054TIP3   OH236576   0.941   4.522   3.296  0.1298  0.9030  0.2264
 5054TIP3    H136577   0.912   4.598   3.346  0.4106  0.6666  0.7648
 5054TIP3    H236578   0.860   4.473   3.278  0.1692  0.1869  1.8192
 5055TIP3   OH236579   0.664   1.087  17.019  0.4647  0.5699 -0.4885
 5055TIP3    H136580   0.629   1.145  16.951 -0.3783  0.4356 -0.1873
 5055TIP3    H236581   0.632   1.000  16.994  0.7367  0.4185 -0.3022
 5056TIP3   OH236582   6.105   5.227   5.055 -0.0035  0.2128 -0.4323
 5056TIP3    H136583   6.045   5.207   5.127  0.5836  0.7046  0.2024
 5056TIP3    H236584   6.129   5.318   5.068 -0.0504  0.3699 -1.3804
 5057TIP3   OH236585   2.209   5.908   4.348 -0.3197  0.3832  0.1197
 5057TIP3    H136586   2.296   5.947   4.332  0.3479  0.4110  3.1172
 5057TIP3    H236587   2.164   5.973   4.402 -1.5107 -0.4321  0.1325
 5058TIP3   OH236588   5.973   0.967   1.735  0.0599 -0.3365  0.0841
 5058TIP3    H136589   5.985   1.061   1.728 -2.2315 -0.0123 -0.3095
 5058TIP3    H236590   5.987   0.935   1.645  3.0294 -0.7547  0.5958
 5059TIP3   OH236591   3.931   1.794  12.912 -0.3560 -0.1892  0.4354
 5059TIP3    H136592   3.978   1.781  12.994  0.5195  1.1016  0.1715
 5059TIP3    H236593   3.944   1.887  12.891  2.1193 -1.0570 -2.7288
 5060TIP3   OH236594   5.281   4.583  14.612 -0.3346  0.0875  0.1536
 5060TIP3    H136595   5.265   4.598  14.705 -1.0131 -0.7108  0.1742
 5060TIP3    H236596   5.257   4.491  14.598 -1.6356  0.5940 -1.1145
 5061TIP3   OH236597   2.599   3.596   2.848 -0.1159  0.1582 -0.2713
 5061TIP3    H136598   2.679   3.602   2.797  0.2600 -0.9050  0.1685
 5061TIP3    H236599   2.539   3.544   2.794  0.1039 -0.5282  0.1316
 5062TIP3   OH236600   1.075   1.934   5.489 -0.0765  0.1292  0.3425
 5062TIP3    H136601   1.143   1.869   5.510  2.1051  2.1985  0.1035
 5062TIP3    H236602   1.002   1.882   5.456  1.9831 -2.1716 -0.9828
 5063TIP3   OH236603   6.271   5.737   2.942  0.4945 -0.0234  0.0805
 5063TIP3    H136604   6.366   5.743   2.932  1.1547 -0.3860  4.2909
 5063TIP3    H236605   6.255   5.645   2.962 -0.4640  0.3747  1.2057
 5064TIP3   OH236606   6.270   5.673  14.079  0.3539  0.4006  0.0099
 5064TIP3    H136607   6.273   5.597  14.020 -0.6194  0.7268 -0.4925
 5064TIP3    H236608   6.361   5.687  14.105  0.3456 -2.3749  1.9944
 5065TIP3   OH236609   4.855   1.879  12.489  0.6200  0.4878 -0.1051
 5065TIP3    H136610   4.771   1.854  12.526  1.8070 -3.3300  0.4743
 5065TIP3    H236611   4.848   1.859  12.396  0.6063  0.9953 -0.2134
 5066TIP3   OH236612   2.686   0.248   3.375 -0.7026 -0.1808 -0.0774
 5066TIP3    H136613   2.722   0.207   3.297 -1.5679  0.8563 -1.0761
 5066TIP3    H236614   2.622   0.185   3.408  0.7497 -1.2914  0.7297
 5067TIP3   OH236615   3.902   4.262  11.714  0.4262 -0.6024  0.4975
 5067TIP3    H136616   3.905   4.347  11.758  1.1449 -1.0939  1.4532
 5067TIP3    H236617   3.986   4.257  11.667 -0.4963  0.0800 -1.2931
 5068TIP3   OH236618   5.664   4.696   0.503  0.2579  0.7353  0.2024
 5068TIP3    H136619   5.591   4.699   0.441  0.2200  0.5164  0.2348
 5068TIP3    H236620   5.725   4.633   0.465  0.8989  1.6436 -0.3303
 5069TIP3   OH236621   1.459   0.147   0.504 -0.1946 -0.1655 -0.0927
 5069TIP3    H136622   1.454   0.242   0.516 -0.1434  0.0019 -1.3286
 5069TIP3    H236623   1.533   0.134   0.446  0.0828 -1.0097  0.4447
 5070TIP3   OH236624   0.035   5.258   5.610 -0.4909 -0.0623 -0.4701
 5070TIP3    H136625   0.124   5.291   5.622 -0.8574  0.4347  1.0529
 5070TIP3    H236626   0.043   5.164   5.624 -0.6031  0.2828  2.4065
 5071TIP3   OH236627   5.408   5.182   4.385  0.5443 -0.7074 -0.1600
 5071TIP3    H136628   5.451   5.134   4.456 -0.5253 -1.4074  0.0351
 5071TIP3    H236629   5.388   5.115   4.319 -0.5142 -0.4649 -0.1069
 5072TIP3   OH236630   4.004   6.126  11.914 -0.0512  0.6004  0.3604
 5072TIP3    H136631   4.097   6.137  11.936 -0.0694 -0.5026  1.0491
 5072TIP3    H236632   3.967   6.080  11.989 -1.0099  0.4045 -0.2192
 5073TIP3   OH236633   2.504   5.722   2.519  0.5323  0.5770 -0.2406
 5073TIP3    H136634   2.504   5.816   2.503  0.2310  0.8665  1.2755
 5073TIP3    H236635   2.538   5.683   2.438  0.5847  1.9748 -0.9108
 5074TIP3   OH236636   1.049   5.807  14.316  0.3306 -0.0157 -0.6238
 5074TIP3    H136637   1.069   5.842  14.403  0.6778  1.0723 -1.1245
 5074TIP3    H236638   0.992   5.872  14.276 -1.3610 -1.3784 -0.5589
 5075TIP3   OH236639   4.747   5.002  15.358 -0.1506  0.0763  0.1634
 5075TIP3    H136640   4.740   5.001  15.262  0.6232  2.8265 -0.0133
 5075TIP3    H236641   4.657   5.003  15.389 -0.4075 -0.4053 -0.5490
 5076TIP3   OH236642   6.002   6.173   3.190 -0.2977 -0.3799 -0.1451
 5076TIP3    H136643   6.042   6.247   3.145 -0.4096 -0.3676 -0.2253
 5076TIP3    H236644   6.043   6.096   3.150 -1.3065 -0.4100 -1.1637
 5077TIP3   OH236645   4.283   6.515   1.590  0.6257 -0.1153 -0.2107
 5077TIP3    H136646   4.322   6.508   1.677  0.8195  0.9931 -0.1981
 5077TIP3    H236647   4.278   6.609   1.573 -0.6506 -0.2782 -0.8477
 5078TIP3   OH236648   1.410   1.534  16.450 -0.2430  0.1190 -0.1723
 5078TIP3    H136649   1.469   1.601  16.484 -1.0128 -0.4338  2.4520
 5078TIP3    H236650   1.432   1.456  16.500  0.3472 -1.5549 -2.8779
 5079TIP3   OH236651   4.095   0.244   0.506 -0.7946  0.3290 -0.0606
 5079TIP3    H136652   4.156   0.317   0.492 -2.2805  1.8920  1.1143
 5079TIP3    H236653   4.012   0.286   0.528 -1.9530 -1.7403 -0.1969
 5080TIP3   OH236654   5.407   5.588   0.305 -0.1924  0.1085 -0.6588
 5080TIP3    H136655   5.368   5.532   0.372 -0.4454  0.6410 -0.3618
 5080TIP3    H236656   5.501   5.588   0.326 -0.4197  1.3171  0.4979
 5081TIP3   OH236657   1.935   5.150  12.825 -0.1686 -0.9462  0.3663
 5081TIP3    H136658   1.934   5.219  12.759 -0.7371  0.8834  2.1567
 5081TIP3    H236659   1.883   5.079  12.788 -0.9348  0.2439 -0.9306
 5082TIP3   OH236660   2.092   6.631  13.768  0.4609  0.1467 -0.4983
 5082TIP3    H136661   2.111   6.537  13.771  0.2098  0.1063  1.3791
 5082TIP3    H236662   2.138   6.667  13.843  1.1671  1.6817 -1.6268
 5083TIP3   OH236663   3.924   2.443   3.304 -0.6943  0.0086 -0.0213
 5083TIP3    H136664   3.930   2.405   3.391  2.9781 -1.3757 -0.6813
 5083TIP3    H236665   3.976   2.524   3.310 -0.6520  0.0529 -0.8455
 5084TIP3   OH236666   3.782   5.690  14.927 -0.2089  0.1504  0.0063
 5084TIP3    H136667   3.769   5.597  14.946  0.0830  0.1132  0.0209
 5084TIP3    H236668   3.814   5.728  15.008  1.6100 -0.1209 -0.5405
 5085TIP3   OH236669   3.931   4.539  12.338  0.3691 -0.2932 -0.1117
 5085TIP3    H136670   3.967   4.458  12.374  2.6643  0.8938  0.4999
 5085TIP3    H236671   3.930   4.600  12.411  0.8655  0.8785 -1.0365
 5086TIP3   OH236672   5.273   4.881   2.127 -0.6077 -0.3973 -0.3926
 5086TIP3    H136673   5.286   4.924   2.212 -0.3123  1.4149 -1.3104
 5086TIP3    H236674   5.290   4.789   2.144  0.8957  0.1283  1.2204
 5087TIP3   OH236675   0.423   2.998   6.256 -0.2874  0.1477  0.1828
 5087TIP3    H136676   0.506   3.029   6.291 -0.3992 -1.2944  1.8813
 5087TIP3    H236677   0.377   3.078   6.227  0.5069  1.2705  1.8715
 5088TIP3   OH236678   6.562   2.804  12.283 -0.3003 -0.0106  0.1300
 5088TIP3    H136679   6.577   2.772  12.194 -0.7160  0.3847 -0.0886
 5088TIP3    H236680   6.501   2.878  12.272  0.0406  0.3617  0.6927
 5089TIP3   OH236681   0.064   5.686   3.661  0.3170 -0.1677 -0.6715
 5089TIP3    H136682   0.006   5.651   3.728 -0.0711  0.2106 -0.8025
 5089TIP3    H236683   0.049   5.781   3.664  0.8019 -0.0835 -0.8257
 5090TIP3   OH236684   5.691   6.130  10.854 -0.3414 -0.4113  0.3739
 5090TIP3    H136685   5.650   6.216  10.866  0.2916 -0.1952  1.0326
 5090TIP3    H236686   5.785   6.149  10.849 -0.2142 -1.0472  0.2950
 5091TIP3   OH236687   5.463   2.099   5.543 -0.7843 -0.0401  0.0646
 5091TIP3    H136688   5.420   2.103   5.458  1.0537 -0.9935 -0.9622
 5091TIP3    H236689   5.557   2.109   5.524 -0.4497  1.5340  2.1561
 5092TIP3   OH236690   0.936   1.007   0.019 -0.0391  0.4243 -0.0782
 5092TIP3    H136691   0.933   1.050   0.104  0.7176 -0.7820  0.5728
 5092TIP3    H236692   0.880   0.930   0.028 -0.0141  0.3236 -0.6934
 5093TIP3   OH236693   1.710   6.569   1.849 -0.3676  0.0847  0.2172
 5093TIP3    H136694   1.749   6.508   1.787 -0.0080  0.1902  0.3396
 5093TIP3    H236695   1.773   6.574   1.921 -0.3233  0.7103  0.1439
 5094TIP3   OH236696   2.477   2.476   1.695  0.2778 -0.6014  0.4866
 5094TIP3    H136697   2.389   2.508   1.677  0.3861 -0.8031 -0.4878
 5094TIP3    H236698   2.474   2.383   1.670  1.2951 -0.1374 -1.6021
 5095TIP3   OH236699   3.686   1.440   6.198  0.0286 -0.0061  0.1486
 5095TIP3    H136700   3.752   1.371   6.201 -0.2503 -0.2320  2.0538
 5095TIP3    H236701   3.733   1.518   6.168  0.6774 -0.6340 -0.5111
 5096TIP3   OH236702   1.533   2.579  13.533  0.3681 -0.7195  0.0978
 5096TIP3    H136703   1.470   2.615  13.596  0.4004  3.2052 -1.8029
 5096TIP3    H236704   1.616   2.619  13.556  0.8796 -1.1491 -0.9375
 5097TIP3   OH236705   4.546   0.533  12.536  0.1542  0.0947  0.1465
 5097TIP3    H136706   4.453   0.545  12.556  0.3631  2.6882 -0.0953
 5097TIP3    H236707   4.552   0.444  12.503 -2.0506 -0.5113  1.2091
 5098TIP3   OH236708   2.279   2.136   1.754 -0.1173  0.1740 -0.4200
 5098TIP3    H136709   2.238   2.218   1.781  0.6157  0.6191 -0.6325
 5098TIP3    H236710   2.241   2.117   1.669 -1.6826 -0.7060  0.4193
 5099TIP3   OH236711   5.574   4.777  17.231 -0.0634 -0.3228  0.0899
 5099TIP3    H136712   5.663   4.755  17.258 -0.6945 -0.0758  2.6415
 5099TIP3    H236713   5.575   4.873  17.221 -0.2615 -0.2002  1.1389
 5100TIP3   OH236714   3.136   0.399  15.003  0.9594  0.0446  0.0320
 5100TIP3    H136715   3.100   0.390  14.915 -0.3989  0.2717  0.5388
 5100TIP3    H236716   3.128   0.312  15.041 -1.3367  0.5688  0.9439
 5101TIP3   OH236717   6.547   3.907   2.690  0.0638 -0.7771 -0.4218
 5101TIP3    H136718   6.609   3.833   2.686  1.5247  0.3996 -0.5690
 5101TIP3    H236719   6.559   3.942   2.779 -0.9599 -0.9772 -0.1975
 5102TIP3   OH236720   1.415   5.923  12.172  0.3066 -0.0392 -0.3418
 5102TIP3    H136721   1.443   5.833  12.157  0.2997 -0.0815 -0.1069
 5102TIP3    H236722   1.491   5.976  12.149  0.5293 -0.1441  0.1320
 5103TIP3   OH236723   1.309   3.008  13.638  0.3489 -0.2424 -0.0567
 5103TIP3    H136724   1.369   3.073  13.675  1.2926 -0.5448 -1.0054
 5103TIP3    H236725   1.235   3.006  13.699  1.2771  0.1824  1.1205
 5104TIP3   OH236726   0.325   3.005  11.094  0.0593  0.4281 -0.5951
 5104TIP3    H136727   0.364   2.940  11.152  1.5939  1.1143 -0.8121
 5104TIP3    H236728   0.369   2.994  11.010  0.5899  1.9363 -0.5446
 5105TIP3   OH236729   4.058   0.280  11.788  0.5012 -0.3364  0.3541
 5105TIP3    H136730   4.002   0.213  11.749 -0.6299  0.4046  0.6650
 5105TIP3    H236731   4.130   0.290  11.726  0.3395 -1.3560 -0.0184
 5106TIP3   OH236732   4.962   3.701  16.780  0.0039  0.5636  0.3579
 5106TIP3    H136733   4.952   3.639  16.708  1.2672  1.7868 -0.9384
 5106TIP3    H236734   4.938   3.786  16.743 -0.1697  1.1025  1.6412
 5107TIP3   OH236735   5.669   1.379  16.664  0.1731  0.3287  0.5440
 5107TIP3    H136736   5.689   1.463  16.705  1.9701  0.1296  0.1377
 5107TIP3    H236737   5.650   1.401  16.573 -2.1605  0.5731  1.0210
 5108TIP3   OH236738   6.629   4.338   0.822 -0.3529  0.0914  0.4814
 5108TIP3    H136739   6.661   4.427   0.811 -0.6096  0.2168  0.7659
 5108TIP3    H236740   6.692   4.297   0.881  1.8709 -1.0118 -2.3713
 5109TIP3   OH236741   1.898   6.604   2.410  0.4201  0.2540  0.2033
 5109TIP3    H136742   1.863   6.608   2.321 -0.7532 -2.1484  0.4754
 5109TIP3    H236743   1.974   6.547   2.404 -0.6308 -1.2834  0.9693
 5110TIP3   OH236744   2.293   2.508  13.939 -0.7793 -0.2195  0.3414
 5110TIP3    H136745   2.382   2.533  13.962 -0.8707 -0.3120  0.7956
 5110TIP3    H236746   2.256   2.473  14.019 -1.3953  0.2932  0.2901
 5111TIP3   OH236747   1.046   2.437   5.909  0.3814 -0.2582 -0.1985
 5111TIP3    H136748   0.985   2.397   5.972 -0.4998  0.7938 -0.3399
 5111TIP3    H236749   1.070   2.366   5.850  1.5752 -1.3892  1.5591
 5112TIP3   OH236750   5.485   1.476   0.182  0.4369 -0.1087 -0.1206
 5112TIP3    H136751   5.571   1.436   0.169  0.4601  0.3279 -1.5078
 5112TIP3    H236752   5.499   1.569   0.164  0.3043  0.5372  2.7012
 5113TIP3   OH236753   2.508   3.773   5.817  0.4438 -0.5035  0.5029
 5113TIP3    H136754   2.449   3.755   5.889 -0.1840  0.9097  0.3828
 5113TIP3    H236755   2.581   3.820   5.856  0.2605 -0.0285  0.2963
 5114TIP3   OH236756   5.550   6.347  10.872  0.7292 -0.4317 -0.0241
 5114TIP3    H136757   5.604   6.390  10.807  1.2949 -0.9255  0.1083
 5114TIP3    H236758   5.465   6.334  10.829  1.9542 -3.5646 -1.8584
 5115TIP3   OH236759   3.234   2.825  11.925 -0.2150  0.3389  0.7704
 5115TIP3    H136760   3.326   2.800  11.931 -0.6198 -0.9150  2.2436
 5115TIP3    H236761   3.225   2.862  11.837  1.4960 -0.3290  0.2798
 5116TIP3   OH236762   3.884   3.509   0.992 -0.3751 -0.2334  0.6398
 5116TIP3    H136763   3.928   3.571   1.051 -0.1133  0.7765 -0.5792
 5116TIP3    H236764   3.955   3.468   0.943 -0.7123  1.7134 -1.6424
 5117TIP3   OH236765   1.947   5.616  16.042  0.0365 -0.3550  0.2184
 5117TIP3    H136766   1.914   5.535  16.080  0.0554 -0.5361 -0.1505
 5117TIP3    H236767   1.925   5.610  15.949 -0.1110  0.1392  0.2189
 5118TIP3   OH236768   5.271   5.609   3.791 -0.3187  0.3686  0.4616
 5118TIP3    H136769   5.333   5.641   3.726  0.2340 -1.0172  0.2808
 5118TIP3    H236770   5.220   5.686   3.815  0.0169  1.0756 -0.9930
 5119TIP3   OH236771   5.257   6.285  14.373  0.1953  0.0439  0.0288
 5119TIP3    H136772   5.218   6.199  14.384 -1.3090  0.4038 -1.9541
 5119TIP3    H236773   5.345   6.267  14.340 -0.5625 -0.7890 -1.7039
 5120TIP3   OH236774   1.428   2.304   1.449  0.2453 -0.0832 -0.2535
 5120TIP3    H136775   1.358   2.351   1.494  0.0911 -0.7432  0.2201
 5120TIP3    H236776   1.500   2.366   1.444 -0.7397  1.0339 -1.8136
 5121TIP3   OH236777   1.940   6.689  13.298 -0.2114 -0.0340  0.2230
 5121TIP3    H136778   1.847   6.696  13.276 -0.3857  0.1563  0.9872
 5121TIP3    H236779   1.955   6.761  13.359  0.4657 -0.0023  0.0228
 5122TIP3   OH236780   0.247   6.645   0.996  0.0281 -0.0985 -0.2244
 5122TIP3    H136781   0.236   6.652   1.091  1.0728  1.7197 -0.1891
 5122TIP3    H236782   0.315   6.578   0.984  0.6985  0.4662  0.3788
 5123TIP3   OH236783   0.758   5.900   5.436 -0.4625 -0.4388 -0.1894
 5123TIP3    H136784   0.744   5.923   5.528 -2.9027  0.8449 -0.8131
 5123TIP3    H236785   0.781   5.807   5.438  2.1507  0.1137  1.8565
 5124TIP3   OH236786   0.417   5.358   2.599 -0.2057 -0.4062  0.2901
 5124TIP3    H136787   0.332   5.340   2.559 -0.5863 -0.0662  0.9331
 5124TIP3    H236788   0.405   5.440   2.646  0.9808  0.5744 -1.0431
 5125TIP3   OH236789   0.531   5.643  13.001 -0.0883 -0.3950  0.4102
 5125TIP3    H136790   0.625   5.660  13.009 -0.1693 -0.4199  1.5582
 5125TIP3    H236791   0.526   5.553  12.969  0.2844 -0.3717  0.2820
 5126TIP3   OH236792   3.007   1.545   3.061 -0.1552 -0.3572  0.2464
 5126TIP3    H136793   3.063   1.614   3.025 -0.9344 -0.4677 -1.2583
 5126TIP3    H236794   3.035   1.537   3.152 -0.0545  1.9690  0.4872
 5127TIP3   OH236795   2.792   0.815  17.266  0.2087  0.6014  0.0576
 5127TIP3    H136796   2.820   0.873  17.195 -0.2273  1.1306  0.3155
 5127TIP3    H236797   2.727   0.865  17.314  0.0021 -0.0134  0.4305
 5128TIP3   OH236798   0.647   4.663  16.487 -0.3205  0.4412 -0.8121
 5128TIP3    H136799   0.654   4.570  16.508 -0.0902  0.4418 -0.8840
 5128TIP3    H236800   0.613   4.665  16.397  0.1856  0.4195 -1.0063
 5129TIP3   OH236801   4.809   3.976   4.133  0.4765  0.6610 -0.1192
 5129TIP3    H136802   4.758   3.935   4.064  0.2112 -1.5254  1.2662
 5129TIP3    H236803   4.746   4.025   4.185  0.6362  2.0872 -1.2208
 5130TIP3   OH236804   2.844   4.965  11.891  0.2662  0.1246  0.5492
 5130TIP3    H136805   2.830   4.929  11.979 -0.6335  0.8051  0.7042
 5130TIP3    H236806   2.822   5.058  11.899  0.4416  0.2532 -0.3320
 5131TIP3   OH236807   0.365   6.073   5.349  0.3643  0.1031 -0.2579
 5131TIP3    H136808   0.378   6.057   5.443 -1.3765 -2.0050 -0.3061
 5131TIP3    H236809   0.334   5.990   5.314  2.8941  0.2318 -3.1659
 5132TIP3   OH236810   6.504   5.202  12.437  0.5537 -0.1293 -0.1176
 5132TIP3    H136811   6.462   5.125  12.399 -1.6663  0.2509  1.3624
 5132TIP3    H236812   6.576   5.167  12.490 -0.6319 -1.2396  0.7932
 5133TIP3   OH236813   1.216   2.565  11.714  0.4717  0.1763  0.4678
 5133TIP3    H136814   1.197   2.556  11.807  2.3468 -0.7055  0.8099
 5133TIP3    H236815   1.254   2.481  11.689  1.0239  0.7824 -0.8237
 5134TIP3   OH236816   1.563   2.674   1.708 -0.2804 -0.5225 -0.3968
 5134TIP3    H136817   1.643   2.637   1.745 -1.1656 -2.5322 -0.3487
 5134TIP3    H236818   1.524   2.601   1.659 -3.3193 -0.4283  1.6201
 5135TIP3   OH236819   4.167   6.324  16.073  0.1100 -0.6081 -0.1364
 5135TIP3    H136820   4.175   6.364  16.160  1.0987 -3.1359  1.0090
 5135TIP3    H236821   4.198   6.234  16.084  1.2481 -0.7404 -3.3543
 5136TIP3   OH236822   3.574   0.822   5.683 -0.4655 -0.0380 -0.2805
 5136TIP3    H136823   3.524   0.902   5.696 -1.1452 -0.6727  1.3212
 5136TIP3    H236824   3.655   0.850   5.641 -1.1131  1.3401 -0.6689
 5137TIP3   OH236825   1.864   1.767  12.975 -0.2243 -0.0172  0.0410
 5137TIP3    H136826   1.830   1.680  12.951 -1.4928  0.7018 -0.8905
 5137TIP3    H236827   1.808   1.828  12.928  0.9226  1.3136  0.3549
 5138TIP3   OH236828   3.983   5.067   5.679  0.0789  0.2542 -0.0410
 5138TIP3    H136829   3.981   5.083   5.774  0.7511 -0.2219  0.0595
 5138TIP3    H236830   3.948   4.979   5.669 -1.9968  1.0759 -0.4426
 5139TIP3   OH236831   3.479   6.551  17.199  0.4264 -0.4591  0.0662
 5139TIP3    H136832   3.573   6.553  17.214  0.2322 -0.8485  1.4393
 5139TIP3    H236833   3.467   6.483  17.132  1.0077 -1.4572  0.9337
 5140TIP3   OH236834   0.509   5.572   1.286 -0.1647 -0.1023 -0.8524
 5140TIP3    H136835   0.560   5.624   1.224  2.2251  1.6548  2.2190
 5140TIP3    H236836   0.491   5.633   1.358 -3.2607 -1.8253  0.0018
 5141TIP3   OH236837   6.169   1.647   2.204  0.1819  0.5277  0.3942
 5141TIP3    H136838   6.166   1.721   2.264 -0.9298  1.3814 -0.6813
 5141TIP3    H236839   6.108   1.670   2.134  0.2811 -1.1345 -0.2759
 5142TIP3   OH236840   1.278   2.514  14.832 -0.2154 -0.3977  0.0701
 5142TIP3    H136841   1.354   2.555  14.874  0.6731 -2.0972  0.2183
 5142TIP3    H236842   1.310   2.485  14.747 -0.3968 -1.9763  0.5114
 5143TIP3   OH236843   5.619   2.614  11.542  0.1146  0.1362  0.2407
 5143TIP3    H136844   5.554   2.560  11.497 -0.3920  1.2401 -0.3876
 5143TIP3    H236845   5.626   2.575  11.629  1.7479 -2.5727 -0.9828
 5144TIP3   OH236846   4.228   3.613  11.471  0.2282 -0.0003  0.7062
 5144TIP3    H136847   4.160   3.649  11.415  0.2257 -1.6033 -0.3904
 5144TIP3    H236848   4.181   3.583  11.549 -0.4167 -1.3655 -0.1700
 5145TIP3   OH236849   5.106   0.168   6.236 -0.4865  0.2429  0.5335
 5145TIP3    H136850   5.159   0.247   6.243  0.0542  0.0391 -0.9176
 5145TIP3    H236851   5.067   0.157   6.323  0.5847  1.2798  1.1664
 5146TIP3   OH236852   6.476   6.031   1.867  0.0983  0.2042 -0.3598
 5146TIP3    H136853   6.560   6.020   1.912 -0.1092  0.4197  0.0775
 5146TIP3    H236854   6.469   6.126   1.853 -0.7899  0.3520  0.9847
 5147TIP3   OH236855   3.852   4.231   2.299  0.4695 -0.5128 -0.0962
 5147TIP3    H136856   3.808   4.181   2.231 -0.2250  0.5375 -0.4415
 5147TIP3    H236857   3.877   4.166   2.365 -2.4274 -1.0737  0.5948
 5148TIP3   OH236858   3.841   1.933  12.306 -0.1026 -0.7993  0.2395
 5148TIP3    H136859   3.887   1.935  12.390 -2.2202  1.7183  1.4714
 5148TIP3    H236860   3.748   1.941  12.329 -0.7951 -0.5887 -2.3254
 5149TIP3   OH236861   2.187   4.565  14.743  0.2507  0.4062  0.0358
 5149TIP3    H136862   2.239   4.628  14.792  0.0703  0.7157 -0.1667
 5149TIP3    H236863   2.244   4.488  14.735  1.4297  1.3993 -1.7817
 5150TIP3   OH236864   5.304   6.120  13.646  0.0879 -0.0241  0.7940
 5150TIP3    H136865   5.224   6.067  13.645  0.2385 -0.2477  0.4404
 5150TIP3    H236866   5.367   6.069  13.595  1.0120 -0.6993  2.5606
 5151TIP3   OH236867   0.620   6.569   3.486  0.4611  0.8864  0.3189
 5151TIP3    H136868   0.530   6.592   3.465  0.6745  0.8668 -0.6974
 5151TIP3    H236869   0.635   6.604   3.573  0.0142  2.4423 -0.2003
 5152TIP3   OH236870   4.316   6.440  11.654 -0.2608  0.3470  0.2068
 5152TIP3    H136871   4.274   6.372  11.600  1.5049 -1.1791  0.6308
 5152TIP3    H236872   4.398   6.399  11.683  0.4561  2.3869  1.2092
 5153TIP3   OH236873   3.236   3.634  17.332 -0.0301 -0.1418  0.0475
 5153TIP3    H136874   3.321   3.622  17.289  0.0766  0.0821  0.1950
 5153TIP3    H236875   3.194   3.549  17.326  1.0086 -0.8096  1.7369
 5154TIP3   OH236876   0.409   1.583  12.532  0.5434  0.2281 -0.1364
 5154TIP3    H136877   0.440   1.633  12.457  1.4273 -0.8182 -0.4740
 5154TIP3    H236878   0.403   1.493  12.501  0.6522 -0.1717  0.9695
 5155TIP3   OH236879   4.371   3.576   2.338 -0.3028  0.5766 -0.2605
 5155TIP3    H136880   4.428   3.593   2.264 -0.2792 -1.1876 -0.6844
 5155TIP3    H236881   4.300   3.522   2.303 -0.9619  0.7518  0.7449
 5156TIP3   OH236882   3.176   0.880   4.907 -0.1805 -0.7803  0.1802
 5156TIP3    H136883   3.174   0.811   4.973 -1.5531 -0.5792  0.3803
 5156TIP3    H236884   3.233   0.948   4.944 -1.5963 -0.2952  1.5640
 5157TIP3   OH236885   6.702   0.965   5.409 -0.4387  0.1299 -0.0910
 5157TIP3    H136886   6.619   0.975   5.363 -0.8112 -0.1861  0.5043
 5157TIP3    H236887   6.760   0.922   5.346 -0.2610  1.6899 -1.0274
 5158TIP3   OH236888   5.278   4.775   4.198 -0.7533  0.2735 -0.3741
 5158TIP3    H136889   5.212   4.725   4.149 -1.0868 -0.1693  0.5109
 5158TIP3    H236890   5.237   4.860   4.214 -0.5414  0.5165 -1.0759
 5159TIP3   OH236891   0.150   1.298  12.057  0.1011  0.5477  0.6432
 5159TIP3    H136892   0.228   1.340  12.094  1.1286 -1.7639  1.2430
 5159TIP3    H236893   0.165   1.302  11.962  0.5320  0.8536  0.7166
 5160TIP3   OH236894   3.202   4.684  12.903 -0.5836  0.7053 -0.0086
 5160TIP3    H136895   3.285   4.665  12.860 -1.6551 -0.4514 -1.6797
 5160TIP3    H236896   3.181   4.604  12.952 -0.4976  1.1723  0.8139
 5161TIP3   OH236897   4.692   0.198   3.640 -0.3099 -0.0724  0.1105
 5161TIP3    H136898   4.762   0.222   3.700  2.0766 -0.9336 -2.1170
 5161TIP3    H236899   4.671   0.279   3.594 -1.9549  0.5291  1.8293
 5162TIP3   OH236900   6.498   3.456  13.269  0.1029 -0.4131 -0.5636
 5162TIP3    H136901   6.426   3.403  13.303 -1.0364  1.2774 -0.1905
 5162TIP3    H236902   6.505   3.528  13.332  3.8231 -1.7745  0.8458
 5163TIP3   OH236903   1.383   2.902   4.060 -0.8655 -0.2230  0.2446
 5163TIP3    H136904   1.448   2.881   4.127  0.5865  0.0061 -1.0426
 5163TIP3    H236905   1.365   2.818   4.017 -1.1048 -0.2089  0.3128
 5164TIP3   OH236906   6.220   5.434  11.030 -0.1398 -0.4941 -0.2479
 5164TIP3    H136907   6.282   5.505  11.014  0.7691 -0.9034  1.2690
 5164TIP3    H236908   6.271   5.367  11.076 -1.5888 -1.0104  0.6828
 5165TIP3   OH236909   3.267   2.856  14.541  0.1584 -0.5455 -0.2269
 5165TIP3    H136910   3.239   2.781  14.489  2.0064 -1.7098  0.3741
 5165TIP3    H236911   3.362   2.848  14.546  0.2552  0.9532  1.2018
 5166TIP3   OH236912   6.569   6.583   2.760  0.1070  0.3048  0.0373
 5166TIP3    H136913   6.549   6.604   2.668  0.5476  0.8233  0.0518
 5166TIP3    H236914   6.660   6.553   2.758 -0.6256 -2.0824 -0.0340
 5167TIP3   OH236915   1.139   2.463  10.938  0.0817  0.7716  0.3803
 5167TIP3    H136916   1.102   2.485  10.852 -1.1138 -0.1390  0.6415
 5167TIP3    H236917   1.193   2.386  10.921  1.0504  1.4643  0.2001
 5168TIP3   OH236918   0.749   5.788  12.748  0.3941  0.0593 -0.3022
 5168TIP3    H136919   0.804   5.867  12.742 -0.0392  0.4511  0.6720
 5168TIP3    H236920   0.672   5.816  12.797  0.8613 -1.3060  1.2951
 5169TIP3   OH236921   0.552   1.223  17.292  0.0387 -0.1206 -0.2672
 5169TIP3    H136922   0.580   1.168  17.219 -0.3048 -0.5896 -0.0503
 5169TIP3    H236923   0.460   1.240  17.276  0.2385  0.7323 -0.5409
 5170TIP3   OH236924   1.690   0.745   6.004  0.2441  0.1226 -0.0832
 5170TIP3    H136925   1.682   0.676   5.938  1.3815 -0.0944 -0.0140
 5170TIP3    H236926   1.739   0.704   6.075 -1.4778  0.1658  1.1885
 5171TIP3   OH236927   1.289   2.677  17.159 -0.4445 -0.1780  0.0011
 5171TIP3    H136928   1.375   2.698  17.195 -0.4116 -0.2755 -0.0186
 5171TIP3    H236929   1.260   2.602  17.211  0.1530 -1.1238 -1.0031
 5172TIP3   OH236930   2.294   6.174   5.355  0.0092 -0.0082 -0.1660
 5172TIP3    H136931   2.233   6.134   5.293  0.6554 -2.3155  0.5881
 5172TIP3    H236932   2.348   6.102   5.386 -0.9538  0.7552  3.8571
 5173TIP3   OH236933   1.379   6.382  15.328 -0.2868  0.3516  0.0145
 5173TIP3    H136934   1.367   6.472  15.298 -0.9103 -0.3175 -1.8747
 5173TIP3    H236935   1.290   6.347  15.337 -0.0432 -0.5151 -0.7553
 5174TIP3   OH236936   0.373   1.534  16.695  0.6449 -0.4831  0.2961
 5174TIP3    H136937   0.283   1.504  16.709  0.0206  0.5866 -1.2232
 5174TIP3    H236938   0.404   1.483  16.620  0.4385  0.8314 -0.7177
 5175TIP3   OH236939   5.349   1.935  11.105  0.4340 -0.3900 -0.1602
 5175TIP3    H136940   5.398   1.938  11.186  0.4457 -0.1692 -0.1757
 5175TIP3    H236941   5.321   1.843  11.097 -0.1160 -0.2770  0.4206
 5176TIP3   OH236942   3.380   2.187   3.330  0.9119 -0.1098  0.6008
 5176TIP3    H136943   3.321   2.262   3.324  0.6991 -0.3304 -0.3260
 5176TIP3    H236944   3.467   2.224   3.339  0.8556  0.2731 -0.2952
 5177TIP3   OH236945   0.157   6.046   4.762 -0.2355 -0.6493  0.0198
 5177TIP3    H136946   0.231   6.087   4.717 -0.3069  0.8660  1.2037
 5177TIP3    H236947   0.182   5.954   4.769  0.8922 -0.4387 -0.8619
 5178TIP3   OH236948   5.756   6.744  13.203  0.0739  0.0023  0.1133
 5178TIP3    H136949   5.725   6.802  13.133 -0.1735  0.2373  0.4132
 5178TIP3    H236950   5.736   6.656  13.171 -2.7062  0.1870  1.0833
 5179TIP3   OH236951   5.965   5.316  14.965 -0.1297  0.1051 -0.2148
 5179TIP3    H136952   5.973   5.256  15.039  1.1140  2.2598  1.5050
 5179TIP3    H236953   6.050   5.311  14.921 -0.6156 -0.6284 -1.1020
 5180TIP3   OH236954   6.047   0.158   5.576  0.0204  0.4301 -0.7698
 5180TIP3    H136955   6.069   0.066   5.564  1.7972  0.8102 -0.6908
 5180TIP3    H236956   6.019   0.188   5.490 -1.4282 -0.3562 -0.6125
 5181TIP3   OH236957   4.038   1.063  10.379  0.5915  0.5989 -0.1428
 5181TIP3    H136958   4.122   1.051  10.335  1.5161  1.7274  1.2154
 5181TIP3    H236959   3.992   1.127  10.326  0.3967 -0.3115 -1.1107
 5182TIP3   OH236960   1.944   0.562   4.131 -0.1123  0.0236  0.2151
 5182TIP3    H136961   1.934   0.574   4.036  0.0185 -1.9506 -0.0795
 5182TIP3    H236962   1.860   0.526   4.159  0.3719 -0.8406  0.5811
 5183TIP3   OH236963   2.779   0.639   3.628 -0.1966 -0.5863  0.0288
 5183TIP3    H136964   2.700   0.591   3.604 -0.1031 -0.7523  0.0509
 5183TIP3    H236965   2.761   0.729   3.602 -0.2282 -0.7011 -0.3575
 5184TIP3   OH236966   2.273   5.994   2.293 -0.4091 -0.3930  0.5823
 5184TIP3    H136967   2.298   5.915   2.245 -0.7451 -0.1096 -0.0676
 5184TIP3    H236968   2.184   5.977   2.323 -1.7793  0.9403 -2.3094
 5185TIP3   OH236969   4.282   3.699   2.588  0.0435  0.2828 -0.3700
 5185TIP3    H136970   4.344   3.751   2.638 -1.0673  0.7566  0.5712
 5185TIP3    H236971   4.330   3.672   2.510  1.1894  1.2335 -0.0213
 5186TIP3   OH236972   5.782   1.006  14.016  0.0833 -0.1766 -0.1252
 5186TIP3    H136973   5.689   0.985  14.020  0.2326 -0.7350  0.8635
 5186TIP3    H236974   5.804   1.004  13.923 -0.6480 -1.1145 -0.2870
 5187TIP3   OH236975   1.069   1.580  11.921  0.0165  0.1268  0.0573
 5187TIP3    H136976   1.080   1.594  12.015  1.4181 -2.1436  0.2877
 5187TIP3    H236977   1.026   1.660  11.890 -2.1606  0.2227  2.8845
 5188TIP3   OH236978   0.422   0.025  16.317 -0.7441  0.6507  0.3637
 5188TIP3    H136979   0.510   0.059  16.328 -1.0351  1.4478  0.2559
 5188TIP3    H236980   0.409  -0.034  16.392  0.3248 -0.4731 -0.2883
 5189TIP3   OH236981   3.579   0.908   6.249 -0.0050  0.4779 -0.6653
 5189TIP3    H136982   3.567   0.953   6.333 -2.8654  1.3059 -1.4191
 5189TIP3    H236983   3.560   0.816   6.269 -3.1696  1.0071 -0.7607
 5190TIP3   OH236984   3.916   0.277   2.169 -0.5105 -0.0332 -0.1907
 5190TIP3    H136985   3.831   0.302   2.208  0.0738 -1.2322  2.0210
 5190TIP3    H236986   3.981   0.321   2.224  0.3617  1.1974 -2.1028
 5191TIP3   OH236987   2.624   5.755  11.494 -0.6434  0.8571 -0.1474
 5191TIP3    H136988   2.632   5.749  11.399 -1.7288  1.7835 -0.3257
 5191TIP3    H236989   2.534   5.787  11.508 -0.3097  1.2792  1.1566
 5192TIP3   OH236990   5.070   0.330   4.665  0.1521 -0.8074 -0.3115
 5192TIP3    H136991   5.109   0.392   4.602 -2.2471 -0.3190 -1.4643
 5192TIP3    H236992   5.140   0.312   4.727  1.5296  1.6366 -0.9956
 5193TIP3   OH236993   5.617   2.779  12.351  0.1688 -0.1231 -0.0640
 5193TIP3    H136994   5.616   2.725  12.272  0.9124  0.6113 -0.5954
 5193TIP3    H236995   5.709   2.803  12.362  0.0261  0.0422  0.8539
 5194TIP3   OH236996   4.153   4.733  12.051  0.1989 -0.2759  0.4868
 5194TIP3    H136997   4.213   4.690  12.113 -1.2187  1.5537  3.3235
 5194TIP3    H236998   4.209   4.759  11.978  2.8285  0.8186  2.7214
 5195TIP3   OH236999   4.275   0.147  12.101  0.5196 -0.5061  0.1784
 5195TIP3    H137000   4.218   0.188  12.165 -0.0170 -1.0972  0.0914
 5195TIP3    H237001   4.224   0.074  12.066  1.0847 -0.6527 -0.3729
 5196TIP3   OH237002   3.421   0.858  15.790  0.7345 -0.1442  0.1982
 5196TIP3    H137003   3.373   0.776  15.790 -2.1077  1.4076  0.3495
 5196TIP3    H237004   3.494   0.843  15.850  1.1635 -2.9549 -0.9072
 5197TIP3   OH237005   6.220   6.533   1.715 -0.4109 -0.1028  0.6175
 5197TIP3    H137006   6.260   6.518   1.629  0.6589  1.6538  0.7643
 5197TIP3    H237007   6.127   6.513   1.701 -0.4905  1.2945 -1.3013
 5198TIP3   OH237008   5.398   4.453   3.357  0.2181  0.0232  0.4185
 5198TIP3    H137009   5.477   4.500   3.383  0.1468  0.8737 -0.7888
 5198TIP3    H237010   5.389   4.471   3.263 -0.1969 -1.8778  0.0543
 5199TIP3   OH237011   0.957   5.512   3.941  0.0119  0.2739  0.0220
 5199TIP3    H137012   0.928   5.434   3.894  0.6862  0.8328 -1.3787
 5199TIP3    H237013   0.877   5.548   3.979 -0.4540 -0.5543 -0.1382
 5200TIP3   OH237014   2.524   1.784   4.042 -0.1263  0.0283 -0.1160
 5200TIP3    H137015   2.451   1.763   4.100 -0.3471 -0.7794 -0.6792
 5200TIP3    H237016   2.523   1.716   3.976 -0.0487  1.0896 -1.2405
 5201TIP3   OH237017   3.433   5.526  16.143 -0.0856 -0.1114 -0.4737
 5201TIP3    H137018   3.380   5.450  16.120 -0.6778  0.0596  0.2683
 5201TIP3    H237019   3.520   5.507  16.108 -0.5075 -0.6305 -1.2549
 5202TIP3   OH237020   3.765   5.420  12.461 -0.0257  0.5673  0.2014
 5202TIP3    H137021   3.669   5.411  12.465 -0.1345  1.7056  0.5593
 5202TIP3    H237022   3.779   5.513  12.446  1.0004  0.1273 -1.8386
 5203TIP3   OH237023   4.036   4.453   5.847 -0.7541 -0.0990 -0.0999
 5203TIP3    H137024   3.970   4.504   5.800  0.2863  0.0857 -1.4298
 5203TIP3    H237025   3.995   4.367   5.860 -1.7401  0.4179  0.2984
 5204TIP3   OH237026   1.960   6.425  14.169 -0.0768  0.8811 -0.1933
 5204TIP3    H137027   1.913   6.414  14.086  0.5956 -0.7009 -0.4110
 5204TIP3    H237028   1.921   6.360  14.228  1.8400 -0.5740 -0.4268
 5205TIP3   OH237029   3.903   5.304  12.232 -0.8298 -0.7618  0.0101
 5205TIP3    H137030   3.872   5.352  12.154  1.0821  0.9854  0.2466
 5205TIP3    H237031   3.883   5.362  12.305  2.0811  0.0877  0.2548
 5206TIP3   OH237032   1.460   0.650   6.582  0.5103  0.2373  0.0585
 5206TIP3    H137033   1.389   0.588   6.566  1.6038 -0.3641 -3.2059
 5206TIP3    H237034   1.540   0.598   6.573  1.4404  1.3561  1.4016
 5207TIP3   OH237035   3.065   2.592  10.874 -0.2270 -0.3364  0.0587
 5207TIP3    H137036   3.140   2.651  10.885  0.1447 -0.6665 -0.6459
 5207TIP3    H237037   3.013   2.631  10.804 -0.3343 -0.4839  0.0553
 5208TIP3   OH237038   4.193   5.808  15.993 -0.7809  0.3526  0.6767
 5208TIP3    H137039   4.270   5.810  16.051 -1.0908  1.6206  1.0787
 5208TIP3    H237040   4.155   5.896  16.001 -1.0208  0.4641 -1.2046
 5209TIP3   OH237041   1.813   4.690   5.964  0.0632 -0.6016  0.2394
 5209TIP3    H137042   1.814   4.623   6.031  1.0344 -0.9395 -0.0965
 5209TIP3    H237043   1.905   4.714   5.952 -0.2394  0.5648  0.1302
 5210TIP3   OH237044   1.579   5.134   4.380  0.2860  0.1487 -0.3019
 5210TIP3    H137045   1.535   5.096   4.455  1.2225 -1.5732 -0.5652
 5210TIP3    H237046   1.508   5.161   4.322 -0.4581  1.8677  1.3090
 5211TIP3   OH237047   2.561   5.467   1.650 -0.6682  0.0871  0.1034
 5211TIP3    H137048   2.631   5.525   1.621  0.9345 -0.6912  2.1423
 5211TIP3    H237049   2.482   5.502   1.609  0.8897  0.8557 -2.5054
 5212TIP3   OH237050   6.663   1.872  12.610 -0.2569 -0.2950 -0.2130
 5212TIP3    H137051   6.654   1.911  12.523 -0.0153 -0.5522 -0.3573
 5212TIP3    H237052   6.724   1.930  12.656  0.6704 -0.8773 -0.6685
 5213TIP3   OH237053   6.417   6.170  11.667  0.2411  0.6057  0.4588
 5213TIP3    H137054   6.384   6.098  11.721  0.1230  0.8128  0.6623
 5213TIP3    H237055   6.340   6.224  11.651  0.3376  0.7047  0.3323
 5214TIP3   OH237056   2.883   3.936  16.169 -0.2496  0.2182 -0.4962
 5214TIP3    H137057   2.816   4.001  16.190 -0.0884 -0.0234  0.9290
 5214TIP3    H237058   2.838   3.872  16.114 -0.9137  0.5944 -0.4019
 5215TIP3   OH237059   6.356   2.342  14.359  0.2732 -0.4356  0.4568
 5215TIP3    H137060   6.387   2.269  14.412 -0.3935 -1.7295 -0.8690
 5215TIP3    H237061   6.309   2.301  14.286  1.0152  1.2535 -1.0572
 5216TIP3   OH237062   0.682   0.552   4.031  0.6191 -0.0743  0.5503
 5216TIP3    H137063   0.758   0.599   4.065  0.9651 -0.7018  0.6662
 5216TIP3    H237064   0.620   0.549   4.104  0.3719  0.6722  0.3721
 5217TIP3   OH237065   2.570   0.007   3.503  0.2698 -0.3980  0.3478
 5217TIP3    H137066   2.564  -0.062   3.436 -0.1709  0.3954 -0.4636
 5217TIP3    H237067   2.495  -0.009   3.560 -0.3580 -0.0667 -0.3663
 5218TIP3   OH237068   3.745   3.495   0.656 -0.0144  0.4371  0.1466
 5218TIP3    H137069   3.742   3.586   0.687 -0.5930  0.7277 -0.7406
 5218TIP3    H237070   3.711   3.499   0.567  0.8912 -0.5105 -0.2509
 5219TIP3   OH237071   1.920   0.170  16.027 -0.0637 -0.7425  0.0424
 5219TIP3    H137072   1.975   0.236  15.983 -0.4046 -0.3954  0.1291
 5219TIP3    H237073   1.873   0.127  15.955  0.4096 -1.1303 -0.0440
 5220TIP3   OH237074   0.016   5.267  17.376 -0.0871 -0.2947  0.3573
 5220TIP3    H137075   0.069   5.248  17.299 -1.6159  0.4857 -0.9422
 5220TIP3    H237076   0.038   5.358  17.398  0.1421 -0.4258  0.6695
 5221TIP3   OH237077   0.038   4.135  14.482  0.1950  0.2084  0.1237
 5221TIP3    H137078  -0.045   4.165  14.446  0.1033 -0.8526 -0.5938
 5221TIP3    H237079   0.014   4.087  14.561  0.4679  3.4212  2.3459
 5222TIP3   OH237080   3.502   3.830  12.274 -0.8468  0.0882 -0.1375
 5222TIP3    H137081   3.524   3.923  12.265 -1.6916  0.3072  0.0043
 5222TIP3    H237082   3.587   3.786  12.277 -0.4149  0.9529  0.8764
 5223TIP3   OH237083   5.203   2.807   5.139 -0.4130  0.0977 -0.3416
 5223TIP3    H137084   5.209   2.737   5.075 -0.9712 -0.6729  0.4195
 5223TIP3    H237085   5.114   2.841   5.129  0.0316  1.0876 -1.0844
 5224TIP3   OH237086   0.524   3.032  10.881  0.6470  0.3519  0.1370
 5224TIP3    H137087   0.616   3.009  10.870  1.0133  2.1540 -0.9180
 5224TIP3    H237088   0.525   3.119  10.920 -0.6307  0.0667  0.8723
 5225TIP3   OH237089   1.643   4.066  14.086 -0.5470  0.1488 -0.1449
 5225TIP3    H137090   1.572   4.012  14.050 -1.8159  3.5629 -3.4211
 5225TIP3    H237091   1.712   4.062  14.020  1.3571 -1.1030  1.8223
 5226TIP3   OH237092   5.562   4.356  11.284 -0.2774  0.4278  0.5957
 5226TIP3    H137093   5.637   4.297  11.291 -0.5532 -0.2347 -1.3787
 5226TIP3    H237094   5.588   4.434  11.333  0.5303 -0.8779  2.3453
 5227TIP3   OH237095   3.624   5.685   0.774  0.3770  0.0419 -0.2354
 5227TIP3    H137096   3.654   5.756   0.717  0.9340 -0.3998 -0.4948
 5227TIP3    H237097   3.595   5.730   0.854  0.4530  0.5838 -0.5061
 5228TIP3   OH237098   6.488   1.031   5.242 -0.5797 -0.0759  0.2070
 5228TIP3    H137099   6.400   1.064   5.262 -0.4190 -0.2414  1.2133
 5228TIP3    H237100   6.527   1.098   5.186 -1.5780 -0.3052 -0.8150
 5229TIP3   OH237101   4.137   6.653  14.033 -0.3696 -0.1090  0.1496
 5229TIP3    H137102   4.116   6.590  13.965  0.6619  0.2503 -0.5273
 5229TIP3    H237103   4.233   6.654  14.037 -0.3909  0.6108  0.9004
 5230TIP3   OH237104   2.618   2.110  14.105  0.9958 -0.3087 -1.0000
 5230TIP3    H137105   2.583   2.081  14.189 -0.6922 -1.2831 -1.9805
 5230TIP3    H237106   2.647   2.200  14.122 -0.3290 -0.0846  0.3612
 5231TIP3   OH237107   1.760   1.399   1.739  0.6539 -0.3427 -0.2105
 5231TIP3    H137108   1.782   1.435   1.654  0.0551 -1.1394 -0.7204
 5231TIP3    H237109   1.667   1.419   1.751  0.9737  0.6997  0.7459
 5232TIP3   OH237110   0.716   5.496   5.916 -0.4236 -0.5259 -0.0022
 5232TIP3    H137111   0.719   5.506   5.821 -2.5987  2.0075  0.0942
 5232TIP3    H237112   0.637   5.444   5.932  0.5615 -1.9628  0.4447
 5233TIP3   OH237113   0.304   3.577  16.583  0.3590 -0.1566  0.4271
 5233TIP3    H137114   0.311   3.495  16.534  1.4705 -0.0422  0.3803
 5233TIP3    H237115   0.214   3.576  16.618 -1.4395  0.9335 -3.6488
 5234TIP3   OH237116   0.966   5.708   2.301 -0.5847 -0.4116  0.2064
 5234TIP3    H137117   1.058   5.723   2.279 -0.9362  0.1616 -0.9688
 5234TIP3    H237118   0.918   5.776   2.253 -1.6745 -1.0673  0.3252
 5235TIP3   OH237119   3.835   6.167   3.886  0.8570  0.2431 -0.2675
 5235TIP3    H137120   3.769   6.132   3.826  1.1774 -0.9747  0.0445
 5235TIP3    H237121   3.791   6.170   3.971  1.0947 -0.2720 -0.1201
 5236TIP3   OH237122   1.066   3.819  16.573 -0.4514  0.4176  0.0305
 5236TIP3    H137123   1.143   3.773  16.606 -0.5782  0.2631  0.1126
 5236TIP3    H237124   1.098   3.905  16.548 -0.1324  0.1658 -0.4618
 5237TIP3   OH237125   4.999   2.482  16.362 -0.3653 -0.8380  0.0130
 5237TIP3    H137126   4.990   2.397  16.319  1.2879 -0.4431 -1.2341
 5237TIP3    H237127   5.087   2.480  16.399  0.4048  0.9494 -1.5790
 5238TIP3   OH237128   1.368   3.145   3.731 -0.1238 -0.3531 -0.1050
 5238TIP3    H137129   1.416   3.068   3.761 -0.3904 -0.0472  1.1363
 5238TIP3    H237130   1.415   3.173   3.652  2.0857  0.2538  1.3349
 5239TIP3   OH237131   6.620   6.034   4.004  0.5752 -0.4739 -0.2617
 5239TIP3    H137132   6.577   5.999   4.082  0.6247  1.4904  0.7022
 5239TIP3    H237133   6.549   6.072   3.953  0.7143 -0.4723 -0.4535
 5240TIP3   OH237134   5.699   0.952   2.877 -0.3771 -0.4428 -0.0946
 5240TIP3    H137135   5.787   0.968   2.913  0.2666 -0.7839 -1.4209
 5240TIP3    H237136   5.709   0.869   2.829 -1.7180 -1.0358  0.6080
 5241TIP3   OH237137   0.218   1.236  11.489  0.3622  0.4936 -0.7508
 5241TIP3    H137138   0.143   1.198  11.442  0.0249  0.8426 -0.5074
 5241TIP3    H237139   0.248   1.307  11.432 -0.0953  0.9663 -0.4086
 5242TIP3   OH237140   5.062   5.201  16.228 -0.4213 -0.1284  0.2953
 5242TIP3    H137141   5.125   5.135  16.256 -2.4130 -3.4441 -2.2877
 5242TIP3    H237142   5.083   5.216  16.136  0.2183  3.4018  0.8473
 5243TIP3   OH237143   1.419   5.969  15.190 -0.1658  0.1663  0.1921
 5243TIP3    H137144   1.399   6.029  15.118  1.4293 -1.0812 -1.3876
 5243TIP3    H237145   1.513   5.980  15.205 -0.0670 -1.0924  0.6368
 5244TIP3   OH237146   5.354   4.913  15.711 -0.1095  0.2210  0.4991
 5244TIP3    H137147   5.282   4.927  15.773  0.5405 -0.4125  1.4307
 5244TIP3    H237148   5.350   4.819  15.690  0.8307  0.0308  1.0891
 5245TIP3   OH237149   4.531   5.639   3.371  0.1051  0.4985  0.2914
 5245TIP3    H137150   4.518   5.596   3.455  1.9293  1.8003  1.3355
 5245TIP3    H237151   4.559   5.569   3.312 -0.3652 -0.2910  0.9821
 5246TIP3   OH237152   4.828   0.599   5.609  0.0004 -0.0514 -0.0965
 5246TIP3    H137153   4.849   0.630   5.698  0.9285  1.1872 -0.7089
 5246TIP3    H237154   4.735   0.576   5.613 -0.2005  0.8268  0.9864
 5247TIP3   OH237155   4.373   0.897   3.550 -0.0788 -0.1003  0.1352
 5247TIP3    H137156   4.464   0.924   3.562  0.1534 -0.6949 -0.2420
 5247TIP3    H237157   4.379   0.808   3.515 -0.8084 -0.1968  0.2492
 5248TIP3   OH237158   5.914   2.184  14.356 -0.1071  0.2750  0.0731
 5248TIP3    H137159   5.844   2.141  14.405  0.3116 -1.2187 -0.5586
 5248TIP3    H237160   5.982   2.116  14.347  0.9345  1.3209 -0.3071
 5249TIP3   OH237161   5.843   3.515   0.731  0.2184  0.3438  0.8654
 5249TIP3    H137162   5.837   3.455   0.657  2.3284  2.6701 -1.3975
 5249TIP3    H237163   5.753   3.546   0.744 -0.0639  0.6364 -1.4549
 5250TIP3   OH237164   6.255   5.569   5.626  0.1172 -0.1236  0.1787
 5250TIP3    H137165   6.260   5.595   5.534 -0.7075 -1.6255 -0.3372
 5250TIP3    H237166   6.176   5.612   5.659  1.0602  1.3851  0.5538
 5251TIP3   OH237167   0.952   6.144   4.413 -0.1620  0.3650  0.5781
 5251TIP3    H137168   0.891   6.087   4.366  0.9518 -0.8060  0.4811
 5251TIP3    H237169   0.898   6.216   4.444 -1.2679  0.2748 -0.9785
 5252TIP3   OH237170   3.041   3.085  11.304 -0.3755  0.0590  0.0644
 5252TIP3    H137171   3.038   3.080  11.208  0.3586 -0.7084  0.0662
 5252TIP3    H237172   3.071   2.998  11.331 -1.3183  0.0189  1.0384
 5253TIP3   OH237173   2.290   3.234   2.445 -0.3541 -0.0875 -0.1386
 5253TIP3    H137174   2.285   3.139   2.441  0.5941 -0.1102 -1.5321
 5253TIP3    H237175   2.328   3.252   2.531  1.1899 -1.0920 -0.5533
 5254TIP3   OH237176   0.761   3.823   5.473 -0.1089 -0.6676  0.1048
 5254TIP3    H137177   0.801   3.907   5.495 -1.0950 -0.0009 -0.5399
 5254TIP3    H237178   0.696   3.808   5.541  0.4614 -1.2047  0.5403
 5255TIP3   OH237179   4.156   6.308   3.811  0.2592  0.1452 -0.2500
 5255TIP3    H137180   4.193   6.352   3.887  3.0894 -1.7521 -0.3790
 5255TIP3    H237181   4.109   6.377   3.764 -0.6355  1.6208  2.5529
 5256TIP3   OH237182   6.246   1.059   2.811  0.1244 -0.0029 -0.4370
 5256TIP3    H137183   6.198   1.141   2.819  1.1733  0.7574 -1.6546
 5256TIP3    H237184   6.231   1.031   2.721 -0.2466 -1.1808 -0.0244
 5257TIP3   OH237185   4.304   4.301  15.726 -0.5136  0.3667  0.8352
 5257TIP3    H137186   4.263   4.374  15.679  0.1511  0.2229  0.0128
 5257TIP3    H237187   4.377   4.275  15.671 -0.7464 -0.9404  1.1106
 5258TIP3   OH237188   0.301   3.584  15.666  0.1324 -0.5331 -0.3707
 5258TIP3    H137189   0.323   3.520  15.734 -1.6783 -1.0195 -0.1673
 5258TIP3    H237190   0.249   3.534  15.603 -0.5399  0.5221 -0.6820
 5259TIP3   OH237191   0.404   2.564   0.757  0.0247  0.2943 -0.2162
 5259TIP3    H137192   0.369   2.646   0.791 -0.4864 -0.0209  0.0294
 5259TIP3    H237193   0.327   2.515   0.729 -0.0068 -1.3928  2.4631
 5260TIP3   OH237194   4.194   3.641   5.467 -0.0427 -0.0148 -0.6853
 5260TIP3    H137195   4.168   3.721   5.514 -1.8490 -0.5410 -0.7197
 5260TIP3    H237196   4.137   3.573   5.502 -1.2633 -0.5004 -3.3671
 5261TIP3   OH237197   6.200   4.552   0.240 -0.1556 -0.2100  0.2336
 5261TIP3    H137198   6.257   4.629   0.232  0.5722 -0.8917 -1.4775
 5261TIP3    H237199   6.181   4.547   0.334  0.5917  1.4688  0.5158
 5262TIP3   OH237200   0.796   0.121  13.715 -0.0895 -0.0476 -0.1778
 5262TIP3    H137201   0.704   0.132  13.738 -0.5701 -3.9652  0.5278
 5262TIP3    H237202   0.799   0.135  13.620 -1.4170  0.1500 -0.2077
 5263TIP3   OH237203   1.839   1.289  15.468 -0.2036 -0.0244 -0.1881
 5263TIP3    H137204   1.899   1.316  15.538  0.5686 -3.9546  0.9272
 5263TIP3    H237205   1.897   1.260  15.397 -0.9869  2.5596 -2.0439
 5264TIP3   OH237206   3.421   0.469  11.343  0.2249 -0.1685 -0.2086
 5264TIP3    H137207   3.451   0.418  11.268 -1.9545 -1.7162 -0.1254
 5264TIP3    H237208   3.425   0.560  11.314 -0.8261 -0.7368 -2.3210
 5265TIP3   OH237209   4.826   0.032   1.822 -0.1203 -0.5893  0.5150
 5265TIP3    H137210   4.860   0.093   1.757 -1.5285 -1.3711 -1.0024
 5265TIP3    H237211   4.772  -0.030   1.773 -1.4178 -1.0983  2.4372
 5266TIP3   OH237212   0.550   2.985   5.511  0.1952  0.3368  0.5544
 5266TIP3    H137213   0.473   2.935   5.538 -0.4391  0.4095 -1.0174
 5266TIP3    H237214   0.581   3.026   5.591 -0.6810 -0.6684  1.4390
 5267TIP3   OH237215   0.985   4.779   1.715  0.0104  0.2318  0.6055
 5267TIP3    H137216   0.965   4.765   1.623 -1.3539 -0.5900  0.9913
 5267TIP3    H237217   1.043   4.707   1.739 -0.1933  0.0504  0.5551
 5268TIP3   OH237218   4.780   2.671   4.811 -0.5615  0.4979 -0.1626
 5268TIP3    H137219   4.761   2.731   4.884  1.5916  1.1948 -0.1169
 5268TIP3    H237220   4.713   2.692   4.746 -0.7105  1.9989  0.4145
 5269TIP3   OH237221   1.938   0.107   3.790 -0.0750  0.2877 -0.1383
 5269TIP3    H137222   1.990   0.154   3.726 -0.6644 -0.1565 -0.9652
 5269TIP3    H237223   1.990   0.109   3.871  0.9516  0.3315 -0.7882
 5270TIP3   OH237224   2.688   0.244  10.566  1.0604 -0.3873 -0.0362
 5270TIP3    H137225   2.668   0.152  10.584 -0.3630 -0.5837 -2.2966
 5270TIP3    H237226   2.768   0.241  10.513  1.5584 -0.2278  0.6864
 5271TIP3   OH237227   5.591   5.371  15.861 -0.2526  0.6106  0.3441
 5271TIP3    H137228   5.539   5.320  15.923 -0.6447  2.0304  1.2223
 5271TIP3    H237229   5.668   5.398  15.911  1.7204 -1.9224 -1.0810
 5272TIP3   OH237230   1.775   3.738  16.078 -0.0505  0.3646  0.1666
 5272TIP3    H137231   1.726   3.664  16.114 -0.0363  0.4909  0.4483
 5272TIP3    H237232   1.842   3.698  16.022  0.9451  0.0833  1.5107
 5273TIP3   OH237233   4.192   5.831   0.577 -0.1242  0.1294  0.1680
 5273TIP3    H137234   4.253   5.870   0.639 -2.0889  1.5785  1.3321
 5273TIP3    H237235   4.144   5.766   0.628  0.1774 -0.7113 -0.6087
 5274TIP3   OH237236   0.668   5.056  14.246 -0.9573  0.2907  0.4787
 5274TIP3    H137237   0.711   4.996  14.307  0.8347  0.6199 -0.4015
 5274TIP3    H237238   0.577   5.025  14.243  0.1825 -3.4088 -1.1085
 5275TIP3   OH237239   1.443   6.291   3.769  0.5060  0.7639 -0.2078
 5275TIP3    H137240   1.532   6.263   3.790  0.5957  0.9480 -0.3350
 5275TIP3    H237241   1.446   6.309   3.675  0.7626  2.3038  0.0673
 5276TIP3   OH237242   6.685   3.123  15.036  0.1842 -0.2743  0.2067
 5276TIP3    H137243   6.633   3.189  14.989 -1.0419 -0.4772  1.2155
 5276TIP3    H237244   6.768   3.119  14.988  0.0784  1.5954 -0.1950
 5277TIP3   OH237245   2.175   4.653   5.640 -0.5644 -0.0255 -0.0945
 5277TIP3    H137246   2.234   4.660   5.716 -2.6680 -0.3200  1.6665
 5277TIP3    H237247   2.211   4.581   5.589  0.1559 -0.7211  1.3368
 5278TIP3   OH237248   5.608   4.243   3.457 -0.5112 -0.1263  0.2416
 5278TIP3    H137249   5.663   4.184   3.405 -1.0709  0.3102 -0.8660
 5278TIP3    H237250   5.605   4.324   3.407 -0.0062  0.7762  1.5933
 5279TIP3   OH237251   1.296   1.654   3.680  0.5447 -0.4872 -0.1575
 5279TIP3    H137252   1.362   1.655   3.749  0.5432 -1.8381 -0.1030
 5279TIP3    H237253   1.243   1.732   3.697  2.2012  0.7403 -0.3153
 5280TIP3   OH237254   3.363   1.730   5.819  0.2274  0.1628  0.3938
 5280TIP3    H137255   3.451   1.743   5.783  0.3321 -2.4078 -0.4995
 5280TIP3    H237256   3.305   1.741   5.744 -0.1567  0.9295  0.7911
 5281TIP3   OH237257   5.794   5.535  14.113 -0.5178 -0.2207 -0.0394
 5281TIP3    H137258   5.822   5.448  14.083  0.2305  0.1993 -0.5781
 5281TIP3    H237259   5.824   5.539  14.204  0.3654 -0.1419 -0.3205
 5282TIP3   OH237260   5.004   1.416   3.033  0.2909 -0.2425 -0.2746
 5282TIP3    H137261   5.041   1.464   2.959  0.7736 -0.5795 -0.2536
 5282TIP3    H237262   4.914   1.395   3.006  0.3068  0.0599 -0.5633
 5283TIP3   OH237263   5.969   6.733  15.977 -0.3334 -0.5293 -0.6641
 5283TIP3    H137264   6.046   6.767  16.022 -0.8325 -0.8270  0.4652
 5283TIP3    H237265   5.988   6.641  15.961 -1.1785 -1.1349  1.4121
 5284TIP3   OH237266   2.898   0.996   6.120 -0.0414 -0.6483 -0.2125
 5284TIP3    H137267   2.830   1.013   6.185  0.3151  1.9153 -0.4152
 5284TIP3    H237268   2.974   1.046   6.151  1.0372 -1.6335 -1.1731
 5285TIP3   OH237269   5.955   3.630   4.862 -0.4689  0.1484  0.2011
 5285TIP3    H137270   6.003   3.619   4.944 -1.1407  0.1860  0.6112
 5285TIP3    H237271   5.867   3.657   4.890 -0.4172  1.1399 -0.5698
 5286TIP3   OH237272   0.924   3.341   3.777  0.4808  0.1095 -0.8032
 5286TIP3    H137273   0.831   3.322   3.762 -0.0919  1.3848  0.7779
 5286TIP3    H237274   0.955   3.269   3.831 -0.0879  0.5472  0.1427
 5287TIP3   OH237275   1.019   2.996   3.489  0.7447  0.1763  0.4551
 5287TIP3    H137276   0.972   2.937   3.548  0.6180 -1.6767 -1.3898
 5287TIP3    H237277   1.108   2.963   3.489  0.7196  0.0969 -0.4467
 5288TIP3   OH237278   1.089   0.323  14.286  0.6306  0.1199  0.0982
 5288TIP3    H137279   1.011   0.301  14.337 -1.8146  0.4584 -3.1529
 5288TIP3    H237280   1.101   0.417  14.298  0.5954  0.0552  0.6518
 5289TIP3   OH237281   0.311   4.606  12.050 -0.1186  0.3140  0.1763
 5289TIP3    H137282   0.325   4.699  12.069  0.6611 -0.0967  1.8420
 5289TIP3    H237283   0.337   4.596  11.958 -0.2972  1.7424 -0.0504
 5290TIP3   OH237284   4.495   2.330  11.990 -0.4585 -0.2005 -0.0334
 5290TIP3    H137285   4.403   2.341  11.964 -0.3437  0.1568 -0.3135
 5290TIP3    H237286   4.522   2.247  11.950 -0.3037  0.3163 -1.0362
 5291TIP3   OH237287   1.098   0.538   4.948  0.5795 -0.3803  0.9591
 5291TIP3    H137288   1.003   0.527   4.944  0.4435  0.8424  0.3084
 5291TIP3    H237289   1.122   0.510   5.036 -0.6062  0.6909  1.6592
 5292TIP3   OH237290   6.634   6.129  12.290  0.2331 -0.2625 -0.1215
 5292TIP3    H137291   6.560   6.095  12.341 -0.3557 -0.6210 -1.1823
 5292TIP3    H237292   6.658   6.058  12.232  1.2294 -0.0354 -0.0141
 5293TIP3   OH237293   1.036   4.647  11.875  0.6832 -0.1305  0.2187
 5293TIP3    H137294   1.013   4.558  11.903 -0.9283 -0.5721 -2.1766
 5293TIP3    H237295   1.042   4.697  11.956  2.1068 -2.4844  1.6710
 5294TIP3   OH237296   4.648   2.892  14.921  0.0436  0.2421 -0.1239
 5294TIP3    H137297   4.722   2.835  14.902  0.3844  0.8358 -0.6163
 5294TIP3    H237298   4.664   2.923  15.011  1.1596  1.4757 -0.7096
 5295TIP3   OH237299   3.784   5.355   1.263  0.2539  0.3776  0.2467
 5295TIP3    H137300   3.848   5.420   1.237  0.6308 -0.5595 -1.2672
 5295TIP3    H237301   3.705   5.377   1.212 -0.1276  0.5801  0.9120
 5296TIP3   OH237302   1.368   3.531   3.235  0.7902  0.1931 -0.2257
 5296TIP3    H137303   1.411   3.460   3.282 -0.6530  0.6211  1.8883
 5296TIP3    H237304   1.284   3.494   3.207 -0.3361  1.1879  1.6000
 5297TIP3   OH237305   3.883   2.158  12.153  0.0662  0.2091 -0.4939
 5297TIP3    H137306   3.868   2.087  12.215 -0.4679 -0.5823 -1.4970
 5297TIP3    H237307   3.824   2.228  12.182 -1.8541 -0.9670 -1.3703
 5298TIP3   OH237308   5.680   1.297  12.462 -0.1955  0.4582  0.0883
 5298TIP3    H137309   5.737   1.269  12.534  1.0728 -1.7795 -1.6226
 5298TIP3    H237310   5.736   1.355  12.409  0.7238 -1.7981 -1.6336
 5299TIP3   OH237311   0.355   0.264   1.509  0.5380 -0.4409  0.8949
 5299TIP3    H137312   0.267   0.292   1.483  1.6533  1.7571 -0.8010
 5299TIP3    H237313   0.382   0.204   1.439  1.0570  0.3539  0.3954
 5300TIP3   OH237314   6.471   1.083  16.262 -0.3126 -0.4976 -1.3617
 5300TIP3    H137315   6.435   1.043  16.341  0.7115  3.2952  1.3288
 5300TIP3    H237316   6.563   1.056  16.262 -0.0565  0.3069 -0.5671
 5301TIP3   OH237317   3.524   3.346   3.934  0.0059  0.2728 -0.0592
 5301TIP3    H137318   3.481   3.333   3.849 -0.5472 -1.4007  0.4453
 5301TIP3    H237319   3.460   3.393   3.987 -0.6801 -0.9541  0.2318
 5302TIP3   OH237320   6.458   0.624   4.263 -0.2678 -0.1060 -0.3057
 5302TIP3    H137321   6.395   0.663   4.324 -0.6650 -0.2093 -0.6422
 5302TIP3    H237322   6.452   0.530   4.279  0.2935 -0.0720  0.1274
 5303TIP3   OH237323   3.992   2.895   0.152  1.1373 -0.0541 -0.0814
 5303TIP3    H137324   3.963   2.822   0.207  0.6194 -0.9996 -1.5627
 5303TIP3    H237325   3.997   2.970   0.212  1.9549 -1.3431  1.5374
 5304TIP3   OH237326   1.404   4.999  11.095  0.4523  0.5192 -0.0991
 5304TIP3    H137327   1.313   4.991  11.064  0.6396 -0.4273 -0.4383
 5304TIP3    H237328   1.440   5.072  11.046 -0.1454  0.9398  0.0788
 5305TIP3   OH237329   3.455   0.493   6.068 -0.7858 -0.0378 -0.2938
 5305TIP3    H137330   3.511   0.524   6.140 -1.1358 -1.1999  0.4927
 5305TIP3    H237331   3.406   0.571   6.041 -0.3602  0.5011  0.4500
 5306TIP3   OH237332   0.634   6.467  11.579  0.3550 -0.4694 -0.1199
 5306TIP3    H137333   0.659   6.501  11.493  0.3197  1.5321  0.6141
 5306TIP3    H237334   0.545   6.434  11.567 -0.1473  0.9892 -0.5670
 5307TIP3   OH237335   2.490   1.217   1.542  0.0326 -0.0454 -0.0959
 5307TIP3    H137336   2.476   1.295   1.597  0.9593  1.9869 -2.5171
 5307TIP3    H237337   2.401   1.191   1.516 -0.3130 -0.0340  1.0247
 5308TIP3   OH237338   1.158   3.345   0.678  0.0701 -0.2850 -0.0780
 5308TIP3    H137339   1.096   3.272   0.675  0.3532 -0.5205 -0.2619
 5308TIP3    H237340   1.244   3.304   0.662  0.2415  0.0710 -0.0701
 5309TIP3   OH237341   6.204   3.509  12.674 -0.1472 -0.3871  0.1086
 5309TIP3    H137342   6.237   3.545  12.756 -0.2717 -0.6354  0.2680
 5309TIP3    H237343   6.275   3.452  12.642  0.0858  0.0655 -0.1890
 5310TIP3   OH237344   1.172   1.704  17.212 -0.2220  0.0291  0.1932
 5310TIP3    H137345   1.153   1.672  17.300 -2.0361  1.5617  0.4219
 5310TIP3    H237346   1.149   1.631  17.154 -1.7568 -0.0626  0.8592
 5311TIP3   OH237347   0.601   6.334   1.831  0.4796 -0.2669 -0.3146
 5311TIP3    H137348   0.626   6.393   1.903  0.5543  0.0973 -0.6362
 5311TIP3    H237349   0.656   6.256   1.844 -0.2073 -0.6169  0.5945
 5312TIP3   OH237350   2.851   2.931  13.371  0.3060 -0.2166 -0.9927
 5312TIP3    H137351   2.876   2.933  13.279 -0.1406  2.2852 -1.1166
 5312TIP3    H237352   2.814   2.844  13.383 -2.6263  0.4159 -4.0212
 5313TIP3   OH237353   2.853   3.187  14.449 -0.2657  0.0260  0.3063
 5313TIP3    H137354   2.948   3.175  14.452 -0.1269  0.8118 -0.5204
 5313TIP3    H237355   2.832   3.230  14.532  0.0208 -0.5922  0.7102
 5314TIP3   OH237356   5.434   3.127   1.026  0.0232  0.0091 -0.2543
 5314TIP3    H137357   5.393   3.206   0.990  0.1816 -0.3073 -1.1577
 5314TIP3    H237358   5.451   3.148   1.118  0.1800  1.0643 -0.5159
 5315TIP3   OH237359   5.591   5.588  15.042  0.3836 -0.6008  0.4491
 5315TIP3    H137360   5.608   5.682  15.034  0.8037 -0.6972  0.2160
 5315TIP3    H237361   5.620   5.551  14.959  0.8235 -1.0254  0.7871
 5316TIP3   OH237362   6.693   0.404   3.267  0.1735 -0.8599  0.0078
 5316TIP3    H137363   6.691   0.369   3.356 -2.5420 -2.3013 -0.4952
 5316TIP3    H237364   6.611   0.454   3.259 -1.0995 -3.0893 -2.4305
 5317TIP3   OH237365   0.688   4.835   3.583  0.1428  0.0213 -0.8940
 5317TIP3    H137366   0.716   4.848   3.673  1.0890  1.3858 -1.3484
 5317TIP3    H237367   0.633   4.911   3.563 -1.6843 -1.2146 -0.9129
 5318TIP3   OH237368   2.152   3.171   5.543  0.0398 -0.1046 -0.2626
 5318TIP3    H137369   2.214   3.228   5.589 -0.7888  0.7355 -0.1559
 5318TIP3    H237370   2.190   3.084   5.551  0.6649  0.2344  0.7473
 5319TIP3   OH237371   4.619   2.898   0.517 -0.1308  0.1848  0.1894
 5319TIP3    H137372   4.627   2.937   0.430  1.5177  1.0559  0.7004
 5319TIP3    H237373   4.576   2.966   0.570 -2.2852 -0.7990 -0.1807
 5320TIP3   OH237374   4.620   5.389   2.061 -0.1778  0.0250 -0.3450
 5320TIP3    H137375   4.605   5.366   1.969 -1.5095 -1.3717  0.1811
 5320TIP3    H237376   4.715   5.384   2.072  0.1352  1.4831 -1.9215
 5321TIP3   OH237377   5.752   3.439  16.023 -0.1959 -0.8124 -0.1847
 5321TIP3    H137378   5.773   3.525  15.986  0.9109 -0.4802  1.1397
 5321TIP3    H237379   5.729   3.385  15.947  0.1511  0.3506 -1.1431
 5322TIP3   OH237380   3.968   5.016   4.781 -0.4796  0.5805  0.1906
 5322TIP3    H137381   3.966   4.989   4.873  2.4361 -0.5108  0.0250
 5322TIP3    H237382   4.042   5.077   4.776  0.3451 -0.5150 -1.6757
 5323TIP3   OH237383   1.050   5.887  12.064  0.2861  0.4613  0.2324
 5323TIP3    H137384   1.128   5.924  12.024  1.4077 -1.0075  0.9531
 5323TIP3    H237385   0.988   5.877  11.992  1.1445  0.6844 -0.5451
 5324TIP3   OH237386   3.603   5.210   1.810  0.6365  0.2235  0.2410
 5324TIP3    H137387   3.609   5.183   1.718  0.0521 -1.3866  0.6413
 5324TIP3    H237388   3.640   5.137   1.859 -2.6733 -0.8051  1.4897
 5325TIP3   OH237389   1.837   6.343  16.238 -0.0657 -0.3687  0.1652
 5325TIP3    H137390   1.854   6.357  16.145  1.5939 -1.1971  0.3194
 5325TIP3    H237391   1.808   6.252  16.243  1.0792 -0.7286  0.5780
 5326TIP3   OH237392   4.754   6.081  16.705  1.0673  0.0067 -0.0062
 5326TIP3    H137393   4.839   6.087  16.748  2.2354  0.9163 -2.2815
 5326TIP3    H237394   4.726   6.172  16.694  0.3038 -0.2464 -0.2428
 5327TIP3   OH237395   2.990   3.221  13.172  0.7777  0.5178 -0.6768
 5327TIP3    H137396   2.898   3.204  13.151 -0.0665  1.7101  1.6760
 5327TIP3    H237397   2.993   3.223  13.268  3.1874  0.9814 -0.6864
 5328TIP3   OH237398   6.083   2.336   2.598  0.2432  0.4287  0.3328
 5328TIP3    H137399   6.079   2.409   2.660  0.3619  0.9534 -0.2663
 5328TIP3    H237400   5.994   2.328   2.564  0.2747  0.4202  0.2528
 5329TIP3   OH237401   0.177   6.048  12.915  0.1974 -0.7262 -0.7249
 5329TIP3    H137402   0.239   6.002  12.972 -1.3498 -1.2582  0.5987
 5329TIP3    H237403   0.189   6.141  12.939 -0.5098 -0.9504  0.5970
 5330TIP3   OH237404   3.335   3.895   2.646 -0.0042  0.1035  0.0632
 5330TIP3    H137405   3.413   3.873   2.698 -0.0654 -1.4265 -0.4312
 5330TIP3    H237406   3.354   3.981   2.610  0.8097  0.4109  1.1681
 5331TIP3   OH237407   2.392   3.086   4.520  0.1641 -0.0670  0.0112
 5331TIP3    H137408   2.480   3.084   4.483 -0.4701 -4.3098 -1.8301
 5331TIP3    H237409   2.404   3.061   4.612  0.9736  1.6066  0.4029
 5332TIP3   OH237410   0.689   5.641   1.654 -0.5382  0.2164  0.2477
 5332TIP3    H137411   0.708   5.734   1.669 -0.3499 -0.0141  1.6470
 5332TIP3    H237412   0.596   5.633   1.674  0.0249 -0.3793  3.1961
 5333TIP3   OH237413   4.642   2.206   0.364  0.2621 -0.6254 -0.4645
 5333TIP3    H137414   4.702   2.228   0.293 -0.9691  2.9094 -0.6150
 5333TIP3    H237415   4.671   2.261   0.437 -0.4282 -1.8127  0.7519
 5334TIP3   OH237416   0.553   2.712   0.230 -0.1982  0.0754  0.2172
 5334TIP3    H137417   0.489   2.650   0.263 -2.1850  1.8575 -0.0799
 5334TIP3    H237418   0.574   2.767   0.305 -0.5568  0.7323 -0.1531
 5335TIP3   OH237419   4.633   4.037   5.100  0.1755  0.1690 -0.1438
 5335TIP3    H137420   4.709   4.027   5.159  2.2984  0.2436 -2.6778
 5335TIP3    H237421   4.574   3.966   5.126  2.7932 -2.3153 -0.3508
 5336TIP3   OH237422   2.618   0.996  11.386 -0.6789  0.3423 -0.2095
 5336TIP3    H137423   2.614   1.047  11.304 -0.8821  1.2744  0.3619
 5336TIP3    H237424   2.543   0.936  11.380 -0.8352  0.5665 -0.6025
 5337TIP3   OH237425   1.054   6.016  14.014  0.0195  0.4832  0.2472
 5337TIP3    H137426   0.989   6.083  14.033 -0.5719  0.2972 -1.0023
 5337TIP3    H237427   1.007   5.933  14.025  0.7447  0.2341  1.7955
 5338TIP3   OH237428   3.059   4.941  13.936  0.2100  0.2786 -0.2526
 5338TIP3    H137429   2.992   5.006  13.915 -1.4469 -1.2218  0.1305
 5338TIP3    H237430   3.029   4.861  13.893  1.6974 -0.4773  0.0546
 5339TIP3   OH237431   0.237   0.329  11.257 -0.1567 -0.8407 -0.3095
 5339TIP3    H137432   0.185   0.401  11.222  0.4522  0.1017  0.6565
 5339TIP3    H237433   0.325   0.345  11.224 -0.2591 -1.9537 -1.2331
 5340TIP3   OH237434   2.332   0.596   0.457 -0.2027  0.3161 -0.1072
 5340TIP3    H137435   2.381   0.514   0.464 -0.5565  0.0740 -0.4668
 5340TIP3    H237436   2.315   0.622   0.548 -2.3932 -1.3776  0.0287
 5341TIP3   OH237437   3.315   0.854  14.109 -0.0344 -0.0871 -0.8569
 5341TIP3    H137438   3.284   0.844  14.019  0.0878  0.1448 -0.9273
 5341TIP3    H237439   3.270   0.786  14.158 -2.9028  2.0018 -0.3536
 5342TIP3   OH237440   5.808   5.181  16.986 -0.4975  0.5985  0.1025
 5342TIP3    H137441   5.790   5.090  16.962 -0.7097  0.0076  2.2703
 5342TIP3    H237442   5.823   5.225  16.903  0.4909 -1.6040 -0.9759
 5343TIP3   OH237443   1.400   0.510  15.088  0.9321  0.4465  0.2834
 5343TIP3    H137444   1.371   0.489  14.999 -1.1977 -2.2949  1.4809
 5343TIP3    H237445   1.437   0.428  15.121  1.6991  1.4106  1.9553
 5344TIP3   OH237446   1.237   5.315   2.415  0.2379  0.5630 -0.0484
 5344TIP3    H137447   1.204   5.384   2.472  0.5691 -0.2992  1.2381
 5344TIP3    H237448   1.329   5.337   2.400  0.3648  0.3663  0.4273
 5345TIP3   OH237449   6.383   4.814  12.022 -0.2037  0.0204  0.0533
 5345TIP3    H137450   6.419   4.881  12.081  0.9883 -0.7019  0.1734
 5345TIP3    H237451   6.292   4.804  12.051  0.4378 -0.6009  2.0675
 5346TIP3   OH237452   5.360   4.643  17.074 -0.2869 -0.0006  0.1372
 5346TIP3    H137453   5.273   4.681  17.082  0.3499  1.2905  1.4165
 5346TIP3    H237454   5.414   4.695  17.134  0.8645 -2.3412  1.2502
 5347TIP3   OH237455   2.604   4.942  16.938 -0.2441 -0.3293  0.7196
 5347TIP3    H137456   2.679   4.998  16.959 -0.1990  0.3207 -1.0322
 5347TIP3    H237457   2.605   4.874  17.006  0.8220  0.7094  1.7925
 5348TIP3   OH237458   1.649   4.339  17.114 -0.2421 -0.2725 -0.2602
 5348TIP3    H137459   1.588   4.281  17.069 -1.4304  0.6756  0.0646
 5348TIP3    H237460   1.735   4.301  17.098 -1.0075 -2.3789  0.3213
 5349TIP3   OH237461   1.424   4.388  14.052  0.8065  0.5120  0.0810
 5349TIP3    H137462   1.409   4.295  14.034  1.9089  0.2745  0.3403
 5349TIP3    H237463   1.518   4.400  14.043  0.6476  1.6792 -0.2474
 5350TIP3   OH237464   1.631   0.872  13.724 -0.2987 -0.2249  0.3020
 5350TIP3    H137465   1.661   0.928  13.796 -1.0534  0.0962  0.3774
 5350TIP3    H237466   1.702   0.876  13.659  0.6919 -1.0504  1.2946
 5351TIP3   OH237467   3.705   3.436   1.814 -0.5844  0.4651 -0.3654
 5351TIP3    H137468   3.792   3.400   1.795 -0.3207  1.4242 -1.0683
 5351TIP3    H237469   3.646   3.361   1.803  0.1649 -0.2729  0.4231
 5352TIP3   OH237470   1.131   1.904  10.845 -0.6995  0.1764  0.1687
 5352TIP3    H137471   1.092   1.959  10.914 -0.8155  1.1692 -0.6655
 5352TIP3    H237472   1.221   1.934  10.840 -0.9077  0.6830 -0.6680
 5353TIP3   OH237473   1.387   4.057  15.653 -0.3124 -1.0616 -0.5186
 5353TIP3    H137474   1.316   4.114  15.684 -0.0519 -1.4524  0.8565
 5353TIP3    H237475   1.435   4.112  15.591 -0.1482  0.2046  0.6724
 5354TIP3   OH237476   3.558   0.681   4.836 -0.0298 -0.4375  0.7141
 5354TIP3    H137477   3.470   0.659   4.805 -0.0977 -0.4778  0.9301
 5354TIP3    H237478   3.545   0.709   4.927  0.0253  0.7176  0.3782
 5355TIP3   OH237479   0.782   6.693   1.436 -0.6248  0.1699 -0.0483
 5355TIP3    H137480   0.855   6.746   1.468 -1.8498  1.9492 -0.0482
 5355TIP3    H237481   0.729   6.676   1.514 -0.8927  0.0106 -0.2642
 5356TIP3   OH237482   5.339   1.247  14.496 -0.0774  0.6042  0.3397
 5356TIP3    H137483   5.277   1.283  14.433  0.7007 -0.1295 -0.8830
 5356TIP3    H237484   5.286   1.190  14.551 -0.6503  0.7348 -0.0617
 5357TIP3   OH237485   3.156   0.451   5.236 -0.9254 -0.1598  0.2657
 5357TIP3    H137486   3.081   0.439   5.294 -1.9679 -0.7957 -1.1401
 5357TIP3    H237487   3.197   0.365   5.232  0.1323  0.2620  1.2959
 5358TIP3   OH237488   3.548   5.389   1.130  0.3664 -1.2994  0.3081
 5358TIP3    H137489   3.473   5.443   1.105  2.4666  0.9818 -1.5511
 5358TIP3    H237490   3.534   5.305   1.086 -0.3903 -0.3709 -1.2995
 5359TIP3   OH237491   5.632   5.342   2.704  0.9401  0.1747 -0.0806
 5359TIP3    H137492   5.551   5.306   2.739  2.5312  0.1613  4.0693
 5359TIP3    H237493   5.603   5.407   2.639 -2.3047 -0.3969  0.6363
 5360TIP3   OH237494   1.422   6.525  16.682  0.6218  0.2378 -0.2473
 5360TIP3    H137495   1.372   6.459  16.730  1.1563  0.1195  0.1522
 5360TIP3    H237496   1.374   6.535  16.599 -0.2926  0.4269  0.2842
 5361TIP3   OH237497   2.335   6.298  14.846 -0.4467  0.1322  0.2029
 5361TIP3    H137498   2.261   6.279  14.789 -0.4012 -2.4353  0.8971
 5361TIP3    H237499   2.300   6.360  14.910 -2.1176 -1.2473  0.6951
 5362TIP3   OH237500   1.933   2.875  12.268 -0.4834 -0.4614 -0.2058
 5362TIP3    H137501   2.024   2.889  12.241 -0.1133 -1.6220  0.3353
 5362TIP3    H237502   1.881   2.898  12.191  0.3143 -0.3500 -0.7256
 5363TIP3   OH237503   2.556   5.016   6.313 -0.4201 -0.5686 -0.3620
 5363TIP3    H137504   2.590   5.102   6.336 -0.1770 -0.2492 -1.8221
 5363TIP3    H237505   2.530   5.023   6.222  0.3517 -2.2488 -0.7670
 5364TIP3   OH237506   1.171   3.576  15.918  0.5052 -0.0993 -0.6441
 5364TIP3    H137507   1.179   3.639  15.990  0.7046  0.5143 -1.1907
 5364TIP3    H237508   1.145   3.629  15.843  0.0027 -0.7801 -0.9562
 5365TIP3   OH237509   2.753   3.819   4.000  1.2579  0.1389 -0.1665
 5365TIP3    H137510   2.727   3.750   3.939  2.1977 -0.3207 -0.0757
 5365TIP3    H237511   2.848   3.825   3.990  1.3581  0.4643  0.8158
 5366TIP3   OH237512   4.369   0.802   3.148 -0.0794  0.0967  0.0778
 5366TIP3    H137513   4.340   0.869   3.086  0.1500 -1.3363 -1.6816
 5366TIP3    H237514   4.292   0.782   3.201  0.1529  2.5012  1.4269
 5367TIP3   OH237515   6.736   0.749  15.754 -0.0303 -0.2071 -0.7708
 5367TIP3    H137516   6.804   0.810  15.727  1.1608 -1.2856 -0.3153
 5367TIP3    H237517   6.665   0.805  15.785  0.9413  0.9549 -0.5558
 5368TIP3   OH237518   5.688   5.256   2.322 -0.1229 -0.0325  0.9787
 5368TIP3    H137519   5.653   5.342   2.343  0.4315  0.2044  0.9566
 5368TIP3    H237520   5.715   5.220   2.407 -0.0100 -0.0286  0.9447
 5369TIP3   OH237521   4.443   1.883   0.984 -0.1231 -0.0799  0.4052
 5369TIP3    H137522   4.394   1.865   1.064 -1.4999  0.8002 -0.2044
 5369TIP3    H237523   4.403   1.826   0.918 -0.2895  0.5998 -0.0879
 5370TIP3   OH237524   3.851   5.315   5.691  0.1104 -0.1381 -0.7922
 5370TIP3    H137525   3.900   5.376   5.746  0.4391  1.1288 -2.4051
 5370TIP3    H237526   3.910   5.241   5.678 -0.3038 -0.8874  1.2133
 5371TIP3   OH237527   4.531   3.723  15.920  0.0142  0.0469  0.1848
 5371TIP3    H137528   4.601   3.692  15.863  0.0479  0.6025 -0.0834
 5371TIP3    H237529   4.573   3.791  15.974 -0.6856  1.5977 -1.1281
 5372TIP3   OH237530   4.496   1.386  10.704  0.0660 -0.2388 -0.2295
 5372TIP3    H137531   4.474   1.292  10.707  1.3614 -0.6128 -1.6100
 5372TIP3    H237532   4.411   1.429  10.692 -0.7324 -1.0906  1.8100
 5373TIP3   OH237533   2.782   2.550   1.428 -0.0877 -0.1880 -0.1926
 5373TIP3    H137534   2.728   2.503   1.491  0.6472 -0.5865  0.1496
 5373TIP3    H237535   2.871   2.543   1.462  0.1732  0.5452 -0.6959
 5374TIP3   OH237536   6.407   4.231   1.797 -0.0343  0.0110 -0.4115
 5374TIP3    H137537   6.469   4.298   1.769 -1.0898  0.9295 -0.6333
 5374TIP3    H237538   6.462   4.158   1.824  1.1211 -0.0056 -2.5399
 5375TIP3   OH237539   0.194   0.729   3.314 -0.3546 -0.1920  0.0864
 5375TIP3    H137540   0.120   0.778   3.352  0.2884  0.0894  1.0158
 5375TIP3    H237541   0.197   0.648   3.366 -0.1649 -0.3192 -0.1236
 5376TIP3   OH237542   1.921   1.700  10.678 -0.3468  0.1580 -0.2315
 5376TIP3    H137543   1.850   1.763  10.672 -1.8773 -1.4460  0.3086
 5376TIP3    H237544   1.966   1.722  10.759 -0.2914  1.0854 -0.4968
 5377TIP3   OH237545   5.931   0.592   4.621  0.0120 -0.5557 -0.2047
 5377TIP3    H137546   5.972   0.531   4.559  0.0413 -0.5632 -0.1781
 5377TIP3    H237547   6.002   0.649   4.649 -0.6028  1.7302 -2.8394
 5378TIP3   OH237548   0.822   2.827  15.662 -0.0072  0.0951 -0.2637
 5378TIP3    H137549   0.843   2.899  15.602  0.2975 -0.4575 -0.8367
 5378TIP3    H237550   0.851   2.858  15.748 -0.3866  0.8733 -0.4071
 5379TIP3   OH237551   2.983   1.043   4.507 -0.1963 -0.4529  0.3125
 5379TIP3    H137552   2.920   0.978   4.477 -1.4816  0.1031  1.6892
 5379TIP3    H237553   2.959   1.123   4.459  0.0183 -0.4670  0.1836
 5380TIP3   OH237554   0.892   2.708  13.790 -0.0957 -0.0308 -0.6470
 5380TIP3    H137555   0.799   2.706  13.815  0.3049  1.7358  1.2420
 5380TIP3    H237556   0.900   2.789  13.738 -0.0055 -1.3528 -2.8044
 5381TIP3   OH237557   3.100   6.310   1.236 -1.1873 -0.8157  0.5040
 5381TIP3    H137558   3.082   6.222   1.270 -2.3490 -0.2723  1.3888
 5381TIP3    H237559   3.064   6.369   1.303 -1.6767  0.3243 -0.7183
 5382TIP3   OH237560   3.528   2.251   4.485 -0.1191 -0.1053 -0.5164
 5382TIP3    H137561   3.526   2.156   4.497 -0.5526 -0.1598 -0.9841
 5382TIP3    H237562   3.577   2.264   4.404 -0.9292  0.0026 -1.0057
 5383TIP3   OH237563   1.998   2.835  13.196  0.0567 -0.5697  0.2452
 5383TIP3    H137564   1.909   2.866  13.211 -0.2424  0.0813 -2.3925
 5383TIP3    H237565   2.053   2.909  13.224 -0.4225  0.3097 -1.0147
 5384TIP3   OH237566   2.359   2.510  11.575 -0.0755  0.0867 -0.3077
 5384TIP3    H137567   2.399   2.533  11.491  1.7591  0.5968  0.6666
 5384TIP3    H237568   2.413   2.439  11.609  0.9912  1.7460  1.7025
 5385TIP3   OH237569   6.316   1.078  13.738 -0.5203 -0.6119  0.4553
 5385TIP3    H137570   6.307   1.032  13.821  2.5939 -0.3072  1.0816
 5385TIP3    H237571   6.356   1.162  13.762  0.4208 -0.5143 -1.3066
 5386TIP3   OH237572   3.972   1.046  14.083 -0.3335  0.0351 -0.3617
 5386TIP3    H137573   3.901   0.986  14.102 -1.0097  0.7475 -0.5680
 5386TIP3    H237574   4.019   1.006  14.010  0.0978 -0.9317  0.4330
 5387TIP3   OH237575   6.241   2.689   3.262  0.0277 -0.3035 -0.0124
 5387TIP3    H137576   6.224   2.743   3.340 -0.6424  0.8990 -0.9571
 5387TIP3    H237577   6.321   2.641   3.284  0.5350  0.9091  0.9606
 5388TIP3   OH237578   6.380   5.572  11.848 -0.5599 -0.1867 -0.3526
 5388TIP3    H137579   6.476   5.577  11.852 -0.5937  1.0546 -0.5738
 5388TIP3    H237580   6.362   5.500  11.788  0.2242 -0.7967  0.1223
 5389TIP3   OH237581   5.350   0.617  15.589 -0.7142 -0.6480 -0.3053
 5389TIP3    H137582   5.336   0.631  15.495  1.6320 -1.1454 -0.8086
 5389TIP3    H237583   5.423   0.676  15.611 -0.9715 -0.8287  1.1118
 5390TIP3   OH237584   2.030   3.778  12.795 -0.3480 -0.0101 -0.1790
 5390TIP3    H137585   2.076   3.697  12.773  0.2493  0.1600  0.3974
 5390TIP3    H237586   2.096   3.846  12.783 -0.7802  0.3612 -0.4370
 5391TIP3   OH237587   6.574   4.800  14.387 -0.0622  0.2301  0.1224
 5391TIP3    H137588   6.623   4.724  14.358  0.9959  1.1825 -0.6903
 5391TIP3    H237589   6.635   4.873  14.378 -1.7650  1.5739 -1.5147
 5392TIP3   OH237590   2.181   4.032  17.298  0.0608  0.2347  0.6762
 5392TIP3    H137591   2.195   4.115  17.253 -0.7571  0.6605  1.1825
 5392TIP3    H237592   2.229   3.968  17.246  0.7070  1.0222  0.2865
 5393TIP3   OH237593   6.147   4.440  14.741  0.2900  0.0464  0.1999
 5393TIP3    H137594   6.152   4.462  14.834  1.7182 -0.9055  0.3796
 5393TIP3    H237595   6.121   4.522  14.699  1.0167  0.8806  1.2956
 5394TIP3   OH237596   2.367   4.040   0.640  0.1673  0.1989  0.5282
 5394TIP3    H137597   2.348   4.007   0.552  0.6690  0.7023  0.2312
 5394TIP3    H237598   2.399   3.963   0.687 -0.4156 -0.1473  0.3750
 5395TIP3   OH237599   5.226   3.344   2.316 -0.4884 -0.1326 -0.0626
 5395TIP3    H137600   5.140   3.320   2.350 -0.4441 -0.1290  0.0519
 5395TIP3    H237601   5.233   3.438   2.332  0.3143 -0.4441  1.6643
 5396TIP3   OH237602   4.050   2.439   2.789  0.1308  0.4126  0.6287
 5396TIP3    H137603   4.099   2.357   2.787  0.1674  0.4140  1.3547
 5396TIP3    H237604   4.042   2.460   2.882  0.1441  1.2496  0.4425
 5397TIP3   OH237605   3.360   4.275  14.957  0.2592 -0.6785 -0.2959
 5397TIP3    H137606   3.288   4.337  14.967 -0.5097 -1.0224 -2.9543
 5397TIP3    H237607   3.339   4.203  15.016 -0.6495  0.0400  0.2699
 5398TIP3   OH237608   6.107   3.222  13.465 -0.1983 -0.0918  1.1868
 5398TIP3    H137609   6.175   3.171  13.420 -0.8150  1.1570 -1.3366
 5398TIP3    H237610   6.053   3.157  13.509  0.3657 -1.4530 -0.0469
 5399TIP3   OH237611   2.493   5.104  13.675  0.1455 -0.2927  0.1271
 5399TIP3    H137612   2.497   5.016  13.713  0.7646 -0.1748  0.3375
 5399TIP3    H237613   2.437   5.094  13.598 -0.5074 -0.6858  0.6410
 5400TIP3   OH237614   2.540   3.923   0.188 -0.1530  0.1787 -0.2573
 5400TIP3    H137615   2.618   3.936   0.242  0.2351  1.5809 -1.1007
 5400TIP3    H237616   2.569   3.944   0.099 -1.1285 -0.7415 -0.8091
 5401TIP3   OH237617   0.254   0.870   1.009  0.1064 -0.5126  0.3941
 5401TIP3    H137618   0.211   0.785   1.014  1.2980 -1.3358 -1.7590
 5401TIP3    H237619   0.222   0.908   0.927 -0.2017  1.0138  1.2021
 5402TIP3   OH237620   2.561   6.523   0.074  0.0388 -0.1867  0.0630
 5402TIP3    H137621   2.473   6.533   0.111 -0.7050  0.8980 -1.8825
 5402TIP3    H237622   2.594   6.612   0.066  0.2313 -0.3743 -1.6446
 5403TIP3   OH237623   6.741   6.255  12.673 -0.4038 -0.6922  0.1590
 5403TIP3    H137624   6.745   6.159  12.674  1.2615 -0.6449 -0.2458
 5403TIP3    H237625   6.826   6.283  12.640 -1.3038  0.9214 -0.9274
 5404TIP3   OH237626   5.677   4.460  13.407  0.4856  0.4654  0.0001
 5404TIP3    H137627   5.736   4.385  13.399 -0.5314 -0.3457  0.0043
 5404TIP3    H237628   5.609   4.432  13.468 -1.2436  0.4987 -1.8133
 5405TIP3   OH237629   0.027   6.615   3.077  0.1519  0.2633  0.0274
 5405TIP3    H137630   0.029   6.605   2.981  0.2736  0.8960 -0.0419
 5405TIP3    H237631   0.046   6.707   3.091  0.7401  0.0489  0.6905
 5406TIP3   OH237632   4.527   1.973   0.578 -0.3286  0.7518 -0.2726
 5406TIP3    H137633   4.548   2.053   0.529 -1.1621  1.1430 -0.0029
 5406TIP3    H237634   4.575   1.983   0.661  1.0153  0.1267 -0.9516
 5407TIP3   OH237635   5.412   4.855  11.411  0.2490  0.5243 -0.2803
 5407TIP3    H137636   5.371   4.775  11.376  0.4147  0.5748 -0.5977
 5407TIP3    H237637   5.450   4.828  11.494  0.8071  0.1233 -0.6514
 5408TIP3   OH237638   6.151   1.726   0.800  0.1077  0.3063  0.4412
 5408TIP3    H137639   6.148   1.809   0.753  1.2877  1.5458  2.4210
 5408TIP3    H237640   6.232   1.685   0.770 -0.2365  0.0802 -0.1896
 5409TIP3   OH237641   1.236   0.647   1.436 -0.1024 -0.5385 -0.6514
 5409TIP3    H137642   1.295   0.705   1.484 -0.7354 -1.0274  0.7735
 5409TIP3    H237643   1.150   0.686   1.446 -0.3156 -0.9038 -1.0140
 5410TIP3   OH237644   1.035   2.614   0.268 -0.1541  1.0265  0.2518
 5410TIP3    H137645   0.953   2.660   0.249 -0.6030 -0.0324 -0.4244
 5410TIP3    H237646   1.030   2.533   0.218 -0.2257 -0.7069  2.8828
 5411TIP3   OH237647   4.469   5.515   4.345 -0.1114  0.2539 -0.4359
 5411TIP3    H137648   4.414   5.511   4.422  1.5624  2.6126  1.0020
 5411TIP3    H237649   4.426   5.577   4.286  0.7426  1.8138  0.5293
 5412TIP3   OH237650   2.631   6.228   0.839  0.0340  0.4317 -0.6078
 5412TIP3    H137651   2.610   6.299   0.898  0.4201  0.0062  0.0541
 5412TIP3    H237652   2.631   6.268   0.752  0.5786  1.3111 -0.2139
 5413TIP3   OH237653   0.470   6.719   1.459 -0.2146  0.0629 -0.1123
 5413TIP3    H137654   0.512   6.797   1.423  0.8219 -0.1647  0.5550
 5413TIP3    H237655   0.512   6.646   1.413 -0.4600 -0.1421 -0.0114
 5414TIP3   OH237656   5.456   3.472  14.768 -0.3774 -0.0440  0.1211
 5414TIP3    H137657   5.391   3.453  14.700  0.0940  1.2051 -0.7302
 5414TIP3    H237658   5.532   3.420  14.743 -0.0356  0.7832 -0.6194
 5415TIP3   OH237659   5.822   0.366   5.009  0.2758 -0.2513  0.2042
 5415TIP3    H137660   5.894   0.414   5.050 -0.5590  1.2602 -0.0196
 5415TIP3    H237661   5.772   0.433   4.962 -1.8931 -1.0460  1.2405
 5416TIP3   OH237662   0.089   6.715   2.423  0.2384  0.1108 -0.8486
 5416TIP3    H137663   0.026   6.657   2.466 -0.1010  0.7383 -0.4834
 5416TIP3    H237664   0.036   6.784   2.384  0.6887  0.6222 -0.5759
 5417TIP3   OH237665   5.831   2.916  16.400 -0.1187 -0.0808  0.1566
 5417TIP3    H137666   5.750   2.948  16.439 -0.3264 -1.1087  0.6238
 5417TIP3    H237667   5.876   2.994  16.368 -1.1310  0.5304  0.1998
 5418TIP3   OH237668   0.632   2.164   3.290  0.6261 -0.1465 -0.4234
 5418TIP3    H137669   0.617   2.085   3.238  2.3722 -0.2398 -0.8422
 5418TIP3    H237670   0.717   2.197   3.260  0.3063  1.4476  0.3165
 5419TIP3   OH237671   1.174   3.544  17.059 -0.0871 -0.8374 -1.0894
 5419TIP3    H137672   1.164   3.613  16.994  0.4553 -1.5071 -1.9187
 5419TIP3    H237673   1.266   3.550  17.086  0.5509 -2.4299 -2.6395
 5420TIP3   OH237674   1.907   3.607   3.186 -0.2686  0.0294 -0.1920
 5420TIP3    H137675   1.921   3.582   3.095  0.5156  0.9239 -0.3277
 5420TIP3    H237676   1.925   3.528   3.236  0.6029 -0.1164 -0.7195
 5421TIP3   OH237677   2.482   6.247   4.397 -0.1692 -0.5367  0.2161
 5421TIP3    H137678   2.484   6.329   4.349 -1.4364 -1.3631 -1.3336
 5421TIP3    H237679   2.408   6.256   4.457  0.3824 -0.1431  0.8512
 5422TIP3   OH237680   6.309   0.287  11.150 -0.8652 -0.3850 -0.1505
 5422TIP3    H137681   6.388   0.263  11.101 -0.7969  0.4471 -0.4601
 5422TIP3    H237682   6.254   0.209  11.146 -1.0346 -0.2007 -1.9129
 5423TIP3   OH237683   5.170   5.384   1.048 -0.1555 -0.2367  0.2873
 5423TIP3    H137684   5.250   5.332   1.036  0.1118  0.4291 -0.9404
 5423TIP3    H237685   5.119   5.370   0.968 -0.9048 -0.0199  0.7129
 5424TIP3   OH237686   3.446   2.917  16.245  0.0380  0.0767  0.5649
 5424TIP3    H137687   3.357   2.889  16.223  0.2503 -0.2228  0.0598
 5424TIP3    H237688   3.471   2.859  16.317  1.0419 -2.2128 -1.4658
 5425TIP3   OH237689   4.690   1.971  17.312 -0.0010 -0.3214  0.4442
 5425TIP3    H137690   4.626   2.041  17.326  1.3619  0.6776  2.0612
 5425TIP3    H237691   4.636   1.893  17.295 -1.6236  0.6638  0.8294
 5426TIP3   OH237692   1.919   4.437   6.538  0.3750  0.0447 -0.3983
 5426TIP3    H137693   1.823   4.440   6.543  0.2943 -0.9319 -1.0001
 5426TIP3    H237694   1.939   4.343   6.535  1.4485  0.1823  1.2715
 5427TIP3   OH237695   5.227   3.953  14.171 -0.0116  0.1774  0.0412
 5427TIP3    H137696   5.312   3.928  14.135 -0.2102  0.9077 -0.9868
 5427TIP3    H237697   5.225   4.048  14.166 -0.5334  0.2205  0.8979
 5428TIP3   OH237698   1.810   6.195  11.599  0.1865 -0.3489 -0.4500
 5428TIP3    H137699   1.871   6.123  11.587  1.4526  0.8269 -1.2709
 5428TIP3    H237700   1.734   6.171  11.547  0.6175 -1.0624 -0.7525
 5429TIP3   OH237701   6.102   3.144   3.633  0.1049  0.2019 -0.2851
 5429TIP3    H137702   6.109   3.096   3.551  0.9244  0.4408 -0.3584
 5429TIP3    H237703   6.020   3.113   3.671  0.0731 -0.4391 -0.8498
 5430TIP3   OH237704   0.119   1.701  10.602  0.0426 -0.1076 -0.0616
 5430TIP3    H137705   0.213   1.718  10.604  0.3563 -1.7268  0.5738
 5430TIP3    H237706   0.111   1.617  10.556 -1.3195  1.2100 -2.3638
 5431TIP3   OH237707   5.681   0.636   1.233  0.3766 -0.0181  0.2200
 5431TIP3    H137708   5.618   0.667   1.168  0.3943 -0.1994  0.1157
 5431TIP3    H237709   5.767   0.659   1.196  0.3509  0.7733  0.6451
 5432TIP3   OH237710   1.375   0.005   5.347  0.7193  0.4011 -0.2168
 5432TIP3    H137711   1.292   0.046   5.371  1.1766  0.7394  0.8522
 5432TIP3    H237712   1.428   0.077   5.313  0.6199  0.2091 -0.7787
 5433TIP3   OH237713   3.622   1.432  12.297 -1.1021 -0.1294 -0.0454
 5433TIP3    H137714   3.529   1.433  12.319 -1.2016  1.0883 -0.4376
 5433TIP3    H237715   3.627   1.475  12.212 -0.2960 -1.1985 -0.5567
 5434TIP3   OH237716   5.104   5.161   4.790 -0.2307 -0.5494 -0.2125
 5434TIP3    H137717   5.098   5.226   4.720  1.7980 -0.2117 -0.1390
 5434TIP3    H237718   5.053   5.198   4.862 -1.0234 -0.1588 -0.9607
 5435TIP3   OH237719   2.538   4.604  12.983 -0.1769  0.4564 -0.3401
 5435TIP3    H137720   2.622   4.561  12.966 -0.7544 -0.9997  0.3439
 5435TIP3    H237721   2.550   4.646  13.069 -0.1176  0.3108 -0.2761
 5436TIP3   OH237722   5.805   4.087   5.955  0.9230 -0.0877 -0.3348
 5436TIP3    H137723   5.871   4.091   6.024 -0.2963  1.3552  0.8140
 5436TIP3    H237724   5.722   4.085   6.001  0.1115 -1.1654 -1.7615
 5437TIP3   OH237725   1.854   0.815  13.575 -0.0127  0.2245 -0.4808
 5437TIP3    H137726   1.912   0.785  13.645 -0.8492 -0.6822 -0.1554
 5437TIP3    H237727   1.913   0.857  13.512  1.2952 -2.2457 -1.0371
 5438TIP3   OH237728   0.374   3.331   0.978 -0.0220 -0.6897  0.3647
 5438TIP3    H137729   0.451   3.289   1.016  0.9121  0.6911  0.0543
 5438TIP3    H237730   0.342   3.389   1.047  0.9625  0.9181 -0.4859
 5439TIP3   OH237731   6.470   5.854   3.725  0.1682  0.2193 -0.1060
 5439TIP3    H137732   6.475   5.838   3.820  0.0436  0.1633 -0.1091
 5439TIP3    H237733   6.439   5.944   3.717  1.0060  0.5234 -0.0874
 5440TIP3   OH237734   2.400   5.241   3.517 -0.1299  0.1797 -0.4732
 5440TIP3    H137735   2.332   5.186   3.478 -0.0193 -1.0036  0.9267
 5440TIP3    H237736   2.472   5.238   3.454 -0.7941  0.1774 -1.2441
 5441TIP3   OH237737   3.968   2.279  11.586  0.5976 -0.3683  0.4745
 5441TIP3    H137738   3.927   2.194  11.602  0.6863 -0.4307  0.3654
 5441TIP3    H237739   3.899   2.343  11.606  0.3120 -0.4840 -0.1192
 5442TIP3   OH237740   1.250   3.169   0.907  0.5277 -0.1064  0.0353
 5442TIP3    H137741   1.265   3.099   0.844  0.3578  0.1945 -0.3425
 5442TIP3    H237742   1.328   3.224   0.901  1.7309 -1.4670  1.9590
 5443TIP3   OH237743   3.560   1.201   5.816  0.3791 -0.8499  0.4632
 5443TIP3    H137744   3.631   1.139   5.830  1.1461  0.1147  0.9575
 5443TIP3    H237745   3.517   1.209   5.901  0.9853  0.1179  0.6971
 5444TIP3   OH237746   4.236   0.704  17.202 -0.3842 -0.0916 -0.0456
 5444TIP3    H137747   4.176   0.778  17.189  1.6958  1.4580 -1.3717
 5444TIP3    H237748   4.258   0.707  17.295 -2.2774 -0.7026  0.4831
 5445TIP3   OH237749   0.982   4.796   0.715  0.1750  0.6706 -0.2001
 5445TIP3    H137750   1.012   4.787   0.806 -0.3737 -0.2101 -0.0943
 5445TIP3    H237751   1.058   4.771   0.663 -0.0377 -0.5824  0.0535
 5446TIP3   OH237752   3.951   1.288   3.912  0.1797  0.5509 -0.1945
 5446TIP3    H137753   3.998   1.328   3.985 -2.3921  1.0644  1.3285
 5446TIP3    H237754   3.880   1.350   3.893 -1.7217 -1.5073 -0.2430
 5447TIP3   OH237755   2.441   4.299   0.552 -0.7880 -0.3863 -0.0015
 5447TIP3    H137756   2.382   4.326   0.481 -0.6581 -0.0945  0.0010
 5447TIP3    H237757   2.404   4.216   0.584 -1.4493  0.0070  0.2828
 5448TIP3   OH237758   1.502   4.500   2.531  0.2720 -0.0775 -0.6109
 5448TIP3    H137759   1.420   4.501   2.481 -0.6017 -0.9387  0.7357
 5448TIP3    H237760   1.510   4.589   2.566 -2.3985 -0.9229  2.7003
 5449TIP3   OH237761   1.085   3.209  16.880 -0.3392  0.2005  0.6018
 5449TIP3    H137762   1.113   3.164  16.801 -1.8867  1.8327 -0.9731
 5449TIP3    H237763   1.025   3.149  16.923  0.9380 -0.9189  0.8867
 5450TIP3   OH237764   4.980   1.932  11.378 -0.0437  0.6037  0.0393
 5450TIP3    H137765   5.023   2.004  11.331  1.7029  0.1555  0.8854
 5450TIP3    H237766   5.005   1.853  11.329 -2.3013  0.5382 -1.1408
 5451TIP3   OH237767   0.188   2.261   2.635  0.0191  0.0884  0.3217
 5451TIP3    H137768   0.207   2.289   2.725  1.2476 -0.3988  0.2221
 5451TIP3    H237769   0.265   2.212   2.608 -0.8991 -0.9350 -0.5300
 5452TIP3   OH237770   4.216   6.540  15.023  0.1267  0.0513 -0.0797
 5452TIP3    H137771   4.235   6.594  14.946 -2.0796 -0.6801 -1.2198
 5452TIP3    H237772   4.159   6.594  15.078 -0.5624 -0.3999 -0.3276
 5453TIP3   OH237773   1.144   6.599   6.233 -0.1139  0.0670 -0.3613
 5453TIP3    H137774   1.190   6.620   6.152 -0.1096  0.5757 -0.2323
 5453TIP3    H237775   1.210   6.559   6.289  0.2509  1.0323 -0.0772
 5454TIP3   OH237776   2.305   0.284  16.129  0.5444 -0.4948 -0.0662
 5454TIP3    H137777   2.316   0.375  16.103  0.5933 -0.2858  0.6556
 5454TIP3    H237778   2.346   0.233  16.059  1.0392  0.0576 -0.1792
 5455TIP3   OH237779   6.178   6.007  17.140  0.5869  0.0357 -0.3010
 5455TIP3    H137780   6.148   6.015  17.049 -1.5101  2.4770  0.4922
 5455TIP3    H237781   6.263   5.962  17.133  0.6549  0.4041 -3.4727
 5456TIP3   OH237782   2.823   4.682  16.946 -0.0738  0.0609  0.0414
 5456TIP3    H137783   2.783   4.686  17.033  1.4650  1.6161  0.7318
 5456TIP3    H237784   2.777   4.611  16.902 -1.7565  0.0590  1.6784
 5457TIP3   OH237785   4.601   1.191   1.864 -0.1788 -0.1198  0.3113
 5457TIP3    H137786   4.599   1.234   1.779  0.4338 -1.9924 -0.7125
 5457TIP3    H237787   4.626   1.101   1.845  0.6939 -0.4232  2.5612
 5458TIP3   OH237788   2.874   4.480  16.512  0.7601 -0.2821  0.3559
 5458TIP3    H137789   2.814   4.549  16.541  0.8580  1.0683 -2.3279
 5458TIP3    H237790   2.952   4.493  16.566  0.1610  0.6271  1.0474
 5459TIP3   OH237791   0.002   3.573  17.048  0.1800 -0.4160 -0.1156
 5459TIP3    H137792  -0.065   3.603  17.109  0.7471  0.0128  0.3090
 5459TIP3    H237793   0.085   3.588  17.094  0.5414 -1.6421 -0.3136
 5460TIP3   OH237794   1.809   4.951   0.436  0.4047 -0.1756  0.0272
 5460TIP3    H137795   1.785   5.041   0.412  0.9023 -0.1726 -0.4932
 5460TIP3    H237796   1.855   4.918   0.359  2.0201 -0.1989  0.9547
 5461TIP3   OH237797   0.736   4.927   0.609  0.1519 -0.2702  0.0232
 5461TIP3    H137798   0.820   4.884   0.624  1.5652  1.4372 -2.3465
 5461TIP3    H237799   0.725   4.985   0.685  1.2160 -0.3793  0.2701
 5462TIP3   OH237800   1.245   2.272  16.703  0.2987  0.4002 -0.0767
 5462TIP3    H137801   1.328   2.313  16.678 -0.0570  0.3027 -1.5232
 5462TIP3    H237802   1.191   2.276  16.623 -0.1692 -1.8065  0.0620
 5463TIP3   OH237803   1.335   0.440   0.161 -0.1331 -0.1683 -0.3535
 5463TIP3    H137804   1.421   0.456   0.200  0.2254  0.1676 -1.2443
 5463TIP3    H237805   1.350   0.369   0.099 -0.1788  0.7701 -1.4897
 5464TIP3   OH237806   3.777   6.576  17.183 -0.1402  0.2337 -0.5642
 5464TIP3    H137807   3.815   6.489  17.172 -2.4791 -0.9565 -0.0779
 5464TIP3    H237808   3.734   6.594  17.099 -0.8688  0.2383 -0.2038
 5465TIP3   OH237809   2.750   0.655   5.790  0.2172  0.5518  0.9153
 5465TIP3    H137810   2.817   0.601   5.748 -1.2150 -1.8339  1.4954
 5465TIP3    H237811   2.719   0.713   5.721 -0.3004 -1.5218 -0.7049
 5466TIP3   OH237812   2.923   0.868  16.025 -0.5864 -0.1459  0.1249
 5466TIP3    H137813   2.927   0.787  15.973 -1.2412  0.1120 -0.3535
 5466TIP3    H237814   3.008   0.874  16.068  0.0686 -0.2595 -1.1093
 5467TIP3   OH237815   0.200   4.727   4.909  0.2504 -0.8817  0.3571
 5467TIP3    H137816   0.165   4.726   4.820  0.8973 -0.6131  0.0959
 5467TIP3    H237817   0.166   4.647   4.949 -1.4830 -0.1549  0.4390
 5468TIP3   OH237818   5.917   5.126  13.067  0.3335 -0.1630 -0.4252
 5468TIP3    H137819   6.010   5.132  13.046  0.2846  0.2766 -0.5291
 5468TIP3    H237820   5.914   5.122  13.162  0.4587 -0.2497 -0.4235
 5469TIP3   OH237821   2.701   0.350   2.253  0.0556 -0.3842  0.8637
 5469TIP3    H137822   2.636   0.406   2.211 -2.4648 -2.7738  1.3609
 5469TIP3    H237823   2.771   0.341   2.188 -1.9207 -0.8598 -1.3234
 5470TIP3   OH237824   3.377   1.528   2.506  0.2872  0.1715  0.2606
 5470TIP3    H137825   3.345   1.438   2.503  0.6411  0.0444  0.2767
 5470TIP3    H237826   3.472   1.520   2.509  0.3102  0.4578  2.5952
 5471TIP3   OH237827   2.355   6.717   0.083 -0.5179 -0.5736 -0.2496
 5471TIP3    H137828   2.365   6.783   0.014 -0.1886 -0.2688  0.0887
 5471TIP3    H237829   2.263   6.693   0.079 -1.1560  1.4529  1.0264
 5472TIP3   OH237830   4.972   3.771  13.426 -0.1115  0.1710 -0.2237
 5472TIP3    H137831   5.053   3.821  13.422  1.2175 -1.6371  1.8034
 5472TIP3    H237832   4.904   3.838  13.436  1.2762  1.6636 -0.2821
 5473TIP3   OH237833   2.770   1.828   4.918  0.4330  0.0517  0.2128
 5473TIP3    H137834   2.767   1.733   4.905  0.6038  0.2331 -1.2781
 5473TIP3    H237835   2.697   1.846   4.977  0.5269 -1.0232  0.6802
 5474TIP3   OH237836   4.727   1.164  17.036 -0.0034 -0.0516 -1.1175
 5474TIP3    H137837   4.740   1.211  16.953 -0.6889 -0.1175 -1.2719
 5474TIP3    H237838   4.786   1.089  17.031  1.3910  0.9760 -0.7085
 5475TIP3   OH237839   4.479   3.492   4.045  0.4050  0.2272  0.1067
 5475TIP3    H137840   4.456   3.584   4.062  2.5779  1.0752 -1.1890
 5475TIP3    H237841   4.566   3.482   4.082  1.0614 -0.7033 -1.5909
 5476TIP3   OH237842   6.632   5.210  14.239 -0.0974  0.2323 -0.1628
 5476TIP3    H137843   6.571   5.277  14.269 -2.0268 -1.9251  1.0356
 5476TIP3    H237844   6.582   5.156  14.180  1.0064 -0.9315 -0.0804
 5477TIP3   OH237845   6.751   2.677  17.266  0.1526 -0.3778  0.2837
 5477TIP3    H137846   6.668   2.672  17.313 -0.0272 -2.2835 -0.1508
 5477TIP3    H237847   6.736   2.741  17.197  0.7747  3.4215  3.3401
 5478TIP3   OH237848   4.106   6.354   1.196 -0.5221  0.4519 -0.0570
 5478TIP3    H137849   4.087   6.447   1.201 -1.7083  0.1856  0.8211
 5478TIP3    H237850   4.090   6.321   1.284  2.2200 -0.2041  0.2989
 5479TIP3   OH237851   2.225   3.051  12.791 -0.0910  0.2143  0.3534
 5479TIP3    H137852   2.157   3.104  12.831  0.4181  0.3761  1.0269
 5479TIP3    H237853   2.183   2.967  12.774 -1.1775  1.0931 -1.5890
 5480TIP3   OH237854   4.611   1.023  11.849  0.7689 -0.0948 -0.1456
 5480TIP3    H137855   4.687   0.969  11.827  0.5088 -1.5852  2.2696
 5480TIP3    H237856   4.538   0.961  11.852  0.1693  0.6337  1.1619
 5481TIP3   OH237857   6.254   6.393  11.642 -0.1609  0.0649 -0.1269
 5481TIP3    H137858   6.276   6.482  11.668  0.4091  0.1637 -0.9177
 5481TIP3    H237859   6.159   6.391  11.639 -0.1707  1.1586 -1.7709
 5482TIP3   OH237860   6.428   3.816   0.480  0.4065  0.4184  0.1359
 5482TIP3    H137861   6.445   3.769   0.562 -1.5112 -1.5391 -0.4992
 5482TIP3    H237862   6.371   3.889   0.506  0.6548  0.4288  0.6757
 5483TIP3   OH237863   2.747   1.556   4.924 -0.6711 -0.2372 -0.6405
 5483TIP3    H137864   2.822   1.533   4.868 -0.9356 -2.4610 -0.1636
 5483TIP3    H237865   2.780   1.548   5.013 -1.0837  0.2264 -0.4429
 5484TIP3   OH237866   1.555   6.390  13.422 -0.2544 -0.3853  0.0410
 5484TIP3    H137867   1.536   6.314  13.478  0.9617 -0.2450  0.6853
 5484TIP3    H237868   1.632   6.363  13.372 -0.6635 -0.0843 -0.7622
 5485TIP3   OH237869   5.409   1.631   3.568 -0.1392 -0.2879  0.5577
 5485TIP3    H137870   5.419   1.566   3.498 -0.6205 -0.6723  0.8405
 5485TIP3    H237871   5.369   1.583   3.640 -0.9725  0.4309  0.6012
 5486TIP3   OH237872   4.684   6.352   3.151  0.1983 -0.7784  0.2915
 5486TIP3    H137873   4.673   6.357   3.056  0.6783 -1.7276  0.1639
 5486TIP3    H237874   4.764   6.402   3.168 -1.5451  2.0386  0.6163
 5487TIP3   OH237875   3.558   3.254   3.387  0.2961 -0.1839 -0.2349
 5487TIP3    H137876   3.490   3.318   3.404 -0.1675 -0.2679 -1.6422
 5487TIP3    H237877   3.546   3.187   3.455 -0.7831 -0.0112 -0.2452
 5488TIP3   OH237878   2.192   2.755  13.814  0.5011 -0.0626 -0.2508
 5488TIP3    H137879   2.214   2.663  13.826 -1.2612 -0.4115  0.6804
 5488TIP3    H237880   2.221   2.775  13.725  0.5972 -1.6127 -0.6009
 5489TIP3   OH237881   4.559   1.036  15.129 -0.2558  0.8780 -0.3250
 5489TIP3    H137882   4.582   1.045  15.222 -0.5331 -0.0859 -0.1532
 5489TIP3    H237883   4.578   1.122  15.092  2.8044  0.4719 -0.0047
 5490TIP3   OH237884   0.459   3.756  16.298  0.1595 -0.3527 -0.4850
 5490TIP3    H137885   0.517   3.726  16.228  0.0714 -0.6648 -0.4244
 5490TIP3    H237886   0.375   3.714  16.280  0.0998 -0.3290 -0.2666
 5491TIP3   OH237887   6.760   5.566  13.569 -0.3387  0.1810 -0.1377
 5491TIP3    H137888   6.838   5.562  13.625  0.0017 -2.3792 -0.6970
 5491TIP3    H237889   6.689   5.535  13.624  0.0465 -2.6208 -1.0773
 5492TIP3   OH237890   6.435   1.779   0.470 -0.3012 -0.2083 -0.4088
 5492TIP3    H137891   6.505   1.751   0.411 -1.5769 -2.1216 -1.1156
 5492TIP3    H237892   6.448   1.726   0.549  2.0924  3.1309  1.7244
 5493TIP3   OH237893   5.744   4.154  11.436 -0.1284  0.0139  0.0341
 5493TIP3    H137894   5.776   4.131  11.524 -0.5956 -0.5458  0.0650
 5493TIP3    H237895   5.819   4.140  11.379 -0.4341 -1.8573  0.0194
 5494TIP3   OH237896   5.731   3.867   4.585  0.6467  0.0572  0.8457
 5494TIP3    H137897   5.755   3.919   4.662  2.9123 -1.0083  0.9586
 5494TIP3    H237898   5.783   3.905   4.514  0.6054 -0.6202  0.4421
 5495TIP3   OH237899   0.349   5.158  14.898  0.0830 -0.5009  0.5060
 5495TIP3    H137900   0.388   5.076  14.867 -1.9185 -0.7144 -1.6830
 5495TIP3    H237901   0.298   5.134  14.975 -0.4219 -1.3044 -0.0768
 5496TIP3   OH237902   2.457   1.821  11.607  0.1985  0.1849  0.1721
 5496TIP3    H137903   2.512   1.831  11.529 -0.4967 -0.1397 -0.3813
 5496TIP3    H237904   2.517   1.793  11.676  0.8451  0.5763 -0.2165
 5497TIP3   OH237905   5.978   3.240  12.823 -0.0094  0.6246 -0.5049
 5497TIP3    H137906   5.985   3.324  12.868 -2.0429  0.6738 -0.2017
 5497TIP3    H237907   5.953   3.178  12.891  2.5474 -0.5355 -0.4927
 5498TIP3   OH237908   0.588   3.962   0.297  0.0157  0.1900  0.2419
 5498TIP3    H137909   0.547   4.006   0.223  1.7007  0.4841 -0.5352
 5498TIP3    H237910   0.535   3.990   0.372 -1.6007  0.0425 -0.7799
 5499TIP3   OH237911   6.142   1.875  15.479  0.5709  0.2051  0.3587
 5499TIP3    H137912   6.164   1.784  15.500 -0.1541 -0.0152  0.1757
 5499TIP3    H237913   6.227   1.919  15.475  0.8388 -0.0432  2.3635
 5500TIP3   OH237914   6.699   1.533  16.592 -0.2528  0.3639 -0.3063
 5500TIP3    H137915   6.756   1.586  16.536 -1.2299  1.2154 -0.5205
 5500TIP3    H237916   6.705   1.445  16.557  1.3119  0.3291 -0.0237
 5501TIP3   OH237917   2.297   1.057   2.791 -0.1343 -0.4435 -0.0880
 5501TIP3    H137918   2.259   1.092   2.711 -1.0511  0.7499  0.8452
 5501TIP3    H237919   2.391   1.053   2.772 -0.3439 -0.2729 -1.2498
 5502TIP3   OH237920   1.077   4.604  14.226 -0.2458 -0.2918  0.3836
 5502TIP3    H137921   1.049   4.555  14.148 -1.9539 -1.2375  1.5326
 5502TIP3    H237922   1.026   4.685  14.223 -1.2823 -0.8962  1.1568
 5503TIP3   OH237923   3.798   5.060  14.240 -0.0237  0.2852  1.0517
 5503TIP3    H137924   3.751   5.071  14.157 -0.1223 -0.1743  1.0432
 5503TIP3    H237925   3.890   5.055  14.215 -0.1621 -1.4244  0.8077
 5504TIP3   OH237926   5.985   2.168   2.296  0.4480 -0.5565 -0.1283
 5504TIP3    H137927   5.948   2.114   2.365  0.8046  2.6568  2.8575
 5504TIP3    H237928   6.076   2.179   2.320  0.0189  2.6593  0.4706
 5505TIP3   OH237929   2.754   2.464  17.061 -0.1790  0.6278  0.4592
 5505TIP3    H137930   2.721   2.550  17.088  1.8823  0.9412  2.2640
 5505TIP3    H237931   2.727   2.404  17.131  0.8581  0.4100  0.6925
 5506TIP3   OH237932   4.765   6.351  13.554  0.2610  0.3657 -0.2694
 5506TIP3    H137933   4.690   6.403  13.585 -1.7934 -1.2218 -2.2000
 5506TIP3    H237934   4.788   6.390  13.470  0.2531 -0.3900 -0.6274
 5507TIP3   OH237935   3.970   2.844   5.615 -0.3225  0.3015 -0.6133
 5507TIP3    H137936   3.912   2.884   5.681  0.6705  0.6495  0.0619
 5507TIP3    H237937   4.045   2.903   5.610  0.6607 -0.8866 -0.4145
 5508TIP3   OH237938   5.350   5.354   5.749 -0.1135  0.2072 -0.2540
 5508TIP3    H137939   5.426   5.409   5.731  0.8329 -0.6462  0.8835
 5508TIP3    H237940   5.356   5.336   5.843 -0.1629 -2.0925 -0.6261
 5509TIP3   OH237941   3.020   3.591  12.915 -0.5085 -0.0753  0.4048
 5509TIP3    H137942   2.933   3.592  12.875  0.5277 -0.1690 -2.0243
 5509TIP3    H237943   3.054   3.679  12.901 -0.4644  0.1983  2.0477
 5510TIP3   OH237944   1.807   0.259  14.026 -0.1292 -0.1133  0.2597
 5510TIP3    H137945   1.854   0.323  14.079  0.5458  1.3338 -1.9849
 5510TIP3    H237946   1.719   0.256  14.065  0.0905  1.5089  0.9448
 5511TIP3   OH237947   5.169   2.186  11.431  0.0188 -0.3644  0.3407
 5511TIP3    H137948   5.258   2.154  11.446 -0.0572 -0.4359  0.6518
 5511TIP3    H237949   5.141   2.141  11.351 -0.1684 -1.2763  0.8993
 5512TIP3   OH237950   1.379   2.218   2.297 -0.2456 -0.4027 -0.4134
 5512TIP3    H137951   1.353   2.197   2.208  0.7126  0.3262 -0.8880
 5512TIP3    H237952   1.456   2.275   2.287 -0.3548  0.0112  0.8630
 5513TIP3   OH237953   3.001   6.256  11.702 -0.4166 -0.0355  0.3982
 5513TIP3    H137954   3.008   6.314  11.778 -0.7099  0.8632 -0.2455
 5513TIP3    H237955   3.072   6.192  11.714 -0.5667 -0.0140  1.5016
 5514TIP3   OH237956   5.977   4.975  14.026  0.1116  0.6023 -0.1497
 5514TIP3    H137957   5.967   5.059  13.982  0.9203  0.0338 -1.4881
 5514TIP3    H237958   5.969   4.995  14.119 -1.3431  1.9012 -0.5104
 5515TIP3   OH237959   5.142   2.313  16.830 -0.8462 -0.3002  0.0370
 5515TIP3    H137960   5.146   2.223  16.863 -2.0223 -0.0216  1.0560
 5515TIP3    H237961   5.088   2.307  16.752 -1.0724 -0.4609  0.2037
 5516TIP3   OH237962   4.943   1.302   5.185  0.4093 -0.2007  0.2287
 5516TIP3    H137963   4.945   1.350   5.268  0.1721  0.1428  0.0428
 5516TIP3    H237964   4.894   1.222   5.204  1.5199 -0.7837  0.7481
 5517TIP3   OH237965   3.603   4.513  14.221 -0.1047 -0.1724  0.5284
 5517TIP3    H137966   3.685   4.488  14.178 -1.4637 -1.0085 -1.7746
 5517TIP3    H237967   3.613   4.607  14.239  1.5824 -0.3923  0.8608
 5518TIP3   OH237968   4.578   0.874  14.627 -0.0215 -0.3988 -0.2848
 5518TIP3    H137969   4.569   0.791  14.581  0.3272 -0.2988 -0.5299
 5518TIP3    H237970   4.636   0.855  14.701 -1.3165 -0.7862  0.6794
 5519TIP3   OH237971   2.372   1.888  14.417  0.2976 -0.5959 -0.1462
 5519TIP3    H137972   2.432   1.815  14.430  1.1554 -0.4845 -2.8616
 5519TIP3    H237973   2.314   1.859  14.346 -1.6281  0.0619  1.0851
 5520TIP3   OH237974   1.950   1.100   4.503 -0.2039 -0.3566 -0.5022
 5520TIP3    H137975   1.970   1.147   4.584 -0.4662  0.7594 -1.0551
 5520TIP3    H237976   1.867   1.137   4.474  0.5624  0.3043 -1.9896
 5521TIP3   OH237977   3.629   5.815  11.972  0.7098 -0.5379  0.1506
 5521TIP3    H137978   3.581   5.898  11.970  0.3600 -0.7447 -0.2274
 5521TIP3    H237979   3.654   5.804  12.063 -1.6784 -1.3849  0.7742
 5522TIP3   OH237980   2.181   5.114   1.505 -0.0549 -0.1588  0.2463
 5522TIP3    H137981   2.225   5.052   1.447 -1.1104 -0.8770  0.1931
 5522TIP3    H237982   2.252   5.157   1.552  0.8426  0.6340 -1.7470
 5523TIP3   OH237983   4.185   6.229  17.040 -0.9232  0.2499 -0.1667
 5523TIP3    H137984   4.174   6.274  16.956 -1.3805 -0.0891 -0.2887
 5523TIP3    H237985   4.102   6.184  17.055 -1.7742  2.2300  1.6344
 5524TIP3   OH237986   4.846   3.909  11.478  0.4227  0.0513 -0.0692
 5524TIP3    H137987   4.804   3.837  11.524 -0.2648 -0.8263 -1.9670
 5524TIP3    H237988   4.851   3.880  11.387  0.1221  2.3914 -0.9055
 5525TIP3   OH237989   2.393   2.316  12.455 -0.3374  0.8526  0.8569
 5525TIP3    H137990   2.310   2.337  12.498 -0.9657 -2.2173  1.3919
 5525TIP3    H237991   2.424   2.238  12.501  0.1260 -1.2908 -2.7196
 5526TIP3   OH237992   1.032   3.134  15.712  0.6892  0.4473 -0.4339
 5526TIP3    H137993   1.009   3.225  15.697  0.7557  0.4663 -0.4224
 5526TIP3    H237994   1.004   3.089  15.632  0.7286  0.4912 -0.4727
 5527TIP3   OH237995   5.483   3.445  10.450 -0.4443  0.3692  0.2639
 5527TIP3    H137996   5.495   3.386  10.375 -0.3146  1.3391 -0.5090
 5527TIP3    H237997   5.552   3.511  10.440 -0.5739  0.6458  1.1140
 5528TIP3   OH237998   1.404   4.921   5.538  0.5102 -0.3212  0.5670
 5528TIP3    H137999   1.323   4.918   5.589 -1.0082 -0.6382 -1.6924
 5528TIP3    H238000   1.391   4.994   5.477  2.7833  0.8707  1.4081
 5529TIP3   OH238001   1.491   1.072   6.796  0.4201  0.4729  0.2855
 5529TIP3    H138002   1.521   0.983   6.780 -1.2851 -0.2622  0.9438
 5529TIP3    H238003   1.562   1.114   6.844  0.3418 -1.2436  1.9741
 5530TIP3   OH238004   5.466   0.744  12.961 -0.6462  0.4337 -0.0996
 5530TIP3    H138005   5.550   0.789  12.947 -0.1240 -0.9070 -1.5178
 5530TIP3    H238006   5.403   0.797  12.912 -1.1014  2.5603  2.5123
 5531TIP3   OH238007   6.253   3.149   0.161 -0.3317  0.2232  0.1024
 5531TIP3    H138008   6.216   3.066   0.190  0.5325 -0.3762 -0.4801
 5531TIP3    H238009   6.280   3.134   0.071  2.0492  0.3791  0.7265
 5532TIP3   OH238010   0.200   1.921   1.997 -0.2213 -0.3154  0.1465
 5532TIP3    H138011   0.157   1.887   1.919 -0.4630  1.2894 -0.4570
 5532TIP3    H238012   0.293   1.922   1.975  0.0544 -2.6242  0.9981
 5533TIP3   OH238013   2.140   5.493  15.057 -0.5659  0.1682 -0.3125
 5533TIP3    H138014   2.093   5.556  15.112 -0.5300 -0.3181  0.2852
 5533TIP3    H238015   2.231   5.502  15.082 -0.7310 -1.2046  0.9191
 5534TIP3   OH238016   6.246   4.082  11.895 -0.5625  0.0086  0.6389
 5534TIP3    H138017   6.172   4.025  11.874  0.9390 -1.2597 -1.6604
 5534TIP3    H238018   6.236   4.157  11.837  0.2849 -0.5219 -0.2286
 5535TIP3   OH238019   1.590   6.454  16.417 -0.1822  0.7055 -0.1190
 5535TIP3    H138020   1.675   6.417  16.393 -0.1866  1.2040 -0.9246
 5535TIP3    H238021   1.589   6.450  16.513  0.0046 -0.9400 -0.1583
 5536TIP3   OH238022   5.973   4.879  15.197  0.4394 -0.0805 -0.6630
 5536TIP3    H138023   5.997   4.892  15.289  0.0211 -0.9577 -0.4158
 5536TIP3    H238024   5.882   4.907  15.192  0.9933  1.7881 -1.2597
 5537TIP3   OH238025   3.429   5.451   1.876  0.1069  0.3066  0.3187
 5537TIP3    H138026   3.463   5.369   1.841 -2.7964 -0.7339 -0.3784
 5537TIP3    H238027   3.417   5.434   1.970 -1.5295 -0.5586 -0.0023
 5538TIP3   OH238028   4.565   0.073   4.395  0.1299  0.2125  0.1374
 5538TIP3    H138029   4.540   0.065   4.486  0.9865  1.6087  0.5278
 5538TIP3    H238030   4.517   0.004   4.350 -0.8385 -0.0461  1.5303
 5539TIP3   OH238031   4.969   6.563  14.254 -0.0181 -0.1632 -0.8002
 5539TIP3    H138032   4.910   6.488  14.263 -1.8428  0.7985 -3.4740
 5539TIP3    H238033   5.045   6.529  14.207 -0.0991 -0.6524 -0.5858
 5540TIP3   OH238034   1.475   2.174  15.744 -0.2628  0.2870 -0.2062
 5540TIP3    H138035   1.428   2.176  15.828 -0.7299 -1.4782 -0.3940
 5540TIP3    H238036   1.530   2.096  15.749 -0.1159  0.2990 -1.4467
 5541TIP3   OH238037   4.574   2.720   3.426  0.1918  0.3238  0.0324
 5541TIP3    H138038   4.656   2.723   3.476  0.0855 -1.5412  0.3962
 5541TIP3    H238039   4.574   2.633   3.385 -0.5826  1.1248 -1.7807
 5542TIP3   OH238040   6.118   1.109   5.626  0.6985 -0.0903 -0.1283
 5542TIP3    H138041   6.144   1.024   5.590  1.0719 -0.4762  1.0232
 5542TIP3    H238042   6.200   1.156   5.638  0.5597  0.1071  0.0536
 5543TIP3   OH238043   4.276   4.354   0.888  0.4853  0.0914  0.8651
 5543TIP3    H138044   4.369   4.371   0.903  1.3842 -0.5181 -2.9890
 5543TIP3    H238045   4.272   4.263   0.861 -1.5939 -0.4551  2.7392
 5544TIP3   OH238046   3.394   6.341  17.049 -0.3872  0.2197 -0.1284
 5544TIP3    H138047   3.405   6.251  17.017  0.1753  0.1938  0.1326
 5544TIP3    H238048   3.304   6.344  17.082 -0.6918 -0.0025 -0.9097
 5545TIP3   OH238049   4.204   6.006  17.235 -0.3784 -0.8183  0.0111
 5545TIP3    H138050   4.232   5.957  17.158 -0.1952 -0.9121  0.1376
 5545TIP3    H238051   4.201   6.097  17.206 -0.4841 -0.8730 -0.1552
 5546TIP3   OH238052   1.894   1.330  13.937  0.3643 -0.2086 -0.2903
 5546TIP3    H138053   1.926   1.292  14.019  1.7467 -0.9020 -1.1158
 5546TIP3    H238054   1.925   1.421  13.940 -1.2480  0.3448  0.7948
 5547TIP3   OH238055   3.640   4.389   4.267 -0.2046  0.5958  0.3055
 5547TIP3    H138056   3.638   4.325   4.338 -2.5251  0.6704  0.3844
 5547TIP3    H238057   3.715   4.446   4.288 -0.5386  0.3322  2.4441
 5548TIP3   OH238058   6.714   3.255   0.605  0.4131 -0.0742  0.1201
 5548TIP3    H138059   6.715   3.311   0.528  1.8245 -0.3708 -0.0964
 5548TIP3    H238060   6.805   3.227   0.616 -0.1165 -1.6690  0.6951
 5549TIP3   OH238061   2.749   5.995  15.705  0.1899 -0.0659  0.4796
 5549TIP3    H138062   2.744   5.899  15.707  0.6151 -0.1067 -0.2081
 5549TIP3    H238063   2.692   6.023  15.777 -1.1937 -0.8008 -0.2922
 5550TIP3   OH238064   3.954   2.643  16.098 -0.4016 -0.1074 -0.0049
 5550TIP3    H138065   3.885   2.580  16.118  0.9580 -1.4099  0.7256
 5550TIP3    H238066   4.011   2.598  16.036  0.2555  0.6617  0.0214
 5551TIP3   OH238067   6.740   5.797  11.712  0.0630  0.4104  0.1808
 5551TIP3    H138068   6.687   5.770  11.788 -0.0439 -3.0241 -0.9687
 5551TIP3    H238069   6.830   5.795  11.744  0.0468 -1.3304  0.2086
 5552TIP3   OH238070   1.078   1.426   2.062 -0.1266 -0.1470  0.5589
 5552TIP3    H138071   1.011   1.485   2.026 -0.1821 -1.0650 -0.9202
 5552TIP3    H238072   1.104   1.467   2.145  0.3053  2.3315 -0.6931
 5553TIP3   OH238073   3.355   1.790   4.381 -0.4379 -1.3170 -0.0463
 5553TIP3    H138074   3.403   1.867   4.351 -1.8318  0.2359  1.5056
 5553TIP3    H238075   3.367   1.726   4.310  0.7711  0.2890 -1.3923
 5554TIP3   OH238076   4.597   1.693   6.518  0.0914  0.4510  0.4295
 5554TIP3    H138077   4.685   1.669   6.489  0.7760  1.4484  1.5787
 5554TIP3    H238078   4.593   1.663   6.609 -1.5183 -1.4066 -0.1888
 5555TIP3   OH238079   6.251   6.405  14.926 -0.0256 -0.4325 -0.1064
 5555TIP3    H138080   6.321   6.461  14.894 -1.0117  1.8431  1.4770
 5555TIP3    H238081   6.282   6.316  14.910  1.3614  0.4985 -3.2255
 5556TIP3   OH238082   4.920   5.444  10.782 -0.3923  0.2742  0.2488
 5556TIP3    H138083   4.847   5.427  10.722  0.0715 -1.0970  0.0319
 5556TIP3    H238084   4.988   5.381  10.756  0.7299  1.2623  0.6939
 5557TIP3   OH238085   2.582   0.457   0.156  0.3870 -0.2370 -0.3990
 5557TIP3    H138086   2.656   0.505   0.192  0.5373  0.3359 -1.4231
 5557TIP3    H238087   2.595   0.460   0.061 -1.1933  0.2861 -0.6295
 5558TIP3   OH238088   4.541   1.566   0.197  0.3720 -0.6734 -0.2982
 5558TIP3    H138089   4.490   1.555   0.277 -0.0740 -2.2847 -0.7639
 5558TIP3    H238090   4.578   1.654   0.204 -1.9523  0.3301  0.3548
 5559TIP3   OH238091   6.434   4.656   5.209  0.1526  0.6105  0.2702
 5559TIP3    H138092   6.435   4.747   5.182  0.3064  0.4042 -0.4363
 5559TIP3    H238093   6.483   4.655   5.291  0.7229  1.0639 -0.0574
 5560TIP3   OH238094   0.017   5.460  11.294  0.4426 -0.5291 -0.3685
 5560TIP3    H138095  -0.000   5.448  11.201  0.9147 -0.8928 -0.4128
 5560TIP3    H238096  -0.065   5.496  11.329  0.0690 -0.9182 -0.8201
 5561TIP3   OH238097   1.536   1.704   3.832 -0.0600 -0.0977 -0.0851
 5561TIP3    H138098   1.586   1.746   3.763  0.4937 -1.9104 -0.8327
 5561TIP3    H238099   1.601   1.666   3.890 -0.4967  1.7195  1.7379
 5562TIP3   OH238100   0.134   1.371   1.412 -0.1377 -0.1989 -0.0114
 5562TIP3    H138101   0.161   1.310   1.344  1.1666  1.0998 -0.7083
 5562TIP3    H238102   0.213   1.389   1.462  0.1214  2.6642 -1.2734
 5563TIP3   OH238103   1.968   3.966   2.877  0.4097 -0.1198  0.0900
 5563TIP3    H138104   1.993   3.876   2.856  2.3598 -0.1015  2.0191
 5563TIP3    H238105   1.896   3.957   2.938 -1.3847 -0.2497 -1.9250
 5564TIP3   OH238106   3.081   0.420  12.656  0.1842  0.1964  0.0673
 5564TIP3    H138107   3.149   0.353  12.667  1.2530  1.0524 -1.0363
 5564TIP3    H238108   3.127   0.503  12.669 -0.0604  0.9287 -3.0295
 5565TIP3   OH238109   5.595   0.226  15.998  0.7957 -0.4028 -0.1135
 5565TIP3    H138110   5.604   0.242  15.904 -2.1094 -0.1210 -0.4256
 5565TIP3    H238111   5.517   0.275  16.024 -0.3895 -3.0237  1.7440
 5566TIP3   OH238112   6.630   4.632   0.881  0.6515  0.8045  0.1554
 5566TIP3    H138113   6.535   4.638   0.880  0.3295 -2.3157  0.8225
 5566TIP3    H238114   6.656   4.686   0.956 -0.2797  3.5247 -1.3435
 5567TIP3   OH238115   0.517   2.994  15.085  0.0156  0.1438 -0.4090
 5567TIP3    H138116   0.577   2.930  15.122  0.5868 -0.2058 -1.8805
 5567TIP3    H238117   0.547   3.078  15.119 -1.4350 -0.3741  2.4832
 5568TIP3   OH238118   4.456   0.376  14.309  0.4418  0.1133  0.3900
 5568TIP3    H138119   4.400   0.362  14.385 -0.5697  1.0850 -0.1483
 5568TIP3    H238120   4.396   0.381  14.235  1.3555 -0.2045 -0.4082
 5569TIP3   OH238121   5.871   4.845   0.591  0.5554  0.0842 -0.2807
 5569TIP3    H138122   5.792   4.808   0.552  1.5317  0.1019 -2.4522
 5569TIP3    H238123   5.928   4.769   0.607 -0.0317  0.0078  1.7883
 5570TIP3   OH238124   1.868   3.945   3.397 -0.3392 -0.4714  0.4115
 5570TIP3    H138125   1.963   3.947   3.408 -0.3883  0.3658  0.7575
 5570TIP3    H238126   1.844   4.035   3.377 -1.0695 -0.6624  0.3933
 5571TIP3   OH238127   6.420   5.153  11.277  0.9870 -0.1912 -0.2404
 5571TIP3    H138128   6.328   5.129  11.265  0.7041  0.4219  0.5969
 5571TIP3    H238129   6.459   5.143  11.190 -0.8632  3.7702 -1.7503
 5572TIP3   OH238130   4.851   3.786   4.423 -0.5192  0.3650  0.3211
 5572TIP3    H138131   4.857   3.794   4.518 -1.0111  0.3835  0.3549
 5572TIP3    H238132   4.853   3.876   4.391 -2.5142  0.5096  0.4680
 5573TIP3   OH238133   5.360   0.566  11.692 -0.2871  0.0701  0.2955
 5573TIP3    H138134   5.314   0.561  11.608  0.3963  1.1743 -0.1665
 5573TIP3    H238135   5.413   0.646  11.686 -0.9264  0.6860  2.1493
 5574TIP3   OH238136   0.004   2.017   2.413  0.8811 -0.1295  0.3830
 5574TIP3    H138137  -0.016   1.930   2.448  0.9766  0.0310  0.8402
 5574TIP3    H238138  -0.039   2.018   2.327  0.2513 -0.3653  0.6830
 5575TIP3   OH238139   5.799   4.930   2.579  0.1410  0.0229  0.6313
 5575TIP3    H138140   5.849   5.011   2.578  2.0391 -1.0247 -2.2064
 5575TIP3    H238141   5.863   4.862   2.558 -1.9735 -1.7693 -0.4162
 5576TIP3   OH238142   6.710   2.086   3.770  0.4769 -0.1194  0.3619
 5576TIP3    H138143   6.627   2.134   3.772 -0.3896 -1.5845  1.0927
 5576TIP3    H238144   6.738   2.093   3.679 -0.2674  0.6702  0.1682
 5577TIP3   OH238145   0.196   0.650   0.523 -0.1237  0.1627 -0.2410
 5577TIP3    H138146   0.290   0.643   0.506 -0.2200  0.6452 -1.0215
 5577TIP3    H238147   0.165   0.713   0.459 -0.9440  0.1993  0.1806
 5578TIP3   OH238148   4.653   5.392   5.465  0.1771 -0.0613 -0.4230
 5578TIP3    H138149   4.614   5.406   5.551  0.9275 -0.4810 -0.0100
 5578TIP3    H238150   4.629   5.302   5.441 -0.9119  0.3953 -1.1256
 5579TIP3   OH238151   5.496   6.654   1.939  0.0195  1.0741  0.2319
 5579TIP3    H138152   5.441   6.727   1.910 -0.5850  0.2266 -0.8571
 5579TIP3    H238153   5.580   6.694   1.962 -0.6903  2.2584  0.8581
 5580TIP3   OH238154   4.309   6.128  15.397 -0.2452 -0.6604  0.0880
 5580TIP3    H138155   4.237   6.069  15.372 -0.8522  0.4257 -0.8024
 5580TIP3    H238156   4.367   6.073  15.451 -0.3418 -2.3253 -1.3969
 5581TIP3   OH238157   0.772   2.775  12.078  0.2039 -0.3996 -0.6256
 5581TIP3    H138158   0.781   2.841  12.009  0.8892  0.2546  0.0667
 5581TIP3    H238159   0.777   2.692  12.032  0.9270  0.0269 -1.3489
 5582TIP3   OH238160   4.813   4.213   0.232  0.2115 -0.5916 -0.6742
 5582TIP3    H138161   4.891   4.263   0.207  0.2659 -0.1184  0.3792
 5582TIP3    H238162   4.837   4.121   0.219  0.9300 -0.4428 -0.4046
 5583TIP3   OH238163   4.611   4.671  15.711 -0.2764  0.5936 -0.4335
 5583TIP3    H138164   4.589   4.652  15.619 -0.5577 -1.8873  0.0809
 5583TIP3    H238165   4.544   4.733  15.739 -0.2236  1.3504 -1.8597
 5584TIP3   OH238166   5.360   6.254   0.410  0.5860  0.2000 -0.0672
 5584TIP3    H138167   5.443   6.226   0.370  2.0852 -0.2404  2.9922
 5584TIP3    H238168   5.376   6.344   0.439  1.0721 -0.7166  2.8483
 5585TIP3   OH238169   2.151   1.180   3.086 -0.0165 -0.0567  0.3672
 5585TIP3    H138170   2.193   1.262   3.111 -2.5151  0.8943  1.8352
 5585TIP3    H238171   2.117   1.144   3.168 -2.0605 -0.6970 -0.6827
 5586TIP3   OH238172   6.652   0.836   6.172  0.1695 -0.0217  0.2807
 5586TIP3    H138173   6.654   0.869   6.083  0.3410 -0.4076  0.1380
 5586TIP3    H238174   6.665   0.913   6.227  0.1991  0.1960 -0.0303
 5587TIP3   OH238175   4.429   1.094   4.223 -0.5444 -0.1065 -0.0867
 5587TIP3    H138176   4.337   1.068   4.217 -0.6808 -0.9115  3.3629
 5587TIP3    H238177   4.427   1.190   4.219 -1.3405 -0.1539 -1.4411
 5588TIP3   OH238178   0.128   2.176   5.640 -0.0642  0.0114  0.1387
 5588TIP3    H138179   0.187   2.241   5.599  1.6197 -1.5601 -0.0660
 5588TIP3    H238180   0.167   2.160   5.726 -1.6756  0.7789  1.0573
 5589TIP3   OH238181   6.248   6.529   1.433  0.2855  0.2916  0.3408
 5589TIP3    H138182   6.270   6.448   1.386 -1.4315 -0.9270  1.4594
 5589TIP3    H238183   6.240   6.595   1.365  1.7418 -0.4612 -0.6152
 5590TIP3   OH238184   5.190   1.799   2.384  0.0763 -0.1282  0.1724
 5590TIP3    H138185   5.217   1.827   2.297  1.2421 -0.0319  0.5471
 5590TIP3    H238186   5.098   1.774   2.374 -0.6719  2.5504 -0.4780
 5591TIP3   OH238187   1.330   4.612  11.398  0.5909 -0.1401 -0.0534
 5591TIP3    H138188   1.236   4.626  11.383  0.4584 -0.2009  0.6428
 5591TIP3    H238189   1.341   4.517  11.394  0.2679 -0.2838  1.6597
 5592TIP3   OH238190   3.878   1.295   5.429 -0.4189  0.5979  0.3886
 5592TIP3    H138191   3.959   1.338   5.406  0.7903 -1.9559 -0.5166
 5592TIP3    H238192   3.831   1.285   5.346 -0.3131 -0.4795  0.4490
 5593TIP3   OH238193   4.574   4.726  13.341 -0.1996 -0.1719  0.2268
 5593TIP3    H138194   4.515   4.802  13.342  0.2831  0.1985  0.6289
 5593TIP3    H238195   4.651   4.756  13.292 -0.9181 -1.1078 -1.5894
 5594TIP3   OH238196   0.138   6.099   3.483  0.3561 -0.1308  0.1426
 5594TIP3    H138197   0.233   6.091   3.496  0.6957 -5.4559 -2.8326
 5594TIP3    H238198   0.100   6.046   3.553 -0.6833  2.4617  1.6889
 5595TIP3   OH238199   6.760   6.037   1.058 -0.1364  0.2206 -0.3481
 5595TIP3    H138200   6.710   5.977   1.004 -2.5486  0.3877  1.5450
 5595TIP3    H238201   6.741   6.011   1.148  2.1840  1.1528  0.4968
 5596TIP3   OH238202   2.294   3.656  13.467  0.7047  0.1500  0.0413
 5596TIP3    H138203   2.276   3.563  13.455  0.4305  0.0060  1.3946
 5596TIP3    H238204   2.320   3.664  13.559 -0.3843  1.5693  0.2574
 5597TIP3   OH238205   3.139   0.942  15.518  0.3651  0.1174 -0.2645
 5597TIP3    H138206   3.079   1.015  15.530 -1.4542 -1.1321 -1.0745
 5597TIP3    H238207   3.110   0.876  15.582  1.6055 -0.1031  0.0880
 5598TIP3   OH238208   1.426   5.710  13.417  0.2368  0.5507 -0.5510
 5598TIP3    H138209   1.407   5.798  13.384 -0.5219 -0.5521 -3.3020
 5598TIP3    H238210   1.341   5.676  13.444  0.4118  0.3601 -0.2342
 5599TIP3   OH238211   5.193   6.246   2.313 -0.2750  0.4922 -0.6742
 5599TIP3    H138212   5.192   6.175   2.377 -1.6912  0.8874 -0.2145
 5599TIP3    H238213   5.219   6.323   2.364  2.1209  0.2202 -1.3396
 5600TIP3   OH238214   1.032   6.668   3.918  0.2033 -0.2512 -0.5490
 5600TIP3    H138215   1.085   6.636   3.845  0.3595 -0.2755 -0.4256
 5600TIP3    H238216   1.043   6.601   3.986  2.0813  0.9779  0.4394
 5601TIP3   OH238217   3.866   4.506   5.634 -0.0542  0.5048  0.6893
 5601TIP3    H138218   3.794   4.548   5.587  0.2153  2.2181  1.7037
 5601TIP3    H238219   3.835   4.418   5.652 -2.2108  1.3931  1.6743
 5602TIP3   OH238220   5.384   5.826   0.158 -0.3899  0.3026  0.4714
 5602TIP3    H138221   5.384   5.733   0.180 -1.4481  0.3568  0.7316
 5602TIP3    H238222   5.408   5.870   0.240 -0.4947  0.2943  0.5064
 5603TIP3   OH238223   0.892   3.287  14.820 -0.2244 -0.3406  0.1413
 5603TIP3    H138224   0.859   3.332  14.898  0.7061 -0.1910  0.4583
 5603TIP3    H238225   0.985   3.309  14.817 -0.0212 -1.2158 -0.4120
 5604TIP3   OH238226   4.627   2.930   0.872 -0.6311 -0.0917 -0.2421
 5604TIP3    H138227   4.682   2.853   0.887 -0.1243 -0.2056 -2.3520
 5604TIP3    H238228   4.688   2.998   0.843 -1.2634  0.6356  0.1231
 5605TIP3   OH238229   2.232   4.759  12.070 -0.3352  0.3757  0.4263
 5605TIP3    H138230   2.229   4.750  12.166  1.8317  0.6490  0.5655
 5605TIP3    H238231   2.258   4.673  12.038 -0.0333  0.5612  0.1673
 5606TIP3   OH238232   5.259   3.304   1.555 -0.4332  0.4154 -0.9751
 5606TIP3    H138233   5.293   3.273   1.471 -0.7897  0.7162 -1.2328
 5606TIP3    H238234   5.313   3.259   1.620  0.5632  1.0018 -1.3721
 5607TIP3   OH238235   2.967   2.849   2.661  0.1227  0.2348  0.1956
 5607TIP3    H138236   3.017   2.890   2.731  2.2907  0.0375 -1.1625
 5607TIP3    H238237   2.938   2.765   2.697  1.8050 -0.1792  0.6426
 5608TIP3   OH238238   2.523   3.453   1.222  0.7142 -0.0746 -0.8688
 5608TIP3    H138239   2.610   3.423   1.250  0.0443 -2.0650 -0.8161
 5608TIP3    H238240   2.540   3.506   1.144  1.9817 -0.4823 -0.8900
 5609TIP3   OH238241   2.724   0.024  11.538 -0.8278 -1.1683 -0.7713
 5609TIP3    H138242   2.765  -0.048  11.585  0.0856  0.5081  1.1927
 5609TIP3    H238243   2.633  -0.002  11.527 -0.5757 -2.5131  0.0814
 5610TIP3   OH238244   0.606   1.827   4.689  0.4755 -0.3105  0.2431
 5610TIP3    H138245   0.517   1.854   4.712 -0.2863 -2.6677  0.4357
 5610TIP3    H238246   0.658   1.841   4.768  0.0810  0.2907  0.3986
 5611TIP3   OH238247   3.571   0.680   3.996  0.1132  0.4323 -0.0357
 5611TIP3    H138248   3.663   0.691   4.020  0.0679 -0.8781  0.8239
 5611TIP3    H238249   3.530   0.640   4.073 -0.7444 -0.8778 -1.1184
 5612TIP3   OH238250   2.189   2.598  14.562  0.0883  0.8218  0.7845
 5612TIP3    H138251   2.185   2.688  14.593  2.4126  0.6239  1.8871
 5612TIP3    H238252   2.193   2.545  14.641 -0.9054 -0.2538  0.1456
 5613TIP3   OH238253   3.416   6.682  13.079 -0.6787 -0.0089 -0.5412
 5613TIP3    H138254   3.341   6.640  13.038 -0.0687 -0.1907 -1.5049
 5613TIP3    H238255   3.492   6.634  13.046 -0.0932  0.5554 -0.0577
 5614TIP3   OH238256   2.077   4.517   4.139 -0.1799  0.5944  0.0257
 5614TIP3    H138257   2.147   4.537   4.076 -0.5437 -1.7884 -1.2542
 5614TIP3    H238258   2.108   4.438   4.184 -2.3781 -1.1247 -1.2614
 5615TIP3   OH238259   0.205   2.666  15.525 -0.3890 -0.1276 -0.6565
 5615TIP3    H138260   0.138   2.717  15.478 -1.1506 -1.3177 -0.8984
 5615TIP3    H238261   0.211   2.709  15.611 -1.1059  0.3003 -0.8072
 5616TIP3   OH238262   0.178   0.262   6.255 -0.2340  0.5540 -0.3187
 5616TIP3    H138263   0.200   0.337   6.310  0.3604 -0.0302  0.2461
 5616TIP3    H238264   0.199   0.186   6.308 -1.5206 -0.0323 -0.6093
 5617TIP3   OH238265   5.962   5.880   6.154  0.5056 -0.3253 -0.5185
 5617TIP3    H138266   6.023   5.953   6.147  0.5678 -0.1355  1.3648
 5617TIP3    H238267   6.016   5.806   6.183  0.2970 -0.9181 -1.5908
 5618TIP3   OH238268   1.875   5.020  14.719  0.4223  0.2931 -0.0156
 5618TIP3    H138269   1.951   5.073  14.742  0.2279  1.1221 -1.2313
 5618TIP3    H238270   1.907   4.929  14.725  1.7393  0.6374 -1.2761
 5619TIP3   OH238271   1.470   2.740  13.746 -0.0193  0.1424 -0.2580
 5619TIP3    H138272   1.387   2.716  13.787  0.6799  0.0470  1.1749
 5619TIP3    H238273   1.480   2.833  13.765  1.1759 -0.2898  1.4676
 5620TIP3   OH238274   4.031   2.886   2.609  0.2153 -0.1856 -0.1697
 5620TIP3    H138275   4.072   2.912   2.692  0.4029 -0.9976  0.0053
 5620TIP3    H238276   4.080   2.934   2.542  0.7454 -0.3134  0.1191
 5621TIP3   OH238277   4.768   5.217   4.465 -0.4891 -0.0021 -0.1458
 5621TIP3    H138278   4.713   5.164   4.522  0.8077 -1.4185 -0.1391
 5621TIP3    H238279   4.843   5.242   4.520 -1.1059  1.9630 -0.1250
 5622TIP3   OH238280   2.464   2.833  14.124  0.2382 -0.5832 -0.3544
 5622TIP3    H138281   2.436   2.924  14.119  0.8854 -0.4119 -1.0846
 5622TIP3    H238282   2.457   2.810  14.216  1.6042  0.7033  0.0919
 5623TIP3   OH238283   2.223   1.703  16.240 -0.6156 -0.2213  0.6274
 5623TIP3    H138284   2.304   1.754  16.247 -2.2995  3.1680 -1.7179
 5623TIP3    H238285   2.178   1.718  16.324 -0.5580  1.3601  0.4159
 5624TIP3   OH238286   2.481   3.262   4.240  0.2974 -0.4900 -0.2242
 5624TIP3    H138287   2.423   3.294   4.171 -0.0008 -0.2349  0.1435
 5624TIP3    H238288   2.439   3.289   4.322  0.8717 -0.4055  0.0499
 5625TIP3   OH238289   6.661   4.421   4.678 -0.3154 -0.0629  0.3839
 5625TIP3    H138290   6.692   4.487   4.739 -0.3485  1.1104 -0.8256
 5625TIP3    H238291   6.566   4.421   4.687 -0.4027  0.8949 -0.4265
 5626TIP3   OH238292   6.073   1.527   4.996  0.5471 -0.1399  0.0321
 5626TIP3    H138293   5.995   1.472   4.990  1.4583 -1.4514 -0.4758
 5626TIP3    H238294   6.101   1.538   4.905  0.4180  1.1518  0.1318
 5627TIP3   OH238295   5.685   2.874   3.986  0.0437  0.4659 -0.1415
 5627TIP3    H138296   5.754   2.829   3.937  1.4779  1.7758  0.5990
 5627TIP3    H238297   5.724   2.890   4.072 -2.4538 -1.9645  1.6226
 5628TIP3   OH238298   6.139   3.512   4.663  1.1169  0.0640 -0.0438
 5628TIP3    H138299   6.123   3.420   4.642 -1.2496  0.3202  0.4050
 5628TIP3    H238300   6.127   3.518   4.757  0.9186  0.8889 -0.1151
 5629TIP3   OH238301   4.565   0.025   0.743 -0.3644  0.3982 -0.0496
 5629TIP3    H138302   4.636   0.027   0.807 -1.9562  0.2849  1.8207
 5629TIP3    H238303   4.502   0.090   0.776 -1.4280  0.0382 -1.2926
 5630TIP3   OH238304   2.261   4.090   6.298 -0.1367 -0.1844 -0.0071
 5630TIP3    H138305   2.282   4.031   6.371  0.4372 -0.2089 -0.1883
 5630TIP3    H238306   2.201   4.040   6.243 -1.5492  0.2655  1.0592
 5631TIP3   OH238307   1.646   0.883   2.760  0.0154 -0.2886 -0.0757
 5631TIP3    H138308   1.588   0.836   2.699 -0.1032 -0.4283  0.1448
 5631TIP3    H238309   1.587   0.917   2.828 -0.0464  1.0000 -0.7291
 5632TIP3   OH238310   1.903   1.945  17.015 -0.8294 -0.3287 -0.6640
 5632TIP3    H138311   1.904   2.019  16.955  0.3194  1.0924  1.0127
 5632TIP3    H238312   1.992   1.942  17.051 -0.6181 -2.9673 -1.1439
 5633TIP3   OH238313   6.375   0.677  10.338  0.1409  0.2079  0.0126
 5633TIP3    H138314   6.372   0.618  10.414 -1.3396 -0.3818 -0.4603
 5633TIP3    H238315   6.466   0.705  10.333  1.1075 -2.5688 -0.0954
 5634TIP3   OH238316   6.159   2.802  14.779  0.2095 -0.1154  0.1388
 5634TIP3    H138317   6.165   2.895  14.755 -1.3807 -0.1366 -0.4865
 5634TIP3    H238318   6.137   2.758  14.697  0.7559 -1.0237  0.4725
 5635TIP3   OH238319   3.364   4.481   5.725  0.2694  0.5874  0.1769
 5635TIP3    H138320   3.369   4.437   5.640 -0.5466  1.1334 -0.1696
 5635TIP3    H238321   3.446   4.530   5.732  0.1247  0.9371 -0.5257
 5636TIP3   OH238322   4.046   2.584  15.444 -0.5871 -0.0024  0.2343
 5636TIP3    H138323   4.084   2.549  15.363  0.2062  1.3165 -0.0018
 5636TIP3    H238324   3.954   2.602  15.421 -0.5777 -0.3953 -0.1229
 5637TIP3   OH238325   2.395   1.505   4.971  0.1614 -0.2913  0.1424
 5637TIP3    H138326   2.405   1.424   4.921 -1.6186  1.5464 -3.6321
 5637TIP3    H238327   2.472   1.557   4.948 -0.3405  0.3125 -0.2303
 5638TIP3   OH238328   3.125   6.174  12.506  0.1517  0.1611  0.0351
 5638TIP3    H138329   3.217   6.192  12.489  0.2156 -0.2452 -0.0717
 5638TIP3    H238330   3.110   6.087  12.468  0.0044 -0.2658  1.0384
 5639TIP3   OH238331   0.685   5.562  10.860  0.0150 -0.0912  0.1118
 5639TIP3    H138332   0.646   5.627  10.919 -1.5150 -1.1145  0.2989
 5639TIP3    H238333   0.779   5.573  10.870 -0.2142  0.4948  1.9420
 5640TIP3   OH238334   3.949   1.669   4.266 -0.0546  0.6315 -0.1690
 5640TIP3    H138335   4.026   1.614   4.255 -1.0903 -0.7332 -0.9757
 5640TIP3    H238336   3.946   1.688   4.360  1.5017  1.1148 -0.1951
 5641TIP3   OH238337   5.982   4.818   5.161 -0.4329 -0.1913 -0.4165
 5641TIP3    H138338   6.053   4.875   5.191  0.9904 -1.5129 -1.1348
 5641TIP3    H238339   5.941   4.866   5.089  0.0425  0.3768 -0.3182
 5642TIP3   OH238340   3.643   0.206  12.826 -0.8194  0.3141 -0.5875
 5642TIP3    H138341   3.680   0.148  12.759  0.1428 -1.1553  1.0942
 5642TIP3    H238342   3.598   0.146  12.886  1.2956  1.0151  1.9344
 5643TIP3   OH238343   0.351   4.608   5.806 -0.4494 -0.4858  0.4476
 5643TIP3    H138344   0.402   4.594   5.726 -0.4515  1.8553 -0.0415
 5643TIP3    H238345   0.284   4.540   5.805 -0.0667 -0.8707 -1.2341
 5644TIP3   OH238346   5.333   0.086   0.704  0.0369  0.5118  0.1318
 5644TIP3    H138347   5.384   0.007   0.726  0.0575  0.7941  1.1532
 5644TIP3    H238348   5.397   0.146   0.666  0.4903  0.8530  1.3835
 5645TIP3   OH238349   0.170   2.592   2.865  0.4293 -0.0114  0.7790
 5645TIP3    H138350   0.075   2.598   2.848  0.7265 -1.8538 -2.4627
 5645TIP3    H238351   0.177   2.528   2.936 -0.7601 -0.3320  0.6355
 5646TIP3   OH238352   0.548   4.807  16.836 -0.8161  0.3773  0.5474
 5646TIP3    H138353   0.457   4.779  16.837 -0.3390 -1.3095 -0.2043
 5646TIP3    H238354   0.584   4.777  16.920 -0.5715 -0.3433  0.1902
 5647TIP3   OH238355   2.015   6.078   1.336  0.3023 -0.5982  0.2493
 5647TIP3    H138356   2.014   6.157   1.390 -1.6175 -1.2589  1.2893
 5647TIP3    H238357   2.041   6.009   1.396  0.5244 -0.9946 -0.2961
 5648TIP3   OH238358   2.610   4.248  17.214 -0.0995  0.4319  0.1322
 5648TIP3    H138359   2.525   4.264  17.175  0.0307 -0.1070 -0.3924
 5648TIP3    H238360   2.637   4.332  17.250 -0.9567  0.5486  0.5098
 5649TIP3   OH238361   4.871   2.291   2.736  0.1106 -0.0604  0.6201
 5649TIP3    H138362   4.948   2.247   2.699 -0.4692  0.4444 -1.2730
 5649TIP3    H238363   4.796   2.243   2.700 -0.5178 -0.4904  2.3674
 5650TIP3   OH238364   2.478   6.362  15.879 -0.1033 -0.6583 -0.5140
 5650TIP3    H138365   2.429   6.384  15.800 -1.1287  0.3948  0.3872
 5650TIP3    H238366   2.502   6.270  15.867 -1.1526 -0.8237 -1.5644
 5651TIP3   OH238367   6.303   5.682   4.333  0.1778  0.1908  0.2032
 5651TIP3    H138368   6.301   5.726   4.418  0.0978 -1.1501  0.9358
 5651TIP3    H238369   6.371   5.615   4.343  0.1874  0.0417 -0.7991
 5652TIP3   OH238370   3.971   6.654  13.021 -0.3717 -0.2505 -0.3724
 5652TIP3    H138371   3.985   6.571  13.067  1.1173  0.1772  0.0155
 5652TIP3    H238372   3.948   6.629  12.932  0.3263 -1.0944 -0.3341
 5653TIP3   OH238373   3.330   0.570  16.488 -0.1403 -0.2590 -0.1905
 5653TIP3    H138374   3.316   0.594  16.396 -1.2210  0.1841  0.0717
 5653TIP3    H238375   3.267   0.500  16.504  0.1388 -0.4258  0.1819
 5654TIP3   OH238376   1.140   1.365  12.759 -0.2736  0.6805  0.1575
 5654TIP3    H138377   1.083   1.356  12.682  0.5781 -1.2631 -0.3236
 5654TIP3    H238378   1.108   1.299  12.820  1.4446 -0.5204 -0.1642
 5655TIP3   OH238379   5.273   6.409  15.991 -0.5225 -0.6544 -0.1185
 5655TIP3    H138380   5.255   6.344  15.923  0.0483 -1.0787  0.1191
 5655TIP3    H238381   5.234   6.490  15.959 -1.3018 -1.1300 -0.3953
 5656TIP3   OH238382   3.532   1.861  14.683  0.0007  0.2164 -0.4797
 5656TIP3    H138383   3.586   1.859  14.762  0.8911  1.0678 -1.0318
 5656TIP3    H238384   3.595   1.855  14.611 -0.6236  1.2374 -1.1454
 5657TIP3   OH238385   2.054   5.918   1.992  0.2925 -0.6550  0.0129
 5657TIP3    H138386   1.961   5.917   2.014  0.1149  0.4769 -0.5848
 5657TIP3    H238387   2.064   5.850   1.926 -0.3810  0.0369 -0.8334
 5658TIP3   OH238388   1.820   4.588   3.254 -0.0272 -0.0128 -0.5020
 5658TIP3    H138389   1.752   4.530   3.220  0.1838 -0.7919  0.3458
 5658TIP3    H238390   1.836   4.651   3.184 -2.0376  0.5630 -0.4874
 5659TIP3   OH238391   0.828   5.569   3.423 -0.2287 -0.6377 -0.3711
 5659TIP3    H138392   0.750   5.595   3.375  0.8703  1.2806 -1.2360
 5659TIP3    H238393   0.808   5.588   3.514 -1.4989 -2.1496 -0.2997
 5660TIP3   OH238394   1.324   4.113   0.678 -0.2749  0.1400 -0.1428
 5660TIP3    H138395   1.410   4.124   0.717 -0.6089 -0.0228  0.6521
 5660TIP3    H238396   1.326   4.169   0.600  1.0217 -0.9349 -0.9127
 5661TIP3   OH238397   3.258   2.927  12.975 -0.4707 -0.0926 -0.3010
 5661TIP3    H138398   3.295   2.848  12.936  2.1347  0.4906  0.7612
 5661TIP3    H238399   3.284   2.923  13.067 -0.3529  1.9057 -0.2044
 5662TIP3   OH238400   6.222   1.073   5.287 -0.5393  0.5752  0.5851
 5662TIP3    H138401   6.225   1.038   5.376  1.6224  2.0552  1.1700
 5662TIP3    H238402   6.132   1.104   5.276 -0.9845 -0.1351  2.0318
 5663TIP3   OH238403   1.066   5.595  16.721 -0.7003  0.2505  0.0986
 5663TIP3    H138404   1.073   5.516  16.668  1.8648  0.1891  0.3846
 5663TIP3    H238405   1.014   5.655  16.668  0.2879 -0.4264 -1.7325
 5664TIP3   OH238406   6.226   1.616  14.366  0.2234  0.3869  0.0228
 5664TIP3    H138407   6.182   1.608  14.451  1.5759  0.6291  0.7708
 5664TIP3    H238408   6.312   1.575  14.379  0.8715  1.4013 -0.8982
 5665TIP3   OH238409   4.844   5.375  14.603  0.0580  0.2235  0.3856
 5665TIP3    H138410   4.815   5.430  14.530 -0.1284  0.2545  0.4823
 5665TIP3    H238411   4.835   5.286  14.570  0.1228  0.2427  0.3153
 5666TIP3   OH238412   4.992   6.361   0.079  0.0207  0.1816  0.1341
 5666TIP3    H138413   4.911   6.406   0.054  0.7273  0.8863 -0.9396
 5666TIP3    H238414   4.965   6.270   0.093 -0.5193 -0.2443 -3.0174
 5667TIP3   OH238415   5.588   1.016  16.479 -0.1104  0.4290 -0.2093
 5667TIP3    H138416   5.601   0.952  16.409 -0.8261  1.1071 -0.9949
 5667TIP3    H238417   5.514   0.981  16.529  0.0821  0.1907 -0.0894
 5668TIP3   OH238418   3.745   1.122  15.441 -0.2151 -0.1908 -0.7227
 5668TIP3    H138419   3.695   1.074  15.507  0.5868 -0.9197 -0.6287
 5668TIP3    H238420   3.748   1.064  15.365 -1.5238  0.8348 -1.5957
 5669TIP3   OH238421   3.944   2.720  14.628 -0.2242  0.3643  0.4638
 5669TIP3    H138422   3.881   2.653  14.656  1.1130 -1.6120 -0.9538
 5669TIP3    H238423   4.029   2.684  14.651  0.6159  0.9217 -1.5318
 5670TIP3   OH238424   5.206   4.669  14.006  0.1700  0.0596 -0.4579
 5670TIP3    H138425   5.168   4.594  14.052  0.6261 -1.0821 -1.8743
 5670TIP3    H238426   5.300   4.659  14.019  0.4695 -1.3835 -3.1369
 5671TIP3   OH238427   2.034   0.114   6.679  0.3836 -0.3289 -0.3567
 5671TIP3    H138428   2.074   0.198   6.655  2.2231 -1.0254  0.0878
 5671TIP3    H238429   1.940   0.127   6.666  0.5942  1.8934  0.0000
 5672TIP3   OH238430   2.415   2.526   5.779 -0.0697 -0.0578 -0.6716
 5672TIP3    H138431   2.358   2.503   5.853 -1.2518 -0.0584 -1.5453
 5672TIP3    H238432   2.469   2.448   5.764 -0.9820 -0.6760 -0.8395
 5673TIP3   OH238433   2.311   2.184   2.922  0.8099  0.3055  0.3783
 5673TIP3    H138434   2.377   2.248   2.894  0.1730  0.3837 -1.0002
 5673TIP3    H238435   2.306   2.122   2.850 -0.9811  0.5741  0.2338
 5674TIP3   OH238436   5.908   3.449   1.209  0.2124  0.4856 -0.2167
 5674TIP3    H138437   5.814   3.435   1.202 -0.0398  1.8169  0.3945
 5674TIP3    H238438   5.946   3.365   1.181 -1.1819 -0.7280  1.2942
 5675TIP3   OH238439   4.451   3.559   5.394  0.5131  0.0647 -0.2439
 5675TIP3    H138440   4.442   3.599   5.308 -1.4636  0.6374  0.1777
 5675TIP3    H238441   4.368   3.579   5.439  0.4638 -2.3349  0.9020
 5676TIP3   OH238442   3.383   2.659   0.453 -0.0884  0.1630  0.7478
 5676TIP3    H138443   3.400   2.738   0.403  0.5316  1.2733  2.6266
 5676TIP3    H238444   3.374   2.590   0.387  2.8697  1.1182 -0.8368
 5677TIP3   OH238445   2.928   2.202   5.120  0.0987 -0.7093 -0.3257
 5677TIP3    H138446   2.904   2.173   5.032  0.8164 -1.8270 -0.1831
 5677TIP3    H238447   2.858   2.261   5.146  0.7089  0.9871 -2.2854
 5678TIP3   OH238448   1.095   3.410   4.580  0.1703 -0.2708  0.5278
 5678TIP3    H138449   1.190   3.411   4.579  0.2984 -3.1019 -1.6881
 5678TIP3    H238450   1.071   3.495   4.617  3.4953  0.1434  2.1094
 5679TIP3   OH238451   4.687   3.523  15.544 -0.2026 -0.0834 -0.1458
 5679TIP3    H138452   4.745   3.454  15.512  0.6602  0.1534  0.8620
 5679TIP3    H238453   4.734   3.561  15.619 -1.4889  0.3721  0.4510
 5680TIP3   OH238454   5.331   0.619  14.153  0.2171 -0.1900  0.1303
 5680TIP3    H138455   5.236   0.628  14.151  0.1251 -1.0872 -1.5939
 5680TIP3    H238456   5.351   0.595  14.243 -1.2559 -0.5829  0.3783
 5681TIP3   OH238457   3.928   1.158  13.200  0.3944 -0.5806 -0.4867
 5681TIP3    H138458   3.939   1.065  13.218 -0.3502 -0.2610  1.9843
 5681TIP3    H238459   3.853   1.162  13.141 -1.1711 -1.4756  1.3371
 5682TIP3   OH238460   2.276   0.263  11.345  1.2029 -0.1607 -0.1846
 5682TIP3    H138461   2.308   0.184  11.302  2.2057  0.7829 -1.2213
 5682TIP3    H238462   2.307   0.335  11.291 -0.9752  0.9205 -0.1285
 5683TIP3   OH238463   2.647   3.472   5.890 -0.0193 -0.1674 -0.0197
 5683TIP3    H138464   2.573   3.514   5.846  0.1611  0.3115  0.1317
 5683TIP3    H238465   2.657   3.389   5.844 -2.0382 -1.2528  1.3229
 5684TIP3   OH238466   0.396   6.293   3.916  0.4281 -0.1736  0.5091
 5684TIP3    H138467   0.319   6.281   3.859  1.3460 -0.5743 -0.6939
 5684TIP3    H238468   0.383   6.379   3.955 -1.1485 -0.6573  1.1708
 5685TIP3   OH238469   2.797   1.547   5.204 -0.1892  0.1073  0.0897
 5685TIP3    H138470   2.756   1.599   5.274 -2.5742 -2.6351  0.9273
 5685TIP3    H238471   2.861   1.492   5.250  0.3303  0.3341 -0.3576
 5686TIP3   OH238472   0.633   4.398   6.276  0.0022 -0.1623 -0.0173
 5686TIP3    H138473   0.689   4.342   6.331  0.7109 -0.6350 -1.1829
 5686TIP3    H238474   0.608   4.470   6.334  0.6379 -0.6970  0.9603
 5687TIP3   OH238475   0.949   4.820   1.400 -0.2113 -0.2407  0.2730
 5687TIP3    H138476   0.898   4.771   1.336  0.5074 -0.6805  0.0344
 5687TIP3    H238477   0.979   4.897   1.353 -1.5105  0.5683  0.7033
 5688TIP3   OH238478   0.640   4.533   2.707  0.3060 -0.5813  0.0561
 5688TIP3    H138479   0.718   4.586   2.727 -0.6521  0.4979  1.0738
 5688TIP3    H238480   0.621   4.552   2.616  0.2525  0.4933  0.2793
 5689TIP3   OH238481   0.193   2.990   5.324  0.2824 -0.4136 -0.2538
 5689TIP3    H138482   0.260   2.933   5.286  0.6851  0.4509 -0.8716
 5689TIP3    H238483   0.110   2.944   5.308  0.5820 -0.7338 -0.9094
 5690TIP3   OH238484   6.216   0.745  16.701  0.1626  0.5214 -0.1852
 5690TIP3    H138485   6.266   0.809  16.752 -1.5491  0.9041  1.1116
 5690TIP3    H238486   6.154   0.708  16.763 -0.6567 -0.4827 -1.5446
 5691TIP3   OH238487   4.174   0.484   0.115 -0.3397 -0.3625 -0.3052
 5691TIP3    H138488   4.083   0.483   0.086 -0.1879  1.1353 -0.9222
 5691TIP3    H238489   4.186   0.571   0.154  0.8089 -0.5622 -0.1752
 5692TIP3   OH238490   2.823   2.229   1.589 -0.1536  0.6628 -0.0534
 5692TIP3    H138491   2.745   2.173   1.587  0.0132  0.4273 -0.0603
 5692TIP3    H238492   2.827   2.269   1.503 -0.2858  0.7004 -0.0422
 5693TIP3   OH238493   6.106   2.981   0.890  0.9291 -0.4887 -0.6659
 5693TIP3    H138494   6.043   3.040   0.849  0.1404 -1.5304 -0.9942
 5693TIP3    H238495   6.180   3.037   0.913  1.1214  0.2571 -2.9158
 5694TIP3   OH238496   2.732   1.704  12.513 -0.3676  0.1794 -0.1796
 5694TIP3    H138497   2.646   1.743  12.529  0.1341  1.2161  0.0841
 5694TIP3    H238498   2.794   1.767  12.549  0.4932 -0.7515  0.0160
 5695TIP3   OH238499   2.875   1.753  16.789 -0.0376  0.1292 -0.0183
 5695TIP3    H138500   2.803   1.771  16.850 -0.5136 -0.7075 -0.3053
 5695TIP3    H238501   2.925   1.834  16.786 -0.9641  0.7250  0.2062
 5696TIP3   OH238502   1.454   3.766  12.205 -0.4345  0.3396 -0.5976
 5696TIP3    H138503   1.427   3.843  12.155  1.4058  1.2293 -0.3179
 5696TIP3    H238504   1.537   3.740  12.166 -0.2875 -0.5862  0.2881
 5697TIP3   OH238505   3.278   6.681   1.856 -0.1077  0.6430  0.4954
 5697TIP3    H138506   3.240   6.633   1.930 -1.6040  0.1276 -0.5448
 5697TIP3    H238507   3.221   6.659   1.782  2.2799 -0.2083 -1.2125
 5698TIP3   OH238508   1.795   4.204  15.393 -0.4472  0.8059 -0.0888
 5698TIP3    H138509   1.727   4.145  15.362 -0.8826  0.3878  1.5774
 5698TIP3    H238510   1.785   4.205  15.488  1.0300  1.7765  0.0924
 5699TIP3   OH238511   2.890   1.099   2.129  0.3202  0.0344  0.2280
 5699TIP3    H138512   2.907   1.088   2.035  1.3359 -1.3701  0.5620
 5699TIP3    H238513   2.914   1.016   2.169 -1.1627  0.2086  1.6256
 5700TIP3   OH238514   3.063   2.907  12.342 -0.2162 -0.0719 -0.4109
 5700TIP3    H138515   3.076   2.817  12.369 -0.9763 -0.1845 -0.4131
 5700TIP3    H238516   3.145   2.930  12.297  0.7931 -0.0937  1.3350
 5701TIP3   OH238517   3.755   5.309  15.534  0.1525 -0.5423  0.1770
 5701TIP3    H138518   3.671   5.282  15.496  0.6956 -0.6843 -0.9766
 5701TIP3    H238519   3.798   5.358  15.464  1.2083 -0.8244  0.6056
 5702TIP3   OH238520   5.586   0.793  14.891  0.8281 -0.2345  0.0996
 5702TIP3    H138521   5.577   0.834  14.806 -1.0872  1.2209  0.9384
 5702TIP3    H238522   5.499   0.797  14.930  1.5270 -1.3004  1.9397
 5703TIP3   OH238523   2.450   3.595  14.367  0.6737 -0.0514 -0.7909
 5703TIP3    H138524   2.504   3.615  14.443  0.7926 -1.8258 -0.3675
 5703TIP3    H238525   2.405   3.678  14.347  0.9324  0.5465  0.9565
 5704TIP3   OH238526   5.767   3.915   3.539  0.6024 -0.1435 -0.6451
 5704TIP3    H138527   5.830   3.987   3.538 -1.2789  1.6164  0.0136
 5704TIP3    H238528   5.692   3.950   3.586 -0.2344 -2.7275  0.1073
 5705TIP3   OH238529   2.454   0.996  15.775 -0.4079 -0.0326 -0.0212
 5705TIP3    H138530   2.472   0.986  15.869 -0.2320  0.7038  0.0313
 5705TIP3    H238531   2.531   1.043  15.742 -0.1071 -0.9699 -0.6863
 5706TIP3   OH238532   4.565   1.537   5.632  0.8886  0.1386 -0.7088
 5706TIP3    H138533   4.535   1.628   5.627  1.7014  0.3467 -2.4565
 5706TIP3    H238534   4.535   1.507   5.718 -1.3315  1.3632 -0.9617
 5707TIP3   OH238535   4.212   1.127  11.344  0.4032  0.1958 -0.2370
 5707TIP3    H138536   4.188   1.166  11.260 -3.3405 -1.9523 -0.3695
 5707TIP3    H238537   4.247   1.041  11.321 -0.5720 -0.3720  0.3520
 5708TIP3   OH238538   6.731   1.356   3.990 -0.7119  0.8874  0.4931
 5708TIP3    H138539   6.650   1.387   3.950  0.1122  1.2976 -0.9608
 5708TIP3    H238540   6.736   1.402   4.073 -2.1289  0.5861  0.7665
 5709TIP3   OH238541   3.263   6.069   5.879  0.2847  0.1514  0.0640
 5709TIP3    H138542   3.282   5.975   5.874 -1.1514 -0.2387  1.1852
 5709TIP3    H238543   3.312   6.099   5.956 -0.4217 -0.0057  0.5824
 5710TIP3   OH238544   2.872   4.262  13.791  0.4087  0.4421 -0.5455
 5710TIP3    H138545   2.802   4.202  13.765  1.3751 -1.4195  0.8391
 5710TIP3    H238546   2.855   4.342  13.742 -3.1132  0.3545  0.2929
 5711TIP3   OH238547   3.056   1.570  13.158 -0.2140  0.2415  0.3886
 5711TIP3    H138548   3.084   1.547  13.070 -0.7091  1.4219 -0.1059
 5711TIP3    H238549   3.103   1.651  13.177  1.0836 -0.8043  1.8461
 5712TIP3   OH238550   2.518   0.043   1.384  0.2227 -0.3831 -0.0472
 5712TIP3    H138551   2.571   0.018   1.461 -0.3996 -0.6864  0.2933
 5712TIP3    H238552   2.469  -0.036   1.363 -1.2064  0.3114  0.5579
 5713TIP3   OH238553   5.509   4.818  11.116  0.4266 -0.2862  0.6822
 5713TIP3    H138554   5.465   4.830  11.201  2.0295 -0.6299  1.6053
 5713TIP3    H238555   5.597   4.788  11.139  0.8622 -0.4902 -1.1278
 5714TIP3   OH238556   1.960   5.542  14.739 -0.2225  0.4664 -0.2479
 5714TIP3    H138557   2.051   5.567  14.728 -0.1553 -0.3940 -1.9530
 5714TIP3    H238558   1.926   5.603  14.804  1.7152  0.3813  0.9209
 5715TIP3   OH238559   4.409   3.805  12.599  0.1769 -0.1021  0.3599
 5715TIP3    H138560   4.471   3.740  12.632 -1.7028 -1.3798  1.5300
 5715TIP3    H238561   4.370   3.764  12.522  0.4474  0.5281 -0.1246
 5716TIP3   OH238562   2.771   3.203  12.043  0.4629  0.0680  0.6462
 5716TIP3    H138563   2.707   3.133  12.056  0.2719  0.4788  2.0735
 5716TIP3    H238564   2.838   3.186  12.109  0.1881  1.4760  1.3096
 5717TIP3   OH238565   1.076   6.499   2.008  0.4061  0.1016  0.4898
 5717TIP3    H138566   1.162   6.469   2.039  0.5578  0.7702  0.7272
 5717TIP3    H238567   1.030   6.418   1.986  0.9188 -0.2963  0.8303
 5718TIP3   OH238568   6.020   0.232   3.753  0.5802  0.4009 -0.0589
 5718TIP3    H138569   5.990   0.281   3.677  0.8884 -0.0768 -0.4998
 5718TIP3    H238570   5.952   0.245   3.819  0.7305  1.5345 -0.1071
 5719TIP3   OH238571   2.900   2.613  14.848  0.0492  0.0628 -0.1348
 5719TIP3    H138572   2.981   2.564  14.836 -0.8608 -1.1773 -1.6553
 5719TIP3    H238573   2.895   2.630  14.942  1.4708 -0.8591  0.1314
 5720TIP3   OH238574   5.164   0.331  15.421 -0.7063  0.8348 -0.5387
 5720TIP3    H138575   5.119   0.281  15.353 -0.6089  3.1649 -2.4288
 5720TIP3    H238576   5.249   0.288  15.429 -0.9974  0.0630 -1.3458
 5721TIP3   OH238577   5.388   4.567   0.128  0.1574 -0.1924 -0.3035
 5721TIP3    H138578   5.316   4.504   0.126  1.1012 -1.4440  1.4932
 5721TIP3    H238579   5.444   4.541   0.055  0.2097 -1.0487  0.0278
 5722TIP3   OH238580   6.471   1.424   4.249  0.2105  0.2239 -0.5482
 5722TIP3    H138581   6.561   1.456   4.258  0.0340  0.4207  0.8587
 5722TIP3    H238582   6.478   1.329   4.255  0.1711  0.3010  1.8365
 5723TIP3   OH238583   4.642   5.735   4.268  0.2214 -0.5314  0.2043
 5723TIP3    H138584   4.636   5.648   4.307 -1.1066 -0.8029 -0.5630
 5723TIP3    H238585   4.657   5.719   4.175 -0.4447  0.0539 -0.0087
 5724TIP3   OH238586   1.244   6.695   5.987 -0.1174  0.1198 -0.0929
 5724TIP3    H138587   1.249   6.783   5.950 -1.2923  0.1447 -0.2500
 5724TIP3    H238588   1.257   6.636   5.912 -0.7375  0.1733 -0.2523
 5725TIP3   OH238589   1.592   1.207   2.004  0.2782  0.2127  0.5094
 5725TIP3    H138590   1.598   1.298   1.975 -1.8567  0.0526 -0.6235
 5725TIP3    H238591   1.613   1.156   1.927 -0.5316 -0.2326  0.5732
 5726TIP3   OH238592   5.917   0.307   2.242  0.3187  0.5558 -0.3825
 5726TIP3    H138593   5.925   0.304   2.147  0.4552 -1.5844 -0.3630
 5726TIP3    H238594   5.826   0.281   2.259  0.4213  0.4991  0.0866
 5727TIP3   OH238595   3.777   1.210  16.975 -0.5713  0.2466 -0.1185
 5727TIP3    H138596   3.859   1.258  16.973  1.1372 -2.2799 -3.9126
 5727TIP3    H238597   3.790   1.142  17.041  0.2764  0.1197 -0.4071
 5728TIP3   OH238598   0.068   2.122   4.621 -0.4889  0.2996 -0.3503
 5728TIP3    H138599   0.151   2.164   4.600  0.3009 -0.9161  0.2004
 5728TIP3    H238600   0.011   2.143   4.547  0.1357  1.5774 -0.4948
 5729TIP3   OH238601   1.549   2.469   2.547 -0.2006 -0.2486  0.0269
 5729TIP3    H138602   1.549   2.420   2.629 -0.0508 -0.4228 -0.0765
 5729TIP3    H238603   1.593   2.551   2.568 -1.3194  0.2685  0.4456
 5730TIP3   OH238604   3.336   3.830   5.113  0.6534  0.0571 -0.3841
 5730TIP3    H138605   3.361   3.754   5.060  0.1838  0.6409 -1.4863
 5730TIP3    H238606   3.373   3.905   5.065  2.7717  0.4363  1.6617
 5731TIP3   OH238607   1.371   4.870  12.075  0.1088  0.1784  0.1512
 5731TIP3    H138608   1.396   4.796  12.019  2.4787  1.5928 -0.7886
 5731TIP3    H238609   1.300   4.835  12.129  0.3165 -2.4133 -1.0601
 5732TIP3   OH238610   1.471   4.024   1.620 -0.7449 -0.1267 -0.5130
 5732TIP3    H138611   1.525   4.094   1.584  0.4249 -0.5961  0.2513
 5732TIP3    H238612   1.472   3.956   1.553 -1.6752  0.4764 -1.1508
 5733TIP3   OH238613   5.950   1.223   3.865  0.2182  0.4007  0.1503
 5733TIP3    H138614   5.956   1.276   3.786  0.6718 -0.7758 -0.6274
 5733TIP3    H238615   5.857   1.224   3.887 -0.4685 -1.7196 -2.1854
 5734TIP3   OH238616   1.506   2.403   3.210  0.3215 -0.7939 -0.8786
 5734TIP3    H138617   1.541   2.416   3.298  0.5643 -3.8495 -0.4366
 5734TIP3    H238618   1.454   2.323   3.216 -1.9317  0.3728 -2.9316
 5735TIP3   OH238619   3.170   6.030  11.727 -0.0309 -0.7747  0.4243
 5735TIP3    H138620   3.237   6.069  11.670  0.2711  0.0383  1.3086
 5735TIP3    H238621   3.218   5.967  11.780  0.0781 -0.0849  1.1625
 5736TIP3   OH238622   1.099   6.499  13.363  0.4591  0.0677 -0.4355
 5736TIP3    H138623   1.131   6.473  13.449  0.9167  0.1204 -0.5873
 5736TIP3    H238624   1.148   6.578  13.341  1.1674 -0.5826 -1.2317
 5737TIP3   OH238625   4.802   2.913  16.762 -0.3824  0.2910  0.3588
 5737TIP3    H138626   4.711   2.900  16.735 -0.3132 -0.3124  0.3859
 5737TIP3    H238627   4.797   2.982  16.828 -0.4164  2.5261 -1.8611
 5738TIP3   OH238628   6.691   1.893  12.258 -0.5364 -0.2985  0.1283
 5738TIP3    H138629   6.773   1.852  12.230 -0.2979 -0.4495  0.9884
 5738TIP3    H238630   6.624   1.852  12.204  0.2338  2.1384 -2.9263
 5739TIP3   OH238631   0.890   0.790  14.081 -0.1524  0.1521 -0.0262
 5739TIP3    H138632   0.913   0.698  14.094  0.1376  0.1787 -0.3179
 5739TIP3    H238633   0.963   0.825  14.029 -0.1949  0.5785  0.2020
 5740TIP3   OH238634   3.876   5.680  13.899 -0.1926  0.5722  0.2203
 5740TIP3    H138635   3.811   5.622  13.860 -0.4017 -0.8267  2.4719
 5740TIP3    H238636   3.843   5.697  13.987  1.7771  0.9722  0.9375
 5741TIP3   OH238637   3.840   5.839   2.235 -0.6514  0.9529 -0.3520
 5741TIP3    H138638   3.884   5.754   2.232 -0.5303  1.0324 -1.4942
 5741TIP3    H238639   3.777   5.831   2.307  0.3365  0.4020  0.4771
 5742TIP3   OH238640   3.267   4.692  15.763 -0.2305 -0.5059 -0.1571
 5742TIP3    H138641   3.192   4.666  15.817  0.6124 -1.1868  0.7109
 5742TIP3    H238642   3.341   4.690  15.823  0.7060 -1.1258 -1.3163
 5743TIP3   OH238643   3.014   2.338  16.999  0.5635  0.2032 -0.1129
 5743TIP3    H138644   2.926   2.366  17.025  1.1470  0.8881  1.1877
 5743TIP3    H238645   3.048   2.411  16.947  0.6392  0.2470 -0.0012
 5744TIP3   OH238646   0.212   2.834   4.968  0.1542 -0.2281  0.4688
 5744TIP3    H138647   0.236   2.901   4.905  1.7285 -0.4848  0.7571
 5744TIP3    H238648   0.120   2.853   4.989 -0.2795  0.1165 -1.5267
 5745TIP3   OH238649   5.417   5.008  16.851  0.0197  0.8613  0.3568
 5745TIP3    H138650   5.349   5.005  16.918 -0.0836 -0.9037  0.2213
 5745TIP3    H238651   5.499   5.022  16.900 -0.0413 -0.5149  0.8876
 5746TIP3   OH238652   6.093   4.780   4.391  0.4524 -0.1156 -0.2727
 5746TIP3    H138653   6.111   4.845   4.459 -0.3234  0.5640 -0.7013
 5746TIP3    H238654   6.063   4.702   4.439  0.9112  0.0057  0.2158
 5747TIP3   OH238655   0.810   0.372  11.943  1.2376 -0.2125  0.3697
 5747TIP3    H138656   0.809   0.398  12.035  0.8976 -0.3194  0.3983
 5747TIP3    H238657   0.824   0.277  11.945  1.0358 -0.2442  0.3197
 5748TIP3   OH238658   0.162   0.940  16.026 -0.1017 -0.4300  0.9540
 5748TIP3    H138659   0.251   0.940  16.062  0.9993  0.7333 -1.4915
 5748TIP3    H238660   0.145   0.849  16.005  2.6556 -0.3316 -2.9707
 5749TIP3   OH238661   6.429   1.133  11.934 -0.2168  0.2604 -0.1366
 5749TIP3    H138662   6.402   1.221  11.962  0.1021 -0.3721  2.4253
 5749TIP3    H238663   6.524   1.132  11.947  0.0745  0.1029 -2.0050
 5750TIP3   OH238664   6.397   5.110   5.347 -0.7731  0.1774 -0.6190
 5750TIP3    H138665   6.480   5.062   5.350 -0.9907 -0.2615 -1.3595
 5750TIP3    H238666   6.422   5.201   5.329 -0.3264  0.4578  1.2799
 5751TIP3   OH238667   3.420   1.604  15.013 -0.8614  0.1784 -0.3392
 5751TIP3    H138668   3.443   1.517  14.981  2.5027  0.8001  0.0260
 5751TIP3    H238669   3.394   1.653  14.935  1.3342 -0.0340 -1.2753
 5752TIP3   OH238670   4.113   0.816   3.285  1.1480  0.1191 -0.0849
 5752TIP3    H138671   4.178   0.870   3.329  0.3333  3.0545 -2.1617
 5752TIP3    H238672   4.038   0.815   3.344  1.3672  0.8990  0.2128
 5753TIP3   OH238673   2.681   3.224  15.858  0.3704 -0.0646  0.0095
 5753TIP3    H138674   2.619   3.272  15.803  0.6946  0.2294 -0.0989
 5753TIP3    H238675   2.752   3.286  15.874  0.0445  0.0254  1.1771
 5754TIP3   OH238676   4.250   4.234   5.723  0.0534 -0.1240 -0.1161
 5754TIP3    H138677   4.227   4.236   5.630 -0.0778  1.0602 -0.0777
 5754TIP3    H238678   4.253   4.141   5.745  2.1371 -0.5304 -1.7966
 5755TIP3   OH238679   0.098   3.034   3.248 -0.5465  0.0630  0.3852
 5755TIP3    H138680   0.131   2.991   3.169 -2.9201  1.1737 -1.3233
 5755TIP3    H238681   0.177   3.054   3.299  0.8452 -3.6047 -0.0651
 5756TIP3   OH238682   4.561   6.701  13.864  0.0240 -0.5169  0.7924
 5756TIP3    H138683   4.645   6.659  13.851  1.0711  1.9657 -1.5982
 5756TIP3    H238684   4.578   6.794  13.846 -3.5328 -0.1453 -1.7496
 5757TIP3   OH238685   0.804   2.488  15.021 -0.2095 -0.3854 -0.6016
 5757TIP3    H138686   0.728   2.541  14.997 -0.7605 -0.5160  0.7848
 5757TIP3    H238687   0.867   2.504  14.950 -1.7962 -0.8962 -2.1958
 5758TIP3   OH238688   0.543   3.494  16.440  0.3924 -0.4316 -0.3449
 5758TIP3    H138689   0.475   3.559  16.459  0.1538 -0.6795 -0.3336
 5758TIP3    H238690   0.564   3.507  16.348  1.9920  1.1910  0.1979
 5759TIP3   OH238691   6.094   4.538  11.773 -0.4369 -0.4339  0.2776
 5759TIP3    H138692   6.124   4.481  11.843 -0.2125 -0.6740 -0.0114
 5759TIP3    H238693   6.112   4.627  11.805  0.0912 -0.5599  0.3267
 5760TIP3   OH238694   5.005   2.024   4.627  0.7569  0.0621 -0.1033
 5760TIP3    H138695   5.091   2.033   4.666  1.1041 -1.0716 -0.5491
 5760TIP3    H238696   4.947   2.073   4.684  1.7457  1.1501  0.0039
 5761TIP3   OH238697   1.637   5.127  16.906  0.1654  0.4513 -0.0545
 5761TIP3    H138698   1.572   5.194  16.927  1.7278  1.4471  1.8920
 5761TIP3    H238699   1.590   5.065  16.851 -2.0263  1.8501  0.1203
 5762TIP3   OH238700   3.585   2.326   3.528 -0.1355 -0.2283  0.6425
 5762TIP3    H138701   3.575   2.414   3.493  1.4085 -0.6886 -1.1608
 5762TIP3    H238702   3.676   2.302   3.506 -0.9125 -2.7529 -0.1570
 5763TIP3   OH238703   5.250   0.403   0.907  0.5988 -0.0508 -0.0841
 5763TIP3    H138704   5.290   0.316   0.902 -0.0841 -0.4145  0.5851
 5763TIP3    H238705   5.241   0.420   1.001 -1.8970 -0.4927 -0.1954
 5764TIP3   OH238706   0.610   3.251   5.849  0.2602 -0.4147  0.0083
 5764TIP3    H138707   0.524   3.275   5.882  0.3724  2.2171 -1.3328
 5764TIP3    H238708   0.671   3.280   5.918  0.1635 -0.8192  0.2653
 5765TIP3   OH238709   2.711   6.478  12.716 -0.2363 -0.1357 -0.4234
 5765TIP3    H138710   2.624   6.483  12.676  0.2484 -1.2964 -1.6937
 5765TIP3    H238711   2.712   6.393  12.759 -0.2618  0.5349  0.9262
 5766TIP3   OH238712   6.582   5.770  13.636  0.3968 -0.1282  0.5315
 5766TIP3    H138713   6.589   5.723  13.719  1.4686 -1.0526 -0.0476
 5766TIP3    H238714   6.669   5.808  13.623 -0.7589  3.2799  1.6413
 5767TIP3   OH238715   0.179   6.395   4.116  0.3207 -0.0637  0.4074
 5767TIP3    H138716   0.116   6.376   4.047  0.6686 -1.6347  0.4915
 5767TIP3    H238717   0.133   6.455   4.175 -0.2056  0.7838 -0.8220
 5768TIP3   OH238718   2.221   5.925   5.253 -0.6409 -0.4625 -1.2394
 5768TIP3    H138719   2.195   5.917   5.344  1.5656 -0.0317 -0.5088
 5768TIP3    H238720   2.140   5.912   5.203 -1.7288 -1.5946  0.7188
 5769TIP3   OH238721   6.160   2.025   4.695 -0.0032 -0.5545 -0.0087
 5769TIP3    H138722   6.245   1.981   4.690  0.1391 -0.1636 -1.7037
 5769TIP3    H238723   6.181   2.118   4.704 -0.3039 -0.6630  3.1232
 5770TIP3   OH238724   6.685   0.019  12.795 -0.3611 -0.1490  0.1286
 5770TIP3    H138725   6.705   0.083  12.864  1.2209 -0.5143  0.0421
 5770TIP3    H238726   6.753   0.034  12.728 -1.6376 -0.0485 -1.2025
 5771TIP3   OH238727   0.279   1.445  16.431 -0.1400  0.3464  0.1778
 5771TIP3    H138728   0.224   1.508  16.479  0.8525 -0.2231  2.1878
 5771TIP3    H238729   0.334   1.499  16.375  0.5133  1.3007  1.6687
 5772TIP3   OH238730   1.781   0.029  15.015  0.1164  0.8663 -0.5233
 5772TIP3    H138731   1.818  -0.051  14.976  0.1809  0.1703  0.9098
 5772TIP3    H238732   1.688   0.026  14.992 -0.2860 -0.6477  1.0961
 5773TIP3   OH238733   0.177   0.662   6.687 -0.3110 -0.4910  0.2684
 5773TIP3    H138734   0.227   0.732   6.730  0.0612 -0.4776 -0.1795
 5773TIP3    H238735   0.238   0.589   6.680  0.2666  0.1240 -1.9321
 5774TIP3   OH238736   0.296   2.769   4.504 -0.5138  0.0531  0.7377
 5774TIP3    H138737   0.206   2.742   4.482 -1.5946  1.8691  2.5175
 5774TIP3    H238738   0.296   2.864   4.493  1.7932 -0.0799 -0.9998
 5775TIP3   OH238739   1.871   0.004   2.641 -0.6039  0.1534  0.3814
 5775TIP3    H138740   1.882  -0.029   2.552 -1.3684  0.9474 -0.0204
 5775TIP3    H238741   1.957  -0.009   2.681 -0.7001 -1.7394  0.0777
 5776TIP3   OH238742   0.124   0.406  15.042  0.4160 -0.2700  0.5055
 5776TIP3    H138743   0.141   0.397  15.136  0.1598  0.4119  0.6224
 5776TIP3    H238744   0.033   0.379  15.031  0.7179 -1.2499  0.3024
 5777TIP3   OH238745   4.898   2.266  11.323  0.0337  0.6141 -0.1504
 5777TIP3    H138746   4.872   2.235  11.236 -1.0877 -1.4608  0.8720
 5777TIP3    H238747   4.956   2.340  11.305 -0.1188  0.2074 -2.6569
 5778TIP3   OH238748   4.102   3.420   0.274  0.1361  0.4604 -0.2671
 5778TIP3    H138749   4.083   3.502   0.320  0.6041  0.8343 -0.7327
 5778TIP3    H238750   4.191   3.398   0.301 -0.5888 -0.8443  1.2494
 5779TIP3   OH238751   3.911   5.503   4.456  0.0050 -0.5971 -0.3262
 5779TIP3    H138752   3.965   5.576   4.425 -0.4578  1.6283  3.5439
 5779TIP3    H238753   3.974   5.436   4.482  0.6471  0.0015 -0.3154
 5780TIP3   OH238754   3.441   0.777  12.496  0.0600  0.2099 -0.0392
 5780TIP3    H138755   3.519   0.724  12.477  0.7799  0.9633  0.7157
 5780TIP3    H238756   3.393   0.779  12.413  0.0468 -1.5270 -0.1256
 5781TIP3   OH238757   1.926   1.349  16.296  0.2725  0.2989 -0.3060
 5781TIP3    H138758   1.885   1.418  16.348  1.0523 -0.3578  1.2603
 5781TIP3    H238759   1.879   1.270  16.321 -1.9105  0.3978 -3.4945
 5782TIP3   OH238760   3.885   4.790   0.599 -0.2311  0.5841  0.4402
 5782TIP3    H138761   3.965   4.839   0.619  1.5585 -1.4571 -1.2325
 5782TIP3    H238762   3.866   4.811   0.508 -0.4562 -0.4637  0.2356
 5783TIP3   OH238763   3.514   5.122  14.325 -0.3655  0.3591  0.7538
 5783TIP3    H138764   3.431   5.146  14.284 -0.2021  1.0336  0.8199
 5783TIP3    H238765   3.493   5.119  14.419 -0.2921  0.6055  0.7768
 5784TIP3   OH238766   3.935   2.869  10.947 -0.5757 -0.1394  0.4175
 5784TIP3    H138767   3.967   2.943  10.999  1.2179 -1.3370  1.1642
 5784TIP3    H238768   3.922   2.799  11.012  2.4252 -1.9201 -0.6728
 5785TIP3   OH238769   5.044   5.205  13.427  0.5390  0.4275 -0.0403
 5785TIP3    H138770   4.964   5.251  13.403 -0.3939  0.2458  2.4806
 5785TIP3    H238771   5.112   5.272  13.426  0.3676  0.6334 -1.9744
 5786TIP3   OH238772   0.430   1.417  12.176  0.0472  0.1886  0.1278
 5786TIP3    H138773   0.485   1.388  12.249  1.2264  3.7321  0.8582
 5786TIP3    H238774   0.493   1.440  12.107 -0.9509 -1.3138 -1.3676
 5787TIP3   OH238775   5.345   3.769  13.381 -0.9869 -0.1665  0.6815
 5787TIP3    H138776   5.399   3.826  13.436 -0.2180  0.0325 -0.2693
 5787TIP3    H238777   5.287   3.829  13.333 -0.4010 -0.2007 -0.0770
 5788TIP3   OH238778   4.123   3.757   4.449 -0.0742  0.3328 -0.0804
 5788TIP3    H138779   4.099   3.848   4.430  0.7114  0.3639 -0.9504
 5788TIP3    H238780   4.218   3.754   4.436 -0.2032 -0.8023 -0.8696
 5789TIP3   OH238781   4.717   4.466  11.907  0.4436 -0.0059  0.4348
 5789TIP3    H138782   4.675   4.533  11.853 -0.2413 -0.4743  0.3743
 5789TIP3    H238783   4.657   4.454  11.982 -1.1390 -2.7808 -1.0906
 5790TIP3   OH238784   2.314   1.275   4.416 -0.9215  0.3385  0.0798
 5790TIP3    H138785   2.302   1.253   4.324  0.1463 -0.9833  0.2078
 5790TIP3    H238786   2.297   1.193   4.462  1.2650  0.1948  0.7860
 5791TIP3   OH238787   4.355   2.911  12.342 -0.7328  0.2956 -0.1602
 5791TIP3    H138788   4.322   2.885  12.256  2.0446 -0.7483 -1.0204
 5791TIP3    H238789   4.435   2.961  12.324 -0.0195 -0.0268  1.7882
 5792TIP3   OH238790   2.127   5.977  12.402 -0.4451 -0.6115 -0.3504
 5792TIP3    H138791   2.158   6.002  12.489 -0.2235  1.1704 -0.9166
 5792TIP3    H238792   2.207   5.954  12.354 -0.6741 -3.1064  0.3061
 5793TIP3   OH238793   6.228   2.215   2.086 -0.0366  0.1170  0.0289
 5793TIP3    H138794   6.138   2.199   2.059 -1.2161  2.4111  2.1766
 5793TIP3    H238795   6.280   2.152   2.036 -2.9356 -2.2630 -0.2740
 5794TIP3   OH238796   5.647   2.359   2.794 -0.4917  0.2273 -0.1510
 5794TIP3    H138797   5.675   2.314   2.714 -0.5722 -0.3291  0.1293
 5794TIP3    H238798   5.591   2.295   2.839 -1.1711  0.8560 -0.0771
 5795TIP3   OH238799   5.239   4.047   4.554 -0.6676 -0.7368  0.3926
 5795TIP3    H138800   5.171   4.091   4.605 -1.3149 -0.1990 -0.8891
 5795TIP3    H238801   5.221   3.954   4.566 -0.8107 -0.6293  1.1130
 5796TIP3   OH238802   1.868   5.105   2.516 -0.0790 -0.6416 -0.5538
 5796TIP3    H138803   1.897   5.134   2.429 -0.2043 -1.2216 -0.7946
 5796TIP3    H238804   1.801   5.168   2.541  0.1684 -0.2955 -0.7442
 5797TIP3   OH238805   6.322   0.083  12.431 -0.0753 -0.4618 -0.2690
 5797TIP3    H138806   6.387   0.152  12.427 -0.0069 -0.5565 -0.8198
 5797TIP3    H238807   6.322   0.044  12.343  1.8568 -2.9817  0.7222
 5798TIP3   OH238808   1.378   5.108  15.035  0.0530  0.3259 -0.0991
 5798TIP3    H138809   1.468   5.128  15.060  0.0603  0.9645 -0.6103
 5798TIP3    H238810   1.379   5.013  15.020  0.4400  0.1985  0.6626
 5799TIP3   OH238811   6.632   4.557  13.642 -0.3029  0.2842 -0.1889
 5799TIP3    H138812   6.676   4.606  13.572  0.4784 -0.2994 -0.1180
 5799TIP3    H238813   6.663   4.597  13.723 -0.5282  0.3860 -0.1505
 5800TIP3   OH238814   0.333   3.936   3.168  0.0306 -0.6651  0.9366
 5800TIP3    H138815   0.377   3.958   3.250 -1.2319  0.2979  1.4006
 5800TIP3    H238816   0.246   3.908   3.194  0.3442 -2.6013  0.0489
 5801TIP3   OH238817   3.162   4.826  14.237 -0.0205  0.3125  0.3270
 5801TIP3    H138818   3.175   4.852  14.146  0.4011  0.8802  0.5399
 5801TIP3    H238819   3.072   4.854  14.257  0.6106  2.2019  0.7183
 5802TIP3   OH238820   5.987   0.534  15.047 -0.3897  0.1842  0.3587
 5802TIP3    H138821   6.055   0.598  15.028 -0.7840  0.4325 -0.2588
 5802TIP3    H238822   5.993   0.470  14.976  1.5077 -1.7986  2.1542
 5803TIP3   OH238823   5.673   0.484   2.139 -0.3371 -0.0216 -0.7438
 5803TIP3    H138824   5.628   0.494   2.223  0.9761  1.3879 -0.1663
 5803TIP3    H238825   5.678   0.389   2.126  0.0134 -0.2850  1.0893
 5804TIP3   OH238826   4.425   1.677   2.362  0.0382 -0.3405 -0.3880
 5804TIP3    H138827   4.510   1.690   2.404 -0.1981 -0.5377  0.1631
 5804TIP3    H238828   4.373   1.632   2.428 -0.6934  0.3390 -0.4873
 5805TIP3   OH238829   1.520   0.329  11.021  0.6655 -0.0839  0.2996
 5805TIP3    H138830   1.529   0.409  10.969 -0.2232 -1.3579 -1.9584
 5805TIP3    H238831   1.604   0.321  11.067  2.4477  0.0091 -2.6876
 5806TIP3   OH238832   4.711   3.229  16.303 -0.2937  0.3443  0.1446
 5806TIP3    H138833   4.778   3.192  16.245 -0.0223  0.4783  0.3635
 5806TIP3    H238834   4.660   3.288  16.247 -1.0781 -0.7608 -0.3373
 5807TIP3   OH238835   5.116   0.787   2.772  0.4452  0.4269  0.1294
 5807TIP3    H138836   5.044   0.844   2.745 -0.0212 -0.9047 -1.6053
 5807TIP3    H238837   5.189   0.848   2.789 -0.1210  1.5749 -1.3233
 5808TIP3   OH238838   1.178   0.128  12.548 -0.3640  0.4403  0.1817
 5808TIP3    H138839   1.269   0.155  12.561 -0.2319 -0.1736  0.5667
 5808TIP3    H238840   1.156   0.160  12.461  0.1321  0.8342  0.1938
 5809TIP3   OH238841   6.641   2.408   0.708 -0.3964  0.4182  0.0538
 5809TIP3    H138842   6.561   2.367   0.676 -0.4627  0.9684 -0.5022
 5809TIP3    H238843   6.622   2.431   0.799 -0.4883 -0.4286  0.2506
 5810TIP3   OH238844   4.569   0.500   2.515  0.4134 -0.2435 -0.7597
 5810TIP3    H138845   4.557   0.453   2.433 -1.5475 -2.0802  0.4872
 5810TIP3    H238846   4.527   0.585   2.501  1.3420  0.0383 -2.0506
 5811TIP3   OH238847   4.530   2.187  11.101  0.1729  0.3669  0.1672
 5811TIP3    H138848   4.594   2.116  11.098 -0.4837 -0.2006 -1.2037
 5811TIP3    H238849   4.445   2.143  11.102 -0.2354  1.1241  0.0357
 5812TIP3   OH238850   0.761   5.679  12.500  0.2756 -0.5934  0.1632
 5812TIP3    H138851   0.756   5.716  12.588 -0.2166 -1.0321  0.3245
 5812TIP3    H238852   0.761   5.584  12.514  0.8822 -0.6620 -0.2768
 5813TIP3   OH238853   1.027   4.499  17.093  0.0361  0.4381 -0.2792
 5813TIP3    H138854   1.085   4.424  17.083 -0.0526  0.3967 -0.4846
 5813TIP3    H238855   1.073   4.572  17.050  1.3499  1.1692  2.1309
 5814TIP3   OH238856   3.291   6.059  17.142 -0.1274 -0.1245 -0.5678
 5814TIP3    H138857   3.295   6.034  17.050  0.7088  1.4587 -0.9983
 5814TIP3    H238858   3.360   6.007  17.184  1.3898  1.1599 -1.3824
 5815TIP3   OH238859   4.857   4.705   5.115 -0.1144 -0.0626 -0.2365
 5815TIP3    H138860   4.897   4.747   5.039 -0.6735 -1.4390 -1.3259
 5815TIP3    H238861   4.766   4.735   5.113 -0.4728 -1.1344 -0.9222
 5816TIP3   OH238862   0.288   1.809  16.161 -0.0173 -0.1385 -0.2170
 5816TIP3    H138863   0.266   1.804  16.068  0.7007 -2.0669 -0.3407
 5816TIP3    H238864   0.372   1.856  16.164 -0.1645  0.1460 -0.5115
 5817TIP3   OH238865   5.672   3.524  12.660 -0.2007  0.0364  0.3994
 5817TIP3    H138866   5.766   3.526  12.644 -0.5128  0.2742 -1.6664
 5817TIP3    H238867   5.652   3.431  12.675 -0.0096 -0.4626 -2.0179
 5818TIP3   OH238868   1.837   0.441   1.195 -0.3312 -0.1519  0.3328
 5818TIP3    H138869   1.904   0.509   1.207  0.6116 -1.0142  0.1133
 5818TIP3    H238870   1.830   0.399   1.280 -1.0456  0.3287  0.5159
 5819TIP3   OH238871   6.338   4.740   1.124  0.4567  0.1955  0.0722
 5819TIP3    H138872   6.420   4.720   1.171  0.8428 -0.4204 -0.8377
 5819TIP3    H238873   6.272   4.745   1.193  0.9907 -0.8104  0.6800
 5820TIP3   OH238874   0.365   5.429   0.156 -0.2265  0.9329  0.2972
 5820TIP3    H138875   0.362   5.465   0.244  0.7857 -0.0376  0.7489
 5820TIP3    H238876   0.325   5.342   0.164 -2.5455  1.8260 -0.7515
 5821TIP3   OH238877   2.125   2.915  17.266 -0.3492  0.0863  0.3355
 5821TIP3    H138878   2.060   2.942  17.331 -0.3907  0.5398  0.1044
 5821TIP3    H238879   2.168   2.996  17.239 -0.6911 -0.0302 -0.5908
 5822TIP3   OH238880   5.145   5.323   1.397 -0.1814 -0.0296 -0.9051
 5822TIP3    H138881   5.165   5.247   1.452  0.5147  2.2178  2.2336
 5822TIP3    H238882   5.050   5.323   1.390 -0.4478  0.3613  1.6803
 5823TIP3   OH238883   3.742   6.435   3.048  0.0152 -0.2623 -0.0894
 5823TIP3    H138884   3.784   6.362   3.002 -0.3112  0.3838 -1.4561
 5823TIP3    H238885   3.811   6.500   3.058  0.3418 -0.7946  1.2528
 5824TIP3   OH238886   5.415   5.106   5.085 -0.2244 -0.1602 -0.2758
 5824TIP3    H138887   5.388   5.191   5.121  2.3701  0.2812  0.9465
 5824TIP3    H238888   5.437   5.124   4.994  1.4895  0.8774  0.2798
 5825TIP3   OH238889   6.484   2.825  13.675 -0.2560  0.0873  0.2547
 5825TIP3    H138890   6.442   2.740  13.667 -0.6381  0.2788  0.2106
 5825TIP3    H238891   6.561   2.819  13.618  0.3113 -0.5925  1.0897
 5826TIP3   OH238892   5.923   4.870   4.037  0.1937  0.7881 -0.1957
 5826TIP3    H138893   5.883   4.784   4.021 -0.5313  0.8737  1.0366
 5826TIP3    H238894   5.873   4.930   3.981  1.4171  0.2824 -1.9078
 5827TIP3   OH238895   2.770   2.183   3.794 -0.2381 -0.1763 -0.2120
 5827TIP3    H138896   2.729   2.170   3.708 -0.8482  1.0428 -0.1361
 5827TIP3    H238897   2.795   2.275   3.794 -2.0343  0.3913  1.6348
 5828TIP3   OH238898   4.859   1.414   3.969 -0.2039 -0.1587  0.2004
 5828TIP3    H138899   4.932   1.352   3.961 -0.4415 -0.6295  1.4031
 5828TIP3    H238900   4.801   1.392   3.896  1.3360  0.9514 -1.4478
 5829TIP3   OH238901   1.295   4.651   1.136  0.1214 -0.5577  0.4736
 5829TIP3    H138902   1.292   4.747   1.143  1.2568 -0.5161  0.6000
 5829TIP3    H238903   1.232   4.620   1.201 -1.4394  0.1171 -0.6477
 5830TIP3   OH238904   1.359   2.979   1.665 -0.2774  0.0417 -0.1017
 5830TIP3    H138905   1.361   2.994   1.570  0.3334 -0.1556 -0.1285
 5830TIP3    H238906   1.423   2.908   1.679  0.6742  1.0041  0.6190
 5831TIP3   OH238907   2.401   0.459  12.273 -0.0346 -0.9206 -0.3393
 5831TIP3    H138908   2.488   0.420  12.280  0.4788  0.3667  0.9512
 5831TIP3    H238909   2.418   0.550  12.250 -1.0611 -0.7119 -0.3138
 5832TIP3   OH238910   0.808   2.048   5.151  0.5510 -0.5627  0.1546
 5832TIP3    H138911   0.793   2.020   5.241  0.7515 -1.0295  0.0431
 5832TIP3    H238912   0.855   2.132   5.160  0.4832 -0.5583  0.4837
 5833TIP3   OH238913   6.433   3.414  14.673 -0.2856  0.1388 -0.1030
 5833TIP3    H138914   6.502   3.351  14.652 -0.6890 -0.1267 -0.6572
 5833TIP3    H238915   6.357   3.385  14.621 -1.0730 -0.0555  1.1243
 5834TIP3   OH238916   0.161   5.537  14.061 -0.3149  0.4558  0.6393
 5834TIP3    H138917   0.215   5.616  14.061  0.1039  0.1730  0.2209
 5834TIP3    H238918   0.133   5.528  14.152  1.1938  0.0300  1.0919
 5835TIP3   OH238919   6.445   1.524  15.987  0.0508 -0.5906  0.1786
 5835TIP3    H138920   6.417   1.447  16.036  1.2737 -0.4648  1.1421
 5835TIP3    H238921   6.541   1.521  15.990  0.1430  0.1044 -1.1586
 5836TIP3   OH238922   5.771   5.534  11.535 -0.1699 -0.1674 -0.6449
 5836TIP3    H138923   5.768   5.469  11.465 -0.2293 -1.4401  0.4903
 5836TIP3    H238924   5.782   5.482  11.615 -0.7771  1.1965  0.3584
 5837TIP3   OH238925   5.448   2.962   5.151  0.0858 -0.0568  0.0158
 5837TIP3    H138926   5.423   3.005   5.233  0.6034 -0.4856  0.4090
 5837TIP3    H238927   5.376   2.903   5.131 -0.6617  1.0158 -0.5620
 5838TIP3   OH238928   5.933   1.660   5.678 -0.6105 -0.5383  0.1863
 5838TIP3    H138929   5.882   1.677   5.757 -0.3585 -2.0441  0.7079
 5838TIP3    H238930   6.009   1.609   5.709 -0.3820 -0.9348 -0.9863
 5839TIP3   OH238931   6.074   2.832  10.414 -0.2905  0.2838 -0.0701
 5839TIP3    H138932   6.116   2.755  10.451 -1.7044 -0.6023 -0.2299
 5839TIP3    H238933   6.138   2.867  10.352  0.5113 -0.5507  0.2657
 5840TIP3   OH238934   0.499   3.461  12.192 -0.0300 -0.0415 -0.0932
 5840TIP3    H138935   0.429   3.517  12.226 -0.8753 -1.4925  0.6842
 5840TIP3    H238936   0.532   3.506  12.114 -3.3227 -0.3036 -1.8009
 5841TIP3   OH238937   3.861   3.832   3.368  0.0439  0.6478 -0.0052
 5841TIP3    H138938   3.853   3.916   3.414  0.2408  0.8106 -0.2640
 5841TIP3    H238939   3.860   3.766   3.437  0.1199  0.8783  0.2156
 5842TIP3   OH238940   0.407   3.903  15.007 -0.0132  0.0563 -0.3623
 5842TIP3    H138941   0.381   3.855  15.086 -0.0377 -0.8469 -0.9004
 5842TIP3    H238942   0.325   3.931  14.968 -0.1439 -1.4709 -1.2525
 5843TIP3   OH238943   3.592   2.448   2.267 -0.4134 -0.2760 -0.0169
 5843TIP3    H138944   3.542   2.497   2.332  0.6395  1.5344 -0.4944
 5843TIP3    H238945   3.682   2.478   2.279  0.2779 -2.0933 -0.3928
 5844TIP3   OH238946   6.205   5.700  14.849  0.3881  0.3407  0.5061
 5844TIP3    H138947   6.128   5.757  14.854 -0.4358 -0.7664  0.9240
 5844TIP3    H238948   6.243   5.703  14.937  3.2150  3.9480 -0.5601
 5845TIP3   OH238949   4.728   6.733  16.004  0.1279  0.7704  0.0161
 5845TIP3    H138950   4.743   6.674  16.078 -1.6037  1.1354  0.7210
 5845TIP3    H238951   4.659   6.689  15.953 -0.0065  1.3970 -0.3504
 5846TIP3   OH238952   0.651   1.824   2.106  0.0888  0.9848 -0.8026
 5846TIP3    H138953   0.728   1.881   2.099  0.5507  0.4964  0.0908
 5846TIP3    H238954   0.619   1.838   2.195  0.6093 -0.6272 -0.3351
 5847TIP3   OH238955   0.053   5.618   1.876  0.1173 -0.0472 -0.3490
 5847TIP3    H138956   0.023   5.596   1.964 -0.1856  0.0232 -0.4330
 5847TIP3    H238957   0.120   5.552   1.856 -0.3436 -0.5225 -0.3571
 5848TIP3   OH238958   2.174   3.394   1.175  0.1278 -0.7840  0.1687
 5848TIP3    H138959   2.229   3.320   1.202  1.7608  0.5796  0.8328
 5848TIP3    H238960   2.124   3.417   1.253  2.7239  1.3457  1.3774
 5849TIP3   OH238961   5.119   4.767   2.462 -0.3003  0.5497  0.2031
 5849TIP3    H138962   5.024   4.779   2.461 -0.4587 -0.6079 -1.0443
 5849TIP3    H238963   5.153   4.854   2.480 -1.6074  0.8342  1.4903
 5850TIP3   OH238964   5.448   6.748  17.270  0.0733 -0.4454  0.0711
 5850TIP3    H138965   5.525   6.695  17.289 -1.0846 -2.9430 -1.7172
 5850TIP3    H238966   5.393   6.740  17.348 -1.5072 -4.7370 -1.2443
 5851TIP3   OH238967   5.248   3.750   4.891  0.0783 -0.0329  0.7999
 5851TIP3    H138968   5.239   3.727   4.798  0.5905 -0.9742  0.9762
 5851TIP3    H238969   5.326   3.805   4.894  0.0854 -0.0342  0.6768
 5852TIP3   OH238970   2.803   5.379   0.902 -0.7907 -0.7471 -0.0284
 5852TIP3    H138971   2.774   5.468   0.879  0.2089  0.2163  2.1416
 5852TIP3    H238972   2.806   5.333   0.818  0.8002  1.9206 -1.5920
 5853TIP3   OH238973   0.436   6.529  16.813  0.7378  0.5282  0.0352
 5853TIP3    H138974   0.355   6.528  16.864  0.0486  2.2873 -0.9335
 5853TIP3    H238975   0.462   6.437  16.806 -1.7404 -0.1963 -0.5024
 5854TIP3   OH238976   1.255   4.364   0.957 -0.0388 -0.2112  0.1859
 5854TIP3    H138977   1.350   4.357   0.954 -0.0054 -0.5805  1.4649
 5854TIP3    H238978   1.224   4.275   0.941 -0.1743 -0.0508 -0.4372
 5855TIP3   OH238979   2.005   5.612  11.249  0.0379 -0.1088 -0.3665
 5855TIP3    H138980   1.956   5.543  11.293 -0.1535  0.1288 -0.2083
 5855TIP3    H238981   2.044   5.569  11.173 -0.6641 -0.2283 -0.6683
 5856TIP3   OH238982   4.090   0.698  12.282  0.6615  0.5200 -0.1117
 5856TIP3    H138983   4.103   0.777  12.229  1.3229  0.2240 -0.4112
 5856TIP3    H238984   4.006   0.664  12.253 -1.6244  3.1562  2.7430
 5857TIP3   OH238985   5.787   2.463  14.622  0.4451 -0.6801  0.4917
 5857TIP3    H138986   5.845   2.423  14.557  1.5429  0.8429  0.4721
 5857TIP3    H238987   5.710   2.490  14.571  0.8960 -0.3164 -0.0131
 5858TIP3   OH238988   4.953   1.844  16.205 -0.0069  0.3705  0.2576
 5858TIP3    H138989   4.965   1.893  16.286  0.2137  0.5475  0.1208
 5858TIP3    H238990   5.041   1.814  16.182  0.1546  1.4476 -0.6215
 5859TIP3   OH238991   5.308   6.456   2.464 -0.0242 -0.1837  0.0095
 5859TIP3    H138992   5.371   6.403   2.513 -2.8936 -4.1377 -0.0195
 5859TIP3    H238993   5.278   6.522   2.526  0.9569 -1.0449  1.4644
 5860TIP3   OH238994   1.505   0.948  13.447 -0.3699  0.3508 -0.3360
 5860TIP3    H138995   1.579   0.998  13.482 -0.1470  0.9452 -1.5936
 5860TIP3    H238996   1.450   1.013  13.404 -1.5098 -0.1245  0.3634
 5861TIP3   OH238997   5.150   2.185   0.372 -0.0555 -0.0871  0.6874
 5861TIP3    H138998   5.164   2.279   0.359  0.4291 -0.2085  0.3254
 5861TIP3    H238999   5.076   2.180   0.433 -0.5277  0.5223  0.1773
 5862TIP3   OH239000   5.587   1.710   2.080  0.1104 -0.0529 -0.4334
 5862TIP3    H139001   5.551   1.799   2.081 -0.3124 -0.2283  1.0611
 5862TIP3    H239002   5.539   1.663   2.147  0.0771 -1.5403 -1.4389
 5863TIP3   OH239003   3.347   5.346   3.849  0.9597 -0.1126  0.0675
 5863TIP3    H139004   3.375   5.275   3.790  1.7879  1.5655 -1.6601
 5863TIP3    H239005   3.390   5.327   3.932  0.1680 -2.2781  0.0517
 5864TIP3   OH239006   4.337   0.767   5.567 -0.2072 -0.2501  0.1075
 5864TIP3    H139007   4.320   0.822   5.644  0.5007  1.0949 -0.6486
 5864TIP3    H239008   4.260   0.781   5.511  1.0334  2.0329 -1.1860
 5865TIP3   OH239009   3.395   0.882   4.511 -0.0313 -0.2554  0.1553
 5865TIP3    H139010   3.468   0.821   4.518  0.4355  0.2686 -0.0117
 5865TIP3    H239011   3.409   0.944   4.582  0.0396  0.2090 -0.2540
 5866TIP3   OH239012   6.384   4.013  12.958 -0.3913 -0.6238  0.4257
 5866TIP3    H139013   6.328   4.052  13.026 -0.4172  0.2051 -0.0552
 5866TIP3    H239014   6.450   3.963  13.006  1.1620  1.9985  1.2152
 5867TIP3   OH239015   0.911   6.087   5.269  0.2262 -0.5485  0.1350
 5867TIP3    H139016   0.926   6.018   5.205  2.2823  0.1293 -0.1744
 5867TIP3    H239017   0.869   6.043   5.343 -1.2858 -1.5136 -1.2484
 5868TIP3   OH239018   1.260   3.810  11.616  0.1249  0.7080 -1.1614
 5868TIP3    H139019   1.275   3.757  11.538 -0.6380 -0.3025 -0.6448
 5868TIP3    H239020   1.329   3.785  11.676 -0.9470 -0.6527 -0.4526
 5869TIP3   OH239021   3.658   0.133  13.227  0.0675  0.0061  0.2788
 5869TIP3    H139022   3.680   0.101  13.314  4.5905  0.2319 -0.5428
 5869TIP3    H239023   3.657   0.054  13.172  2.1670  0.2601 -0.2035
 5870TIP3   OH239024   4.719   6.451   6.630 -0.0459 -0.8036  0.4429
 5870TIP3    H139025   4.640   6.421   6.584  1.3618  0.2276 -2.9976
 5870TIP3    H239026   4.790   6.402   6.588  1.5074  1.3852  0.3621
 5871TIP3   OH239027   4.215   6.207   2.764  0.3713  0.0055 -0.5781
 5871TIP3    H139028   4.237   6.125   2.721 -0.6854 -1.0323  0.7478
 5871TIP3    H239029   4.169   6.181   2.844  0.1255  1.8887 -0.0388
 5872TIP3   OH239030   3.424   6.635  14.282  0.5697 -0.4244  0.4978
 5872TIP3    H139031   3.517   6.631  14.306  0.0513  0.0413  2.8123
 5872TIP3    H239032   3.378   6.604  14.360 -1.2566 -0.0293 -0.3764
 5873TIP3   OH239033   0.124   1.885   3.091 -0.2720 -0.4129  0.0257
 5873TIP3    H139034   0.089   1.966   3.129  0.4704  0.4141 -1.0048
 5873TIP3    H239035   0.053   1.821   3.101 -1.0198  0.4657  0.4839
 5874TIP3   OH239036   0.893   3.550   0.782  0.0750  0.4696 -0.0779
 5874TIP3    H139037   0.808   3.577   0.745 -0.6100 -0.0684  1.0543
 5874TIP3    H239038   0.895   3.590   0.869 -0.0032 -1.2968  0.7691
 5875TIP3   OH239039   3.331   0.164  16.822  0.5201 -0.1999  0.0452
 5875TIP3    H139040   3.318   0.255  16.847  0.4018  0.1701 -1.2789
 5875TIP3    H239041   3.342   0.117  16.905  1.3392  1.1278  0.7240
 5876TIP3   OH239042   1.396   2.916   4.733 -0.0674  0.0027 -0.1131
 5876TIP3    H139043   1.392   3.009   4.755  1.7277  0.1475 -0.2408
 5876TIP3    H239044   1.456   2.879   4.798 -0.7536 -1.0723 -0.0720
 5877TIP3   OH239045   6.752   6.587  14.923 -0.3434  0.0710  0.4669
 5877TIP3    H139046   6.848   6.597  14.923 -0.3225 -0.0099  1.4031
 5877TIP3    H239047   6.736   6.511  14.868  0.0449  0.7332 -0.6033
 5878TIP3   OH239048   6.465   4.318  12.674  0.4547 -0.9530 -0.0185
 5878TIP3    H139049   6.444   4.227  12.653  0.6780 -0.9690 -0.1794
 5878TIP3    H239050   6.465   4.322  12.769 -2.3518 -0.4793  0.0411
 5879TIP3   OH239051   0.961   3.055   2.858 -0.5599 -1.1695 -0.0459
 5879TIP3    H139052   0.930   3.048   2.768  0.3205  0.3584 -0.5054
 5879TIP3    H239053   1.047   3.012   2.857  0.6450  1.0811 -0.6303
 5880TIP3   OH239054   2.375   1.492   4.575  0.0861 -0.2951 -0.0882
 5880TIP3    H139055   2.359   1.429   4.504 -1.0712  0.5389 -0.5823
 5880TIP3    H239056   2.304   1.477   4.637  0.0065  0.2934 -0.0376
 5881TIP3   OH239057   6.349   5.358  10.745 -0.2058  0.2611 -0.1720
 5881TIP3    H139058   6.381   5.444  10.773  1.8492 -0.4876  0.0071
 5881TIP3    H239059   6.424   5.300  10.758 -1.9488 -1.8591  1.0720
 5882TIP3   OH239060   3.884   4.415   3.194  0.4584 -0.2158  0.3392
 5882TIP3    H139061   3.904   4.338   3.248  3.2349  0.2608  0.1214
 5882TIP3    H239062   3.849   4.379   3.113 -0.8550 -1.0774  1.2409
 5883TIP3   OH239063   2.720   2.552  12.234  0.4981 -0.1588 -0.4203
 5883TIP3    H139064   2.681   2.621  12.180 -0.0497  0.1958  0.4060
 5883TIP3    H239065   2.698   2.471  12.189 -1.7875 -0.0277  0.3466
 5884TIP3   OH239066   5.243   1.598  10.606  0.3637 -0.2169 -0.5374
 5884TIP3    H139067   5.239   1.504  10.626 -0.1352  0.1585  1.3828
 5884TIP3    H239068   5.152   1.627  10.607  0.6155  0.7064  1.4274
 5885TIP3   OH239069   2.663   1.367  14.457 -0.1521  0.3232  0.3058
 5885TIP3    H139070   2.759   1.368  14.451  0.0583 -3.4179  0.6437
 5885TIP3    H239071   2.645   1.315  14.535 -2.5524  2.2245  1.1197
 5886TIP3   OH239072   4.884   5.478  15.242  0.2780  0.6298  0.6759
 5886TIP3    H139073   4.958   5.524  15.283  1.2081 -1.1252  1.0741
 5886TIP3    H239074   4.872   5.399  15.295  0.7531 -1.1369 -1.6589
 5887TIP3   OH239075   2.110   4.331   3.266  0.0104 -0.0279 -0.6364
 5887TIP3    H139076   2.126   4.421   3.237 -1.3115  0.2674 -0.5125
 5887TIP3    H239077   2.048   4.340   3.339  1.3603 -0.9237  0.6992
 5888TIP3   OH239078   5.906   6.417  14.300 -0.1022  0.4091  0.2260
 5888TIP3    H139079   5.985   6.418  14.246  0.5204 -1.3396  1.0331
 5888TIP3    H239080   5.871   6.506  14.292  1.5302  1.0197 -0.7377
 5889TIP3   OH239081   5.961   6.193  10.849  0.4497 -0.5015 -0.3338
 5889TIP3    H139082   6.027   6.239  10.901 -2.2917 -0.2229  3.2310
 5889TIP3    H239083   5.902   6.262  10.819  1.0078 -0.8786 -2.4885
 5890TIP3   OH239084   5.880   4.315  16.996 -0.0895 -0.0104 -0.2102
 5890TIP3    H139085   5.824   4.249  16.955  1.0935 -0.1177 -1.7507
 5890TIP3    H239086   5.950   4.265  17.038  0.8157  0.2336 -1.3920
 5891TIP3   OH239087   5.002   2.641   0.475 -0.7381 -0.4152 -0.0202
 5891TIP3    H139088   5.036   2.731   0.482  0.1672 -0.7194 -0.2976
 5891TIP3    H239089   4.907   2.652   0.465 -0.5045  0.6039 -1.6449
 5892TIP3   OH239090   4.856   2.404   0.910  0.2208  0.8621  0.1756
 5892TIP3    H139091   4.903   2.324   0.887 -2.4741 -0.8457  0.0827
 5892TIP3    H239092   4.834   2.393   1.002 -1.5108  0.6582 -0.2150
 5893TIP3   OH239093   6.573   4.896   3.044  0.0832  0.0462  0.2899
 5893TIP3    H139094   6.539   4.967   3.099 -2.2015  0.9205 -2.0752
 5893TIP3    H239095   6.617   4.942   2.972 -0.9506 -0.9152 -0.9877
 5894TIP3   OH239096   4.492   1.672  11.806  0.0167  0.1582 -0.0134
 5894TIP3    H139097   4.515   1.715  11.889  1.0850 -1.4243  0.5495
 5894TIP3    H239098   4.417   1.617  11.828  0.0806  0.0012 -0.1910
 5895TIP3   OH239099   3.296   5.754   4.592 -0.4942 -0.4638  0.2218
 5895TIP3    H139100   3.371   5.814   4.592 -0.0990 -0.9132 -1.2650
 5895TIP3    H239101   3.320   5.686   4.656  0.5911 -0.8506 -0.5643
 5896TIP3   OH239102   1.525   4.542  16.437 -0.1882 -1.0957  0.1070
 5896TIP3    H139103   1.604   4.491  16.454  0.3975 -0.5570 -0.9141
 5896TIP3    H239104   1.456   4.497  16.485  0.5749 -2.0726  0.3059
 5897TIP3   OH239105   1.524   2.790   2.495  0.7109  0.0945 -0.5074
 5897TIP3    H139106   1.445   2.782   2.548  0.4012 -0.7507 -1.0702
 5897TIP3    H239107   1.591   2.740   2.543  1.1689  1.5357  0.4174
 5898TIP3   OH239108   4.072   5.539  12.844 -0.1811  0.4058  0.3624
 5898TIP3    H139109   4.134   5.467  12.857 -2.0176 -1.6681 -1.6178
 5898TIP3    H239110   3.991   5.508  12.883 -1.1720  1.1756 -1.0277
 5899TIP3   OH239111   3.824   5.369  13.964 -0.3389 -0.0072 -0.8020
 5899TIP3    H139112   3.766   5.413  13.902 -0.3454  0.2553 -0.6122
 5899TIP3    H239113   3.911   5.373  13.923 -0.4020 -0.1302 -0.9457
 5900TIP3   OH239114   3.580   1.943  12.337  0.0570  0.0891 -0.3412
 5900TIP3    H139115   3.524   1.919  12.411 -0.5762 -0.4817 -0.9843
 5900TIP3    H239116   3.533   1.910  12.260  1.1133 -0.0969 -0.9286
 5901TIP3   OH239117   6.564   2.506  15.910  0.3755  0.3770  1.0509
 5901TIP3    H139118   6.605   2.559  15.842  0.6639 -0.9955  0.1052
 5901TIP3    H239119   6.489   2.466  15.868  0.9814 -1.0833  1.2829
 5902TIP3   OH239120   0.498   0.938  11.719  0.5092 -0.4452  0.3091
 5902TIP3    H139121   0.475   0.845  11.732  2.9586 -1.1416  0.0757
 5902TIP3    H239122   0.568   0.954  11.782  1.6011  0.6435 -1.1366
 5903TIP3   OH239123   4.456   3.089   5.782 -0.1013  0.0574  0.1838
 5903TIP3    H139124   4.519   3.039   5.835  1.3873  0.6961 -0.9124
 5903TIP3    H239125   4.459   3.177   5.819 -0.9595 -0.0871  0.6182
 5904TIP3   OH239126   0.550   2.633   1.332  0.0903 -0.4126  0.2022
 5904TIP3    H139127   0.589   2.701   1.386  1.1618 -0.8545  0.0082
 5904TIP3    H239128   0.617   2.611   1.268 -0.7965 -0.5986 -0.6857
 5905TIP3   OH239129   0.890   5.638   0.971 -0.4162 -0.5178  0.5381
 5905TIP3    H139130   0.902   5.675   1.058 -0.2214 -2.6951  1.4959
 5905TIP3    H239131   0.796   5.621   0.965 -0.4409 -0.3027  0.2754
 5906TIP3   OH239132   4.208   2.148  17.084 -0.3383  0.6469 -0.3465
 5906TIP3    H139133   4.218   2.108  17.171  0.3412  0.0237 -0.6967
 5906TIP3    H239134   4.277   2.214  17.080  0.2929 -0.0095 -0.7672
 5907TIP3   OH239135   5.391   3.767  16.526  0.3875  0.1536 -0.3612
 5907TIP3    H139136   5.349   3.694  16.571  1.3051 -1.6060 -2.2061
 5907TIP3    H239137   5.484   3.744  16.525  0.9989  2.2843  0.5899
 5908TIP3   OH239138   2.893   5.440   6.092  0.3985  0.5809  0.1534
 5908TIP3    H139139   2.892   5.442   5.997  0.8293  0.0106  0.1293
 5908TIP3    H239140   2.952   5.368   6.114  0.3375  0.7331  0.8510
 5909TIP3   OH239141   5.291   5.898   6.007 -0.4090 -0.2725 -0.2124
 5909TIP3    H139142   5.353   5.879   5.936 -0.3390  2.2181 -0.9043
 5909TIP3    H239143   5.307   5.990   6.028 -2.3796 -0.1939  1.1196
 5910TIP3   OH239144   5.163   3.050   0.092 -0.2130  0.1767  0.0614
 5910TIP3    H139145   5.207   2.967   0.107 -0.2660  0.0757 -0.3571
 5910TIP3    H239146   5.233   3.112   0.072 -0.0471  0.5087  1.5056
 5911TIP3   OH239147   1.940   2.480  13.034 -0.0135  0.2388  0.3100
 5911TIP3    H139148   1.881   2.528  13.092 -0.1660 -1.7147  1.9169
 5911TIP3    H239149   1.883   2.418  12.988  0.2843  0.9697 -1.0952
 5912TIP3   OH239150   6.549   4.309   5.117  0.5079  0.3890  0.3786
 5912TIP3    H139151   6.454   4.308   5.105  0.1635  2.2042  2.4191
 5912TIP3    H239152   6.578   4.227   5.076 -1.5217  1.0739 -2.8567
 5913TIP3   OH239153   0.727   1.971   1.078 -0.3885  0.3246 -0.7638
 5913TIP3    H139154   0.800   1.983   1.018  0.1806 -0.7376 -0.3176
 5913TIP3    H239155   0.650   2.003   1.031  0.5078  2.5694 -0.8005
 5914TIP3   OH239156   1.882   6.588   5.695  0.2480  0.4153  0.0394
 5914TIP3    H139157   1.791   6.559   5.688 -0.4336  2.4131 -0.1998
 5914TIP3    H239158   1.907   6.610   5.605  0.8446  0.2283  0.1562
 5915TIP3   OH239159   5.454   4.237   1.163  0.0915 -0.3088  0.3291
 5915TIP3    H139160   5.450   4.188   1.081  0.3035  1.1865 -0.5933
 5915TIP3    H239161   5.548   4.248   1.179  0.0385  0.6617 -0.0016
 5916TIP3   OH239162   4.979   5.878  13.834  0.0842  0.0860  0.1154
 5916TIP3    H139163   4.902   5.836  13.872  0.4093 -1.9990 -1.3689
 5916TIP3    H239164   5.053   5.828  13.867  0.7292  1.1922  0.4061
 5917TIP3   OH239165   6.366   3.062  11.872 -0.3353 -0.4739 -0.0564
 5917TIP3    H139166   6.373   3.046  11.778 -0.8058 -0.8655 -0.0253
 5917TIP3    H239167   6.372   3.157  11.881 -0.7909 -0.4022 -0.5219
 5918TIP3   OH239168   4.973   4.514  14.539  0.4541  0.1165  0.1378
 5918TIP3    H139169   4.996   4.575  14.609 -0.2547  1.8054 -1.0477
 5918TIP3    H239170   4.880   4.496  14.553  0.2878  0.5275 -0.3844
 5919TIP3   OH239171   4.375   3.233  14.667 -0.2736 -0.2141 -0.0809
 5919TIP3    H139172   4.455   3.184  14.688 -0.8518 -0.7099  1.1130
 5919TIP3    H239173   4.314   3.166  14.634  0.3552  0.4407 -2.7489
 5920TIP3   OH239174   2.799   1.698   4.587  0.0885  0.4652  0.1699
 5920TIP3    H139175   2.816   1.783   4.546 -0.1370  0.4411  0.0279
 5920TIP3    H239176   2.846   1.702   4.670 -0.8202  1.1484  0.6657
 5921TIP3   OH239177   4.840   0.824  16.149  0.0807  0.0328 -0.0138
 5921TIP3    H139178   4.925   0.801  16.111 -0.3696 -1.0731 -0.4039
 5921TIP3    H239179   4.859   0.896  16.209  1.3374 -0.3976  0.1362
 5922TIP3   OH239180   2.030   0.747   0.609 -0.1955 -0.2776  0.1330
 5922TIP3    H139181   2.079   0.801   0.548  0.0488  0.6661  1.1384
 5922TIP3    H239182   1.977   0.690   0.554  0.6695 -0.0573 -0.9530
 5923TIP3   OH239183   2.363   5.038   2.978  0.9020  0.1685 -0.5798
 5923TIP3    H139184   2.419   5.017   2.903  0.4189  0.6044 -1.0682
 5923TIP3    H239185   2.407   4.997   3.053  1.2187 -0.5450 -1.1459
 5924TIP3   OH239186   4.483   0.374   4.294  0.1133 -0.2917  0.4615
 5924TIP3    H139187   4.555   0.351   4.352  0.2923 -0.4497  0.1810
 5924TIP3    H239188   4.490   0.469   4.283  0.6427 -0.3810 -0.0364
 5925TIP3   OH239189   1.665   2.591  16.542 -0.0203 -0.3616  0.5136
 5925TIP3    H139190   1.704   2.668  16.500 -0.8057 -1.3275 -2.2647
 5925TIP3    H239191   1.738   2.531  16.554  0.2331 -0.0496  0.5508
 5926TIP3   OH239192   3.016   5.456   0.070 -0.2315  0.0707  0.3215
 5926TIP3    H139193   2.941   5.498   0.112 -0.9569 -0.2087 -0.6744
 5926TIP3    H239194   2.979   5.404  -0.001  1.0526  1.6282 -1.6133
 5927TIP3   OH239195   0.534   5.077  12.814 -0.3499 -0.1888 -0.1094
 5927TIP3    H139196   0.609   5.096  12.758 -1.7454  1.3035 -1.5635
 5927TIP3    H239197   0.464   5.135  12.783 -2.6578 -2.6360  0.0656
 5928TIP3   OH239198   0.271   4.289   0.676  0.0330 -0.1567  0.2124
 5928TIP3    H139199   0.234   4.376   0.689  0.6393  0.5077 -2.1001
 5928TIP3    H239200   0.363   4.298   0.702 -0.4893 -0.8913  2.5818
 5929TIP3   OH239201   2.853   2.486  16.350 -1.5065 -0.1859  0.7087
 5929TIP3    H139202   2.801   2.417  16.391 -1.3981  0.2629  1.6321
 5929TIP3    H239203   2.844   2.561  16.408 -1.4604  0.5288 -0.1808
 5930TIP3   OH239204   0.044   4.975   4.613 -0.2281  0.2733  0.3234
 5930TIP3    H139205   0.047   5.069   4.634 -0.7025  0.7955 -1.6494
 5930TIP3    H239206  -0.045   4.962   4.579  0.8435 -0.0283 -2.7201
 5931TIP3   OH239207   4.107   0.252  12.813 -0.0297 -0.1562 -0.2380
 5931TIP3    H139208   4.138   0.189  12.878  1.4104  0.5639 -0.1762
 5931TIP3    H239209   4.025   0.286  12.848  0.2815 -0.4224  0.7645
 5932TIP3   OH239210   0.544   4.377  11.380 -0.9580 -0.4335  0.1856
 5932TIP3    H139211   0.531   4.288  11.349 -0.8003  0.0379 -1.2978
 5932TIP3    H239212   0.496   4.432  11.318 -1.6596  0.4788  1.4892
 5933TIP3   OH239213   6.059   0.757  13.297  0.0246  0.2430  0.4393
 5933TIP3    H139214   5.965   0.744  13.308 -0.4446  0.1093 -2.6880
 5933TIP3    H239215   6.099   0.678  13.332 -0.9588  0.3921  2.0162
 5934TIP3   OH239216   6.431   5.334   6.312  0.9747 -0.4749 -0.7012
 5934TIP3    H139217   6.380   5.412   6.292 -0.5455 -1.2701 -0.0627
 5934TIP3    H239218   6.401   5.268   6.249  0.7915 -1.1151  0.0375
 5935TIP3   OH239219   3.643   5.886  13.960 -0.7538 -0.3767  0.1005
 5935TIP3    H139220   3.649   5.844  14.046 -0.7977 -0.4206  0.0825
 5935TIP3    H239221   3.730   5.921  13.944 -1.1385  0.9915  0.8449
 5936TIP3   OH239222   6.553   6.138  13.516 -0.1470  0.0624  0.2397
 5936TIP3    H139223   6.464   6.173  13.519 -0.3020 -0.4036  1.3510
 5936TIP3    H239224   6.587   6.148  13.605  1.4773  1.6127 -0.4914
 5937TIP3   OH239225   0.186   5.003   1.128  0.0483  0.0207  0.3029
 5937TIP3    H139226   0.275   4.986   1.098  0.1809  0.1842  0.5961
 5937TIP3    H239227   0.196   5.027   1.220 -0.4382 -1.3808  0.7416
 5938TIP3   OH239228   0.840   5.809  12.276  0.5298  0.6828  0.0988
 5938TIP3    H139229   0.791   5.776  12.201  1.1659  1.0391 -0.4838
 5938TIP3    H239230   0.793   5.776  12.353  0.6417 -0.8047 -0.4528
 5939TIP3   OH239231   1.548   2.805  16.005 -0.3565  0.4511  0.3408
 5939TIP3    H139232   1.598   2.776  15.928 -0.4669 -0.1368  0.4865
 5939TIP3    H239233   1.463   2.764  15.995  0.2093 -1.1611  1.7007
 5940TIP3   OH239234   5.838   1.115   5.718  0.3996  0.1609 -0.0145
 5940TIP3    H139235   5.912   1.108   5.658  1.6488  3.2485  0.9775
 5940TIP3    H239236   5.878   1.127   5.804 -1.3146 -0.3671  0.8954
 5941TIP3   OH239237   4.829   0.890  11.765 -0.1831 -0.2032  0.5243
 5941TIP3    H139238   4.809   0.808  11.719 -1.6187  0.2690  0.2581
 5941TIP3    H239239   4.914   0.874  11.806 -0.3464 -1.7596  0.3215
 5942TIP3   OH239240   0.562   0.607   0.694 -0.0989 -0.1763  0.1354
 5942TIP3    H139241   0.589   0.543   0.760  2.8408  3.0692  2.4582
 5942TIP3    H239242   0.483   0.647   0.729  0.6687  0.5567  1.1182
 5943TIP3   OH239243   5.564   2.631  17.217 -0.7200 -0.7635 -0.2228
 5943TIP3    H139244   5.654   2.664  17.217 -1.0881  0.3529 -1.8079
 5943TIP3    H239245   5.563   2.564  17.149 -1.3312  0.0111 -0.9995
 5944TIP3   OH239246   3.409   5.347  13.170  0.6967  0.0831 -0.4202
 5944TIP3    H139247   3.472   5.303  13.112  2.3998  1.3461  0.3611
 5944TIP3    H239248   3.369   5.414  13.115  0.6580 -0.1663 -0.7019
 5945TIP3   OH239249   4.963   5.405  12.337 -0.3078 -0.2343  0.5200
 5945TIP3    H139250   5.048   5.449  12.346 -0.3893 -0.0884  0.5667
 5945TIP3    H239251   4.983   5.325  12.288 -0.3064  0.2845 -0.3422
 5946TIP3   OH239252   2.786   0.984  10.703 -0.1045  1.0177  0.5342
 5946TIP3    H139253   2.720   1.013  10.640  1.1856 -1.5940 -2.2452
 5946TIP3    H239254   2.867   1.028  10.676  0.3422  0.3147  0.6931
 5947TIP3   OH239255   5.851   1.951  16.192 -0.5462 -0.5523  0.0844
 5947TIP3    H139256   5.875   1.882  16.131  1.1202 -0.6125  0.7748
 5947TIP3    H239257   5.834   1.906  16.275  1.0495 -0.1268  0.6746
 5948TIP3   OH239258   3.702   5.575  15.994 -0.7899  0.8902  0.2899
 5948TIP3    H139259   3.664   5.657  16.024  1.7753  2.0756  0.5733
 5948TIP3    H239260   3.795   5.583  16.013 -0.0511 -1.0912 -1.9257
 5949TIP3   OH239261   1.450   2.715  14.490 -0.3648 -0.3931  0.1650
 5949TIP3    H139262   1.499   2.676  14.418 -1.4496 -0.7918 -0.3767
 5949TIP3    H239263   1.359   2.714  14.461 -0.6202  0.9710  0.8654
 5950TIP3   OH239264   6.751   4.986  12.289 -0.3245 -0.5777 -0.4663
 5950TIP3    H139265   6.821   4.991  12.354  1.1586 -2.0029 -1.8740
 5950TIP3    H239266   6.777   5.046  12.220 -1.7458  0.7056  0.0506
 5951TIP3   OH239267   1.207   5.204   4.836 -0.6852  0.9683  0.7056
 5951TIP3    H139268   1.266   5.129   4.839 -1.8103  0.0612  0.6753
 5951TIP3    H239269   1.261   5.278   4.866  0.3765  0.1239  0.9391
 5952TIP3   OH239270   4.021   1.057   2.810 -0.2349 -0.0008 -0.0907
 5952TIP3    H139271   4.101   1.004   2.800  1.0929  1.6182  1.3945
 5952TIP3    H239272   4.042   1.140   2.766  0.4291  1.8724  3.3945
 5953TIP3   OH239273   1.350   5.840   1.094 -0.2786 -0.2226 -0.2705
 5953TIP3    H139274   1.270   5.891   1.083 -0.0234  0.0427 -0.9480
 5953TIP3    H239275   1.401   5.889   1.158  0.0934  0.5532 -1.1303
 5954TIP3   OH239276   0.819   4.106   2.908  0.0990 -0.6168  0.7087
 5954TIP3    H139277   0.853   4.192   2.883 -1.0821 -0.0598  0.9085
 5954TIP3    H239278   0.811   4.111   3.004 -1.7177 -0.2136  0.5919
 5955TIP3   OH239279   3.105   5.478   0.401 -0.0069  0.0666  0.3156
 5955TIP3    H139280   3.160   5.448   0.329 -0.4590  0.9960 -0.4408
 5955TIP3    H239281   3.039   5.410   0.411 -0.0649  0.0297 -0.2865
 5956TIP3   OH239282   0.069   6.361  16.636  0.1077 -0.1793 -0.9065
 5956TIP3    H139283  -0.023   6.352  16.611  0.2386  0.4590 -1.6487
 5956TIP3    H239284   0.091   6.277  16.676 -1.2851  0.2701  0.9161
 5957TIP3   OH239285   3.890   2.200   2.584  0.3638 -0.4323  0.0589
 5957TIP3    H139286   3.869   2.106   2.578  1.6220 -0.7400  0.2235
 5957TIP3    H239287   3.980   2.207   2.552  0.5160  0.6204  0.6655
 5958TIP3   OH239288   2.376   0.174  17.301 -0.1652 -0.1624  0.5860
 5958TIP3    H139289   2.445   0.239  17.310 -0.3165 -0.0158  0.7073
 5958TIP3    H239290   2.329   0.200  17.222 -0.8551  0.4819  1.1911
 5959TIP3   OH239291   6.244   4.356  16.845 -0.1987  0.8327  0.3714
 5959TIP3    H139292   6.239   4.314  16.931 -0.0782  1.8742  0.9040
 5959TIP3    H239293   6.163   4.405  16.837  0.1690  1.4395  0.2766
 5960TIP3   OH239294   6.133   3.005   4.859 -0.0292  0.0843 -0.4061
 5960TIP3    H139295   6.208   2.955   4.892  2.1982  2.2899 -1.7817
 5960TIP3    H239296   6.124   2.977   4.768  0.7556  1.5041 -0.9622
 5961TIP3   OH239297   5.951   3.052   3.234 -0.1214  0.3696  0.2705
 5961TIP3    H139298   6.044   3.047   3.258 -0.0104 -0.6990 -0.3368
 5961TIP3    H239299   5.907   3.002   3.302 -0.3309  1.2676  0.8245
 5962TIP3   OH239300   5.059   1.499   1.163 -0.9213 -0.1448  0.0197
 5962TIP3    H139301   5.143   1.519   1.206  0.5598  0.6488 -2.9656
 5962TIP3    H239302   5.083   1.443   1.089 -2.9095  0.6767 -1.3284
 5963TIP3   OH239303   4.769   1.076  13.285 -0.1798  0.1747 -0.4358
 5963TIP3    H139304   4.854   1.039  13.309  0.0769  1.4091  0.6914
 5963TIP3    H239305   4.705   1.020  13.329  0.1852  0.8379  0.9775
 5964TIP3   OH239306   2.814   3.667   2.721  0.3973  0.0491 -0.4155
 5964TIP3    H139307   2.821   3.751   2.677  0.8326  0.6534  0.7551
 5964TIP3    H239308   2.892   3.618   2.695 -1.0555 -1.0344 -3.0990
 5965TIP3   OH239309   3.579   2.656  11.395 -0.1119  0.5980 -0.1261
 5965TIP3    H139310   3.561   2.643  11.302  1.1812  0.3700 -0.3720
 5965TIP3    H239311   3.605   2.569  11.426  3.0329  1.3080 -0.4421
 5966TIP3   OH239312   4.263   1.240  16.259 -0.5505  0.0280  0.2327
 5966TIP3    H139313   4.267   1.279  16.172  1.3129 -1.1341 -0.2713
 5966TIP3    H239314   4.170   1.220  16.272 -0.8252 -0.1559 -1.6668
 5967TIP3   OH239315   2.044   1.708  15.748 -0.2558  0.0422 -0.4134
 5967TIP3    H139316   2.086   1.775  15.802  3.5879 -0.7979 -1.9660
 5967TIP3    H239317   1.990   1.757  15.687  2.0319  1.8330 -1.1830
 5968TIP3   OH239318   5.286   2.186  12.387 -0.4116 -0.1337  0.0651
 5968TIP3    H139319   5.202   2.232  12.391 -1.6898 -2.2466 -1.1631
 5968TIP3    H239320   5.328   2.219  12.308 -0.3935  0.3419  0.2629
 5969TIP3   OH239321   1.133   2.399  14.030  0.2835 -0.6753  0.5875
 5969TIP3    H139322   1.114   2.308  14.053 -2.2041 -0.5018 -0.4108
 5969TIP3    H239323   1.093   2.450  14.100  2.0857 -0.3160  1.3948
 5970TIP3   OH239324   1.647   4.761   6.548  0.0240  0.8513  0.3751
 5970TIP3    H139325   1.665   4.746   6.456  0.6225  2.2808  0.2306
 5970TIP3    H239326   1.644   4.673   6.587  0.3040  0.2636 -0.8962
 5971TIP3   OH239327   2.243   0.712  13.923  0.2684  0.4719  0.0281
 5971TIP3    H139328   2.308   0.764  13.875  1.7658 -0.9582  0.4278
 5971TIP3    H239329   2.241   0.752  14.010  1.1995  0.0624  0.2500
 5972TIP3   OH239330   6.174   4.792  11.828 -0.1017  0.1146 -0.4196
 5972TIP3    H139331   6.252   4.794  11.884 -1.3214 -2.3631  1.5706
 5972TIP3    H239332   6.179   4.873  11.777  3.2651  0.4756  0.2569
 5973TIP3   OH239333   1.769   1.610   0.559  0.9209  0.6741  0.6435
 5973TIP3    H139334   1.762   1.705   0.567 -2.4364  0.5623  0.7929
 5973TIP3    H239335   1.841   1.586   0.617  0.9338  3.0012  1.7235
 5974TIP3   OH239336   4.655   2.529  13.724  0.6700  0.3425 -0.2136
 5974TIP3    H139337   4.699   2.515  13.641  2.1419 -1.6250  0.7896
 5974TIP3    H239338   4.562   2.535  13.702  0.9726 -0.7014 -1.9579
 5975TIP3   OH239339   2.434   2.050  12.879  0.5525 -0.2983 -0.3865
 5975TIP3    H139340   2.522   2.087  12.885  1.1189 -1.4577 -1.3154
 5975TIP3    H239341   2.398   2.061  12.968  1.9727 -0.6436  0.2601
 5976TIP3   OH239342   6.523   2.016  10.853 -0.0720 -0.2431 -0.4289
 5976TIP3    H139343   6.540   2.107  10.876  0.9999 -0.2429 -1.1112
 5976TIP3    H239344   6.519   2.015  10.757  2.7317 -1.2710 -0.6615
 5977TIP3   OH239345   5.425   2.607   3.397  0.0638 -0.3589  0.7613
 5977TIP3    H139346   5.502   2.549   3.394  0.2242 -0.0962 -0.6374
 5977TIP3    H239347   5.354   2.550   3.427  0.1555 -1.3780 -0.8636
 5978TIP3   OH239348   1.094   0.727   5.678  0.3714 -0.3621  0.0367
 5978TIP3    H139349   1.083   0.819   5.653  1.5523  0.2338  1.5162
 5978TIP3    H239350   1.027   0.712   5.745  0.3690 -0.4890  0.0062
 5979TIP3   OH239351   2.300   4.844   3.406 -0.3743  0.4537 -0.1289
 5979TIP3    H139352   2.233   4.875   3.346 -1.6507  0.2937  1.1561
 5979TIP3    H239353   2.253   4.788   3.468  1.3977 -1.8891 -0.7591
 5980TIP3   OH239354   3.035   5.727  12.167 -0.3258 -0.1049 -0.1527
 5980TIP3    H139355   3.003   5.637  12.168  0.0258 -0.2863  2.3604
 5980TIP3    H239356   3.130   5.719  12.161 -0.2634  0.0410  0.4968
 5981TIP3   OH239357   5.678   0.695   2.443  0.3049  0.7729  0.5087
 5981TIP3    H139358   5.666   0.601   2.462  0.7469  0.6440  0.1707
 5981TIP3    H239359   5.595   0.723   2.406  0.0162  0.6209  1.0248
 5982TIP3   OH239360   4.004   6.654   0.872 -0.3210 -0.0654  0.0528
 5982TIP3    H139361   4.080   6.662   0.815  0.2797  0.2644  0.8957
 5982TIP3    H239362   3.935   6.703   0.827 -0.2095 -0.8305 -0.9882
 5983TIP3   OH239363   1.401   3.528   3.688 -0.3375 -0.6459  0.1477
 5983TIP3    H139364   1.482   3.521   3.739 -1.1889 -1.3120  1.4524
 5983TIP3    H239365   1.333   3.496   3.746 -1.7509  1.0712 -0.4811
 5984TIP3   OH239366   1.015   3.935   6.633  0.0253  0.1467  0.5502
 5984TIP3    H139367   1.001   4.000   6.564 -2.4908  1.4664  2.1665
 5984TIP3    H239368   1.049   3.985   6.707  1.6625 -1.0690  0.6638
 5985TIP3   OH239369   3.109   4.083   2.572 -0.4573  0.3302 -0.6687
 5985TIP3    H139370   3.159   4.163   2.557 -2.3392  1.7218  0.0511
 5985TIP3    H239371   3.162   4.013   2.533  1.7756  1.7523 -0.3096
 5986TIP3   OH239372   3.902   2.021  14.309 -0.6434  0.2119  0.2028
 5986TIP3    H139373   3.881   2.104  14.352  0.4239  1.0578 -0.8438
 5986TIP3    H239374   3.981   2.040  14.258 -0.4298 -1.4320 -0.1187
 5987TIP3   OH239375   0.190   3.451  15.466  0.3621  0.7889  0.0749
 5987TIP3    H139376   0.154   3.378  15.516  1.5819  0.7420  0.9227
 5987TIP3    H239377   0.222   3.411  15.384  0.1408  0.5387  0.1092
 5988TIP3   OH239378   2.210   0.013  12.120 -0.0281 -0.0232  0.1123
 5988TIP3    H139379   2.295   0.057  12.125 -0.5868  1.2140 -0.9084
 5988TIP3    H239380   2.231  -0.073  12.082  0.6255  0.7587 -1.3777
 5989TIP3   OH239381   1.388   2.485  11.448 -0.0887  0.0674  0.5201
 5989TIP3    H139382   1.332   2.470  11.372 -0.1960 -0.2702  0.6662
 5989TIP3    H239383   1.367   2.574  11.477 -1.7899 -0.6382  1.6030
 5990TIP3   OH239384   3.618   2.353   2.575  0.2648  0.0175 -0.2817
 5990TIP3    H139385   3.628   2.445   2.550  2.3390 -0.2594 -0.6740
 5990TIP3    H239386   3.699   2.312   2.545 -1.3118 -2.3065 -1.6643
 5991TIP3   OH239387   3.828   2.651   0.314 -0.1250 -0.2563 -0.7011
 5991TIP3    H139388   3.802   2.671   0.404 -0.3531  2.6331 -1.3108
 5991TIP3    H239389   3.921   2.630   0.320  0.2471  1.4637  0.0623
 5992TIP3   OH239390   2.401   5.071   4.514 -0.0278  0.3317 -0.2082
 5992TIP3    H139391   2.349   5.121   4.451 -0.3719  0.0790 -0.1304
 5992TIP3    H239392   2.396   4.980   4.484  0.9660  0.4002 -0.5974
 5993TIP3   OH239393   1.959   6.214  13.128  0.2246 -0.2766  0.3011
 5993TIP3    H139394   1.944   6.146  13.063 -0.4217  0.4186 -0.2989
 5993TIP3    H239395   2.041   6.255  13.100 -0.0008 -0.0429 -0.0367
 5994TIP3   OH239396   1.335   2.514   3.009  0.0568  0.0044 -0.1432
 5994TIP3    H139397   1.403   2.488   3.070  0.4928 -0.9116 -1.0008
 5994TIP3    H239398   1.368   2.594   2.968  0.0285  0.2822  0.3670
 5995TIP3   OH239399   3.135   4.939  15.863  0.6957  0.3294 -0.2970
 5995TIP3    H139400   3.043   4.958  15.845 -0.4133 -2.1035  2.1625
 5995TIP3    H239401   3.162   4.883  15.791  0.1710  0.7489 -0.8367
 5996TIP3   OH239402   3.647   2.007   5.652  0.1786 -0.1564 -0.2096
 5996TIP3    H139403   3.729   2.049   5.627  0.6934 -0.8555  0.2566
 5996TIP3    H239404   3.624   2.048   5.735 -0.4381  0.6870 -0.7785
 5997TIP3   OH239405   5.701   4.700   1.488  0.6471 -0.0604  0.1104
 5997TIP3    H139406   5.666   4.656   1.566  1.0546 -0.7535 -0.0841
 5997TIP3    H239407   5.789   4.727   1.514  1.1631 -1.1735 -0.4048
 5998TIP3   OH239408   1.272   4.423   3.820 -0.6661 -0.1420 -0.2294
 5998TIP3    H139409   1.189   4.428   3.868 -0.3801 -3.8453  0.9921
 5998TIP3    H239410   1.247   4.399   3.731 -0.9618 -0.6260 -0.0198
 5999TIP3   OH239411   0.704   2.114  16.780 -0.4320  0.6054  0.2279
 5999TIP3    H139412   0.774   2.123  16.715 -0.2194  1.4620  0.5579
 5999TIP3    H239413   0.747   2.080  16.858 -0.7199 -0.5947 -0.1175
 6000TIP3   OH239414   1.299   3.947   2.983 -0.2300  0.5364  0.5470
 6000TIP3    H139415   1.204   3.951   2.971 -0.3349  0.5882  1.3615
 6000TIP3    H239416   1.331   3.905   2.904 -1.0939 -1.0172  0.9888
 6001TIP3   OH239417   2.316   0.513   0.982  0.4478  0.5070 -0.4123
 6001TIP3    H139418   2.324   0.574   0.908 -0.4117  0.2007 -0.7687
 6001TIP3    H239419   2.405   0.506   1.017  1.1265 -0.3649 -2.2349
 6002TIP3   OH239420   0.568   5.138  14.601 -0.4926  0.2764  0.1839
 6002TIP3    H139421   0.512   5.203  14.558  0.2546  0.5392 -0.4113
 6002TIP3    H239422   0.514   5.103  14.672 -1.8647 -0.3489 -1.0968
 6003TIP3   OH239423   0.100   1.926  14.220  0.0246  0.0768 -0.3555
 6003TIP3    H139424   0.181   1.901  14.175  0.1637  0.8058 -0.5241
 6003TIP3    H239425   0.077   2.011  14.183  1.0958  1.5520  2.1496
 6004TIP3   OH239426   4.270   6.287  10.711 -0.8364 -0.2813 -0.4499
 6004TIP3    H139427   4.311   6.263  10.794 -3.1361 -1.0045  0.5705
 6004TIP3    H239428   4.199   6.346  10.736 -0.9779  0.2585 -2.0258
 6005TIP3   OH239429   1.590   0.180   1.592 -0.4531 -0.0336 -0.2906
 6005TIP3    H139430   1.573   0.126   1.670  0.9566 -0.4825 -0.2710
 6005TIP3    H239431   1.582   0.270   1.623 -0.3345 -0.2157  0.2801
 6006TIP3   OH239432   0.661   0.174  13.472 -0.0842 -0.2285  0.3894
 6006TIP3    H139433   0.590   0.110  13.478  0.4176 -0.7074  1.8393
 6006TIP3    H239434   0.695   0.164  13.384 -1.2129 -0.6462 -0.0205
 6007TIP3   OH239435   4.123   1.349   0.529 -0.9474  0.4653 -0.1421
 6007TIP3    H139436   4.086   1.261   0.536 -1.8453  0.6706 -1.7644
 6007TIP3    H239437   4.165   1.351   0.443 -0.3664  1.4275  0.1433
 6008TIP3   OH239438   4.674   2.949   4.881  0.0089 -0.4166  0.4132
 6008TIP3    H139439   4.720   3.021   4.924 -0.2741 -0.2981  0.5241
 6008TIP3    H239440   4.653   2.982   4.794  2.1137 -1.2681 -0.4857
 6009TIP3   OH239441   5.956   2.762   4.176 -0.3586 -0.8393  0.1880
 6009TIP3    H139442   5.998   2.700   4.236  1.2934  0.3243  0.3201
 6009TIP3    H239443   5.911   2.707   4.112 -0.5662 -2.1284  1.3880
 6010TIP3   OH239444   5.268   3.473   5.894  0.0166  0.3811 -0.0355
 6010TIP3    H139445   5.354   3.435   5.912  0.1915  0.7465 -0.1117
 6010TIP3    H239446   5.225   3.408   5.837  0.3491  0.3372 -0.2388
 6011TIP3   OH239447   3.973   3.331  12.993 -0.2852 -0.0811 -1.2217
 6011TIP3    H139448   3.920   3.346  12.915 -1.0827 -0.2977 -0.7378
 6011TIP3    H239449   3.908   3.316  13.063  0.4071  0.1940 -0.5059
 6012TIP3   OH239450   1.355   6.078   2.909 -0.0414  0.3304 -0.3160
 6012TIP3    H139451   1.279   6.034   2.870 -0.3581 -1.0266  1.7061
 6012TIP3    H239452   1.404   6.008   2.953  1.6813  1.3978 -0.4332
 6013TIP3   OH239453   3.329   0.224   0.855 -0.1542  0.4147 -0.5405
 6013TIP3    H139454   3.339   0.154   0.791 -1.2593  1.4880 -1.9414
 6013TIP3    H239455   3.234   0.238   0.861 -0.0664  0.4731  1.1943
 6014TIP3   OH239456   5.493   6.206  15.911 -0.5454 -0.9118 -0.6415
 6014TIP3    H139457   5.555   6.278  15.898  1.4177 -2.3881  0.1013
 6014TIP3    H239458   5.407   6.248  15.905  0.4984  1.3382 -1.0779
 6015TIP3   OH239459   3.745   5.160   4.519 -0.5073  0.1740  0.4271
 6015TIP3    H139460   3.671   5.172   4.579 -1.2615 -1.4219 -0.1214
 6015TIP3    H239461   3.820   5.197   4.565 -1.6576  2.0059  0.9290
 6016TIP3   OH239462   2.954   0.429  13.549  0.1630  0.1155  0.4748
 6016TIP3    H139463   2.992   0.341  13.559  0.9890  0.5796  1.6143
 6016TIP3    H239464   2.874   0.414  13.498  0.7928 -1.1655 -0.1986
 6017TIP3   OH239465   6.438   5.032  14.610 -0.5112  0.6341 -0.0244
 6017TIP3    H139466   6.362   5.071  14.653 -0.7750 -0.8004  0.8695
 6017TIP3    H239467   6.403   4.952  14.569  0.0211  1.2483 -1.7547
 6018TIP3   OH239468   4.969   4.716  13.101  0.1512  0.3077  0.7263
 6018TIP3    H139469   4.990   4.759  13.018 -0.5864 -1.3273 -0.3565
 6018TIP3    H239470   5.008   4.629  13.093 -1.4532 -0.5033  1.3357
 6019TIP3   OH239471   5.812   0.948  14.668 -0.1705  0.1376 -0.3396
 6019TIP3    H139472   5.766   0.886  14.611 -1.2455  0.3844  0.2331
 6019TIP3    H239473   5.767   1.031  14.655  0.1867  0.4168  0.1539
 6020TIP3   OH239474   4.619   0.924   1.796  0.1061  0.0208 -0.0115
 6020TIP3    H139475   4.615   0.971   1.713  0.5506 -1.4081 -0.8704
 6020TIP3    H239476   4.544   0.864   1.794 -0.0107  0.1282  0.7192
 6021TIP3   OH239477   5.668   2.398  13.041 -0.3799  0.2056 -0.4279
 6021TIP3    H139478   5.595   2.389  12.979 -0.5328  0.4317 -0.2834
 6021TIP3    H239479   5.674   2.313  13.084  0.2662 -0.2283 -1.3404
 6022TIP3   OH239480   6.288   5.727   5.107 -0.4479  0.3504  0.5880
 6022TIP3    H139481   6.263   5.799   5.049 -1.9179  0.5659  1.4460
 6022TIP3    H239482   6.381   5.711   5.087 -0.2557  2.0774 -0.0261
 6023TIP3   OH239483   1.683   0.336  14.676 -0.0867  0.4355  0.6015
 6023TIP3    H139484   1.717   0.246  14.683 -2.8671 -0.7233  0.3085
 6023TIP3    H239485   1.722   0.370  14.596  2.1516  0.0796  1.4532
 6024TIP3   OH239486   0.842   2.493  16.747 -0.2630  0.2634  0.4690
 6024TIP3    H139487   0.820   2.420  16.689  2.0258  0.4398 -0.7396
 6024TIP3    H239488   0.923   2.467  16.790  0.1155  1.7182  0.6962
 6025TIP3   OH239489   1.822   0.763   2.928  0.1550 -0.6488 -0.2769
 6025TIP3    H139490   1.798   0.674   2.904 -1.2623 -0.6730  1.1336
 6025TIP3    H239491   1.778   0.818   2.863  0.4049 -0.9332 -0.6886
 6026TIP3   OH239492   4.942   5.969  13.042  0.9834  0.7328 -0.7298
 6026TIP3    H139493   4.932   6.024  13.120 -2.1012  1.1360 -1.2735
 6026TIP3    H239494   4.949   6.031  12.970  1.3074  0.3765 -1.0041
 6027TIP3   OH239495   1.562   4.928  13.649  0.2346 -0.8851  0.1445
 6027TIP3    H139496   1.555   5.020  13.677 -0.0105 -0.5416 -0.9996
 6027TIP3    H239497   1.490   4.884  13.695 -2.0499  0.2495 -2.0929
 6028TIP3   OH239498   6.253   1.603  16.606 -0.2426  0.8310 -0.0883
 6028TIP3    H139499   6.237   1.593  16.700 -0.4393  0.3996 -0.1641
 6028TIP3    H239500   6.192   1.672  16.579 -0.3006  0.8427  0.0716
 6029TIP3   OH239501   3.674   6.621   3.378  0.2299 -0.0959 -0.3686
 6029TIP3    H139502   3.598   6.614   3.319 -0.6011 -2.4951  0.8518
 6029TIP3    H239503   3.749   6.603   3.322 -0.2991  0.2952 -1.2208
 6030TIP3   OH239504   1.466   6.458   1.584 -0.5472 -0.3070  0.4091
 6030TIP3    H139505   1.513   6.425   1.507  0.3426 -1.5788  1.4336
 6030TIP3    H239506   1.475   6.553   1.579  0.3665 -0.4177 -0.5216
 6031TIP3   OH239507   6.503   4.008  11.974 -0.2329  0.5235  0.0022
 6031TIP3    H139508   6.564   4.081  11.968  0.1178  0.1357 -2.0629
 6031TIP3    H239509   6.423   4.040  11.933 -0.4219  0.0857  0.0212
 6032TIP3   OH239510   2.654   1.156  10.533 -0.5866  0.0088 -0.8373
 6032TIP3    H139511   2.678   1.230  10.589 -1.5102 -0.5733  0.3937
 6032TIP3    H239512   2.649   1.192  10.445  0.6152  1.0333 -0.5133
 6033TIP3   OH239513   5.101   2.193   2.015 -0.1904  0.1642  0.0465
 6033TIP3    H139514   5.050   2.233   2.086 -0.2409  0.2643 -0.0454
 6033TIP3    H239515   5.093   2.099   2.030 -0.3983  0.1793  0.0375
 6034TIP3   OH239516   2.465   6.057   2.971 -0.6186  0.5381 -0.1140
 6034TIP3    H139517   2.425   6.008   3.041  1.3423  1.0969  1.4983
 6034TIP3    H239518   2.521   5.994   2.925 -0.1519  0.6459  0.2908
 6035TIP3   OH239519   0.800   4.333  13.974  0.6435 -0.4771 -0.2576
 6035TIP3    H139520   0.728   4.380  14.016  0.0839 -0.8444 -0.7799
 6035TIP3    H239521   0.874   4.395  13.975  0.4404 -0.2482  0.6449
 6036TIP3   OH239522   5.776   5.528  13.330  0.4961 -0.3437 -0.3994
 6036TIP3    H139523   5.867   5.518  13.358 -0.5197  0.4758  3.7247
 6036TIP3    H239524   5.733   5.446  13.355 -0.6033  0.6675  1.2046
 6037TIP3   OH239525   2.108   3.204   0.133  0.2965 -0.5591 -0.0747
 6037TIP3    H139526   2.056   3.257   0.074 -0.6774  0.0672  1.2936
 6037TIP3    H239527   2.058   3.123   0.144 -0.5856  0.1473  1.4429
 6038TIP3   OH239528   3.953   4.423  13.174  0.4252 -0.2886 -0.4648
 6038TIP3    H139529   3.939   4.512  13.206  0.6807  0.5207 -2.4373
 6038TIP3    H239530   3.882   4.372  13.213 -0.6363  1.0976 -0.5026
 6039TIP3   OH239531   2.437   5.751   3.919 -0.0711 -0.3986 -0.5622
 6039TIP3    H139532   2.430   5.779   3.828 -1.6365 -1.1313 -0.6958
 6039TIP3    H239533   2.517   5.698   3.922  0.2508  0.0239 -1.3892
 6040TIP3   OH239534   6.544   5.731   2.225 -0.1361 -0.4362  0.3288
 6040TIP3    H139535   6.478   5.763   2.164 -0.1414 -1.7078 -0.3668
 6040TIP3    H239536   6.499   5.727   2.310 -0.2302  0.9949  0.3705
 6041TIP3   OH239537   0.941   1.827   1.589 -0.1820 -0.0364  0.1629
 6041TIP3    H139538   0.889   1.848   1.667  0.6668 -1.1987  1.0831
 6041TIP3    H239539   0.879   1.791   1.526 -0.6329 -0.6390  0.9380
 6042TIP3   OH239540   2.835   6.077  16.706 -0.3484 -0.3622  0.5146
 6042TIP3    H139541   2.814   6.093  16.798 -2.0683  0.0346  0.0883
 6042TIP3    H239542   2.805   5.988  16.690 -0.4044 -0.2902  0.2237
 6043TIP3   OH239543   4.076   1.611   2.616 -0.0174 -0.1591 -0.0538
 6043TIP3    H139544   4.103   1.604   2.525  1.5230  2.3658  0.1027
 6043TIP3    H239545   3.982   1.596   2.615  0.2020 -1.7666 -1.7912
 6044TIP3   OH239546   2.287   1.516  11.520  0.3929  0.5290  0.1007
 6044TIP3    H139547   2.209   1.504  11.465  1.3627 -0.4799 -1.0976
 6044TIP3    H239548   2.270   1.597  11.568 -1.2851  0.4631 -0.3184
 6045TIP3   OH239549   4.769   6.239   2.774  0.4925 -0.4171  0.7392
 6045TIP3    H139550   4.782   6.288   2.693  0.2190 -0.3388  0.7416
 6045TIP3    H239551   4.676   6.250   2.794  0.7079  0.1390  1.4441
 6046TIP3   OH239552   3.430   4.324   6.338  0.5582  0.5455  0.2187
 6046TIP3    H139553   3.471   4.374   6.409  0.6456  0.0973  0.4934
 6046TIP3    H239554   3.338   4.316   6.363  0.9592 -1.2903  1.3022
 6047TIP3   OH239555   0.431   2.355  11.868  0.2405  0.4439 -0.4393
 6047TIP3    H139556   0.345   2.374  11.829 -0.4336 -1.1201  0.2088
 6047TIP3    H239557   0.419   2.271  11.912  2.4057 -0.3057 -1.1932
 6048TIP3   OH239558   3.036   6.176   5.791  0.2344 -0.1573 -0.0107
 6048TIP3    H139559   2.997   6.129   5.718 -0.2501  0.4509 -0.1572
 6048TIP3    H239560   3.099   6.115   5.829 -1.6744 -1.6231  0.9564
 6049TIP3   OH239561   0.349   5.246  12.720 -0.3138  0.7077 -0.2616
 6049TIP3    H139562   0.344   5.217  12.628 -1.1381  0.8406 -0.2678
 6049TIP3    H239563   0.275   5.306  12.730  0.9867  2.3596 -0.0837
 6050TIP3   OH239564   6.619   0.213   1.097 -0.5814 -0.1026 -0.4922
 6050TIP3    H139565   6.657   0.137   1.142 -0.2919  0.9032  1.0225
 6050TIP3    H239566   6.614   0.186   1.005  0.0285 -1.7442 -0.0809
 6051TIP3   OH239567   2.487   1.821   4.986  0.2268 -0.2066 -0.0953
 6051TIP3    H139568   2.425   1.785   5.050  1.5014 -0.0572  1.2646
 6051TIP3    H239569   2.438   1.892   4.943 -0.6129 -0.2158  0.8139
 6052TIP3   OH239570   1.442   1.014  17.361 -0.6424  0.1230  0.0255
 6052TIP3    H139571   1.457   1.082  17.295  0.0696  0.0766  0.1265
 6052TIP3    H239572   1.530   0.985  17.385 -0.9017  0.0060  0.8557
 6053TIP3   OH239573   6.272   3.725  17.130  0.0102 -0.2176 -0.1566
 6053TIP3    H139574   6.332   3.743  17.058 -0.5380 -1.2520 -0.9021
 6053TIP3    H239575   6.227   3.644  17.105 -0.1830 -0.6242  1.3583
 6054TIP3   OH239576   0.969   0.161  11.539  0.0760  0.0470  0.1174
 6054TIP3    H139577   0.917   0.135  11.615 -1.2566  3.1523  0.3919
 6054TIP3    H239578   1.051   0.193  11.576 -0.2384  0.7616  0.2173
 6055TIP3   OH239579   0.664   4.901  15.682 -0.0824 -0.0922 -0.6613
 6055TIP3    H139580   0.725   4.957  15.634 -0.7569  0.8691 -0.4040
 6055TIP3    H239581   0.585   4.900  15.629 -0.6906  0.6405  0.2162
 6056TIP3   OH239582   0.478   0.409   5.615 -0.0527 -0.1081  0.2909
 6056TIP3    H139583   0.457   0.485   5.561 -0.3533 -1.1401 -1.0964
 6056TIP3    H239584   0.397   0.358   5.618 -0.0156 -0.1207  1.6692
 6057TIP3   OH239585   1.377   2.872   2.742  0.1707 -0.3237  0.0212
 6057TIP3    H139586   1.357   2.930   2.669  0.5460 -0.2386 -0.0173
 6057TIP3    H239587   1.297   2.871   2.795  0.4031  0.8160  0.4258
 6058TIP3   OH239588   5.576   5.692  15.410  0.4806  0.5975 -0.2156
 6058TIP3    H139589   5.599   5.599  15.413  0.0607  0.5227  1.4676
 6058TIP3    H239590   5.658   5.738  15.426  0.2462  0.4225  1.7162
 6059TIP3   OH239591   0.204   0.971  17.041  0.0127 -0.3770  0.2936
 6059TIP3    H139592   0.165   0.939  17.122 -0.0949 -0.0134  0.3910
 6059TIP3    H239593   0.292   0.999  17.066 -0.1109 -0.0245  0.3425
 6060TIP3   OH239594   1.106   1.879   3.342  1.0687 -0.0834 -0.1238
 6060TIP3    H139595   1.099   1.850   3.251  0.4045 -1.1122  0.2410
 6060TIP3    H239596   1.135   1.970   3.336  1.0908 -0.1572 -1.3581
 6061TIP3   OH239597   2.678   6.395   0.595  0.4028 -0.4337 -0.0145
 6061TIP3    H139598   2.751   6.338   0.569  0.7144  0.9944 -2.6662
 6061TIP3    H239599   2.605   6.367   0.540 -0.2175 -0.0214  0.5904
 6062TIP3   OH239600   2.451   3.371  12.970  0.6042 -0.2338 -0.4150
 6062TIP3    H139601   2.425   3.314  12.898 -1.6401  0.0819  0.0857
 6062TIP3    H239602   2.477   3.453  12.927 -3.7666  1.1366 -0.9007
 6063TIP3   OH239603   6.532   4.283   4.310 -0.0553  0.7490  0.4788
 6063TIP3    H139604   6.504   4.248   4.226 -1.0575  0.9856  0.7014
 6063TIP3    H239605   6.549   4.205   4.364 -0.7012  0.5866  0.4617
 6064TIP3   OH239606   4.825   0.475  13.011  0.5672  0.0393 -0.6761
 6064TIP3    H139607   4.800   0.512  13.096  1.4502 -0.8305 -0.0321
 6064TIP3    H239608   4.760   0.511  12.950 -2.8516 -2.6618  1.0012
 6065TIP3   OH239609   6.353   1.482   1.622 -0.2715  0.0171  0.0876
 6065TIP3    H139610   6.412   1.470   1.548  0.7831  0.7593  0.7703
 6065TIP3    H239611   6.285   1.415   1.611 -0.1817  0.1731 -1.5726
 6066TIP3   OH239612   1.182   1.162  13.698  0.3115  0.5286  0.2794
 6066TIP3    H139613   1.197   1.227  13.630  4.1806  1.0121  1.3260
 6066TIP3    H239614   1.245   1.092  13.679 -1.9814 -1.7857  0.6278
 6067TIP3   OH239615   5.526   3.758   2.280  0.3319  0.4585 -0.0771
 6067TIP3    H139616   5.560   3.692   2.219 -0.0241  0.6995 -0.5483
 6067TIP3    H239617   5.598   3.776   2.340  0.7072  0.2558 -0.4652
 6068TIP3   OH239618   6.549   0.524  11.609 -0.1008  0.2211  0.0123
 6068TIP3    H139619   6.481   0.569  11.658  0.6779  1.3640  0.0798
 6068TIP3    H239620   6.559   0.575  11.529  1.0611  0.4205  0.2643
 6069TIP3   OH239621   1.448   6.031  16.973 -0.1836 -0.5076  0.0709
 6069TIP3    H139622   1.467   6.118  17.007  0.6737 -0.2642 -0.9759
 6069TIP3    H239623   1.521   5.977  17.002 -0.1449 -0.6126 -0.2202
 6070TIP3   OH239624   2.055   5.449   4.380  0.3178  0.1856 -0.3272
 6070TIP3    H139625   2.054   5.545   4.387  0.1184  0.1249  0.5682
 6070TIP3    H239626   2.103   5.432   4.299 -0.5188  1.0745 -1.0592
 6071TIP3   OH239627   4.544   2.732   4.666  1.1139 -0.3969  0.6036
 6071TIP3    H139628   4.493   2.765   4.740  1.5232  0.1597  0.6501
 6071TIP3    H239629   4.568   2.811   4.617 -0.5232 -0.8432 -1.0439
 6072TIP3   OH239630   3.483   5.557   4.103 -0.6845  0.1103 -0.0242
 6072TIP3    H139631   3.410   5.574   4.163  1.3185  2.7075  1.9232
 6072TIP3    H239632   3.494   5.462   4.104 -2.2450 -0.1053  1.8817
 6073TIP3   OH239633   6.323   0.323   6.262  0.0047  0.4580  0.0492
 6073TIP3    H139634   6.403   0.371   6.239 -0.6561  0.9683 -1.3400
 6073TIP3    H239635   6.299   0.356   6.348  0.4173  1.4812 -0.2136
 6074TIP3   OH239636   2.290   2.175  14.160  0.0707 -0.2041 -0.1639
 6074TIP3    H139637   2.281   2.245  14.225 -1.7379 -2.4922  2.2738
 6074TIP3    H239638   2.230   2.106  14.190  1.8988 -2.9299 -2.2247
 6075TIP3   OH239639   4.796   5.711  12.521 -0.4499  0.1415  0.0906
 6075TIP3    H139640   4.719   5.764  12.541 -1.2072  0.1165 -2.3697
 6075TIP3    H239641   4.793   5.640  12.585 -1.5008  1.0594  1.1072
 6076TIP3   OH239642   2.062   4.207   1.464 -0.2295 -0.2438  0.2410
 6076TIP3    H139643   2.099   4.242   1.545  1.0090 -0.4477 -0.2013
 6076TIP3    H239644   1.993   4.147   1.492 -1.4444  1.4585  1.0430
 6077TIP3   OH239645   3.998   6.507  16.383  0.3276  0.2276 -0.8764
 6077TIP3    H139646   4.044   6.584  16.349  0.6105  0.4435 -0.0161
 6077TIP3    H239647   3.951   6.539  16.460 -2.5384  0.3919 -2.5313
 6078TIP3   OH239648   3.148   2.974  11.667  0.1684 -0.1454 -0.4966
 6078TIP3    H139649   3.068   3.016  11.697  0.4588  0.2438 -0.2479
 6078TIP3    H239650   3.216   3.041  11.678  0.9018 -1.1232  1.2440
 6079TIP3   OH239651   3.860   0.137  10.880 -0.2946 -0.1880  0.1848
 6079TIP3    H139652   3.878   0.209  10.941  0.9923 -0.4217  0.1034
 6079TIP3    H239653   3.820   0.180  10.805  0.1429  0.4135  0.2847
 6080TIP3   OH239654   5.421   1.407  13.650 -0.5384  0.7237  0.5760
 6080TIP3    H139655   5.372   1.345  13.704  2.3288  0.0734  2.6804
 6080TIP3    H239656   5.416   1.490  13.696  1.2294  0.3595  1.5397
 6081TIP3   OH239657   3.434   0.420  12.550 -0.2487 -0.0042 -0.0271
 6081TIP3    H139658   3.368   0.352  12.537 -1.0885  0.8245 -0.1912
 6081TIP3    H239659   3.467   0.406  12.638 -1.0079 -0.1223  0.2408
 6082TIP3   OH239660   0.747   4.091   1.376  0.8586 -0.3519  0.2079
 6082TIP3    H139661   0.788   4.172   1.408 -0.7995  1.1446 -1.2536
 6082TIP3    H239662   0.657   4.095   1.408  0.2924 -0.7641 -1.2569
 6083TIP3   OH239663   0.348   5.441   1.631  0.1110  0.1910 -0.1193
 6083TIP3    H139664   0.386   5.393   1.557  0.4013  1.8498 -1.1028
 6083TIP3    H239665   0.255   5.418   1.629  0.5402 -1.8312  0.6738
 6084TIP3   OH239666   1.432   2.993  14.469  0.2541 -0.2419  0.0585
 6084TIP3    H139667   1.378   2.969  14.394  0.8282 -2.4955  0.3103
 6084TIP3    H239668   1.460   2.910  14.507  3.0936  0.8067  0.5335
 6085TIP3   OH239669   0.895   1.024   2.653  0.4313  0.5472 -0.3095
 6085TIP3    H139670   0.840   1.100   2.671  1.1277  1.2507 -1.0600
 6085TIP3    H239671   0.841   0.949   2.677  0.9511  1.2885  3.9341
 6086TIP3   OH239672   4.857   0.991   4.388 -0.6972  0.3936 -0.1210
 6086TIP3    H139673   4.852   0.905   4.430 -1.1642  0.7952  0.6718
 6086TIP3    H239674   4.866   0.971   4.294 -0.3386 -0.5143  0.0885
 6087TIP3   OH239675   3.506   2.960  12.300 -0.5216 -0.0510 -0.1782
 6087TIP3    H139676   3.445   3.009  12.246 -1.5684 -0.8042  0.2983
 6087TIP3    H239677   3.498   2.869  12.270  0.6318 -0.1060 -0.3568
 6088TIP3   OH239678   3.176   6.060   2.674 -0.6690 -0.0702 -0.3633
 6088TIP3    H139679   3.163   6.137   2.730  0.2435  0.4351 -0.8228
 6088TIP3    H239680   3.102   6.061   2.613 -0.1665  1.0020 -0.9796
 6089TIP3   OH239681   0.278   0.606   4.457 -0.2744 -0.3287 -0.3059
 6089TIP3    H139682   0.201   0.563   4.420 -0.5575 -0.4163  0.3587
 6089TIP3    H239683   0.346   0.597   4.391 -0.3340 -1.7602 -0.2099
 6090TIP3   OH239684   0.478   1.760   1.605  0.1842  0.8142 -0.0779
 6090TIP3    H139685   0.502   1.735   1.516  0.9617  1.5132 -0.0732
 6090TIP3    H239686   0.528   1.699   1.660 -0.0421  0.5981 -0.1082
 6091TIP3   OH239687   1.313   0.756   2.850  0.0902 -0.5140 -0.4487
 6091TIP3    H139688   1.352   0.843   2.849  0.7532 -0.7994 -0.0592
 6091TIP3    H239689   1.341   0.716   2.768  2.9521 -1.6949  0.9576
 6092TIP3   OH239690   4.336   1.192   2.805 -0.4190  0.3571  0.5637
 6092TIP3    H139691   4.418   1.192   2.756 -0.2733 -0.1831  0.8006
 6092TIP3    H239692   4.363   1.192   2.897 -0.6268 -1.8509  0.6854
 6093TIP3   OH239693   3.678   2.362  13.868 -0.3774 -0.0980  0.4687
 6093TIP3    H139694   3.600   2.372  13.923 -1.0358 -0.1098 -0.4461
 6093TIP3    H239695   3.702   2.452  13.845 -0.0864 -0.0917  0.7899
 6094TIP3   OH239696   3.202   4.980   4.312 -0.2454  0.2740  0.2733
 6094TIP3    H139697   3.283   5.001   4.265  0.0050 -0.0554  0.5507
 6094TIP3    H239698   3.223   4.995   4.404 -0.2911 -0.4369  0.4092
 6095TIP3   OH239699   6.669   2.221   2.591 -0.1659 -0.3496  0.0098
 6095TIP3    H139700   6.753   2.265   2.595 -0.7904  1.0625 -1.3191
 6095TIP3    H239701   6.683   2.147   2.532 -0.2104  0.8309 -1.5329
 6096TIP3   OH239702   4.272   2.868  12.087  0.3531 -0.3313  0.8947
 6096TIP3    H139703   4.232   2.929  12.025  1.3677 -0.5723 -0.0101
 6096TIP3    H239704   4.303   2.795  12.034  1.1632 -0.5933  1.7007
 6097TIP3   OH239705   4.258   1.399  15.495 -0.2683  0.0296 -0.8703
 6097TIP3    H139706   4.276   1.459  15.423  0.1882 -1.0880 -1.7364
 6097TIP3    H239707   4.343   1.385  15.537 -0.5378  0.6939 -0.0876
 6098TIP3   OH239708   1.410   0.898   0.660 -0.4985  0.0411 -0.5164
 6098TIP3    H139709   1.344   0.830   0.644  0.2028 -0.8910  0.3897
 6098TIP3    H239710   1.459   0.904   0.578 -0.0871 -1.1138 -0.3749
 6099TIP3   OH239711   2.248   1.183  15.643  0.0537 -0.3279 -0.4920
 6099TIP3    H139712   2.233   1.095  15.609  0.0795 -0.8632  0.8387
 6099TIP3    H239713   2.259   1.171  15.737  1.1751  0.9687 -0.4298
 6100TIP3   OH239714   4.813   1.265  16.767 -0.3135 -0.7451 -0.2011
 6100TIP3    H139715   4.875   1.199  16.797 -0.2433  0.4315  2.6381
 6100TIP3    H239716   4.860   1.316  16.702  0.5829 -1.8118 -0.4026
 6101TIP3   OH239717   5.877   6.542  12.631 -0.4199 -0.1511 -0.0648
 6101TIP3    H139718   5.872   6.621  12.577 -0.2978 -0.2625 -0.2370
 6101TIP3    H239719   5.951   6.559  12.690  0.2735 -0.5749 -0.8012
 6102TIP3   OH239720   5.084   6.428   2.772 -0.1250  0.0503  0.2785
 6102TIP3    H139721   5.023   6.457   2.705  1.7237 -1.4555 -2.2426
 6102TIP3    H239722   5.165   6.476   2.754  1.2242 -2.2992 -0.3646
 6103TIP3   OH239723   3.902   5.025   2.372  0.1599 -0.1221  0.0105
 6103TIP3    H139724   3.885   5.094   2.437 -0.8158 -1.0063  0.7309
 6103TIP3    H239725   3.924   4.948   2.424  1.1350 -0.3967 -0.7821
 6104TIP3   OH239726   5.290   6.223  16.509 -0.5214  0.0372 -0.1272
 6104TIP3    H139727   5.332   6.152  16.459  0.2374  0.9703 -0.8585
 6104TIP3    H239728   5.360   6.259  16.562 -1.1845 -0.5199  1.1667
 6105TIP3   OH239729   3.976   3.876   5.163 -0.0850  0.6261  0.2772
 6105TIP3    H139730   3.923   3.813   5.210  0.1477 -0.5733 -0.9953
 6105TIP3    H239731   4.057   3.882   5.214  0.2536 -0.8132 -0.0486
 6106TIP3   OH239732   3.312   0.148  12.942 -0.1960  0.2503 -0.7622
 6106TIP3    H139733   3.223   0.176  12.961  0.5818  3.2231 -1.0133
 6106TIP3    H239734   3.351   0.131  13.028 -0.4796  0.7962 -0.5235
 6107TIP3   OH239735   3.519   2.592   3.580 -0.0126  0.0386 -0.0328
 6107TIP3    H139736   3.464   2.624   3.651  0.9127  2.1896 -0.2257
 6107TIP3    H239737   3.574   2.666   3.556  1.6183 -1.4513 -1.1691
 6108TIP3   OH239738   1.872   4.102   0.458  0.8895 -0.4447 -0.0194
 6108TIP3    H139739   1.836   4.069   0.376  0.4283  0.4462 -0.1945
 6108TIP3    H239740   1.907   4.025   0.502 -2.8588 -1.7931  1.0240
 6109TIP3   OH239741   1.117   5.409  11.992 -0.2245  0.2050 -0.7309
 6109TIP3    H139742   1.157   5.323  11.980 -0.4445  0.2347 -1.7743
 6109TIP3    H239743   1.104   5.442  11.903  0.5728  1.6484 -0.3487
 6110TIP3   OH239744   0.837   3.606   2.390 -0.3237  0.2330  0.9829
 6110TIP3    H139745   0.859   3.621   2.482 -1.1649  0.5188  1.1520
 6110TIP3    H239746   0.920   3.612   2.344 -0.0002  0.9002  1.6265
 6111TIP3   OH239747   4.120   0.559   1.724  0.2591  0.6215 -0.4298
 6111TIP3    H139748   4.200   0.577   1.675  0.6741 -1.4857 -0.5915
 6111TIP3    H239749   4.137   0.477   1.769 -2.3036 -0.7115 -1.6520
 6112TIP3   OH239750   6.052   0.370  11.726 -0.4257 -0.1518 -0.2473
 6112TIP3    H139751   6.052   0.304  11.657  1.2849 -0.9189  0.4311
 6112TIP3    H239752   6.094   0.446  11.687 -0.9806  0.0143 -0.5405
 6113TIP3   OH239753   5.961   1.599  16.353 -0.1022  0.4639 -0.6942
 6113TIP3    H139754   5.917   1.572  16.272 -0.7846  1.3821 -0.6467
 6113TIP3    H239755   5.894   1.649  16.400  0.0314 -0.7278  0.8160
 6114TIP3   OH239756   4.995   0.916   2.326 -0.1606  0.0273  0.2584
 6114TIP3    H139757   4.924   0.957   2.277 -0.0436 -1.5920 -1.3711
 6114TIP3    H239758   5.073   0.929   2.273  0.3133 -0.2797  0.8618
 6115TIP3   OH239759   0.930   5.213  14.228  0.3789 -0.1697 -0.6144
 6115TIP3    H139760   0.869   5.153  14.269  0.5000  1.0112  1.4460
 6115TIP3    H239761   0.931   5.188  14.136 -1.2098 -1.8705 -0.2173
 6116TIP3   OH239762   1.482   5.785   3.493  0.5220 -0.8500  0.4287
 6116TIP3    H139763   1.550   5.849   3.511  0.0003 -0.0903 -0.2346
 6116TIP3    H239764   1.406   5.837   3.466 -0.4722 -1.6539  1.5723
 6117TIP3   OH239765   2.490   2.583  16.275  0.0464  0.9540  0.1450
 6117TIP3    H139766   2.513   2.508  16.330 -1.0074  1.7095  1.6836
 6117TIP3    H239767   2.432   2.636  16.330 -0.9170  1.8394 -1.6499
 6118TIP3   OH239768   4.860   2.980   3.421  0.7194  0.2266  0.1055
 6118TIP3    H139769   4.817   3.065   3.411 -0.4894 -0.3942 -0.2169
 6118TIP3    H239770   4.945   3.000   3.459 -0.9076  1.3258  3.5932
 6119TIP3   OH239771   0.167   1.920   3.815 -0.4559  0.5315 -0.2627
 6119TIP3    H139772   0.087   1.973   3.820 -0.6505  0.2517 -0.3802
 6119TIP3    H239773   0.152   1.862   3.741 -0.7936 -0.5824  0.6452
 6120TIP3   OH239774   6.079   6.617   0.071  0.5793 -0.0004 -0.4097
 6120TIP3    H139775   6.066   6.705   0.105 -1.3777 -0.4309  0.0441
 6120TIP3    H239776   6.080   6.561   0.148 -0.0388 -0.5714 -0.8077
 6121TIP3   OH239777   3.558   6.507   0.189  0.7015 -0.1611  0.5642
 6121TIP3    H139778   3.572   6.601   0.181 -0.1870  0.0866  1.6722
 6121TIP3    H239779   3.644   6.468   0.178  1.0282  0.7496 -0.2499
 6122TIP3   OH239780   4.246   5.728   0.914 -0.4228 -1.0143 -0.2113
 6122TIP3    H139781   4.284   5.785   0.981 -1.6305 -1.7137  1.1434
 6122TIP3    H239782   4.254   5.640   0.951 -0.8253 -1.4576 -1.1500
 6123TIP3   OH239783   4.668   2.937   1.970  0.3512  0.4379 -0.3191
 6123TIP3    H139784   4.718   2.914   1.892  0.2736  1.0538 -0.5531
 6123TIP3    H239785   4.730   2.982   2.026  0.0451  1.2814 -0.6473
 6124TIP3   OH239786   6.620   1.800   1.169 -0.2879  0.5155 -0.0333
 6124TIP3    H139787   6.652   1.880   1.211 -0.5708  1.1206 -0.9421
 6124TIP3    H239788   6.535   1.825   1.133 -0.6079 -0.3442  0.1217
 6125TIP3   OH239789   4.194   0.637   3.823 -0.2069 -0.9631  0.0642
 6125TIP3    H139790   4.221   0.546   3.838 -2.0995 -1.8372 -1.3972
 6125TIP3    H239791   4.129   0.632   3.753 -0.2050  1.5668 -0.2256
 6126TIP3   OH239792   1.263   1.113  14.616 -0.8326  0.0363 -0.0311
 6126TIP3    H139793   1.245   1.196  14.660  0.3198 -0.8993  2.4330
 6126TIP3    H239794   1.190   1.056  14.642 -0.1415 -0.5311  0.7045
 6127TIP3   OH239795   3.232   6.574   3.970 -0.5007 -0.1427 -0.2373
 6127TIP3    H139796   3.229   6.617   4.056  0.7342 -1.6375  0.6146
 6127TIP3    H239797   3.193   6.488   3.985  0.4917 -0.7352 -0.9539
 6128TIP3   OH239798   0.523   6.555  15.811 -0.0448  0.0633  0.2146
 6128TIP3    H139799   0.540   6.555  15.905  0.7357 -0.3531  0.0814
 6128TIP3    H239800   0.540   6.645  15.783 -0.0005  0.1208  0.4262
 6129TIP3   OH239801   0.284   5.419   5.323 -0.0450 -0.1700 -0.3028
 6129TIP3    H139802   0.312   5.393   5.411  2.1153 -2.7464 -1.6167
 6129TIP3    H239803   0.362   5.460   5.285 -0.0614 -1.5065 -1.8635
 6130TIP3   OH239804   4.933   2.919  13.261 -0.0596  0.5520  0.3195
 6130TIP3    H139805   4.983   2.907  13.342  0.0721 -0.1519  0.1395
 6130TIP3    H239806   4.869   2.987  13.283 -0.7676 -0.4084  1.3648
 6131TIP3   OH239807   5.304   0.075   1.839 -0.3512 -0.1944 -0.0385
 6131TIP3    H139808   5.222   0.035   1.867 -0.3655 -0.6668 -0.7131
 6131TIP3    H239809   5.293   0.168   1.856 -0.8895 -0.2994  0.2033
 6132TIP3   OH239810   2.687   3.367  11.430  0.4548  0.0939 -0.0354
 6132TIP3    H139811   2.712   3.298  11.491 -1.9039  0.1027  1.0768
 6132TIP3    H239812   2.653   3.320  11.354  1.2898  0.0710 -0.4032
 6133TIP3   OH239813   2.147   3.843  16.076  0.1661 -0.1364  0.4689
 6133TIP3    H139814   2.192   3.913  16.029 -0.0038 -0.6940 -0.5582
 6133TIP3    H239815   2.126   3.779  16.008 -1.7051 -0.1441  1.0105
 6134TIP3   OH239816   2.480   0.207  14.400 -0.2628  0.6565  0.3384
 6134TIP3    H139817   2.425   0.242  14.330 -1.5852 -0.5243  0.7333
 6134TIP3    H239818   2.466   0.112  14.396  1.7913  0.3011  0.4579
 6135TIP3   OH239819   0.545   4.904  10.773  0.0089  0.1535 -0.1446
 6135TIP3    H139820   0.461   4.921  10.731  0.5181  0.3152 -1.1353
 6135TIP3    H239821   0.602   4.974  10.741  0.6445 -0.2254  0.1343
 6136TIP3   OH239822   2.045   2.279   5.118 -0.3666 -0.1112  0.3411
 6136TIP3    H139823   1.958   2.305   5.086 -0.1709  0.9749  0.6495
 6136TIP3    H239824   2.102   2.288   5.041 -0.2337  0.7585  0.5292
 6137TIP3   OH239825   0.656   3.930   2.790 -0.4558 -0.0512 -0.2392
 6137TIP3    H139826   0.711   3.996   2.831  0.1360 -0.5539 -0.2078
 6137TIP3    H239827   0.600   3.897   2.861 -0.0466 -0.2967 -0.0280
 6138TIP3   OH239828   3.420   0.801   3.801  0.1128 -0.0642  0.2319
 6138TIP3    H139829   3.493   0.789   3.861  1.5001  0.9265 -1.1730
 6138TIP3    H239830   3.446   0.755   3.722 -1.6135 -1.2153  0.2959
 6139TIP3   OH239831   2.373   6.507  16.596  0.4750  0.2103  0.3318
 6139TIP3    H139832   2.417   6.437  16.548  1.9048  1.0164  0.4393
 6139TIP3    H239833   2.439   6.542  16.655  0.0499  2.1832 -0.2722
 6140TIP3   OH239834   2.103   0.233   3.971 -0.2121  0.4910  0.2198
 6140TIP3    H139835   2.054   0.221   4.053 -2.3250 -1.0944 -1.1544
 6140TIP3    H239836   2.079   0.321   3.942 -1.1145  0.2935  0.3178
 6141TIP3   OH239837   1.145   3.386   0.124  0.6291 -0.1558  0.3066
 6141TIP3    H139838   1.081   3.429   0.067 -0.5996 -0.5460  1.3685
 6141TIP3    H239839   1.166   3.452   0.190  0.0095 -0.5938  0.9551
 6142TIP3   OH239840   0.891   0.221  15.781 -0.3684  0.0420 -0.1425
 6142TIP3    H139841   0.918   0.144  15.730  0.1461  0.5648 -0.6813
 6142TIP3    H239842   0.932   0.294  15.736  1.1828  0.4292  1.7498
 6143TIP3   OH239843   3.744   6.087   4.474  0.0013  0.1575 -0.2481
 6143TIP3    H139844   3.733   6.107   4.567  0.0053  2.3979 -0.6770
 6143TIP3    H239845   3.838   6.100   4.458  0.5593 -2.8379 -0.0740
 6144TIP3   OH239846   1.610   0.784   0.894  0.7767 -0.0757 -0.4298
 6144TIP3    H139847   1.544   0.831   0.843  1.9801  1.8255 -0.3336
 6144TIP3    H239848   1.693   0.825   0.869  1.4949  0.5837  2.5919
 6145TIP3   OH239849   3.232   0.390  11.555  0.5585 -0.2211  0.0794
 6145TIP3    H139850   3.244   0.485  11.558  0.2545 -0.1800  2.8280
 6145TIP3    H239851   3.310   0.357  11.510  1.6341  1.2496  0.7750
 6146TIP3   OH239852   1.920   1.879   0.989 -0.1819  0.4107 -0.0765
 6146TIP3    H139853   1.918   1.784   1.000  1.1509  0.5051  1.3328
 6146TIP3    H239854   1.844   1.911   1.038  0.7925  0.2037  1.6545
 6147TIP3   OH239855   5.286   1.975  12.722  0.0229 -0.2331  0.2717
 6147TIP3    H139856   5.310   1.937  12.807  0.3596  2.3289  1.4171
 6147TIP3    H239857   5.370   1.989  12.678 -0.0216  0.0953  0.2899
 6148TIP3   OH239858   5.059   4.603   5.544  0.7251 -0.1408  0.1083
 6148TIP3    H139859   5.066   4.630   5.452 -1.4145 -0.3302 -0.1774
 6148TIP3    H239860   5.106   4.671   5.592  0.5246  0.8526 -1.0269
 6149TIP3   OH239861   0.491   6.708  11.419  0.1006  0.3427 -0.4391
 6149TIP3    H139862   0.571   6.758  11.434  1.0459 -1.4540  0.9900
 6149TIP3    H239863   0.449   6.705  11.505  0.6884 -2.2108 -0.1524
 6150TIP3   OH239864   2.619   6.039  15.467  1.0138 -0.1755 -0.0474
 6150TIP3    H139865   2.683   6.040  15.538  1.2369  0.5917 -0.2496
 6150TIP3    H239866   2.568   5.959  15.482  3.5636 -2.1604 -1.2911
 6151TIP3   OH239867   3.423   6.362  13.151  0.4179 -0.4387  0.1273
 6151TIP3    H139868   3.487   6.397  13.214  0.7441  0.0365 -0.4494
 6151TIP3    H239869   3.340   6.403  13.176  0.8513  1.0505 -0.7269
 6152TIP3   OH239870   5.829   6.044  16.568 -0.4081  0.5032  0.5476
 6152TIP3    H139871   5.792   6.083  16.489  1.4385  0.4428 -0.4050
 6152TIP3    H239872   5.801   6.101  16.639  0.1295  2.1255 -0.4938
 6153TIP3   OH239873   3.366   4.075  17.178  0.0071 -0.4862  0.4390
 6153TIP3    H139874   3.412   4.084  17.261  2.2758 -0.8214 -0.7136
 6153TIP3    H239875   3.391   3.988  17.146 -1.3132 -0.6101 -0.3324
 6154TIP3   OH239876   0.649   5.534   2.551 -0.3627 -0.6025 -0.1109
 6154TIP3    H139877   0.564   5.531   2.596  0.1732 -0.4343  0.9537
 6154TIP3    H239878   0.685   5.446   2.560  1.0738  0.1380  2.5372
 6155TIP3   OH239879   4.717   1.176   0.568  0.0999 -0.7657 -0.0517
 6155TIP3    H139880   4.645   1.169   0.630  0.6286 -0.8324  0.5681
 6155TIP3    H239881   4.685   1.132   0.489 -0.6996 -0.3935  0.0569
 6156TIP3   OH239882   0.573   6.089   1.181  0.0277  0.3482  0.0793
 6156TIP3    H139883   0.481   6.086   1.157  0.7626  1.0988 -3.2954
 6156TIP3    H239884   0.595   6.182   1.182  1.6632  0.2068 -3.9307
 6157TIP3   OH239885   4.726   2.571  14.250 -0.1800  1.2010 -0.3688
 6157TIP3    H139886   4.686   2.655  14.229  1.2525  1.1393 -4.0773
 6157TIP3    H239887   4.820   2.588  14.253  0.0577 -0.0458  0.2272
 6158TIP3   OH239888   1.696   5.617   6.088 -0.1025 -0.1885  0.0971
 6158TIP3    H139889   1.683   5.523   6.101  2.0739 -0.9666 -2.4478
 6158TIP3    H239890   1.720   5.650   6.175  0.5927 -2.2928  0.7651
 6159TIP3   OH239891   5.591   1.374   2.230 -0.3646  0.2764 -0.3018
 6159TIP3    H139892   5.583   1.343   2.320  0.1111  0.8408 -0.0625
 6159TIP3    H239893   5.558   1.464   2.233 -0.1973  0.3493 -0.6632
 6160TIP3   OH239894   0.890   6.464   2.376  0.1373 -0.3787 -0.1274
 6160TIP3    H139895   0.862   6.515   2.452 -1.2167 -3.0904  1.3135
 6160TIP3    H239896   0.810   6.423   2.343  0.5765  1.1523 -3.4761
 6161TIP3   OH239897   4.688   3.790  13.095 -0.2057 -0.6812  0.2627
 6161TIP3    H139898   4.651   3.833  13.172 -0.7234  1.1574 -0.9567
 6161TIP3    H239899   4.612   3.773  13.038  0.4524  0.7573 -1.1288
 6162TIP3   OH239900   3.986   5.567  16.035  0.3268 -0.4482  0.2513
 6162TIP3    H139901   4.001   5.515  16.114 -1.2248 -0.4770  0.5430
 6162TIP3    H239902   4.023   5.653  16.057 -1.2929 -0.0325  1.5739
 6163TIP3   OH239903   4.332   2.243  12.224 -0.3160 -0.3525  0.3292
 6163TIP3    H139904   4.262   2.300  12.257  0.2839 -1.0790  3.1127
 6163TIP3    H239905   4.408   2.301  12.218  0.3739 -0.7549  3.4580
 6164TIP3   OH239906   5.297   3.122   2.838 -0.4345  0.2586 -0.0353
 6164TIP3    H139907   5.205   3.130   2.863  0.0542  2.2867  1.3661
 6164TIP3    H239908   5.294   3.087   2.748 -2.5703  0.5718 -0.1466
 6165TIP3   OH239909   6.202   3.637   0.345 -0.1453  0.1605  0.2685
 6165TIP3    H139910   6.166   3.575   0.409  2.3908 -1.5882  0.1706
 6165TIP3    H239911   6.247   3.702   0.398 -2.6921  2.0127  0.3637
 6166TIP3   OH239912   4.387   0.771   1.883 -0.2802 -0.0089 -0.3311
 6166TIP3    H139913   4.320   0.839   1.887 -0.4751 -0.2456  1.5598
 6166TIP3    H239914   4.430   0.775   1.969 -0.3799 -2.3240 -0.1144
 6167TIP3   OH239915   2.848   2.496   0.677 -0.1950  0.5321 -0.1023
 6167TIP3    H139916   2.910   2.544   0.623 -0.6586  1.1229 -0.1091
 6167TIP3    H239917   2.767   2.493   0.625 -0.2796  0.0502  0.0451
 6168TIP3   OH239918   2.281   3.816   2.411 -0.1802 -0.0625 -0.4960
 6168TIP3    H139919   2.211   3.779   2.358 -0.9287 -0.3603  0.6547
 6168TIP3    H239920   2.283   3.760   2.489  2.0579 -0.7195 -0.9526
 6169TIP3   OH239921   6.222   3.885   5.303  1.1589 -0.0187 -0.1161
 6169TIP3    H139922   6.226   3.896   5.208 -0.6303 -0.9117 -0.3391
 6169TIP3    H239923   6.144   3.934   5.330 -0.8319 -3.0989  0.2506
 6170TIP3   OH239924   2.731   4.715  13.645 -0.0745  0.4578 -0.1639
 6170TIP3    H139925   2.661   4.762  13.688  0.0962 -0.9154  1.7398
 6170TIP3    H239926   2.727   4.743  13.553 -1.8799  1.8012  0.2867
 6171TIP3   OH239927   0.119   1.796   4.138 -0.0828 -0.0207 -0.2024
 6171TIP3    H139928   0.058   1.785   4.211  0.8505  0.7610  0.7284
 6171TIP3    H239929   0.083   1.869   4.088  0.8506  1.5149  1.2318
 6172TIP3   OH239930   2.346   2.408  10.655 -0.4688  0.4779 -0.4993
 6172TIP3    H139931   2.385   2.492  10.631  1.0490 -0.0937 -0.1259
 6172TIP3    H239932   2.252   2.426  10.660  0.0213  2.9157  2.4912
 6173TIP3   OH239933   5.365   2.257  12.111 -0.3446 -0.1088 -0.2143
 6173TIP3    H139934   5.342   2.167  12.086 -1.4795  0.1112  0.0154
 6173TIP3    H239935   5.291   2.310  12.083 -0.1386  0.6172  0.5618
 6174TIP3   OH239936   2.177   5.582   3.961 -0.2126  0.8051 -0.1448
 6174TIP3    H139937   2.262   5.618   3.939  0.2590 -1.0213 -1.5495
 6174TIP3    H239938   2.116   5.622   3.899  0.0796  0.2204 -0.8198
 6175TIP3   OH239939   4.666   6.731  15.224  0.4378 -0.3242 -0.1117
 6175TIP3    H139940   4.664   6.813  15.274  0.9443  0.3137 -1.1204
 6175TIP3    H239941   4.717   6.751  15.146  0.8887 -1.7138 -0.2010
 6176TIP3   OH239942   2.534   3.382   0.820 -0.0845  0.0858 -0.5683
 6176TIP3    H139943   2.448   3.342   0.836  0.5306 -1.6409 -1.3590
 6176TIP3    H239944   2.587   3.312   0.782  1.6691  1.1407 -0.1898
 6177TIP3   OH239945   1.656   4.509   2.770  0.1640  0.9586 -0.0808
 6177TIP3    H139946   1.641   4.462   2.689  0.2183 -1.1998  1.0939
 6177TIP3    H239947   1.729   4.569   2.751 -0.7063  1.4768 -1.9465
 6178TIP3   OH239948   2.459   1.061  17.023 -0.3025  0.0306 -0.3059
 6178TIP3    H139949   2.552   1.039  17.023 -0.7128 -1.8589 -0.5456
 6178TIP3    H239950   2.454   1.143  16.974  1.1821 -0.0632 -0.6619
 6179TIP3   OH239951   3.415   5.139   1.315 -0.5713  0.1114  0.3440
 6179TIP3    H139952   3.441   5.181   1.397 -1.4083 -0.4304  0.9017
 6179TIP3    H239953   3.438   5.203   1.248  1.2453  0.0718  0.8722
 6180TIP3   OH239954   4.887   4.858   4.891 -0.4082  0.3185 -0.2924
 6180TIP3    H139955   4.948   4.835   4.820  0.7964  0.5800  0.6336
 6180TIP3    H239956   4.930   4.930   4.937 -1.4167  0.4835  0.4052
 6181TIP3   OH239957   2.051   6.333  16.559  0.6629 -0.2452 -0.3129
 6181TIP3    H139958   1.967   6.377  16.544  0.3901 -1.1643 -1.6745
 6181TIP3    H239959   2.105   6.358  16.484  1.2158 -0.5832 -0.0336
 6182TIP3   OH239960   4.080   1.760  16.520 -0.1698 -0.9301 -0.7080
 6182TIP3    H139961   4.095   1.750  16.614 -2.0488  1.6846 -0.0105
 6182TIP3    H239962   3.985   1.770  16.512 -0.0216 -0.8343 -2.8560
 6183TIP3   OH239963   0.442   4.007   4.128  0.7061 -0.4287  0.3924
 6183TIP3    H139964   0.348   4.015   4.142  0.7512 -0.5892  0.7956
 6183TIP3    H239965   0.481   4.071   4.188  0.8146  0.4574 -0.5730
 6184TIP3   OH239966   4.618   0.349  15.132  0.2783 -0.1938  0.1810
 6184TIP3    H139967   4.577   0.367  15.217 -0.4049  1.0804 -0.3993
 6184TIP3    H239968   4.550   0.370  15.068  1.4415  0.8324 -0.7594
 6185TIP3   OH239969   3.028   5.815   4.267  0.7910 -0.1947  0.2239
 6185TIP3    H139970   2.960   5.881   4.256  0.1237 -0.7965  0.6692
 6185TIP3    H239971   3.109   5.866   4.277  0.4219  0.5214 -0.3656
 6186TIP3   OH239972   1.086   6.742   0.757 -0.2555  0.0518  0.3402
 6186TIP3    H139973   1.050   6.794   0.685  0.0508  1.3032  1.0516
 6186TIP3    H239974   1.047   6.781   0.836  1.9372  0.8943  1.0763
 6187TIP3   OH239975   1.530   6.633   2.603 -0.4417 -0.6286  0.1262
 6187TIP3    H139976   1.534   6.683   2.521 -2.7861 -0.3630  0.1239
 6187TIP3    H239977   1.557   6.545   2.579 -1.1278 -0.5595 -0.9532
 6188TIP3   OH239978   2.517   4.943   1.088 -0.1877 -0.3446  0.0467
 6188TIP3    H139979   2.447   5.006   1.069 -1.3256 -1.3599  0.6923
 6188TIP3    H239980   2.543   4.910   1.003 -0.5987 -0.0486 -0.1990
 6189TIP3   OH239981   2.709   4.060  13.741 -0.1824 -0.2677 -0.3639
 6189TIP3    H139982   2.666   4.077  13.825 -1.2123 -0.8669 -0.7401
 6189TIP3    H239983   2.678   3.973  13.717  1.8090 -1.0134 -0.3505
 6190TIP3   OH239984   6.013   0.986  13.802  0.5819 -0.0323 -0.3940
 6190TIP3    H139985   6.019   0.963  13.710 -1.3297  0.9526 -0.8268
 6190TIP3    H239986   6.038   1.079  13.805 -2.8059  1.0345 -0.6065
 6191TIP3   OH239987   6.643   3.660  14.630 -0.2143 -0.1496 -0.1696
 6191TIP3    H139988   6.594   3.718  14.571  0.0062 -0.7572 -0.9648
 6191TIP3    H239989   6.576   3.606  14.671 -0.9599  3.1371  3.5928
 6192TIP3   OH239990   2.503   4.844   5.712  0.3464 -0.2130 -0.0110
 6192TIP3    H139991   2.433   4.817   5.771  1.4229 -0.7646  1.0617
 6192TIP3    H239992   2.534   4.763   5.672 -0.2012  0.1283 -1.1801
 6193TIP3   OH239993   4.918   1.484   5.399  0.1000  0.3371  0.4965
 6193TIP3    H139994   4.989   1.546   5.414 -1.2604  2.0518  0.1378
 6193TIP3    H239995   4.840   1.538   5.384 -0.5376 -1.2729 -3.3140
 6194TIP3   OH239996   0.233   3.681   3.715 -0.3064  0.4083 -0.4721
 6194TIP3    H139997   0.236   3.721   3.802  0.1998 -0.5490 -0.0329
 6194TIP3    H239998   0.322   3.693   3.681 -0.5219  0.8383 -0.8927
 6195TIP3   OH239999   3.441   2.849  11.514  0.1374  0.1295 -0.7566
 6195TIP3    H140000   3.472   2.873  11.601 -0.1846  1.4600 -0.9961
 6195TIP3    H240001   3.519   2.821  11.467  0.4353  0.1950 -0.3048
 6196TIP3   OH240002   6.624   3.042   1.791 -0.2843 -0.7256  0.3441
 6196TIP3    H140003   6.550   3.035   1.851  0.3128  0.4597  1.2815
 6196TIP3    H240004   6.641   3.136   1.786  0.1033 -0.8534 -1.1906
 6197TIP3   OH240005   1.664   0.100  16.667 -0.1040 -0.1848 -0.6373
 6197TIP3    H140006   1.600   0.084  16.736  1.6502  3.0418  2.0475
 6197TIP3    H240007   1.747   0.071  16.705  1.0945  2.7018 -0.7714
 6198TIP3   OH240008   3.123   4.405   1.657  1.2929 -0.2979  0.9856
 6198TIP3    H140009   3.161   4.422   1.744 -0.6718  1.1739  1.6332
 6198TIP3    H240010   3.123   4.310   1.649  4.1726 -0.4218  1.3070
 6199TIP3   OH240011   0.116   1.243  11.788 -0.3954 -0.0360 -0.1412
 6199TIP3    H140012   0.141   1.153  11.769 -0.3462  0.4673 -2.8706
 6199TIP3    H240013   0.125   1.289  11.704 -1.7830  2.1948  0.8225
 6200TIP3   OH240014   1.830   1.685   1.884  0.0314 -0.1041 -0.2027
 6200TIP3    H140015   1.877   1.628   1.823 -1.3628 -0.5407 -0.8992
 6200TIP3    H240016   1.771   1.737   1.830 -0.4254  0.3110  0.6633
 6201TIP3   OH240017   1.960   2.081   5.548 -0.2319 -0.2180 -0.1955
 6201TIP3    H140018   2.028   2.037   5.498 -1.0508  0.5850 -2.0792
 6201TIP3    H240019   1.991   2.077   5.639  0.5689 -3.0702 -0.4879
 6202TIP3   OH240020   0.345   2.695  13.905 -0.1304 -0.2244  0.6950
 6202TIP3    H140021   0.281   2.728  13.841  1.1922  0.9109 -0.1074
 6202TIP3    H240022   0.427   2.738  13.881  1.0003 -1.7969  1.5747
 6203TIP3   OH240023   0.806   5.594  15.495 -0.5460 -0.2493  0.0849
 6203TIP3    H140024   0.814   5.581  15.589 -0.8039  1.8865  0.4518
 6203TIP3    H240025   0.713   5.612  15.480 -0.1074  2.0307 -0.1546
 6204TIP3   OH240026   4.962   4.799  14.028  0.3312 -0.2351  0.2071
 6204TIP3    H140027   5.033   4.735  14.033  1.5823  1.0308 -0.4708
 6204TIP3    H240028   4.962   4.827  13.936  0.0675  0.9945  0.5667
 6205TIP3   OH240029   3.001   0.207  17.025  0.2813 -0.0208  0.1876
 6205TIP3    H140030   3.010   0.225  16.931 -0.8944 -0.1416  0.0366
 6205TIP3    H240031   3.054   0.128  17.039  4.0510  2.3058  0.5146
 6206TIP3   OH240032   0.957   1.900   0.190  0.9704 -0.0434 -0.6807
 6206TIP3    H140033   1.037   1.909   0.241  0.5685  1.6561 -0.3120
 6206TIP3    H240034   0.949   1.805   0.176  3.6511 -0.2271 -1.7368
 6207TIP3   OH240035   0.671   2.050  13.639  0.5255  0.4683 -0.1271
 6207TIP3    H140036   0.605   2.035  13.707  0.8252  0.3132  0.1307
 6207TIP3    H240037   0.730   2.115  13.677  0.9739  0.0174 -0.0433
 6208TIP3   OH240038   5.348   1.655  16.935  0.0431  0.2804  0.5756
 6208TIP3    H140039   5.257   1.658  16.904  0.3883 -2.4660 -1.0656
 6208TIP3    H240040   5.363   1.741  16.972 -2.5995  1.5354 -0.9389
 6209TIP3   OH240041   1.364   0.769  17.162 -0.5533 -0.2170 -0.4185
 6209TIP3    H140042   1.420   0.769  17.240  1.0898 -2.1052 -1.5092
 6209TIP3    H240043   1.277   0.792  17.195  0.2962  0.0831  1.7860
 6210TIP3   OH240044   1.907   2.575  11.682 -0.0961  0.0657 -0.7345
 6210TIP3    H140045   1.926   2.667  11.703  1.3351 -0.9723  3.4096
 6210TIP3    H240046   1.855   2.580  11.602 -1.0971  4.5590 -0.1085
 6211TIP3   OH240047   4.418   5.561   0.527  0.8708 -0.0144  0.3290
 6211TIP3    H140048   4.323   5.567   0.536  0.8697  1.0957 -0.2602
 6211TIP3    H240049   4.447   5.522   0.609 -0.1364 -0.8693  0.3073
 6212TIP3   OH240050   1.505   0.074   2.789  0.1962  0.2126  0.3489
 6212TIP3    H140051   1.521  -0.006   2.738  0.7802  1.3085 -1.2805
 6212TIP3    H240052   1.442   0.123   2.737 -2.5843 -0.4802  2.8358
 6213TIP3   OH240053   4.016   1.664   5.212 -0.3119  0.3187  1.1345
 6213TIP3    H140054   3.973   1.657   5.127  0.8176 -0.7433  0.6218
 6213TIP3    H240055   4.028   1.758   5.225 -1.2101  0.5406  0.5017
 6214TIP3   OH240056   1.610   3.675  16.358 -0.3862  0.9465  0.0910
 6214TIP3    H140057   1.702   3.694  16.373  0.1715 -0.9499 -0.6076
 6214TIP3    H240058   1.578   3.641  16.442 -0.4523  1.6090  0.3340
 6215TIP3   OH240059   0.178   1.738   1.791  0.0470  0.1594 -0.4891
 6215TIP3    H140060   0.269   1.724   1.765 -0.1132  2.5459 -2.7556
 6215TIP3    H240061   0.130   1.664   1.754  0.7551  0.1336 -1.3818
 6216TIP3   OH240062   5.170   2.941   1.718  0.4428  0.5297 -0.1329
 6216TIP3    H140063   5.208   2.861   1.756  0.7435  0.6658 -0.1408
 6216TIP3    H240064   5.227   3.011   1.750 -0.1740  0.8098  0.3634
 6217TIP3   OH240065   5.932   6.512  10.869  0.5912  0.2814  0.3043
 6217TIP3    H140066   6.002   6.514  10.803  1.0252 -0.1763  0.7416
 6217TIP3    H240067   5.977   6.523  10.952  0.1285  0.0786  0.5868
 6218TIP3   OH240068   0.452   2.989  12.255  0.2319  0.1108 -0.9103
 6218TIP3    H140069   0.529   2.943  12.287  0.4942  0.8177 -0.4843
 6218TIP3    H240070   0.379   2.929  12.270  0.2769  0.5527  1.4602
 6219TIP3   OH240071   2.709   3.476  12.521 -0.0165 -0.3280  0.3020
 6219TIP3    H140072   2.745   3.391  12.494  3.3024  1.2627 -0.7686
 6219TIP3    H240073   2.712   3.530  12.442 -2.2034  0.8293  0.9220
 6220TIP3   OH240074   6.037   6.101   2.549 -0.0165 -0.1511 -0.0441
 6220TIP3    H140075   6.019   6.059   2.633 -2.3444 -0.6290 -0.7054
 6220TIP3    H240076   6.013   6.193   2.562  1.3360  0.1745  0.2879
 6221TIP3   OH240077   0.743   2.800   0.446 -0.6124 -0.0673 -0.0021
 6221TIP3    H140078   0.830   2.810   0.483 -0.7081 -0.4837  0.3543
 6221TIP3    H240079   0.683   2.825   0.517 -0.7999 -0.9702  0.1756
 6222TIP3   OH240080   0.727   3.541  15.330  0.4442 -0.6373  0.0248
 6222TIP3    H140081   0.813   3.533  15.371  0.3014  1.5038  0.8597
 6222TIP3    H240082   0.668   3.558  15.403 -0.4735 -0.6599 -0.6974
 6223TIP3   OH240083   0.379   5.645   6.140 -0.6426 -0.0004 -0.5018
 6223TIP3    H140084   0.321   5.626   6.213  0.0607 -0.6029 -0.0903
 6223TIP3    H240085   0.414   5.560   6.112 -0.1894  0.3136 -0.9335
 6224TIP3   OH240086   0.753   3.988   3.551  0.3763  0.1136 -0.1665
 6224TIP3    H140087   0.727   4.066   3.502  0.9632  0.5403  0.1819
 6224TIP3    H240088   0.845   4.004   3.573  0.3960 -0.5157  0.2194
 6225TIP3   OH240089   3.255   0.717  12.289 -0.3673 -0.7638 -0.2868
 6225TIP3    H140090   3.176   0.665  12.296 -1.4273  0.7271 -0.6637
 6225TIP3    H240091   3.294   0.692  12.206 -0.6370 -1.2350 -0.2726
 6226TIP3   OH240092   1.356   3.998   5.004 -0.0652 -0.3160 -0.4472
 6226TIP3    H140093   1.347   3.958   5.091  1.2412 -0.7721 -0.5089
 6226TIP3    H240094   1.305   3.942   4.946 -4.3692  2.1033  0.5321
 6227TIP3   OH240095   3.641   1.950  14.352 -0.4409 -0.5115 -0.4531
 6227TIP3    H140096   3.587   2.023  14.381  0.0520 -0.5909  0.7407
 6227TIP3    H240097   3.724   1.990  14.327  0.4324 -0.7723  1.8028
 6228TIP3   OH240098   6.031   1.874  14.993 -0.2493 -0.4591 -0.1810
 6228TIP3    H140099   6.053   1.783  14.972  0.9957 -0.0881 -0.5722
 6228TIP3    H240100   6.001   1.871  15.084  0.0749 -1.2236 -0.0934
 6229TIP3   OH240101   2.735   3.455  16.529 -0.0786  0.2156  0.2531
 6229TIP3    H140102   2.769   3.525  16.474  1.6955  0.3709  1.4815
 6229TIP3    H240103   2.762   3.374  16.484 -0.1345  0.3203  0.0298
 6230TIP3   OH240104   0.521   5.028   2.210 -0.0253 -0.3859 -0.4091
 6230TIP3    H140105   0.517   5.083   2.131 -0.1908  1.0943  0.5836
 6230TIP3    H240106   0.430   5.013   2.233  0.0073  0.4987  0.3498
 6231TIP3   OH240107   0.046   3.209   2.803 -0.2506 -0.6812 -0.5124
 6231TIP3    H140108  -0.012   3.174   2.870 -2.0908  3.2549  0.2712
 6231TIP3    H240109  -0.012   3.222   2.727  0.7229 -0.8355 -1.2973
 6232TIP3   OH240110   3.058   4.075   5.537  0.1689  0.1280  0.3763
 6232TIP3    H140111   3.045   4.004   5.600  0.9832 -0.5656 -0.2066
 6232TIP3    H240112   3.085   4.031   5.456 -0.0342  1.0560 -0.2195
 6233TIP3   OH240113   0.509   5.707  17.143 -0.6151 -0.0377  0.8530
 6233TIP3    H140114   0.551   5.742  17.064 -0.0532 -0.3828  0.9928
 6233TIP3    H240115   0.428   5.758  17.152 -1.7507 -1.3575 -1.1123
 6234TIP3   OH240116   0.414   5.829  15.612  1.1475  0.4856 -0.1066
 6234TIP3    H140117   0.373   5.783  15.686  0.5006  1.4652  0.1719
 6234TIP3    H240118   0.416   5.765  15.542  0.1394  0.0612  0.2277
 6235TIP3   OH240119   0.471   4.515  16.056  0.0991 -0.3161 -0.9720
 6235TIP3    H140120   0.562   4.513  16.085  0.5358 -0.5767 -2.3214
 6235TIP3    H240121   0.456   4.430  16.015 -1.3599 -1.0584  0.9162
 6236TIP3   OH240122   2.135   4.687  16.226  0.0307 -0.1135 -0.1770
 6236TIP3    H140123   2.231   4.693  16.227  0.4451 -3.2918 -2.7399
 6236TIP3    H240124   2.109   4.746  16.155  0.1912 -0.0268 -0.1656
 6237TIP3   OH240125   4.670   3.163   2.821  0.4052  0.0786 -0.2015
 6237TIP3    H140126   4.683   3.150   2.915  1.2306  1.1279 -0.1583
 6237TIP3    H240127   4.730   3.102   2.779 -0.1927 -0.6197 -0.0631
 6238TIP3   OH240128   6.073   1.382   5.609 -0.0099 -0.1683  0.2335
 6238TIP3    H140129   6.080   1.394   5.704 -1.9038 -1.1558  0.5491
 6238TIP3    H240130   6.088   1.288   5.595  1.0374  0.0970 -0.5610
 6239TIP3   OH240131   6.037   3.707  16.063 -0.3073 -0.1558 -0.1446
 6239TIP3    H140132   5.970   3.764  16.103 -0.9587 -0.8426 -0.2400
 6239TIP3    H240133   6.109   3.707  16.126  0.5281  2.2873 -0.9862
 6240TIP3   OH240134   0.161   1.657  13.479  0.2153 -0.4634  0.1096
 6240TIP3    H140135   0.152   1.743  13.439  1.6243 -0.5155 -0.3804
 6240TIP3    H240136   0.139   1.671  13.571 -0.8113  0.1371 -0.2169
 6241TIP3   OH240137   6.151   0.283   3.360  0.6669 -0.0355 -0.5385
 6241TIP3    H140138   6.058   0.282   3.382  0.7279  0.0604 -0.2726
 6241TIP3    H240139   6.168   0.195   3.326  0.4651 -0.0319 -0.6493
 6242TIP3   OH240140   0.698   3.038   6.353  0.3053 -0.0528 -0.5946
 6242TIP3    H140141   0.747   3.120   6.349 -0.9297  0.7161 -0.5520
 6242TIP3    H240142   0.712   3.007   6.442  1.7254 -0.5184 -0.9521
 6243TIP3   OH240143   5.809   4.867  13.439 -0.3446 -0.1555  0.4975
 6243TIP3    H140144   5.717   4.846  13.428 -0.6131  0.7639  0.9080
 6243TIP3    H240145   5.853   4.782  13.444 -0.8095 -0.6730 -2.4043
 6244TIP3   OH240146   4.802   5.301   0.938 -0.5132 -0.0265  0.0135
 6244TIP3    H140147   4.785   5.217   0.894  0.8457 -0.5759  0.4876
 6244TIP3    H240148   4.884   5.332   0.899 -0.5649  0.6755  0.4480
 6245TIP3   OH240149   0.061   6.754  11.843 -0.5190  0.1036  0.1921
 6245TIP3    H140150   0.067   6.661  11.820 -2.0382  0.6181 -2.8836
 6245TIP3    H240151  -0.029   6.765  11.874 -0.0868  0.4286  1.3691
 6246TIP3   OH240152   5.514   1.173  15.993 -0.5602 -0.7030 -0.3856
 6246TIP3    H140153   5.598   1.198  15.954 -1.2566 -1.0632 -2.2345
 6246TIP3    H240154   5.536   1.145  16.082  0.6233  3.9945  1.0799
 6247TIP3   OH240155   3.687   6.181   0.844  0.4099  0.7441 -1.0400
 6247TIP3    H140156   3.760   6.161   0.786  0.2894  3.1313 -2.1218
 6247TIP3    H240157   3.725   6.239   0.910 -0.0623  0.2678 -0.3435
 6248TIP3   OH240158   3.582   1.896   0.082  0.1328  0.2541 -0.0089
 6248TIP3    H140159   3.498   1.855   0.102 -0.4183  1.0083 -0.6842
 6248TIP3    H240160   3.646   1.825   0.086 -0.3658 -0.1430  1.5475
 6249TIP3   OH240161   0.556   6.059   3.755 -0.2241  1.0052 -0.2350
 6249TIP3    H140162   0.476   6.055   3.806 -0.7785 -0.1487 -1.1571
 6249TIP3    H240163   0.621   6.014   3.808 -0.8647 -0.4350 -0.6271
 6250TIP3   OH240164   1.547   2.272  14.791  0.0713 -0.6451 -0.1636
 6250TIP3    H140165   1.495   2.311  14.721 -0.0379  0.6737  0.6105
 6250TIP3    H240166   1.637   2.279  14.761  0.2954  2.3721  0.8531
 6251TIP3   OH240167   3.614   0.359   3.687  0.2303 -0.3595  0.1905
 6251TIP3    H140168   3.631   0.374   3.594  0.9242  1.3137  0.5452
 6251TIP3    H240169   3.527   0.318   3.689  0.4958 -1.0472 -1.2104
 6252TIP3   OH240170   5.702   5.559   0.305 -0.1358  0.1613  0.6900
 6252TIP3    H140171   5.706   5.487   0.242  2.6191 -0.5148  1.5303
 6252TIP3    H240172   5.733   5.522   0.387 -0.9644  1.7387  1.7683
 6253TIP3   OH240173   3.648   5.681  12.689 -0.0341 -0.1257  0.6301
 6253TIP3    H140174   3.609   5.670  12.602 -0.0351  0.9158  0.4867
 6253TIP3    H240175   3.691   5.766  12.685  2.3734 -1.2543  0.7570
 6254TIP3   OH240176   2.442   4.515  14.514  1.0599 -0.4550 -0.2262
 6254TIP3    H140177   2.455   4.589  14.573  0.8498  0.1178 -0.8839
 6254TIP3    H240178   2.420   4.442  14.572  2.3301 -0.2735  0.5110
 6255TIP3   OH240179   6.522   1.845   3.438  0.2084 -0.0376 -0.5455
 6255TIP3    H140180   6.510   1.939   3.420  0.5356  0.3873  1.2575
 6255TIP3    H240181   6.473   1.829   3.518 -2.1652 -2.0842 -2.2574
 6256TIP3   OH240182   4.716   1.085   4.884  0.0204  0.5198  0.2936
 6256TIP3    H140183   4.788   1.088   4.947 -0.1468  0.8792  0.4710
 6256TIP3    H240184   4.683   0.995   4.890  0.3358  0.4036  0.3404
 6257TIP3   OH240185   6.334   2.313  12.906 -0.1439  0.5505 -0.3135
 6257TIP3    H140186   6.415   2.302  12.857  0.8873  0.8716  1.2683
 6257TIP3    H240187   6.286   2.232  12.891  0.7767  0.0673 -0.7132
 6258TIP3   OH240188   1.930   1.765   5.164 -0.0456 -0.1990 -0.0947
 6258TIP3    H140189   1.872   1.760   5.088 -0.2253  1.2307 -0.0845
 6258TIP3    H240190   1.961   1.856   5.165  1.4445 -0.6823  0.4645
 6259TIP3   OH240191   1.684   5.986   1.926  0.4051  0.1494 -0.2855
 6259TIP3    H140192   1.610   5.956   1.979 -0.3504 -0.5931 -1.6965
 6259TIP3    H240193   1.692   6.079   1.947 -0.2708  0.0105  0.6486
 6260TIP3   OH240194   6.760   5.162   2.269 -0.3557  0.1607  0.4443
 6260TIP3    H140195   6.813   5.209   2.204  0.2914 -1.2506 -0.0951
 6260TIP3    H240196   6.737   5.228   2.334  0.1546  1.3048 -0.5015
 6261TIP3   OH240197   1.989   5.617   2.478  0.3142 -0.3240  0.1277
 6261TIP3    H140198   2.071   5.664   2.491 -0.0566  0.4974 -0.4401
 6261TIP3    H240199   2.015   5.525   2.470  1.0442 -0.2367  1.2563
 6262TIP3   OH240200   5.476   5.271   0.083 -0.1945 -0.3321 -0.3979
 6262TIP3    H140201   5.443   5.183   0.066 -0.5505 -0.0924 -0.9797
 6262TIP3    H240202   5.397   5.324   0.094 -0.0674  0.4270 -2.7030
 6263TIP3   OH240203   5.832   0.017   1.614  0.3596  0.6322  0.0514
 6263TIP3    H140204   5.740   0.034   1.592  0.1573 -0.0817  0.3049
 6263TIP3    H240205   5.857   0.089   1.672  0.3525  1.5407 -1.0413
 6264TIP3   OH240206   0.830   1.977  13.313  0.4986  0.3609  0.4057
 6264TIP3    H140207   0.865   1.889  13.306  0.0486 -0.0238  2.3510
 6264TIP3    H240208   0.907   2.032  13.328  0.9121  0.5228 -1.9952
 6265TIP3   OH240209   5.728   6.263  13.262  0.0585  0.0312 -0.3806
 6265TIP3    H140210   5.699   6.218  13.342  2.2409 -1.2326 -0.1967
 6265TIP3    H240211   5.650   6.305  13.227 -1.0498  0.3357  2.2321
 6266TIP3   OH240212   4.287   5.332  17.164  0.4741  0.2164 -0.4002
 6266TIP3    H140213   4.288   5.286  17.248 -0.2206  0.8517 -0.0390
 6266TIP3    H240214   4.362   5.295  17.116 -0.9798 -2.5271 -0.7850
 6267TIP3   OH240215   0.848   2.720  14.333  1.1733  0.6650  0.3636
 6267TIP3    H140216   0.760   2.717  14.295  2.0462  0.1449 -1.7717
 6267TIP3    H240217   0.834   2.715  14.428 -1.1074  1.3652  0.1185
 6268TIP3   OH240218   1.113   2.212   5.526 -0.1418 -0.0285 -0.2435
 6268TIP3    H140219   1.107   2.117   5.532 -0.2637  0.0651  1.9371
 6268TIP3    H240220   1.202   2.229   5.494  1.3727 -0.9146  3.0063
 6269TIP3   OH240221   1.515   2.053   4.883  0.5101 -0.5374  0.0438
 6269TIP3    H140222   1.556   1.989   4.825  0.4337 -1.1146  0.6149
 6269TIP3    H240223   1.532   2.021   4.971  1.0613  0.5964  0.3745
 6270TIP3   OH240224   5.506   2.018   2.528 -0.1127  0.8701 -0.4099
 6270TIP3    H140225   5.514   2.038   2.435  1.6566  1.8142 -0.1069
 6270TIP3    H240226   5.556   1.937   2.540 -2.8198 -0.9512 -0.7264
 6271TIP3   OH240227   6.115   2.007   2.998  0.0921 -0.0963 -0.1038
 6271TIP3    H140228   6.148   2.090   3.033 -0.7959  0.4594 -0.5393
 6271TIP3    H240229   6.044   1.983   3.057  1.2917 -1.3571  0.9103
 6272TIP3   OH240230   4.005   1.532   0.715  0.2043 -0.8681  0.0872
 6272TIP3    H140231   3.987   1.458   0.773  1.8050 -0.8509  0.6471
 6272TIP3    H240232   4.057   1.495   0.644  3.2789  0.0787  1.6863
 6273TIP3   OH240233   5.334   0.531   0.584 -0.4398  0.3547 -0.0844
 6273TIP3    H140234   5.269   0.567   0.644  0.8774  0.7445  1.1766
 6273TIP3    H240235   5.380   0.607   0.549  0.4170  0.0385  0.3213
 6274TIP3   OH240236   6.107   3.019  15.765  0.5315  0.4710 -0.0145
 6274TIP3    H140237   6.119   3.079  15.691 -0.4866 -1.1835 -1.6017
 6274TIP3    H240238   6.017   3.034  15.794 -0.1935 -1.1335 -1.2882
 6275TIP3   OH240239   3.153   4.828   1.358  0.2440 -0.0871 -0.1026
 6275TIP3    H140240   3.232   4.843   1.305  0.4934 -0.2626  0.2175
 6275TIP3    H240241   3.142   4.909   1.408 -0.8012  0.6515 -1.4422
 6276TIP3   OH240242   3.885   5.425  16.724 -0.0230 -0.1536  0.5680
 6276TIP3    H140243   3.916   5.377  16.648 -2.6444  1.6295 -1.8060
 6276TIP3    H240244   3.810   5.374  16.756  0.4554 -0.3749  1.3641
 6277TIP3   OH240245   2.011   6.344  11.070 -0.3606  1.0658  0.1579
 6277TIP3    H140246   2.067   6.394  11.010 -0.8468  1.4709  0.0285
 6277TIP3    H240247   1.921   6.368  11.044 -0.6688 -0.9932 -0.8619
 6278TIP3   OH240248   2.246   1.997   3.119 -0.6364 -0.3599  0.1890
 6278TIP3    H140249   2.256   2.077   3.067  0.5218 -0.4800  0.1900
 6278TIP3    H240250   2.192   1.940   3.065  0.0909 -0.2688 -0.6631
 6279TIP3   OH240251   5.433   1.668  14.450 -0.5086 -0.4631  0.0341
 6279TIP3    H140252   5.497   1.739  14.452  0.5781 -1.3858  3.2780
 6279TIP3    H240253   5.479   1.595  14.408 -0.0686 -0.5552  0.6663
 6280TIP3   OH240254   3.227   5.768  16.830 -0.9218  0.0634 -0.2647
 6280TIP3    H140255   3.132   5.770  16.832 -0.9147  0.2156  0.0586
 6280TIP3    H240256   3.249   5.737  16.742 -1.2604  0.9830 -0.6925
 6281TIP3   OH240257   1.858   2.788  16.274  0.4913 -0.5796 -0.5203
 6281TIP3    H140258   1.803   2.846  16.223 -0.2610 -0.0812  0.8135
 6281TIP3    H240259   1.841   2.701  16.239 -1.1553 -0.4331 -0.1537
 6282TIP3   OH240260   1.871   4.890  12.802  0.0339  0.1405 -0.3273
 6282TIP3    H140261   1.808   4.876  12.732 -0.7312  0.4098  0.2876
 6282TIP3    H240262   1.956   4.881  12.760 -0.4016  0.8034 -1.3945
 6283TIP3   OH240263   3.111   4.804  11.185  0.1416  0.0524  0.5136
 6283TIP3    H140264   3.193   4.766  11.153 -0.8355 -0.6013 -1.3274
 6283TIP3    H240265   3.042   4.753  11.142 -1.2524  2.7439 -0.6766
 6284TIP3   OH240266   5.812   0.638   3.697  0.3196  0.3398 -0.2187
 6284TIP3    H140267   5.853   0.708   3.646  0.8759  0.3490  0.2264
 6284TIP3    H240268   5.803   0.676   3.785  2.1313 -0.6631  0.4668
 6285TIP3   OH240269   3.051   5.504   5.281  0.2670 -0.1845  0.5607
 6285TIP3    H140270   3.071   5.568   5.212 -2.1249 -0.3305 -0.3553
 6285TIP3    H240271   3.136   5.467   5.305  1.1806 -0.6315 -2.8573
 6286TIP3   OH240272   2.938   1.907   3.701  0.3353  0.2530 -1.0543
 6286TIP3    H140273   2.853   1.873   3.729 -0.5482  1.9044 -1.5654
 6286TIP3    H240274   2.953   1.867   3.615  0.8997 -1.3271 -0.2530
 6287TIP3   OH240275   6.431   5.394   2.757 -0.6257 -0.6610 -0.3392
 6287TIP3    H140276   6.404   5.453   2.687 -2.0622 -1.3766 -0.4457
 6287TIP3    H240277   6.406   5.439   2.838 -0.0928 -0.3606 -0.3427
 6288TIP3   OH240278   1.325   3.283  11.547 -0.3954  0.0791 -0.9447
 6288TIP3    H140279   1.399   3.310  11.601 -0.8121 -1.5546  0.5188
 6288TIP3    H240280   1.260   3.352  11.558 -0.4852 -0.2486  0.7113
 6289TIP3   OH240281   3.499   0.376  10.931  0.9355  0.1825 -0.4898
 6289TIP3    H140282   3.411   0.337  10.930  2.0291 -2.4856 -0.7669
 6289TIP3    H240283   3.485   0.467  10.906 -2.1071  0.7922  2.6171
 6290TIP3   OH240284   4.845   1.668  15.444  0.0278  0.0962  0.3467
 6290TIP3    H140285   4.866   1.753  15.405  0.4533 -0.2317 -0.1552
 6290TIP3    H240286   4.874   1.675  15.534 -1.4399  1.0542  0.7897
 6291TIP3   OH240287   5.740   0.652  17.154  0.6776 -0.2056 -0.7400
 6291TIP3    H140288   5.713   0.647  17.245 -0.2472 -0.7151 -1.0293
 6291TIP3    H240289   5.807   0.721  17.152  1.1996 -0.6577  0.4265
 6292TIP3   OH240290   5.347   4.246   2.396 -0.1207  0.4261  0.2319
 6292TIP3    H140291   5.411   4.317   2.405  1.0694 -0.3537 -1.6549
 6292TIP3    H240292   5.399   4.171   2.369 -1.5873 -0.7899  0.6982
 6293TIP3   OH240293   5.511   5.266   1.905  0.3065  0.3603  0.2479
 6293TIP3    H140294   5.500   5.315   1.987  1.6542 -0.0809  0.7226
 6293TIP3    H240295   5.555   5.185   1.932  0.4799  0.0683 -0.8803
 6294TIP3   OH240296   4.177   1.787   2.304 -0.0342 -0.3537  0.4514
 6294TIP3    H140297   4.143   1.699   2.289  0.3590 -0.6904  1.4460
 6294TIP3    H240298   4.269   1.774   2.325  0.2004  0.3624 -0.1001
 6295TIP3   OH240299   1.412   1.361  12.631 -0.1927  0.3675 -0.4965
 6295TIP3    H140300   1.334   1.348  12.686  0.4734 -1.6854  0.0296
 6295TIP3    H240301   1.409   1.289  12.568  1.3493  0.1838 -0.3812
 6296TIP3   OH240302   3.518   3.922  14.169 -0.3608 -0.2689 -0.4634
 6296TIP3    H140303   3.511   3.855  14.101  2.5654 -0.0158 -1.1341
 6296TIP3    H240304   3.494   3.875  14.250 -2.0767 -1.0532 -1.3707
 6297TIP3   OH240305   5.607   6.003  11.682 -0.2893 -0.2975 -0.0181
 6297TIP3    H140306   5.613   6.061  11.606 -1.1860 -2.0047 -1.4294
 6297TIP3    H240307   5.514   5.991  11.696 -0.1730  0.6278  1.9181
 6298TIP3   OH240308   2.552   5.425  11.495 -0.6344  0.5788  0.2413
 6298TIP3    H140309   2.626   5.380  11.455 -0.5758  0.0490  0.9260
 6298TIP3    H240310   2.541   5.505  11.443 -1.1245 -0.4906 -1.3763
 6299TIP3   OH240311   0.059   0.971  15.441  0.2415 -0.5555 -0.1991
 6299TIP3    H140312  -0.031   0.962  15.472 -0.8649 -0.8726 -3.1293
 6299TIP3    H240313   0.061   1.057  15.399  1.3016 -0.5825 -0.2173
 6300TIP3   OH240314   4.089   5.970   0.980 -0.1642 -0.2081 -0.4166
 6300TIP3    H140315   4.185   5.980   0.984 -0.2591  0.6152 -0.0058
 6300TIP3    H240316   4.067   5.990   0.889  0.1038 -0.9620 -0.6588
 6301TIP3   OH240317   3.709   2.896   4.865  0.6557 -0.4939 -0.4248
 6301TIP3    H140318   3.767   2.840   4.916  1.2910  0.9550  0.5145
 6301TIP3    H240319   3.768   2.943   4.805  0.3786  0.4428  0.0235
 6302TIP3   OH240320   3.493   3.218   3.688  0.2994 -0.3618  0.0257
 6302TIP3    H140321   3.431   3.155   3.724 -0.6982  0.3251 -0.4302
 6302TIP3    H240322   3.440   3.271   3.628  0.8831  1.4916  1.0623
 6303TIP3   OH240323   4.378   6.211  14.529 -0.5767  0.4693 -0.6040
 6303TIP3    H140324   4.427   6.249  14.457  2.4877 -1.3579  0.3542
 6303TIP3    H240325   4.437   6.216  14.604 -1.9529 -1.5558  0.7210
 6304TIP3   OH240326   2.268   1.899  12.340  0.0417 -0.1339  0.5291
 6304TIP3    H140327   2.199   1.963  12.356  1.3199  1.3361  0.3375
 6304TIP3    H240328   2.241   1.854  12.260 -1.0904 -0.1649  0.9138
 6305TIP3   OH240329   2.087   3.174  11.587  0.4310 -0.2834 -0.0979
 6305TIP3    H140330   1.992   3.187  11.582  0.8200  3.0330 -1.2685
 6305TIP3    H240331   2.107   3.183  11.680 -0.1659  1.6995 -0.1255
 6306TIP3   OH240332   3.548   3.117  13.041  0.3662  0.4959 -0.0960
 6306TIP3    H140333   3.457   3.136  13.065 -0.1133 -1.8712  0.1693
 6306TIP3    H240334   3.583   3.201  13.011 -1.8996  1.4592 -0.2051
 6307TIP3   OH240335   5.494   2.525   1.331  0.9008  0.4159  0.7512
 6307TIP3    H140336   5.412   2.508   1.283  0.8563 -0.7820  1.2150
 6307TIP3    H240337   5.540   2.589   1.277  1.8427 -2.4059 -2.1587
 6308TIP3   OH240338   1.084   1.640   1.283  0.7409 -0.2145  0.1502
 6308TIP3    H140339   1.040   1.720   1.311  0.1402 -1.1480  2.0852
 6308TIP3    H240340   1.017   1.592   1.235  0.9448  0.1949 -0.5564
 6309TIP3   OH240341   0.978   0.891   0.442  0.1602 -0.3456  0.5586
 6309TIP3    H140342   0.926   0.877   0.521  1.2454  1.8040  1.7381
 6309TIP3    H240343   1.068   0.872   0.468  0.4887  0.0212 -0.2639
 6310TIP3   OH240344   3.755   6.599  12.045  0.4320  0.1171  0.2641
 6310TIP3    H140345   3.778   6.521  11.995 -0.3231  0.0277  0.0493
 6310TIP3    H240346   3.818   6.601  12.117  1.5893  0.2894 -0.7233
 6311TIP3   OH240347   1.053   6.241   0.314  0.0289 -0.0067  0.0682
 6311TIP3    H140348   1.131   6.271   0.360 -0.5773  0.0008  1.1306
 6311TIP3    H240349   0.984   6.300   0.345 -0.4559 -0.2194 -0.6040
 6312TIP3   OH240350   2.434   2.956  12.934 -0.1357 -0.0949 -0.5016
 6312TIP3    H140351   2.357   2.991  12.889 -0.3625 -0.8817 -0.7387
 6312TIP3    H240352   2.508   3.005  12.898 -0.6350  1.7311  0.7947
 6313TIP3   OH240353   3.381   6.145  16.441  0.2619 -0.1863  0.6059
 6313TIP3    H140354   3.309   6.156  16.503 -0.0242 -1.9947  0.6458
 6313TIP3    H240355   3.344   6.089  16.372  1.2757 -0.1522  0.0216
 6314TIP3   OH240356   5.990   1.009  16.786 -0.8654  0.2362  0.0281
 6314TIP3    H140357   5.900   1.033  16.764 -0.7970  0.3264 -0.1603
 6314TIP3    H240358   6.010   0.937  16.726 -0.3755  1.0659 -0.8287
 6315TIP3   OH240359   0.630   5.609   0.876  0.2632  0.3115 -0.0370
 6315TIP3    H140360   0.571   5.683   0.890  1.4874  1.4105 -0.4365
 6315TIP3    H240361   0.589   5.558   0.806 -0.2412  1.0138 -0.2692
 6316TIP3   OH240362   4.127   5.937  12.772  0.3484  0.5473  0.0302
 6316TIP3    H140363   4.090   5.950  12.859  1.8148 -2.6911  1.2779
 6316TIP3    H240364   4.066   5.878  12.729  1.0269 -0.0746 -0.0911
 6317TIP3   OH240365   1.217   4.593  12.586 -0.7587 -0.7799 -0.0290
 6317TIP3    H140366   1.224   4.545  12.669  0.8663 -1.0901 -0.3088
 6317TIP3    H240367   1.255   4.679  12.605  2.7881 -1.9161 -1.1828
 6318TIP3   OH240368   5.104   1.395   1.907 -0.8501 -0.2161 -0.2130
 6318TIP3    H140369   5.009   1.385   1.909 -0.9551  0.7428  0.0730
 6318TIP3    H240370   5.120   1.455   1.834 -0.4562 -0.4441 -0.3174
 6319TIP3   OH240371   4.761   0.879   0.197 -0.3774  0.6281  0.3236
 6319TIP3    H140372   4.726   0.809   0.142  0.0226 -0.8880  1.9115
 6319TIP3    H240373   4.854   0.857   0.207 -0.3233  1.1796  1.1389
 6320TIP3   OH240374   6.137   5.982  15.991  0.4468  1.2087  0.3030
 6320TIP3    H140375   6.146   5.953  15.901  2.4507  0.5750  0.6518
 6320TIP3    H240376   6.206   6.047  16.003  0.1289  1.3855  1.3283
 6321TIP3   OH240377   5.190   1.383  12.194  0.3457  0.6414  0.1762
 6321TIP3    H140378   5.185   1.311  12.257  1.4661  0.5405  0.1604
 6321TIP3    H240379   5.180   1.462  12.247  0.8715  0.5394  0.4316
 6322TIP3   OH240380   1.845   6.229   3.520 -0.3563  0.1781 -0.5039
 6322TIP3    H140381   1.805   6.297   3.465  1.8251  2.0809  0.0903
 6322TIP3    H240382   1.908   6.186   3.462  0.0112  0.3463 -0.2319
 6323TIP3   OH240383   4.675   4.655   3.045  0.0100 -0.2903 -0.4187
 6323TIP3    H140384   4.607   4.587   3.042 -0.0760 -0.2124 -0.2757
 6323TIP3    H240385   4.644   4.716   3.113  0.8545 -0.9158  0.5450
 6324TIP3   OH240386   2.297   0.600  12.954  0.4781 -0.4784  0.4558
 6324TIP3    H140387   2.348   0.528  12.916 -1.0422 -1.2169 -0.2419
 6324TIP3    H240388   2.331   0.679  12.910  0.8239 -0.9854 -0.2065
 6325TIP3   OH240389   0.851   5.264   2.772 -0.1945 -0.2648 -0.3650
 6325TIP3    H140390   0.934   5.282   2.727 -0.2451  1.7357  0.2431
 6325TIP3    H240391   0.787   5.254   2.701  0.4717 -1.4582 -0.8248
 6326TIP3   OH240392   2.489   3.662   0.049 -0.5490 -0.2361  0.2775
 6326TIP3    H140393   2.529   3.740   0.088 -1.5690  1.5533 -1.9597
 6326TIP3    H240394   2.518   3.664  -0.042 -3.0122 -0.7020 -0.6077
 6327TIP3   OH240395   6.295   0.055   3.209  0.3597 -0.2105 -0.2958
 6327TIP3    H140396   6.367   0.093   3.159  0.4210 -0.2392 -0.2286
 6327TIP3    H240397   6.335  -0.016   3.259  0.6633  0.9878  1.2364
 6328TIP3   OH240398   5.693   6.683   5.874 -0.3213 -0.1919 -0.5947
 6328TIP3    H140399   5.664   6.595   5.849 -0.9157 -0.2434  0.2165
 6328TIP3    H240400   5.784   6.673   5.900 -0.9610 -1.0213  1.5521
 6329TIP3   OH240401   3.360   1.507  14.040  0.0184  0.2245  0.3881
 6329TIP3    H140402   3.331   1.545  13.957 -0.9164  0.2550  0.7179
 6329TIP3    H240403   3.434   1.451  14.016 -0.8229 -0.5039 -0.6240
 6330TIP3   OH240404   4.092   1.081   0.590 -0.0501  0.3072  0.2084
 6330TIP3    H140405   4.170   1.029   0.608 -0.2200  0.4773  1.5613
 6330TIP3    H240406   4.029   1.052   0.656 -1.7293 -0.9907 -1.8159
 6331TIP3   OH240407   2.395   3.898   3.802  0.6237 -0.0089 -0.4807
 6331TIP3    H140408   2.456   3.858   3.741  0.8684 -3.0970  1.5628
 6331TIP3    H240409   2.321   3.837   3.805 -1.9012  2.7449 -1.5729
 6332TIP3   OH240410   5.007   4.356  17.006 -0.1447  0.0973 -0.2727
 6332TIP3    H140411   4.977   4.444  16.986  0.7452  0.5393  0.2949
 6332TIP3    H240412   5.102   4.361  17.000 -0.1276 -1.2123 -1.7705
 6333TIP3   OH240413   3.372   0.669   5.812 -0.5759  0.6178  0.0549
 6333TIP3    H140414   3.446   0.712   5.770 -1.2118  0.2603 -1.4993
 6333TIP3    H240415   3.385   0.576   5.793 -1.6145  0.5881 -0.5996
 6334TIP3   OH240416   4.825   1.268   5.533  0.1958 -0.6415  0.1361
 6334TIP3    H140417   4.789   1.317   5.607  0.6860 -0.2777  0.1347
 6334TIP3    H240418   4.864   1.334   5.476  1.0375 -1.0358  0.2337
 6335TIP3   OH240419   1.532   4.983  16.661  0.2562  0.0207 -0.0968
 6335TIP3    H140420   1.442   4.975  16.693 -1.3510  0.0397 -4.0582
 6335TIP3    H240421   1.567   4.894  16.667  0.5209  0.2271  2.5814
 6336TIP3   OH240422   3.936   2.400   3.576  0.1019 -0.4128 -0.3111
 6336TIP3    H140423   4.008   2.400   3.639 -0.9029 -1.5821  0.8664
 6336TIP3    H240424   3.882   2.474   3.602  0.5832  0.1516 -0.8810
 6337TIP3   OH240425   0.831   2.268  17.346  0.7658 -0.7666  0.1003
 6337TIP3    H140426   0.853   2.285  17.255 -1.0860 -0.6590 -0.3574
 6337TIP3    H240427   0.793   2.180  17.346 -0.6517 -0.1805  0.4919
 6338TIP3   OH240428   3.023   1.025   2.542  0.7629  0.4221 -0.2094
 6338TIP3    H140429   3.102   1.004   2.593  1.4098  1.7969 -0.5944
 6338TIP3    H240430   3.027   0.966   2.467  0.7532 -0.3836  0.4125
 6339TIP3   OH240431   4.477   4.603  13.803  0.2393 -0.0401  0.1746
 6339TIP3    H140432   4.545   4.568  13.862  0.6186  1.2750  0.5465
 6339TIP3    H240433   4.525   4.660  13.743 -0.6507  1.9502  1.2486
 6340TIP3   OH240434   0.445   3.754   4.304 -0.2891  0.1205  0.4007
 6340TIP3    H140435   0.361   3.727   4.267 -1.3195  1.9355  1.2955
 6340TIP3    H240436   0.422   3.803   4.383  1.5447  1.5047  0.1442
 6341TIP3   OH240437   2.971   1.377  14.471 -0.6100 -0.1236 -0.0826
 6341TIP3    H140438   3.028   1.301  14.484 -0.3785  0.1679  0.6483
 6341TIP3    H240439   3.016   1.449  14.514 -1.4140  0.1598  0.3177
 6342TIP3   OH240440   3.671   4.312   3.464  0.8087  0.1395  0.4447
 6342TIP3    H140441   3.738   4.273   3.408  0.5849 -0.0973  0.3405
 6342TIP3    H240442   3.644   4.241   3.523  0.7525  0.2742  0.5833
 6343TIP3   OH240443   6.591   1.648  12.001  0.6194 -0.8658  0.1635
 6343TIP3    H140444   6.601   1.582  11.931  3.1956  1.9920 -2.4984
 6343TIP3    H240445   6.628   1.728  11.963 -1.9682  2.1106  3.2908
 6344TIP3   OH240446   2.845   6.189   2.053  0.6699  0.3194 -0.4413
 6344TIP3    H140447   2.915   6.123   2.060  0.2161  0.0243  2.2541
 6344TIP3    H240448   2.779   6.147   1.998  1.5697 -0.3326 -1.0783
 6345TIP3   OH240449   2.433   4.056  12.572  0.2906  0.1280  0.3828
 6345TIP3    H140450   2.524   4.084  12.563 -0.0980  1.3303  0.0612
 6345TIP3    H240451   2.434   3.962  12.551  1.3251  0.2998 -0.3775
 6346TIP3   OH240452   2.047   2.708  12.931 -0.0205  0.0424  0.0087
 6346TIP3    H140453   2.027   2.771  13.001  0.3781 -0.0362  0.1981
 6346TIP3    H240454   1.988   2.635  12.948 -1.1806  0.7542 -0.7830
 6347TIP3   OH240455   4.549   4.423  13.299  0.0980 -0.4450  0.4718
 6347TIP3    H140456   4.510   4.363  13.236  0.5252 -0.6762  0.4236
 6347TIP3    H240457   4.487   4.496  13.305  0.1714 -0.3131 -0.3806
 6348TIP3   OH240458   5.424   6.218  14.967 -0.2212  0.3982 -0.0902
 6348TIP3    H140459   5.466   6.137  14.998 -0.1625  0.4584 -0.0138
 6348TIP3    H240460   5.395   6.197  14.878  0.4009  0.5123 -0.3243
 6349TIP3   OH240461   3.196   0.422   3.580 -0.0517  0.9497 -0.4003
 6349TIP3    H140462   3.261   0.415   3.510 -0.1669 -2.0479 -0.3529
 6349TIP3    H240463   3.229   0.364   3.649 -1.8741  0.7462  0.3541
 6350TIP3   OH240464   6.049   4.748  14.663 -0.0025  0.0959 -0.4248
 6350TIP3    H140465   6.117   4.771  14.600  0.8368  0.4135  0.5636
 6350TIP3    H240466   6.077   4.791  14.744 -1.5333  0.4761 -0.0636
 6351TIP3   OH240467   3.698   0.298   1.728 -0.0916 -0.2073 -0.4206
 6351TIP3    H140468   3.680   0.210   1.761  1.4724 -0.9459 -1.4386
 6351TIP3    H240469   3.724   0.285   1.637 -0.3414  1.3780 -0.7530
 6352TIP3   OH240470   5.500   2.788   4.883 -0.1470 -0.1802 -0.6255
 6352TIP3    H140471   5.504   2.803   4.789  1.5407 -1.2088 -0.7666
 6352TIP3    H240472   5.484   2.874   4.921  0.0762  0.3943 -1.7906
 6353TIP3   OH240473   2.170   0.363   2.623  0.3953  0.2804 -0.6777
 6353TIP3    H140474   2.128   0.282   2.652  0.8047 -0.1141 -1.1693
 6353TIP3    H240475   2.106   0.432   2.643 -0.0467 -0.1883 -0.4567
 6354TIP3   OH240476   0.515   5.668  14.591 -0.6665 -0.0952 -0.0124
 6354TIP3    H140477   0.552   5.748  14.553 -0.4670 -0.1916 -0.0218
 6354TIP3    H240478   0.572   5.648  14.665 -0.4935 -0.4357 -0.2342
 6355TIP3   OH240479   3.850   4.125  15.064 -0.7770  0.0353 -0.1399
 6355TIP3    H140480   3.764   4.165  15.046 -0.1476  1.5604  0.1180
 6355TIP3    H240481   3.884   4.174  15.139  1.7742  1.8397 -2.2869
 6356TIP3   OH240482   5.916   2.849  12.851  0.0687  0.4052  0.2185
 6356TIP3    H140483   5.857   2.776  12.865  1.1333 -0.2625  1.3694
 6356TIP3    H240484   6.004   2.814  12.868  0.6725  1.7390  0.0256
 6357TIP3   OH240485   1.108   5.947  16.836 -0.0874 -0.0553 -0.0971
 6357TIP3    H140486   1.091   5.990  16.921  1.3212  1.4187 -0.5094
 6357TIP3    H240487   1.030   5.967  16.784 -0.5304 -0.1206  0.5215
 6358TIP3   OH240488   5.355   2.434  16.671 -0.1500 -0.5839  0.0451
 6358TIP3    H140489   5.323   2.419  16.581 -1.2966  1.4387  0.0708
 6358TIP3    H240490   5.294   2.385  16.726 -0.1366 -0.8925 -0.2120
 6359TIP3   OH240491   2.052   4.492   0.056  0.6603  0.0627 -0.1586
 6359TIP3    H140492   1.965   4.483   0.094  0.3719 -0.2480 -0.8782
 6359TIP3    H240493   2.076   4.403   0.029  1.3204  0.0984  0.2927
 6360TIP3   OH240494   1.407   4.455   5.518 -0.4282 -0.0914  0.4563
 6360TIP3    H140495   1.362   4.375   5.492 -0.1569 -0.4160  0.9653
 6360TIP3    H240496   1.492   4.425   5.549 -0.7576  0.2564  1.7592
 6361TIP3   OH240497   1.143   0.279   4.670  0.4823 -0.0883 -0.1047
 6361TIP3    H140498   1.059   0.261   4.712  0.5744 -1.5582 -0.5036
 6361TIP3    H240499   1.139   0.373   4.649  0.1989  0.5695  2.5650
 6362TIP3   OH240500   4.447   5.379   0.280  0.0030 -0.4905  0.4266
 6362TIP3    H140501   4.433   5.444   0.349  0.8341 -1.5085  1.6100
 6362TIP3    H240502   4.533   5.401   0.243  1.0715 -1.8357  1.9661
 6363TIP3   OH240503   2.833   3.873  17.356 -0.3669 -0.0368  0.3127
 6363TIP3    H140504   2.739   3.872  17.340 -0.3425  0.5055  0.1164
 6363TIP3    H240505   2.852   3.787  17.394 -0.7599 -0.5956 -0.6993
 6364TIP3   OH240506   5.824   3.770   1.125 -0.1798 -0.0507  0.2601
 6364TIP3    H140507   5.918   3.783   1.138 -0.3646 -0.6079  2.6914
 6364TIP3    H240508   5.783   3.818   1.198 -1.5064 -3.2566  1.8150
 6365TIP3   OH240509   0.088   4.495   0.955 -0.2255  0.0804  0.1053
 6365TIP3    H140510   0.014   4.555   0.951  0.0638  0.4455  0.1889
 6365TIP3    H240511   0.133   4.517   1.036  1.6092  1.8430 -1.2694
 6366TIP3   OH240512   3.996   3.776  12.129 -0.0453  0.3566 -0.3072
 6366TIP3    H140513   3.909   3.758  12.094  0.3355 -1.1891 -0.5519
 6366TIP3    H240514   4.052   3.709  12.089  0.7548 -0.3605  1.8605
 6367TIP3   OH240515   1.940   4.326  12.988 -0.2300  0.5723  0.4866
 6367TIP3    H140516   1.849   4.355  12.994 -0.2951  0.5513 -0.2296
 6367TIP3    H240517   1.947   4.292  12.899  0.6689  1.2414  0.2900
 6368TIP3   OH240518   2.166   5.111  12.562 -0.2034  0.2545  0.3073
 6368TIP3    H140519   2.082   5.112  12.517 -0.0275 -1.6300 -0.1518
 6368TIP3    H240520   2.205   5.196  12.542 -0.9833  0.2318 -1.4840
 6369TIP3   OH240521   6.197   5.066  16.217 -0.2961 -0.6934  0.1449
 6369TIP3    H140522   6.191   5.091  16.125 -1.7151 -0.6440  0.2294
 6369TIP3    H240523   6.204   4.971  16.217  0.4376 -0.6422 -0.0305
 6370TIP3   OH240524   1.642   4.839   5.247 -0.2040 -0.0926  0.0350
 6370TIP3    H140525   1.663   4.932   5.259  4.5409 -1.1468  2.3405
 6370TIP3    H240526   1.611   4.810   5.332  2.4764 -1.3039  0.7068
 6371TIP3   OH240527   0.338   4.100   3.445  0.3148 -0.3274  0.4415
 6371TIP3    H140528   0.398   4.173   3.462  1.3064 -0.6599 -1.3700
 6371TIP3    H240529   0.261   4.142   3.405  1.6973 -0.3504 -2.4962
 6372TIP3   OH240530   0.838   5.485   0.203 -0.5484 -0.2384  0.0675
 6372TIP3    H140531   0.824   5.497   0.297  0.4643 -2.0608  0.4973
 6372TIP3    H240532   0.872   5.569   0.173 -0.9423  0.3897  1.3044
 6373TIP3   OH240533   6.693   6.260  14.535 -0.2832  0.0933 -0.2346
 6373TIP3    H140534   6.773   6.230  14.579  0.6267  1.0463 -1.1868
 6373TIP3    H240535   6.623   6.210  14.577  0.7537 -0.4441  0.9360
 6374TIP3   OH240536   5.831   4.058  12.607  0.4456 -0.4377 -0.1199
 6374TIP3    H140537   5.800   3.993  12.544 -0.7759  1.2311 -1.3223
 6374TIP3    H240538   5.765   4.127  12.605  2.3093  1.4497  0.1603
 6375TIP3   OH240539   1.467   2.261   0.807  0.3015  0.5199 -0.2522
 6375TIP3    H140540   1.513   2.196   0.860  0.4778  0.7655 -0.1030
 6375TIP3    H240541   1.535   2.324   0.783 -0.1837  1.5873  1.0296
 6376TIP3   OH240542   4.602   4.634  16.805 -0.0165 -0.2192  0.4384
 6376TIP3    H140543   4.673   4.620  16.743  1.4436 -1.2839  2.2715
 6376TIP3    H240544   4.526   4.653  16.749  1.2415 -0.9487 -1.6586
 6377TIP3   OH240545   6.571   0.029  16.963  0.0429 -0.2908  0.8890
 6377TIP3    H140546   6.517   0.075  16.898 -0.1116 -0.7582  0.6827
 6377TIP3    H240547   6.539   0.061  17.047 -0.1543 -0.1205  0.7519
 6378TIP3   OH240548   1.160   4.033  15.236 -0.4518  0.2378 -0.5926
 6378TIP3    H140549   1.081   4.012  15.186 -0.2167 -1.3002 -0.3776
 6378TIP3    H240550   1.228   4.045  15.169 -0.2016 -1.5375 -0.6972
 6379TIP3   OH240551   5.727   3.508  12.166 -0.2063  0.3784  0.3534
 6379TIP3    H140552   5.766   3.426  12.135  0.4256  1.0346 -0.6611
 6379TIP3    H240553   5.637   3.504  12.135  0.0762  0.4663 -0.5271
 6380TIP3   OH240554   6.392   0.928   6.379  0.0305  0.3301  0.3146
 6380TIP3    H140555   6.358   1.014   6.356 -0.5804  0.6249  2.1645
 6380TIP3    H240556   6.365   0.914   6.470  2.6380 -0.5395  1.0548
 6381TIP3   OH240557   0.240   3.399   4.569  0.7657  0.1526 -0.3489
 6381TIP3    H140558   0.158   3.367   4.533  0.4154 -0.4967  0.9531
 6381TIP3    H240559   0.247   3.356   4.654  1.5019  1.6844  0.4084
 6382TIP3   OH240560   5.762   2.048   2.741  0.1038 -0.6677  0.4544
 6382TIP3    H140561   5.822   2.093   2.801  0.2088  0.7962 -0.6857
 6382TIP3    H240562   5.762   2.103   2.662  1.3067 -3.3549 -1.6002
 6383TIP3   OH240563   1.884   6.042   2.750  0.2434  0.2116 -0.9251
 6383TIP3    H140564   1.958   6.004   2.701  1.8101  0.6363  0.9699
 6383TIP3    H240565   1.816   5.974   2.747  1.0434 -0.5857 -1.9478
 6384TIP3   OH240566   5.209   1.501  14.433  0.5187  0.0332  0.0643
 6384TIP3    H140567   5.279   1.558  14.464  0.6728 -0.2583  0.2611
 6384TIP3    H240568   5.222   1.495  14.339  1.1416 -0.5268  0.1821
 6385TIP3   OH240569   5.566   0.406  16.517 -0.0871  0.8818 -0.6535
 6385TIP3    H140570   5.543   0.325  16.472  1.5301 -0.7012  1.1706
 6385TIP3    H240571   5.661   0.413  16.506  0.2638  0.8148  1.7697
 6386TIP3   OH240572   1.710   1.705   2.160 -0.3003  0.5197  0.6161
 6386TIP3    H140573   1.761   1.630   2.191 -2.0149 -0.5631  1.0057
 6386TIP3    H240574   1.705   1.693   2.065  1.8209  1.7728  0.2919
 6387TIP3   OH240575   5.562   4.116   0.673  0.3338 -0.3721  0.4603
 6387TIP3    H140576   5.652   4.147   0.678  0.8836 -1.9854  1.5740
 6387TIP3    H240577   5.567   4.031   0.629 -0.8895  0.2506 -0.9874
 6388TIP3   OH240578   0.918   3.087   1.830  0.8729 -0.4080  0.2133
 6388TIP3    H140579   0.967   3.025   1.776  1.7393  0.8709 -0.5443
 6388TIP3    H240580   0.879   3.034   1.899  0.2621 -2.0174 -1.2826
 6389TIP3   OH240581   1.133   1.306  16.767  0.3931  0.1416  0.1791
 6389TIP3    H140582   1.171   1.288  16.853 -1.6142 -0.1061  1.0744
 6389TIP3    H240583   1.048   1.346  16.787  0.1506  0.6270 -1.7034
 6390TIP3   OH240584   3.676   4.670  11.173 -0.1251  0.0508 -0.4857
 6390TIP3    H140585   3.762   4.712  11.171  0.3706 -0.9054 -0.0906
 6390TIP3    H240586   3.614   4.741  11.187  0.7132  0.6220  0.4486
 6391TIP3   OH240587   1.415   1.916   0.878  0.4320  0.2548  0.4845
 6391TIP3    H140588   1.375   1.982   0.934  0.6462 -0.1133  1.0841
 6391TIP3    H240589   1.496   1.892   0.924  1.0354  0.5454 -0.3960
 6392TIP3   OH240590   0.673   5.381  14.962  1.2699 -0.5362 -0.9242
 6392TIP3    H140591   0.628   5.453  15.007 -0.9374 -2.3554 -0.0389
 6392TIP3    H240592   0.759   5.377  15.004  1.1905  1.1128 -0.5237
 6393TIP3   OH240593   3.295   3.703  11.708 -0.0440 -0.1931  0.1254
 6393TIP3    H140594   3.202   3.722  11.692  0.2863  0.2905 -1.4074
 6393TIP3    H240595   3.322   3.769  11.771 -0.7474 -0.3674  0.6268
 6394TIP3   OH240596   2.297   1.542  13.682 -0.1466  0.7213 -0.1201
 6394TIP3    H140597   2.388   1.567  13.696 -0.2907  0.6468  1.0216
 6394TIP3    H240598   2.277   1.574  13.594  0.4587  2.3428  0.2870
 6395TIP3   OH240599   0.110   4.706  16.632 -0.0198  0.1128 -0.2137
 6395TIP3    H140600   0.020   4.718  16.664 -0.3435 -0.7812 -0.7478
 6395TIP3    H240601   0.104   4.632  16.572  0.8964  0.6648 -1.0180
 6396TIP3   OH240602   3.508   4.481   2.777 -0.5523 -0.5123  0.0701
 6396TIP3    H140603   3.544   4.486   2.688 -0.7230  0.3452  0.0426
 6396TIP3    H240604   3.415   4.501   2.766 -0.9972 -2.2875  0.2014
 6397TIP3   OH240605   5.714   0.687   1.519  0.1707 -0.2381 -0.0082
 6397TIP3    H140606   5.689   0.662   1.430  2.2572 -0.5941 -0.5482
 6397TIP3    H240607   5.739   0.779   1.512  0.4566 -0.3005  0.1894
 6398TIP3   OH240608   6.348   4.772  14.870 -0.4067 -0.4809  0.4040
 6398TIP3    H140609   6.318   4.854  14.910  0.0257 -1.1067  2.1398
 6398TIP3    H240610   6.297   4.704  14.915  0.4856 -1.2670  0.2654
 6399TIP3   OH240611   1.031   2.148  14.100 -0.5231  0.1187 -0.1779
 6399TIP3    H140612   1.099   2.081  14.104 -0.8205 -0.1986 -0.3413
 6399TIP3    H240613   0.956   2.104  14.061 -0.5908  0.6585 -0.6853
 6400TIP3   OH240614   5.217   1.549  12.422 -0.2762  0.0931 -0.4119
 6400TIP3    H140615   5.215   1.468  12.473 -1.2069 -0.0812 -0.7160
 6400TIP3    H240616   5.154   1.607  12.466 -0.7877  0.0850 -1.1274
 6401TIP3   OH240617   3.425   2.877   3.301  0.3166  0.3704  0.0659
 6401TIP3    H140618   3.427   2.901   3.393  2.6090 -1.7765  0.6801
 6401TIP3    H240619   3.396   2.786   3.300  1.6661 -0.0931 -1.1562
 6402TIP3   OH240620   6.643   4.101   1.699 -0.1771 -0.1805 -0.2266
 6402TIP3    H140621   6.695   4.033   1.742 -1.0381 -1.4672 -1.1321
 6402TIP3    H240622   6.630   4.168   1.766  2.8644  0.3480 -0.0623
 6403TIP3   OH240623   4.155   1.253  11.073  0.3027  0.5020 -0.1045
 6403TIP3    H140624   4.230   1.215  11.028  0.6859  0.1821  0.7831
 6403TIP3    H240625   4.145   1.340  11.033  1.9031  1.0377  0.5845
 6404TIP3   OH240626   6.481   0.945   3.766 -0.1652 -0.1600 -0.0825
 6404TIP3    H140627   6.463   1.000   3.843  0.9288  1.9018 -1.2122
 6404TIP3    H240628   6.577   0.934   3.767  0.4328  2.9935 -2.9667
 6405TIP3   OH240629   4.526   3.062  11.767 -0.0789 -0.2928  0.1492
 6405TIP3    H140630   4.581   3.140  11.773  0.4837 -0.6122 -0.6167
 6405TIP3    H240631   4.580   2.991  11.802 -0.1469 -0.5374 -0.2237
 6406TIP3   OH240632   0.603   1.610   1.845 -0.1742 -0.3105  0.6526
 6406TIP3    H140633   0.643   1.693   1.820  1.3498 -1.5376 -1.3448
 6406TIP3    H240634   0.554   1.629   1.925 -0.3264  2.5907 -0.0431
 6407TIP3   OH240635   2.203   1.367   2.491 -0.6246  0.3448  0.5932
 6407TIP3    H140636   2.272   1.402   2.549  1.6147 -0.5115 -1.3780
 6407TIP3    H240637   2.163   1.445   2.452  1.0889  0.8648 -0.2181
 6408TIP3   OH240638   1.342   2.948  11.159  0.1841 -0.5538 -0.5498
 6408TIP3    H140639   1.381   2.885  11.098  1.1116 -0.5884  0.0608
 6408TIP3    H240640   1.386   3.030  11.139 -1.4909  0.1042 -1.8005
 6409TIP3   OH240641   1.364   2.605   1.047 -0.0282  0.2276 -0.4563
 6409TIP3    H140642   1.287   2.655   1.019  1.3038  1.8256 -1.5500
 6409TIP3    H240643   1.378   2.630   1.138 -0.3687  0.5418 -0.4893
 6410TIP3   OH240644   3.318   3.916   0.027  0.3270  0.4635  0.2480
 6410TIP3    H140645   3.269   3.858  -0.032  2.0062  0.0762 -0.8522
 6410TIP3    H240646   3.299   3.883   0.115 -1.0462  0.0855 -0.1719
 6411TIP3   OH240647   6.332   6.378   0.166  0.0696  0.1232  0.3644
 6411TIP3    H140648   6.295   6.311   0.109  1.9342 -1.2255  0.6233
 6411TIP3    H240649   6.274   6.380   0.242 -0.6979 -0.3096 -0.2006
 6412TIP3   OH240650   1.355   2.331  12.444  0.2350  0.5484 -0.4190
 6412TIP3    H140651   1.328   2.397  12.380 -1.0172 -0.1846 -0.6722
 6412TIP3    H240652   1.374   2.253  12.391  0.1504  0.2332  0.0135
 6413TIP3   OH240653   0.917   1.070  12.520  0.0734 -0.3554  0.1393
 6413TIP3    H140654   0.914   1.166  12.517 -1.6921 -0.3520  0.4760
 6413TIP3    H240655   0.917   1.043  12.429  2.0162 -0.0548  0.0143
 6414TIP3   OH240656   5.745   4.675   0.826 -0.5696 -0.1816  0.0102
 6414TIP3    H140657   5.809   4.671   0.755  0.7488  2.4216  0.8942
 6414TIP3    H240658   5.763   4.598   0.879  1.5814  0.2178 -0.0321
 6415TIP3   OH240659   5.534   2.666   0.226 -0.1204 -0.2060  0.1284
 6415TIP3    H140660   5.495   2.613   0.157 -0.5410  0.1446  0.0928
 6415TIP3    H240661   5.621   2.690   0.192 -0.7417  0.8820 -0.7645
 6416TIP3   OH240662   0.500   1.052   4.988  0.1072  0.1984 -0.1651
 6416TIP3    H140663   0.516   1.024   4.898 -0.1622  2.0687 -0.8418
 6416TIP3    H240664   0.559   1.126   5.001 -1.8925  1.8387  0.1324
 6417TIP3   OH240665   3.860   0.069  15.679  0.2366  0.7633 -0.3387
 6417TIP3    H140666   3.867   0.049  15.772 -0.6162 -1.4050 -0.6793
 6417TIP3    H240667   3.940   0.032  15.641 -0.8078 -1.1274 -0.8232
 6418TIP3   OH240668   4.314   5.162   1.884 -0.7365  0.1399  0.2674
 6418TIP3    H140669   4.270   5.099   1.828 -0.4405 -0.4031  0.6344
 6418TIP3    H240670   4.244   5.218   1.918 -1.4559 -1.9026  2.3829
 6419TIP3   OH240671   6.626   5.238   3.082 -0.4461 -0.3217  0.3781
 6419TIP3    H140672   6.580   5.183   3.146 -1.7582 -1.0773 -1.1576
 6419TIP3    H240673   6.694   5.182   3.045 -0.9875 -0.5394 -0.3061
 6420TIP3   OH240674   5.012   5.540  11.913 -0.1133  0.2447  0.1183
 6420TIP3    H140675   4.994   5.620  11.863 -2.4986 -0.7615 -0.8205
 6420TIP3    H240676   4.974   5.470  11.860  1.8904 -1.5455  0.9198
 6421TIP3   OH240677   6.553   6.253   5.797 -0.4333  0.0651 -0.0937
 6421TIP3    H140678   6.495   6.327   5.810 -1.4483 -0.8243  0.6269
 6421TIP3    H240679   6.522   6.186   5.858  0.9940 -0.6513 -0.0944
 6422TIP3   OH240680   1.412   3.923  14.012  0.0840 -0.1627 -0.0616
 6422TIP3    H140681   1.407   3.959  13.923  0.6674  0.8664  0.3165
 6422TIP3    H240682   1.367   3.986  14.067  0.9756 -0.0704  0.5876
 6423TIP3   OH240683   5.499   3.095  11.614  0.1242 -0.5160 -0.1066
 6423TIP3    H140684   5.570   3.159  11.614  0.2361 -0.6381  0.0860
 6423TIP3    H240685   5.524   3.032  11.547 -0.7443  0.4672 -1.3828
 6424TIP3   OH240686   0.855   2.189   3.457 -0.7309 -0.6610 -0.6517
 6424TIP3    H140687   0.848   2.275   3.416  0.6818 -0.7763 -1.1931
 6424TIP3    H240688   0.929   2.147   3.413  2.3536 -0.0226  3.3090
 6425TIP3   OH240689   6.676   4.777  16.309  0.3738 -0.5609  0.1885
 6425TIP3    H140690   6.679   4.781  16.405 -2.3407 -1.3045  0.3843
 6425TIP3    H240691   6.654   4.685  16.290 -0.4104 -0.1330 -1.0788
 6426TIP3   OH240692   0.416   4.783  15.952 -0.3272 -0.7170 -0.7180
 6426TIP3    H140693   0.412   4.695  15.990  1.2889 -0.3809  0.3559
 6426TIP3    H240694   0.329   4.820  15.968 -0.4808 -1.5013  0.4360
 6427TIP3   OH240695   2.413   5.552  14.559 -0.7969 -0.2568 -0.6367
 6427TIP3    H140696   2.429   5.474  14.613 -1.5934 -0.2591 -0.3954
 6427TIP3    H240697   2.408   5.624  14.622  0.9060  0.1722 -0.9258
 6428TIP3   OH240698   3.130   0.820  16.617  0.8051  0.2846 -0.0229
 6428TIP3    H140699   3.089   0.801  16.533  0.4964  1.1500 -0.0743
 6428TIP3    H240700   3.188   0.894  16.599  0.2156  0.9313  0.6640
 6429TIP3   OH240701   0.665   0.597  12.633  0.1545 -0.2044  0.0508
 6429TIP3    H140702   0.714   0.605  12.551 -1.4829  0.7671 -0.8721
 6429TIP3    H240703   0.611   0.676  12.638 -2.5377 -1.9158  0.1797
 6430TIP3   OH240704   2.907   4.854  16.124 -0.0198  0.3673 -0.3444
 6430TIP3    H140705   2.911   4.897  16.038  0.3655 -0.9699 -1.0248
 6430TIP3    H240706   2.923   4.761  16.105  0.3124  0.0823  1.2078
 6431TIP3   OH240707   1.890   5.787   4.882 -0.1193  0.1094 -0.0371
 6431TIP3    H140708   1.973   5.739   4.886 -0.0873  0.2043  2.9391
 6431TIP3    H240709   1.826   5.722   4.856  0.3559 -0.9105  1.2466
 6432TIP3   OH240710   6.563   6.682   2.127  0.0248  0.1808 -0.6416
 6432TIP3    H140711   6.574   6.606   2.184  0.4679 -1.2065 -2.4696
 6432TIP3    H240712   6.470   6.683   2.106 -0.4807  1.7016  1.3226
 6433TIP3   OH240713   1.680   4.181  12.227 -0.3184  0.1964  0.5334
 6433TIP3    H140714   1.757   4.222  12.189  0.8432  0.5688  3.0978
 6433TIP3    H240715   1.711   4.096  12.260 -1.0268  0.2371  1.3678
 6434TIP3   OH240716   3.714   3.125   3.187 -0.3119  0.0577 -0.0030
 6434TIP3    H140717   3.646   3.149   3.251 -0.0723  0.6239  0.0486
 6434TIP3    H240718   3.765   3.206   3.175  0.0853 -0.2426 -0.3688
 6435TIP3   OH240719   5.158   5.236  15.967 -0.3168  0.9124  1.4230
 6435TIP3    H140720   5.235   5.290  15.986  0.6121  0.5001 -0.8536
 6435TIP3    H240721   5.095   5.297  15.929  0.5520  0.6116 -0.6904
 6436TIP3   OH240722   3.496   6.577  12.730 -0.1344 -0.5858  0.2913
 6436TIP3    H140723   3.463   6.489  12.714 -1.1899 -0.1545  0.0554
 6436TIP3    H240724   3.525   6.575  12.822 -2.4344 -0.5157  1.0935
 6437TIP3   OH240725   2.410   2.830  12.292 -0.2246 -0.0972 -0.2657
 6437TIP3    H140726   2.390   2.737  12.299 -1.2175  0.1080 -0.2072
 6437TIP3    H240727   2.347   2.873  12.350  0.3698  0.5987 -0.1179
 6438TIP3   OH240728   0.815   1.359  11.573  0.1835 -0.2266  0.3823
 6438TIP3    H140729   0.794   1.337  11.664 -1.4641 -1.3515 -0.2194
 6438TIP3    H240730   0.760   1.300  11.521  0.0167  1.3734 -1.3549
 6439TIP3   OH240731   5.411   5.290   1.264 -0.0046 -0.2771  0.1739
 6439TIP3    H140732   5.320   5.316   1.281 -0.4807 -1.2648 -0.7248
 6439TIP3    H240733   5.413   5.271   1.170  0.1880 -3.6918  0.7502
 6440TIP3   OH240734   2.169   0.800   4.446 -0.0265 -0.3264  0.2328
 6440TIP3    H140735   2.159   0.822   4.354  0.3315  0.4113  0.3692
 6440TIP3    H240736   2.248   0.746   4.450  0.4961  0.4324  0.2338
 6441TIP3   OH240737   0.178   0.688   2.783 -0.1522  0.2601  0.3968
 6441TIP3    H140738   0.101   0.654   2.738  1.0161 -2.0230 -0.0264
 6441TIP3    H240739   0.176   0.646   2.869  2.1329 -2.2805 -0.6735
 6442TIP3   OH240740   1.380   6.399  15.900 -0.3400 -0.2890  0.0841
 6442TIP3    H140741   1.391   6.406  15.805  0.0233 -1.7649  0.0019
 6442TIP3    H240742   1.293   6.362  15.911 -0.1410 -0.6971  0.3009
 6443TIP3   OH240743   6.370   3.743  14.942  0.2026 -0.1718  0.8622
 6443TIP3    H140744   6.299   3.689  14.907  1.5354 -2.0730  0.9437
 6443TIP3    H240745   6.376   3.818  14.881 -0.0052 -1.4590 -0.8271
 6444TIP3   OH240746   1.133   3.750   1.752  0.1801  0.3549 -0.2828
 6444TIP3    H140747   1.159   3.717   1.666 -0.7484 -0.6525 -0.2003
 6444TIP3    H240748   1.173   3.689   1.814  1.5223  1.5359  0.0689
 6445TIP3   OH240749   1.987   2.589   2.683 -0.0202 -0.3068  0.2896
 6445TIP3    H140750   1.937   2.511   2.659  0.7600 -0.8979  0.5573
 6445TIP3    H240751   2.071   2.555   2.715 -0.4261  0.5091  2.3749
 6446TIP3   OH240752   1.774   6.699  13.959 -0.4300  0.0318  0.2826
 6446TIP3    H140753   1.823   6.732  14.035 -0.0952  0.7685 -0.2447
 6446TIP3    H240754   1.803   6.754  13.886 -1.5322  0.0259 -0.1760
 6447TIP3   OH240755   0.920   1.460   5.801 -0.5763  0.2061  0.6269
 6447TIP3    H140756   0.915   1.554   5.783 -0.7510 -0.2345 -2.1704
 6447TIP3    H240757   1.011   1.445   5.827 -0.4322  1.0772  0.6661
 6448TIP3   OH240758   6.103   4.351   4.701 -1.2805 -0.0134 -0.1298
 6448TIP3    H140759   6.094   4.438   4.739  0.7974  0.1863 -0.0001
 6448TIP3    H240760   6.104   4.366   4.606 -1.2974  0.0426 -0.1214
 6449TIP3   OH240761   5.575   0.109   6.059 -0.0997 -0.2941 -0.0760
 6449TIP3    H140762   5.482   0.086   6.068 -0.2844 -0.3175 -1.7097
 6449TIP3    H240763   5.608   0.050   5.992  1.0961 -0.2233  0.4253
 6450TIP3   OH240764   2.924   3.818  12.221  0.7374 -0.2866  0.5972
 6450TIP3    H140765   3.003   3.868  12.242  0.1139  0.7938  0.4436
 6450TIP3    H240766   2.871   3.822  12.300 -0.1587  0.9673 -0.0370
 6451TIP3   OH240767   6.396   6.337  12.632  0.8517 -0.0394 -0.2016
 6451TIP3    H140768   6.430   6.334  12.722 -0.8213  0.3284  0.4716
 6451TIP3    H240769   6.474   6.350  12.578  1.7065  1.9726  1.3807
 6452TIP3   OH240770   5.499   4.132   2.679 -0.1966 -0.2278  0.1129
 6452TIP3    H140771   5.421   4.079   2.665 -0.4942 -0.5263  2.4956
 6452TIP3    H240772   5.572   4.070   2.670 -0.1605  0.0651 -2.1761
 6453TIP3   OH240773   3.310   3.882   1.936  0.2834 -0.2985  0.1465
 6453TIP3    H140774   3.308   3.959   1.880  0.1553  0.8063  1.6056
 6453TIP3    H240775   3.221   3.873   1.969  0.0995 -1.5745 -0.6272
 6454TIP3   OH240776   0.274   0.663   3.058  0.4980  0.2834 -0.6371
 6454TIP3    H140777   0.248   0.571   3.061 -0.4848  0.5571 -0.5019
 6454TIP3    H240778   0.241   0.700   3.139  0.7113  0.8028 -0.7878
 6455TIP3   OH240779   0.223   2.403   4.659 -0.4023 -0.4742 -0.1191
 6455TIP3    H140780   0.237   2.392   4.565  1.8270  0.1195  0.0980
 6455TIP3    H240781   0.225   2.498   4.672 -0.3247 -0.5714  0.5830
 6456TIP3   OH240782   0.220   1.672   5.923 -0.1341 -0.5802  0.2663
 6456TIP3    H140783   0.277   1.674   6.000  0.3355 -0.7183 -0.0709
 6456TIP3    H240784   0.208   1.764   5.899  0.2901 -0.5658  0.0957
 6457TIP3   OH240785   4.246   4.509   6.699 -0.3760 -0.4606 -0.3450
 6457TIP3    H140786   4.329   4.539   6.662  0.0550  1.5800  2.0150
 6457TIP3    H240787   4.249   4.414   6.689  1.0418 -0.2451 -2.6427
 6458TIP3   OH240788   2.823   0.983   5.758  0.3121 -0.3315  0.1646
 6458TIP3    H140789   2.809   0.962   5.666 -0.1842  0.6208  0.0113
 6458TIP3    H240790   2.910   1.022   5.761 -0.2136  0.8871 -0.1267
 6459TIP3   OH240791   3.080   4.198   1.049 -0.6792  0.0554  0.2364
 6459TIP3    H140792   3.143   4.269   1.061  0.6722 -1.0077 -0.2549
 6459TIP3    H240793   3.083   4.150   1.132 -1.4223  0.4241  0.4862
 6460TIP3   OH240794   4.453   0.051   5.845  0.4542 -0.0241  0.0542
 6460TIP3    H140795   4.477   0.143   5.850  0.0671  0.1180 -0.5355
 6460TIP3    H240796   4.366   0.047   5.884  0.9918 -0.3618  1.2500
 6461TIP3   OH240797   5.056   1.132  17.248 -0.1015  0.3060  0.1993
 6461TIP3    H140798   5.067   1.037  17.237 -0.5972  0.2008  0.5454
 6461TIP3    H240799   5.092   1.170  17.168  1.1891 -0.1019  0.5667
 6462TIP3   OH240800   3.935   1.020  11.542  0.2833 -0.4014  1.0463
 6462TIP3    H140801   3.932   1.109  11.507 -2.2314 -0.4083  1.0563
 6462TIP3    H240802   3.931   1.031  11.637  0.9238 -0.5261  1.0936
 6463TIP3   OH240803   5.394   1.347   4.904  0.6502 -0.1255  0.0300
 6463TIP3    H140804   5.320   1.290   4.923  0.9030 -1.0155 -1.4819
 6463TIP3    H240805   5.373   1.430   4.946 -0.3847 -0.8966  1.0823
 6464TIP3   OH240806   6.638   2.234   1.474 -0.4481  0.3134 -0.4050
 6464TIP3    H140807   6.631   2.317   1.520 -0.1064  1.1721 -1.8411
 6464TIP3    H240808   6.548   2.216   1.443 -0.4469  0.3501 -0.4299
 6465TIP3   OH240809   1.169   1.393   5.578  0.1876  0.5069  0.2022
 6465TIP3    H140810   1.237   1.390   5.510  0.0823  0.4037  0.0998
 6465TIP3    H240811   1.216   1.375   5.660  0.4226  1.2974  0.2442
 6466TIP3   OH240812   0.155   3.135  14.002 -0.4278 -0.4725  0.2516
 6466TIP3    H140813   0.228   3.189  13.971 -1.2241  0.2301 -0.4650
 6466TIP3    H240814   0.082   3.158  13.944 -1.6475 -0.0262  1.8848
 6467TIP3   OH240815   6.532   6.556   1.314  0.0830  0.2701 -0.3790
 6467TIP3    H140816   6.512   6.621   1.381  1.2691  1.0794 -0.7768
 6467TIP3    H240817   6.455   6.499   1.311 -0.9722  1.6382 -0.0052
 6468TIP3   OH240818   4.440   2.252   5.161  0.1748  0.1119 -0.8627
 6468TIP3    H140819   4.482   2.318   5.217  0.2636 -0.5283 -0.1603
 6468TIP3    H240820   4.411   2.184   5.221  0.0799 -0.4945 -1.5754
 6469TIP3   OH240821   3.283   0.592   4.519  0.3149 -0.5387  0.5464
 6469TIP3    H140822   3.367   0.545   4.520  0.1832 -0.8861 -1.3710
 6469TIP3    H240823   3.220   0.528   4.487 -0.4572  0.0775  0.8091
 6470TIP3   OH240824   5.043   0.331  12.775 -0.6204 -0.2691 -0.0467
 6470TIP3    H140825   5.045   0.319  12.680  1.3810  1.9391 -0.3769
 6470TIP3    H240826   5.106   0.267  12.809 -0.6286 -0.4170 -0.3120
 6471TIP3   OH240827   2.115   2.402  15.835  0.2966  0.3661 -0.5809
 6471TIP3    H140828   2.037   2.421  15.784 -0.8029 -1.5382  0.2546
 6471TIP3    H240829   2.087   2.334  15.897  2.5977 -0.3614 -0.2262
 6472TIP3   OH240830   1.486   0.579   1.595 -0.0019  0.0530 -0.2443
 6472TIP3    H140831   1.474   0.557   1.503  0.1854 -1.6842  0.1284
 6472TIP3    H240832   1.405   0.551   1.637  0.4650 -0.4376  0.3365
 6473TIP3   OH240833   3.846   0.300   4.894 -0.5600 -0.4146  0.5278
 6473TIP3    H140834   3.829   0.248   4.973 -2.3591 -0.0294  0.4311
 6473TIP3    H240835   3.868   0.387   4.926 -0.2578 -0.5261  0.6249
 6474TIP3   OH240836   6.642   5.851   5.311 -0.1846 -0.5394  0.2425
 6474TIP3    H140837   6.564   5.877   5.361 -0.9658  2.3092 -2.1244
 6474TIP3    H240838   6.607   5.817   5.229  1.0328  0.0168 -0.5323
 6475TIP3   OH240839   5.654   0.681  15.266 -0.2043  0.5388  0.0648
 6475TIP3    H140840   5.684   0.680  15.176 -0.1133 -0.7799  0.0932
 6475TIP3    H240841   5.569   0.636  15.264 -0.0548  0.2192  0.6857
 6476TIP3   OH240842   4.390   3.435   0.415  0.2131 -0.1228  0.4599
 6476TIP3    H140843   4.401   3.530   0.404  1.5626 -0.0772  1.8819
 6476TIP3    H240844   4.478   3.403   0.434 -0.2712 -1.6407  0.2750
 6477TIP3   OH240845   0.094   0.266   5.928 -0.5584  0.2716  0.2331
 6477TIP3    H140846   0.120   0.200   5.993  0.4253 -0.2734 -0.6781
 6477TIP3    H240847   0.028   0.319   5.973 -0.0796 -0.2343  1.5916
 6478TIP3   OH240848   1.614   2.861   0.692  0.1530 -0.3022  0.3565
 6478TIP3    H140849   1.683   2.893   0.634  0.9082  0.0449  1.4310
 6478TIP3    H240850   1.543   2.837   0.632  0.8342  0.2261 -0.7039
 6479TIP3   OH240851   5.890   3.168  14.699  0.3701 -0.6003 -0.0832
 6479TIP3    H140852   5.889   3.153  14.604  1.4229 -2.4769  0.1457
 6479TIP3    H240853   5.975   3.136  14.727  0.6015  1.1394  1.3652
 6480TIP3   OH240854   6.159   3.866  11.659 -0.6607 -0.0480  0.3930
 6480TIP3    H140855   6.208   3.883  11.579 -1.2707 -2.8562 -0.6947
 6480TIP3    H240856   6.211   3.801  11.706 -1.2045  0.2119  1.3755
 6481TIP3   OH240857   1.278   2.057   1.768 -0.2901  0.2217 -0.6160
 6481TIP3    H140858   1.252   2.147   1.789  0.6157  0.5418 -0.8320
 6481TIP3    H240859   1.263   2.008   1.848  2.0054  1.1847  0.4944
 6482TIP3   OH240860   1.996   2.074   4.427  0.5854  0.1928 -0.5441
 6482TIP3    H140861   2.023   2.111   4.343 -1.5408 -1.0870 -1.8941
 6482TIP3    H240862   1.975   1.983   4.407  2.5307 -0.9361  1.9672
 6483TIP3   OH240863   1.931   3.582  11.940 -0.7449 -0.3650  0.1042
 6483TIP3    H140864   1.974   3.667  11.941 -1.6966  0.1561  1.8392
 6483TIP3    H240865   1.996   3.522  11.906  0.8642  0.6196  1.3219
 6484TIP3   OH240866   1.906   6.383   1.201  0.4960  0.4374  0.7368
 6484TIP3    H140867   1.868   6.368   1.114  0.4411 -0.9517  0.9818
 6484TIP3    H240868   1.989   6.426   1.184  0.9934 -0.8102 -0.0820
 6485TIP3   OH240869   5.551   5.635  14.062  0.3072  0.0176  0.4176
 6485TIP3    H140870   5.643   5.614  14.074  0.7504  0.7568 -1.3866
 6485TIP3    H240871   5.515   5.557  14.019  0.1909 -0.0680  0.6656
 6486TIP3   OH240872   3.505   5.434  15.296  0.4425 -0.3423 -0.3672
 6486TIP3    H140873   3.509   5.365  15.229  1.2083 -0.7020  0.0333
 6486TIP3    H240874   3.457   5.393  15.369  0.7745 -0.4068 -0.1842
 6487TIP3   OH240875   1.506   2.863  16.424  0.1092 -0.0440  0.1164
 6487TIP3    H140876   1.593   2.883  16.460 -0.7909  2.6847  1.0489
 6487TIP3    H240877   1.446   2.914  16.478 -1.8355  0.0675 -2.0216
 6488TIP3   OH240878   1.237   5.672   3.135  0.3258  0.1276 -0.4500
 6488TIP3    H140879   1.215   5.685   3.227 -0.5406 -0.8875 -0.4968
 6488TIP3    H240880   1.157   5.639   3.095  1.0000 -0.4992 -1.3339
 6489TIP3   OH240881   0.888   3.674  16.824  0.4140  0.0164 -0.0478
 6489TIP3    H140882   0.975   3.662  16.785 -0.1708 -0.8492 -1.1208
 6489TIP3    H240883   0.827   3.646  16.756 -0.6887 -0.1850  0.9973
 6490TIP3   OH240884   4.789   1.823  12.204 -0.2003  0.6762  0.0423
 6490TIP3    H140885   4.774   1.916  12.188  0.6234  1.1036  1.5666
 6490TIP3    H240886   4.763   1.780  12.123  1.3100  2.4046 -1.4321
 6491TIP3   OH240887   1.943   2.597   2.286  0.1111  0.3160 -0.0878
 6491TIP3    H140888   1.906   2.620   2.201 -2.2128  2.2955  1.3268
 6491TIP3    H240889   1.909   2.510   2.305 -1.5895  0.9489 -0.0789
 6492TIP3   OH240890   3.695   4.011  17.355  0.2070  0.1552  0.0070
 6492TIP3    H140891   3.623   4.069  17.380 -0.5098  0.1280 -1.8531
 6492TIP3    H240892   3.686   3.935  17.413  0.6819  1.4906  1.9359
 6493TIP3   OH240893   6.491   6.092   4.793  0.5551 -0.2435  0.0473
 6493TIP3    H140894   6.562   6.118   4.734  1.2088  1.9078  1.6807
 6493TIP3    H240895   6.484   6.163   4.856 -1.7384 -1.3366  1.1576
 6494TIP3   OH240896   1.743   4.701  14.609 -0.9281  0.2870 -0.5139
 6494TIP3    H140897   1.736   4.740  14.522  0.1500  0.9238 -0.3321
 6494TIP3    H240898   1.716   4.610  14.597  2.7132 -0.7276 -2.3632
 6495TIP3   OH240899   4.696   0.565   0.590  0.3681  0.3138  0.0012
 6495TIP3    H140900   4.705   0.506   0.516 -1.5472  2.7744 -2.4190
 6495TIP3    H240901   4.786   0.590   0.612  1.2443 -3.3447  1.1986
 6496TIP3   OH240902   3.132   2.287   4.726  0.3325  0.0508 -0.1742
 6496TIP3    H140903   3.169   2.328   4.804 -1.3377  1.1147  0.1161
 6496TIP3    H240904   3.191   2.311   4.655  0.7702  0.8045  0.4334
 6497TIP3   OH240905   3.027   0.660  10.721 -0.0899 -0.1726 -0.0433
 6497TIP3    H140906   2.951   0.603  10.735 -0.6518  0.6399  0.2980
 6497TIP3    H240907   3.061   0.633  10.635  1.1364 -2.6447  1.1218
 6498TIP3   OH240908   0.998   2.016  11.304 -0.3633 -0.3483 -0.5173
 6498TIP3    H140909   1.023   2.047  11.217 -0.5618 -1.5376 -1.0172
 6498TIP3    H240910   0.907   1.987  11.294 -0.5964  0.1080  0.2513
 6499TIP3   OH240911   2.757   1.557   5.903  0.0173  0.5020  0.2797
 6499TIP3    H140912   2.808   1.510   5.837 -0.6271  1.4213 -0.9155
 6499TIP3    H240913   2.679   1.586   5.856 -0.7309  0.6935  1.6121
 6500TIP3   OH240914   2.052   2.475  11.887  0.5767  0.6136 -0.6061
 6500TIP3    H140915   2.021   2.512  11.805 -0.1543 -0.8423 -1.0192
 6500TIP3    H240916   2.115   2.407  11.861  0.5731  0.3458  0.0521
 6501TIP3   OH240917   0.815   0.639   2.228  0.1725 -0.3631 -0.5287
 6501TIP3    H140918   0.869   0.564   2.201 -1.8272 -1.4006 -1.9153
 6501TIP3    H240919   0.870   0.686   2.291  2.5972 -1.4212 -1.7047
 6502TIP3   OH240920   5.971   4.112  15.733  0.3533  0.1782 -0.3430
 6502TIP3    H140921   5.966   4.028  15.779 -1.0490 -0.6441 -1.9068
 6502TIP3    H240922   6.021   4.169  15.792 -0.3901 -1.1508  1.6562
 6503TIP3   OH240923   2.236   6.165  15.451  0.2143 -0.5352 -0.1464
 6503TIP3    H140924   2.215   6.216  15.372  0.4268 -1.9481 -1.1651
 6503TIP3    H240925   2.299   6.219  15.498 -0.2044  0.5153 -0.7447
 6504TIP3   OH240926   1.507   1.141   4.025  0.2133 -0.3858  0.0282
 6504TIP3    H140927   1.508   1.093   4.108 -1.5719  0.1778  0.4175
 6504TIP3    H240928   1.425   1.190   4.027 -1.1869 -2.2556 -3.1536
 6505TIP3   OH240929   2.493   4.389  10.900 -0.0034 -0.0200  0.0010
 6505TIP3    H140930   2.522   4.472  10.861  0.4633 -0.3353 -0.3237
 6505TIP3    H240931   2.420   4.361  10.845  0.8995 -0.6607 -0.8981
 6506TIP3   OH240932   3.218   4.429   1.255 -0.0151  0.1868 -0.7973
 6506TIP3    H140933   3.137   4.452   1.300  0.8097  1.4769  0.1143
 6506TIP3    H240934   3.235   4.503   1.197  1.3182  0.7313  0.2171
 6507TIP3   OH240935   0.798   1.113  16.590 -0.1080  0.9951 -0.8325
 6507TIP3    H140936   0.752   1.040  16.631  0.6721  1.6374  1.3447
 6507TIP3    H240937   0.889   1.084  16.584  0.3653  1.9978  0.7840
 6508TIP3   OH240938   0.803   1.509  17.265  0.0512 -0.3317 -0.0452
 6508TIP3    H140939   0.787   1.446  17.195 -3.7769 -0.1701  0.4791
 6508TIP3    H240940   0.802   1.594  17.222 -0.1325 -0.3520 -0.0828
 6509TIP3   OH240941   3.384   2.875  10.584  0.1714 -0.2850 -0.3576
 6509TIP3    H140942   3.290   2.861  10.583  0.1431 -0.4827  1.6173
 6509TIP3    H240943   3.403   2.910  10.671  1.5956  2.3252 -1.5994
 6510TIP3   OH240944   4.246   5.272   4.887 -0.3280  0.3652  0.5831
 6510TIP3    H140945   4.267   5.311   4.802 -1.4337 -1.5674 -0.6613
 6510TIP3    H240946   4.320   5.295   4.943  1.4111  0.0960 -1.4609
 6511TIP3   OH240947   0.801   5.361   4.280 -0.1992  0.6520  0.2737
 6511TIP3    H140948   0.764   5.311   4.207 -1.4798 -2.1435  2.6421
 6511TIP3    H240949   0.725   5.396   4.327  0.5288  1.3828  0.9414
 6512TIP3   OH240950   6.461   0.843  15.289 -0.0791 -0.7855  0.4530
 6512TIP3    H140951   6.472   0.896  15.368 -1.5286 -0.4640  0.4776
 6512TIP3    H240952   6.462   0.753  15.319  1.6687 -0.7749  0.5135
 6513TIP3   OH240953   1.356   1.945  16.230  0.3615 -0.6472 -0.2047
 6513TIP3    H140954   1.397   1.935  16.316  0.4158  1.9155  0.1446
 6513TIP3    H240955   1.264   1.964  16.249 -0.1021 -2.1552 -0.8325
 6514TIP3   OH240956   0.935   4.079  12.093 -0.1869 -0.8484 -0.5837
 6514TIP3    H140957   0.845   4.080  12.127 -0.3209  3.8240 -0.3717
 6514TIP3    H240958   0.986   4.126  12.160  1.6814 -0.4800 -2.1881
 6515TIP3   OH240959   6.388   6.749  12.683 -0.2892  0.0184 -0.6471
 6515TIP3    H140960   6.367   6.800  12.605  1.5203  1.6034 -0.1705
 6515TIP3    H240961   6.483   6.736  12.679 -0.5043 -2.2603 -0.0688
 6516TIP3   OH240962   1.471   0.853  11.747  0.1987  0.5459  0.5050
 6516TIP3    H140963   1.484   0.934  11.796 -0.0099  0.9209 -0.0478
 6516TIP3    H240964   1.556   0.834  11.708 -0.0818  1.2877 -0.5305
 6517TIP3   OH240965   4.706   5.767  15.013 -0.0217 -0.0591  0.1189
 6517TIP3    H140966   4.782   5.823  14.998  0.2210 -0.6250 -0.8732
 6517TIP3    H240967   4.632   5.819  14.984  0.2516 -0.4002 -1.2586
 6518TIP3   OH240968   3.098   4.787   2.232  0.1198 -0.9617  0.3720
 6518TIP3    H140969   3.187   4.775   2.265 -0.0588 -0.6106  0.9985
 6518TIP3    H240970   3.076   4.703   2.193  1.4008 -0.5161 -1.4793
 6519TIP3   OH240971   5.872   3.336   3.100 -0.5954  0.3440 -0.0196
 6519TIP3    H140972   5.903   3.245   3.100  0.6501  0.7546 -0.3040
 6519TIP3    H240973   5.812   3.340   3.175 -2.2822 -1.2259 -1.2043
 6520TIP3   OH240974   3.884   1.344   2.780  0.5985 -0.3715  0.4588
 6520TIP3    H140975   3.909   1.390   2.861 -0.0064  2.3764 -0.8185
 6520TIP3    H240976   3.968   1.324   2.738  0.9770  2.6430 -0.5042
 6521TIP3   OH240977   3.657   1.179   2.412  0.0536 -0.8471 -0.4522
 6521TIP3    H140978   3.589   1.133   2.364 -1.3654  0.2929  0.3808
 6521TIP3    H240979   3.641   1.272   2.393 -0.7604 -0.3090  2.3671
 6522TIP3   OH240980   0.631   0.405  14.855 -0.3966  0.1021 -0.1300
 6522TIP3    H140981   0.563   0.416  14.921 -0.6633  0.4641 -0.4630
 6522TIP3    H240982   0.695   0.347  14.896 -1.3961 -1.0929 -0.1866
 6523TIP3   OH240983   5.363   2.760   1.860  0.0112 -0.4004  0.0537
 6523TIP3    H140984   5.388   2.787   1.948  0.5575  0.0276 -0.2282
 6523TIP3    H240985   5.445   2.761   1.810 -0.4106  0.1186 -0.6504
 6524TIP3   OH240986   3.849   1.274   5.050 -0.4050  0.7743 -0.1569
 6524TIP3    H140987   3.783   1.305   4.988 -0.6161 -0.4158 -0.5393
 6524TIP3    H240988   3.933   1.301   5.012 -0.5738  0.7493 -0.5510
 6525TIP3   OH240989   5.905   2.394   1.998 -0.1545  0.0105  0.1904
 6525TIP3    H140990   5.974   2.451   2.032  0.6581 -1.3921  0.9842
 6525TIP3    H240991   5.900   2.415   1.905  0.9050  0.5888  0.2546
 6526TIP3   OH240992   3.025   0.738  14.225  0.2412 -0.0932  0.4883
 6526TIP3    H140993   2.976   0.815  14.198  0.8696 -0.2844 -1.3457
 6526TIP3    H240994   2.969   0.664  14.201 -0.1525 -0.2365  1.7998
 6527TIP3   OH240995   6.619   0.400  13.417 -0.3646  0.0383  0.2919
 6527TIP3    H140996   6.699   0.418  13.368  0.1240 -0.6961  0.7960
 6527TIP3    H240997   6.550   0.445  13.368  0.1290 -0.5496 -0.9765
 6528TIP3   OH240998   0.198   2.366   3.029  0.2051  0.4569 -0.3106
 6528TIP3    H140999   0.194   2.282   2.983 -0.3797  1.6110 -2.5077
 6528TIP3    H241000   0.249   2.348   3.108 -0.1670 -2.0121 -0.5495
 6529TIP3   OH241001   5.100   1.985  12.060 -0.5478  0.3762 -0.3892
 6529TIP3    H141002   5.084   1.911  12.119 -1.1861 -0.1700 -1.2297
 6529TIP3    H241003   5.194   2.003  12.069 -0.8173  1.0228  1.6040
 6530TIP3   OH241004   5.638   0.686  16.528 -0.4362  0.5518  0.1946
 6530TIP3    H141005   5.643   0.594  16.501  1.3249  0.9241 -0.8898
 6530TIP3    H241006   5.654   0.736  16.448 -0.3897  1.8018  0.9492
 6531TIP3   OH241007   5.629   3.256   6.296  0.4306  0.2564 -0.6463
 6531TIP3    H141008   5.651   3.345   6.270  0.5292  0.2419 -0.6127
 6531TIP3    H241009   5.560   3.229   6.235  0.5705  0.2686 -0.8106
 6532TIP3   OH241010   3.816   1.968  10.640 -0.1547 -0.1099 -0.0229
 6532TIP3    H141011   3.728   1.954  10.676  0.0169 -1.9354 -0.2125
 6532TIP3    H241012   3.868   1.897  10.677  0.9783  0.3051 -0.7817
 6533TIP3   OH241013   0.904   5.373  15.137 -0.1113 -0.4130 -0.1654
 6533TIP3    H141014   0.921   5.368  15.231 -1.1050 -0.9269 -0.0027
 6533TIP3    H241015   0.990   5.385  15.097  0.3315 -0.3456  0.7984
 6534TIP3   OH241016   1.388   3.993  12.038 -0.3982  0.0665  0.1210
 6534TIP3    H141017   1.418   3.998  11.948 -1.0474  0.5234 -0.0793
 6534TIP3    H241018   1.442   4.055  12.086  0.9499 -1.2237  0.3547
 6535TIP3   OH241019   0.610   3.317  12.396  0.0040  0.0329 -0.2846
 6535TIP3    H141020   0.527   3.312  12.442 -0.7941  0.0512 -1.6567
 6535TIP3    H241021   0.588   3.359  12.312  1.0689 -1.5045 -1.3815
 6536TIP3   OH241022   3.545   6.682   4.716 -0.4693  0.3927  0.8965
 6536TIP3    H141023   3.571   6.771   4.693 -0.6704  0.1420 -0.3872
 6536TIP3    H241024   3.617   6.648   4.768  0.5759  0.6232 -0.3402
 6537TIP3   OH241025   5.559   6.093  12.331 -0.2980  0.7316 -0.2498
 6537TIP3    H141026   5.487   6.052  12.378  0.9937 -2.3850 -0.7401
 6537TIP3    H241027   5.541   6.075  12.238  1.1630 -0.3593 -0.3647
 6538TIP3   OH241028   4.130   0.776   2.366 -0.0798  0.3614 -0.2149
 6538TIP3    H141029   4.053   0.750   2.317 -0.6531  1.2812  0.1571
 6538TIP3    H241030   4.147   0.703   2.426 -1.3449  0.6017  0.4785
 6539TIP3   OH241031   1.663   6.123   6.024  0.0657  0.2157 -0.6690
 6539TIP3    H141032   1.744   6.078   6.002  0.6236  0.8671  0.0102
 6539TIP3    H241033   1.629   6.076   6.100  0.4958  0.7338 -0.1432
 6540TIP3   OH241034   0.690   0.742  15.014 -0.2825  0.1032 -0.4195
 6540TIP3    H141035   0.611   0.729  15.066 -0.3140 -0.7530 -0.6770
 6540TIP3    H241036   0.747   0.668  15.036 -0.4314 -0.4638 -1.8375
 6541TIP3   OH241037   4.639   2.593  17.357  0.5266 -0.8985  0.1188
 6541TIP3    H141038   4.558   2.642  17.373  1.6901  0.5849  1.9623
 6541TIP3    H241039   4.622   2.543  17.278 -1.7004  0.4466 -0.3363
 6542TIP3   OH241040   1.758   1.492  15.807  0.1371 -0.0377 -0.1783
 6542TIP3    H141041   1.840   1.478  15.760 -0.0131  1.1285 -0.8261
 6542TIP3    H241042   1.757   1.424  15.875  1.1470 -0.7005 -0.8042
 6543TIP3   OH241043   3.512   0.606   3.552 -0.0939  0.3493 -0.1214
 6543TIP3    H141044   3.604   0.595   3.528 -0.4087  0.4508 -1.4399
 6543TIP3    H241045   3.468   0.531   3.513 -0.5271  0.0807  0.8498
 6544TIP3   OH241046   1.617   2.795   4.206  0.0243 -0.5067  0.0775
 6544TIP3    H141047   1.655   2.768   4.290  2.0082  0.1818 -0.5491
 6544TIP3    H241048   1.665   2.744   4.141 -1.0444 -0.5482 -0.6951
 6545TIP3   OH241049   2.821   1.844  11.603  0.2261  0.3955 -0.0467
 6545TIP3    H141050   2.823   1.748  11.603 -0.3206  0.3704 -1.0822
 6545TIP3    H241051   2.772   1.867  11.524 -1.4905  1.4979  1.2635
 6546TIP3   OH241052   1.172   1.213  13.052 -0.3475 -0.4975  0.1559
 6546TIP3    H141053   1.110   1.173  12.990 -1.1738  1.0511 -0.0613
 6546TIP3    H241054   1.173   1.153  13.126 -0.4414 -1.6609 -0.7413
 6547TIP3   OH241055   1.361   6.234   1.229  0.0556 -0.2639  0.3583
 6547TIP3    H141056   1.298   6.253   1.298  0.3035  1.2227  0.2207
 6547TIP3    H241057   1.383   6.142   1.241 -3.1685 -1.2442 -0.4660
 6548TIP3   OH241058   5.899   4.808  10.587  1.2716 -0.0607 -0.0276
 6548TIP3    H141059   5.860   4.750  10.522 -0.0142 -1.9467  2.2709
 6548TIP3    H241060   5.828   4.865  10.614  1.2312 -0.6411  1.1319
 6549TIP3   OH241061   5.982   5.082  14.576  0.0013  0.5229  0.4747
 6549TIP3    H141062   5.939   5.009  14.621 -0.9056 -0.1318 -1.3632
 6549TIP3    H241063   6.068   5.088  14.618 -0.1901 -1.1057  1.1803
 6550TIP3   OH241064   2.803   3.250   0.172 -0.2829  0.1995  0.7668
 6550TIP3    H141065   2.747   3.327   0.167  0.2277  0.5273 -0.0056
 6550TIP3    H241066   2.743   3.176   0.157 -0.6128  0.4962  0.6102
 6551TIP3   OH241067   5.308   1.653   5.816 -0.1822 -0.5469  0.1444
 6551TIP3    H141068   5.316   1.684   5.906 -0.4400 -0.8295  0.2681
 6551TIP3    H241069   5.307   1.558   5.823  2.6273 -0.6888 -0.4062
 6552TIP3   OH241070   6.366   0.228   1.016 -0.1961  0.0860  0.1900
 6552TIP3    H141071   6.445   0.275   1.043 -0.5221  1.4535 -1.1076
 6552TIP3    H241072   6.296   0.267   1.068 -0.2092 -0.2227  0.4053
 6553TIP3   OH241073   2.854   3.177   1.715  0.5128 -0.8381  0.2984
 6553TIP3    H141074   2.758   3.175   1.722  0.4320 -0.5654 -0.5102
 6553TIP3    H241075   2.884   3.212   1.798 -0.1210 -0.5563  0.4164
 6554TIP3   OH241076   6.434   0.501  14.654 -0.1114  0.7268  0.0738
 6554TIP3    H141077   6.347   0.461  14.653  0.4517 -0.7588  2.2712
 6554TIP3    H241078   6.417   0.595  14.658 -1.6275  0.4661  0.2738
 6555TIP3   OH241079   4.574   3.532  15.290 -0.1553 -0.1086  0.0717
 6555TIP3    H141080   4.624   3.528  15.372 -1.0374  0.2076  0.6396
 6555TIP3    H241081   4.484   3.549  15.318 -0.6517 -1.0330 -0.9131
 6556TIP3   OH241082   3.607   5.243   0.005 -0.5587 -0.2044 -0.3901
 6556TIP3    H141083   3.646   5.327  -0.020 -0.0076  0.5054  2.5463
 6556TIP3    H241084   3.519   5.266   0.035 -0.1319 -0.5123  1.1772
 6557TIP3   OH241085   4.268   5.282   5.191  0.7033 -0.1777 -0.5439
 6557TIP3    H141086   4.345   5.332   5.162 -0.9800  1.9186 -1.7212
 6557TIP3    H241087   4.216   5.345   5.241 -0.7021 -1.2426 -0.6028
 6558TIP3   OH241088   5.836   2.825  14.163  0.0386  0.2780  0.1042
 6558TIP3    H141089   5.917   2.875  14.148 -0.0154  0.4949  0.5329
 6558TIP3    H241090   5.820   2.781  14.080  2.0437 -1.8743  0.7336
 6559TIP3   OH241091   4.464   0.454  11.382 -0.1695  0.2797 -0.1229
 6559TIP3    H141092   4.536   0.404  11.344 -1.0834 -2.0943  1.0333
 6559TIP3    H241093   4.400   0.463  11.311  0.1294  0.0631 -0.4221
 6560TIP3   OH241094   5.592   6.733   3.381  0.3944  0.1633 -0.1125
 6560TIP3    H141095   5.648   6.806   3.406 -1.4825  2.3854 -1.9230
 6560TIP3    H241096   5.515   6.741   3.438  0.4416 -0.8227  0.1107
 6561TIP3   OH241097   4.175   1.385   0.991  0.3111  0.1453 -0.1871
 6561TIP3    H141098   4.233   1.336   0.933  0.3752  0.6786 -0.5809
 6561TIP3    H241099   4.212   1.373   1.078  1.4063  1.0422 -0.5139
 6562TIP3   OH241100   6.319   0.677  11.207 -0.2813  0.2474 -0.2512
 6562TIP3    H141101   6.262   0.725  11.268 -0.7532 -1.4606  0.7130
 6562TIP3    H241102   6.269   0.674  11.125 -1.0178 -0.0994  0.2019
 6563TIP3   OH241103   1.490   4.655  15.956 -0.2930 -0.0311 -0.0721
 6563TIP3    H141104   1.405   4.687  15.987  0.0481 -0.3342  1.2441
 6563TIP3    H241105   1.551   4.677  16.027  0.8160  0.5727 -1.1754
 6564TIP3   OH241106   1.626   6.125   3.171 -0.0461  0.1058  0.8157
 6564TIP3    H141107   1.595   6.049   3.122 -0.9421  0.6115  0.5792
 6564TIP3    H241108   1.703   6.093   3.219  0.9859 -0.3496 -1.0572
 6565TIP3   OH241109   4.208   0.080   5.963 -0.2642  0.1725 -0.5886
 6565TIP3    H141110   4.126   0.033   5.949 -1.8275  2.7635 -0.7710
 6565TIP3    H241111   4.205   0.107   6.055 -0.5031  1.7853 -1.0382
 6566TIP3   OH241112   1.653   0.892   0.476  0.2799  0.4526  0.2700
 6566TIP3    H141113   1.743   0.911   0.449  0.2714  0.9336  0.5818
 6566TIP3    H241114   1.600   0.914   0.399  0.2652  1.7448  0.6376
 6567TIP3   OH241115   2.356   4.668   5.842  0.3582  0.5794  0.4326
 6567TIP3    H141116   2.367   4.573   5.834 -0.5329  0.4837  0.2841
 6567TIP3    H241117   2.357   4.684   5.936 -0.5374  0.2886  0.4957
 6568TIP3   OH241118   1.533   0.773  11.198  1.0922  0.3688  0.2519
 6568TIP3    H141119   1.585   0.774  11.118  0.3807  1.5758 -0.2271
 6568TIP3    H241120   1.556   0.854  11.243  0.0630  0.6451  0.3067
 6569TIP3   OH241121   0.709   1.414   2.920 -0.2288 -0.9945 -0.3412
 6569TIP3    H141122   0.679   1.327   2.893 -0.1035 -0.4051 -2.6250
 6569TIP3    H241123   0.632   1.470   2.912  0.5602 -0.1032 -3.2016
 6570TIP3   OH241124   2.201   1.973   4.618 -0.0762 -0.7564 -0.0764
 6570TIP3    H141125   2.149   2.027   4.557  1.4068  1.6458  0.6376
 6570TIP3    H241126   2.143   1.960   4.693  0.3029  2.1014  0.8255
 6571TIP3   OH241127   2.811   1.629  12.839  0.3642 -0.3927  0.4165
 6571TIP3    H141128   2.887   1.686  12.845  0.6318 -0.8785  1.9798
 6571TIP3    H241129   2.736   1.686  12.859 -0.2292  0.9253 -4.2896
 6572TIP3   OH241130   6.734   0.373  12.355 -0.1988  0.1497 -0.3991
 6572TIP3    H141131   6.790   0.333  12.289  0.1489  1.4014 -0.9048
 6572TIP3    H241132   6.768   0.341  12.438  1.5019  1.1108 -0.6773
 6573TIP3   OH241133   5.322   4.025   1.285  0.1170  0.3414 -0.0435
 6573TIP3    H141134   5.333   3.947   1.231  0.5955 -0.2748  0.9005
 6573TIP3    H241135   5.382   4.090   1.247  1.8201 -0.6616  0.7676
 6574TIP3   OH241136   2.697   2.356   4.595 -0.1854 -0.1016 -0.5643
 6574TIP3    H141137   2.789   2.370   4.572  0.1824  3.4769  2.2586
 6574TIP3    H241138   2.649   2.417   4.539 -0.8279 -1.3235 -1.4015
 6575TIP3   OH241139   2.511   3.427  13.241 -0.3094  0.3527 -0.4813
 6575TIP3    H141140   2.453   3.366  13.287 -0.9379  1.8752  0.8346
 6575TIP3    H241141   2.504   3.402  13.149  1.7747 -3.4838  0.1842
 6576TIP3   OH241142   6.064   5.184   2.662 -0.5758 -0.3935  0.1045
 6576TIP3    H141143   6.069   5.272   2.624  3.0792 -0.8110 -0.7564
 6576TIP3    H241144   6.047   5.199   2.755 -0.0350  1.2119 -0.0270
 6577TIP3   OH241145   2.982   0.138   6.307  0.0395  0.3831 -0.5911
 6577TIP3    H141146   3.040   0.106   6.377  0.2703  1.1627 -0.4167
 6577TIP3    H241147   2.915   0.188   6.353 -1.0352 -0.8771 -0.7602
 6578TIP3   OH241148   5.815   2.796  15.516 -0.5791 -0.1678 -0.1013
 6578TIP3    H141149   5.823   2.709  15.477 -0.7338 -1.2947  2.2382
 6578TIP3    H241150   5.880   2.849  15.470 -0.0579 -1.6531 -1.1515
 6579TIP3   OH241151   2.707   4.645  16.652 -0.4456  0.2549 -0.3404
 6579TIP3    H141152   2.630   4.702  16.643 -1.4972 -1.2220 -0.9387
 6579TIP3    H241153   2.674   4.566  16.694  0.7899 -0.3717 -0.5037
 6580TIP3   OH241154   2.620   2.801  14.738  0.6972 -0.0361 -0.3173
 6580TIP3    H141155   2.668   2.766  14.663  0.7792  0.3775 -0.4621
 6580TIP3    H241156   2.531   2.765  14.728  0.7823 -0.2114 -0.4536
 6581TIP3   OH241157   0.118   0.783   0.278  0.1928  0.1172  0.5258
 6581TIP3    H141158   0.044   0.821   0.325  0.3265  0.3181  0.5735
 6581TIP3    H241159   0.116   0.825   0.192  1.1339  1.2291  1.0276
 6582TIP3   OH241160   2.700   1.971   4.492  0.0954  0.5796  0.6162
 6582TIP3    H141161   2.609   1.943   4.502 -0.2152  1.5105  0.4735
 6582TIP3    H241162   2.695   2.050   4.440  1.0967 -0.0481 -0.4870
 6583TIP3   OH241163   2.207   3.427   2.938  0.3080 -0.1064 -0.2763
 6583TIP3    H141164   2.284   3.435   2.882  0.9464 -2.4026  0.1899
 6583TIP3    H241165   2.179   3.336   2.929 -2.2566  0.5841 -0.2519
 6584TIP3   OH241166   5.637   0.308   1.106  0.0655  0.0459  0.1596
 6584TIP3    H141167   5.676   0.360   1.036 -0.8477  0.2833 -0.1956
 6584TIP3    H241168   5.678   0.222   1.098  0.0531  0.1019 -0.6130
 6585TIP3   OH241169   2.516   4.638   5.467 -0.3706 -0.1001 -0.0357
 6585TIP3    H141170   2.512   4.567   5.532  0.6519 -0.3487 -0.2233
 6585TIP3    H241171   2.480   4.599   5.388  0.3385 -0.4829 -0.1829
 6586TIP3   OH241172   3.919   4.864  10.938  0.9656  0.0392 -0.5992
 6586TIP3    H141173   3.900   4.921  10.864 -2.0425 -2.1273 -1.6915
 6586TIP3    H241174   3.981   4.800  10.903 -0.3699 -0.9180 -1.2866
 6587TIP3   OH241175   2.829   1.566  11.612 -0.1948 -0.2660  0.4929
 6587TIP3    H141176   2.734   1.568  11.622 -0.1803  0.2534  0.5624
 6587TIP3    H241177   2.855   1.480  11.646 -0.8983 -1.5732 -1.9999
 6588TIP3   OH241178   5.146   4.187   3.266  0.4405 -0.0910  0.5193
 6588TIP3    H141179   5.054   4.161   3.273  0.3215  0.4876  1.1938
 6588TIP3    H241180   5.168   4.222   3.352  0.9713  0.7960  0.0375
 6589TIP3   OH241181   1.887   6.246  12.168 -0.1827 -0.1655  0.3280
 6589TIP3    H141182   1.850   6.161  12.146 -0.8304  0.1285  0.2410
 6589TIP3    H241183   1.981   6.233  12.167 -0.2894 -1.0117  0.8620
 6590TIP3   OH241184   0.999   2.428  13.768 -0.1329 -0.2553 -0.0883
 6590TIP3    H141185   1.041   2.429  13.854  0.7275  0.3593 -0.5065
 6590TIP3    H241186   0.957   2.514  13.760 -2.0578 -1.0926  0.5915
 6591TIP3   OH241187   0.330   5.729   0.048  0.6025  0.2638  0.7934
 6591TIP3    H141188   0.312   5.649   0.098  1.6442  1.5297  3.4331
 6591TIP3    H241189   0.397   5.703  -0.015 -1.4288 -1.6342 -0.7547
 6592TIP3   OH241190   3.293   2.723  10.987 -0.0440 -0.9130 -0.2570
 6592TIP3    H141191   3.241   2.739  11.065  1.0086  2.0430 -0.0552
 6592TIP3    H241192   3.340   2.641  11.005 -2.0078 -1.8440  0.9179
 6593TIP3   OH241193   4.912   4.042  13.536  0.2163 -0.3195 -0.2816
 6593TIP3    H141194   4.839   4.102  13.552  0.3183 -0.1926 -0.2866
 6593TIP3    H241195   4.989   4.093  13.559  0.3760 -0.1179 -1.2071
 6594TIP3   OH241196   0.995   2.353   0.812  0.0778  0.6653  0.1182
 6594TIP3    H141197   0.969   2.426   0.756  0.4143  1.2416  0.6868
 6594TIP3    H241198   1.082   2.377   0.843  0.3845 -0.2064 -0.0545
 6595TIP3   OH241199   0.350   5.917  11.581 -0.0575  0.3308 -0.5212
 6595TIP3    H141200   0.409   5.990  11.566  0.5000  0.0084  0.0661
 6595TIP3    H241201   0.322   5.927  11.672  2.0930 -1.6325  0.4487
 6596TIP3   OH241202   5.488   0.684  11.028  0.2279  0.1062  0.0658
 6596TIP3    H141203   5.572   0.729  11.024 -0.4196  1.3115 -0.4761
 6596TIP3    H241204   5.493   0.619  10.958  0.7989 -0.0047  0.2034
 6597TIP3   OH241205   6.511   0.242   4.504  0.0460 -0.6400 -0.1091
 6597TIP3    H141206   6.544   0.157   4.533 -0.3697 -0.8652 -0.2839
 6597TIP3    H241207   6.496   0.290   4.586  0.1774 -0.7777 -0.0040
 6598TIP3   OH241208   2.378   6.119  17.000  0.4319 -0.2955  0.0279
 6598TIP3    H141209   2.340   6.135  16.913 -1.5120 -1.1247  0.6537
 6598TIP3    H241210   2.413   6.203  17.027  0.8133  0.0388 -1.4516
 6599TIP3   OH241211   6.196   6.606   6.408 -0.3759 -0.0239  0.1478
 6599TIP3    H141212   6.181   6.688   6.360 -1.3128 -0.7435 -0.8241
 6599TIP3    H241213   6.109   6.569   6.421 -0.0375 -0.3925  1.4485
 6600TIP3   OH241214   1.612   4.732   0.505 -0.0587  0.3883  0.6033
 6600TIP3    H141215   1.675   4.801   0.482 -1.4689  1.1442 -1.1994
 6600TIP3    H241216   1.551   4.775   0.564 -1.1420  0.8560 -0.7962
 6601TIP3   OH241217   5.756   1.209   6.100  0.1025  0.1100  0.8711
 6601TIP3    H141218   5.830   1.185   6.043  0.5862 -0.3641  1.6861
 6601TIP3    H241219   5.796   1.264   6.168  0.0202 -1.4218  2.2237
 6602TIP3   OH241220   0.886   5.569  14.230  0.1947  0.2310  0.5503
 6602TIP3    H141221   0.960   5.509  14.230  0.3827  0.4076 -0.9396
 6602TIP3    H241222   0.846   5.559  14.316  2.1190  0.3542  1.5255
 6603TIP3   OH241223   5.406   2.263   2.010  0.1873 -0.3844 -0.1622
 6603TIP3    H141224   5.397   2.358   2.004  1.1212 -0.3177 -0.6881
 6603TIP3    H241225   5.316   2.230   2.007 -0.1367  0.4649 -0.1529
 6604TIP3   OH241226   3.611   0.629  10.878 -0.1845 -1.0034  0.9607
 6604TIP3    H141227   3.607   0.665  10.966  1.2687  0.8356  0.3410
 6604TIP3    H241228   3.604   0.704  10.820  2.6541 -1.6362 -0.4047
 6605TIP3   OH241229   3.503   4.336  16.134  0.0335 -0.0142  0.1261
 6605TIP3    H141230   3.517   4.261  16.076  1.6037 -0.7031  1.3101
 6605TIP3    H241231   3.570   4.400  16.108  1.9640 -1.0363  2.2000
 6606TIP3   OH241232   6.391   6.236   4.289  0.0004 -0.3146 -0.5814
 6606TIP3    H141233   6.318   6.261   4.232 -1.5986 -2.0757  0.6014
 6606TIP3    H241234   6.362   6.258   4.377  0.2502 -2.3451  0.0656
 6607TIP3   OH241235   0.983   1.371  14.136 -0.4720 -0.6984  0.4675
 6607TIP3    H141236   0.920   1.390  14.067 -0.1843 -0.9725  0.1290
 6607TIP3    H241237   1.051   1.319  14.094 -0.5429 -1.2913  1.0707
 6608TIP3   OH241238   1.716   3.091   0.015 -0.0122 -0.2848 -0.3446
 6608TIP3    H141239   1.631   3.114  -0.021  0.7035  0.0156 -1.9061
 6608TIP3    H241240   1.728   3.150   0.089 -0.0901  1.3843 -1.6280
 6609TIP3   OH241241   5.599   5.402  16.521 -0.7444  0.2709  0.1688
 6609TIP3    H141242   5.517   5.443  16.494 -0.4280  0.7495 -0.0927
 6609TIP3    H241243   5.573   5.327  16.575 -1.3552  0.2065 -0.2100
 6610TIP3   OH241244   6.366   4.899  15.840  0.3103 -1.0370 -0.6472
 6610TIP3    H141245   6.453   4.894  15.880  0.2132 -0.8566 -0.4082
 6610TIP3    H241246   6.326   4.975  15.881 -0.4788 -1.9242  0.2832
 6611TIP3   OH241247   2.628   2.564  12.482  0.3080 -0.1114 -0.1903
 6611TIP3    H141248   2.603   2.477  12.513  0.4582  0.3258  1.2163
 6611TIP3    H241249   2.662   2.549  12.394  0.1462 -1.4418 -0.0481
 6612TIP3   OH241250   5.696   4.949  15.027  0.1499  0.2574  0.7201
 6612TIP3    H141251   5.658   4.888  14.963 -2.5223  1.6197  0.8461
 6612TIP3    H241252   5.684   4.906  15.112  1.5765 -0.5393  0.5499
 6613TIP3   OH241253   4.056   5.526   4.811  0.4619 -0.1803 -0.2916
 6613TIP3    H141254   4.090   5.570   4.888  0.9447 -1.0237 -0.0082
 6613TIP3    H241255   4.129   5.527   4.748  0.3246 -0.1767 -0.4526
 6614TIP3   OH241256   1.989   2.291   1.394 -0.0845  0.0949 -0.4815
 6614TIP3    H141257   2.072   2.338   1.404 -0.9701  1.5988  0.1273
 6614TIP3    H241258   2.009   2.219   1.334  1.9386 -0.3061  0.5899
 6615TIP3   OH241259   2.185   0.337  12.152  0.5005  0.2839 -0.4574
 6615TIP3    H141260   2.260   0.369  12.203  0.4292  0.8426 -0.6970
 6615TIP3    H241261   2.114   0.333  12.215  0.8750 -0.8461 -0.0828
 6616TIP3   OH241262   6.755   5.153  16.600 -0.2861  0.1600 -0.2596
 6616TIP3    H141263   6.681   5.113  16.646 -0.7317  0.1375 -0.9808
 6616TIP3    H241264   6.736   5.139  16.507  0.6940  0.0276 -0.4523
 6617TIP3   OH241265   4.605   5.770   1.408  0.1667 -0.4393 -0.2804
 6617TIP3    H141266   4.615   5.816   1.325 -1.0580  2.6949  1.1604
 6617TIP3    H241267   4.695   5.760   1.440  0.4922  0.8477 -0.7399
 6618TIP3   OH241268   1.930   6.109  15.259 -0.0662  0.1653  0.4424
 6618TIP3    H141269   1.995   6.178  15.248 -1.1288  0.9596 -1.1952
 6618TIP3    H241270   1.976   6.041  15.309  2.2052  0.4718 -1.0675
 6619TIP3   OH241271   3.271   5.355  14.603 -0.0206  0.1064  0.1742
 6619TIP3    H141272   3.224   5.299  14.540 -1.5639  0.8808  0.5760
 6619TIP3    H241273   3.260   5.311  14.687  0.6276 -0.0866  0.1606
 6620TIP3   OH241274   1.152   5.258   3.710  0.2378 -0.0245 -0.1161
 6620TIP3    H141275   1.123   5.218   3.792  0.9661 -1.5905 -0.5836
 6620TIP3    H241276   1.071   5.285   3.667 -0.3876 -1.7760 -0.1327
 6621TIP3   OH241277   1.785   6.277  17.194 -0.0577  0.4132 -0.6356
 6621TIP3    H141278   1.820   6.327  17.268  1.1277 -1.2002 -0.0357
 6621TIP3    H241279   1.690   6.285  17.202  0.0407  0.4074  1.0045
 6622TIP3   OH241280   4.330   4.837   0.104  0.0750 -0.7961  0.1115
 6622TIP3    H141281   4.266   4.858   0.172 -0.8269 -1.7298 -0.4232
 6622TIP3    H241282   4.281   4.845   0.022  0.8330 -0.8596 -0.3590
 6623TIP3   OH241283   6.323   3.846  15.879 -0.1683  0.2455  0.2191
 6623TIP3    H141284   6.399   3.807  15.836 -0.3183  0.4127 -0.2093
 6623TIP3    H241285   6.317   3.801  15.963 -0.9439 -1.3848 -0.6619
 6624TIP3   OH241286   5.361   4.457  11.119  0.0007 -0.1590  0.5451
 6624TIP3    H141287   5.328   4.402  11.190  1.7463 -1.5155  0.3581
 6624TIP3    H241288   5.455   4.465  11.136  0.6116 -1.1327 -1.9901
 6625TIP3   OH241289   0.750   3.586   6.162 -0.1716  0.0878  0.0486
 6625TIP3    H141290   0.838   3.553   6.181 -0.2047 -0.1056 -0.1303
 6625TIP3    H241291   0.745   3.669   6.210  0.7437  0.9974 -1.3536
 6626TIP3   OH241292   0.651   5.084   5.493 -0.0269 -0.0574  0.0099
 6626TIP3    H141293   0.649   5.104   5.399  1.0183  0.5525  0.1013
 6626TIP3    H241294   0.704   5.005   5.500  0.1567  0.0737  0.1098
 6627TIP3   OH241295   4.856   2.275  11.923 -0.2198 -0.4560  0.0321
 6627TIP3    H141296   4.913   2.350  11.904 -0.0713 -0.2681  1.1390
 6627TIP3    H241297   4.916   2.201  11.926 -0.0358 -0.2856  1.0146
 6628TIP3   OH241298   0.590   4.328   0.598  0.1706 -0.0784 -0.2388
 6628TIP3    H141299   0.538   4.332   0.518  2.1592  0.1383 -1.5843
 6628TIP3    H241300   0.634   4.413   0.602  0.7772 -0.4132  0.5919
 6629TIP3   OH241301   0.638   4.449  16.706  0.0504 -0.3596 -0.2022
 6629TIP3    H141302   0.604   4.525  16.753 -0.9877 -1.0407  0.1993
 6629TIP3    H241303   0.677   4.394  16.774 -0.7954 -1.0002 -0.2032
 6630TIP3   OH241304   2.042   6.757   5.077  0.2360 -0.3666  0.1078
 6630TIP3    H141305   1.997   6.822   5.131  0.8638 -0.5739  0.8961
 6630TIP3    H241306   2.022   6.783   4.987  1.8174  1.9676  0.3222
 6631TIP3   OH241307   4.342   2.207  13.700 -0.2779 -0.5206  0.0922
 6631TIP3    H141308   4.350   2.266  13.775 -0.8586  0.0457 -0.2879
 6631TIP3    H241309   4.272   2.245  13.647  1.0592 -0.1309 -1.4510
 6632TIP3   OH241310   2.718   1.697   3.300 -0.4674  0.5366  0.2727
 6632TIP3    H141311   2.709   1.652   3.384 -3.4059  1.2826  0.4936
 6632TIP3    H241312   2.806   1.736   3.303  0.4048 -1.3787  1.9607
 6633TIP3   OH241313   3.494   1.353  13.578  0.5440  0.2918 -0.4285
 6633TIP3    H141314   3.461   1.269  13.550 -0.1229  0.2408  0.4634
 6633TIP3    H241315   3.504   1.344  13.673 -0.1254  1.4071 -0.2353
 6634TIP3   OH241316   2.758   0.153   5.391 -0.4543 -0.2013 -0.0205
 6634TIP3    H141317   2.671   0.114   5.392  0.0057 -1.5073 -2.5683
 6634TIP3    H241318   2.745   0.242   5.360 -1.1010  0.5685  2.2449
 6635TIP3   OH241319   1.315   5.023   5.043 -0.1888  0.1215 -0.2776
 6635TIP3    H141320   1.230   5.041   5.083 -0.2352  0.1088 -0.3689
 6635TIP3    H241321   1.314   4.929   5.027  0.5367 -0.1715  1.2982
 6636TIP3   OH241322   2.921   2.256  12.440  0.4072  0.4125  0.5940
 6636TIP3    H141323   2.960   2.169  12.447  0.9681  0.7924  2.6644
 6636TIP3    H241324   2.841   2.251  12.492 -0.3894  0.7158 -0.5671
 6637TIP3   OH241325   6.044   0.015   4.268  0.2146  0.0840  0.1908
 6637TIP3    H141326   6.115   0.049   4.323  0.4005  0.0486 -0.0277
 6637TIP3    H241327   6.088  -0.033   4.198 -0.0481 -2.8107  1.8496
 6638TIP3   OH241328   0.677   3.258  11.532  0.4207 -0.1094  0.0192
 6638TIP3    H141329   0.649   3.253  11.441  1.1703 -1.9637 -0.1435
 6638TIP3    H241330   0.635   3.338  11.565 -1.9689 -0.7665 -1.2208
 6639TIP3   OH241331   5.000   3.338   0.288 -0.5839  0.2821 -0.6234
 6639TIP3    H141332   4.908   3.339   0.262 -1.3717  0.0931  1.9121
 6639TIP3    H241333   5.024   3.246   0.290 -1.0266  0.1842  0.8478
 6640TIP3   OH241334   0.099   0.796  11.268 -0.1572  0.4676 -0.5462
 6640TIP3    H141335   0.108   0.710  11.227  1.0117  1.0296 -1.5467
 6640TIP3    H241336   0.148   0.790  11.350  1.0630  0.5349 -1.2389
 6641TIP3   OH241337   3.477   6.154   3.314 -0.5598  0.4042  0.0667
 6641TIP3    H141338   3.500   6.094   3.242 -2.4738  0.8043 -0.9494
 6641TIP3    H241339   3.473   6.240   3.272  0.3337  0.9823  1.1270
 6642TIP3   OH241340   0.617   3.325  16.677  0.1957 -0.5073  0.3117
 6642TIP3    H141341   0.635   3.368  16.760 -1.6447 -0.6666  0.8556
 6642TIP3    H241342   0.597   3.397  16.617  0.5284 -0.4364  0.2874
 6643TIP3   OH241343   3.845   1.020   1.877 -0.4073 -0.0956  0.8330
 6643TIP3    H141344   3.778   1.068   1.925 -1.5519 -1.7307  0.9434
 6643TIP3    H241345   3.874   0.952   1.937  1.2856  0.4644  0.7242
 6644TIP3   OH241346   0.908   3.896   4.581  0.0159  0.2734  0.2518
 6644TIP3    H141347   0.933   3.985   4.606 -0.3622  0.3446  0.3759
 6644TIP3    H241348   0.813   3.899   4.572 -0.0848 -0.3183  1.0273
 6645TIP3   OH241349   3.161   6.722  11.489  0.4065  0.1200  0.3348
 6645TIP3    H141350   3.125   6.805  11.461 -1.9785 -1.2169 -0.8653
 6645TIP3    H241351   3.170   6.671  11.409  0.7117 -1.1802  1.1607
 6646TIP3   OH241352   6.242   0.159  11.994 -0.4907  0.7908 -0.4867
 6646TIP3    H141353   6.183   0.212  11.940 -0.0943 -0.5951 -2.4149
 6646TIP3    H241354   6.317   0.216  12.011 -1.4991  1.9169  0.3289
 6647TIP3   OH241355   1.797   0.020  12.250  0.0935  0.5449  0.2404
 6647TIP3    H141356   1.818  -0.028  12.170  1.5117 -0.6760  1.2708
 6647TIP3    H241357   1.753   0.099  12.220 -1.5654 -0.9651 -1.5950
 6648TIP3   OH241358   4.750   0.078   0.417  1.0330 -0.3327  0.1166
 6648TIP3    H141359   4.780   0.161   0.455  0.4702  0.6566 -1.4681
 6648TIP3    H241360   4.655   0.077   0.434  1.0777 -0.7870  0.3570
 6649TIP3   OH241361   1.411   5.051   4.683 -0.1331 -0.3317  0.7277
 6649TIP3    H141362   1.476   4.982   4.695  0.3904  0.4698  2.8935
 6649TIP3    H241363   1.450   5.128   4.723 -0.9166  1.1457 -1.2100
 6650TIP3   OH241364   3.492   1.620  13.224 -0.6415  0.2161 -0.2471
 6650TIP3    H141365   3.460   1.648  13.310  0.7249  1.1648 -0.0167
 6650TIP3    H241366   3.452   1.681  13.162 -0.5285  0.4069 -0.1325
 6651TIP3   OH241367   1.473   1.673   1.487  0.4551  0.6405  0.2309
 6651TIP3    H141368   1.427   1.720   1.417  0.0007 -0.1280  0.0008
 6651TIP3    H241369   1.405   1.650   1.550  0.7500  0.7174  0.5838
 6652TIP3   OH241370   2.415   0.147   4.967 -0.9331  0.2372 -0.3852
 6652TIP3    H141371   2.380   0.214   5.026  2.3217  0.5069  1.4513
 6652TIP3    H241372   2.460   0.197   4.899 -0.0178 -0.0471 -0.0007
 6653TIP3   OH241373   1.302   4.661   0.462  0.0176 -0.0415 -0.5812
 6653TIP3    H141374   1.362   4.631   0.393  1.3879 -0.4092  0.7157
 6653TIP3    H241375   1.242   4.721   0.417  0.8838 -0.2431 -2.0810
 6654TIP3   OH241376   0.701   0.016   5.086  0.2661 -0.3082 -0.5775
 6654TIP3    H141377   0.625   0.004   5.028 -0.8207  1.4746  0.3965
 6654TIP3    H241378   0.705   0.111   5.101  0.5019 -0.6848  2.2245
 6655TIP3   OH241379   5.241   4.856  12.717 -0.1599  0.1073  0.1086
 6655TIP3    H141380   5.290   4.870  12.798  0.1209  0.6077 -0.1457
 6655TIP3    H241381   5.154   4.892  12.734 -0.2970 -0.3520  0.3986
 6656TIP3   OH241382   0.598   5.211  17.239 -0.4794 -0.0664 -0.1187
 6656TIP3    H141383   0.620   5.241  17.327  1.6320 -0.8978 -0.3034
 6656TIP3    H241384   0.638   5.277  17.181 -2.2203  0.7134 -0.5028
 6657TIP3   OH241385   4.668   1.291  16.418  0.1167  0.2675  0.2874
 6657TIP3    H141386   4.693   1.206  16.381 -0.4237 -0.1196  0.7890
 6657TIP3    H241387   4.715   1.296  16.501  1.0091  0.9554 -0.2440
 6658TIP3   OH241388   3.513   6.540  13.827  0.3748  0.0852 -0.0531
 6658TIP3    H141389   3.535   6.447  13.821  2.6178  0.5636 -0.2254
 6658TIP3    H241390   3.542   6.577  13.743 -1.8916  0.7254 -0.6258
 6659TIP3   OH241391   4.898   0.372  14.876 -0.2626 -0.3086 -0.1865
 6659TIP3    H141392   4.956   0.328  14.814  0.5054  0.5681 -0.1129
 6659TIP3    H241393   4.953   0.439  14.917 -1.1261  0.0348  0.4476
 6660TIP3   OH241394   6.548   2.055  12.980  0.5249  0.5663 -0.4879
 6660TIP3    H141395   6.623   2.003  13.010 -1.1518 -0.9450  1.3092
 6660TIP3    H241396   6.573   2.145  12.999  1.0224 -0.0670  2.2531
 6661TIP3   OH241397   3.437   6.037  14.968 -0.1790 -0.4155 -0.5859
 6661TIP3    H141398   3.388   6.034  15.050  0.1530  0.7335 -0.3309
 6661TIP3    H241399   3.378   5.998  14.903 -0.7228 -0.6841  0.0628
 6662TIP3   OH241400   2.671   6.704   6.301  0.3714 -0.4767 -0.4316
 6662TIP3    H141401   2.704   6.745   6.381  1.7464 -1.5133 -0.4235
 6662TIP3    H241402   2.653   6.777   6.242 -0.1665  0.2738  0.6255
 6663TIP3   OH241403   1.950   6.298   1.465  0.4468 -0.0736  0.2946
 6663TIP3    H141404   1.917   6.311   1.376 -0.1736  1.3190  0.6914
 6663TIP3    H241405   2.017   6.366   1.475  0.4569 -0.1741  0.9161
 6664TIP3   OH241406   4.371   5.557   3.049 -0.1188  0.3133  0.0130
 6664TIP3    H141407   4.317   5.534   2.973 -0.3738 -1.2605  0.6321
 6664TIP3    H241408   4.425   5.479   3.065  0.9990  1.1619  0.5630
 6665TIP3   OH241409   2.958   1.145  16.549 -0.0115 -0.0411  0.3538
 6665TIP3    H141410   2.991   1.191  16.626  0.8136 -0.6535  0.3933
 6665TIP3    H241411   3.036   1.103  16.512 -0.3665  0.3690 -0.9089
 6666TIP3   OH241412   2.711   1.148  16.677  0.3901  0.2940  0.5063
 6666TIP3    H141413   2.665   1.066  16.661  0.4088  0.0258  1.7466
 6666TIP3    H241414   2.796   1.137  16.633 -0.3363  0.4290 -0.9836
 6667TIP3   OH241415   0.412   2.562  17.385 -0.4635 -0.0338 -0.4304
 6667TIP3    H141416   0.365   2.630  17.434 -1.2753 -1.4920  0.9225
 6667TIP3    H241417   0.403   2.484  17.439  2.4856 -0.7027 -0.7577
 6668TIP3   OH241418   2.855   1.964  12.623  0.1398 -0.0919  0.0731
 6668TIP3    H141419   2.798   2.033  12.656  1.2857  1.4299 -0.9757
 6668TIP3    H241420   2.906   1.936  12.699 -2.3184 -1.9193  1.1779
 6669TIP3   OH241421   6.403   4.105   5.896  0.1892 -0.6976  0.0601
 6669TIP3    H141422   6.311   4.131   5.894 -0.4634 -2.8501 -0.9073
 6669TIP3    H241423   6.429   4.116   5.988 -1.2700 -0.7977  0.5121
 6670TIP3   OH241424   2.460   1.219   2.381 -0.1065 -0.0187 -0.2917
 6670TIP3    H141425   2.372   1.252   2.397  0.2168  0.2629  1.0623
 6670TIP3    H241426   2.474   1.153   2.449  0.3659 -0.7817 -1.1084
 6671TIP3   OH241427   0.910   1.626   4.283  0.0112 -0.6283  0.3310
 6671TIP3    H141428   0.820   1.650   4.304  0.2632  2.7985 -1.7434
 6671TIP3    H241429   0.964   1.691   4.328  1.3520 -1.5248  0.0793
 6672TIP3   OH241430   0.070   4.457   3.084 -0.6642 -0.4137 -0.2426
 6672TIP3    H141431   0.143   4.437   3.025  0.1090 -3.0288  1.4393
 6672TIP3    H241432   0.111   4.500   3.159 -1.2520  0.4526 -0.4077
 6673TIP3   OH241433   6.050   2.513  16.602  0.0190  0.3578 -0.3577
 6673TIP3    H141434   6.022   2.442  16.660 -2.0160  1.3466 -0.0348
 6673TIP3    H241435   6.046   2.591  16.658  1.3168  0.8642 -0.9500
 6674TIP3   OH241436   0.070   1.905   6.272 -0.5488 -0.0740  0.2764
 6674TIP3    H141437  -0.018   1.931   6.247 -0.8211 -0.9858  0.2521
 6674TIP3    H241438   0.059   1.818   6.310  0.3979 -0.3685 -0.1098
 6675TIP3   OH241439   5.764   1.755  15.888  1.1908  0.3045 -0.1484
 6675TIP3    H141440   5.755   1.738  15.794 -3.1045  2.4957 -0.3267
 6675TIP3    H241441   5.815   1.835  15.894 -0.8783  1.7369 -0.8837
 6676TIP3   OH241442   0.912   2.033   4.326 -0.1747 -0.2982  0.0336
 6676TIP3    H141443   0.847   2.099   4.303  0.5617  0.1269 -0.8833
 6676TIP3    H241444   0.995   2.069   4.294  0.1070 -2.1072 -1.4351
 6677TIP3   OH241445   3.855   2.375  15.159  0.5439  0.0356  0.0984
 6677TIP3    H141446   3.866   2.303  15.098 -2.3370  0.6888 -1.3603
 6677TIP3    H241447   3.867   2.335  15.245 -1.1300 -2.2740 -0.6481
 6678TIP3   OH241448   3.977   5.507  13.215  0.0433  0.1596  0.1794
 6678TIP3    H141449   3.942   5.511  13.304  0.4056 -0.7680  0.3736
 6678TIP3    H241450   4.030   5.586  13.206 -0.9384  0.8590  0.3726
 6679TIP3   OH241451   2.679   5.726   1.655  0.2874  0.0916  0.6646
 6679TIP3    H141452   2.711   5.812   1.684  1.6461 -0.5678  1.1985
 6679TIP3    H241453   2.749   5.691   1.601 -0.9050 -0.0620 -0.8421
 6680TIP3   OH241454   5.296   2.508  16.402 -0.1145 -0.0784 -0.1611
 6680TIP3    H141455   5.267   2.599  16.413 -0.6222 -0.4115  1.4782
 6680TIP3    H241456   5.392   2.513  16.404 -0.1495  0.3172  0.9640
 6681TIP3   OH241457   5.962   1.159   2.272  0.4877  0.4207  0.1607
 6681TIP3    H141458   6.035   1.139   2.212  1.7807  1.1105  1.4329
 6681TIP3    H241459   5.918   1.234   2.232  0.1282 -0.3175 -0.8836
 6682TIP3   OH241460   3.695   4.587  12.614 -0.0566 -0.8942  0.6229
 6682TIP3    H141461   3.787   4.602  12.591  0.0366 -0.9632  0.9401
 6682TIP3    H241462   3.659   4.675  12.626 -0.1347 -0.8551  0.1107
 6683TIP3   OH241463   4.240   3.387   2.596 -0.3629  0.1981  0.1297
 6683TIP3    H141464   4.284   3.446   2.658  0.7842  0.5713 -0.9866
 6683TIP3    H241465   4.153   3.425   2.585 -0.7500 -0.1197  1.8069
 6684TIP3   OH241466   3.988   0.726  15.118  0.4950  0.0058  0.4786
 6684TIP3    H141467   4.028   0.776  15.189  1.8619 -2.3899  1.4805
 6684TIP3    H241468   3.896   0.718  15.143  0.7365  0.0985  1.4240
 6685TIP3   OH241469   4.973   6.758  14.796 -0.1892  0.0654 -0.5047
 6685TIP3    H141470   4.918   6.774  14.872  1.6839  2.4775  0.4907
 6685TIP3    H241471   4.948   6.827  14.734  0.8302  0.4490 -0.5127
 6686TIP3   OH241472   4.035   1.576   1.997  0.2230 -0.0882  0.3335
 6686TIP3    H141473   3.969   1.640   1.971 -0.0569 -0.0545  1.1065
 6686TIP3    H241474   4.004   1.493   1.959 -0.8922 -0.3053  1.6300
 6687TIP3   OH241475   2.204   1.976   5.473 -0.0674  0.1599  0.0552
 6687TIP3    H141476   2.257   1.989   5.395 -0.6222 -1.2284 -0.5778
 6687TIP3    H241477   2.248   2.028   5.541  1.9830 -0.7503 -0.5003
 6688TIP3   OH241478   2.660   3.516   6.171 -1.0519 -0.5480 -0.1722
 6688TIP3    H141479   2.750   3.493   6.194 -1.1212  0.9376  1.8719
 6688TIP3    H241480   2.657   3.511   6.075  0.6699 -2.3766 -0.1704
 6689TIP3   OH241481   3.785   6.760   2.185  0.0529  0.3921 -0.0963
 6689TIP3    H141482   3.847   6.689   2.164 -0.8416 -0.3151 -0.4020
 6689TIP3    H241483   3.838   6.839   2.179  1.3299 -0.3031  1.2331
 6690TIP3   OH241484   4.859   2.710  16.532  0.6347  0.2200 -0.2253
 6690TIP3    H141485   4.853   2.643  16.463 -0.3748 -0.4721  0.5026
 6690TIP3    H241486   4.951   2.735  16.533  0.7653 -0.1429 -1.4682
 6691TIP3   OH241487   0.660   4.510  14.130 -0.0465  0.1614  0.6560
 6691TIP3    H141488   0.719   4.507  14.205  1.1040 -0.3491 -0.2229
 6691TIP3    H241489   0.658   4.602  14.104  0.1252  0.2307  0.8908
 6692TIP3   OH241490   4.647   1.547   2.688 -0.3114  0.5028 -0.4556
 6692TIP3    H141491   4.728   1.598   2.695 -0.2029  0.1980  0.7032
 6692TIP3    H241492   4.618   1.536   2.778 -1.2924  0.0280 -0.8152
 6693TIP3   OH241493   5.175   1.844   5.604  0.1846  0.2578  0.6695
 6693TIP3    H141494   5.184   1.748   5.608 -0.3103  0.2301  1.2090
 6693TIP3    H241495   5.117   1.859   5.529  0.0218  0.1184  0.7668
 6694TIP3   OH241496   4.472   0.830  10.952 -0.1055 -0.5805  0.0469
 6694TIP3    H141497   4.442   0.853  10.864 -0.9907  2.1073  0.9563
 6694TIP3    H241498   4.393   0.807  11.000 -0.2163  1.7676  1.1303
 6695TIP3   OH241499   3.713   3.106  16.422 -0.5364  0.3479  0.1637
 6695TIP3    H141500   3.731   3.190  16.465 -0.2516  0.4649 -0.1834
 6695TIP3    H241501   3.617   3.101  16.418 -0.6164 -0.2804  2.0244
 6696TIP3   OH241502   5.220   4.153  16.557  0.2082 -0.5379 -0.5669
 6696TIP3    H141503   5.280   4.101  16.503  1.0204  0.4014 -0.5901
 6696TIP3    H241504   5.133   4.120  16.534  0.5975 -0.7606 -1.8109
 6697TIP3   OH241505   6.039   6.751   3.840  1.0770  0.1091 -0.0436
 6697TIP3    H141506   6.046   6.818   3.772 -1.3655  0.5815  0.0591
 6697TIP3    H241507   5.972   6.691   3.807 -1.0517  0.9768  2.3223
 6698TIP3   OH241508   2.087   3.421  16.608 -0.2528  0.0116  0.5391
 6698TIP3    H141509   2.008   3.468  16.583 -0.1667 -0.7928 -1.4288
 6698TIP3    H241510   2.056   3.347  16.660 -0.6584  0.5408  1.0507
 6699TIP3   OH241511   1.561   3.834   0.295  0.3969  0.8374  0.5622
 6699TIP3    H141512   1.495   3.794   0.350  0.6353  2.5161  2.1882
 6699TIP3    H241513   1.535   3.926   0.290  2.1194  1.3662  0.5752
 6700TIP3   OH241514   4.341   3.076   2.578 -0.2001  0.0477  0.6437
 6700TIP3    H141515   4.390   3.127   2.514  2.0448 -1.9719  0.5717
 6700TIP3    H241516   4.356   3.122   2.661  1.6347 -0.3330  0.5643
 6701TIP3   OH241517   4.399   2.101   3.266  0.4863  0.2014  0.1229
 6701TIP3    H141518   4.323   2.157   3.247 -0.4466 -0.0109  2.7302
 6701TIP3    H241519   4.407   2.044   3.190 -0.5320  1.7328 -1.2085
 6702TIP3   OH241520   5.830   1.006  12.391  0.8783 -0.4659 -0.3994
 6702TIP3    H141521   5.822   1.088  12.342 -0.5036  1.6479  3.0008
 6702TIP3    H241522   5.924   0.996  12.405  1.2216 -0.6194 -2.5258
 6703TIP3   OH241523   2.007   2.166  14.714  0.2391 -0.4596 -0.4267
 6703TIP3    H141524   1.994   2.096  14.650 -0.3933  0.7588 -1.6881
 6703TIP3    H241525   2.057   2.233  14.666  0.4762  0.1361  0.6214
 6704TIP3   OH241526   1.491   2.355   3.712  0.0828  0.1592 -0.8203
 6704TIP3    H141527   1.561   2.356   3.778  0.0108  1.3876 -0.7240
 6704TIP3    H241528   1.413   2.381   3.761  0.0512  1.2002 -1.3989
 6705TIP3   OH241529   6.588   0.142  15.396 -0.2343  0.0206  0.0842
 6705TIP3    H141530   6.607   0.060  15.350  0.5466  0.3923 -0.2736
 6705TIP3    H241531   6.529   0.189  15.337 -0.6349 -0.2529  0.2621
 6706TIP3   OH241532   3.523   3.939  14.589 -0.2459  0.4919  0.0992
 6706TIP3    H141533   3.566   3.966  14.671 -1.0726 -1.0336  1.0958
 6706TIP3    H241534   3.453   4.003  14.578  1.2612  2.0849 -0.7116
 6707TIP3   OH241535   2.713   0.491  13.432  0.5742 -0.1026 -0.4872
 6707TIP3    H141536   2.677   0.545  13.361 -0.3143  1.2631  0.9355
 6707TIP3    H241537   2.642   0.486  13.496  1.7551 -0.2642  0.8644
 6708TIP3   OH241538   0.401   4.270  15.635  0.6587  0.6912 -0.5210
 6708TIP3    H141539   0.406   4.356  15.595 -2.1875  0.4958 -1.5411
 6708TIP3    H241540   0.354   4.284  15.718 -1.0932  0.0388 -1.3382
 6709TIP3   OH241541   5.256   5.580  16.754  0.4752  0.1909  0.0765
 6709TIP3    H141542   5.250   5.500  16.806  1.8067 -0.6243 -0.9476
 6709TIP3    H241543   5.166   5.602  16.733  0.1068 -1.4392 -0.1821
 6710TIP3   OH241544   3.550   6.223  11.584 -0.0960 -0.0289  0.2560
 6710TIP3    H141545   3.505   6.139  11.590 -1.9794  0.9228  0.2877
 6710TIP3    H241546   3.614   6.211  11.514  0.1466 -1.6734  0.7248
 6711TIP3   OH241547   6.675   4.700  17.087  0.1142 -0.1034 -0.0915
 6711TIP3    H141548   6.730   4.622  17.083  1.3084  0.5187  2.2411
 6711TIP3    H241549   6.736   4.774  17.084 -1.0562  0.9263 -3.6315
 6712TIP3   OH241550   2.947   3.843   6.651 -0.6584 -0.2466 -0.3843
 6712TIP3    H141551   2.906   3.906   6.711 -1.2263 -1.3943  0.4543
 6712TIP3    H241552   3.039   3.841   6.678 -0.7136 -0.0440 -0.1771
 6713TIP3   OH241553   4.704   1.623  12.377 -0.3100 -0.1122  0.4737
 6713TIP3    H141554   4.670   1.541  12.340 -0.3633  0.3711 -0.5885
 6713TIP3    H241555   4.740   1.670  12.302 -1.5280  1.4526  0.8198
 6714TIP3   OH241556   1.792   3.243  15.194  0.3076  0.4991 -0.1408
 6714TIP3    H141557   1.840   3.307  15.247  1.4269 -0.6657  0.3070
 6714TIP3    H241558   1.836   3.246  15.109  1.0715 -0.4119  0.2038
 6715TIP3   OH241559   5.466   5.093  11.280  0.2560  1.1130 -0.2903
 6715TIP3    H141560   5.477   5.004  11.312  1.1261  0.9997 -0.8854
 6715TIP3    H241561   5.554   5.123  11.260 -0.1439  1.6029 -1.4182
 6716TIP3   OH241562   6.302   3.653   1.383  0.2174 -0.3735 -0.6680
 6716TIP3    H141563   6.224   3.599   1.370  1.0744 -1.9286  0.3144
 6716TIP3    H241564   6.277   3.739   1.351 -2.1811 -0.5980  0.3794
 6717TIP3   OH241565   2.108   3.532  14.733 -0.0792 -0.1614 -0.0900
 6717TIP3    H141566   2.130   3.594  14.663 -2.6449  2.9747  1.5950
 6717TIP3    H241567   2.076   3.454  14.687 -0.7317  1.3860 -2.4294
 6718TIP3   OH241568   1.446   0.239  11.756 -0.2174  0.6679  0.3086
 6718TIP3    H141569   1.510   0.310  11.754  0.6510 -0.1042 -0.1454
 6718TIP3    H241570   1.445   0.210  11.847  0.5509  0.2777  0.1989
 6719TIP3   OH241571   0.295   5.412   5.603  0.3467 -0.2265 -0.0897
 6719TIP3    H141572   0.299   5.505   5.581  1.6717 -1.0402 -4.2149
 6719TIP3    H241573   0.360   5.400   5.672 -0.0447  1.8985  0.7208
 6720TIP3   OH241574   4.523   6.701   2.382 -0.0465  0.6457 -0.7362
 6720TIP3    H141575   4.508   6.786   2.422 -0.6103 -0.3010  1.1695
 6720TIP3    H241576   4.443   6.652   2.398  0.3781 -0.3593 -1.5359
 6721TIP3   OH241577   0.973   3.209  15.223  0.2897  0.0411 -0.4910
 6721TIP3    H141578   1.011   3.280  15.171 -3.0778  1.9073 -0.6870
 6721TIP3    H241579   0.973   3.242  15.313 -4.0254  1.9732 -0.9125
 6722TIP3   OH241580   0.119   4.178  12.435  1.0142 -0.1582  0.5434
 6722TIP3    H141581   0.025   4.160  12.432  0.7946  0.9132  0.8812
 6722TIP3    H241582   0.160   4.091  12.442  0.0587 -0.6277  0.4017
 6723TIP3   OH241583   6.250   5.942   2.267 -0.1932  0.1746 -0.3138
 6723TIP3    H141584   6.169   5.986   2.240 -0.5825  1.0434  2.0194
 6723TIP3    H241585   6.295   5.921   2.185 -1.4160  2.2614 -1.5991
 6724TIP3   OH241586   2.620   4.428  16.870  0.3273 -0.2786  0.2910
 6724TIP3    H141587   2.536   4.415  16.913 -0.1657  1.0400 -0.2468
 6724TIP3    H241588   2.679   4.367  16.914 -1.5148 -3.4641 -1.2753
 6725TIP3   OH241589   3.205   5.551  11.814  0.1150  0.3194 -0.5043
 6725TIP3    H141590   3.252   5.474  11.782  2.0960  0.6004  1.5027
 6725TIP3    H241591   3.114   5.522  11.822  0.8460 -1.9026  0.4068
 6726TIP3   OH241592   0.059   1.160  11.223  0.3864  0.0212  0.1693
 6726TIP3    H141593   0.076   1.239  11.172 -0.0717  2.0393  2.8655
 6726TIP3    H241594  -0.033   1.141  11.208  0.9583 -1.3008 -2.0477
 6727TIP3   OH241595   5.320   3.872   0.936 -0.3363  0.3359 -0.2059
 6727TIP3    H141596   5.252   3.871   1.003 -0.8631 -0.1705 -0.7387
 6727TIP3    H241597   5.340   3.780   0.920  1.2654  0.4888  0.7154
 6728TIP3   OH241598   5.363   1.157   1.363  0.1973  0.2619  0.5898
 6728TIP3    H141599   5.279   1.188   1.332  0.8492  1.0249 -0.4856
 6728TIP3    H241600   5.419   1.235   1.365  0.8850 -0.2245  1.2744
 6729TIP3   OH241601   0.881   0.594   1.933  0.0405 -0.3085  0.5426
 6729TIP3    H141602   0.947   0.549   1.986 -0.0248 -0.0054  0.8856
 6729TIP3    H241603   0.876   0.682   1.971  0.9993  0.3839 -0.8307
 6730TIP3   OH241604   2.474   6.604  17.116  0.3082  0.2315  0.0452
 6730TIP3    H141605   2.401   6.663  17.130 -0.3210  0.2600 -2.7692
 6730TIP3    H241606   2.544   6.637  17.173 -1.0147  1.7661  0.8335
 6731TIP3   OH241607   3.890   1.663   0.931  0.4331  0.2595 -0.8636
 6731TIP3    H141608   3.973   1.697   0.964 -0.0719  0.6475  0.0218
 6731TIP3    H241609   3.916   1.603   0.860  1.7975 -3.2054  2.2430
 6732TIP3   OH241610   3.818   1.321   0.024  0.7437 -0.0193  0.1629
 6732TIP3    H141611   3.910   1.322  -0.004  0.5624  2.4933 -0.5763
 6732TIP3    H241612   3.823   1.319   0.120  1.5654  0.0225  0.1298
 6733TIP3   OH241613   6.323   0.812   2.859 -0.1225  0.2900 -0.0388
 6733TIP3    H141614   6.356   0.802   2.770 -2.7838 -0.3178 -1.0380
 6733TIP3    H241615   6.315   0.907   2.871  1.8939  0.4774  0.2928
 6734TIP3   OH241616   5.084   6.121  12.360 -0.3124 -0.2906  0.3128
 6734TIP3    H141617   4.989   6.119  12.357 -0.3009 -1.1498  0.3393
 6734TIP3    H241618   5.105   6.191  12.422 -0.9334 -0.5638  0.8377
 6735TIP3   OH241619   1.959   3.757  16.673 -0.0680 -0.2623 -0.0613
 6735TIP3    H141620   1.904   3.825  16.712  1.0493  0.9922 -0.5782
 6735TIP3    H241621   1.995   3.710  16.749  0.0061  0.4416  0.3510
 6736TIP3   OH241622   1.170   1.047   1.387  0.0319  0.2849  0.0118
 6736TIP3    H141623   1.079   1.023   1.369 -0.0485 -0.1914  0.9902
 6736TIP3    H241624   1.211   1.054   1.301 -0.7228 -0.3209 -0.4013
 6737TIP3   OH241625   5.031   0.372  16.957  0.0094 -0.2552  0.4349
 6737TIP3    H141626   5.039   0.392  16.864 -0.6718 -1.5374  0.0691
 6737TIP3    H241627   5.059   0.281  16.965 -0.3486 -0.2979  1.4081
 6738TIP3   OH241628   2.678   3.872  13.347  0.1838  0.0628  0.1503
 6738TIP3    H141629   2.755   3.817  13.331 -0.4468 -0.7384 -0.2316
 6738TIP3    H241630   2.686   3.943  13.284  0.9995  0.4127  0.6304
 6739TIP3   OH241631   4.414   0.730   0.434 -0.6135  0.3668  0.1267
 6739TIP3    H141632   4.484   0.694   0.381 -1.8710 -0.8878 -0.7448
 6739TIP3    H241633   4.456   0.755   0.516  0.4589 -2.6159  0.5857
 6740TIP3   OH241634   6.116   2.487   0.318 -0.0781 -0.4145  0.0569
 6740TIP3    H141635   6.178   2.419   0.293 -0.4526 -0.0978 -1.9227
 6740TIP3    H241636   6.170   2.565   0.330 -0.0408 -0.0781 -1.9069
 6741TIP3   OH241637   3.625   5.747   4.299 -0.3848 -0.2664 -0.0477
 6741TIP3    H141638   3.595   5.760   4.389  1.2249 -2.0715  0.8151
 6741TIP3    H241639   3.571   5.676   4.265 -1.0117  0.4324 -0.5633
 6742TIP3   OH241640   0.940   3.170  15.968 -0.2829 -0.2268  0.2916
 6742TIP3    H141641   0.991   3.151  15.890 -1.7056  0.0135 -0.7348
 6742TIP3    H241642   0.995   3.141  16.041  0.1079 -2.7005 -0.8882
 6743TIP3   OH241643   3.204   0.853  17.000 -0.4878 -0.5594 -0.4977
 6743TIP3    H141644   3.134   0.790  16.982  0.1948 -2.2444  2.2276
 6743TIP3    H241645   3.184   0.888  17.086 -0.0368  1.9797 -1.3238
 6744TIP3   OH241646   4.570   1.150  12.326 -1.4686 -0.2312 -0.0275
 6744TIP3    H141647   4.492   1.179  12.373 -1.3730 -2.1317  1.4265
 6744TIP3    H241648   4.537   1.091  12.259 -1.4821  1.3368 -1.4512
 6745TIP3   OH241649   4.761   4.315   6.022 -0.0560 -0.0215  0.0057
 6745TIP3    H141650   4.807   4.241   5.983 -0.3027 -0.0395 -0.2513
 6745TIP3    H241651   4.831   4.373   6.053  0.1544 -0.8920  1.2380
 6746TIP3   OH241652   0.582   2.006  11.800  0.2396  0.2031  0.0128
 6746TIP3    H141653   0.614   2.085  11.756  0.4466 -0.3687 -0.8691
 6746TIP3    H241654   0.536   2.040  11.877  1.5570  1.1169  0.4411
 6747TIP3   OH241655   2.514   1.465   1.281  0.9066 -0.8602 -0.4949
 6747TIP3    H141656   2.589   1.523   1.266  0.2721  0.0791 -0.1257
 6747TIP3    H241657   2.480   1.491   1.366  0.7213 -1.9203 -0.2393
 6748TIP3   OH241658   5.220   2.474   0.098 -0.3649 -0.2040  0.3917
 6748TIP3    H141659   5.131   2.503   0.079 -0.2762  0.5028  1.0023
 6748TIP3    H241660   5.215   2.438   0.187 -0.1414 -0.6173  0.2417
 6749TIP3   OH241661   2.835   0.803   1.547 -0.2319 -0.4206  0.1948
 6749TIP3    H141662   2.740   0.813   1.553 -0.1752  0.1296  0.2839
 6749TIP3    H241663   2.869   0.891   1.565  0.1926 -0.0552 -2.0815
 6750TIP3   OH241664   1.732   2.564  13.207 -0.1069 -0.0374  0.1915
 6750TIP3    H141665   1.774   2.586  13.290 -0.6451  1.4497  0.0871
 6750TIP3    H241666   1.712   2.470  13.215  1.7156 -0.4230  0.8873
 6751TIP3   OH241667   5.182   4.544  14.869  0.0683  0.3804 -0.2502
 6751TIP3    H141668   5.161   4.471  14.928  1.1844  2.3157  2.7962
 6751TIP3    H241669   5.097   4.576  14.839 -0.5946 -0.2775  0.8566
 6752TIP3   OH241670   1.052   2.707   3.709  0.4913 -0.3799 -1.1112
 6752TIP3    H141671   0.998   2.648   3.762  1.4045 -1.7253 -1.6227
 6752TIP3    H241672   1.075   2.779   3.769 -0.8142 -0.4117 -0.5375
 6753TIP3   OH241673   4.512   0.384   1.602 -0.0904  0.3825  0.3721
 6753TIP3    H141674   4.593   0.432   1.587  0.6313 -0.3699  1.6968
 6753TIP3    H241675   4.487   0.406   1.692 -0.9143 -0.0469  0.2619
 6754TIP3   OH241676   3.873   0.105  15.196  0.0841  0.6620  0.1748
 6754TIP3    H141677   3.906   0.103  15.286  1.0158  1.1636 -0.1369
 6754TIP3    H241678   3.778   0.113  15.205  0.1867  0.8938  1.1148
 6755TIP3   OH241679   0.964   4.226  11.408 -0.4628 -0.2321 -0.4832
 6755TIP3    H141680   0.953   4.163  11.337  0.6411 -1.5829  0.4816
 6755TIP3    H241681   0.990   4.172  11.483 -2.4890  1.0058  1.2224
 6756TIP3   OH241682   1.555   4.742  16.218 -0.3611  0.2108 -0.2540
 6756TIP3    H141683   1.533   4.673  16.281 -0.9179  0.9643  0.4055
 6756TIP3    H241684   1.555   4.823  16.270 -0.5481  0.8152 -1.1674
 6757TIP3   OH241685   1.334   3.326   2.863 -0.4403 -0.4851 -0.2406
 6757TIP3    H141686   1.250   3.372   2.862 -1.2240 -1.7879 -1.9539
 6757TIP3    H241687   1.323   3.257   2.929 -0.0441  0.4334  0.8027
 6758TIP3   OH241688   3.954   1.767  14.062 -0.1089 -0.4317  0.0147
 6758TIP3    H141689   4.049   1.758  14.051  0.1674  0.9821  0.9368
 6758TIP3    H241690   3.934   1.852  14.024 -0.4507  0.7230  2.5784
 6759TIP3   OH241691   0.522   0.350   2.149  0.0199  0.1810  0.8614
 6759TIP3    H141692   0.545   0.443   2.157 -1.8918  1.0759 -2.2379
 6759TIP3    H241693   0.468   0.332   2.226 -0.3518  1.9249  1.0616
 6760TIP3   OH241694   1.593   1.867   5.343 -0.3417  0.5467  0.0232
 6760TIP3    H141695   1.660   1.809   5.379 -0.9891 -2.0015 -2.4655
 6760TIP3    H241696   1.622   1.955   5.365  3.0062 -0.5199  0.3896
 6761TIP3   OH241697   0.631   4.600  11.809 -0.7895 -0.6996 -0.0737
 6761TIP3    H141698   0.680   4.612  11.727 -0.7549 -0.1448  0.0222
 6761TIP3    H241699   0.543   4.632  11.789 -1.0452 -1.4356 -0.1636
 6762TIP3   OH241700   0.803   2.418  14.011 -0.8632  0.1284 -0.1121
 6762TIP3    H141701   0.867   2.481  14.044 -0.5603 -0.2639  0.0480
 6762TIP3    H241702   0.719   2.448  14.047 -0.3527 -1.2205  2.4334
 6763TIP3   OH241703   1.138   1.609   5.146 -0.0303 -0.2230  0.1612
 6763TIP3    H141704   1.183   1.525   5.130 -0.4677 -0.0016 -2.7916
 6763TIP3    H241705   1.206   1.675   5.133 -0.4603 -0.0149 -1.1724
 6764TIP3   OH241706   1.671   4.394   4.903  0.1413  0.8921  0.0586
 6764TIP3    H141707   1.591   4.382   4.853  0.1111  0.4311  0.2182
 6764TIP3    H241708   1.708   4.476   4.870 -1.0960  1.8372  0.9433
 6765TIP3   OH241709   2.266   0.777  15.020  0.1889 -0.3971 -0.2066
 6765TIP3    H141710   2.281   0.742  15.108 -0.8689 -2.2213 -0.6877
 6765TIP3    H241711   2.310   0.861  15.019  0.5391 -0.5132  1.9505
 6766TIP3   OH241712   1.725   6.216   3.772  0.2343  0.2150 -0.5916
 6766TIP3    H141713   1.758   6.145   3.826  2.3333  2.1272  0.8497
 6766TIP3    H241714   1.773   6.207   3.689 -1.0149 -1.1614 -1.2059
 6767TIP3   OH241715   1.537   5.257  17.252  0.5757 -0.0850  0.0051
 6767TIP3    H141716   1.533   5.350  17.229 -0.4605  0.2191  1.3389
 6767TIP3    H241717   1.578   5.254  17.338 -0.4039 -0.7599  0.4693
 6768TIP3   OH241718   6.318   2.759  12.702  0.2099  0.0765 -0.2143
 6768TIP3    H141719   6.273   2.678  12.727 -0.2289  0.4052  0.0732
 6768TIP3    H241720   6.251   2.809  12.655 -0.1748  1.1912  1.4454
 6769TIP3   OH241721   4.208   1.947  13.115  0.1540  0.2609  0.1709
 6769TIP3    H141722   4.199   1.884  13.187  0.2049  1.1519  0.9836
 6769TIP3    H241723   4.227   2.031  13.159 -1.2823  1.1417 -0.7877
 6770TIP3   OH241724   5.903   3.290  17.258  0.5672 -0.4620  0.2460
 6770TIP3    H141725   5.978   3.349  17.261 -0.0669  0.3352  0.7043
 6770TIP3    H241726   5.935   3.208  17.297  0.6502  0.5199  2.3479
 6771TIP3   OH241727   5.817   2.201   3.876  0.2830 -0.0036  0.2913
 6771TIP3    H141728   5.750   2.234   3.935  1.6559  2.0178  0.8151
 6771TIP3    H241729   5.771   2.188   3.793 -0.8236  1.0953  0.6968
 6772TIP3   OH241730   2.167   4.589  13.066 -0.6890  0.6284  0.1787
 6772TIP3    H141731   2.199   4.499  13.059  0.3663  1.0325 -0.3346
 6772TIP3    H241732   2.142   4.598  13.158 -0.9572 -0.2328  0.2045
 6773TIP3   OH241733   4.618   2.079  13.040 -0.8279 -0.0466  0.1319
 6773TIP3    H141734   4.561   2.003  13.033 -4.1904  2.3551 -2.6450
 6773TIP3    H241735   4.647   2.095  12.950  2.0256  0.5200  1.0543
 6774TIP3   OH241736   2.279   0.839  12.484  0.0403 -0.0615  0.5358
 6774TIP3    H141737   2.290   0.910  12.420 -0.0529  1.7558  2.4336
 6774TIP3    H241738   2.292   0.881  12.569 -0.3813 -2.2778  1.7752
 6775TIP3   OH241739   5.835   4.209   1.598 -0.2388 -0.2880  0.3251
 6775TIP3    H141740   5.740   4.203   1.590 -0.5069  1.8041  1.1187
 6775TIP3    H241741   5.849   4.252   1.683  1.4557 -1.1217  0.5184
 6776TIP3   OH241742   2.262   4.339  13.033  0.2859 -0.0289  0.0323
 6776TIP3    H141743   2.265   4.329  12.938  0.9628  0.5699 -0.0137
 6776TIP3    H241744   2.353   4.333  13.061  0.2725  1.4658  0.4685
 6777TIP3   OH241745   0.979   4.673  12.411 -0.3694 -0.0683  0.6326
 6777TIP3    H141746   0.936   4.756  12.391  0.4463  0.1428 -0.3520
 6777TIP3    H241747   1.019   4.685  12.497  1.9593  1.5303 -0.5616
 6778TIP3   OH241748   6.214   2.686  17.346 -0.0596 -0.3041 -0.1144
 6778TIP3    H141749   6.228   2.593  17.325 -0.9066 -0.6040  0.5889
 6778TIP3    H241750   6.233   2.732  17.264 -1.8104 -1.3129 -1.1463
 6779TIP3   OH241751   3.419   4.936   0.469 -0.1036 -0.0112  0.0556
 6779TIP3    H141752   3.461   4.873   0.528  0.8231 -1.1431 -1.7187
 6779TIP3    H241753   3.464   5.019   0.486 -0.9148  0.0743  1.9843
 6780TIP3   OH241754   6.306   0.518   2.113 -0.1008  0.2620 -0.2197
 6780TIP3    H141755   6.272   0.515   2.202  0.4731  0.4303  0.0080
 6780TIP3    H241756   6.255   0.587   2.070  1.5381  2.1930  0.8019
 6781TIP3   OH241757   1.849   3.050   2.993  0.0278 -0.7263 -0.0571
 6781TIP3    H141758   1.896   2.967   2.995 -0.6572 -1.1389 -0.5288
 6781TIP3    H241759   1.795   3.046   2.914  0.6613  0.5598 -0.5948
 6782TIP3   OH241760   6.350   6.012  14.911 -0.1303 -0.3536  0.2759
 6782TIP3    H141761   6.370   6.016  15.005  1.2723 -3.7018  0.2444
 6782TIP3    H241762   6.259   6.040  14.905  0.0780  1.0579  2.4431
 6783TIP3   OH241763   5.842   5.404   0.495 -0.4886  0.4707 -0.0301
 6783TIP3    H141764   5.911   5.423   0.431 -1.2513  1.3543 -0.6174
 6783TIP3    H241765   5.813   5.316   0.473 -1.8154  1.3166 -1.9729
 6784TIP3   OH241766   1.067   4.348  10.655  0.3280 -0.5196  0.0126
 6784TIP3    H141767   1.144   4.361  10.600  0.1402  0.7424  0.0178
 6784TIP3    H241768   1.089   4.274  10.711  1.4898 -0.2409 -0.0667
 6785TIP3   OH241769   4.862   3.028   2.675 -0.2289  0.5716  0.5146
 6785TIP3    H141770   4.905   3.079   2.607  0.8437 -1.3896 -0.3682
 6785TIP3    H241771   4.817   2.958   2.628 -0.5650 -0.0691  1.7442
 6786TIP3   OH241772   3.280   3.366   4.883  0.2548 -0.1152  0.2646
 6786TIP3    H141773   3.217   3.304   4.846  0.3866  0.3339 -0.7372
 6786TIP3    H241774   3.359   3.314   4.896 -0.3428 -0.7167  1.6625
 6787TIP3   OH241775   3.264   1.644  12.931 -0.3782  0.0641 -0.4068
 6787TIP3    H141776   3.302   1.706  12.993 -2.0461 -0.1732  0.9072
 6787TIP3    H241777   3.328   1.573  12.927  0.5194  0.8435 -0.2412
 6788TIP3   OH241778   3.462   2.378  12.293  0.7017 -0.4544  0.2827
 6788TIP3    H141779   3.432   2.350  12.379  0.6523  0.0356  0.4299
 6788TIP3    H241780   3.398   2.444  12.266 -0.5054 -2.0774 -1.0584
 6789TIP3   OH241781   3.737   5.324  14.463  0.3340  0.4582 -0.0294
 6789TIP3    H141782   3.816   5.271  14.470 -0.1050 -0.1558  0.3550
 6789TIP3    H241783   3.692   5.289  14.386 -0.3628 -0.2937  0.7064
 6790TIP3   OH241784   4.160   6.303   5.599  0.3311 -0.8844 -0.3299
 6790TIP3    H141785   4.068   6.283   5.580  0.4889 -0.2726 -1.8407
 6790TIP3    H241786   4.161   6.397   5.617  0.9874 -0.3389 -2.8484
 6791TIP3   OH241787   0.221   3.385  12.029 -0.1368  0.2054 -0.3665
 6791TIP3    H141788   0.316   3.376  12.036 -0.3306 -1.4964  0.6357
 6791TIP3    H241789   0.187   3.300  12.054 -1.9166  0.4565 -1.7160
 6792TIP3   OH241790   4.533   3.967   5.602 -0.1312  0.0050 -0.1489
 6792TIP3    H141791   4.568   3.984   5.514 -0.7898  1.2711 -0.1901
 6792TIP3    H241792   4.598   3.910   5.643  2.3158  2.6122 -0.0327
 6793TIP3   OH241793   1.592   2.937   4.925  0.2633 -0.0784  0.1115
 6793TIP3    H141794   1.620   3.020   4.964 -2.6098  1.6342 -1.1286
 6793TIP3    H241795   1.635   2.870   4.978  0.2920  2.1322  3.1615
 6794TIP3   OH241796   1.548   4.765  12.318  0.1053 -1.0615 -0.5091
 6794TIP3    H141797   1.486   4.821  12.272  0.6548 -0.7110 -0.8267
 6794TIP3    H241798   1.498   4.686  12.338 -0.2896 -1.0034 -1.2386
 6795TIP3   OH241799   4.800   1.292  10.844  0.7966 -0.0798  0.6308
 6795TIP3    H141800   4.879   1.267  10.797 -0.2468  0.2901 -1.4335
 6795TIP3    H241801   4.737   1.222  10.825 -0.1628  0.9021  0.0738
 6796TIP3   OH241802   0.302   2.876   5.571 -0.4184 -0.3490  0.0099
 6796TIP3    H141803   0.245   2.862   5.646  0.9443 -1.6175  0.8842
 6796TIP3    H241804   0.255   2.937   5.515 -1.0375  1.4903  2.3902
 6797TIP3   OH241805   3.977   1.714   5.587  0.4203 -0.4181  0.0403
 6797TIP3    H141806   4.012   1.702   5.499 -0.1863 -1.7703 -0.0388
 6797TIP3    H241807   4.046   1.763   5.634  0.9168 -0.0423 -1.0478
 6798TIP3   OH241808   5.016   4.322   2.038 -0.4860  0.1325 -0.6972
 6798TIP3    H141809   5.036   4.254   2.102 -3.6040  0.3264  0.6522
 6798TIP3    H241810   4.970   4.276   1.967 -0.0491  0.4187 -1.1735
 6799TIP3   OH241811   6.419   1.397  13.481  0.4361 -0.2020 -0.1164
 6799TIP3    H141812   6.496   1.387  13.424 -0.7625  0.0581 -1.8664
 6799TIP3    H241813   6.351   1.432  13.423 -0.5092  1.2869  1.7873
 6800TIP3   OH241814   0.717   0.444  11.637 -0.3821  0.4402 -0.2155
 6800TIP3    H141815   0.639   0.432  11.690 -0.3802 -1.3475 -0.5479
 6800TIP3    H241816   0.757   0.357  11.632  2.0338  1.4095  0.5285
 6801TIP3   OH241817   4.824   2.503   2.351 -0.7065 -0.0609 -0.3430
 6801TIP3    H141818   4.738   2.539   2.328 -0.5888 -1.0205 -2.5735
 6801TIP3    H241819   4.834   2.523   2.444 -2.4800  1.8073 -0.4652
 6802TIP3   OH241820   4.994   3.519   2.701 -0.3060 -0.1142 -0.2495
 6802TIP3    H141821   4.994   3.582   2.629 -2.7837  0.3224  0.0374
 6802TIP3    H241822   5.058   3.553   2.763 -0.5826  1.3735 -0.7348
 6803TIP3   OH241823   5.303   5.002   1.795  0.4808  0.4926  0.4453
 6803TIP3    H141824   5.353   5.041   1.866  1.6629 -0.5712  0.2168
 6803TIP3    H241825   5.239   4.945   1.838 -2.4903  3.7769  0.9159
 6804TIP3   OH241826   4.084   0.685   2.036 -0.0607  0.5296 -0.2780
 6804TIP3    H141827   4.060   0.778   2.035  1.5975  1.0014 -0.8800
 6804TIP3    H241828   4.083   0.659   1.944 -1.4632 -0.3446 -0.0375
 6805TIP3   OH241829   3.697   1.686  12.481 -0.1315  0.4829 -0.8638
 6805TIP3    H141830   3.606   1.670  12.458 -0.2188  0.8727 -0.7989
 6805TIP3    H241831   3.693   1.751  12.551  0.1675  0.0079 -0.3953
 6806TIP3   OH241832   5.231   1.011  14.719 -0.1754  0.3575 -0.0846
 6806TIP3    H141833   5.270   1.061  14.791 -2.1001 -0.2934  1.5027
 6806TIP3    H241834   5.136   1.020  14.732 -0.5744 -0.8643 -1.7858
 6807TIP3   OH241835   3.580   4.617  13.771  0.2796  0.6166  0.4481
 6807TIP3    H141836   3.612   4.708  13.774  0.7134  0.6176 -1.9441
 6807TIP3    H241837   3.517   4.611  13.843  0.9320  2.5344  1.2403
 6808TIP3   OH241838   5.586   6.700  16.884 -0.3550 -0.1752  0.0223
 6808TIP3    H141839   5.633   6.636  16.938  0.9957  2.4405  2.1749
 6808TIP3    H241840   5.504   6.657  16.862 -0.6087 -1.7880  3.4536
 6809TIP3   OH241841   1.560   4.293  10.609 -0.1121  0.1664 -0.0815
 6809TIP3    H141842   1.606   4.377  10.604  0.3843 -0.0299  1.0423
 6809TIP3    H241843   1.473   4.315  10.642 -1.0702  0.6006 -2.6546
 6810TIP3   OH241844   1.751   0.302   0.151 -0.2406 -0.0952 -0.4034
 6810TIP3    H141845   1.778   0.226   0.099 -1.4433 -0.2423 -0.8596
 6810TIP3    H241846   1.788   0.376   0.105  1.3169 -0.4185  0.2921
 6811TIP3   OH241847   0.303   6.304  13.337 -0.2847  0.0660 -0.1053
 6811TIP3    H141848   0.396   6.291  13.317 -0.6130 -0.6899 -1.1856
 6811TIP3    H241849   0.274   6.219  13.372  0.3166  1.3312  4.1088
 6812TIP3   OH241850   5.823   5.733  10.834  0.3379 -0.2905 -0.0809
 6812TIP3    H141851   5.862   5.803  10.886 -0.6429 -1.2643  2.1161
 6812TIP3    H241852   5.752   5.775  10.786 -0.7776  0.1528  1.8431
 6813TIP3   OH241853   2.640   3.050   4.155 -0.3988  0.0265 -0.1174
 6813TIP3    H141854   2.681   2.993   4.219 -0.1229 -0.3584 -0.6314
 6813TIP3    H241855   2.583   3.108   4.207  0.0712 -0.0566  0.5000
 6814TIP3   OH241856   1.844   0.720   3.473 -0.1054  0.0197  0.2252
 6814TIP3    H141857   1.820   0.727   3.566 -1.9353 -0.4063 -0.1773
 6814TIP3    H241858   1.877   0.631   3.464  1.4235  0.5087  0.7254
 6815TIP3   OH241859   0.241   3.909   0.874  0.7025 -0.3823 -0.2375
 6815TIP3    H141860   0.209   3.949   0.793  1.3314 -1.5105 -1.0645
 6815TIP3    H241861   0.255   3.983   0.933 -0.3073  0.4133 -0.9541
 6816TIP3   OH241862   1.132   5.051  15.153 -0.1604  0.1056  0.0415
 6816TIP3    H141863   1.209   5.087  15.109 -0.8659  2.5100  0.6032
 6816TIP3    H241864   1.058   5.078  15.099 -0.8222  0.6645  1.1810
 6817TIP3   OH241865   2.754   4.595   4.666  0.1356 -0.4786  0.0977
 6817TIP3    H141866   2.804   4.567   4.743 -0.7123  0.6512  1.0930
 6817TIP3    H241867   2.672   4.546   4.672  0.0653 -0.3843 -0.0901
 6818TIP3   OH241868   5.110   3.927   5.665  0.9366 -0.3757  0.1853
 6818TIP3    H141869   5.023   3.958   5.692  1.0938  0.5030 -0.2622
 6818TIP3    H241870   5.147   3.888   5.744  0.1385 -0.7565  0.3863
 6819TIP3   OH241871   1.691   2.558  11.480 -0.0576  0.2178 -0.0897
 6819TIP3    H141872   1.616   2.534  11.425 -0.8657  1.3864  0.4499
 6819TIP3    H241873   1.651   2.597  11.558  1.0842 -1.0164  1.1457
 6820TIP3   OH241874   6.161   3.989   1.596  0.1954 -0.1803 -0.1374
 6820TIP3    H141875   6.156   3.905   1.550 -1.7879  0.6108 -1.4961
 6820TIP3    H241876   6.097   3.982   1.666  2.0891 -0.7958  1.6275
 6821TIP3   OH241877   1.030   0.046   4.605 -0.4513 -0.7834  0.2722
 6821TIP3    H141878   1.008   0.041   4.698  0.4845 -1.8964  0.4642
 6821TIP3    H241879   1.097   0.114   4.599 -0.9985 -0.2310  0.2922
 6822TIP3   OH241880   1.894   4.017  10.697  0.3439  0.1571  0.3823
 6822TIP3    H141881   1.948   3.955  10.648  0.2424  0.7101 -0.4483
 6822TIP3    H241882   1.957   4.073  10.743  0.5294  1.2091 -1.0878
 6823TIP3   OH241883   5.717   2.130  13.098  0.0205 -0.1446  1.0169
 6823TIP3    H141884   5.726   2.037  13.118  1.9120 -0.0082  0.9823
 6823TIP3    H241885   5.799   2.153  13.054 -0.0296  1.7183  1.7920
 6824TIP3   OH241886   1.674   1.301   3.857 -0.6575  0.8183  0.1927
 6824TIP3    H141887   1.597   1.254   3.888  0.1763  0.0439  1.1284
 6824TIP3    H241888   1.671   1.292   3.762 -2.5575  2.1455  0.0689
 6825TIP3   OH241889   3.363   5.328  11.809  0.4122  0.3641 -0.0891
 6825TIP3    H141890   3.438   5.288  11.764 -0.0998 -1.2134  0.3869
 6825TIP3    H241891   3.333   5.260  11.870  0.3153  1.9738  1.7623
 6826TIP3   OH241892   2.158   3.873   4.435  0.1047  0.5303 -0.7079
 6826TIP3    H141893   2.213   3.944   4.469 -0.2173  0.9899 -1.1293
 6826TIP3    H241894   2.218   3.801   4.421  0.3621  0.5592  0.1717
 6827TIP3   OH241895   1.328   0.065  10.460  0.0260 -0.2582  0.7901
 6827TIP3    H141896   1.267   0.110  10.402  0.3024  0.2112  0.8608
 6827TIP3    H241897   1.273   0.005  10.510 -0.0511 -1.6744 -0.8952
 6828TIP3   OH241898   6.550   5.348   2.454 -0.1597 -0.6694 -0.0977
 6828TIP3    H141899   6.621   5.388   2.505 -0.4977 -1.0272  0.6605
 6828TIP3    H241900   6.523   5.417   2.392  1.6642 -0.9311 -1.2548
 6829TIP3   OH241901   4.938   0.902  11.324 -0.9350 -0.2213 -0.1291
 6829TIP3    H141902   4.891   0.819  11.333 -0.7019 -0.4887 -1.2454
 6829TIP3    H241903   4.986   0.912  11.407  0.1584 -1.9116 -0.5121
 6830TIP3   OH241904   3.718   5.953   0.082 -0.1173  0.0108  0.1097
 6830TIP3    H141905   3.622   5.955   0.075 -0.1188  2.8976  0.0347
 6830TIP3    H241906   3.736   5.988   0.170  0.8780  0.2793 -0.1909
 6831TIP3   OH241907   2.214   4.711   3.691 -0.3967  0.0825 -0.3336
 6831TIP3    H141908   2.274   4.647   3.729 -0.7974  0.2122  0.5267
 6831TIP3    H241909   2.236   4.794   3.733  1.7299  1.0981 -3.1214
 6832TIP3   OH241910   1.502   6.643  15.953  0.2012 -0.2590 -0.6246
 6832TIP3    H141911   1.480   6.659  16.045  1.8765 -1.7919  0.1158
 6832TIP3    H241912   1.458   6.561  15.932 -2.6113  1.4954 -2.2017
 6833TIP3   OH241913   2.309   0.940   3.282 -0.3526  0.0298  0.6759
 6833TIP3    H141914   2.393   0.894   3.275  0.1668  0.7563  1.7993
 6833TIP3    H241915   2.332   1.033   3.284 -1.4919  0.5705 -3.2531
 6834TIP3   OH241916   1.883   0.731   5.681 -0.3846  0.7899  0.1203
 6834TIP3    H141917   1.868   0.707   5.773 -0.8959  3.3616  0.7982
 6834TIP3    H241918   1.810   0.690   5.634  0.9516 -2.2379  0.4346
 6835TIP3   OH241919   0.367   1.945  13.279  0.4742 -0.0364 -0.2513
 6835TIP3    H141920   0.307   1.984  13.216  0.7878  2.0384  0.6589
 6835TIP3    H241921   0.427   1.893  13.225 -1.0650 -0.7677 -1.3306
 6836TIP3   OH241922   2.845   5.205  10.985  0.4031 -1.0858  0.6291
 6836TIP3    H141923   2.901   5.221  11.061 -1.0032 -0.5796  1.5902
 6836TIP3    H241924   2.800   5.288  10.971 -1.6270 -2.0324  1.1719
 6837TIP3   OH241925   0.646   1.660  13.737  0.2766  0.4573  0.6495
 6837TIP3    H141926   0.724   1.715  13.739  0.8893 -0.4056  0.9376
 6837TIP3    H241927   0.649   1.612  13.819  0.3880 -0.8736 -0.1081
 6838TIP3   OH241928   2.288   0.144   5.602  0.6788 -0.1569  0.3689
 6838TIP3    H141929   2.347   0.126   5.528  0.5818 -0.1608  0.2920
 6838TIP3    H241930   2.273   0.238   5.597 -0.7242 -0.4085 -0.6758
 6839TIP3   OH241931   3.506   4.368   3.212  0.2267 -0.2823  0.5186
 6839TIP3    H141932   3.594   4.341   3.240  0.5659 -0.8245 -0.9534
 6839TIP3    H241933   3.455   4.286   3.212  0.3244 -0.3667 -0.6692
 6840TIP3   OH241934   4.901   0.626  16.447  0.0704  0.1441 -0.2169
 6840TIP3    H141935   4.830   0.583  16.401 -0.8887 -0.0373  1.3426
 6840TIP3    H241936   4.910   0.711  16.405 -1.1763  0.2248 -0.3578
 6841TIP3   OH241937   0.432   0.894   2.944 -0.1855 -0.3864 -0.0765
 6841TIP3    H141938   0.457   0.944   3.022 -0.6014  1.8973 -1.3074
 6841TIP3    H241939   0.373   0.826   2.978  1.1663 -0.7027  1.8114
 6842TIP3   OH241940   1.815   0.517   5.846 -0.4157 -0.2345  0.2901
 6842TIP3    H141941   1.724   0.487   5.846 -0.6338  0.3830  1.1942
 6842TIP3    H241942   1.866   0.436   5.851 -0.7967 -0.7570 -2.6240
 6843TIP3   OH241943   3.655   1.032   4.877  0.2064 -0.1410 -0.3113
 6843TIP3    H141944   3.563   1.018   4.855  0.6887 -1.7369 -1.5018
 6843TIP3    H241945   3.654   1.101   4.943 -1.7832  0.3796 -0.8295
 6844TIP3   OH241946   0.832   3.828  10.877 -0.5626  0.0687  0.1030
 6844TIP3    H141947   0.747   3.852  10.913 -0.9606 -0.4711 -0.4520
 6844TIP3    H241948   0.812   3.766  10.807  0.4090 -1.6096  1.2465
 6845TIP3   OH241949   4.268   2.112  11.165  0.0360 -0.9285  0.0162
 6845TIP3    H141950   4.262   2.017  11.176 -0.9665 -0.9488 -0.6066
 6845TIP3    H241951   4.189   2.146  11.207  0.6418 -0.3254  0.6779
 6846TIP3   OH241952   0.703   2.305   0.222  0.0169 -0.1296  0.3264
 6846TIP3    H141953   0.733   2.220   0.255 -1.5037 -1.4463 -1.4421
 6846TIP3    H241954   0.748   2.315   0.138  0.3666  0.9621  0.6291
 6847TIP3   OH241955   5.366   2.883  10.434 -0.4970 -0.0258  0.0707
 6847TIP3    H141956   5.286   2.839  10.463 -0.8070 -0.1308 -0.9320
 6847TIP3    H241957   5.364   2.968  10.478 -1.5802  0.3030 -0.5947
 6848TIP3   OH241958   6.133   0.083  16.767  0.1054  0.6965  0.1066
 6848TIP3    H141959   6.079   0.136  16.825 -0.5699  0.5797 -0.4087
 6848TIP3    H241960   6.095  -0.005  16.772  1.1731  0.2599  0.9036
 6849TIP3   OH241961   6.447   5.951   6.682  0.2191 -0.7506 -0.2781
 6849TIP3    H141962   6.428   6.016   6.750  2.2917 -0.8797  0.4832
 6849TIP3    H241963   6.541   5.958   6.668  0.0752 -1.8470 -2.0285
 6850TIP3   OH241964   1.017   6.012   4.033  0.3358  0.1548 -0.2383
 6850TIP3    H141965   1.068   6.061   4.098 -0.5948  0.0578  0.6021
 6850TIP3    H241966   1.069   5.934   4.015  1.1755  0.7725 -0.5326
 6851TIP3   OH241967   1.391   4.850  14.959  0.2565 -0.0157 -0.3526
 6851TIP3    H141968   1.452   4.820  14.891 -0.7425 -3.4339  0.1012
 6851TIP3    H241969   1.305   4.823  14.928 -0.4014 -0.1932  1.5196
 6852TIP3   OH241970   3.825   2.558   5.632  0.7537  0.0187 -0.0316
 6852TIP3    H141971   3.896   2.495   5.621  1.2392  0.4743  0.4753
 6852TIP3    H241972   3.867   2.643   5.628 -0.0934  0.4183 -2.3491
 6853TIP3   OH241973   5.816   4.524   3.171 -0.6001  0.5006 -0.0593
 6853TIP3    H141974   5.744   4.465   3.149  0.0630 -0.7829  1.0706
 6853TIP3    H241975   5.779   4.611   3.162 -1.8163 -0.0867 -1.0891
 6854TIP3   OH241976   4.729   0.150   2.037 -0.4815 -0.3026  0.3480
 6854TIP3    H141977   4.766   0.098   1.966 -0.3204  1.4016 -0.8757
 6854TIP3    H241978   4.634   0.149   2.021 -0.7788 -2.3092  1.8420
 6855TIP3   OH241979   6.040   2.219  15.232 -0.4317  0.2289  0.3025
 6855TIP3    H141980   5.966   2.160  15.240 -0.3572 -0.0099 -0.6140
 6855TIP3    H241981   6.113   2.163  15.206  0.0314  0.4855  1.0185
 6856TIP3   OH241982   6.201   4.528  15.490  0.1862 -0.2175  0.2287
 6856TIP3    H141983   6.173   4.581  15.416 -1.5576 -0.1151  0.9253
 6856TIP3    H241984   6.147   4.449  15.485  1.4088 -1.0844  0.2991
 6857TIP3   OH241985   6.370   6.059  12.350  0.1080  0.1000 -0.2930
 6857TIP3    H141986   6.323   6.068  12.433 -0.8341  2.0006 -0.9893
 6857TIP3    H241987   6.335   5.978  12.312  1.7350 -1.7171  1.8181
 6858TIP3   OH241988   4.690   5.848  13.063  0.0132 -0.0201 -0.0197
 6858TIP3    H141989   4.779   5.881  13.052 -0.0500  0.6775  1.4001
 6858TIP3    H241990   4.697   5.754  13.049  0.8288  0.1237 -0.6447
 6859TIP3   OH241991   4.350   1.821   3.806 -0.6736  0.3405 -0.2939
 6859TIP3    H141992   4.444   1.833   3.821 -0.9892 -0.0563  2.5983
 6859TIP3    H241993   4.318   1.908   3.784  0.1765  0.7610  0.0572
 6860TIP3   OH241994   3.530   3.992   4.619 -0.1527  0.6963 -0.3057
 6860TIP3    H141995   3.460   3.985   4.554 -0.1066  0.5056 -0.3358
 6860TIP3    H241996   3.557   3.902   4.634  0.1854  0.7826 -0.3973
 6861TIP3   OH241997   0.373   5.167   6.097 -0.5925  0.1522  0.0001
 6861TIP3    H141998   0.400   5.247   6.143 -0.8390  1.5661 -2.1467
 6861TIP3    H241999   0.347   5.107   6.167  2.9310  0.5984  1.9044
 6862TIP3   OH242000   3.930   1.774  17.020  0.4123  0.6504 -0.0172
 6862TIP3    H142001   3.938   1.839  17.090 -1.9263  0.8720  0.1325
 6862TIP3    H242002   3.837   1.777  16.996  1.1283  0.5572 -3.1210
 6863TIP3   OH242003   6.399   5.275   3.460 -0.0927 -0.3192  0.0107
 6863TIP3    H142004   6.480   5.288   3.509 -0.2341 -0.6148  0.3266
 6863TIP3    H242005   6.412   5.191   3.415  0.4099  0.3898 -1.2093
 6864TIP3   OH242006   6.618   1.051  12.735  0.6828  0.4368 -0.6582
 6864TIP3    H142007   6.566   1.017  12.808  0.6570  0.1156 -0.8238
 6864TIP3    H242008   6.675   1.117  12.775  1.3673 -0.4348 -0.1686
 6865TIP3   OH242009   1.824   1.514   2.732 -0.5693 -0.1953  0.2495
 6865TIP3    H142010   1.744   1.504   2.783 -2.0837 -2.2426 -2.2617
 6865TIP3    H242011   1.799   1.570   2.659  0.6986  0.2923  0.1709
 6866TIP3   OH242012   0.414   5.461  12.272 -0.1490  0.2162  0.0933
 6866TIP3    H142013   0.490   5.404  12.258  0.6386  1.1631  0.3934
 6866TIP3    H242014   0.340   5.411  12.239  0.7080 -0.4280 -0.9207
 6867TIP3   OH242015   3.105   4.413  12.376  0.1182 -0.3151 -0.1256
 6867TIP3    H142016   3.169   4.418  12.447  1.1684 -0.7101 -1.0092
 6867TIP3    H242017   3.131   4.482  12.315 -1.1574  0.4417  0.1596
 6868TIP3   OH242018   6.086   5.903  16.835 -0.3544  0.3819 -0.8227
 6868TIP3    H142019   6.098   5.808  16.835  2.9684  0.6351  1.7356
 6868TIP3    H242020   6.147   5.935  16.769  0.2634  0.8254 -0.0517
 6869TIP3   OH242021   1.900   2.433  16.699  0.0798  0.1673  0.2943
 6869TIP3    H142022   1.978   2.436  16.643  0.1511 -1.5277  0.2494
 6869TIP3    H242023   1.895   2.520  16.737  0.4371  1.1667 -1.7881
 6870TIP3   OH242024   3.732   5.663  15.249 -0.3842  0.2978  0.4827
 6870TIP3    H142025   3.678   5.602  15.198 -0.9942  2.4080 -1.5176
 6870TIP3    H242026   3.810   5.612  15.272 -0.3975 -0.9876 -1.9777
 6871TIP3   OH242027   3.598   3.998   2.391 -0.9070  0.0531  0.6448
 6871TIP3    H142028   3.636   3.911   2.400 -1.2848 -0.3760 -1.4311
 6871TIP3    H242029   3.574   4.004   2.299 -0.6914  2.4520  0.6895
 6872TIP3   OH242030   5.174   0.856   4.282 -0.0351  0.2164  0.6995
 6872TIP3    H142031   5.251   0.810   4.249  0.2521  1.4594 -0.4817
 6872TIP3    H242032   5.153   0.812   4.364  0.9326 -1.2092  0.2292
 6873TIP3   OH242033   1.411   1.399  15.884  0.0379 -0.1039 -0.5813
 6873TIP3    H142034   1.471   1.325  15.877 -1.0683 -1.1603  0.3880
 6873TIP3    H242035   1.411   1.421  15.977 -1.3539 -0.4223 -0.4749
 6874TIP3   OH242036   2.713   0.309   3.762  0.2888  0.0576  0.2274
 6874TIP3    H142037   2.803   0.275   3.756  0.5051  0.6956 -0.3942
 6874TIP3    H242038   2.694   0.340   3.673 -1.4005 -2.0925 -0.2383
 6875TIP3   OH242039   3.523   4.076  15.994  0.1169  0.2219  0.6674
 6875TIP3    H142040   3.562   4.046  15.911 -1.9403  0.2970 -0.4004
 6875TIP3    H242041   3.457   4.010  16.014 -2.8431  2.6106 -0.4549
 6876TIP3   OH242042   1.565   4.783   4.985  0.0632  0.4773  0.1828
 6876TIP3    H142043   1.600   4.840   5.054  1.6776 -0.2853  0.0271
 6876TIP3    H242044   1.545   4.701   5.030  1.3334 -0.0988 -0.2682
 6877TIP3   OH242045   4.831   6.468   6.105  0.0029  0.2983  0.0052
 6877TIP3    H142046   4.768   6.399   6.127  0.2401 -0.1549 -0.6917
 6877TIP3    H242047   4.779   6.537   6.065 -0.1005  0.0753 -0.2447
 6878TIP3   OH242048   0.900   0.725   5.877 -0.0014 -0.0936  0.4442
 6878TIP3    H142049   0.952   0.796   5.915 -0.0790 -0.2752  0.8893
 6878TIP3    H242050   0.918   0.649   5.932  1.2522 -0.8284 -0.8837
 6879TIP3   OH242051   1.968   3.613  10.407  0.0084  0.3828 -0.4826
 6879TIP3    H142052   1.922   3.536  10.440  2.0287 -0.2112  1.1375
 6879TIP3    H242053   1.919   3.637  10.328 -1.6071 -1.6040 -0.1937
 6880TIP3   OH242054   4.939   4.946  13.762 -0.0117  0.2204 -0.4868
 6880TIP3    H142055   4.898   4.967  13.678 -0.7840 -0.8090 -0.3847
 6880TIP3    H242056   5.031   4.928  13.740 -0.3852 -0.8587 -1.2454
 6881TIP3   OH242057   6.057   1.175  15.731 -0.1272  0.2213 -0.1678
 6881TIP3    H142058   6.011   1.092  15.744  1.1330 -0.4214  0.3857
 6881TIP3    H242059   6.130   1.153  15.672 -0.4763  1.1970 -0.9767
 6882TIP3   OH242060   4.166   5.784   2.222 -0.6099 -0.1276  0.2507
 6882TIP3    H142061   4.250   5.811   2.185 -1.2759  1.2635 -0.3354
 6882TIP3    H242062   4.101   5.841   2.179 -1.7951 -0.8127  1.0587
 6883TIP3   OH242063   6.109   3.352   3.857  0.3670 -0.2090 -0.3577
 6883TIP3    H142064   6.073   3.339   3.770  1.0561 -0.1808 -0.6476
 6883TIP3    H242065   6.045   3.310   3.916  0.7914 -1.8362 -1.0023
 6884TIP3   OH242066   1.277   2.645  15.225  0.3651  0.5328  0.4454
 6884TIP3    H142067   1.305   2.689  15.145  1.1631 -1.3454 -0.3521
 6884TIP3    H242068   1.204   2.589  15.198 -0.2382  0.8492  1.3260
 6885TIP3   OH242069   3.069   6.043   1.350 -0.0295 -0.0633  0.7324
 6885TIP3    H142070   3.052   6.048   1.444  0.7592 -1.4524  0.9840
 6885TIP3    H242071   2.999   5.987   1.316  0.5247 -0.8110  0.7741
 6886TIP3   OH242072   4.431   3.917   4.548 -0.0499 -0.6988  0.2400
 6886TIP3    H142073   4.349   3.933   4.595 -0.3032  1.5936 -0.8817
 6886TIP3    H242074   4.498   3.959   4.602  0.5225 -2.8621  1.3332
 6887TIP3   OH242075   3.088   2.091  12.147  0.1222  0.2452 -0.8450
 6887TIP3    H142076   3.175   2.118  12.175 -0.2884  0.0569  0.6875
 6887TIP3    H242077   3.066   2.017  12.203 -1.4332  0.9557 -0.4504
 6888TIP3   OH242078   3.867   3.484  13.263  0.6386 -0.5207 -0.0160
 6888TIP3    H142079   3.958   3.466  13.288  0.2938 -0.2232  1.5774
 6888TIP3    H242080   3.823   3.399  13.272  0.4193 -0.3227  0.9086
 6889TIP3   OH242081   4.263   4.250  13.255 -0.2075 -0.3228 -0.5955
 6889TIP3    H142082   4.176   4.275  13.224  0.4024  2.2722 -0.4361
 6889TIP3    H242083   4.273   4.295  13.338  1.7765  0.5887 -1.2706
 6890TIP3   OH242084   3.553   0.098  14.642  0.2815  0.0319  0.3720
 6890TIP3    H142085   3.546   0.192  14.659 -1.6743  0.4200 -2.0993
 6890TIP3    H242086   3.644   0.086  14.614  1.6840  0.4196  4.0921
 6891TIP3   OH242087   6.265   1.454   4.674  0.1901  0.0660 -0.8767
 6891TIP3    H142088   6.350   1.459   4.717  0.2174 -1.2566 -0.7429
 6891TIP3    H242089   6.219   1.533   4.703  2.3135  2.3033 -3.1450
 6892TIP3   OH242090   5.879   6.099  12.646  0.0231  0.5494  1.3732
 6892TIP3    H142091   5.900   6.158  12.719 -0.1933  1.7187  0.5170
 6892TIP3    H242092   5.945   6.030  12.651  0.2884  0.8604  2.3980
 6893TIP3   OH242093   4.559   6.344  14.370 -0.8496  0.1099 -0.0208
 6893TIP3    H142094   4.484   6.365  14.314  0.1687 -1.6515 -2.1515
 6893TIP3    H242095   4.635   6.371  14.320  0.0388  0.8279  1.6398
 6894TIP3   OH242096   3.536   3.282   4.930 -0.5999  0.3986  0.4012
 6894TIP3    H142097   3.539   3.367   4.888 -0.9697  1.3065  2.1093
 6894TIP3    H242098   3.600   3.289   5.002 -0.4729 -0.8413  0.4329
 6895TIP3   OH242099   2.045   2.067   6.596 -0.4268  0.3236  0.3624
 6895TIP3    H142100   2.118   2.115   6.634  0.1339 -0.1504 -0.0942
 6895TIP3    H242101   1.981   2.134   6.572 -0.6576  0.6533  1.8361
 6896TIP3   OH242102   4.381   5.580   2.627  0.5546 -0.0675 -0.8935
 6896TIP3    H142103   4.298   5.539   2.653  1.0585  0.8467  2.7590
 6896TIP3    H242104   4.357   5.669   2.604  0.2287 -0.6139 -2.8535
 6897TIP3   OH242105   5.211   5.416  13.418 -0.1515  0.4872  0.1028
 6897TIP3    H142106   5.282   5.380  13.365 -0.5706 -0.6845  0.3024
 6897TIP3    H242107   5.157   5.466  13.356 -0.4308 -0.5566 -0.5247
 6898TIP3   OH242108   2.460   6.644   2.186  0.0565 -0.4849  0.8761
 6898TIP3    H142109   2.472   6.556   2.151  2.0412  0.6982 -1.7280
 6898TIP3    H242110   2.366   6.660   2.177  0.1903 -0.8713 -2.7106
 6899TIP3   OH242111   1.941   0.063  16.780  0.2148  0.7126 -0.2539
 6899TIP3    H142112   1.985   0.002  16.720  1.5619  0.9858  0.3986
 6899TIP3    H242113   1.948   0.148  16.737 -1.1965  0.5090 -0.9199
 6900TIP3   OH242114   4.405   5.175   5.816  0.0193 -0.3509 -0.4027
 6900TIP3    H142115   4.457   5.118   5.873 -0.3531  0.9963  1.3716
 6900TIP3    H242116   4.341   5.215   5.875 -0.4877  1.0043 -1.8249
 6901TIP3   OH242117   3.409   2.993  15.835  0.0557  0.1255 -0.1825
 6901TIP3    H142118   3.317   3.018  15.845 -0.2262 -0.3924 -1.3202
 6901TIP3    H242119   3.453   3.074  15.807  0.1158  0.5766  1.1649
 6902TIP3   OH242120   4.800   4.871  14.223 -0.3358  0.5044 -0.3073
 6902TIP3    H142121   4.766   4.784  14.247  1.4273  0.0019  0.5738
 6902TIP3    H242122   4.841   4.857  14.138  0.6200  0.2604  0.1806
 6903TIP3   OH242123   1.354   1.929  13.258  0.1970 -0.9393  0.2796
 6903TIP3    H142124   1.279   1.899  13.310  0.0256  0.3142  0.8172
 6903TIP3    H242125   1.392   1.999  13.311  2.3608 -2.1792  0.4792
 6904TIP3   OH242126   5.193   5.961  12.769 -0.7472 -0.3094  0.2717
 6904TIP3    H142127   5.113   5.986  12.723 -1.3262  0.9203  1.8310
 6904TIP3    H242128   5.179   5.870  12.793 -1.5127 -0.2267  0.1846
 6905TIP3   OH242129   2.378   1.336  12.539 -0.0202  0.6248 -0.0460
 6905TIP3    H142130   2.449   1.361  12.599  0.3240 -1.4708  0.4902
 6905TIP3    H242131   2.411   1.358  12.452  1.0881  0.1692  0.2397
 6906TIP3   OH242132   6.538   4.620   0.270 -0.6207  0.2278 -0.4243
 6906TIP3    H142133   6.570   4.710   0.256 -0.0368  0.1290  0.2066
 6906TIP3    H242134   6.583   4.592   0.350 -1.9285 -0.0975  0.2169
 6907TIP3   OH242135   4.023   0.492  17.121  0.1494  0.4111 -0.3032
 6907TIP3    H142136   4.063   0.413  17.087  1.2704  0.5069  0.7163
 6907TIP3    H242137   3.975   0.463  17.199 -1.4119  0.3730 -1.2475
 6908TIP3   OH242138   2.905   1.179  12.713  0.0481 -0.0688 -0.2466
 6908TIP3    H142139   2.909   1.272  12.688 -1.0178  0.5429  1.6598
 6908TIP3    H242140   2.997   1.151  12.714  0.4107  1.0392 -0.5650
 6909TIP3   OH242141   3.650   2.521   4.685 -0.1440 -0.4389 -0.3165
 6909TIP3    H142142   3.618   2.436   4.717 -0.6706  0.0564  0.5183
 6909TIP3    H242143   3.714   2.548   4.751  0.8268 -0.6695 -1.1366
 6910TIP3   OH242144   2.308   3.358   4.055 -0.0824 -0.1482 -0.1661
 6910TIP3    H142145   2.234   3.419   4.053 -0.8199 -1.0359 -0.4384
 6910TIP3    H242146   2.364   3.386   3.983 -0.7830 -0.2251 -0.7594
 6911TIP3   OH242147   0.857   4.325   2.194 -0.3254  0.1294 -0.0629
 6911TIP3    H142148   0.830   4.383   2.123 -0.6335 -0.2439 -0.2579
 6911TIP3    H242149   0.867   4.239   2.152 -1.2118 -0.2550  0.4665
 6912TIP3   OH242150   4.928   6.449  16.390  0.1038  0.3943  0.2729
 6912TIP3    H142151   4.857   6.466  16.329 -1.3909  0.2944  1.9218
 6912TIP3    H242152   4.995   6.406  16.337 -1.9521 -1.5718 -0.8945
 6913TIP3   OH242153   1.305   3.815  15.025  0.1781 -0.0193  0.2008
 6913TIP3    H142154   1.342   3.890  15.071  0.7234 -0.3488  0.3202
 6913TIP3    H242155   1.226   3.793  15.074 -1.0739  1.6591 -0.9739
 6914TIP3   OH242156   3.860   5.310  13.068  0.1394 -0.3364  0.3228
 6914TIP3    H142157   3.877   5.388  13.120 -1.5338 -0.9034  1.8440
 6914TIP3    H242158   3.940   5.258  13.076  1.2512  1.1353 -0.6651
 6915TIP3   OH242159   1.263   0.756  12.207  0.6375  0.3480 -0.5596
 6915TIP3    H142160   1.304   0.763  12.121  1.4515  2.2805 -0.0529
 6915TIP3    H242161   1.279   0.665  12.234  2.2327  0.3080 -1.5305
 6916TIP3   OH242162   5.410   2.064  17.082 -0.2828 -0.3322  0.1492
 6916TIP3    H142163   5.405   2.123  17.158  0.1373 -0.9852  0.6899
 6916TIP3    H242164   5.402   1.976  17.119 -2.8860 -0.6126 -0.8264
 6917TIP3   OH242165   4.273   4.614   2.585  0.3324 -0.1129  0.0767
 6917TIP3    H142166   4.181   4.590   2.593  0.0740  0.3009 -1.3407
 6917TIP3    H242167   4.287   4.682   2.651 -0.4743  0.0770  0.0587
 6918TIP3   OH242168   2.899   1.471  16.769 -0.3406 -0.6465 -0.0884
 6918TIP3    H142169   2.829   1.429  16.819  0.0285 -3.0632 -1.4706
 6918TIP3    H242170   2.887   1.565  16.786 -1.4745 -1.1922  2.8379
 6919TIP3   OH242171   4.896   5.617   1.260 -0.3007 -0.6961 -0.1587
 6919TIP3    H142172   4.902   5.668   1.341 -0.1953  0.1478 -0.6836
 6919TIP3    H242173   4.809   5.636   1.226  0.6471  1.2301 -1.6835
 6920TIP3   OH242174   3.455   0.424   1.578 -0.2872 -0.2405 -0.5619
 6920TIP3    H142175   3.506   0.424   1.498  0.3620 -0.4533 -0.1553
 6920TIP3    H242176   3.370   0.461   1.553  0.9635  2.8274 -0.6882
 6921TIP3   OH242177   5.994   3.246   4.777 -0.2072 -0.4116  0.1572
 6921TIP3    H142178   6.034   3.165   4.807  0.0787  0.3494  2.0000
 6921TIP3    H242179   5.978   3.233   4.684 -0.3530 -2.6383  0.4545
 6922TIP3   OH242180   0.165   1.077  15.164 -0.1910  0.7043 -0.1684
 6922TIP3    H142181   0.078   1.044  15.143 -0.3862  0.9683  0.2183
 6922TIP3    H242182   0.171   1.160  15.117  0.4778 -0.0697 -1.5276
 6923TIP3   OH242183   0.120   4.491  16.924  0.3161  0.1120 -0.2883
 6923TIP3    H142184   0.055   4.441  16.973 -3.8126  2.9703 -2.2413
 6923TIP3    H242185   0.129   4.444  16.841 -1.5648  1.0466 -1.0962
 6924TIP3   OH242186   5.221   1.564   4.047  0.3053  0.2743  0.5378
 6924TIP3    H142187   5.311   1.530   4.051  0.1546 -0.0451  3.4099
 6924TIP3    H242188   5.168   1.488   4.023  0.7396  0.5020 -1.3446
 6925TIP3   OH242189   4.310   3.860  14.029  0.1923 -0.5993 -0.2262
 6925TIP3    H142190   4.374   3.822  14.089  1.5332  1.4345 -0.2700
 6925TIP3    H242191   4.250   3.908  14.086  0.2228 -0.4002 -0.3611
 6926TIP3   OH242192   3.782   4.570  12.898 -0.1515  0.1692 -0.1735
 6926TIP3    H142193   3.761   4.554  12.806  1.2909  2.8972 -1.1000
 6926TIP3    H242194   3.867   4.614  12.895  0.0520  0.1003  2.5087
 6927TIP3   OH242195   4.429   4.260  12.030 -0.5977  0.0365 -1.0013
 6927TIP3    H142196   4.351   4.278  11.977 -0.1856 -0.6337 -1.8654
 6927TIP3    H242197   4.469   4.183  11.989  0.8020  0.6685 -0.8977
 6928TIP3   OH242198   3.508   0.932  13.786 -0.1783 -0.6474 -0.5529
 6928TIP3    H142199   3.502   0.998  13.855 -0.2998 -0.0525 -1.1287
 6928TIP3    H242200   3.602   0.922  13.771 -0.0923 -1.6859  0.5508
 6929TIP3   OH242201   0.220   4.332  16.724 -0.2695  0.8455  0.0609
 6929TIP3    H142202   0.157   4.274  16.681  1.2042 -0.5468 -0.3102
 6929TIP3    H242203   0.287   4.348  16.658 -0.1277  2.1680  0.4968
 6930TIP3   OH242204   1.360   0.229  12.960 -0.5207  0.2452  0.4650
 6930TIP3    H142205   1.369   0.305  12.903 -0.0965  1.7165  2.4125
 6930TIP3    H242206   1.444   0.222  13.005 -0.1884 -2.0223 -0.3756
 6931TIP3   OH242207   3.754   1.787  15.671  0.1777  0.1207  0.2499
 6931TIP3    H142208   3.842   1.778  15.708  0.3802 -0.1868 -0.3022
 6931TIP3    H242209   3.764   1.857  15.605 -0.2708  0.9514  1.0460
 6932TIP3   OH242210   6.466   1.699   5.542 -0.6394  0.5233 -0.4836
 6932TIP3    H142211   6.438   1.782   5.502 -0.0757  0.5251 -0.8853
 6932TIP3    H242212   6.390   1.642   5.535 -0.7021  0.6770 -1.1417
 6933TIP3   OH242213   2.104   0.537  16.631 -0.2103 -0.3080  0.1297
 6933TIP3    H142214   2.042   0.533  16.558  0.2516 -0.5150 -0.2563
 6933TIP3    H242215   2.068   0.605  16.689 -1.0752 -0.7876  0.1769
 6934TIP3   OH242216   2.709   3.989  14.964  0.3315  0.2346 -0.3472
 6934TIP3    H142217   2.717   4.085  14.965  1.8158  0.1368 -0.3369
 6934TIP3    H242218   2.650   3.969  15.037 -2.6844  1.2932 -2.2836
 6935TIP3   OH242219   5.346   4.424   3.837  0.4446  0.3048 -0.5079
 6935TIP3    H142220   5.389   4.436   3.753  1.1499 -0.5422 -0.2799
 6935TIP3    H242221   5.400   4.360   3.883 -0.1693  0.4310  0.4225
 6936TIP3   OH242222   5.307   4.011   4.063 -0.0157 -0.0076  0.1954
 6936TIP3    H142223   5.320   4.000   4.157 -1.7360 -0.5802  0.4192
 6936TIP3    H242224   5.217   4.043   4.055  0.6536  1.7094 -1.1886
 6937TIP3   OH242225   5.469   2.502   2.587 -0.0786 -0.1465 -0.2688
 6937TIP3    H142226   5.559   2.486   2.614 -0.2915  0.6582  1.0059
 6937TIP3    H242227   5.421   2.424   2.616 -0.0080 -0.0084  0.2359
 6938TIP3   OH242228   0.438   4.935   0.406  0.1816 -0.2543 -0.4357
 6938TIP3    H142229   0.512   4.876   0.389  0.7975 -0.1735  1.7249
 6938TIP3    H242230   0.385   4.890   0.472 -2.1172 -0.5835 -2.3612
 6939TIP3   OH242231   3.885   2.954  14.925 -0.0457 -0.2543  0.1369
 6939TIP3    H142232   3.884   2.861  14.903  0.2025  0.0045 -1.0164
 6939TIP3    H242233   3.842   2.958  15.010  0.4661 -1.4897  0.4795
 6940TIP3   OH242234   5.720   1.395  17.103  0.0992 -0.0414 -0.5116
 6940TIP3    H142235   5.629   1.370  17.115  0.4938 -0.7394  1.4602
 6940TIP3    H242236   5.726   1.483  17.142  0.2268  0.1079 -0.8586
 6941TIP3   OH242237   5.709   5.448   1.830  0.5512 -0.8129  0.0141
 6941TIP3    H142238   5.647   5.516   1.857  0.6368 -0.3091 -1.0240
 6941TIP3    H242239   5.667   5.366   1.856 -1.2103 -0.5792 -1.8044
 6942TIP3   OH242240   3.622   6.685  16.961  0.3580  0.1554 -0.2109
 6942TIP3    H142241   3.545   6.652  16.916 -0.0329 -0.9622  1.2133
 6942TIP3    H242242   3.614   6.780  16.956 -1.6302  0.0905  0.7186
 6943TIP3   OH242243   4.137   4.999  15.708  0.3862 -0.2761 -0.5071
 6943TIP3    H142244   4.109   4.993  15.800 -0.0709 -0.9862 -0.6865
 6943TIP3    H242245   4.085   5.071  15.673  0.8700  0.2763 -0.1028
 6944TIP3   OH242246   0.381   1.531   1.239  0.3045 -0.3769  0.5912
 6944TIP3    H142247   0.452   1.508   1.300 -0.5653  0.2448  1.8994
 6944TIP3    H242248   0.352   1.447   1.204  1.4477 -0.6697  0.2896
 6945TIP3   OH242249   2.238   2.841  15.129  0.0877  0.2479 -0.0189
 6945TIP3    H142250   2.293   2.916  15.153 -0.3735  0.3433  0.7677
 6945TIP3    H242251   2.159   2.852  15.182 -1.3091  0.8633 -2.1281
 6946TIP3   OH242252   1.686   1.250   0.148 -0.3675  0.1410 -0.2226
 6946TIP3    H142253   1.699   1.316   0.216  0.6194 -0.0018 -0.2473
 6946TIP3    H242254   1.616   1.194   0.180  0.4028 -0.2075  0.9012
 6947TIP3   OH242255   2.442   6.212   0.121 -0.3749 -0.0560  0.5205
 6947TIP3    H142256   2.352   6.184   0.139 -0.4963  0.2093  0.3371
 6947TIP3    H242257   2.481   6.139   0.073 -1.0347  0.5323 -0.9635
 6948TIP3   OH242258   4.356   5.479   1.026 -0.3561  0.3571 -0.0274
 6948TIP3    H142259   4.387   5.457   1.113 -0.6981 -1.2222 -0.2729
 6948TIP3    H242260   4.276   5.428   1.015 -2.2330  3.0608 -0.0219
 6949TIP3   OH242261   4.739   4.371   1.782 -0.0180 -0.1183  0.2136
 6949TIP3    H142262   4.833   4.375   1.766 -0.1791  0.7988 -0.5966
 6949TIP3    H242263   4.723   4.435   1.850 -0.1489  0.2639 -0.1705
 6950TIP3   OH242264   0.887   5.936   2.153  0.1738  0.0419 -0.0198
 6950TIP3    H142265   0.911   5.987   2.230 -0.9128 -0.0124  0.3772
 6950TIP3    H242266   0.925   5.983   2.079 -0.2876  1.0875  0.3961
 6951TIP3   OH242267   3.223   6.155   2.011 -0.4099 -0.2731  0.2806
 6951TIP3    H142268   3.133   6.126   2.029 -0.9179  1.1598  0.1354
 6951TIP3    H242269   3.216   6.250   2.001  1.1619 -0.1189  0.4641
 6952TIP3   OH242270   0.903   5.648  15.760  0.1338 -0.5075  0.4878
 6952TIP3    H142271   0.932   5.738  15.744  2.0816 -0.8466  1.7652
 6952TIP3    H242272   0.850   5.654  15.840 -0.2050 -0.4354  0.2618
 6953TIP3   OH242273   5.717   3.316   4.523  0.0940 -0.1035 -0.6054
 6953TIP3    H142274   5.671   3.348   4.446  1.5721  1.0492 -1.0593
 6953TIP3    H242275   5.750   3.395   4.567 -0.2465 -0.7634  0.9304
 6954TIP3   OH242276   0.353   2.820  14.329 -0.0044 -0.4317 -0.0677
 6954TIP3    H142277   0.371   2.726  14.334  2.7771  0.0583  1.5588
 6954TIP3    H242278   0.300   2.830  14.250  2.5543 -3.0217 -2.3898
 6955TIP3   OH242279   6.675   3.610  15.942  0.1412  0.5315  0.6748
 6955TIP3    H142280   6.690   3.652  15.857  0.3720  1.5330  1.2095
 6955TIP3    H242281   6.599   3.554  15.927  1.6030 -1.2070 -0.8636
 6956TIP3   OH242282   3.465   1.880   1.029 -0.3619  0.2592  0.0732
 6956TIP3    H142283   3.404   1.930   1.083 -0.1464  0.9822 -0.3314
 6956TIP3    H242284   3.523   1.947   0.991  1.6561 -0.5306  1.6403
 6957TIP3   OH242285   5.401   3.972  13.008 -0.2257 -0.0331  0.1713
 6957TIP3    H142286   5.438   3.888  13.036 -0.2969  0.0541  0.5341
 6957TIP3    H242287   5.306   3.960  13.016 -0.1871  0.6517  1.9101
 6958TIP3   OH242288   4.683   0.068  13.620  0.0310 -0.0182 -0.5774
 6958TIP3    H142289   4.753   0.009  13.594  0.8225 -0.1852  1.6795
 6958TIP3    H242290   4.710   0.154  13.586  0.2301 -0.4507 -1.5432
 6959TIP3   OH242291   5.715   5.845  16.368 -0.1391 -0.2170  0.1225
 6959TIP3    H142292   5.767   5.889  16.435  0.0855 -0.0450 -0.1608
 6959TIP3    H242293   5.698   5.758  16.404 -0.5834  0.0949  0.6828
 6960TIP3   OH242294   5.491   1.379  13.099 -0.4849 -0.1296  0.0020
 6960TIP3    H142295   5.454   1.399  13.184 -0.6759  0.2141 -0.1600
 6960TIP3    H242296   5.466   1.288  13.083 -2.1986  0.3879 -0.5669
 6961TIP3   OH242297   2.352   1.969  17.348  0.9057 -0.0660 -0.0228
 6961TIP3    H142298   2.373   2.044  17.292  0.3172  0.7005  0.7377
 6961TIP3    H242299   2.437   1.941  17.383  1.0018  1.2094  0.8418
 6962TIP3   OH242300   1.358   5.735  14.577 -0.0030 -0.1016 -0.4853
 6962TIP3    H142301   1.433   5.731  14.637  1.1467  1.4780 -1.7321
 6962TIP3    H242302   1.391   5.781  14.500 -1.1568 -2.8570 -2.7915
 6963TIP3   OH242303   2.225   3.057   5.039  0.2762 -0.6419 -0.1552
 6963TIP3    H142304   2.262   3.032   5.124  0.3393  0.8780  0.2948
 6963TIP3    H242305   2.134   3.026   5.043 -0.0073  0.2539  0.8718
 6964TIP3   OH242306   2.045   2.055  14.175 -0.4709 -0.7972 -0.0687
 6964TIP3    H142307   2.032   2.044  14.081 -1.8705  0.1093 -0.0083
 6964TIP3    H242308   1.965   2.021  14.215  0.1653 -1.3042  0.8275
 6965TIP3   OH242309   1.324   5.394   4.973  0.5887 -0.0332  0.2775
 6965TIP3    H142310   1.398   5.452   4.989  0.1058  0.1506  2.0493
 6965TIP3    H242311   1.299   5.362   5.060 -1.3613 -0.1393 -0.2765
 6966TIP3   OH242312   1.014   6.448  12.754 -0.2760 -0.0728  0.5089
 6966TIP3    H142313   0.963   6.481  12.828 -2.4830  0.3455 -1.0819
 6966TIP3    H242314   1.103   6.442  12.787 -1.4245 -1.6599  3.7463
 6967TIP3   OH242315   4.248   4.614   0.260  0.2542  0.0450  0.1650
 6967TIP3    H142316   4.266   4.605   0.354 -1.1115 -0.0024  0.4476
 6967TIP3    H242317   4.313   4.678   0.229  1.3974 -0.7246  0.9062
 6968TIP3   OH242318   2.912   0.114  16.741  0.1451 -0.4491  0.5317
 6968TIP3    H142319   2.859   0.044  16.780 -1.4600 -0.2869 -1.1704
 6968TIP3    H242320   2.871   0.130  16.655  2.7316  0.0259 -0.7120
 6969TIP3   OH242321   6.168   1.684  17.162  0.5342  0.0764 -0.3972
 6969TIP3    H142322   6.179   1.678  17.067  1.5612 -0.0781 -0.2802
 6969TIP3    H242323   6.253   1.656  17.198  0.1878  0.2193  0.5622
 6970TIP3   OH242324   2.976   6.255  17.371  0.2059 -0.0601 -0.0471
 6970TIP3    H142325   3.020   6.199  17.435  1.2482  0.2415 -0.4899
 6970TIP3    H242326   3.046   6.305  17.329 -0.7730  2.7330  1.3734
 6971TIP3   OH242327   0.769   3.876   5.843  0.3535  0.0103  1.1369
 6971TIP3    H142328   0.826   3.939   5.799  0.3978 -1.6495 -1.4281
 6971TIP3    H242329   0.681   3.912   5.833  0.5354  0.4889  1.2240
 6972TIP3   OH242330   3.546   2.765  14.199  0.1838  0.2395 -0.0260
 6972TIP3    H142331   3.624   2.816  14.217  0.3699  0.0920 -0.4145
 6972TIP3    H242332   3.476   2.830  14.193  0.5303  0.5237 -1.1897
 6973TIP3   OH242333   6.452   2.031   0.193 -0.1776 -0.3397  0.2382
 6973TIP3    H142334   6.416   1.968   0.131  0.8347  0.0379 -0.7526
 6973TIP3    H242335   6.483   1.977   0.266  1.2225 -1.0922 -0.8534
 6974TIP3   OH242336   0.995   0.940   4.904  0.3910  0.1823  0.2935
 6974TIP3    H142337   1.085   0.908   4.912  0.3212  0.0125  0.3865
 6974TIP3    H242338   0.970   0.966   4.992  0.8109  1.4663  0.0477
 6975TIP3   OH242339   0.058   3.690   2.271 -1.1153  0.0494 -0.2276
 6975TIP3    H142340   0.147   3.662   2.292 -1.1991 -0.6229 -0.7302
 6975TIP3    H242341   0.003   3.633   2.324 -1.2687 -0.1428 -0.5925
 6976TIP3   OH242342   1.088   1.153   2.035  0.5737  0.2012 -0.0277
 6976TIP3    H142343   1.084   1.242   2.068  0.1553  0.3014 -0.3434
 6976TIP3    H242344   1.161   1.153   1.973  0.4101  0.3942 -0.2234
 6977TIP3   OH242345   3.671   1.859   3.907  0.6400 -0.9546  0.4407
 6977TIP3    H142346   3.642   1.869   3.816 -0.4641  0.4544  0.9251
 6977TIP3    H242347   3.682   1.948   3.939 -2.2495 -1.2695  2.6984
 6978TIP3   OH242348   0.325   2.864  17.232 -0.1059 -0.0173 -0.1059
 6978TIP3    H142349   0.278   2.842  17.313  1.0450  0.9876  0.8768
 6978TIP3    H242350   0.417   2.846  17.252  0.1396 -0.1815 -1.3480
 6979TIP3   OH242351   2.647   5.087   2.572  0.0402 -0.0781 -0.4983
 6979TIP3    H142352   2.658   5.181   2.560  2.3590  0.0757  1.8548
 6979TIP3    H242353   2.709   5.047   2.511 -0.6037 -0.0717 -1.1618
 6980TIP3   OH242354   1.291   5.791   2.677  0.1830 -0.1195 -0.2004
 6980TIP3    H142355   1.233   5.779   2.752  1.3345 -1.0399  0.5965
 6980TIP3    H242356   1.312   5.884   2.677  1.0609 -0.2770  1.3662
 6981TIP3   OH242357   4.238   5.038  13.855 -0.0435  0.0638 -0.4830
 6981TIP3    H142358   4.230   5.112  13.914  1.5509  0.2468 -0.4471
 6981TIP3    H242359   4.251   4.962  13.912 -4.1276 -0.7882 -0.3637
 6982TIP3   OH242360   5.219   2.630  14.060 -0.3359 -0.0862 -0.2307
 6982TIP3    H142361   5.265   2.551  14.032 -0.4714 -0.4291  0.4831
 6982TIP3    H242362   5.265   2.658  14.139 -0.6719  0.1998 -0.1331
 6983TIP3   OH242363   0.108   1.930   1.043 -0.1795 -0.5401 -0.9692
 6983TIP3    H142364   0.179   1.870   1.065  0.1681  0.1807 -0.0577
 6983TIP3    H242365   0.031   1.895   1.089 -0.0010 -0.3531 -0.5225
 6984TIP3   OH242366   1.377   0.195  10.688  0.4493 -0.8852  1.0415
 6984TIP3    H142367   1.428   0.276  10.680 -1.6574  0.6163  1.9270
 6984TIP3    H242368   1.380   0.156  10.601  0.1109  1.0700  0.0983
 6985TIP3   OH242369   4.363   0.096   3.321 -0.0140  0.1349 -0.0065
 6985TIP3    H142370   4.441   0.110   3.374  0.1071 -1.7345  0.3799
 6985TIP3    H242371   4.336   0.007   3.341 -0.7353 -0.1858 -2.1055
 6986TIP3   OH242372   6.660   2.337   5.754 -0.1234 -0.1237 -0.0038
 6986TIP3    H142373   6.606   2.351   5.676 -0.3971 -1.1341 -0.0059
 6986TIP3    H242374   6.742   2.302   5.720 -0.2980 -0.7076  0.1693
 6987TIP3   OH242375   1.577   4.727  16.643  0.4755  0.3757 -0.1386
 6987TIP3    H142376   1.602   4.656  16.702 -1.4047 -0.1817  0.0724
 6987TIP3    H242377   1.542   4.682  16.566  1.1967  1.0897 -0.8967
 6988TIP3   OH242378   5.677   4.637  14.238  0.2397  0.0541  0.0648
 6988TIP3    H142379   5.751   4.596  14.283  0.2547 -1.1802 -0.9851
 6988TIP3    H242380   5.679   4.728  14.265  1.4079 -0.2246  1.0079
 6989TIP3   OH242381   2.063   0.133  12.349  0.7410 -0.0214  0.3309
 6989TIP3    H142382   2.105   0.094  12.272  0.6981 -1.2648  0.9245
 6989TIP3    H242383   1.972   0.103  12.344  0.1140  1.8435 -0.4053
 6990TIP3   OH242384   4.624   5.566  13.067  0.3279  0.8787  0.5853
 6990TIP3    H142385   4.684   5.493  13.084  0.9859  0.9752 -1.1769
 6990TIP3    H242386   4.567   5.535  12.998 -0.7437  1.3160  1.2541
 6991TIP3   OH242387   3.327   2.877  13.241 -0.4741  0.2264 -0.3933
 6991TIP3    H142388   3.390   2.875  13.313  0.1357  2.8390 -0.7346
 6991TIP3    H242389   3.263   2.943  13.267 -1.3966 -0.2388 -1.3879
 6992TIP3   OH242390   3.665   1.343   1.163  0.5172 -0.0736 -0.4988
 6992TIP3    H142391   3.673   1.437   1.151  1.4700 -0.2920 -1.7803
 6992TIP3    H242392   3.753   1.314   1.187  0.5150 -0.7948 -1.3354
 6993TIP3   OH242393   5.078   5.018  16.485 -0.0038  0.3978  0.1592
 6993TIP3    H142394   5.172   4.999  16.486  0.0194 -0.0942  3.5624
 6993TIP3    H242395   5.050   5.001  16.575 -3.2081  1.4063 -0.5157
 6994TIP3   OH242396   1.148   6.272  17.367  0.1323  0.2636  0.2683
 6994TIP3    H142397   1.111   6.252  17.281 -0.6130  1.2501  0.3397
 6994TIP3    H242398   1.071   6.291  17.421  0.6098 -0.1293  1.1024
 6995TIP3   OH242399   5.222   3.777   5.894  0.6153 -0.5333  0.4098
 6995TIP3    H142400   5.241   3.684   5.898  1.1696 -0.4543 -0.2167
 6995TIP3    H242401   5.294   3.819   5.940  1.9945 -0.2435 -1.8755
 6996TIP3   OH242402   5.121   6.432   1.833 -0.0496 -0.2587 -0.1260
 6996TIP3    H142403   5.123   6.391   1.920  0.1532 -0.0771 -0.0451
 6996TIP3    H242404   5.120   6.526   1.851  0.9894 -0.1948 -0.3290
 6997TIP3   OH242405   2.004   6.435   4.100 -0.6074 -0.1758  0.4789
 6997TIP3    H142406   1.930   6.437   4.039  1.3919 -2.5811 -2.2851
 6997TIP3    H242407   2.042   6.523   4.094 -0.5060 -0.3218 -1.7784
 6998TIP3   OH242408   4.597   5.569  16.252  0.1546  0.0095  0.7616
 6998TIP3    H142409   4.635   5.600  16.170 -2.5859  0.2012 -0.5363
 6998TIP3    H242410   4.638   5.483  16.267  0.8704  0.0745 -0.6818
 6999TIP3   OH242411   5.878   6.134  11.221 -0.2611 -0.6817 -0.3601
 6999TIP3    H142412   5.933   6.189  11.166  0.4457 -0.0594  0.9090
 6999TIP3    H242413   5.937   6.063  11.249  0.6277  1.0755  2.6619
 7000TIP3   OH242414   6.108   5.782   0.612  0.0361 -0.5225 -0.1836
 7000TIP3    H142415   6.016   5.798   0.590 -0.2856 -1.9347  0.0415
 7000TIP3    H242416   6.105   5.713   0.678  1.2709 -0.5787 -0.1705
 7001TIP3   OH242417   5.348   2.241   2.602 -0.4110 -0.0473 -0.0287
 7001TIP3    H142418   5.395   2.167   2.564 -2.7734 -1.1726 -0.9777
 7001TIP3    H242419   5.263   2.241   2.558 -1.7106  1.2435  2.2496
 7002TIP3   OH242420   4.482   0.157  13.050  0.8126  0.2300 -0.3520
 7002TIP3    H142421   4.462   0.064  13.058  0.9406  0.3192  1.3560
 7002TIP3    H242422   4.422   0.200  13.111  0.0681  1.3838 -1.8469
 7003TIP3   OH242423   1.099   0.720  12.675 -0.0438 -0.2891  0.4196
 7003TIP3    H142424   1.040   0.677  12.737 -1.3019 -0.5357 -0.8985
 7003TIP3    H242425   1.081   0.679  12.591  1.1073  0.5312 -0.2663
 7004TIP3   OH242426   2.423   3.734   5.050 -0.1354 -0.1248  0.5534
 7004TIP3    H142427   2.369   3.665   5.089  3.1253 -3.3855 -0.1470
 7004TIP3    H242428   2.496   3.746   5.111  0.2090  1.5780 -0.1303
 7005TIP3   OH242429   1.442   0.379   4.472  0.1789  0.0375 -0.1594
 7005TIP3    H142430   1.407   0.455   4.519 -0.3020  0.0008 -0.4488
 7005TIP3    H242431   1.526   0.362   4.513 -0.4250 -0.2791  1.0047
 7006TIP3   OH242432   4.211   6.713  13.690 -0.3719 -0.4103  0.0936
 7006TIP3    H142433   4.294   6.744  13.655  0.0317 -1.8058 -0.2134
 7006TIP3    H242434   4.172   6.661  13.620 -1.4866  0.1549  0.2581
 7007TIP3   OH242435   1.700   6.104  15.914 -0.1544 -0.2673 -0.0352
 7007TIP3    H142436   1.648   6.035  15.873  2.9070 -2.0583 -1.2883
 7007TIP3    H242437   1.639   6.149  15.972 -3.1106 -1.9179 -1.6061
 7008TIP3   OH242438   4.589   3.741   2.486  0.0120 -0.4559  0.7445
 7008TIP3    H142439   4.596   3.813   2.548 -1.9479 -0.8360  1.4867
 7008TIP3    H242440   4.512   3.764   2.433  0.9767 -0.6994 -0.8090
 7009TIP3   OH242441   3.682   2.500   5.359  0.2964  0.2527 -0.2652
 7009TIP3    H142442   3.709   2.490   5.451 -1.3330 -0.6870  0.1587
 7009TIP3    H242443   3.741   2.444   5.310  1.7790  1.4681  0.0659
 7010TIP3   OH242444   4.917   3.147  13.760 -0.2149 -0.4781  0.1598
 7010TIP3    H142445   4.823   3.135  13.743 -0.5937  0.8453  1.1920
 7010TIP3    H242446   4.934   3.093  13.837 -0.6465  0.9999  1.3238
 7011TIP3   OH242447   1.360   5.705  16.661 -0.1715 -0.3826  0.1702
 7011TIP3    H142448   1.291   5.655  16.705  0.3111 -0.0340  1.3359
 7011TIP3    H242449   1.441   5.667  16.693  0.2069  0.9831  0.8876
 7012TIP3   OH242450   4.171   1.508   4.339  0.5009  0.0648 -0.4497
 7012TIP3    H142451   4.216   1.591   4.355  1.9764 -0.7058 -0.4225
 7012TIP3    H242452   4.156   1.473   4.427 -0.7069  0.5789 -0.4340
 7013TIP3   OH242453   6.055   1.833   0.070 -0.2675  0.2663 -0.3444
 7013TIP3    H142454   6.071   1.803   0.160 -0.6770  2.2280  0.4303
 7013TIP3    H242455   6.139   1.870   0.042 -0.4187  0.5741 -0.3921
 7014TIP3   OH242456   2.568   2.481  15.385  0.0960  0.4155 -0.2873
 7014TIP3    H142457   2.500   2.417  15.407  1.1432 -0.4795  0.4211
 7014TIP3    H242458   2.527   2.538  15.320 -1.2154 -0.3141 -0.1328
 7015TIP3   OH242459   1.109   1.518   2.340 -0.3537 -0.4612 -0.5769
 7015TIP3    H142460   1.045   1.552   2.403  1.3764  1.4178  0.3119
 7015TIP3    H242461   1.171   1.468   2.393  0.8395  0.7099 -0.8091
 7016TIP3   OH242462   3.841   4.661  13.281  0.1123  0.1526 -0.6515
 7016TIP3    H142463   3.819   4.732  13.221  0.6681  1.9523  1.1630
 7016TIP3    H242464   3.760   4.645  13.330 -0.4478 -1.5583 -1.9987
 7017TIP3   OH242465   3.671   2.901   0.045  0.7260  0.2868 -0.2620
 7017TIP3    H142466   3.762   2.869   0.047  1.4034  2.1206  0.2983
 7017TIP3    H242467   3.677   2.990   0.012 -0.6834  0.9692  1.1732
 7018TIP3   OH242468   4.652   2.237  14.913  0.0500  0.0708  0.1045
 7018TIP3    H142469   4.673   2.144  14.920 -0.6080 -0.0676  0.3556
 7018TIP3    H242470   4.611   2.258  14.998  0.1726  0.5779  0.0368
 7019TIP3   OH242471   2.089   6.754  12.977 -0.3183 -0.1072  0.0382
 7019TIP3    H142472   2.050   6.667  12.971  0.5400 -0.4443 -1.0334
 7019TIP3    H242473   2.138   6.764  12.895  0.7309  0.8270  0.7489
 7020TIP3   OH242474   6.514   4.848   1.991  0.4568 -0.2426 -0.0041
 7020TIP3    H142475   6.565   4.768   2.000 -1.3851 -1.5368 -0.3413
 7020TIP3    H242476   6.536   4.900   2.068  1.3493 -1.2835  0.4692
 7021TIP3   OH242477   3.784   1.879   1.259 -0.1380  0.1129 -0.4481
 7021TIP3    H142478   3.850   1.918   1.203 -0.2233  1.3611  0.2768
 7021TIP3    H242479   3.727   1.952   1.284 -0.0045 -0.3480  1.3818
 7022TIP3   OH242480   1.975   3.188   1.685  0.0191  0.2654  0.8115
 7022TIP3    H142481   2.042   3.135   1.643 -0.4590 -0.0914  0.4911
 7022TIP3    H242482   1.901   3.129   1.695  0.4399  0.0210  3.0702
 7023TIP3   OH242483   6.298   6.608   2.054 -0.3614  0.1139  0.0775
 7023TIP3    H142484   6.281   6.519   2.022 -0.3230  0.0280  0.3002
 7023TIP3    H242485   6.221   6.630   2.107 -0.8574  0.6062 -0.8177
 7024TIP3   OH242486   3.637   0.917  17.155  0.0372  0.3949  0.1117
 7024TIP3    H142487   3.602   0.840  17.201  0.3609  0.7550  0.9878
 7024TIP3    H242488   3.662   0.885  17.069 -1.4379 -0.1159 -0.1587
 7025TIP3   OH242489   2.932   5.514  14.671 -0.0365 -0.5417 -0.1846
 7025TIP3    H142490   2.859   5.522  14.610  0.3739 -1.1036 -0.7576
 7025TIP3    H242491   3.008   5.548  14.623  0.2350 -0.7295  0.1055
 7026TIP3   OH242492   0.224   0.259   2.225  0.1961  0.5555  0.3485
 7026TIP3    H142493   0.292   0.264   2.291 -0.9482 -0.3533  1.6437
 7026TIP3    H242494   0.145   0.235   2.273 -0.4386 -1.3531 -1.4773
 7027TIP3   OH242495   3.845   6.656   4.937 -0.8351 -0.3176  0.0504
 7027TIP3    H142496   3.920   6.692   4.889  0.3130 -1.2669  1.0425
 7027TIP3    H242497   3.812   6.729   4.988 -0.4538  0.0763 -0.2545
 7028TIP3   OH242498   0.693   0.157   2.375  0.2760  0.7609  0.3623
 7028TIP3    H142499   0.608   0.202   2.371 -0.0692  0.0520 -0.9982
 7028TIP3    H242500   0.733   0.189   2.456 -2.5713 -1.1517  2.7441
 7029TIP3   OH242501   5.595   0.412  16.816  0.3064  0.1374  0.2055
 7029TIP3    H142502   5.691   0.415  16.812  0.3435  0.2039  0.9808
 7029TIP3    H242503   5.566   0.440  16.729  0.9486  2.8638  0.7692
 7030TIP3   OH242504   5.829   3.214  13.333  0.2121 -0.3224 -0.3181
 7030TIP3    H142505   5.806   3.178  13.419 -0.1870  2.2902  0.7355
 7030TIP3    H242506   5.924   3.221  13.335  0.0524  2.5402  1.1969
 7031TIP3   OH242507   3.888   3.427   1.339  0.7136  0.4914 -0.0938
 7031TIP3    H142508   3.877   3.514   1.301 -1.3375  1.2597  2.0527
 7031TIP3    H242509   3.799   3.392   1.345  1.1228 -0.3319  2.1432
 7032TIP3   OH242510   2.734   5.461  10.941 -0.5716 -0.0093  0.0741
 7032TIP3    H142511   2.696   5.505  10.865  0.0075  0.0449 -0.1944
 7032TIP3    H242512   2.823   5.497  10.947  0.4345 -2.1517 -1.0095
 7033TIP3   OH242513   0.293   6.454  15.693 -0.3774 -0.1292  0.3001
 7033TIP3    H142514   0.301   6.455  15.598  0.2002  0.1488  0.3487
 7033TIP3    H242515   0.372   6.498  15.725 -2.0433  2.7761  0.8173
 7034TIP3   OH242516   5.215   0.231  14.310 -0.3545 -0.2228  0.0945
 7034TIP3    H142517   5.147   0.274  14.258  0.7409  2.1147  0.4751
 7034TIP3    H242518   5.269   0.186  14.246 -2.1346 -2.0572 -0.2252
 7035TIP3   OH242519   5.398   1.431   3.362  0.3099  0.3399  0.2083
 7035TIP3    H142520   5.420   1.356   3.306  2.6274  2.7020 -2.3168
 7035TIP3    H242521   5.345   1.488   3.307 -0.7770  0.9345  1.8234
 7036TIP3   OH242522   6.283   3.215  11.418  0.1604 -0.4729  0.4491
 7036TIP3    H142523   6.294   3.236  11.325  2.0251  0.4881  0.8231
 7036TIP3    H242524   6.203   3.163  11.422 -0.8256  0.7603 -1.4916
 7037TIP3   OH242525   4.163   5.557  12.458 -0.0791  0.3719 -0.7625
 7037TIP3    H142526   4.210   5.493  12.406 -0.0975 -0.2044 -0.0824
 7037TIP3    H242527   4.145   5.629  12.397  4.1065  1.9491 -0.4689
 7038TIP3   OH242528   3.246   3.801   1.097 -0.0301  0.7151 -0.3276
 7038TIP3    H142529   3.195   3.854   1.158  0.0224 -0.1791  0.5258
 7038TIP3    H242530   3.280   3.729   1.150 -0.2965 -0.3091 -1.4889
 7039TIP3   OH242531   1.676   1.990   1.394  0.3824 -0.2096 -0.1285
 7039TIP3    H142532   1.645   2.004   1.484  1.1601 -0.5497  0.2034
 7039TIP3    H242533   1.651   2.069   1.347  2.3553  1.2155  1.0638
 7040TIP3   OH242534   1.190   4.272  11.973  0.4237  0.9532  0.2922
 7040TIP3    H142535   1.277   4.238  11.952 -0.1528 -0.4951  0.1165
 7040TIP3    H242536   1.177   4.249  12.065  0.2200  1.1638  0.3171
 7041TIP3   OH242537   4.761   1.389  16.161  0.0600  0.5090 -0.1725
 7041TIP3    H142538   4.733   1.350  16.244 -1.4776 -1.4342 -1.5306
 7041TIP3    H242539   4.692   1.453  16.141 -0.0641  0.2945 -0.4241
 7042TIP3   OH242540   1.093   3.206   5.479 -0.5089  0.0011  0.3083
 7042TIP3    H142541   1.141   3.172   5.554  0.1420 -1.3955 -0.7075
 7042TIP3    H242542   1.132   3.163   5.403 -2.0577  0.3158 -0.7230
 7043TIP3   OH242543   0.229   4.230   1.785  0.1919 -0.2175  0.2911
 7043TIP3    H142544   0.282   4.153   1.766  0.4466  0.0563 -0.1096
 7043TIP3    H242545   0.184   4.208   1.867 -1.0664 -1.4831 -0.6840
 7044TIP3   OH242546   0.509   2.287  11.571 -0.2586  0.0105  0.1534
 7044TIP3    H142547   0.543   2.368  11.608 -0.6688  0.5631 -0.6547
 7044TIP3    H242548   0.415   2.303  11.558 -0.1896 -0.2801 -0.7924
 7045TIP3   OH242549   5.447   3.466   2.984  0.1119  0.0072 -0.0528
 7045TIP3    H142550   5.446   3.549   2.936  0.6213 -0.8609 -1.6674
 7045TIP3    H242551   5.363   3.465   3.030 -0.3199  1.0045 -0.7589
 7046TIP3   OH242552   0.415   0.721   1.922  0.1512 -0.4808  0.2214
 7046TIP3    H142553   0.375   0.640   1.890  0.8622  0.0391 -2.1499
 7046TIP3    H242554   0.470   0.693   1.995  2.1667 -2.5618 -1.9256
 7047TIP3   OH242555   2.468   4.023  11.831 -0.1279 -0.3004 -0.4012
 7047TIP3    H142556   2.509   4.075  11.762  2.1142 -0.9554  0.3393
 7047TIP3    H242557   2.539   3.970  11.866 -2.0757 -3.2278 -0.4819
 7048TIP3   OH242558   4.365   0.517  14.673 -0.2016  0.2335  0.0639
 7048TIP3    H142559   4.428   0.556  14.613  1.1938  0.2792  1.4964
 7048TIP3    H242560   4.330   0.442  14.627  0.0162  0.8986 -1.2154
 7049TIP3   OH242561   0.326   4.356   3.221  0.3992  0.5766 -0.0232
 7049TIP3    H142562   0.393   4.292   3.201 -1.1255 -1.2594  0.4685
 7049TIP3    H242563   0.366   4.440   3.199  2.2797 -0.5505 -1.2013
 7050TIP3   OH242564   5.487   2.796   4.596 -0.3089 -0.2431 -0.1943
 7050TIP3    H142565   5.414   2.741   4.566  0.5357 -0.6183 -1.6476
 7050TIP3    H242566   5.563   2.765   4.547  0.6310  0.8122  0.5389
 7051TIP3   OH242567   3.150   4.024  11.312  0.3425  0.1273  0.2579
 7051TIP3    H142568   3.222   4.001  11.255 -1.2279 -1.7119 -1.1103
 7051TIP3    H242569   3.074   4.032  11.254 -0.8446  0.6629  1.7879
 7052TIP3   OH242570   4.988   3.812  16.367 -0.2985  0.3931  0.6270
 7052TIP3    H142571   4.998   3.887  16.309  4.9916  0.6910  1.4450
 7052TIP3    H242572   5.000   3.848  16.455 -1.6473 -0.9798  1.4423
 7053TIP3   OH242573   0.317   0.824   1.387 -0.1992  0.0743  0.3948
 7053TIP3    H142574   0.358   0.815   1.473 -0.1515  0.1455  0.3799
 7053TIP3    H242575   0.336   0.742   1.343  0.6022  0.4049  0.1028
 7054TIP3   OH242576   6.516   4.172  11.200 -0.5793  0.1908 -0.2044
 7054TIP3    H142577   6.522   4.190  11.294 -0.4241  0.8506 -0.3311
 7054TIP3    H242578   6.547   4.082  11.190 -1.0050 -0.0343  0.4253
 7055TIP3   OH242579   6.703   1.038  15.005  0.3795 -0.4689  0.6529
 7055TIP3    H142580   6.704   1.089  14.924 -0.0456 -0.4532  0.6551
 7055TIP3    H242581   6.653   0.960  14.983  1.5463 -1.1890  0.4766
 7056TIP3   OH242582   5.315   4.903   1.144 -0.0744  0.1873 -1.0611
 7056TIP3    H142583   5.398   4.900   1.192 -1.1375  1.6447  1.0333
 7056TIP3    H242584   5.249   4.875   1.208 -1.2282 -1.0307 -2.6969
 7057TIP3   OH242585   4.172   3.644  13.907  0.0592 -0.0865  1.0796
 7057TIP3    H142586   4.175   3.724  13.959 -0.2992  1.7514 -1.5089
 7057TIP3    H242587   4.263   3.624  13.887  0.4448 -2.3438  4.3764
 7058TIP3   OH242588   6.707   0.646   4.865 -0.3164 -0.2552  0.4007
 7058TIP3    H142589   6.626   0.665   4.913 -0.0707  3.5708 -0.3920
 7058TIP3    H242590   6.678   0.633   4.775 -0.0942  1.7381 -0.0019
 7059TIP3   OH242591   1.389   0.914  11.455 -0.4818 -0.1155  0.1398
 7059TIP3    H142592   1.478   0.945  11.439 -1.3621  1.5526 -2.2437
 7059TIP3    H242593   1.345   0.926  11.371 -3.1756 -0.0761  1.4554
 7060TIP3   OH242594   4.089   1.071   1.220 -0.1321 -0.0639 -0.8122
 7060TIP3    H142595   3.998   1.046   1.203  0.2507 -1.4350 -0.9367
 7060TIP3    H242596   4.127   0.996   1.265  0.2857  1.4532  1.5172
 7061TIP3   OH242597   6.721   1.286   3.142  0.1772  0.0597 -0.9448
 7061TIP3    H142598   6.803   1.334   3.135  0.5054 -0.2153  0.5594
 7061TIP3    H242599   6.733   1.229   3.218 -1.7704  0.7989 -0.0012
 7062TIP3   OH242600   4.958   5.164   4.034  0.0831  0.2016  0.1933
 7062TIP3    H142601   4.897   5.155   3.960  0.7132  1.3087 -0.4869
 7062TIP3    H242602   4.908   5.133   4.110 -0.2320 -1.9579 -0.8237
 7063TIP3   OH242603   3.222   4.393  16.090 -0.0775 -0.0041 -0.2681
 7063TIP3    H142604   3.204   4.307  16.054  0.0775  0.2080 -0.8580
 7063TIP3    H242605   3.311   4.386  16.125 -0.7396 -0.6470  1.4362
 7064TIP3   OH242606   1.017   5.726   3.755 -0.2480 -0.3938  0.2289
 7064TIP3    H142607   0.988   5.648   3.802 -0.4593 -0.4706 -0.0287
 7064TIP3    H242608   1.111   5.732   3.774 -0.0237 -1.2678 -0.5504
 7065TIP3   OH242609   5.562   5.905   5.194  0.1102 -0.1348 -0.0456
 7065TIP3    H142610   5.638   5.928   5.248  0.8280 -1.5628 -0.3714
 7065TIP3    H242611   5.510   5.985   5.189  1.1337  0.6250  0.9500
 7066TIP3   OH242612   5.362   0.782   0.243 -0.5133  0.1751 -0.3177
 7066TIP3    H142613   5.332   0.828   0.165 -0.2935  0.8495 -0.0061
 7066TIP3    H242614   5.289   0.723   0.266 -1.2525  1.1711 -0.0651
 7067TIP3   OH242615   0.536   4.540   3.873 -0.8398 -0.5137 -0.2461
 7067TIP3    H142616   0.508   4.481   3.943 -0.8360 -1.3919 -0.9678
 7067TIP3    H242617   0.631   4.528   3.867 -0.7292  0.1280  0.0983
 7068TIP3   OH242618   0.836   1.106  11.033  0.9366  0.4852  0.1735
 7068TIP3    H142619   0.906   1.071  10.978  0.4201 -1.7965  0.8711
 7068TIP3    H242620   0.762   1.117  10.973  1.1360  0.5001 -0.0748
 7069TIP3   OH242621   4.257   1.743  15.177 -0.4671 -0.2523 -0.0330
 7069TIP3    H142622   4.287   1.687  15.249  2.6727 -0.5459 -1.3990
 7069TIP3    H242623   4.171   1.709  15.153 -0.1821 -2.1845  1.4906
 7070TIP3   OH242624   6.116   1.843   1.051  0.0155  0.0706 -0.6079
 7070TIP3    H142625   6.100   1.816   0.960 -0.0535  0.0070 -0.5770
 7070TIP3    H242626   6.029   1.864   1.086  0.0264 -0.0440 -0.5127
 7071TIP3   OH242627   2.825   3.712   1.405 -0.1118 -0.3336 -0.9825
 7071TIP3    H142628   2.822   3.616   1.412  0.2804 -0.3147 -0.3657
 7071TIP3    H242629   2.915   3.734   1.430 -0.6637  0.3084  0.5746
 7072TIP3   OH242630   2.559   4.632  15.493 -0.4778  0.2493 -0.5699
 7072TIP3    H142631   2.508   4.647  15.414  0.4122  0.5462 -1.1096
 7072TIP3    H242632   2.612   4.712  15.503 -1.0879  0.5211  0.7284
 7073TIP3   OH242633   2.244   0.220   0.673  0.6090  0.1902  0.0100
 7073TIP3    H142634   2.299   0.252   0.602  3.3510 -1.1278  1.3768
 7073TIP3    H242635   2.242   0.125   0.660 -1.0392  0.1653  0.2593
 7074TIP3   OH242636   0.578   6.718   0.111 -0.0898  0.0841  0.2687
 7074TIP3    H142637   0.543   6.803   0.139 -0.9215  0.0177 -0.5317
 7074TIP3    H242638   0.661   6.740   0.068  0.1542  0.3924  0.8831
 7075TIP3   OH242639   5.693   6.089  13.995 -0.1233 -0.4714  0.3444
 7075TIP3    H142640   5.653   6.037  13.926 -0.0585 -2.3762  1.6395
 7075TIP3    H242641   5.681   6.180  13.968 -2.3103 -1.0673 -0.9251
 7076TIP3   OH242642   3.118   0.788  11.141 -0.0974 -0.1258  0.0833
 7076TIP3    H142643   3.161   0.713  11.099 -1.8902  0.0187 -2.1999
 7076TIP3    H242644   3.133   0.861  11.082 -1.1126  0.5634  0.6422
 7077TIP3   OH242645   5.373   1.976  13.142  0.0184  0.7270  0.2803
 7077TIP3    H142646   5.319   1.901  13.119 -3.1137  2.9657 -0.2378
 7077TIP3    H242647   5.375   1.976  13.238 -0.1222  0.1412  0.2863
 7078TIP3   OH242648   0.222   5.496  13.774  0.0266  0.0614  0.0320
 7078TIP3    H142649   0.235   5.401  13.777 -1.9965 -0.3854 -2.1734
 7078TIP3    H242650   0.174   5.517  13.853 -1.3903 -1.1502 -0.4682
 7079TIP3   OH242651   1.946   4.151   4.203  0.2170  0.2258 -0.1306
 7079TIP3    H142652   1.973   4.091   4.134 -1.0650 -1.4080  0.7080
 7079TIP3    H242653   1.928   4.094   4.278  0.3485  1.8226  1.1621
 7080TIP3   OH242654   1.334   5.467  12.145 -0.4608  1.2933 -0.3805
 7080TIP3    H142655   1.327   5.423  12.229 -0.3069 -1.0222 -1.5103
 7080TIP3    H242656   1.250   5.449  12.101  0.3516  0.3479 -1.6371
 7081TIP3   OH242657   4.023   0.127  16.660 -0.2629  0.0501 -0.6223
 7081TIP3    H142658   4.111   0.136  16.697  0.3081  0.2414 -1.9574
 7081TIP3    H242659   4.009   0.209  16.613 -1.9319  0.8172  1.0598
 7082TIP3   OH242660   1.320   3.255  15.778 -0.5478  0.1306 -0.0118
 7082TIP3    H142661   1.399   3.210  15.808 -0.5014  0.0348 -0.2751
 7082TIP3    H242662   1.265   3.185  15.740 -0.0145  0.4266 -1.4100
 7083TIP3   OH242663   3.086   0.215   0.531  0.0565 -0.1436  0.0082
 7083TIP3    H142664   3.080   0.285   0.595 -0.4493 -0.7571  0.6477
 7083TIP3    H242665   3.173   0.178   0.544  1.1715  1.6483 -1.7319
 7084TIP3   OH242666   5.197   2.961  10.211  0.0624 -0.1181 -0.1153
 7084TIP3    H142667   5.276   2.936  10.258  0.4769 -0.6201 -1.0494
 7084TIP3    H242668   5.126   2.918  10.259  0.4935 -0.7660 -0.0347
 7085TIP3   OH242669   0.344   4.168   4.693 -0.4183 -0.0167 -0.0631
 7085TIP3    H142670   0.389   4.249   4.719 -0.4247 -0.0138 -0.0608
 7085TIP3    H242671   0.403   4.098   4.722 -0.2907 -0.0053 -0.2934
 7086TIP3   OH242672   1.979   6.691  14.173  0.7587  0.4457 -0.1998
 7086TIP3    H142673   1.989   6.598  14.152 -1.1284  0.1974 -0.2530
 7086TIP3    H242674   1.918   6.692  14.247  1.7770  1.6004  0.6601
 7087TIP3   OH242675   1.657   3.763  13.098 -0.1756 -0.8746 -0.1883
 7087TIP3    H142676   1.721   3.800  13.038  0.5071 -1.0109  0.4405
 7087TIP3    H242677   1.702   3.760  13.182 -1.2749 -0.2308  0.4479
 7088TIP3   OH242678   4.298   4.579   0.731 -0.6530 -0.2764 -0.1829
 7088TIP3    H142679   4.283   4.517   0.803  1.7610  0.9425  1.4928
 7088TIP3    H242680   4.354   4.531   0.670 -0.0639 -0.2896  0.3530
 7089TIP3   OH242681   0.276   2.657  15.924  0.2248 -0.3553 -0.1072
 7089TIP3    H142682   0.206   2.639  15.861  0.9327 -0.2546 -0.9372
 7089TIP3    H242683   0.262   2.748  15.949 -0.6251 -0.6693  0.6209
 7090TIP3   OH242684   0.257   1.388   2.897  0.2592  0.5486 -0.2954
 7090TIP3    H142685   0.340   1.434   2.887  0.5798 -0.1729 -1.1699
 7090TIP3    H242686   0.275   1.320   2.962 -0.2547  1.7064  1.1067
 7091TIP3   OH242687   2.951   1.381   4.082 -0.5975  0.0954 -0.2222
 7091TIP3    H142688   2.994   1.305   4.044  0.1462  0.3650  0.0560
 7091TIP3    H242689   2.869   1.390   4.034  0.3536  0.4833 -1.8351
 7092TIP3   OH242690   3.000   5.175  12.363  0.7960 -0.0849  0.4315
 7092TIP3    H142691   3.044   5.113  12.305  0.3519 -1.2172  1.2685
 7092TIP3    H242692   2.920   5.199  12.316  0.0342 -1.6178  0.8841
 7093TIP3   OH242693   2.670   4.867  11.489 -0.8434  0.1150 -0.2268
 7093TIP3    H142694   2.744   4.921  11.516 -0.8454 -0.8279  1.7869
 7093TIP3    H242695   2.696   4.777  11.508 -2.7200 -0.2043  1.2181
 7094TIP3   OH242696   4.936   1.219   6.082 -0.1730  0.0999 -0.0556
 7094TIP3    H142697   4.947   1.125   6.099  0.4647  0.5555  2.5171
 7094TIP3    H242698   5.009   1.243   6.026  2.2081 -0.2259  2.6866
 7095TIP3   OH242699   4.252   2.636   2.348  0.2587  1.4194 -0.3691
 7095TIP3    H142700   4.228   2.660   2.258 -0.1552  1.8234 -0.1579
 7095TIP3    H242701   4.168   2.617   2.390  0.4275  1.5450  0.0225
 7096TIP3   OH242702   5.167   3.165  14.673  0.0956  0.6983  0.6974
 7096TIP3    H142703   5.252   3.149  14.714  0.1091  0.2819  0.5148
 7096TIP3    H242704   5.117   3.085  14.689  0.3459  0.2344 -0.6866
 7097TIP3   OH242705   0.695   3.234  15.160  0.3929  0.0613  0.7833
 7097TIP3    H142706   0.690   3.308  15.100  0.9152 -1.6605 -1.5014
 7097TIP3    H242707   0.785   3.203  15.152 -0.2443 -1.8074  0.3898
 7098TIP3   OH242708   5.294   6.415  12.167  0.3919 -0.2821  0.3955
 7098TIP3    H142709   5.294   6.336  12.220  0.2268 -0.0960  0.6774
 7098TIP3    H242710   5.255   6.389  12.084  1.8623 -0.8945 -0.1189
 7099TIP3   OH242711   4.159   0.863   6.090  0.0630 -0.2243  0.8933
 7099TIP3    H142712   4.222   0.843   6.159 -1.1869 -0.4138  2.0118
 7099TIP3    H242713   4.106   0.783   6.083 -0.4283  0.1416  0.3777
 7100TIP3   OH242714   4.053   2.120   0.162 -0.0242  0.3509  0.2867
 7100TIP3    H142715   4.049   2.203   0.210 -0.9357 -0.0064  0.8505
 7100TIP3    H242716   4.078   2.055   0.228 -0.6539 -0.0429  0.1381
 7101TIP3   OH242717   3.351   1.113  14.847  0.5665  0.0443  0.2384
 7101TIP3    H142718   3.346   1.018  14.858 -2.0154  0.0384 -0.4100
 7101TIP3    H242719   3.273   1.136  14.796  0.8577  2.5731  0.7896
 7102TIP3   OH242720   6.365   0.133  14.692  0.1371  0.0165  0.4876
 7102TIP3    H142721   6.447   0.095  14.723  1.0006  1.3214 -0.0813
 7102TIP3    H242722   6.360   0.109  14.600 -0.9489 -1.3812  0.8727
 7103TIP3   OH242723   4.000   5.353   2.568 -0.1331  0.3730  0.0705
 7103TIP3    H142724   4.062   5.380   2.500 -0.5505 -3.8745 -2.3052
 7103TIP3    H242725   4.003   5.258   2.568 -1.8677  0.0633  4.5833
 7104TIP3   OH242726   1.032   0.593   3.812 -0.3552 -0.2413 -0.0089
 7104TIP3    H142727   1.067   0.600   3.901 -1.6574  0.4748  0.4724
 7104TIP3    H242728   1.100   0.632   3.757 -0.1012  0.5511  0.8268
 7105TIP3   OH242729   1.305   6.382   2.073  0.0630  0.2976 -0.2667
 7105TIP3    H142730   1.360   6.409   2.000 -1.1101  0.0758 -1.2542
 7105TIP3    H242731   1.332   6.292   2.091 -0.0450  0.1531 -0.8125
 7106TIP3   OH242732   1.883   1.224   0.525 -0.3541 -0.6934  0.2883
 7106TIP3    H142733   1.883   1.311   0.565 -0.5945  0.2041 -1.5557
 7106TIP3    H242734   1.796   1.189   0.542 -1.4132  0.8052 -1.6746
 7107TIP3   OH242735   1.595   3.779  15.873 -0.1210 -0.4060 -0.4052
 7107TIP3    H142736   1.680   3.787  15.829 -0.9634  1.1880 -1.8760
 7107TIP3    H242737   1.616   3.766  15.965  1.7102 -0.2995 -0.7771
 7108TIP3   OH242738   1.970   1.496   5.737 -0.7827 -0.2339 -0.3144
 7108TIP3    H142739   2.008   1.443   5.808  0.2700 -0.0045 -0.6764
 7108TIP3    H242740   1.977   1.442   5.659  0.4562  0.4619 -0.7194
 7109TIP3   OH242741   0.801   0.665  12.412  0.9404 -0.0092 -0.1688
 7109TIP3    H142742   0.824   0.684  12.321  1.0507 -0.5464 -0.2537
 7109TIP3    H242743   0.885   0.664  12.458  1.1079 -1.7215 -0.4354
 7110TIP3   OH242744   4.266   3.387  12.993  0.1748  0.4835 -0.6989
 7110TIP3    H142745   4.266   3.483  12.992 -0.2798  0.6766 -5.0029
 7110TIP3    H242746   4.173   3.364  12.989  0.3229 -0.0184 -1.4672
 7111TIP3   OH242747   1.739   1.875  10.602 -0.3022  0.2296  0.1210
 7111TIP3    H142748   1.659   1.883  10.654 -0.5001  1.6408 -0.3577
 7111TIP3    H242749   1.731   1.943  10.535  0.8468 -0.2637 -0.5524
 7112TIP3   OH242750   4.088   6.322  14.833 -0.4753 -0.2576 -0.0553
 7112TIP3    H142751   4.010   6.341  14.884  0.5029  0.6288  1.2100
 7112TIP3    H242752   4.072   6.237  14.793 -2.5978  0.4821 -0.9151
 7113TIP3   OH242753   5.931   1.863  14.345 -0.2417  0.5045 -0.0977
 7113TIP3    H142754   5.943   1.882  14.438  1.2749 -2.0710  0.3448
 7113TIP3    H242755   6.009   1.899  14.303  2.3177 -3.5571  0.6529
 7114TIP3   OH242756   0.988   5.368   4.902  0.6941  0.2447  0.2305
 7114TIP3    H142757   1.013   5.449   4.858 -0.3582  1.4880  1.8070
 7114TIP3    H242758   1.053   5.304   4.873  2.0033  1.8225 -0.4758
 7115TIP3   OH242759   6.192   0.527  13.118  0.2276 -0.2987 -0.5663
 7115TIP3    H142760   6.148   0.444  13.134  1.1056 -0.3254  2.1408
 7115TIP3    H242761   6.137   0.570  13.052 -1.7435 -1.8840 -0.0570
 7116TIP3   OH242762   2.201   4.205   5.314  0.0009  0.4165  0.3862
 7116TIP3    H142763   2.293   4.186   5.295  0.5964  1.6656  1.7807
 7116TIP3    H242764   2.186   4.165   5.400 -0.6732  0.4745  0.2991
 7117TIP3   OH242765   2.594   2.030  16.229  0.1821 -0.0632  0.6516
 7117TIP3    H142766   2.658   2.007  16.295  1.7897  0.8456 -0.5296
 7117TIP3    H242767   2.531   2.086  16.275  0.2352 -0.9206  1.8096
 7118TIP3   OH242768   0.511   4.320   3.561  0.1418  0.5426  0.1824
 7118TIP3    H142769   0.524   4.321   3.656  0.9237  0.0896  0.0892
 7118TIP3    H242770   0.470   4.404   3.542 -0.6175  0.3734  1.0035
 7119TIP3   OH242771   2.945   1.768   5.851  0.5323 -0.1499  0.4397
 7119TIP3    H142772   2.860   1.811   5.858  0.2191 -0.2326 -1.8795
 7119TIP3    H242773   2.960   1.729   5.937 -1.5116  0.3561  1.0766
 7120TIP3   OH242774   6.389   4.308   3.686  0.0347 -0.1382 -0.3024
 7120TIP3    H142775   6.358   4.235   3.739  2.0943 -0.9087 -0.0787
 7120TIP3    H242776   6.315   4.368   3.682 -0.4193 -0.3644  2.8669
 7121TIP3   OH242777   0.626   0.932  15.371  0.2292  0.1443  0.6089
 7121TIP3    H142778   0.545   0.978  15.348  1.2116  2.0096  0.6831
 7121TIP3    H242779   0.680   0.937  15.292  0.2376 -1.2542  0.4946
 7122TIP3   OH242780   4.282   2.834   3.128 -0.1040 -0.4369 -0.4651
 7122TIP3    H142781   4.328   2.907   3.169 -2.2738  1.0129 -0.4267
 7122TIP3    H242782   4.261   2.775   3.200  0.0890 -0.1975 -0.2109
 7123TIP3   OH242783   5.533   0.203   2.763  0.4106  0.1937  0.1801
 7123TIP3    H142784   5.466   0.200   2.831  0.2495  0.5672  0.0358
 7123TIP3    H242785   5.486   0.185   2.681  0.4836  0.4748  0.0761
 7124TIP3   OH242786   3.903   3.989  15.427  0.0189 -0.2693 -0.2335
 7124TIP3    H142787   3.930   3.898  15.434 -1.9296 -1.1198 -2.4565
 7124TIP3    H242788   3.818   3.986  15.384 -0.3074  2.5937  0.0090
 7125TIP3   OH242789   0.741   3.062   0.580  0.0749 -0.0395 -0.4604
 7125TIP3    H142790   0.658   3.093   0.616 -0.2976 -2.4128  0.9036
 7125TIP3    H242791   0.721   3.041   0.489 -1.2413 -1.8659  0.1935
 7126TIP3   OH242792   1.017   3.802  15.789 -0.2820  0.1900 -0.1353
 7126TIP3    H142793   0.997   3.826  15.879  0.0132  0.4506 -0.1374
 7126TIP3    H242794   1.050   3.883  15.749 -1.0046  0.2373 -0.6509
 7127TIP3   OH242795   2.056   6.565   0.171  0.1567  0.1320  0.0125
 7127TIP3    H142796   2.066   6.657   0.145 -0.6571  0.2708  0.1819
 7127TIP3    H242797   1.968   6.559   0.207 -0.0333 -0.8525 -0.5607
 7128TIP3   OH242798   4.446   1.623   0.844 -0.3133  0.2804  0.0156
 7128TIP3    H142799   4.459   1.548   0.785 -1.5172 -1.3044  1.6299
 7128TIP3    H242800   4.460   1.587   0.932 -0.8634  1.9738  0.8442
 7129TIP3   OH242801   3.052   0.217   0.944 -0.6140 -0.1264  0.7300
 7129TIP3    H142802   2.972   0.259   0.911 -0.0316  0.6138  0.2270
 7129TIP3    H242803   3.040   0.215   1.039 -2.3033 -2.2754  0.5495
 7130TIP3   OH242804   2.140   1.095   0.513  0.2744 -0.1834 -0.4691
 7130TIP3    H142805   2.156   1.118   0.421 -1.1436  0.8135 -0.5036
 7130TIP3    H242806   2.055   1.135   0.533 -0.0488 -1.4847  0.9109
 7131TIP3   OH242807   4.050   2.990  12.290  0.0841 -0.0706  0.2594
 7131TIP3    H142808   4.100   3.024  12.215 -0.8297  0.4180 -0.1480
 7131TIP3    H242809   3.959   3.013  12.270 -0.2551 -0.5759  1.1832
 7132TIP3   OH242810   5.443   1.584   2.295  0.3323 -0.3460  0.1514
 7132TIP3    H142811   5.354   1.592   2.261  0.5976  2.4179 -0.1409
 7132TIP3    H242812   5.441   1.508   2.352 -2.7636  0.7530  1.7281
 7133TIP3   OH242813   2.776   3.273   3.166 -0.8662 -0.1852 -0.4923
 7133TIP3    H142814   2.809   3.337   3.104 -1.0533  0.5127  0.1117
 7133TIP3    H242815   2.824   3.192   3.146  0.4702  0.5362 -0.2931
 7134TIP3   OH242816   0.659   0.021  12.608  0.0286 -0.2721  0.3572
 7134TIP3    H142817   0.752   0.017  12.627  0.0259 -0.6226  0.2983
 7134TIP3    H242818   0.654   0.030  12.513  0.0524  1.8225  0.4994
 7135TIP3   OH242819   4.425   4.004  11.895  0.4775 -0.1885  0.0435
 7135TIP3    H142820   4.337   3.966  11.892  0.7942 -1.1726  1.9579
 7135TIP3    H242821   4.461   3.976  11.979  2.2686  1.0212 -0.2620
 7136TIP3   OH242822   5.714   0.741  14.150 -0.2970  0.1579 -0.2963
 7136TIP3    H142823   5.784   0.786  14.103  0.1447  1.2274  1.3007
 7136TIP3    H242824   5.721   0.650  14.123  1.5966  0.2817 -0.3388
 7137TIP3   OH242825   3.161   6.722  16.226 -0.1891  0.3599  0.2149
 7137TIP3    H142826   3.123   6.666  16.158 -0.7925  1.1959 -0.1572
 7137TIP3    H242827   3.098   6.793  16.236  1.8444  2.5529 -1.3821
 7138TIP3   OH242828   2.706   5.095  13.442  0.0778 -0.8653  0.1868
 7138TIP3    H142829   2.707   5.005  13.409 -0.7697 -0.6035 -0.6002
 7138TIP3    H242830   2.615   5.112  13.465 -0.4273  0.7507 -2.5327
 7139TIP3   OH242831   5.419   3.496   4.628 -0.1193 -0.3913 -0.4771
 7139TIP3    H142832   5.333   3.457   4.644 -0.4854 -0.3397 -2.1417
 7139TIP3    H242833   5.481   3.427   4.654 -0.7457 -1.7503 -2.3018
 7140TIP3   OH242834   0.390   0.646   5.508 -0.0185 -0.0494  0.3077
 7140TIP3    H142835   0.422   0.731   5.537  1.6218 -0.0073 -1.4671
 7140TIP3    H242836   0.370   0.658   5.415 -1.5929 -1.1380  0.4503
 7141TIP3   OH242837   2.935   0.555  13.792  0.4828  0.3774  0.0323
 7141TIP3    H142838   2.898   0.641  13.776  1.8945  0.9876 -0.1561
 7141TIP3    H242839   2.929   0.509  13.708  1.2521  0.9276 -0.3401
 7142TIP3   OH242840   4.703   4.749  13.886  0.0603 -0.6611 -0.1767
 7142TIP3    H142841   4.787   4.773  13.924 -1.4482  2.9592  1.3095
 7142TIP3    H242842   4.718   4.751  13.791  1.3461  1.6361  0.0054
 7143TIP3   OH242843   0.176   4.330   4.507 -0.0305 -0.4493  0.0412
 7143TIP3    H142844   0.151   4.409   4.554  0.4026 -0.3725  0.1407
 7143TIP3    H242845   0.168   4.260   4.571 -0.1723 -0.4519  0.0210
 7144TIP3   OH242846   0.556   4.677  14.474  0.0182 -0.0933 -0.1575
 7144TIP3    H142847   0.594   4.680  14.386  2.7612  1.0868  0.9294
 7144TIP3    H242848   0.462   4.689  14.461  0.1236 -1.4443 -2.9805
 7145TIP3   OH242849   4.565   4.694   0.386 -0.3821  0.4309  0.4867
 7145TIP3    H142850   4.648   4.665   0.423 -0.5808  0.4095  0.9212
 7145TIP3    H242851   4.546   4.777   0.430  0.7960  1.9138 -1.6429
 7146TIP3   OH242852   1.058   5.004  17.057 -0.3811  0.4129  0.0429
 7146TIP3    H142853   1.113   5.081  17.043  0.7789 -0.2902  0.6309
 7146TIP3    H242854   0.969   5.036  17.043  0.0077  2.0449  1.0493
 7147TIP3   OH242855   5.172   1.969  17.273  0.2701 -0.1142 -0.1632
 7147TIP3    H142856   5.179   2.044  17.332 -0.1315  0.4648 -0.8303
 7147TIP3    H242857   5.087   1.929  17.294  0.2574 -0.0808 -0.1499
 7148TIP3   OH242858   0.746   2.596  17.283  0.3801  0.1414 -0.3221
 7148TIP3    H142859   0.749   2.541  17.361 -1.5512  0.5074  0.0732
 7148TIP3    H242860   0.678   2.557  17.229  0.9306  0.5436 -1.3252
 7149TIP3   OH242861   5.062   5.961   2.733 -0.6616  0.0367 -0.5922
 7149TIP3    H142862   4.989   5.976   2.792 -0.5343  2.4371 -0.9232
 7149TIP3    H242863   5.024   5.966   2.645 -0.1901  1.0957 -0.7611
 7150TIP3   OH242864   3.373   0.005   0.652 -0.2781  1.0579  0.0517
 7150TIP3    H142865   3.305  -0.031   0.595  0.6018  0.2173 -0.4844
 7150TIP3    H242866   3.360  -0.040   0.736 -0.4547  1.0037 -0.0046
 7151TIP3   OH242867   4.695   4.505  15.006 -0.1170 -0.3363  0.3283
 7151TIP3    H142868   4.669   4.584  14.959 -0.5027  0.8913  2.4840
 7151TIP3    H242869   4.614   4.457  15.020 -0.1377 -0.2639  0.4668
 7152TIP3   OH242870   2.429   4.442  13.462 -0.2649  0.1489  0.2434
 7152TIP3    H142871   2.479   4.366  13.490 -1.5907 -1.4895 -1.6303
 7152TIP3    H242872   2.382   4.470  13.541 -0.2052 -1.3118  0.8169
 7153TIP3   OH242873   6.360   4.034  15.457 -0.0738  0.2996  0.1224
 7153TIP3    H142874   6.272   4.026  15.419 -0.6481 -1.0797  1.6107
 7153TIP3    H242875   6.375   4.128  15.465 -1.4659  0.5558 -0.0716
 7154TIP3   OH242876   2.884   6.623   4.896  0.8342  0.2145  0.1613
 7154TIP3    H142877   2.869   6.670   4.978 -1.2140 -2.0941  1.2461
 7154TIP3    H242878   2.964   6.573   4.911  1.1914  0.7987  0.2278
 7155TIP3   OH242879   2.637   1.231  11.198 -0.0387 -0.6057 -0.4267
 7155TIP3    H142880   2.586   1.266  11.271  0.7749  0.5266 -0.3723
 7155TIP3    H242881   2.603   1.277  11.121  0.6627 -0.0978 -0.4362
 7156TIP3   OH242882   3.123   3.105  14.508 -0.3696 -0.2536  0.5794
 7156TIP3    H142883   3.179   3.028  14.519 -2.0686 -1.7398 -0.5959
 7156TIP3    H242884   3.072   3.108  14.590 -0.7533 -0.8065  0.3723
 7157TIP3   OH242885   6.458   4.729  12.482  0.1223  0.0888  0.3684
 7157TIP3    H142886   6.480   4.654  12.427  0.1498 -1.6146  2.5328
 7157TIP3    H242887   6.459   4.693  12.571 -2.7024  1.9921  1.2916
 7158TIP3   OH242888   3.572   5.097   2.500  0.2752  0.0442  0.4749
 7158TIP3    H142889   3.623   5.127   2.576 -1.7500 -0.4968  2.1612
 7158TIP3    H242890   3.567   5.002   2.511  0.9043 -0.1714 -1.0014
 7159TIP3   OH242891   3.587   0.487  17.079 -0.3887  0.2357 -0.0472
 7159TIP3    H142892   3.595   0.394  17.100 -0.1500 -0.0410 -1.2816
 7159TIP3    H242893   3.671   0.509  17.039 -0.2378  1.1345  0.7332
 7160TIP3   OH242894   5.278   6.173   6.064 -0.3537  0.9826  0.1435
 7160TIP3    H142895   5.282   6.212   6.151 -0.9128 -1.8492  1.5325
 7160TIP3    H242896   5.368   6.179   6.031  0.3272  0.2594  1.7823
 7161TIP3   OH242897   1.282   5.762   3.804 -0.1018  0.8217 -0.1400
 7161TIP3    H142898   1.372   5.747   3.831 -0.1776 -1.4425 -0.9745
 7161TIP3    H242899   1.282   5.852   3.771  2.3107  0.3071 -1.8049
 7162TIP3   OH242900   1.741   3.301   5.491 -0.2226  0.1628 -0.4590
 7162TIP3    H142901   1.793   3.221   5.496  0.9826  0.8786 -0.8761
 7162TIP3    H242902   1.674   3.283   5.426 -1.4831 -1.2987  1.1536
 7163TIP3   OH242903   5.704   1.528   1.235 -0.0573 -0.0291  0.7348
 7163TIP3    H142904   5.663   1.601   1.189 -0.6803  0.2501  1.6930
 7163TIP3    H242905   5.762   1.488   1.171 -0.3988  0.7516 -0.0771
 7164TIP3   OH242906   4.591   5.506  12.469 -0.0079 -0.4158  0.2640
 7164TIP3    H142907   4.644   5.437  12.429 -0.0940 -0.1604 -0.2985
 7164TIP3    H242908   4.580   5.571  12.400  1.8874  1.1999  1.3678
 7165TIP3   OH242909   5.574   3.512   2.125 -0.2490  0.2943 -0.0419
 7165TIP3    H142910   5.492   3.537   2.084 -0.0319  0.0033 -0.6577
 7165TIP3    H242911   5.636   3.505   2.053  0.0866 -0.4346  0.3074
 7166TIP3   OH242912   6.293   6.703   1.024  0.2950 -0.1677  0.2274
 7166TIP3    H142913   6.274   6.707   1.118 -1.5805  0.9288 -0.1452
 7166TIP3    H242914   6.322   6.792   1.002  1.5819 -0.6489 -0.0935
 7167TIP3   OH242915   5.330   6.078  13.149  0.0846 -0.4246 -0.6004
 7167TIP3    H142916   5.391   6.009  13.174  0.0976 -0.4796 -0.7826
 7167TIP3    H242917   5.323   6.133  13.227  1.0006  0.0496 -0.8419
 7168TIP3   OH242918   3.671   6.585  12.959 -0.0952  0.6574 -0.2268
 7168TIP3    H142919   3.691   6.492  12.948 -1.1934  0.4741 -0.7455
 7168TIP3    H242920   3.753   6.623  12.991  0.6283 -0.3349 -0.8328
 7169TIP3   OH242921   4.245   1.413  16.649  0.2428  0.0808  0.0355
 7169TIP3    H142922   4.279   1.500  16.672 -1.2665  1.1182 -1.4067
 7169TIP3    H242923   4.283   1.394  16.564 -0.2640 -0.1792 -0.1366
 7170TIP3   OH242924   1.700   4.834   2.694 -0.1732 -0.9153 -0.0741
 7170TIP3    H142925   1.643   4.777   2.643  0.2042 -1.2160 -0.1699
 7170TIP3    H242926   1.789   4.809   2.667  0.0101 -0.6364  0.2614
 7171TIP3   OH242927   3.549   3.606  10.752  0.4910  0.0204 -0.4034
 7171TIP3    H142928   3.595   3.522  10.754 -0.0562 -0.2803 -0.1602
 7171TIP3    H242929   3.562   3.642  10.840 -0.6567 -0.5798  0.0297
 7172TIP3   OH242930   3.988   5.665   4.119 -0.8124 -0.1915 -0.1900
 7172TIP3    H142931   3.945   5.709   4.193  0.6935  2.7200 -0.8632
 7172TIP3    H242932   4.001   5.735   4.055  0.9734 -1.8774 -1.7964
 7173TIP3   OH242933   6.375   3.238  14.056  0.1883  0.5211 -0.5531
 7173TIP3    H142934   6.452   3.183  14.072  1.2168  2.1293  0.3694
 7173TIP3    H242935   6.347   3.216  13.968  1.1830 -0.7273 -0.5802
 7174TIP3   OH242936   6.611   6.484  14.678 -0.5664 -0.5472  0.5484
 7174TIP3    H142937   6.655   6.409  14.637  0.6246  0.1032  0.6134
 7174TIP3    H242938   6.521   6.478  14.647 -0.2102 -1.3375 -0.3910
 7175TIP3   OH242939   4.761   6.141   6.110 -1.1515  0.7540  0.5876
 7175TIP3    H142940   4.693   6.189   6.157 -0.5118  1.5283  0.7450
 7175TIP3    H242941   4.769   6.188   6.026  0.7575  2.1068  1.4596
 7176TIP3   OH242942   4.142   4.627  11.745 -0.2386  0.4704  0.1571
 7176TIP3    H142943   4.191   4.581  11.677 -0.1345  0.5374  0.1872
 7176TIP3    H242944   4.207   4.681  11.789 -0.2960  0.3829  0.3478
 7177TIP3   OH242945   5.192   6.618   4.312  0.2430  0.3500  0.3905
 7177TIP3    H142946   5.278   6.629   4.271 -0.7556  2.8914 -1.3394
 7177TIP3    H242947   5.134   6.596   4.239 -0.9534  1.0834  1.0872
 7178TIP3   OH242948   1.262   4.694  11.722  0.1267 -0.5863 -0.1355
 7178TIP3    H142949   1.174   4.669  11.751 -0.1998 -0.6263 -1.1233
 7178TIP3    H242950   1.314   4.694  11.802 -0.7368 -0.7081  0.4444
 7179TIP3   OH242951   2.835   6.600  16.603  0.3341 -0.2649 -0.0509
 7179TIP3    H142952   2.857   6.536  16.671 -0.5255 -0.7742 -0.2303
 7179TIP3    H242953   2.797   6.547  16.533 -2.8030  0.6500  0.8224
 7180TIP3   OH242954   4.492   0.669   3.410 -0.1701 -0.6949 -0.3323
 7180TIP3    H142955   4.529   0.656   3.323 -1.8305  0.2873 -1.2320
 7180TIP3    H242956   4.448   0.586   3.430 -2.0846 -0.0786 -1.6548
 7181TIP3   OH242957   6.586   2.454   0.168  0.3395  0.5335  0.5956
 7181TIP3    H142958   6.589   2.404   0.087  2.3533 -0.2257  1.0704
 7181TIP3    H242959   6.576   2.545   0.141  0.9127  0.2817 -0.5165
 7182TIP3   OH242960   1.141   3.657  16.204 -0.0205 -0.0572  0.5480
 7182TIP3    H142961   1.179   3.741  16.177  0.7922 -0.6573 -0.2113
 7182TIP3    H242962   1.216   3.601  16.221 -0.4941 -1.6354 -2.1288
 7183TIP3   OH242963   3.213   3.207  15.853  0.3325  0.5518 -0.7295
 7183TIP3    H142964   3.285   3.264  15.879 -1.2003  2.1351  0.3229
 7183TIP3    H242965   3.142   3.230  15.913 -0.9682 -1.1270 -1.5470
 7184TIP3   OH242966   3.130   3.828  14.458 -0.1875  0.1288  0.1184
 7184TIP3    H142967   3.195   3.892  14.487 -1.1310  0.4422  1.6272
 7184TIP3    H242968   3.130   3.761  14.527 -2.3858  0.8181  0.8454
 7185TIP3   OH242969   1.586   6.574  11.361 -0.4286  0.1796  0.4354
 7185TIP3    H142970   1.565   6.641  11.426  0.2873  3.4340 -2.4209
 7185TIP3    H242971   1.635   6.507  11.411 -0.3928  2.1577  3.3043
 7186TIP3   OH242972   1.297   5.864   2.117  0.9161  0.0481  0.1653
 7186TIP3    H142973   1.315   5.776   2.081  1.7286 -0.0924  0.8972
 7186TIP3    H242974   1.243   5.906   2.049  0.5895 -0.9747 -0.2430
 7187TIP3   OH242975   6.387   3.492  13.780 -0.0695 -0.1471  0.1589
 7187TIP3    H142976   6.331   3.418  13.758  0.5512 -0.7637  0.5853
 7187TIP3    H242977   6.405   3.481  13.874 -0.1742  0.6851  0.2814
 7188TIP3   OH242978   0.527   6.714  16.066 -0.3023  0.2311  0.4503
 7188TIP3    H142979   0.496   6.751  16.149  0.8691  0.6902  0.7035
 7188TIP3    H242980   0.623   6.714  16.074 -0.1951 -0.4295 -0.6045
 7189TIP3   OH242981   3.528   2.014   2.341  0.4349  0.1778 -0.3963
 7189TIP3    H142982   3.555   2.051   2.257 -0.5883 -1.0101 -1.3002
 7189TIP3    H242983   3.479   2.083   2.384  0.1985  0.5076 -1.1848
 7190TIP3   OH242984   4.979   3.300  17.364  0.1617 -0.4208 -0.1694
 7190TIP3    H142985   4.976   3.210  17.394 -0.1850 -0.3135  0.1183
 7190TIP3    H242986   4.887   3.328  17.360  0.2810  0.0074  0.0139
 7191TIP3   OH242987   4.637   6.660   6.033 -0.5495  0.3539 -0.1387
 7191TIP3    H142988   4.569   6.666   6.101 -0.5612  0.3531 -0.1502
 7191TIP3    H242989   4.591   6.683   5.952 -0.7660 -0.5904 -0.2957
 7192TIP3   OH242990   1.698   3.040   3.592 -0.0724  0.3436 -0.4135
 7192TIP3    H142991   1.770   3.064   3.533  0.4442 -1.5030 -0.6167
 7192TIP3    H242992   1.665   3.123   3.626  1.8461  1.2655 -0.6916
 7193TIP3   OH242993   5.582   3.567   0.526  0.2089 -0.1586  0.0455
 7193TIP3    H142994   5.631   3.638   0.486 -1.6960  0.7506 -0.7892
 7193TIP3    H242995   5.621   3.487   0.490  1.4069  0.4930 -0.1541
 7194TIP3   OH242996   4.123   0.392   2.761 -0.3808  0.1639 -0.0525
 7194TIP3    H142997   4.060   0.458   2.787 -2.2639 -0.6150 -2.3329
 7194TIP3    H242998   4.176   0.434   2.694 -1.8709 -0.6601 -1.8338
 7195TIP3   OH242999   3.216   1.647  15.975 -0.0860 -0.3590 -0.0865
 7195TIP3    H143000   3.254   1.559  15.975  2.3179  0.5560  1.3388
 7195TIP3    H243001   3.128   1.635  16.010  0.5017 -2.1097  0.9550
 7196TIP3   OH243002   1.662   6.459   5.308  0.4129 -0.0307  0.2756
 7196TIP3    H143003   1.611   6.440   5.230 -0.8465  0.8264  0.8734
 7196TIP3    H243004   1.720   6.531   5.283 -2.8472  3.1832  1.1572
 7197TIP3   OH243005   5.063   5.925   1.400 -0.2692  0.7289 -0.1367
 7197TIP3    H143006   4.997   5.896   1.463  0.0616 -1.8424 -0.8493
 7197TIP3    H243007   5.125   5.976   1.452 -0.9813  0.2668  1.2266
 7198TIP3   OH243008   2.742   3.007  15.730  0.2471  0.1920  0.1313
 7198TIP3    H143009   2.723   3.097  15.754  0.0540  0.3599 -0.6332
 7198TIP3    H243010   2.834   2.995  15.753  0.9490  1.3157 -1.8413
 7199TIP3   OH243011   0.311   5.270   0.540  0.9202  0.1275  0.2395
 7199TIP3    H143012   0.389   5.263   0.485  1.5974 -0.2085  1.2161
 7199TIP3    H243013   0.269   5.184   0.533  0.8354  0.1883  0.0029
 7200TIP3   OH243014   3.559   3.384   5.498 -0.3134  0.1833 -0.0928
 7200TIP3    H143015   3.605   3.467   5.488  0.2705  0.0149  1.0421
 7200TIP3    H243016   3.520   3.367   5.412  0.6652  0.9663 -0.7024
 7201TIP3   OH243017   3.473   4.589   0.414  0.3037 -0.3291  0.1989
 7201TIP3    H143018   3.496   4.558   0.501  0.3603 -0.4201  0.1514
 7201TIP3    H243019   3.386   4.552   0.398 -0.3769  0.9337  0.8382
 7202TIP3   OH243020   4.854   6.571  17.348 -0.3169  0.0167 -0.2902
 7202TIP3    H143021   4.810   6.641  17.301 -0.7978  0.5436  0.8976
 7202TIP3    H243022   4.864   6.604  17.437 -1.3471 -1.7383  0.5408
 7203TIP3   OH243023   4.471   4.489   5.372  0.3181  0.0047  0.8626
 7203TIP3    H143024   4.462   4.394   5.369  0.4127 -0.0144  1.0954
 7203TIP3    H243025   4.382   4.523   5.363  0.5549  0.0462 -3.3076
 7204TIP3   OH243026   4.089   5.651  13.707  0.4330  1.3076  0.2587
 7204TIP3    H143027   4.025   5.659  13.778  0.7478 -0.7177  0.8098
 7204TIP3    H243028   4.161   5.600  13.744 -0.7479 -2.6729 -2.3021
 7205TIP3   OH243029   4.798   5.010  13.497 -0.4941  0.4330  0.1738
 7205TIP3    H143030   4.797   4.991  13.403 -2.4322 -1.8672  0.5598
 7205TIP3    H243031   4.782   5.105  13.502 -0.6419  0.5654 -1.8107
 7206TIP3   OH243032   3.946   3.428   3.995  0.1597  0.1427 -0.1333
 7206TIP3    H143033   4.001   3.466   3.927  0.1252 -1.3164 -1.0140
 7206TIP3    H243034   4.004   3.366   4.040 -0.2716 -0.1045  0.0879
 7207TIP3   OH243035   5.582   5.752  11.426 -0.2046 -0.0228  0.0107
 7207TIP3    H143036   5.544   5.693  11.492  0.7547 -2.5042 -1.5195
 7207TIP3    H243037   5.666   5.779  11.464  0.1031 -1.0098  0.0591
 7208TIP3   OH243038   5.172   0.328   1.845  0.6297  1.0289  0.7201
 7208TIP3    H143039   5.183   0.344   1.939  2.1444  0.1491  0.7340
 7208TIP3    H243040   5.113   0.397   1.815  0.5029  1.6074  2.2247
 7209TIP3   OH243041   5.474   2.635   0.943  0.0806 -0.3631 -0.2102
 7209TIP3    H143042   5.392   2.661   0.985  0.1035 -2.2922  1.1500
 7209TIP3    H243043   5.447   2.600   0.858 -0.6314 -1.5887  0.4834
 7210TIP3   OH243044   3.406   0.424   3.375  0.2380 -0.3422 -0.3993
 7210TIP3    H143045   3.383   0.475   3.297  0.6864  1.7892  0.8075
 7210TIP3    H243046   3.481   0.371   3.347  0.5573  0.5809 -1.3567
 7211TIP3   OH243047   5.036   5.929  16.571 -0.5790  0.1909  0.8964
 7211TIP3    H143048   4.964   5.900  16.628 -0.8457 -0.1834  0.3761
 7211TIP3    H243049   5.049   6.021  16.594  0.5158 -0.3713  2.8423
 7212TIP3   OH243050   6.245   5.193   4.816 -0.0172  0.0869 -0.7627
 7212TIP3    H143051   6.190   5.180   4.893  0.1649 -1.2350 -0.8312
 7212TIP3    H243052   6.239   5.287   4.797 -0.3096  0.3750  0.6673
 7213TIP3   OH243053   4.607   4.268   3.534  0.5112  0.3244 -0.0984
 7213TIP3    H143054   4.656   4.186   3.540  0.7570  0.5375  0.9378
 7213TIP3    H243055   4.632   4.317   3.612 -0.2513  1.0521 -0.2951
 7214TIP3   OH243056   2.035   1.163  15.892  0.3729  0.3851  0.0591
 7214TIP3    H143057   2.009   1.255  15.891  2.3345  0.9994  0.3797
 7214TIP3    H243058   1.993   1.125  15.815  1.2237  2.0936 -1.3295
 7215TIP3   OH243059   2.633   1.376   2.231  0.1567  0.1181 -1.0740
 7215TIP3    H143060   2.728   1.387   2.228  0.2565  0.2791  0.9111
 7215TIP3    H243061   2.617   1.324   2.310 -1.4379  0.8300 -0.8658
 7216TIP3   OH243062   4.314   6.248   4.751 -0.4655 -0.6492  0.1102
 7216TIP3    H143063   4.287   6.334   4.721  1.8282 -0.5700 -2.1319
 7216TIP3    H243064   4.364   6.265   4.832  0.3995  0.2382 -0.5813
 7217TIP3   OH243065   5.716   6.046   2.489 -0.4761 -0.1631  0.0100
 7217TIP3    H143066   5.780   6.112   2.515  0.8423 -1.6790  0.7673
 7217TIP3    H243067   5.741   6.020   2.401 -0.1405 -0.6268  0.2374
 7218TIP3   OH243068   4.999   6.719  15.498  0.5061 -0.0819  0.1702
 7218TIP3    H143069   4.990   6.629  15.528 -0.0922  0.3541  1.3313
 7218TIP3    H243070   5.090   6.725  15.469  0.7527 -0.8645  0.7502
 7219TIP3   OH243071   4.087   5.499  15.520  0.1785 -0.5466  0.0438
 7219TIP3    H143072   4.138   5.577  15.496  0.7748 -1.3334 -1.3622
 7219TIP3    H243073   4.138   5.458  15.590  0.5010 -0.3243 -0.0551
 7220TIP3   OH243074   1.545   6.217  13.644 -0.2598  0.0384  0.2835
 7220TIP3    H143075   1.477   6.201  13.709 -0.5915  0.9464  0.1722
 7220TIP3    H243076   1.626   6.227  13.695 -0.1656 -1.1828  0.4043
 7221TIP3   OH243077   4.144   0.134   6.863 -0.1943 -0.2507  0.0643
 7221TIP3    H143078   4.144   0.226   6.888 -0.4889 -0.0162 -0.7770
 7221TIP3    H243079   4.066   0.124   6.808  0.4645 -0.7344 -0.8041
 7222TIP3   OH243080   3.023   3.708  16.724  0.6136  0.0539  0.2736
 7222TIP3    H143081   3.061   3.771  16.786 -0.0541 -0.8774  1.6807
 7222TIP3    H243082   2.980   3.763  16.658 -1.9724  1.1797  2.7026
 7223TIP3   OH243083   5.645   3.012  14.232  0.1795  0.3175 -0.0804
 7223TIP3    H143084   5.573   3.046  14.179 -2.9059 -3.1983  1.4195
 7223TIP3    H243085   5.698   2.962  14.170  0.4592  1.6242 -0.9283
 7224TIP3   OH243086   6.381   2.224  11.060 -0.2539 -0.8841 -0.3126
 7224TIP3    H143087   6.462   2.256  11.019 -0.4888  0.3851  0.1773
 7224TIP3    H243088   6.316   2.227  10.990  0.1881 -2.2900 -0.8183
 7225TIP3   OH243089   6.165   2.489  15.202 -0.2615  0.1052 -0.5368
 7225TIP3    H143090   6.092   2.489  15.140  0.2128 -0.1431 -1.1105
 7225TIP3    H243091   6.184   2.396  15.217  0.8926  0.1472 -1.5650
 7226TIP3   OH243092   0.537   4.794   1.841  0.1882 -0.5793 -0.9346
 7226TIP3    H143093   0.484   4.785   1.921  1.8701 -0.4348  0.2327
 7226TIP3    H243094   0.535   4.888   1.822  0.6367 -0.4708 -0.4589
 7227TIP3   OH243095   3.773   2.992  12.246 -0.0871  0.3166  0.0269
 7227TIP3    H143096   3.702   3.010  12.307  0.7781  0.8412  0.9238
 7227TIP3    H243097   3.742   2.920  12.192 -1.5382  0.9630 -0.0343
 7228TIP3   OH243098   5.877   0.726  10.422 -0.4572 -0.4085  0.4272
 7228TIP3    H143099   5.934   0.722  10.345  0.1297  0.4912  0.8026
 7228TIP3    H243100   5.857   0.634  10.442 -2.2446 -0.6677 -1.9672
 7229TIP3   OH243101   3.814   0.069  14.582  0.1461 -0.3326 -0.6758
 7229TIP3    H143102   3.887   0.088  14.523 -0.2913  1.8394 -0.6023
 7229TIP3    H243103   3.844  -0.004  14.635  1.6731 -0.4552 -1.6441
 7230TIP3   OH243104   3.565   4.226  17.060  0.0092  0.1087 -0.0810
 7230TIP3    H143105   3.591   4.286  17.129 -1.2256  0.9109 -0.2862
 7230TIP3    H243106   3.504   4.165  17.103  1.5967 -1.3309  0.2394
 7231TIP3   OH243107   1.309   3.179  14.149  0.2516 -0.0553  0.2326
 7231TIP3    H143108   1.403   3.196  14.145  0.5037 -1.0556  1.1373
 7231TIP3    H243109   1.270   3.240  14.087  1.2996  1.8565  1.3557
 7232TIP3   OH243110   3.441   0.038  11.447  0.4825 -0.6761  0.3072
 7232TIP3    H143111   3.386   0.060  11.522 -0.8561 -0.5680 -0.6792
 7232TIP3    H243112   3.385   0.052  11.371  0.9008 -3.3554 -0.5934
 7233TIP3   OH243113   3.615   5.974   2.120  0.4288  0.0733  0.3153
 7233TIP3    H143114   3.671   5.901   2.144  1.3945  0.3404 -1.0301
 7233TIP3    H243115   3.663   6.052   2.150 -0.2922  0.2208  1.1555
 7234TIP3   OH243116   2.560   2.696   4.101  0.3515  0.1837 -0.5633
 7234TIP3    H143117   2.524   2.668   4.185  0.5592 -1.5978 -1.0266
 7234TIP3    H243118   2.486   2.732   4.053  0.0258  0.2755  0.0072
 7235TIP3   OH243119   3.873   2.763  17.273 -0.5098 -0.4896  0.1596
 7235TIP3    H143120   3.827   2.727  17.349 -2.1166 -0.3475 -0.7187
 7235TIP3    H243121   3.885   2.688  17.214  0.8778 -0.6348  0.5804
 7236TIP3   OH243122   6.483   2.459  16.947  0.4582 -0.1723 -0.7742
 7236TIP3    H143123   6.504   2.407  16.870 -0.6919 -0.9131 -0.6180
 7236TIP3    H243124   6.563   2.507  16.967  1.8225 -2.4170 -0.5103
 7237TIP3   OH243125   2.985   2.492  12.311 -0.1555  0.1036 -0.3026
 7237TIP3    H143126   2.908   2.547  12.295 -0.2745  0.2109  0.6093
 7237TIP3    H243127   2.951   2.411  12.347  0.1286  0.0155 -0.2261
 7238TIP3   OH243128   3.546   2.173   2.960 -0.3813  0.1551  0.0494
 7238TIP3    H143129   3.473   2.233   2.972  1.7962  3.0506 -0.1442
 7238TIP3    H243130   3.615   2.207   3.017  1.4521 -1.2986 -1.1698
 7239TIP3   OH243131   2.480   1.333   0.282 -0.3969 -0.7331  0.7937
 7239TIP3    H143132   2.570   1.330   0.249  0.0542 -2.3428  2.0172
 7239TIP3    H243133   2.488   1.318   0.377 -1.7439  2.2517  1.4988
 7240TIP3   OH243134   4.999   5.262   3.657 -0.0331 -0.5612  0.3658
 7240TIP3    H143135   4.956   5.186   3.618  0.8243 -0.9838  0.2111
 7240TIP3    H243136   4.930   5.327   3.665 -0.4855 -0.8577 -0.8255
 7241TIP3   OH243137   5.552   0.859   4.302 -0.4426 -0.4706 -0.3651
 7241TIP3    H143138   5.640   0.859   4.338 -0.6125  4.2154  0.7149
 7241TIP3    H243139   5.507   0.788   4.348  1.6856 -0.2951  2.2162
 7242TIP3   OH243140   0.440   1.452  15.088 -0.1720 -0.1804  0.3850
 7242TIP3    H143141   0.473   1.386  15.028  0.6681 -0.9162  1.6249
 7242TIP3    H243142   0.487   1.532  15.064  0.5692 -0.6000  0.4274
 7243TIP3   OH243143   4.084   0.605   4.758  0.2129 -0.3121  0.8357
 7243TIP3    H143144   4.095   0.700   4.767  0.3050 -0.3569  1.1786
 7243TIP3    H243145   4.005   0.596   4.705 -1.1206 -0.0642  2.6928
 7244TIP3   OH243146   6.169   1.606  15.982  0.3655 -0.0601 -0.2974
 7244TIP3    H143147   6.243   1.657  16.015 -0.2959  0.9897 -0.3978
 7244TIP3    H243148   6.209   1.542  15.923  1.2197  0.3418 -0.1696
 7245TIP3   OH243149   5.456   5.656  15.968 -0.0711  0.0661 -0.2264
 7245TIP3    H143150   5.413   5.695  15.892 -0.2208 -0.7882 -0.5942
 7245TIP3    H243151   5.392   5.663  16.039  0.5283  1.9972  0.1805
 7246TIP3   OH243152   2.387   1.494  13.058 -0.5339 -0.4147  0.1858
 7246TIP3    H143153   2.357   1.475  12.970 -0.2120  1.0767 -0.2724
 7246TIP3    H243154   2.311   1.532  13.102 -0.7889 -1.4466  0.6720
 7247TIP3   OH243155   0.127   6.715  10.628 -0.1953 -0.2818  0.0470
 7247TIP3    H143156   0.135   6.769  10.549  1.6536  0.6246  0.7944
 7247TIP3    H243157   0.214   6.718  10.669 -0.7760 -1.6877  1.5118
 7248TIP3   OH243158   2.072   2.384  10.760 -0.1359 -0.0696  0.2066
 7248TIP3    H143159   2.003   2.386  10.826 -0.0090  0.0367  0.3367
 7248TIP3    H243160   2.038   2.438  10.688  1.1280  2.7589  1.5775
 7249TIP3   OH243161   1.718   0.458  13.108  0.0806 -0.2240  0.5029
 7249TIP3    H143162   1.793   0.490  13.057  1.1109 -0.4584  1.8454
 7249TIP3    H243163   1.750   0.451  13.197 -0.8766 -2.5103  0.7331
 7250TIP3   OH243164   6.709   3.961  12.707 -0.2767 -0.1862  0.1745
 7250TIP3    H143165   6.722   3.961  12.612 -4.2392  1.0600 -0.5342
 7250TIP3    H243166   6.743   4.046  12.735  0.5508 -0.4002 -0.1285
 7251TIP3   OH243167   0.770   0.964   5.564 -0.1760 -0.4352  0.3865
 7251TIP3    H143168   0.734   0.937   5.648  0.6189 -0.7381  0.6410
 7251TIP3    H243169   0.854   1.003   5.586 -0.1004 -0.2408 -0.2420
 7252TIP3   OH243170   0.836   2.985   3.085  0.7758  0.1040 -0.6678
 7252TIP3    H143171   0.859   3.020   2.999  1.3152 -0.5500 -0.7926
 7252TIP3    H243172   0.892   2.909   3.096 -0.7855 -1.1092 -0.6631
 7253TIP3   OH243173   2.235   4.600  13.351  0.0266 -0.1645  0.2178
 7253TIP3    H143174   2.260   4.665  13.417 -0.8731 -0.7289  1.1472
 7253TIP3    H243175   2.257   4.516  13.391 -1.1124 -0.5432  0.0807
 7254TIP3   OH243176   4.160   0.571   5.207  0.4956 -0.2251  0.4143
 7254TIP3    H143177   4.224   0.518   5.254  1.5962  2.0882  1.7212
 7254TIP3    H243178   4.178   0.555   5.115  0.2110 -2.6692  0.7250
 7255TIP3   OH243179   6.756   1.203  12.889 -0.1922 -0.5550  0.3561
 7255TIP3    H143180   6.703   1.268  12.843  1.0222  0.6939  0.6174
 7255TIP3    H243181   6.725   1.207  12.980  1.2937  1.3139  0.8500
 7256TIP3   OH243182   1.557   2.648   3.790  0.4159 -0.1933  0.2861
 7256TIP3    H143183   1.640   2.691   3.770 -0.2382  0.5988 -0.8188
 7256TIP3    H243184   1.581   2.574   3.846  2.1344 -1.3284 -1.7951
 7257TIP3   OH243185   0.277   1.587  14.230 -0.2164 -0.1162  0.5076
 7257TIP3    H143186   0.256   1.657  14.168  2.0809 -1.2056 -1.6968
 7257TIP3    H243187   0.261   1.506  14.181 -0.4043 -1.0964  2.1111
 7258TIP3   OH243188   5.517   4.361  15.327 -0.4831  0.6148 -0.5355
 7258TIP3    H143189   5.449   4.309  15.284 -0.2795  0.1970 -0.3570
 7258TIP3    H243190   5.506   4.449  15.291 -1.0031  0.5112 -0.6437
 7259TIP3   OH243191   2.258   5.298  14.279  0.5732  0.9293  0.2238
 7259TIP3    H143192   2.288   5.386  14.260 -1.8472  1.3985 -1.9416
 7259TIP3    H243193   2.217   5.268  14.198 -3.1939 -0.1855  2.3053
 7260TIP3   OH243194   1.987   6.008  11.547  0.2046  0.1439 -0.3470
 7260TIP3    H143195   2.030   5.972  11.469 -1.0276  0.5681 -1.2582
 7260TIP3    H243196   2.053   6.001  11.616  1.0526 -0.9786 -1.2322
 7261TIP3   OH243197   0.191   2.754   0.054  0.3398  0.2262 -0.4373
 7261TIP3    H143198   0.173   2.712   0.138  0.5625 -0.6038 -0.7929
 7261TIP3    H243199   0.105   2.764   0.013  0.2972  0.0514 -0.3879
 7262TIP3   OH243200   0.609   1.478  14.561  0.0849  0.2962  0.1310
 7262TIP3    H143201   0.611   1.394  14.516 -0.4681 -0.0446  0.7150
 7262TIP3    H243202   0.525   1.478  14.607 -0.1786  1.4221 -0.3284
 7263TIP3   OH243203   4.703   4.631   4.279  0.2097 -0.0929 -0.0754
 7263TIP3    H143204   4.619   4.629   4.234 -0.4994 -0.2158  1.1952
 7263TIP3    H243205   4.741   4.544   4.263  1.0359  0.6046 -2.2815
 7264TIP3   OH243206   1.840   5.571  13.644 -0.2877 -0.2639  0.2545
 7264TIP3    H143207   1.897   5.584  13.720 -0.3338 -0.4575  0.3252
 7264TIP3    H243208   1.890   5.603  13.570 -0.7845  1.2349  0.5344
 7265TIP3   OH243209   3.601   3.524   4.803 -0.2673  0.2992  0.0903
 7265TIP3    H143210   3.580   3.566   4.719 -0.8194 -1.2686 -0.6047
 7265TIP3    H243211   3.695   3.506   4.798 -0.1296  0.9696  0.1801
 7266TIP3   OH243212   3.792   1.136   5.651 -0.0458  0.0121  0.3659
 7266TIP3    H143213   3.841   1.168   5.574  1.0293  0.6795  1.2837
 7266TIP3    H243214   3.823   1.047   5.664  1.7240  0.7209  1.4834
 7267TIP3   OH243215   5.975   3.507   1.915 -0.1368 -0.1948 -0.2105
 7267TIP3    H143216   5.959   3.495   2.009  1.4146  0.3550  0.1454
 7267TIP3    H243217   6.020   3.591   1.908 -2.3127  0.9657 -1.7211
 7268TIP3   OH243218   2.005   5.404   0.481 -0.3486 -0.5346 -0.9009
 7268TIP3    H143219   2.083   5.370   0.525 -0.3466 -0.9584 -1.2249
 7268TIP3    H243220   1.971   5.471   0.541 -1.2980 -2.2342  0.5472
 7269TIP3   OH243221   1.650   0.305  13.426  0.4961  0.3911 -0.4381
 7269TIP3    H143222   1.737   0.334  13.396  0.9785  0.1327  0.6628
 7269TIP3    H243223   1.656   0.307  13.522 -0.0597 -1.5321 -0.3258
 7270TIP3   OH243224   2.351   5.397   5.267 -0.2861 -0.4804  0.4671
 7270TIP3    H143225   2.279   5.459   5.278 -1.9202 -2.0795 -0.5264
 7270TIP3    H243226   2.352   5.379   5.172  1.3272 -0.6263  0.4872
 7271TIP3   OH243227   0.697   3.927  15.664 -0.1126 -0.2095  0.0698
 7271TIP3    H143228   0.628   3.899  15.724  1.3550 -1.8568  1.1118
 7271TIP3    H243229   0.706   4.021  15.679 -0.1940 -0.4712  2.0713
 7272TIP3   OH243230   1.864   1.127   2.384 -0.4910 -0.2863  0.0004
 7272TIP3    H143231   1.897   1.181   2.456 -1.4519  0.6576 -0.2264
 7272TIP3    H243232   1.919   1.150   2.309  0.2659 -0.9891  0.3288
 7273TIP3   OH243233   3.167   0.980  17.252 -0.0715  0.5279 -0.0834
 7273TIP3    H143234   3.172   1.045  17.322 -0.4267 -1.4427  1.8984
 7273TIP3    H243235   3.135   0.901  17.296  0.4524 -1.0193 -2.3443
 7274TIP3   OH243236   4.285   0.408   4.794  0.5215  0.7596 -0.0495
 7274TIP3    H143237   4.255   0.318   4.788 -0.1745  1.0286 -1.0100
 7274TIP3    H243238   4.209   0.460   4.767  0.9015  1.6288  0.5186
 7275TIP3   OH243239   3.375   1.994   4.042 -0.2343 -0.1332  0.2377
 7275TIP3    H143240   3.405   1.960   3.957 -0.2514 -1.8782  0.9000
 7275TIP3    H243241   3.412   2.083   4.046  0.4889 -0.3337 -1.2072
 7276TIP3   OH243242   4.234   1.786   0.749  0.3370 -0.1569  0.2592
 7276TIP3    H143243   4.172   1.781   0.823  1.4299  0.2765  1.2427
 7276TIP3    H243244   4.294   1.713   0.764  0.4446 -0.1872 -0.3274
 7277TIP3   OH243245   1.960   1.022  12.798 -0.1225 -0.2539  0.3300
 7277TIP3    H143246   2.005   1.105  12.813 -0.0287 -0.3275  0.4557
 7277TIP3    H243247   2.023   0.969  12.749  0.1095 -0.5296  0.9205
 7278TIP3   OH243248   1.830   3.363  11.624  0.2364  0.1408 -0.4854
 7278TIP3    H143249   1.907   3.418  11.611  1.0747 -1.0395 -0.7009
 7278TIP3    H243250   1.805   3.337  11.535  0.7458 -0.9976 -0.3071
 7279TIP3   OH243251   2.373   5.879  11.535 -0.3986  0.2328  0.3136
 7279TIP3    H143252   2.294   5.914  11.492 -0.5479 -0.4332  0.0347
 7279TIP3    H243253   2.339   5.828  11.608 -0.4151 -2.2705 -1.3396
 7280TIP3   OH243254   0.147   0.127   5.160 -0.2060  0.3267  0.1526
 7280TIP3    H143255   0.182   0.136   5.249  2.0790 -1.1694 -0.5108
 7280TIP3    H243256   0.204   0.183   5.106  0.3913 -1.1354 -0.7890
 7281TIP3   OH243257   0.407   6.703   3.194  0.3882 -0.5598  0.3824
 7281TIP3    H143258   0.500   6.718   3.209  0.0478 -0.0157  2.1405
 7281TIP3    H243259   0.395   6.610   3.213  0.5765 -0.6581  0.0398
 7282TIP3   OH243260   5.197   0.715   4.555  0.5247  0.0269 -0.1183
 7282TIP3    H143261   5.205   0.653   4.627 -0.5338  1.7746  1.5777
 7282TIP3    H243262   5.154   0.791   4.593  1.2736  1.6116 -2.2514
 7283TIP3   OH243263   5.363   4.289   5.935  0.3719 -0.1480  0.3296
 7283TIP3    H143264   5.324   4.238   6.006  2.0468 -1.5087  0.3490
 7283TIP3    H243265   5.378   4.225   5.865  0.5129  0.7750 -0.5074
 7284TIP3   OH243266   2.174   0.466   4.775 -0.1762 -0.0841 -0.7544
 7284TIP3    H143267   2.198   0.548   4.818 -0.6775  0.1497 -0.9102
 7284TIP3    H243268   2.229   0.463   4.697 -0.2257  0.1551 -0.8009
 7285TIP3   OH243269   4.355   0.071  16.228 -0.2936 -0.5456  0.4085
 7285TIP3    H143270   4.375   0.131  16.299  2.3216 -2.0374  1.0579
 7285TIP3    H243271   4.424   0.085  16.163  0.3332 -2.7141  0.5365
 7286TIP3   OH243272   0.699   2.843  14.861  0.5591  0.0735 -0.3059
 7286TIP3    H143273   0.695   2.878  14.950  0.2654  0.8942 -0.6291
 7286TIP3    H243274   0.789   2.858  14.834  0.7548 -0.5401 -0.0105
 7287TIP3   OH243275   4.255   3.155   2.827  0.0985 -0.0805 -0.0334
 7287TIP3    H143276   4.162   3.175   2.825  0.0907 -0.1071  0.0686
 7287TIP3    H243277   4.285   3.186   2.913 -0.1863 -1.6710  0.6910
 7288TIP3   OH243278   0.801   2.039  17.057  0.1454 -0.0116  0.1760
 7288TIP3    H143279   0.883   1.995  17.079 -0.0359 -0.6015 -0.2962
 7288TIP3    H243280   0.735   1.997  17.112 -0.6235 -2.7018 -2.5145
 7289TIP3   OH243281   2.847   2.174  15.371 -0.0560 -0.7981 -0.0892
 7289TIP3    H143282   2.877   2.225  15.447  1.8064 -1.3193 -0.4188
 7289TIP3    H243283   2.763   2.138  15.399 -0.1145  0.2229  1.1721
 7290TIP3   OH243284   0.092   5.278  13.896  0.3301 -0.5062 -0.3396
 7290TIP3    H143285   0.162   5.262  13.959  1.1343 -0.5224 -1.2110
 7290TIP3    H243286   0.034   5.340  13.940  1.1038 -0.1878  0.2569
 7291TIP3   OH243287   3.359   2.206   3.633 -0.4268  0.3123  0.1280
 7291TIP3    H143288   3.439   2.254   3.610  0.4805 -1.6283 -1.0253
 7291TIP3    H243289   3.298   2.226   3.563 -0.4019  0.5608  0.1764
 7292TIP3   OH243290   4.510   6.286   2.720  0.1399  0.8068  0.8420
 7292TIP3    H143291   4.543   6.366   2.678 -0.4482  0.6011 -0.0329
 7292TIP3    H243292   4.441   6.316   2.779 -0.8634  0.8597 -0.3211
 7293TIP3   OH243293   3.409   5.687  17.010 -0.5756 -0.0903  0.0808
 7293TIP3    H143294   3.344   5.718  16.948 -1.1543 -0.7022  0.3720
 7293TIP3    H243295   3.442   5.766  17.053 -0.9895  0.2344 -0.1964
 7294TIP3   OH243296   3.766   5.274   0.267 -0.3660 -0.4736 -0.3602
 7294TIP3    H143297   3.771   5.366   0.292 -0.6972 -0.4314 -0.4465
 7294TIP3    H243298   3.716   5.273   0.186 -1.1963 -0.8102  0.1380
 7295TIP3   OH243299   4.935   6.694   5.423  0.2845  0.3359 -0.1148
 7295TIP3    H143300   5.025   6.670   5.446  0.0184  1.5767  2.6476
 7295TIP3    H243301   4.880   6.635   5.474 -0.5102 -0.0396 -1.3507
 7296TIP3   OH243302   0.473   2.650  12.518 -0.2983 -0.7534 -0.7126
 7296TIP3    H143303   0.441   2.737  12.541  0.0885 -0.9158  0.5347
 7296TIP3    H243304   0.432   2.630  12.434 -0.3505  0.6441 -1.0396
 7297TIP3   OH243305   4.110   3.334   6.270  0.3643 -0.4886 -0.5296
 7297TIP3    H143306   4.053   3.344   6.346  0.3405 -0.8687 -0.4933
 7297TIP3    H243307   4.093   3.245   6.239  2.0332 -1.1887  0.4192
 7298TIP3   OH243308   4.506   2.504  14.067  0.2320 -0.2534  0.3033
 7298TIP3    H143309   4.418   2.519  14.103 -0.3236 -2.1574 -0.1239
 7298TIP3    H243310   4.566   2.529  14.137 -0.6837  0.0595  0.9940
 7299TIP3   OH243311   1.470   6.520  14.472  0.5554 -0.4393 -0.0681
 7299TIP3    H143312   1.398   6.512  14.409 -2.0335  0.7129  2.5012
 7299TIP3    H243313   1.536   6.458  14.441 -1.8688 -2.2024 -2.1532
 7300TIP3   OH243314   0.709   0.522  16.109  0.0500 -0.6091  0.0635
 7300TIP3    H143315   0.766   0.450  16.083 -0.9817 -1.3513 -0.1930
 7300TIP3    H243316   0.621   0.484  16.111 -0.6010  0.7953 -0.7004
 7301TIP3   OH243317   1.487   0.273  14.855  0.4768 -0.0945 -0.7105
 7301TIP3    H143318   1.568   0.303  14.812 -0.2632  2.0260 -0.7323
 7301TIP3    H243319   1.425   0.344  14.842 -0.4725 -0.3006  1.9661
 7302TIP3   OH243320   4.790   1.515  13.030  0.0154 -0.0318 -0.3733
 7302TIP3    H143321   4.884   1.527  13.012  0.0597 -1.4670 -1.2679
 7302TIP3    H243322   4.783   1.424  13.062 -0.8567  0.6199  1.4673
 7303TIP3   OH243323   6.622   1.158  15.659  0.2821 -0.2333 -0.5590
 7303TIP3    H143324   6.643   1.248  15.682  0.2563 -0.2271 -0.5611
 7303TIP3    H243325   6.698   1.108  15.690 -0.5911 -0.4763  1.3204
 7304TIP3   OH243326   5.814   6.647  13.555 -0.2687 -0.1200 -0.2102
 7304TIP3    H143327   5.822   6.721  13.616 -2.3285  0.3954 -0.5183
 7304TIP3    H243328   5.872   6.670  13.482  1.7393 -0.4452  1.1771
 7305TIP3   OH243329   5.529   4.645  14.009  0.2139  0.3596  0.1157
 7305TIP3    H143330   5.575   4.655  14.091  1.6444  0.3083 -0.6543
 7305TIP3    H243331   5.592   4.672  13.942 -1.4035  1.8497 -0.8843
 7306TIP3   OH243332   5.394   1.368  13.352 -0.2276 -0.0791  0.0220
 7306TIP3    H143333   5.307   1.407  13.354  0.1181  0.7174  2.0666
 7306TIP3    H243334   5.426   1.376  13.442  2.5497  1.0407 -0.9383
 7307TIP3   OH243335   2.587   1.544   0.590 -0.4573 -0.1107  0.3433
 7307TIP3    H143336   2.675   1.578   0.602 -0.3477  0.5066 -1.8057
 7307TIP3    H243337   2.583   1.467   0.647  1.2757  0.1486  0.8666
 7308TIP3   OH243338   4.486   2.105   4.179  0.0994 -0.3012 -0.2048
 7308TIP3    H143339   4.522   2.105   4.267 -0.2883  0.5316 -0.0359
 7308TIP3    H243340   4.396   2.072   4.189 -0.7634  1.9569  0.0991
 7309TIP3   OH243341   2.425   3.745   1.726  0.2783 -0.0764  0.1831
 7309TIP3    H143342   2.415   3.650   1.725 -1.9054  0.0973  0.5327
 7309TIP3    H243343   2.394   3.771   1.813  4.0732  0.7379  1.4814
 7310TIP3   OH243344   4.244   0.249   4.278 -0.5674  0.1479 -0.2975
 7310TIP3    H143345   4.338   0.261   4.275 -0.6080  0.2976 -1.6524
 7310TIP3    H243346   4.220   0.268   4.369  0.8593 -1.2858  0.4327
 7311TIP3   OH243347   4.683   0.338  14.478  0.1599 -0.2757  0.1762
 7311TIP3    H143348   4.607   0.352  14.421 -0.3642 -0.0358  0.9011
 7311TIP3    H243349   4.649   0.358  14.566  0.9578 -0.5790  0.5559
 7312TIP3   OH243350   5.753   0.738   4.866 -0.0364 -0.0420  0.2929
 7312TIP3    H143351   5.827   0.678   4.854  0.9419  0.8772  1.5574
 7312TIP3    H243352   5.685   0.683   4.905 -0.4337 -1.1300 -1.7438
 7313TIP3   OH243353   1.718   5.153   0.682  0.0502  0.2159  0.5318
 7313TIP3    H143354   1.656   5.091   0.643  0.7973 -0.7645  0.8756
 7313TIP3    H243355   1.748   5.206   0.608 -1.5140  1.0014  0.4301
 7314TIP3   OH243356   2.302   6.222   1.359 -0.2636 -0.8813 -0.2623
 7314TIP3    H143357   2.274   6.181   1.277  1.0500 -1.3711 -0.4841
 7314TIP3    H243358   2.279   6.314   1.349 -0.6336 -1.0442 -0.9472
 7315TIP3   OH243359   5.094   1.647  16.858  0.6989  0.2846 -0.1294
 7315TIP3    H143360   5.043   1.682  16.785  0.4598 -1.8773 -1.0799
 7315TIP3    H243361   5.031   1.639  16.930  0.2236 -0.3400 -0.6166
 7316TIP3   OH243362   0.734   5.857   3.849 -0.3002 -0.0932 -0.8274
 7316TIP3    H143363   0.673   5.842   3.776 -1.0441  0.2725 -0.2960
 7316TIP3    H243364   0.820   5.838   3.813 -0.5316  1.1653 -2.1218
 7317TIP3   OH243365   1.285   6.151   5.905  0.5828  0.0417 -0.4213
 7317TIP3    H143366   1.247   6.166   5.991 -0.1502  2.2286 -1.0711
 7317TIP3    H243367   1.379   6.144   5.920  0.3192 -1.5264  0.7373
 7318TIP3   OH243368   0.817   4.555  14.339  0.1449  0.1986 -0.0005
 7318TIP3    H143369   0.909   4.554  14.362  0.1058 -0.4070  0.1563
 7318TIP3    H243370   0.772   4.522  14.417 -0.2572  1.0142  0.1242
 7319TIP3   OH243371   6.746   0.198   4.249  1.0681 -0.4351 -0.2342
 7319TIP3    H143372   6.785   0.174   4.165  2.6845  3.4549 -0.7830
 7319TIP3    H243373   6.784   0.136   4.311  1.6355 -1.9287 -1.9890
 7320TIP3   OH243374   0.220   0.648  16.238 -0.0117 -0.1775  0.3569
 7320TIP3    H143375   0.175   0.570  16.270 -0.5277  0.0814  0.2719
 7320TIP3    H243376   0.177   0.668  16.155 -1.2776  1.3768  1.3282
 7321TIP3   OH243377   1.463   2.494   4.209 -0.3011  0.3307  0.1025
 7321TIP3    H143378   1.420   2.413   4.235 -1.0330  0.5368 -0.4141
 7321TIP3    H243379   1.420   2.562   4.261  2.2343  0.1346  2.6679
 7322TIP3   OH243380   0.923   4.759   2.930  0.2680 -0.1166 -0.3985
 7322TIP3    H143381   0.996   4.727   2.982 -1.2649  0.4102  2.3034
 7322TIP3    H243382   0.954   4.841   2.892  0.9274  0.4424  1.2504
 7323TIP3   OH243383   2.402   1.436   2.656 -0.2870  0.5919 -0.0022
 7323TIP3    H143384   2.434   1.352   2.688 -0.9981 -0.0127 -0.8284
 7323TIP3    H243385   2.440   1.501   2.716 -0.3168 -0.3663  1.0814
 7324TIP3   OH243386   3.545   5.159   4.695  0.0115  0.5957 -0.2654
 7324TIP3    H143387   3.606   5.153   4.769  0.5630  0.7087 -0.7058
 7324TIP3    H243388   3.476   5.217   4.726  0.7973  1.5373 -0.2168
 7325TIP3   OH243389   6.750   5.276   5.316 -0.1105 -0.3578 -0.6285
 7325TIP3    H143390   6.771   5.190   5.279  1.9197 -0.4705  0.6054
 7325TIP3    H243391   6.754   5.263   5.411 -1.0081  0.8326 -0.4039
 7326TIP3   OH243392   0.947   6.109  11.866 -0.3171 -0.1853  0.2370
 7326TIP3    H143393   0.954   6.203  11.886  0.2544 -0.4013  1.1142
 7326TIP3    H243394   1.002   6.096  11.789 -0.6106  0.2437 -0.0489
 7327TIP3   OH243395   2.471   3.340  13.708 -0.2631 -0.6710 -0.0420
 7327TIP3    H143396   2.447   3.432  13.701 -1.6049 -0.9822  0.2699
 7327TIP3    H243397   2.439   3.312  13.794  1.2201 -1.1365  0.3926
 7328TIP3   OH243398   2.002   4.872  14.193 -0.1943 -0.3961  0.5303
 7328TIP3    H143399   2.051   4.947  14.159  0.0713  0.2050  2.1805
 7328TIP3    H243400   2.024   4.801  14.133 -0.6196  0.8622 -1.1935
 7329TIP3   OH243401   0.249   0.277  14.580  0.2962 -0.4354  0.0033
 7329TIP3    H143402   0.232   0.325  14.661  1.6071 -3.8116  2.5239
 7329TIP3    H243403   0.162   0.251  14.549 -0.2458  1.1993  0.0615
 7330TIP3   OH243404   3.546   2.459  15.442  0.5318  0.0421 -0.0034
 7330TIP3    H143405   3.485   2.442  15.371 -2.0280 -0.0474  2.0814
 7330TIP3    H243406   3.574   2.372  15.471  0.7281  0.0489 -0.1627
 7331TIP3   OH243407   4.260   5.602  12.054  0.3115  0.2754 -0.3544
 7331TIP3    H143408   4.251   5.672  11.989  0.0249 -0.1242 -0.7464
 7331TIP3    H243409   4.354   5.596  12.069  0.5369 -0.6989 -1.9223
 7332TIP3   OH243410   3.587   6.652   2.385  0.2516  0.5447 -0.2332
 7332TIP3    H143411   3.662   6.688   2.337 -1.0495  1.5992 -1.6008
 7332TIP3    H243412   3.519   6.644   2.318 -0.2267 -2.4672  0.4897
 7333TIP3   OH243413   0.880   1.279  16.136 -0.7720 -0.4317 -0.3550
 7333TIP3    H143414   0.951   1.215  16.133 -0.3356  0.0613 -1.4151
 7333TIP3    H243415   0.853   1.282  16.228  0.7920 -0.4097  0.1310
 7334TIP3   OH243416   3.513   3.415   6.838  0.0944 -0.0008  0.5597
 7334TIP3    H143417   3.528   3.342   6.778  1.6930  0.1843  0.6770
 7334TIP3    H243418   3.593   3.468   6.831  0.0715  0.3410  2.3807
 7335TIP3   OH243419   3.792   4.705   0.832 -0.2450 -0.1604 -0.2052
 7335TIP3    H143420   3.828   4.740   0.750 -0.0132 -1.9982 -0.9360
 7335TIP3    H243421   3.865   4.711   0.894  0.9367 -2.3277 -1.2364
 7336TIP3   OH243422   2.898   3.982  11.168 -0.1452 -0.0225  0.1673
 7336TIP3    H143423   2.960   3.976  11.096  0.2759 -0.6829  0.5807
 7336TIP3    H243424   2.814   4.000  11.126  0.2950  0.7400 -0.4032
 7337TIP3   OH243425   5.531   2.895   2.564 -0.5253 -0.3048 -0.1139
 7337TIP3    H143426   5.544   2.987   2.586  2.1271 -0.5692 -0.2995
 7337TIP3    H243427   5.615   2.853   2.583 -1.2344 -2.4327 -1.3064
 7338TIP3   OH243428   4.394   3.375  13.230  0.8432 -0.4947 -0.1718
 7338TIP3    H143429   4.345   3.349  13.308  2.0362 -1.0997  0.4083
 7338TIP3    H243430   4.333   3.362  13.157  0.0527 -0.9395  0.5522
 7339TIP3   OH243431   4.754   0.409  16.932 -0.5114  0.3328  0.4096
 7339TIP3    H143432   4.804   0.390  16.853 -0.8303 -0.4990  0.3867
 7339TIP3    H243433   4.818   0.407  17.003  0.1146  2.9981 -0.0087
 7340TIP3   OH243434   0.228   6.262  15.266  0.0665  0.2089 -0.4128
 7340TIP3    H143435   0.244   6.340  15.319  0.6512  0.4116 -0.8782
 7340TIP3    H243436   0.135   6.242  15.280 -0.8387  2.5585 -2.3575
 7341TIP3   OH243437   5.953   4.359   5.882 -0.8655  0.6105 -0.3107
 7341TIP3    H143438   5.860   4.359   5.862 -1.2015 -0.5233  1.0944
 7341TIP3    H243439   5.972   4.447   5.914 -1.0519  1.3767 -2.1803
 7342TIP3   OH243440   1.330   4.486   5.038 -0.1094  0.3221  0.4049
 7342TIP3    H143441   1.398   4.521   5.096 -0.8927  1.2978  0.7857
 7342TIP3    H243442   1.310   4.399   5.074  1.0669 -0.0629  0.1549
 7343TIP3   OH243443   3.055   3.558   5.822  0.4322 -0.3944 -0.1916
 7343TIP3    H143444   3.034   3.467   5.840  1.1137 -0.6134 -0.4934
 7343TIP3    H243445   3.084   3.559   5.731  0.6774  0.0832 -0.1130
 7344TIP3   OH243446   6.285   5.323   0.154 -0.2840 -0.3088  0.1650
 7344TIP3    H143447   6.322   5.257   0.213 -0.1931  0.3282  0.8352
 7344TIP3    H243448   6.345   5.397   0.162 -0.1184 -0.3060 -0.9438
 7345TIP3   OH243449   3.719   3.192   0.542  0.5965 -0.1207 -0.5582
 7345TIP3    H143450   3.729   3.244   0.621  1.0128  0.3200 -0.8986
 7345TIP3    H243451   3.760   3.244   0.473  1.1405 -0.9445 -0.8820
 7346TIP3   OH243452   5.405   0.421  12.356  0.0072 -0.0943  0.4972
 7346TIP3    H143453   5.466   0.495  12.347 -1.4822  1.2123  0.6605
 7346TIP3    H243454   5.368   0.411  12.269 -0.5424  0.0425  0.7112
 7347TIP3   OH243455   5.504   3.765   2.890  0.2642  0.2363  0.2847
 7347TIP3    H143456   5.471   3.814   2.965  0.9573 -0.8735  1.3474
 7347TIP3    H243457   5.456   3.800   2.815 -1.0151  0.8264  1.3487
 7348TIP3   OH243458   2.979   0.017   1.372  0.3333 -0.4758  0.1477
 7348TIP3    H143459   2.995   0.078   1.445 -0.9036  0.7298 -0.5529
 7348TIP3    H243460   3.043   0.042   1.306 -0.5498  0.4796 -0.3675
 7349TIP3   OH243461   6.079   3.459  15.766  0.2583 -0.6623  0.2764
 7349TIP3    H143462   5.990   3.429  15.786 -0.8450  1.6109 -0.9050
 7349TIP3    H243463   6.068   3.525  15.698  2.8501 -0.1286  0.2711
 7350TIP3   OH243464   4.204   2.439   2.069  0.0326 -0.4072 -0.5048
 7350TIP3    H143465   4.113   2.420   2.045  0.1814 -0.7186 -0.8281
 7350TIP3    H243466   4.211   2.534   2.059 -0.2346 -0.3911 -0.5645
 7351TIP3   OH243467   1.847   2.718   3.705  0.0731 -0.2274 -0.2528
 7351TIP3    H143468   1.901   2.788   3.743 -1.2748  0.2071  0.9672
 7351TIP3    H243469   1.885   2.703   3.619  1.8723  0.3384  0.3823
 7352TIP3   OH243470   3.183   3.463   3.197  0.0067  0.7974 -0.1243
 7352TIP3    H143471   3.173   3.391   3.259 -0.2018 -1.0501 -2.2026
 7352TIP3    H243472   3.119   3.528   3.225 -0.4004 -0.1745  1.3073
 7353TIP3   OH243473   6.189   3.533  14.832  0.3478 -1.2380 -0.8127
 7353TIP3    H143474   6.232   3.493  14.757  0.1998  0.3499 -1.7858
 7353TIP3    H243475   6.119   3.586  14.794  0.6443  0.0608  0.3991
 7354TIP3   OH243476   2.555   1.620   0.949 -0.3371 -0.2875 -0.2756
 7354TIP3    H143477   2.554   1.538   0.899  1.1246 -0.4862 -0.0412
 7354TIP3    H243478   2.646   1.628   0.979 -1.3312 -0.8542  3.4595
 7355TIP3   OH243479   3.688   2.983  15.127  0.1700 -0.4870 -0.2731
 7355TIP3    H143480   3.697   3.050  15.195  2.8841 -1.5339  0.5412
 7355TIP3    H243481   3.595   2.964  15.124 -0.4739  2.1072  0.6285
 7356TIP3   OH243482   3.179   4.727  14.905 -0.1761  0.2712  0.1302
 7356TIP3    H143483   3.149   4.810  14.942  0.9179  0.0143  1.6706
 7356TIP3    H243484   3.248   4.752  14.843 -1.6635  0.6601 -1.4694
 7357TIP3   OH243485   1.640   2.473  12.484 -0.2379 -0.2522  0.8849
 7357TIP3    H143486   1.544   2.480  12.492 -0.2048 -1.1678  2.5081
 7357TIP3    H243487   1.662   2.530  12.410 -1.8806  1.1945  1.4501
 7358TIP3   OH243488   4.482   4.155  14.214 -0.1705 -0.4549 -0.2698
 7358TIP3    H143489   4.556   4.098  14.192 -0.3584 -0.8634  0.1429
 7358TIP3    H243490   4.421   4.098  14.261 -0.3947  0.0715  0.0846
 7359TIP3   OH243491   5.567   1.339   5.943  0.3249 -0.3750  0.1228
 7359TIP3    H143492   5.591   1.428   5.967  1.0264 -0.4705 -0.2201
 7359TIP3    H243493   5.617   1.283   6.003 -1.2849 -0.5337  1.4087
 7360TIP3   OH243494   0.245   0.177   5.427  0.0293  0.8637 -0.4714
 7360TIP3    H143495   0.200   0.224   5.497  0.8872 -0.6900  1.2405
 7360TIP3    H243496   0.228   0.085   5.446  3.8519  0.1755  0.3333
 7361TIP3   OH243497   1.493   3.214   2.190 -0.4653  0.0542 -0.7351
 7361TIP3    H143498   1.540   3.254   2.263 -2.3452  0.1070  0.5302
 7361TIP3    H243499   1.561   3.177   2.134  1.0558  0.1051  0.9971
 7362TIP3   OH243500   0.541   5.032   5.890  0.1495 -0.1434 -0.0146
 7362TIP3    H143501   0.631   5.052   5.912  0.0250 -0.7585  1.1050
 7362TIP3    H243502   0.491   5.054   5.968 -0.7971  0.9637 -0.8921
 7363TIP3   OH243503   1.456   5.322  16.974 -0.2676 -0.5374 -0.2327
 7363TIP3    H143504   1.368   5.357  16.985  0.0646  0.4792 -0.6364
 7363TIP3    H243505   1.506   5.360  17.046  0.1816  0.1596 -0.8841
 7364TIP3   OH243506   5.479   1.299   0.862  0.2464  0.1709  0.1933
 7364TIP3    H143507   5.434   1.232   0.810 -0.7898  1.9228 -1.2675
 7364TIP3    H243508   5.527   1.352   0.799  1.5027  0.5079  1.3726
 7365TIP3   OH243509   3.778   1.544  11.437 -0.1869 -0.2793 -0.0352
 7365TIP3    H143510   3.706   1.606  11.424 -1.5226 -1.4512  1.3358
 7365TIP3    H243511   3.763   1.477  11.371 -1.0115 -1.0528  0.9026
 7366TIP3   OH243512   6.043   0.820  15.486  0.0238 -0.0570  0.1439
 7366TIP3    H143513   5.986   0.746  15.505 -1.8279  0.9661 -1.1003
 7366TIP3    H243514   6.088   0.795  15.405  1.1748 -0.7404  0.9654
 7367TIP3   OH243515   4.141   2.912   2.856  0.2645  0.6125 -0.1918
 7367TIP3    H143516   4.180   2.999   2.855 -0.1336  0.9646  3.2414
 7367TIP3    H243517   4.190   2.864   2.923 -2.4402 -0.2453  1.3424
 7368TIP3   OH243518   2.043   2.216   3.147 -0.3821 -0.2574 -0.0025
 7368TIP3    H143519   1.960   2.170   3.139 -0.7299  0.7022 -2.4116
 7368TIP3    H243520   2.101   2.152   3.188 -2.2270 -0.9656  1.6757
 7369TIP3   OH243521   3.879   4.057  12.963 -0.2940 -0.5045  0.1440
 7369TIP3    H143522   3.878   4.032  13.056 -1.9824 -1.5382 -0.0947
 7369TIP3    H243523   3.818   4.130  12.958  2.0391  1.5555  0.2711
 7370TIP3   OH243524   0.711   2.491   0.468 -0.5332 -0.1900 -0.4118
 7370TIP3    H143525   0.710   2.581   0.436 -0.1748 -0.2405 -0.5723
 7370TIP3    H243526   0.703   2.437   0.390 -1.3893 -0.2926 -0.2606
 7371TIP3   OH243527   2.535   0.321   4.798 -0.4633  0.7308  0.1321
 7371TIP3    H143528   2.587   0.331   4.718 -0.1141  0.1475  0.2764
 7371TIP3    H243529   2.552   0.401   4.847 -1.8656  1.7991 -1.0250
 7372TIP3   OH243530   4.861   6.598   0.529  0.1878  0.4740 -0.7885
 7372TIP3    H143531   4.791   6.650   0.491  0.1988 -0.0259 -1.5313
 7372TIP3    H243532   4.903   6.655   0.593  0.6935  1.6538 -2.1284
 7373TIP3   OH243533   4.651   5.697  15.282 -0.2949  0.3802 -0.0732
 7373TIP3    H143534   4.644   5.762  15.212  0.3976 -0.1403 -0.6318
 7373TIP3    H243535   4.742   5.700  15.309 -0.1297 -0.6995 -0.4515
 7374TIP3   OH243536   6.572   3.893  11.199 -0.1293  0.4162  0.1970
 7374TIP3    H143537   6.500   3.838  11.168 -0.3080  0.2813  0.8434
 7374TIP3    H243538   6.639   3.832  11.227 -0.1265  0.5269  0.4397
 7375TIP3   OH243539   4.747   5.833  13.610 -0.6901 -0.3378 -0.4893
 7375TIP3    H143540   4.743   5.770  13.683 -0.6558 -0.5174 -0.6418
 7375TIP3    H243541   4.748   5.918  13.653  1.6784 -0.4703 -0.1787
 7376TIP3   OH243542   1.111   2.628   2.728 -0.7233  0.2999 -0.0765
 7376TIP3    H143543   1.177   2.570   2.690 -0.1935  0.7935  0.0831
 7376TIP3    H243544   1.081   2.682   2.655 -0.2976  0.6887  0.0331
 7377TIP3   OH243545   1.555   5.279  14.549  0.0835  0.1548  0.1892
 7377TIP3    H143546   1.587   5.350  14.605 -0.9824 -0.1291  1.1981
 7377TIP3    H243547   1.466   5.261  14.581  0.0640 -1.1418 -0.5121
 7378TIP3   OH243548   2.887   5.425   4.118  0.3472  0.0291  0.4085
 7378TIP3    H143549   2.946   5.487   4.161 -1.8167  1.9951  0.7422
 7378TIP3    H243550   2.881   5.352   4.180  1.4466  0.3356  0.9147
 7379TIP3   OH243551   4.279   0.469   3.006  0.7243  0.1016 -0.1803
 7379TIP3    H143552   4.220   0.470   2.931  0.3330  0.9993  0.1296
 7379TIP3    H243553   4.282   0.377   3.033 -1.0063  0.1165  0.1670
 7380TIP3   OH243554   6.533   6.731  17.250  0.0418 -0.3712  0.2036
 7380TIP3    H143555   6.474   6.699  17.318 -1.4793  0.1778 -0.8053
 7380TIP3    H243556   6.547   6.655  17.193 -0.0417 -0.3842  0.2008
 7381TIP3   OH243557   4.746   5.132  11.847 -0.1919 -0.4826 -0.1459
 7381TIP3    H143558   4.680   5.129  11.916  0.1099 -0.0975  0.1669
 7381TIP3    H243559   4.697   5.119  11.766 -1.1305  2.5542 -0.1948
 7382TIP3   OH243560   2.889   5.211  11.562  0.4377  0.1578 -0.7362
 7382TIP3    H143561   2.887   5.116  11.576 -0.7884  0.2563 -0.1633
 7382TIP3    H243562   2.853   5.223  11.474  0.0729  0.1181 -0.5962
 7383TIP3   OH243563   0.258   4.597  11.458 -0.2560 -0.1597  0.3849
 7383TIP3    H143564   0.290   4.557  11.377 -3.1125  0.4471 -1.1578
 7383TIP3    H243565   0.225   4.523  11.509 -0.2214 -0.3650  0.1141
 7384TIP3   OH243566   3.645   2.600   1.948  0.1812 -0.3290  0.7254
 7384TIP3    H143567   3.637   2.570   1.857  0.1796 -0.0053  0.6172
 7384TIP3    H243568   3.682   2.525   1.995  0.4116 -0.4156  0.4076
 7385TIP3   OH243569   4.193   6.368   0.792  0.2728  0.4225  0.1687
 7385TIP3    H143570   4.189   6.459   0.763 -0.1815 -0.5366 -3.1203
 7385TIP3    H243571   4.285   6.345   0.786  0.5023  0.8100  1.7259
 7386TIP3   OH243572   2.990   6.048   5.561 -0.1800  0.0266  0.2088
 7386TIP3    H143573   2.920   5.997   5.520 -0.0845 -0.1707  0.2966
 7386TIP3    H243574   3.066   6.034   5.505 -0.7127  1.8920 -1.1091
 7387TIP3   OH243575   5.943   6.306   0.199  0.2076 -0.0889 -0.0963
 7387TIP3    H143576   5.951   6.219   0.240 -2.1048  0.0959  0.8723
 7387TIP3    H243577   6.010   6.358   0.241  0.0212 -0.7829  1.1028
 7388TIP3   OH243578   3.343   3.295   1.495 -0.2274  0.1597 -0.3236
 7388TIP3    H143579   3.360   3.378   1.541 -1.0153  0.1989 -0.1003
 7388TIP3    H243580   3.345   3.228   1.563  2.0668 -0.2521 -0.7213
 7389TIP3   OH243581   0.313   0.617  10.410  0.0192  0.0917  0.0707
 7389TIP3    H143582   0.255   0.592  10.481  0.5403  1.4485  1.0313
 7389TIP3    H243583   0.304   0.712  10.403 -0.5154 -0.0496 -2.1599
 7390TIP3   OH243584   5.801   6.328   4.739  0.0135  0.3080 -0.4283
 7390TIP3    H143585   5.826   6.416   4.767  0.2091 -0.1296  0.8467
 7390TIP3    H243586   5.854   6.269   4.793 -0.4536 -0.5976 -0.9295
 7391TIP3   OH243587   0.646   2.512  10.897 -0.3673 -0.3148 -0.2485
 7391TIP3    H143588   0.623   2.523  10.804 -1.8330 -1.5744 -0.0897
 7391TIP3    H243589   0.733   2.551  10.905 -1.6832  3.3259 -1.3168
 7392TIP3   OH243590   6.483   2.851  12.899  0.3195  0.3573  0.6813
 7392TIP3    H143591   6.417   2.814  12.840  1.7925 -0.6998 -0.3831
 7392TIP3    H243592   6.566   2.840  12.852  1.2930  1.5238  2.0286
 7393TIP3   OH243593   0.218   2.176  11.488  0.0691  0.4522  0.1415
 7393TIP3    H143594   0.253   2.248  11.435  1.4038 -0.0178  0.3511
 7393TIP3    H243595   0.161   2.218  11.552  1.0934  1.3574  0.4750
 7394TIP3   OH243596   5.981   3.190  12.530 -0.1790  0.1136 -0.2373
 7394TIP3    H143597   5.948   3.228  12.612 -0.3557  1.2541 -0.8052
 7394TIP3    H243598   5.911   3.205  12.467  0.0695 -0.5031 -0.6674
 7395TIP3   OH243599   6.282   0.593  17.027 -0.3761 -0.7880 -0.2312
 7395TIP3    H143600   6.274   0.532  16.954  1.1971  0.6563 -1.6802
 7395TIP3    H243601   6.375   0.615  17.031 -0.5106 -0.3422  1.8462
 7396TIP3   OH243602   2.404   2.809   5.060  0.2091  0.4360  0.1174
 7396TIP3    H143603   2.354   2.841   4.984  1.6376  0.6362 -0.7789
 7396TIP3    H243604   2.347   2.826   5.135  0.2561  3.7990 -0.4593
 7397TIP3   OH243605   0.699   3.483   2.741  0.1969  0.3598  0.6915
 7397TIP3    H143606   0.683   3.389   2.740  2.4569 -0.0684  0.1269
 7397TIP3    H243607   0.614   3.522   2.717 -0.0103 -1.6748 -2.4441
 7398TIP3   OH243608   6.383   6.277   1.675 -0.1502 -0.1410 -0.8934
 7398TIP3    H143609   6.396   6.361   1.719 -1.1907 -1.2431  1.7288
 7398TIP3    H243610   6.289   6.272   1.660 -0.6219 -2.1202  2.0091
 7399TIP3   OH243611   6.052   3.452  16.757 -0.1063  0.2209  0.0634
 7399TIP3    H143612   6.062   3.542  16.728  1.3780  0.3425  0.8660
 7399TIP3    H243613   5.972   3.453  16.810 -0.6338  0.8347 -0.7166
 7400TIP3   OH243614   4.337   6.112  12.843 -0.0073 -0.6644  0.0374
 7400TIP3    H143615   4.280   6.044  12.805 -0.4297 -0.6621  0.6383
 7400TIP3    H243616   4.390   6.065  12.907 -0.5014 -0.3899  0.6627
 7401TIP3   OH243617   0.501   2.421   1.513  0.3789  0.2402 -0.1724
 7401TIP3    H143618   0.500   2.345   1.455  3.5089 -0.2183  0.1878
 7401TIP3    H243619   0.494   2.496   1.455  0.6862 -0.2755 -0.8929
 7402TIP3   OH243620   1.348   3.646   4.419 -0.2041  0.3027 -0.3767
 7402TIP3    H143621   1.332   3.557   4.450  0.0079  0.0890 -0.8753
 7402TIP3    H243622   1.261   3.683   4.405 -0.3046 -0.4457 -1.9133
 7403TIP3   OH243623   1.254   5.967  15.811 -0.2298 -0.3270  0.7990
 7403TIP3    H143624   1.202   5.978  15.891 -2.8389 -0.6716 -0.7100
 7403TIP3    H243625   1.238   6.047  15.761  2.7463  0.6464  1.2515
 7404TIP3   OH243626   4.972   4.669   3.033  0.2048  0.1527 -0.1490
 7404TIP3    H143627   4.885   4.631   3.047  0.1211  0.5100  0.3438
 7404TIP3    H243628   4.991   4.716   3.114  1.2584 -0.6873  0.1123
 7405TIP3   OH243629   3.447   3.001   5.243 -0.1377  0.3764 -0.0056
 7405TIP3    H143630   3.537   2.968   5.239  0.2991  1.5239 -0.0467
 7405TIP3    H243631   3.396   2.927   5.276  0.9601 -0.0153  0.8889
 7406TIP3   OH243632   0.158   3.843   5.508 -0.1664 -0.5380 -0.0076
 7406TIP3    H143633   0.205   3.918   5.544 -1.4801  0.1705  0.3203
 7406TIP3    H243634   0.118   3.877   5.428 -1.8114 -0.4768  0.7960
 7407TIP3   OH243635   0.396   2.206   3.762  0.1997  1.1648 -0.0374
 7407TIP3    H143636   0.421   2.138   3.824 -1.9663  2.3189  2.2838
 7407TIP3    H243637   0.435   2.178   3.679 -2.2884 -4.0922  0.1370
 7408TIP3   OH243638   2.263   4.651  16.870  0.1089 -0.2795 -0.4295
 7408TIP3    H143639   2.294   4.589  16.936  0.2289  0.5958  0.3579
 7408TIP3    H243640   2.182   4.612  16.837 -0.0586 -0.6384  0.3750
 7409TIP3   OH243641   2.745   1.922  15.124 -0.0932 -0.5892  0.1833
 7409TIP3    H143642   2.813   1.894  15.184  0.7219 -0.2417 -0.5598
 7409TIP3    H243643   2.792   1.965  15.052 -1.1395  0.4704  0.0934
 7410TIP3   OH243644   0.369   4.110  13.077  0.5807  0.0126 -0.3880
 7410TIP3    H143645   0.461   4.111  13.106  0.4087  0.2373  0.1599
 7410TIP3    H243646   0.366   4.175  13.006  0.7726  0.2421 -0.1870
 7411TIP3   OH243647   4.579   2.721  13.303 -0.5562 -0.2613 -0.5769
 7411TIP3    H143648   4.518   2.781  13.259 -3.4504  0.7699  4.1054
 7411TIP3    H243649   4.614   2.772  13.376  0.2560 -3.0567  1.1326
 7412TIP3   OH243650   3.084   2.835  10.644  0.4933  0.4031  0.7320
 7412TIP3    H143651   3.087   2.892  10.721  0.6351  2.2446 -0.5737
 7412TIP3    H243652   3.023   2.878  10.584 -0.9418 -1.8704  0.4388
 7413TIP3   OH243653   6.255   3.204  16.985  0.2584  0.1701  0.1975
 7413TIP3    H143654   6.225   3.220  16.896  0.1414  0.0986  0.2232
 7413TIP3    H243655   6.350   3.212  16.981  0.4388 -1.7841 -0.3432
 7414TIP3   OH243656   3.260   0.852   6.334 -0.2860 -0.1709  0.2999
 7414TIP3    H143657   3.281   0.940   6.365 -1.0343 -0.0375  0.4439
 7414TIP3    H243658   3.322   0.795   6.381  1.0439  0.3848 -0.7372
 7415TIP3   OH243659   1.195   0.392   0.402  0.1613 -0.3172 -0.1138
 7415TIP3    H143660   1.246   0.446   0.463  1.9103 -0.6930 -1.1717
 7415TIP3    H243661   1.229   0.416   0.315  0.8221 -2.8730 -0.6488
 7416TIP3   OH243662   3.663   1.858  11.997 -0.2471 -0.1541 -0.0150
 7416TIP3    H143663   3.582   1.895  12.034 -1.3003 -0.7924 -1.5756
 7416TIP3    H243664   3.642   1.767  11.979  1.1872 -0.6135  0.5169
 7417TIP3   OH243665   4.502   0.182  12.468  0.4413  0.0685  0.1308
 7417TIP3    H143666   4.428   0.243  12.464 -0.8945 -1.5246 -0.5989
 7417TIP3    H243667   4.526   0.167  12.377  2.0296  0.9108  0.3613
 7418TIP3   OH243668   3.263   5.124   1.862  0.1812  0.3667 -0.2652
 7418TIP3    H143669   3.309   5.063   1.919  0.4540 -0.3832 -1.2678
 7418TIP3    H243670   3.193   5.160   1.917 -0.2165 -1.1222  0.2427
 7419TIP3   OH243671   0.473   4.893  13.596 -0.0496  0.8821 -0.0277
 7419TIP3    H143672   0.464   4.880  13.690 -0.5232 -2.4495 -0.4098
 7419TIP3    H243673   0.383   4.897  13.564 -0.3792 -4.7643 -0.8640
 7420TIP3   OH243674   4.055   5.810   3.395  0.2378 -0.1026 -0.0734
 7420TIP3    H143675   4.070   5.716   3.380 -0.7083  0.1655 -3.5259
 7420TIP3    H243676   4.140   5.844   3.420  1.6075 -1.3051 -2.7111
 7421TIP3   OH243677   3.675   4.439   2.309 -0.0780 -0.0383  0.7182
 7421TIP3    H143678   3.736   4.368   2.286  1.2079  0.7921  1.4695
 7421TIP3    H243679   3.589   4.398   2.305  0.5766 -1.4445  0.3593
 7422TIP3   OH243680   2.005   5.148   0.150  0.0112  0.0339  0.1779
 7422TIP3    H143681   1.926   5.139   0.097 -0.8784  1.4752  1.1864
 7422TIP3    H243682   2.015   5.242   0.162  3.0292  0.0772 -1.5369
 7423TIP3   OH243683   4.488   2.562   0.231 -0.9196  0.8890  0.1958
 7423TIP3    H143684   4.450   2.491   0.283 -0.9909  1.9807  1.7047
 7423TIP3    H243685   4.422   2.631   0.231 -0.1469  1.6476  0.2929
 7424TIP3   OH243686   6.178   5.565   1.012  0.5626  0.3197 -0.2534
 7424TIP3    H143687   6.192   5.639   0.953 -0.0896  0.2606 -0.5001
 7424TIP3    H243688   6.085   5.572   1.036  0.6753 -0.0011  0.2988
 7425TIP3   OH243689   0.397   1.558   2.069  0.3600  0.2783 -0.0788
 7425TIP3    H143690   0.366   1.637   2.114  1.2232  0.0236  1.0159
 7425TIP3    H243691   0.322   1.529   2.017 -0.5524  0.8262  0.8790
 7426TIP3   OH243692   4.291   0.880  11.284 -0.1850 -0.2797 -0.1146
 7426TIP3    H143693   4.371   0.845  11.323  1.4900  0.7510 -2.3842
 7426TIP3    H243694   4.292   0.847  11.194 -1.0828  1.5749 -0.8598
 7427TIP3   OH243695   4.510   5.283   4.188 -0.1536 -0.7030 -0.0593
 7427TIP3    H143696   4.513   5.355   4.251  1.5745  1.4428 -2.3994
 7427TIP3    H243697   4.482   5.208   4.239 -0.7486  1.3039  2.8192
 7428TIP3   OH243698   1.981   4.709   5.059  0.4899 -0.2064  0.3324
 7428TIP3    H143699   1.959   4.696   5.151  0.2931 -3.2243 -0.0510
 7428TIP3    H243700   2.042   4.638   5.038  0.4205  0.3165 -1.9214
 7429TIP3   OH243701   3.919   6.335   2.094  0.5281 -0.2320 -0.0277
 7429TIP3    H143702   3.852   6.286   2.047  0.1548 -0.4326  0.6934
 7429TIP3    H243703   4.001   6.290   2.073  0.4110 -0.1207 -0.7356
 7430TIP3   OH243704   3.809   5.287   2.239 -0.3057  0.1234  0.3488
 7430TIP3    H143705   3.794   5.207   2.290 -2.5656 -1.1155 -1.9860
 7430TIP3    H243706   3.872   5.260   2.172 -0.7374  0.3822 -0.1724
 7431TIP3   OH243707   4.860   1.947  11.910 -0.2823  0.3677 -0.0247
 7431TIP3    H143708   4.952   1.954  11.937 -0.1311  1.4049 -0.7516
 7431TIP3    H243709   4.853   1.858  11.875  0.2357  0.0040  0.7519
 7432TIP3   OH243710   1.171   1.110  15.846 -0.5544  0.2672 -0.5400
 7432TIP3    H143711   1.081   1.142  15.839 -0.9104 -0.3969  0.5946
 7432TIP3    H243712   1.173   1.064  15.930  1.1524  1.1966 -0.0281
 7433TIP3   OH243713   5.508   4.571  12.242 -0.3289  0.2867 -0.1291
 7433TIP3    H143714   5.570   4.590  12.313  0.8979  0.1299 -1.1203
 7433TIP3    H243715   5.460   4.493  12.272  1.8986 -1.3158 -0.4813
 7434TIP3   OH243716   1.102   0.730   0.864 -0.3773 -0.1135  0.5574
 7434TIP3    H143717   1.175   0.670   0.847 -1.3437 -1.2716  0.3342
 7434TIP3    H243718   1.096   0.782   0.784 -0.7455 -1.0652 -0.0596
 7435TIP3   OH243719   1.960   3.464  15.608 -0.0092 -0.6165  0.0842
 7435TIP3    H143720   2.043   3.509  15.627  1.1916 -1.7749 -2.0997
 7435TIP3    H243721   1.979   3.372  15.623 -0.7786 -0.9294 -0.7875
 7436TIP3   OH243722   5.857   3.979  16.412 -0.1182  0.6514  0.5495
 7436TIP3    H143723   5.866   4.048  16.347  1.3416  1.1074  1.1858
 7436TIP3    H243724   5.896   4.017  16.492  0.3739 -0.7615  1.0026
 7437TIP3   OH243725   4.294   1.654  16.754 -0.1507 -0.2842 -0.1682
 7437TIP3    H143726   4.382   1.690  16.770  0.2561 -0.5469 -1.6682
 7437TIP3    H243727   4.235   1.727  16.771  0.3917  0.0373  0.3748
 7438TIP3   OH243728   4.374   0.062  13.321 -0.1188 -0.4732 -0.6154
 7438TIP3    H143729   4.312  -0.009  13.301 -0.1349 -0.2420 -1.4114
 7438TIP3    H243730   4.347   0.093  13.408 -0.8745 -0.6345 -0.7811
 7439TIP3   OH243731   6.668   2.714  11.211  0.7904 -0.4144  0.3248
 7439TIP3    H143732   6.763   2.711  11.218  0.9050 -0.9428 -1.0907
 7439TIP3    H243733   6.651   2.745  11.122 -0.3881  1.3882  1.1249
 7440TIP3   OH243734   0.637   1.620  10.664 -0.0407 -0.2345  1.0401
 7440TIP3    H143735   0.661   1.534  10.630  0.5052  1.3954 -3.3817
 7440TIP3    H243736   0.719   1.657  10.696  0.8781  0.3141 -1.6369
 7441TIP3   OH243737   2.103   2.781   0.737  0.3726  0.2810 -0.2169
 7441TIP3    H143738   2.095   2.792   0.643  0.0342  1.7566 -0.0365
 7441TIP3    H243739   2.113   2.869   0.771  3.6004 -0.3675  0.8938
 7442TIP3   OH243740   3.043   2.418   3.954  0.6710  0.1686 -0.0253
 7442TIP3    H143741   3.129   2.413   3.911 -0.5138 -1.5733 -2.4231
 7442TIP3    H243742   2.984   2.448   3.886 -1.1791 -1.8495  0.5559
 7443TIP3   OH243743   4.181   1.996  12.380  0.0979 -0.5026 -0.0915
 7443TIP3    H143744   4.113   1.961  12.437 -0.6402  0.6715 -0.2261
 7443TIP3    H243745   4.200   2.083  12.415  1.5399 -0.7959 -0.0599
 7444TIP3   OH243746   4.201   5.033   5.050  0.2207 -0.4236 -0.4338
 7444TIP3    H143747   4.192   5.110   5.107  0.1427 -1.9384  1.7025
 7444TIP3    H243748   4.286   5.046   5.006 -0.1250  1.2049 -0.6995
 7445TIP3   OH243749   3.965   2.890  11.895 -0.5858  0.3402 -0.0093
 7445TIP3    H143750   3.905   2.952  11.854  1.3728  0.5982 -2.7594
 7445TIP3    H243751   4.030   2.944  11.939  0.8174  0.3112 -1.9484
 7446TIP3   OH243752   1.005   3.470   5.474 -0.0781 -0.1903 -0.4106
 7446TIP3    H143753   1.090   3.486   5.434 -0.0527  1.9028  0.3646
 7446TIP3    H243754   1.013   3.383   5.514  1.4090 -0.3548 -1.0266
 7447TIP3   OH243755   2.134   2.347  11.524 -0.9120  0.6280 -0.1865
 7447TIP3    H143756   2.191   2.416  11.556  1.4794 -1.0779 -0.5211
 7447TIP3    H243757   2.113   2.372  11.434 -0.1862  0.9812 -0.2631
 7448TIP3   OH243758   4.692   3.566  13.881  0.6886  0.2347 -0.2541
 7448TIP3    H143759   4.714   3.519  13.961 -0.2631 -0.4132 -0.3574
 7448TIP3    H243760   4.680   3.657  13.909 -2.7011 -0.4423  1.0068
 7449TIP3   OH243761   0.141   2.948   4.259  0.5493 -0.0315  0.2894
 7449TIP3    H143762   0.124   3.038   4.231  0.9547 -0.4593 -1.4275
 7449TIP3    H243763   0.171   2.903   4.180 -0.9110 -2.0162  0.7958
 7450TIP3   OH243764   4.207   3.398  16.193  0.0747 -0.1612 -0.2231
 7450TIP3    H143765   4.219   3.311  16.155  1.1893 -1.1589  2.1452
 7450TIP3    H243766   4.289   3.414  16.241 -0.7069  1.5301  0.6454
 7451TIP3   OH243767   5.299   2.865   5.786  0.5372  0.0639 -0.4944
 7451TIP3    H143768   5.342   2.882   5.869 -0.3862  1.2853 -0.2289
 7451TIP3    H243769   5.329   2.936   5.729 -1.9583  1.6969  0.0622
 7452TIP3   OH243770   4.907   5.131  13.067  0.1613  0.0357 -0.3585
 7452TIP3    H143771   4.877   5.057  13.013 -1.2140  0.5508 -0.3463
 7452TIP3    H243772   4.976   5.094  13.122  0.6554 -0.8315 -1.5210
 7453TIP3   OH243773   6.521   3.824   4.972 -0.4383  0.5137 -0.7068
 7453TIP3    H143774   6.564   3.777   5.044  2.7082  1.8416 -1.5341
 7453TIP3    H243775   6.498   3.756   4.909 -1.9131 -0.5123  0.8645
 7454TIP3   OH243776   2.109   3.047   0.865  0.0577 -0.7003 -0.4144
 7454TIP3    H143777   2.193   3.089   0.846 -0.8777  0.5056 -2.1709
 7454TIP3    H243778   2.046   3.119   0.869 -1.0192 -1.6313  0.2284
 7455TIP3   OH243779   6.689   1.550  17.008  0.2638  0.1170 -0.1652
 7455TIP3    H143780   6.641   1.632  16.997  0.4016  0.2715  0.3534
 7455TIP3    H243781   6.710   1.547  17.101  0.4386 -0.4093 -0.2181
 7456TIP3   OH243782   3.448   2.344  16.951  0.2497  0.5352  0.1742
 7456TIP3    H143783   3.535   2.382  16.960  0.7793 -0.2674 -1.3640
 7456TIP3    H243784   3.459   2.251  16.972 -0.4160  0.5737  0.7657
 7457TIP3   OH243785   3.963   4.497  14.360  0.0381  0.7077  0.2596
 7457TIP3    H143786   3.919   4.581  14.372  0.3002  0.7537  0.8882
 7457TIP3    H243787   3.894   4.439  14.328 -0.0888  1.2222 -0.4302
 7458TIP3   OH243788   6.611   4.874  16.874 -0.1411 -0.1973  0.0359
 7458TIP3    H143789   6.527   4.910  16.905 -0.4267 -1.3257  0.6487
 7458TIP3    H243790   6.627   4.799  16.932 -0.5007 -2.1821 -2.2997
 7459TIP3   OH243791   2.183   2.413  15.438  0.2338  0.2429  0.2345
 7459TIP3    H143792   2.163   2.466  15.516  1.6688  0.0868  0.7388
 7459TIP3    H243793   2.116   2.437  15.375 -1.8367 -0.6235  1.9647
 7460TIP3   OH243794   1.968   5.205   2.279 -0.1800  0.1606 -0.6136
 7460TIP3    H143795   1.920   5.239   2.204  0.5907  0.6578 -0.9019
 7460TIP3    H243796   1.994   5.117   2.253 -0.5850  0.0377 -0.6119
 7461TIP3   OH243797   3.909   1.271   4.370  0.5734 -0.0202  0.3971
 7461TIP3    H143798   3.917   1.181   4.402  0.0721  0.4331  1.8973
 7461TIP3    H243799   3.820   1.298   4.394  0.5841  0.7462 -0.3798
 7462TIP3   OH243800   4.977   1.681  10.662 -0.1828 -0.2154  0.0442
 7462TIP3    H143801   4.888   1.687  10.626  0.0267  0.5937 -0.3514
 7462TIP3    H243802   5.000   1.770  10.686  0.0680 -0.6003  1.2959
 7463TIP3   OH243803   1.281   1.637  12.891 -0.1927 -0.1323  0.0562
 7463TIP3    H143804   1.287   1.541  12.890 -1.9725 -0.2915  0.7025
 7463TIP3    H243805   1.348   1.665  12.953  0.8976 -0.8980 -0.7552
 7464TIP3   OH243806   0.761   3.577   5.785 -0.4288  0.2437 -0.7091
 7464TIP3    H143807   0.735   3.665   5.811  1.8103  1.1734 -1.3670
 7464TIP3    H243808   0.764   3.580   5.689  0.5953 -0.2412 -0.7012
 7465TIP3   OH243809   6.056   2.818  15.060  0.1399  0.4320 -0.3433
 7465TIP3    H143810   5.990   2.784  15.119  1.8771 -1.2047  0.7692
 7465TIP3    H243811   6.073   2.746  14.999 -0.6935  1.6370 -2.0845
 7466TIP3   OH243812   4.972   3.787  12.348 -0.4049 -0.2511 -0.2388
 7466TIP3    H143813   4.940   3.711  12.395  0.6634 -1.4505 -1.3806
 7466TIP3    H243814   5.036   3.827  12.407 -1.4096  0.1475  0.6093
 7467TIP3   OH243815   1.318   2.634   0.605 -0.5150  0.4122  0.1229
 7467TIP3    H143816   1.310   2.538   0.608 -0.2041  0.3671 -0.3699
 7467TIP3    H243817   1.339   2.653   0.513 -2.3385  1.0857 -0.2160
 7468TIP3   OH243818   0.404   2.721  10.964  0.4119 -0.1637  0.3492
 7468TIP3    H143819   0.325   2.758  10.924 -1.2714 -3.4720  0.2678
 7468TIP3    H243820   0.476   2.751  10.908 -0.7905  2.3606  0.0135
 7469TIP3   OH243821   6.578   0.614   3.861  0.0575  0.9292 -0.1682
 7469TIP3    H143822   6.497   0.572   3.832 -0.1774  0.6418  0.8672
 7469TIP3    H243823   6.603   0.671   3.789 -0.9680  0.8761 -0.5746
 7470TIP3   OH243824   3.540   0.438  10.642  0.0689  0.3338 -0.9419
 7470TIP3    H143825   3.571   0.476  10.724  2.1749 -1.8632 -0.5956
 7470TIP3    H243826   3.525   0.345  10.662 -1.2213  0.1302 -2.6065
 7471TIP3   OH243827   2.378   5.879   1.745 -0.5502  0.3102 -0.8658
 7471TIP3    H143828   2.353   5.900   1.835 -0.2146 -1.8502 -0.2124
 7471TIP3    H243829   2.300   5.837   1.708 -0.1348 -0.3247 -1.0295
 7472TIP3   OH243830   6.345   3.559  14.334  0.0541  0.0528 -0.1276
 7472TIP3    H143831   6.412   3.620  14.305  0.4209  0.1203  0.8343
 7472TIP3    H243832   6.381   3.473  14.315  0.0148  0.1086 -0.4590
 7473TIP3   OH243833   0.522   2.033   1.663  0.7618  0.3987  0.2186
 7473TIP3    H143834   0.448   2.076   1.620 -0.0165 -0.4463  0.6642
 7473TIP3    H243835   0.511   1.940   1.642  2.6540  0.4169 -1.1107
 7474TIP3   OH243836   5.676   2.183   2.318  0.1987 -0.2737 -0.2789
 7474TIP3    H143837   5.582   2.186   2.304  0.0595 -1.2907  0.3395
 7474TIP3    H243838   5.704   2.100   2.280  0.8651  0.0492 -0.5188
 7475TIP3   OH243839   3.276   1.598  13.807  0.3728 -0.0743 -0.2584
 7475TIP3    H143840   3.223   1.541  13.751  0.7046  0.1610 -0.8254
 7475TIP3    H243841   3.269   1.684  13.766  1.4732 -0.1113 -0.5472
 7476TIP3   OH243842   5.461   1.395  14.689 -0.9936  0.0559 -0.0881
 7476TIP3    H143843   5.426   1.484  14.701  0.5373  0.6078  0.5184
 7476TIP3    H243844   5.414   1.361  14.613 -0.6389  1.9044 -1.2046
 7477TIP3   OH243845   0.049   0.841  12.833 -0.1816  0.3740 -0.1318
 7477TIP3    H143846   0.081   0.930  12.816  0.0230  0.3697  0.2113
 7477TIP3    H243847  -0.032   0.853  12.882 -1.5713  0.4233 -2.2870
 7478TIP3   OH243848   3.900   5.234  12.637 -0.1506 -0.1527  0.2628
 7478TIP3    H143849   3.828   5.223  12.699 -1.1223 -1.1026 -0.9702
 7478TIP3    H243850   3.866   5.294  12.571  0.6702  0.4158  0.3406
 7479TIP3   OH243851   0.863   2.361  12.522 -0.1703 -0.0042  0.2431
 7479TIP3    H143852   0.885   2.298  12.591  0.6541 -2.5915 -2.1657
 7479TIP3    H243853   0.946   2.407  12.505 -0.6373  1.4403  1.6165
 7480TIP3   OH243854   0.679   1.316   5.673 -0.1656  0.1515  0.2334
 7480TIP3    H143855   0.761   1.307   5.722  0.5677  0.2137 -0.9222
 7480TIP3    H243856   0.610   1.306   5.738  0.7701  0.6363  1.3279
 7481TIP3   OH243857   3.736   4.262  13.504  0.4775 -0.3393  0.4078
 7481TIP3    H143858   3.797   4.234  13.573  0.6940 -3.4101 -0.8423
 7481TIP3    H243859   3.654   4.216  13.524  0.2600 -0.5212 -0.7990
 7482TIP3   OH243860   5.997   3.474   3.627 -0.2024 -0.0632 -0.1412
 7482TIP3    H143861   5.950   3.556   3.610 -1.1809 -0.5083  0.3526
 7482TIP3    H243862   6.029   3.447   3.540 -0.5445  0.4480 -0.4328
 7483TIP3   OH243863   4.861   0.064  15.727  0.4717 -0.1580 -0.0914
 7483TIP3    H143864   4.914   0.017  15.662  0.8583 -0.3288  0.3395
 7483TIP3    H243865   4.800  -0.001  15.760 -1.8155  0.6186 -2.4131
 7484TIP3   OH243866   6.579   0.561  12.699  0.2399  0.2535 -0.4716
 7484TIP3    H143867   6.537   0.643  12.674 -1.4440 -0.2723  0.4702
 7484TIP3    H243868   6.673   0.582  12.701 -0.1294  2.1047 -0.4278
 7485TIP3   OH243869   5.296   1.415  17.343 -0.0258  0.3653  0.0936
 7485TIP3    H143870   5.336   1.461  17.417  1.1409  2.2392 -1.5874
 7485TIP3    H243871   5.328   1.325  17.351  0.6654  0.6930  1.4400
 7486TIP3   OH243872   6.669   3.824   3.979  0.0232  0.0605 -0.3068
 7486TIP3    H143873   6.673   3.916   3.955  0.7366  0.4494  1.1740
 7486TIP3    H243874   6.756   3.790   3.960  0.4175  0.2357  1.0646
 7487TIP3   OH243875   1.694   2.384   2.788 -0.4034  0.1206  0.3931
 7487TIP3    H143876   1.642   2.305   2.800 -0.0711 -0.0867  0.5030
 7487TIP3    H243877   1.682   2.433   2.870  0.0510 -0.2135  0.6652
 7488TIP3   OH243878   6.211   6.574  12.891 -0.4528  0.5548  0.2306
 7488TIP3    H143879   6.186   6.638  12.957 -1.3716  0.1923  0.2403
 7488TIP3    H243880   6.274   6.621  12.835 -0.8239  1.3393  0.4618
 7489TIP3   OH243881   0.182   0.022  13.684 -0.6620  0.0416 -0.3866
 7489TIP3    H143882   0.187   0.067  13.600 -2.0946 -0.6365 -0.8611
 7489TIP3    H243883   0.101  -0.029  13.680 -1.1108  0.4821  1.6466
 7490TIP3   OH243884   1.950   4.842   1.400 -0.1419  0.1763  0.3136
 7490TIP3    H143885   1.945   4.910   1.332 -0.8403  1.4892  1.6167
 7490TIP3    H243886   2.033   4.860   1.444 -0.5478  0.4824  0.9559
 7491TIP3   OH243887   6.582   2.629  14.475  0.2868 -0.1732 -0.1965
 7491TIP3    H143888   6.503   2.634  14.420  0.1375 -0.0452  0.0259
 7491TIP3    H243889   6.653   2.659  14.418  0.0744  0.3254 -0.2044
 7492TIP3   OH243890   0.860   3.082  14.617  0.2527  0.7700  0.4345
 7492TIP3    H143891   0.769   3.071  14.588  0.3394 -0.6565  0.6135
 7492TIP3    H243892   0.856   3.157  14.677 -0.8813  0.5195  0.7113
 7493TIP3   OH243893   2.868   5.556   4.984 -0.3345  0.0199  0.0118
 7493TIP3    H143894   2.787   5.532   5.028 -1.7545  1.5019 -1.6313
 7493TIP3    H243895   2.903   5.629   5.036  0.3309 -1.0334  1.0851
 7494TIP3   OH243896   4.521   2.461  12.426 -0.0723 -0.5022  0.3794
 7494TIP3    H143897   4.450   2.484  12.367  0.8423 -0.5854 -0.7745
 7494TIP3    H243898   4.585   2.532  12.416  0.2233 -0.6560  1.0792
 7495TIP3   OH243899   5.833   6.523  14.947 -0.2185 -0.4243  0.1890
 7495TIP3    H143900   5.801   6.449  14.896  1.3993 -0.9909 -0.0839
 7495TIP3    H243901   5.837   6.491  15.037  0.8399 -0.8332  0.0154
 7496TIP3   OH243902   4.228   4.313   1.614 -0.2102  0.1153  0.0966
 7496TIP3    H143903   4.187   4.232   1.643  1.9531 -2.1560 -2.6857
 7496TIP3    H243904   4.264   4.351   1.694 -1.4851 -1.5006  1.5160
 7497TIP3   OH243905   4.303   0.361   3.590 -0.1506 -0.0479  0.1146
 7497TIP3    H143906   4.231   0.423   3.608 -0.9598 -1.0785  0.5529
 7497TIP3    H243907   4.324   0.325   3.676  2.1736  1.5412  0.3033
 7498TIP3   OH243908   5.551   0.114  13.367 -0.1349  0.2383 -0.1362
 7498TIP3    H143909   5.637   0.089  13.331  1.8823  3.0182  2.2777
 7498TIP3    H243910   5.511   0.168  13.299 -0.1629 -1.2949 -1.3949
 7499TIP3   OH243911   1.537   0.068  15.476  0.0114  0.1184 -0.5307
 7499TIP3    H143912   1.616   0.050  15.425 -0.0017 -1.7274  0.0345
 7499TIP3    H243913   1.566   0.130  15.543  1.0661 -0.6906 -0.1996
 7500TIP3   OH243914   2.815   0.275  12.054  0.2101 -0.0085 -0.0474
 7500TIP3    H143915   2.787   0.224  11.978  1.7145  0.4604 -0.9678
 7500TIP3    H243916   2.896   0.232  12.083 -0.1685  0.0213  1.0958
 7501TIP3   OH243917   4.918   4.303   4.957  0.1306 -0.5311  0.0394
 7501TIP3    H143918   4.920   4.365   5.031 -0.6907  0.2220 -0.5358
 7501TIP3    H243919   4.825   4.282   4.947  0.3175 -1.2166 -0.3092
 7502TIP3   OH243920   0.271   5.867  16.336  0.2178 -0.2844 -0.0706
 7502TIP3    H143921   0.333   5.867  16.263  0.3415 -0.3766  0.0342
 7502TIP3    H243922   0.317   5.911  16.407  0.2447 -0.5449  0.0759
 7503TIP3   OH243923   6.005   1.487   0.505 -0.8883 -0.1930  0.5390
 7503TIP3    H143924   6.085   1.506   0.553 -1.4757  0.5655  1.2529
 7503TIP3    H243925   6.030   1.422   0.439  0.7232  1.3724 -0.4680
 7504TIP3   OH243926   4.005   4.861   2.137  0.2526  0.5189  0.1840
 7504TIP3    H143927   3.950   4.906   2.201  0.6773  3.0970 -1.1297
 7504TIP3    H243928   4.080   4.830   2.188 -0.6791  0.1350  1.3698
 7505TIP3   OH243929   3.937   3.465   4.930 -0.4118 -0.7616  0.5040
 7505TIP3    H143930   4.019   3.514   4.917 -1.2776  0.8624  0.8637
 7505TIP3    H243931   3.894   3.468   4.844 -0.9165 -0.0030  0.7743
 7506TIP3   OH243932   2.790   1.691   1.013 -0.4733  0.1347 -0.3014
 7506TIP3    H143933   2.792   1.786   1.021 -0.8323  0.0252  1.8587
 7506TIP3    H243934   2.883   1.665   1.011 -0.3752  0.5106 -0.7534
 7507TIP3   OH243935   3.149   0.728   5.633  0.1305 -0.1620  0.4377
 7507TIP3    H143936   3.181   0.638   5.633  0.5386 -0.0176  0.1150
 7507TIP3    H243937   3.081   0.729   5.701  0.3501 -0.6306  0.6697
 7508TIP3   OH243938   2.477   0.334  14.857  0.0894  0.0329 -0.2716
 7508TIP3    H143939   2.486   0.429  14.868 -0.1926  0.0648 -0.3088
 7508TIP3    H243940   2.504   0.297  14.940 -1.6899  0.2498  0.4536
 7509TIP3   OH243941   0.251   2.185  17.200  0.2166 -0.2061  0.2770
 7509TIP3    H143942   0.270   2.276  17.175 -1.8297  0.0655 -0.4667
 7509TIP3    H243943   0.216   2.192  17.289  0.7578 -0.3614  0.5059
 7510TIP3   OH243944   0.109   0.122  16.622  0.2915  0.4682  0.7862
 7510TIP3    H143945   0.052   0.049  16.645 -0.1267  0.6862  0.4550
 7510TIP3    H243946   0.051   0.185  16.580  0.3937  1.5552  2.2041
 7511TIP3   OH243947   0.220   1.449   6.442 -0.0928 -0.1112 -0.3249
 7511TIP3    H143948   0.220   1.362   6.402 -1.2764  0.2616 -1.1781
 7511TIP3    H243949   0.303   1.488   6.414 -0.5326 -0.1656 -1.7782
 7512TIP3   OH243950   6.422   1.955  15.469 -0.5662  0.2613  0.3924
 7512TIP3    H143951   6.480   1.922  15.401 -1.3183 -1.1146  0.3791
 7512TIP3    H243952   6.445   1.905  15.547 -1.0944  0.3515  0.6108
 7513TIP3   OH243953   6.228   3.227   1.709 -0.1792  0.3657 -0.1065
 7513TIP3    H143954   6.152   3.286   1.704 -0.0664  0.4197 -2.4696
 7513TIP3    H243955   6.197   3.146   1.667  0.7084 -0.0258 -0.0112
 7514TIP3   OH243956   1.095   4.499  16.608 -0.1261 -0.3907 -0.4986
 7514TIP3    H143957   1.085   4.555  16.685  1.7601  0.2491 -0.6635
 7514TIP3    H243958   1.037   4.538  16.542  1.2477  1.5397 -0.6631
 7515TIP3   OH243959   1.097   5.851   5.426 -0.2641 -0.7700 -0.0599
 7515TIP3    H143960   1.080   5.759   5.444 -1.0013 -0.9271 -1.4255
 7515TIP3    H243961   1.072   5.897   5.506 -1.0003 -1.6436  0.2217
 7516TIP3   OH243962   1.833   1.722  14.370  0.5654  0.5456 -0.1716
 7516TIP3    H143963   1.820   1.816  14.386 -2.3075  0.1288  0.4565
 7516TIP3    H243964   1.771   1.700  14.301  1.0956 -0.9505 -0.2150
 7517TIP3   OH243965   1.583   2.275  15.352 -0.0788 -0.1843  0.0548
 7517TIP3    H143966   1.528   2.351  15.372  0.1036 -0.8320  3.6543
 7517TIP3    H243967   1.641   2.305  15.282 -0.5044  2.7685  0.8423
 7518TIP3   OH243968   5.062   6.500  13.890  0.2821  0.0370  0.4315
 7518TIP3    H143969   5.089   6.455  13.810  1.9528  1.5870  0.0626
 7518TIP3    H243970   5.094   6.445  13.961  1.1775 -0.0135  0.0005
 7519TIP3   OH243971   3.995   5.869   1.400  0.0805  0.1148 -0.4083
 7519TIP3    H143972   4.062   5.882   1.467  0.9508  2.8583 -1.6967
 7519TIP3    H243973   3.921   5.921   1.429 -0.2593 -0.2141 -0.6672
 7520TIP3   OH243974   1.180   1.169   3.368  0.2943  0.7868  0.3954
 7520TIP3    H143975   1.089   1.197   3.365  1.0951  3.7764 -0.8865
 7520TIP3    H243976   1.218   1.217   3.442  0.6994 -1.1490  1.5210
 7521TIP3   OH243977   1.787   0.379   6.182 -0.1920 -0.2901  0.2252
 7521TIP3    H143978   1.746   0.312   6.127  1.2501 -0.5504 -0.5721
 7521TIP3    H243979   1.851   0.331   6.235 -1.8233 -0.1213  2.5156
 7522TIP3   OH243980   4.882   3.380  12.723 -0.4433 -0.4380 -0.4915
 7522TIP3    H143981   4.939   3.405  12.796 -2.6861  0.3826  1.0962
 7522TIP3    H243982   4.935   3.321  12.670  1.5575 -0.4404  1.3852
 7523TIP3   OH243983   5.510   0.605  11.294 -0.2089 -0.6214  0.0041
 7523TIP3    H143984   5.486   0.656  11.217  0.8075 -2.2977 -1.4992
 7523TIP3    H243985   5.426   0.583  11.335 -0.6838  2.3420  0.8695
 7524TIP3   OH243986   1.723   4.182   3.604  0.4047  0.1366 -0.4287
 7524TIP3    H143987   1.664   4.222   3.668 -0.0526  0.0026 -0.7662
 7524TIP3    H243988   1.712   4.087   3.616  0.3667  0.1105 -0.6628
 7525TIP3   OH243989   4.138   5.118   1.296 -0.0642  0.2256  0.0512
 7525TIP3    H143990   4.182   5.072   1.225  0.0778 -1.6193  1.2700
 7525TIP3    H243991   4.051   5.139   1.261  0.0378 -0.5820 -0.7063
 7526TIP3   OH243992   0.278   6.162   1.257  0.7020  0.6533  0.0847
 7526TIP3    H143993   0.279   6.199   1.169  0.6432  0.7160  0.1103
 7526TIP3    H243994   0.332   6.222   1.309  1.8988 -0.1329 -0.2110
 7527TIP3   OH243995   2.173   3.032   3.646 -0.4284 -0.0455 -0.2721
 7527TIP3    H143996   2.170   2.938   3.663 -2.1284 -0.2138 -1.2877
 7527TIP3    H243997   2.155   3.072   3.732 -1.8595 -0.7147 -0.2295
 7528TIP3   OH243998   3.792   0.127   5.418 -0.0837  0.6493 -0.6166
 7528TIP3    H143999   3.744   0.151   5.498 -1.8158  1.0285 -1.7088
 7528TIP3    H244000   3.759   0.040   5.397  0.2689  0.6070 -0.9868
 7529TIP3   OH244001   5.567   3.761  12.773  0.0839 -0.0822  0.3488
 7529TIP3    H144002   5.613   3.717  12.702 -0.7253 -0.5541  0.1049
 7529TIP3    H244003   5.627   3.756  12.847 -0.2443 -2.2860  0.5435
 7530TIP3   OH244004   2.245   3.745  12.099 -0.0216 -0.0095 -0.4998
 7530TIP3    H144005   2.183   3.770  12.031 -0.2783 -1.1414 -0.7091
 7530TIP3    H244006   2.203   3.771  12.181  0.2123  1.1997 -0.7505
 7531TIP3   OH244007   4.376   2.836  11.349 -0.1743  0.7621 -0.1548
 7531TIP3    H144008   4.417   2.782  11.281  0.3897  0.7907  0.1554
 7531TIP3    H244009   4.438   2.834  11.422 -1.2517 -0.1427  0.7762
 7532TIP3   OH244010   2.444   0.251  16.915 -0.0766  0.4099 -0.3599
 7532TIP3    H144011   2.520   0.196  16.935  0.1321  0.6610 -0.4640
 7532TIP3    H244012   2.417   0.224  16.827 -2.0223 -1.8964  0.8101
 7533TIP3   OH244013   3.243   1.311  15.384 -0.5718 -0.5602 -0.0309
 7533TIP3    H144014   3.185   1.261  15.441  1.6226 -1.3690  1.5942
 7533TIP3    H244015   3.310   1.249  15.356  0.2961  0.6535 -0.7483
 7534TIP3   OH244016   3.205   0.077   3.896 -0.7657 -0.3834  0.0149
 7534TIP3    H144017   3.226  -0.016   3.900 -1.5930 -0.5847 -0.1406
 7534TIP3    H244018   3.122   0.085   3.943 -1.0290  0.1647 -0.5251
 7535TIP3   OH244019   2.892   3.735   5.213 -0.1063  0.0262 -0.3024
 7535TIP3    H144020   2.804   3.771   5.200  0.0169  0.2108 -0.6432
 7535TIP3    H244021   2.951   3.805   5.183  0.1680  0.0678  0.3152
 7536TIP3   OH244022   3.268   6.148   0.924 -0.8839  0.0085 -0.0131
 7536TIP3    H144023   3.305   6.103   1.001  1.2728  0.5809 -0.6404
 7536TIP3    H244024   3.270   6.241   0.947 -0.5053  0.1616 -0.6414
 7537TIP3   OH244025   2.911   5.453   2.140 -0.5165 -0.2275  0.1618
 7537TIP3    H144026   2.925   5.483   2.050 -0.7388  0.3477  0.3093
 7537TIP3    H244027   2.823   5.415   2.139 -0.3410 -0.6255  0.0331
 7538TIP3   OH244028   1.176   3.521  13.303 -0.3473  0.0612  0.3095
 7538TIP3    H144029   1.194   3.601  13.253 -0.9028  0.3819  0.6065
 7538TIP3    H244030   1.212   3.539  13.390  2.1962 -1.1632 -0.4102
 7539TIP3   OH244031   3.688   6.714   2.909  0.3653 -0.2904  0.2111
 7539TIP3    H144032   3.618   6.722   2.845  0.2502 -0.0401  0.3637
 7539TIP3    H244033   3.762   6.677   2.861  0.3778  0.1815 -0.1355
 7540TIP3   OH244034   1.776   3.728   0.388 -0.0307 -0.5921  0.0852
 7540TIP3    H144035   1.689   3.758   0.364  0.8362  0.3364 -2.2237
 7540TIP3    H244036   1.812   3.800   0.441 -0.1894 -0.3522 -0.1302
 7541TIP3   OH244037   4.701   4.748  15.227 -0.9458  0.2685  0.6368
 7541TIP3    H144038   4.694   4.799  15.146  0.2411  2.2565  1.7048
 7541TIP3    H244039   4.610   4.735  15.255 -1.3149  0.8489 -0.2538
 7542TIP3   OH244040   2.530   4.577  14.094 -0.1052  0.1103  0.3247
 7542TIP3    H144041   2.540   4.498  14.148  1.5031  0.3872  0.4845
 7542TIP3    H244042   2.469   4.632  14.143 -0.7639 -0.7639  0.5140
 7543TIP3   OH244043   1.358   4.204  14.500  0.0268  0.7184 -0.2100
 7543TIP3    H144044   1.297   4.241  14.435 -0.2669 -3.1477 -2.4362
 7543TIP3    H244045   1.427   4.164  14.447  1.6347  0.3157  2.0715
 7544TIP3   OH244046   5.159   2.355  14.830 -0.2386 -0.2125 -0.3300
 7544TIP3    H144047   5.202   2.390  14.752  0.0200 -2.1478 -1.1147
 7544TIP3    H244048   5.092   2.420  14.851  0.7043  1.1147 -1.2191
 7545TIP3   OH244049   0.767   4.693   2.070 -0.1457 -0.1790 -0.2442
 7545TIP3    H144050   0.843   4.658   2.116  0.2807 -1.1886 -1.6642
 7545TIP3    H244051   0.755   4.635   1.995 -1.8560  0.4160 -0.4793
 7546TIP3   OH244052   0.773   3.475  11.746 -0.3253  0.0130 -0.3987
 7546TIP3    H144053   0.769   3.479  11.841 -1.3018 -2.0422 -0.2889
 7546TIP3    H244054   0.688   3.506  11.716 -0.7351 -1.1138 -0.4644
 7547TIP3   OH244055   5.285   3.448  16.335 -0.2843  0.1423 -0.0194
 7547TIP3    H144056   5.264   3.357  16.314  1.7318 -0.3416 -0.1277
 7547TIP3    H244057   5.317   3.445  16.426 -0.6381  0.8307  0.1352
 7548TIP3   OH244058   0.663   0.870   2.780 -0.6060 -0.0603 -0.2201
 7548TIP3    H144059   0.701   0.782   2.776 -0.5308 -0.0126 -0.6386
 7548TIP3    H244060   0.606   0.869   2.856 -0.1034 -0.2737  0.1638
 7549TIP3   OH244061   4.859   2.643   0.750  0.0691  0.4604  0.1214
 7549TIP3    H144062   4.818   2.675   0.831 -0.7305 -1.1278  0.3857
 7549TIP3    H244063   4.867   2.548   0.764  1.1566  0.3560 -1.1288
 7550TIP3   OH244064   3.776   3.816   6.177  0.1786  0.4905 -0.0430
 7550TIP3    H144065   3.866   3.785   6.189 -0.2798 -1.1883 -0.6366
 7550TIP3    H244066   3.761   3.877   6.249  2.1701  1.7401 -0.6042
 7551TIP3   OH244067   2.075   2.564   0.379 -0.8042  0.3536 -0.3860
 7551TIP3    H144068   2.121   2.518   0.450 -0.0098  0.7077 -0.6629
 7551TIP3    H244069   2.099   2.515   0.300 -1.8445 -0.1562 -0.3969
 7552TIP3   OH244070   3.693   5.379   2.612  0.0010  0.3406  0.2895
 7552TIP3    H144071   3.720   5.467   2.635  0.7317  0.7571 -1.8906
 7552TIP3    H244072   3.775   5.332   2.596 -0.2825 -1.2901  2.9858
 7553TIP3   OH244073   3.646   4.122   2.615  0.4826  0.5323 -0.0558
 7553TIP3    H144074   3.721   4.074   2.651  1.8689  1.8467 -1.0620
 7553TIP3    H244075   3.636   4.089   2.526 -0.6610 -0.1889  0.3249
 7554TIP3   OH244076   2.500   6.096  15.797 -0.1213 -0.4651  0.4729
 7554TIP3    H144077   2.470   6.098  15.706  1.8613 -0.8406 -0.2371
 7554TIP3    H244078   2.438   6.038  15.841 -1.5993  0.3755 -0.4235
 7555TIP3   OH244079   3.828   3.027  13.035 -0.0277 -0.2259 -0.0933
 7555TIP3    H144080   3.755   3.029  12.973  0.6069  0.7537 -0.8631
 7555TIP3    H244081   3.787   3.018  13.121 -0.9555 -1.2033 -0.6134
 7556TIP3   OH244082   6.323   5.953   1.336 -0.5506 -0.2645 -0.5458
 7556TIP3    H144083   6.314   5.890   1.408  0.8495 -1.3190 -1.2368
 7556TIP3    H244084   6.391   6.013   1.365 -1.1183  0.2772 -0.3350
 7557TIP3   OH244085   1.544   3.295   2.454 -0.0147  0.0742 -0.2243
 7557TIP3    H144086   1.541   3.237   2.530 -0.9343 -0.6738 -0.8033
 7557TIP3    H244087   1.565   3.381   2.490 -2.1357  0.0916  1.0982
 7558TIP3   OH244088   4.214   3.989  15.428  0.0555  0.1904  0.1295
 7558TIP3    H144089   4.119   3.976  15.435 -0.1952  0.9725 -1.3864
 7558TIP3    H244090   4.244   3.993  15.519 -1.5034  0.8530  0.6566
 7559TIP3   OH244091   2.725   1.560  13.483  0.5900 -0.2356  0.2873
 7559TIP3    H144092   2.646   1.540  13.432  0.3214 -0.3301  0.7324
 7559TIP3    H244093   2.741   1.653  13.468 -0.2615  0.0608  1.0744
 7560TIP3   OH244094   0.889   2.959  16.779 -0.1984  0.4378 -0.1262
 7560TIP3    H144095   0.814   3.016  16.763 -2.3401 -1.7460  1.3066
 7560TIP3    H244096   0.891   2.949  16.875  0.9534 -0.7495 -0.2545
 7561TIP3   OH244097   2.423   4.572   3.816 -0.6406 -0.0279 -0.2465
 7561TIP3    H144098   2.468   4.592   3.735  0.0927  0.1596  0.1994
 7561TIP3    H244099   2.467   4.494   3.850 -1.0441 -0.2000 -0.1138
 7562TIP3   OH244100   3.878   4.534   4.339  0.3987 -0.2921 -0.0299
 7562TIP3    H144101   3.885   4.602   4.406 -2.0356 -0.7046  0.7452
 7562TIP3    H244102   3.951   4.475   4.357  2.6223  2.0406 -0.7569
 7563TIP3   OH244103   4.222   1.247   3.852  0.1307  0.4502  0.2197
 7563TIP3    H144104   4.127   1.256   3.865  0.0310  2.5026 -1.4373
 7563TIP3    H244105   4.233   1.155   3.827 -1.6427  0.4929 -0.9451
 7564TIP3   OH244106   1.871   5.389   2.023  0.0385  0.2778  0.1134
 7564TIP3    H144107   1.913   5.306   1.999  1.1258  0.2363  1.8941
 7564TIP3    H244108   1.837   5.424   1.941  0.5635 -1.3781 -0.8648
 7565TIP3   OH244109   3.445   4.093   0.964 -0.1034 -0.0418 -0.6123
 7565TIP3    H144110   3.497   4.150   0.909 -2.4473  2.3356 -0.5891
 7565TIP3    H244111   3.389   4.045   0.903 -1.3379  1.1537 -0.4614
 7566TIP3   OH244112   6.094   5.756  11.458  0.1656  0.5470 -0.0677
 7566TIP3    H144113   6.109   5.675  11.408 -1.1630 -0.9641  1.8511
 7566TIP3    H244114   6.169   5.761  11.517  0.6892  1.2369 -0.7608
 7567TIP3   OH244115   5.892   0.449  12.989 -0.1546  0.8158  0.4236
 7567TIP3    H144116   5.856   0.462  12.901 -0.1542  1.2105  0.4825
 7567TIP3    H244117   5.900   0.354  12.997  0.6892  0.8119 -0.3456
 7568TIP3   OH244118   2.306   1.273  15.939  0.0596 -0.0162 -0.1518
 7568TIP3    H144119   2.241   1.204  15.951  0.6184 -0.3774  0.9252
 7568TIP3    H244120   2.380   1.246  15.994  1.1965  0.2964 -1.4823
 7569TIP3   OH244121   6.483   3.774  14.263 -0.5393  0.4530  0.7957
 7569TIP3    H144122   6.527   3.821  14.334  0.9939  0.7164 -0.2861
 7569TIP3    H244123   6.481   3.837  14.191  1.8417 -1.1236 -0.7884
 7570TIP3   OH244124   5.334   3.255   2.075  0.1728  0.2636 -0.1431
 7570TIP3    H144125   5.372   3.335   2.039  1.9775 -0.2221  0.5937
 7570TIP3    H244126   5.289   3.284   2.154 -0.6592  0.7700 -0.7709
 7571TIP3   OH244127   2.610   2.791   1.917  0.5951  0.9983 -0.0528
 7571TIP3    H144128   2.659   2.781   1.836 -0.4360  2.1671 -0.8571
 7571TIP3    H244129   2.639   2.876   1.952  0.9157  0.5802  0.7336
 7572TIP3   OH244130   2.983   0.790  13.047 -0.5869  0.3050  0.4005
 7572TIP3    H144131   3.041   0.818  12.976 -0.1479 -1.6972 -0.1005
 7572TIP3    H244132   2.895   0.795  13.010 -0.3307 -1.1375 -0.4925
 7573TIP3   OH244133   0.033   4.286   3.772 -0.3206  0.6564  0.5141
 7573TIP3    H144134  -0.003   4.240   3.696 -0.4430  0.4563  0.6907
 7573TIP3    H244135  -0.001   4.237   3.847  0.1288  0.6107  0.6900
 7574TIP3   OH244136   5.695   3.641  13.706 -0.0935 -0.2002  0.6214
 7574TIP3    H144137   5.661   3.577  13.644  1.0221  0.9607 -1.2842
 7574TIP3    H244138   5.620   3.694  13.730 -0.5798 -0.8007  0.4535
 7575TIP3   OH244139   4.832   3.699   0.466 -0.2336  0.2645  0.0005
 7575TIP3    H144140   4.829   3.695   0.370  0.4859  1.5521 -0.1067
 7575TIP3    H244141   4.909   3.648   0.490  0.0725  0.6290 -0.1848
 7576TIP3   OH244142   0.768   0.562  14.681  0.3824 -0.6328  0.3074
 7576TIP3    H144143   0.711   0.524  14.748 -0.7989 -0.7348 -0.7231
 7576TIP3    H244144   0.731   0.649  14.665 -0.0331 -1.0319 -1.0025
 7577TIP3   OH244145   2.470   1.594  17.283 -0.7702  0.0414 -0.4138
 7577TIP3    H144146   2.466   1.584  17.378 -0.5250  1.3268 -0.2533
 7577TIP3    H244147   2.540   1.534  17.255 -1.8446 -1.4697  0.0159
 7578TIP3   OH244148   5.739   4.103   5.691  0.2476 -0.0557  0.4377
 7578TIP3    H144149   5.657   4.152   5.693  1.1810  1.6124 -0.1448
 7578TIP3    H244150   5.765   4.096   5.783  0.0589  0.4467  0.5303
 7579TIP3   OH244151   5.334   2.911   0.887 -0.7501 -0.1468  0.2786
 7579TIP3    H144152   5.382   2.972   0.943 -0.3285 -1.7331  1.7465
 7579TIP3    H244153   5.295   2.848   0.948 -0.5638 -1.7561 -1.1743
 7580TIP3   OH244154   6.622   6.528  16.860  0.0089 -0.2321 -0.0952
 7580TIP3    H144155   6.626   6.455  16.921 -0.0438 -0.7324 -0.6756
 7580TIP3    H244156   6.590   6.602  16.912  0.5091 -0.5000  0.6026
 7581TIP3   OH244157   6.216   1.372  15.811 -0.1913 -0.5364 -0.2988
 7581TIP3    H144158   6.284   1.323  15.857  0.2528 -0.4936 -0.9061
 7581TIP3    H244159   6.141   1.312  15.807 -0.3783 -0.3959  0.8340
 7582TIP3   OH244160   1.884   5.829  10.961  0.2997  0.3298  0.1016
 7582TIP3    H144161   1.903   5.922  10.963  1.9619  0.0363  0.0084
 7582TIP3    H244162   1.790   5.822  10.974  0.0375  2.0495 -0.6817
 7583TIP3   OH244163   6.490   2.120   3.341 -0.3916 -0.1016 -0.4015
 7583TIP3    H144164   6.567   2.141   3.393 -0.0010  0.7030 -1.2853
 7583TIP3    H244165   6.418   2.123   3.404  0.2940 -1.0889  0.4852
 7584TIP3   OH244166   3.991   5.483  16.295 -0.4476  0.0735  0.5229
 7584TIP3    H144167   4.011   5.422  16.366 -1.5435  0.0159  0.7928
 7584TIP3    H244168   3.968   5.565  16.339 -0.0345  0.3743  0.1928
 7585TIP3   OH244169   3.156   6.439   5.137  0.6746  0.0970 -0.5038
 7585TIP3    H144170   3.089   6.393   5.187  0.2528  1.5036  0.2855
 7585TIP3    H244171   3.235   6.433   5.190  0.3638  1.1238  0.0948
 7586TIP3   OH244172   0.733   6.492   5.138 -0.7534 -0.8059  0.1139
 7586TIP3    H144173   0.765   6.579   5.115 -1.4702  0.1220  2.3604
 7586TIP3    H244174   0.653   6.481   5.086 -0.5933 -0.1702 -0.2765
 7587TIP3   OH244175   0.085   0.700  14.766  0.5423 -0.4381  0.1664
 7587TIP3    H144176   0.004   0.705  14.817  0.0659 -0.9090 -0.5242
 7587TIP3    H244177   0.137   0.775  14.795 -0.8270  0.8337 -0.5460
 7588TIP3   OH244178   4.569   2.298   1.549 -0.0095 -0.3476  0.0325
 7588TIP3    H144179   4.552   2.219   1.498 -1.4553 -1.1125  1.6097
 7588TIP3    H244180   4.540   2.370   1.492 -2.4413 -1.2239  0.0316
 7589TIP3   OH244181   5.399   3.413  17.311  0.5111  0.2228  0.0097
 7589TIP3    H144182   5.357   3.397  17.395 -0.5802 -1.2006 -0.7698
 7589TIP3    H244183   5.358   3.351  17.251  1.2041  1.2470 -1.6024
 7590TIP3   OH244184   1.058   6.757   1.270 -0.2703  0.3904 -0.2208
 7590TIP3    H144185   1.057   6.760   1.365 -2.7327  3.1605 -0.1885
 7590TIP3    H244186   0.971   6.723   1.246 -1.0513  2.9098 -1.3551
 7591TIP3   OH244187   1.201   6.496   1.627 -0.3450  0.0541 -0.4505
 7591TIP3    H144188   1.217   6.546   1.707  0.5593  0.2721 -0.7519
 7591TIP3    H244189   1.286   6.493   1.584 -0.4604 -1.4294 -0.6299
 7592TIP3   OH244190   0.528   3.291  15.633  0.4193 -0.3105  0.5327
 7592TIP3    H144191   0.604   3.284  15.576 -0.9770 -1.0199 -1.3681
 7592TIP3    H244192   0.453   3.290  15.573 -1.1466 -1.1635  2.3900
 7593TIP3   OH244193   1.608   0.624   1.138  0.3813 -0.1109 -0.4288
 7593TIP3    H144194   1.618   0.676   1.058  0.9785 -0.1595 -0.3886
 7593TIP3    H244195   1.691   0.577   1.147  0.5893  0.4103  0.5796
 7594TIP3   OH244196   0.810   0.990   4.082 -0.1968  0.4085 -0.4094
 7594TIP3    H144197   0.737   0.977   4.021  0.4593 -0.2734 -1.0639
 7594TIP3    H244198   0.771   1.036   4.156 -1.5004 -0.7260 -0.3461
 7595TIP3   OH244199   1.982   0.737  13.860 -0.3377 -0.2796  0.8650
 7595TIP3    H144200   1.984   0.824  13.899 -1.1677 -0.0390  0.3973
 7595TIP3    H244201   2.051   0.689  13.905  0.4329  0.7516  0.8093
 7596TIP3   OH244202   5.966   1.185   2.569  0.0092  0.1357 -0.1075
 7596TIP3    H144203   5.996   1.218   2.654 -1.4552  1.0621  0.0866
 7596TIP3    H244204   5.895   1.244   2.544 -0.1031 -0.5958 -1.6158
 7597TIP3   OH244205   2.562   5.533  15.349  0.4388 -0.2449 -0.3707
 7597TIP3    H144206   2.650   5.572  15.348  0.3491  0.1818  2.0384
 7597TIP3    H244207   2.575   5.447  15.389 -0.2175 -0.2511 -0.1677
 7598TIP3   OH244208   1.169   5.593  13.405 -0.3444 -0.4391 -0.2594
 7598TIP3    H144209   1.135   5.676  13.369 -0.6717 -1.3705 -2.2266
 7598TIP3    H244210   1.093   5.535  13.405  0.6120 -1.7693 -2.2240
 7599TIP3   OH244211   5.395   4.306  15.604 -0.5571 -0.0194 -0.3506
 7599TIP3    H144212   5.442   4.331  15.524 -1.3444  3.1777  0.0271
 7599TIP3    H244213   5.307   4.340  15.591 -0.4937  1.3556  2.1278
 7600TIP3   OH244214   1.141   4.854  14.875 -0.6233 -0.5074  0.2449
 7600TIP3    H144215   1.086   4.929  14.899 -2.2271 -1.5894  0.1220
 7600TIP3    H244216   1.167   4.872  14.784 -1.2109 -0.2183  0.1283
 7601TIP3   OH244217   0.822   0.845  13.371  0.6739  0.5550  0.2185
 7601TIP3    H144218   0.853   0.774  13.315  2.0686  1.1636  0.1842
 7601TIP3    H244219   0.895   0.864  13.429 -0.1448  1.1015  1.1035
 7602TIP3   OH244220   3.973   1.953  17.254 -0.2484  0.8808 -0.5254
 7602TIP3    H144221   3.910   2.019  17.283 -0.0933  0.5963  0.4997
 7602TIP3    H244222   4.056   1.981  17.292 -0.3642 -0.4064  0.7319
 7603TIP3   OH244223   3.688   1.663  12.902 -0.5410  0.2662 -0.2263
 7603TIP3    H144224   3.774   1.696  12.928  0.2193 -1.4067 -0.4887
 7603TIP3    H244225   3.664   1.600  12.970 -1.8402  1.0800  0.1246
 7604TIP3   OH244226   3.819   1.556   2.623 -0.1298 -0.2039  0.2319
 7604TIP3    H144227   3.749   1.598   2.673 -0.4954 -0.3521 -0.1506
 7604TIP3    H244228   3.823   1.467   2.657  0.2268 -0.0460  0.6126
 7605TIP3   OH244229   1.487   2.908   5.257 -0.1395  0.4892  0.1725
 7605TIP3    H144230   1.421   2.958   5.306  0.5479  2.1058 -0.4768
 7605TIP3    H244231   1.449   2.896   5.170 -0.5997 -0.8042  0.5224
 7606TIP3   OH244232   0.386   0.673  12.352  0.4593  0.2960  0.2923
 7606TIP3    H144233   0.454   0.721  12.303  0.0571  0.0465 -0.5301
 7606TIP3    H244234   0.310   0.731  12.349  0.3999  0.2267  0.5231
 7607TIP3   OH244235   2.395   6.035   0.685 -0.2004  0.1217  0.3359
 7607TIP3    H144236   2.348   6.011   0.764 -0.9290  1.5072  0.3476
 7607TIP3    H244237   2.331   6.027   0.615 -0.4208  1.7399  0.3120
 7608TIP3   OH244238   1.021   0.853  11.175 -0.2766 -0.2555  0.2674
 7608TIP3    H144239   0.975   0.870  11.257 -1.8030 -1.3612 -0.3321
 7608TIP3    H244240   1.033   0.758  11.173 -0.0834 -0.2215 -0.7073
 7609TIP3   OH244241   3.884   4.477   3.569  0.4101  0.1128  0.3765
 7609TIP3    H144242   3.855   4.460   3.659  0.5759 -1.6706  0.1301
 7609TIP3    H244243   3.812   4.446   3.514  0.5078  0.7535 -0.1290
 7610TIP3   OH244244   2.721   0.722  15.348  0.4034 -0.5751 -0.0213
 7610TIP3    H144245   2.743   0.758  15.434  1.5847  0.3095 -0.6612
 7610TIP3    H244246   2.804   0.720  15.301 -0.3438 -0.3583 -1.4011
 7611TIP3   OH244247   6.637   5.629  11.483  0.1741  0.4085  0.1525
 7611TIP3    H144248   6.635   5.540  11.520  0.0534  1.0436  1.7773
 7611TIP3    H244249   6.675   5.683  11.552  0.3329  1.6190 -0.8401
 7612TIP3   OH244250   4.820   4.534  13.709 -0.0761  0.3222  0.1085
 7612TIP3    H144251   4.887   4.523  13.641 -0.3269  1.1927 -0.2950
 7612TIP3    H244252   4.752   4.585  13.667 -0.5203  0.3455  0.8393
 7613TIP3   OH244253   2.082   2.606   4.075 -0.2443 -0.2789 -0.2562
 7613TIP3    H144254   2.144   2.678   4.090 -0.6708 -0.1124  0.7964
 7613TIP3    H244255   2.103   2.542   4.143 -0.8287 -0.4955 -0.2732
 7614TIP3   OH244256   0.845   2.777  11.672  0.3945  0.0094 -0.5916
 7614TIP3    H144257   0.750   2.779  11.689  0.5646 -0.3910  0.5282
 7614TIP3    H244258   0.867   2.868  11.653 -0.0267  0.3230  0.3429
 7615TIP3   OH244259   5.299   4.801  13.384 -1.0259  0.2934  0.0576
 7615TIP3    H144260   5.302   4.876  13.324 -0.6120 -0.0050 -0.3053
 7615TIP3    H244261   5.293   4.725  13.326 -1.7381  0.0552  0.4320
 7616TIP3   OH244262   0.582   3.715  14.860  0.1394  0.2808 -0.4164
 7616TIP3    H144263   0.531   3.765  14.923 -1.6036 -1.1410 -0.6313
 7616TIP3    H244264   0.671   3.714  14.896 -0.2309  1.7428  0.6213
 7617TIP3   OH244265   5.254   0.896  17.369 -0.2183 -0.3058  0.5789
 7617TIP3    H144266   5.337   0.930  17.337  0.3292 -2.3179 -0.3043
 7617TIP3    H244267   5.234   0.822  17.312 -3.4400  1.0184 -0.2373
 7618TIP3   OH244268   3.128   4.186  16.458 -0.4526  0.1626 -0.0986
 7618TIP3    H144269   3.133   4.262  16.400 -0.5762 -0.2592 -0.6674
 7618TIP3    H244270   3.036   4.183  16.484 -0.7380 -0.5569 -1.1277
 7619TIP3   OH244271   3.397   1.767   0.254  0.0009  0.2171  0.1225
 7619TIP3    H144272   3.448   1.724   0.322  0.3727  0.0118 -0.2787
 7619TIP3    H244273   3.369   1.696   0.196  1.0442  0.5394 -0.8208
 7620TIP3   OH244274   3.881   0.204  12.620 -0.2022  0.1138  0.5614
 7620TIP3    H144275   3.838   0.120  12.605  0.2585  0.3959 -3.2728
 7620TIP3    H244276   3.971   0.182  12.644 -0.8345 -0.4273  2.6093
 7621TIP3   OH244277   3.314   4.742   1.956  0.7137 -0.5765  0.2055
 7621TIP3    H144278   3.298   4.796   1.879  0.7646 -3.3669 -1.8937
 7621TIP3    H244279   3.323   4.806   2.028 -0.6381  2.0830 -1.7859
 7622TIP3   OH244280   4.200   0.749   1.127 -0.0045  0.4927 -0.0565
 7622TIP3    H144281   4.194   0.654   1.127 -1.1524  0.5570 -0.0598
 7622TIP3    H244282   4.180   0.775   1.216  1.1547  0.7006  0.1615
 7623TIP3   OH244283   3.776   6.367   5.256 -0.2390 -0.4187 -0.3744
 7623TIP3    H144284   3.865   6.391   5.282 -0.9393  0.9003  0.9618
 7623TIP3    H244285   3.765   6.406   5.170 -0.2603  1.4600  0.4207
 7624TIP3   OH244286   3.439   1.113  15.942  0.6562 -0.1383 -0.2923
 7624TIP3    H144287   3.518   1.089  15.990  0.8497  1.2417  0.1057
 7624TIP3    H244288   3.470   1.165  15.868  0.1030  0.9321  0.1989
 7625TIP3   OH244289   0.176   5.019  15.101 -0.3527  0.1084 -0.1874
 7625TIP3    H144290   0.110   4.974  15.049  2.4758 -2.1332 -2.0839
 7625TIP3    H244291   0.205   4.954  15.165 -0.0495  1.1173  0.7354
 7626TIP3   OH244292   5.031   1.963  10.735 -0.3485 -0.4456 -0.0943
 7626TIP3    H144293   4.949   1.932  10.695  0.4244 -0.3334 -1.8491
 7626TIP3    H244294   5.066   2.026  10.672  2.4862 -2.5243 -0.8082
 7627TIP3   OH244295   0.472   0.880  16.377  0.0509  0.3364 -0.0408
 7627TIP3    H144296   0.419   0.861  16.300 -0.2491 -0.3729  0.3232
 7627TIP3    H244297   0.553   0.829  16.364  0.0376  0.2869  0.0615
 7628TIP3   OH244298   6.598   3.766   2.119 -0.0306 -0.9188 -0.1181
 7628TIP3    H144299   6.632   3.753   2.208 -1.1521  1.7838  0.8138
 7628TIP3    H244300   6.671   3.808   2.072 -0.4060  0.4494  0.4696
 7629TIP3   OH244301   6.585   2.695   5.539 -0.2160 -0.1959 -0.0842
 7629TIP3    H144302   6.572   2.734   5.625 -1.2316 -0.9852  0.1529
 7629TIP3    H244303   6.503   2.647   5.522 -0.3404  0.5326 -1.8040
 7630TIP3   OH244304   5.668   3.269  12.753 -0.2352 -0.1058  0.0623
 7630TIP3    H144305   5.691   3.218  12.831 -1.8986 -1.5918 -0.3686
 7630TIP3    H244306   5.693   3.213  12.680  1.2141  1.2324 -0.5224
 7631TIP3   OH244307   2.244   6.097   0.461 -0.4330 -0.0761  0.7435
 7631TIP3    H144308   2.232   6.157   0.387 -0.8022 -2.3146 -1.1433
 7631TIP3    H244309   2.165   6.042   0.459 -1.0891  0.6128  3.6833
 7632TIP3   OH244310   4.501   6.291  15.285 -0.4070 -0.0341  0.1787
 7632TIP3    H144311   4.428   6.232  15.301 -0.0899 -1.1454 -2.0634
 7632TIP3    H244312   4.463   6.379  15.292 -1.9270 -0.5812 -0.7545
 7633TIP3   OH244313   1.255   3.389  11.878 -0.0906  0.1911  0.0945
 7633TIP3    H144314   1.271   3.479  11.905  3.4689  0.5564 -2.5300
 7633TIP3    H244315   1.318   3.373  11.808 -1.7616 -3.8172 -0.8034
 7634TIP3   OH244316   3.676   4.878  15.383  0.1844  0.3833 -0.2678
 7634TIP3    H144317   3.621   4.800  15.391 -1.0606  1.3172  0.7694
 7634TIP3    H244318   3.758   4.855  15.426 -0.8332  0.2048  1.6971
 7635TIP3   OH244319   2.596   6.171   1.207 -0.3189  0.1975  0.1073
 7635TIP3    H144320   2.514   6.143   1.247 -0.1106 -0.4074  0.1282
 7635TIP3    H244321   2.604   6.118   1.128  0.7241 -0.7767  0.8302
 7636TIP3   OH244322   0.158   0.295  13.820 -0.4329  0.6126  0.6111
 7636TIP3    H144323   0.217   0.237  13.773  1.1516  1.4309  1.4843
 7636TIP3    H244324   0.098   0.328  13.753  0.5805  0.3255 -0.4805
 7637TIP3   OH244325   4.919   1.107   4.703  0.3960  0.1172  0.4125
 7637TIP3    H144326   4.952   1.196   4.720 -0.3211  0.3196  0.7912
 7637TIP3    H244327   4.844   1.098   4.762  0.2149 -0.5937  0.0797
 7638TIP3   OH244328   6.503   1.921   4.166 -0.3559 -0.2139  0.3787
 7638TIP3    H144329   6.448   1.979   4.219 -0.7206  1.4613 -1.6847
 7638TIP3    H244330   6.583   1.971   4.151 -0.0553 -0.8549 -0.1952
 7639TIP3   OH244331   3.685   5.670  15.540  0.5522  0.0353  0.2226
 7639TIP3    H144332   3.683   5.591  15.594 -0.7111 -0.1047 -0.0163
 7639TIP3    H244333   3.625   5.652  15.469  0.3263  1.1830  0.1103
 7640TIP3   OH244334   5.099   5.239  15.182  0.8116 -0.2677  0.1476
 7640TIP3    H144335   5.007   5.242  15.206  0.3999 -0.4992 -1.2863
 7640TIP3    H244336   5.132   5.327  15.200  0.1366  0.0126  0.0166
 7641TIP3   OH244337   3.001   0.797   5.399  0.0980  0.5136 -0.3132
 7641TIP3    H144338   2.921   0.836   5.434  0.3342  2.2061 -1.4888
 7641TIP3    H244339   3.059   0.790   5.474 -1.4665 -1.8004  0.7898
 7642TIP3   OH244340   1.793   5.282   3.774 -0.6432 -0.1617  0.2726
 7642TIP3    H144341   1.776   5.376   3.782 -1.5004 -0.3647  1.0697
 7642TIP3    H244342   1.888   5.275   3.780 -0.5672  0.6541  0.2407
 7643TIP3   OH244343   2.247   6.326  17.276  0.7083  0.3219  0.2540
 7643TIP3    H144344   2.238   6.349  17.184  0.7873 -1.2012 -0.1530
 7643TIP3    H244345   2.337   6.352  17.299  1.6737 -1.7374 -0.8836
 7644TIP3   OH244346   2.164   5.039  14.047 -0.0483 -0.2342  0.2835
 7644TIP3    H144347   2.256   5.064  14.038  0.2114 -1.4874 -0.8657
 7644TIP3    H244348   2.120   5.085  13.975 -0.1492 -0.3884  0.2471
 7645TIP3   OH244349   6.556   3.625   1.772  0.3448  0.2499  0.3033
 7645TIP3    H144350   6.553   3.704   1.719 -1.2292 -0.3714 -0.6106
 7645TIP3    H244351   6.506   3.560   1.721  0.1236 -0.8215  1.8177
 7646TIP3   OH244352   0.621   4.685   4.666 -0.5591 -0.1112  0.0515
 7646TIP3    H144353   0.552   4.707   4.729 -1.3862  1.1996 -1.2366
 7646TIP3    H244354   0.677   4.763   4.664  0.4247 -0.7987  0.3862
 7647TIP3   OH244355   5.280   0.733   2.141 -0.2126  0.9298 -0.1317
 7647TIP3    H144356   5.342   0.737   2.067 -0.1481  0.5839 -0.0965
 7647TIP3    H244357   5.255   0.825   2.155  0.5852  1.1244  0.0997
 7648TIP3   OH244358   2.484   5.808   4.179 -0.2038 -1.4976 -0.0095
 7648TIP3    H144359   2.464   5.900   4.197  1.5996 -1.1964  0.6152
 7648TIP3    H244360   2.467   5.797   4.086 -1.6022 -0.8642  0.1462
 7649TIP3   OH244361   5.342   0.487   1.583 -0.4008  0.3152 -0.2197
 7649TIP3    H144362   5.354   0.512   1.491 -3.3383  0.4089 -0.6691
 7649TIP3    H244363   5.325   0.570   1.628 -1.0410  0.0851 -0.0197
 7650TIP3   OH244364   1.051   2.556   1.087  0.0151 -0.3513  0.5740
 7650TIP3    H144365   1.010   2.542   1.173 -0.7664  0.4252  0.3450
 7650TIP3    H244366   1.083   2.646   1.090 -0.1471 -0.2712 -0.0004
 7651TIP3   OH244367   2.148   2.270   2.268  0.5917  0.2919 -0.6331
 7651TIP3    H144368   2.130   2.188   2.223  0.7783 -1.0396  1.5946
 7651TIP3    H244369   2.066   2.294   2.310  0.9744  0.3365  0.1059
 7652TIP3   OH244370   5.842   2.546  15.401  0.4177 -0.2782  0.0191
 7652TIP3    H144371   5.782   2.523  15.472 -0.4596 -0.0932 -0.6396
 7652TIP3    H244372   5.883   2.463  15.377  0.3452 -0.4303  0.4095
 7653TIP3   OH244373   6.033   3.904   3.753  0.0480 -0.3192 -0.5274
 7653TIP3    H144374   5.994   3.988   3.726  1.0474 -0.0098 -1.0367
 7653TIP3    H244375   6.099   3.885   3.687  1.2566 -0.4869  0.6775
 7654TIP3   OH244376   5.788   2.182  15.619 -0.1759 -0.2039 -0.2727
 7654TIP3    H144377   5.742   2.181  15.703  0.7224 -0.7523  0.2239
 7654TIP3    H244378   5.808   2.090  15.601  1.9015  0.1162  0.1941
 7655TIP3   OH244379   1.416   2.810  12.618  0.3997 -0.0554  0.0967
 7655TIP3    H144380   1.472   2.756  12.674  2.2282  3.0237  1.5227
 7655TIP3    H244381   1.474   2.837  12.547  0.4409  2.1426  0.8926
 7656TIP3   OH244382   1.254   4.303   3.547 -0.1702 -0.3314 -0.5476
 7656TIP3    H144383   1.269   4.368   3.479 -0.8257 -1.6961 -2.0572
 7656TIP3    H244384   1.160   4.309   3.566  0.3084  1.3241  1.6526
 7657TIP3   OH244385   4.570   4.000  16.574  0.4350  0.7442  0.6603
 7657TIP3    H144386   4.574   4.089  16.541  1.3525  1.0094  1.4277
 7657TIP3    H244387   4.501   3.958  16.523  1.7876  1.0990 -1.6198
 7658TIP3   OH244388   2.839   4.145   4.660  0.1804  0.4505  0.1506
 7658TIP3    H144389   2.850   4.053   4.636  1.7843 -0.3379  3.3054
 7658TIP3    H244390   2.771   4.178   4.601 -2.4488 -3.4572  0.6323
 7659TIP3   OH244391   2.704   3.335   2.620 -0.2742 -0.3352  1.0123
 7659TIP3    H144392   2.618   3.361   2.651 -0.3975 -0.2265  0.5872
 7659TIP3    H244393   2.765   3.372   2.684 -0.5252 -0.1214  1.1270
 7660TIP3   OH244394   0.302   1.572   3.540  0.3558 -0.2667  0.0978
 7660TIP3    H144395   0.359   1.606   3.608 -0.5620  0.4626  0.5278
 7660TIP3    H244396   0.360   1.559   3.464  1.0120  0.8809  0.3807
 7661TIP3   OH244397   0.217   3.359  16.428 -0.1948  0.0671  0.4800
 7661TIP3    H144398   0.245   3.290  16.368 -1.3178  1.2935 -1.5926
 7661TIP3    H244399   0.145   3.321  16.477 -1.0633 -0.1630 -0.9238
 7662TIP3   OH244400   6.594   1.848   0.801 -0.4196 -0.3233 -0.3184
 7662TIP3    H144401   6.531   1.842   0.873 -1.6309  0.4211 -1.2871
 7662TIP3    H244402   6.633   1.935   0.810 -1.3014  0.1709 -1.1254
 7663TIP3   OH244403   4.025   3.043  15.737  0.1718 -0.4997  0.7426
 7663TIP3    H144404   4.039   2.992  15.657 -1.5346  2.3878 -1.5838
 7663TIP3    H244405   3.945   3.006  15.775 -0.9322  0.1614 -0.8051
 7664TIP3   OH244406   0.184   0.566   5.694  0.6207  0.1738 -0.1449
 7664TIP3    H144407   0.247   0.574   5.623  0.7732  0.9280  0.0628
 7664TIP3    H244408   0.229   0.601   5.771 -0.3567  1.6482 -0.1955
 7665TIP3   OH244409   2.480   3.302   2.005  0.1607  1.1447  0.7258
 7665TIP3    H144410   2.389   3.331   2.011 -0.1453  0.4013 -0.0946
 7665TIP3    H244411   2.482   3.220   2.055 -0.3304 -0.3550 -1.5303
 7666TIP3   OH244412   5.363   0.071   2.171  0.0663 -0.1520  0.3560
 7666TIP3    H144413   5.411  -0.006   2.145 -0.6040 -0.4052 -0.1705
 7666TIP3    H244414   5.272   0.041   2.179 -0.5463  0.9753 -1.7624
 7667TIP3   OH244415   2.904   2.624   0.284 -0.2914 -0.0224 -0.5841
 7667TIP3    H144416   2.902   2.702   0.229 -0.5525  0.5419  0.1937
 7667TIP3    H244417   2.958   2.649   0.359 -2.8558  0.5109  1.2067
 7668TIP3   OH244418   4.486   5.026   4.979  0.2129  0.1462  0.2611
 7668TIP3    H144419   4.508   5.095   5.041  0.4060  1.1693 -0.8999
 7668TIP3    H244420   4.533   5.050   4.899  1.3517 -2.0569  0.2038
 7669TIP3   OH244421   1.860   3.015  15.503 -0.2653 -0.4510 -0.6246
 7669TIP3    H144422   1.768   3.039  15.491 -0.2437 -1.3950 -3.1068
 7669TIP3    H244423   1.858   2.949  15.572 -1.0572  1.5055  1.3876
 7670TIP3   OH244424   2.165   0.834   1.870 -0.4388  0.2337  0.0407
 7670TIP3    H144425   2.079   0.877   1.867 -0.6423 -0.0878  0.8132
 7670TIP3    H244426   2.148   0.746   1.836 -0.8249 -0.4219  1.7791
 7671TIP3   OH244427   2.098   1.317  12.510 -0.5662  0.1762  0.3643
 7671TIP3    H144428   2.192   1.333  12.519 -0.6561  1.6992 -0.8673
 7671TIP3    H244429   2.083   1.232  12.552  1.5682 -0.6849 -0.4699
 7672TIP3   OH244430   1.467   2.299  17.330 -0.6876 -0.1805  0.0915
 7672TIP3    H144431   1.561   2.302  17.310 -0.3476 -0.1609  1.6132
 7672TIP3    H244432   1.455   2.218  17.379 -0.7870  1.4204  2.9322
 7673TIP3   OH244433   2.091   5.810  12.983 -0.0790 -0.2292 -0.4305
 7673TIP3    H144434   2.142   5.805  12.902  0.8858 -0.9203  0.2013
 7673TIP3    H244435   2.154   5.790  13.053 -1.1333 -0.7682  0.4001
 7674TIP3   OH244436   1.007   5.667   0.708 -0.0358 -0.0652  0.3353
 7674TIP3    H144437   0.942   5.678   0.639  0.4166 -0.8495 -0.2321
 7674TIP3    H244438   0.974   5.719   0.781 -0.3447  1.0538 -0.5870
 7675TIP3   OH244439   2.495   1.124   3.177 -0.3577 -0.2911  0.4499
 7675TIP3    H144440   2.520   1.033   3.161  0.3458 -0.1973  0.9518
 7675TIP3    H244441   2.553   1.175   3.120 -2.6213 -0.2112 -2.0346
 7676TIP3   OH244442   0.046   1.032   3.673  0.8845 -0.6721 -0.0126
 7676TIP3    H144443   0.028   1.048   3.765  0.5583 -1.2889  0.0399
 7676TIP3    H244444   0.003   1.104   3.626 -0.0909 -1.0840  0.2349
 7677TIP3   OH244445   0.084   1.004   4.564 -0.1702 -0.0706  0.5562
 7677TIP3    H144446   0.164   0.990   4.614  1.6278 -1.9882 -2.5101
 7677TIP3    H244447   0.047   0.916   4.553  1.0461 -0.2537 -3.5521
 7678TIP3   OH244448   4.581   1.362   1.656  0.2493  0.1789 -0.1763
 7678TIP3    H144449   4.596   1.446   1.699  1.7788  0.4214 -1.0935
 7678TIP3    H244450   4.571   1.383   1.563 -1.0804 -0.5067 -0.2054
 7679TIP3   OH244451   3.405   5.864   6.056 -0.3294 -0.0828 -0.1818
 7679TIP3    H144452   3.415   5.769   6.066 -1.7313 -0.1394  1.0818
 7679TIP3    H244453   3.432   5.900   6.140  1.8309  0.8489 -1.1823
 7680TIP3   OH244454   3.415   5.739  14.519  0.5101  0.5561  0.1986
 7680TIP3    H144455   3.466   5.751  14.599 -0.7074  1.2465  0.9074
 7680TIP3    H244456   3.435   5.817  14.466  2.0004 -0.3286 -0.5902
 7681TIP3   OH244457   4.481   2.203  15.633  0.7827  0.5758  0.1025
 7681TIP3    H144458   4.502   2.168  15.720 -0.4314  1.0749  0.6170
 7681TIP3    H244459   4.421   2.139  15.595  2.2498 -0.2713 -0.9060
 7682TIP3   OH244460   3.696   4.430  17.215  0.0541 -0.0380  0.5367
 7682TIP3    H144461   3.783   4.469  17.221  0.5526 -0.7573 -1.3963
 7682TIP3    H244462   3.670   4.417  17.306  1.2668  1.6687  1.1829
 7683TIP3   OH244463   4.427   6.450  13.390  0.1811  0.5933 -0.0569
 7683TIP3    H144464   4.343   6.494  13.381  0.0957  0.9134  1.8803
 7683TIP3    H244465   4.455   6.470  13.479  1.0723 -1.6392  0.2279
 7684TIP3   OH244466   4.299   2.550  12.267  0.7039  0.5788  1.0664
 7684TIP3    H144467   4.229   2.604  12.305 -1.2130  0.1671 -1.5954
 7684TIP3    H244468   4.318   2.591  12.183  0.3472 -1.8951 -0.3070
 7685TIP3   OH244469   2.343   5.097  13.442  0.5302  0.0210 -0.3016
 7685TIP3    H144470   2.253   5.108  13.412 -0.1356  2.7415  2.1771
 7685TIP3    H244471   2.396   5.119  13.365 -0.8819 -1.0523 -1.6451
 7686TIP3   OH244472   5.291   0.071  16.075 -0.0705  0.0202 -0.1918
 7686TIP3    H144473   5.376   0.036  16.047  1.4340  1.2791  2.4922
 7686TIP3    H244474   5.232  -0.004  16.069  1.1131 -0.8458 -2.3258
 7687TIP3   OH244475   4.301   1.606  14.125 -0.6425 -0.1133  0.0737
 7687TIP3    H144476   4.268   1.688  14.089  0.4439  0.2342 -0.1826
 7687TIP3    H244477   4.344   1.563  14.051  1.5366  0.5683  0.8625
 7688TIP3   OH244478   1.753   5.942   3.354 -0.2206  0.0350 -0.1067
 7688TIP3    H144479   1.777   5.894   3.274 -0.5295 -0.8110  0.2910
 7688TIP3    H244480   1.790   5.889   3.425 -2.8922 -1.1791  0.5310
 7689TIP3   OH244481   1.963   1.323  11.844 -0.6397  0.4627 -0.6107
 7689TIP3    H144482   1.959   1.346  11.751  0.9889  0.0385 -0.8202
 7689TIP3    H244483   1.979   1.406  11.889 -2.8397  0.8978 -0.5244
 7690TIP3   OH244484   4.931   0.472   1.229 -0.5098  0.3487 -0.1989
 7690TIP3    H144485   4.957   0.402   1.169 -0.7319 -0.4682  0.6390
 7690TIP3    H244486   5.010   0.491   1.280 -1.0888 -1.1351  1.3584
 7691TIP3   OH244487   5.161   4.994  13.613  0.2959  0.1111  0.2835
 7691TIP3    H144488   5.247   5.020  13.647  0.6999 -0.8084  0.0096
 7691TIP3    H244489   5.123   5.074  13.578  1.5487  0.3340 -0.6539
 7692TIP3   OH244490   4.017   2.131  16.531 -0.2028  0.0448  0.5231
 7692TIP3    H144491   4.040   2.134  16.623  0.8534 -0.8800  0.3104
 7692TIP3    H244492   3.954   2.059  16.525  3.1968 -3.1929 -0.0909
 7693TIP3   OH244493   6.073   5.956  11.241 -0.3378 -0.0290  0.2980
 7693TIP3    H144494   6.114   5.934  11.325  0.6644  1.3910  0.2254
 7693TIP3    H244495   6.110   5.893  11.179  0.9800  0.5737  0.4405
 7694TIP3   OH244496   2.423   4.489  17.384  0.8621 -0.7660 -0.3370
 7694TIP3    H144497   2.408   4.409  17.434  0.5551  0.2987  1.3675
 7694TIP3    H244498   2.514   4.511  17.402  0.8541 -0.5648 -0.5447
 7695TIP3   OH244499   0.374   5.728   4.076 -0.1427  0.3097 -0.6040
 7695TIP3    H144500   0.361   5.733   3.981 -0.8194 -0.9454 -0.5940
 7695TIP3    H244501   0.373   5.820   4.104  2.8214  0.9226 -2.1089
 7696TIP3   OH244502   2.062   5.830   0.332 -0.8890  0.5020  0.4083
 7696TIP3    H144503   2.140   5.840   0.387 -0.9339 -0.0499  0.5798
 7696TIP3    H244504   1.992   5.872   0.382 -1.1304 -0.8341  1.2389
 7697TIP3   OH244505   2.255   5.436  13.498  0.0233  0.1617 -0.4774
 7697TIP3    H144506   2.319   5.401  13.435  2.0278  1.7390  0.5536
 7697TIP3    H244507   2.270   5.385  13.577 -1.3702 -0.7348 -0.7712
 7698TIP3   OH244508   1.027   1.784   1.025 -0.3577  0.5149 -0.5118
 7698TIP3    H144509   1.014   1.858   1.084  1.8302 -0.3279  1.1523
 7698TIP3    H244510   0.950   1.728   1.038  0.0469  0.3786  1.5527
 7699TIP3   OH244511   3.692   1.717  14.462 -0.2915 -0.0905 -0.4540
 7699TIP3    H144512   3.770   1.676  14.424 -0.5034  1.1498 -2.3340
 7699TIP3    H244513   3.672   1.790  14.404 -2.3084  0.2071  0.5235
 7700TIP3   OH244514   4.362   5.216   2.692  0.3111  0.6169 -0.2628
 7700TIP3    H144515   4.445   5.262   2.706  1.1175 -0.8617 -0.0199
 7700TIP3    H244516   4.373   5.173   2.607 -0.8900  1.8082 -1.0450
 7701TIP3   OH244517   2.113   0.234   6.076 -0.0894 -0.2363 -0.1402
 7701TIP3    H144518   2.026   0.216   6.040  0.2291 -0.2854 -0.9128
 7701TIP3    H244519   2.102   0.226   6.171 -0.7281 -1.1526 -0.2769
 7702TIP3   OH244520   3.107   1.469   2.214 -0.3350  0.0652 -0.0842
 7702TIP3    H144521   3.121   1.509   2.128 -3.6632 -0.5489 -1.0233
 7702TIP3    H244522   3.195   1.464   2.252  1.4315 -0.6038 -3.8442
 7703TIP3   OH244523   6.067   2.867   2.881 -0.2839 -0.3790 -0.5032
 7703TIP3    H144524   5.978   2.898   2.901  0.5406  0.0173  3.1362
 7703TIP3    H244525   6.075   2.784   2.929  1.7586  0.3429  0.5153
 7704TIP3   OH244526   3.570   1.046  16.313 -0.1656 -0.1413  0.0163
 7704TIP3    H144527   3.665   1.055  16.316 -0.1587 -0.0004 -0.4807
 7704TIP3    H244528   3.537   1.135  16.319 -0.4036 -0.3387  3.3822
 7705TIP3   OH244529   2.333   6.109   3.550  0.1640  0.5671 -0.3195
 7705TIP3    H144530   2.387   6.185   3.571  1.9485 -1.4793  3.2497
 7705TIP3    H244531   2.253   6.122   3.601  0.0058  0.5412 -0.5582
 7706TIP3   OH244532   4.421   2.920   4.414  0.1179  0.2521 -0.4776
 7706TIP3    H144533   4.373   2.956   4.339  2.2588  2.5293 -0.8958
 7706TIP3    H244534   4.501   2.973   4.419  1.6118 -1.9650  1.4387
 7707TIP3   OH244535   0.834   2.362   2.650 -0.0281 -0.2669  0.5501
 7707TIP3    H144536   0.779   2.420   2.597  0.4723  0.4695  0.8196
 7707TIP3    H244537   0.836   2.403   2.736 -0.6219 -1.3175  1.0796
 7708TIP3   OH244538   6.107   2.652  16.091  0.4462  0.4917 -0.1204
 7708TIP3    H144539   6.063   2.715  16.147  0.7033 -0.6705  1.4818
 7708TIP3    H244540   6.118   2.697  16.007  1.9560  3.1211  1.3512
 7709TIP3   OH244541   2.625   0.986  13.006 -0.2485 -0.1942  0.4015
 7709TIP3    H144542   2.666   0.960  12.924  0.1570 -0.6470  0.7429
 7709TIP3    H244543   2.628   1.082  13.005  0.0427 -0.2041  0.0325
 7710TIP3   OH244544   1.138   6.761  15.978  0.0010 -0.1935 -0.5662
 7710TIP3    H144545   1.174   6.721  15.898  0.6225  0.8108 -0.8131
 7710TIP3    H244546   1.141   6.855  15.961  0.8667  0.0848  0.9305
 7711TIP3   OH244547   1.934   5.788   5.301  0.2245  0.3127 -0.5823
 7711TIP3    H144548   1.839   5.773   5.308 -0.0180  1.5658 -0.9300
 7711TIP3    H244549   1.945   5.834   5.218  0.8231  2.3703  0.5472
 7712TIP3   OH244550   0.126   0.689   3.827 -0.2065  0.0958 -0.0711
 7712TIP3    H144551   0.123   0.775   3.786 -1.1894  0.5665  0.9230
 7712TIP3    H244552   0.129   0.707   3.921  0.8480 -0.9544  0.1269
 7713TIP3   OH244553   2.889   0.219   0.342 -0.3861 -0.8724  0.8618
 7713TIP3    H144554   2.868   0.153   0.277  0.7048 -1.8659  1.4624
 7713TIP3    H244555   2.964   0.182   0.389  1.4440  1.5659  0.0541
 7714TIP3   OH244556   1.123   3.504   1.958 -0.2802 -0.0086 -0.2750
 7714TIP3    H144557   1.195   3.475   2.013 -0.6359 -0.6292 -0.1340
 7714TIP3    H244558   1.057   3.435   1.965 -0.8580  0.5094 -0.4654
 7715TIP3   OH244559   0.386   1.006   6.100  0.1552 -0.0966 -0.5680
 7715TIP3    H144560   0.299   1.002   6.140  0.6759 -1.7393  0.5046
 7715TIP3    H244561   0.379   0.957   6.019 -0.2303  0.9491 -1.1904
 7716TIP3   OH244562   4.459   0.185  12.777  0.2251  0.1511 -0.1765
 7716TIP3    H144563   4.543   0.213  12.741  0.5576 -0.3126  0.2278
 7716TIP3    H244564   4.480   0.155  12.865  0.2251 -3.1826 -1.1801
 7717TIP3   OH244565   4.838   1.461   4.636 -0.3576  0.4571 -0.3615
 7717TIP3    H144566   4.821   1.385   4.579  2.1577  0.1479 -0.7823
 7717TIP3    H244567   4.879   1.424   4.714 -1.9816  1.1119  0.8655
 7718TIP3   OH244568   3.268   6.250   4.919  0.2562  0.0859 -0.7825
 7718TIP3    H144569   3.302   6.169   4.958 -1.0721 -0.1163  0.0307
 7718TIP3    H244570   3.218   6.291   4.989  0.0249  1.0784 -1.5066
 7719TIP3   OH244571   5.371   3.106   0.299 -0.0602  0.1788 -0.7547
 7719TIP3    H144572   5.409   3.194   0.304  2.2678 -0.7612 -0.5827
 7719TIP3    H244573   5.380   3.081   0.208 -0.3956 -0.0194 -0.7335
 7720TIP3   OH244574   5.581   2.963   2.001 -0.3250 -0.0742 -0.1477
 7720TIP3    H144575   5.548   2.901   2.067 -0.9115 -0.0463 -0.4087
 7720TIP3    H244576   5.548   2.928   1.918 -1.8560  1.3326 -0.1780
 7721TIP3   OH244577   1.835   1.347  14.261  0.3988 -0.1077 -1.0110
 7721TIP3    H144578   1.790   1.304  14.333 -1.2377 -0.6739 -2.3021
 7721TIP3    H244579   1.903   1.284  14.235 -0.3506 -0.8284 -1.2716
 7722TIP3   OH244580   6.454   1.299  15.452  0.5047  0.1153 -0.1432
 7722TIP3    H144581   6.485   1.239  15.520  0.5444 -1.8367 -1.7597
 7722TIP3    H244582   6.534   1.334  15.413  0.5403 -0.2033 -0.3639
 7723TIP3   OH244583   0.371   0.902   4.212 -0.2458 -0.5453 -0.0131
 7723TIP3    H144584   0.403   0.948   4.134 -1.6644  1.4777  0.5101
 7723TIP3    H244585   0.280   0.883   4.193 -0.6034 -0.0577  1.0991
 7724TIP3   OH244586   1.249   3.621   1.176 -0.1575  0.1349 -0.0539
 7724TIP3    H144587   1.201   3.598   1.097 -0.4496  0.5773 -0.0120
 7724TIP3    H244588   1.280   3.710   1.159 -0.1086  0.1806  0.2780
 7725TIP3   OH244589   2.183   4.049   5.541 -0.1490 -0.0297  0.2425
 7725TIP3    H144590   2.129   4.004   5.606 -0.5009 -0.3328 -0.2495
 7725TIP3    H244591   2.266   4.066   5.586  0.3707 -2.0455  0.1579
 7726TIP3   OH244592   5.035   1.312  14.675 -0.2195  0.4117 -0.2915
 7726TIP3    H144593   5.095   1.351  14.738 -0.4175  2.5683 -1.3297
 7726TIP3    H244594   4.998   1.236  14.720  1.7661  0.1850  1.0882
 7727TIP3   OH244595   6.635   3.816  14.902  0.2912 -0.2097  0.7236
 7727TIP3    H144596   6.669   3.730  14.880  0.3799 -0.2512  1.0208
 7727TIP3    H244597   6.556   3.799  14.952  0.2453 -0.1189  0.6817
 7728TIP3   OH244598   5.494   5.019   4.077 -0.4369 -0.0024 -0.3802
 7728TIP3    H144599   5.563   4.955   4.096 -1.9554 -1.6156  0.0017
 7728TIP3    H244600   5.480   5.010   3.983 -0.1755  0.2867 -0.4484
 7729TIP3   OH244601   4.236   5.556   1.697  0.0899  0.1525  0.2982
 7729TIP3    H144602   4.168   5.501   1.659  0.1135  0.6206 -0.4375
 7729TIP3    H244603   4.311   5.545   1.639  0.9767 -1.0945  1.6144
 7730TIP3   OH244604   5.023   6.709  12.638  0.0111  0.5842 -0.6263
 7730TIP3    H144605   5.083   6.665  12.579  0.5530  2.0176 -1.1848
 7730TIP3    H244606   4.999   6.642  12.702  0.4844 -0.6088 -1.6624
 7731TIP3   OH244607   2.043   6.291   5.184  0.2724  0.1268 -0.1607
 7731TIP3    H144608   2.035   6.386   5.180  0.2074  0.0898 -1.3305
 7731TIP3    H244609   1.993   6.265   5.262  0.4894  1.0627  0.2993
 7732TIP3   OH244610   4.390   3.709   4.390  0.2248 -0.3475 -0.5778
 7732TIP3    H144611   4.467   3.701   4.334 -0.0407 -1.0467 -0.8487
 7732TIP3    H244612   4.412   3.779   4.452  1.6749 -1.5303  0.3149
 7733TIP3   OH244613   0.555   1.625   2.554  0.0112  0.0103  0.8232
 7733TIP3    H144614   0.463   1.639   2.576  0.1423 -0.6189  1.8601
 7733TIP3    H244615   0.553   1.568   2.477 -0.4720 -0.6709  1.3266
 7734TIP3   OH244616   5.546   2.864  12.853  0.1270  0.1058  0.1476
 7734TIP3    H144617   5.568   2.907  12.770  0.1789 -1.6301 -0.7955
 7734TIP3    H244618   5.451   2.872  12.859 -0.0087 -0.6770 -0.6545
 7735TIP3   OH244619   0.516   3.960  12.420 -0.5021  0.1605 -0.8693
 7735TIP3    H144620   0.533   3.877  12.375 -1.3761 -1.1708  1.1411
 7735TIP3    H244621   0.424   3.978  12.403 -0.0351  1.4100 -2.2970
 7736TIP3   OH244622   1.421   4.429   6.315  0.4909 -0.3999  0.4971
 7736TIP3    H144623   1.335   4.466   6.295 -0.6778 -1.9792  2.2119
 7736TIP3    H244624   1.424   4.349   6.263  1.3770  0.1395 -0.3062
 7737TIP3   OH244625   2.072   5.442   4.691 -0.5273  0.2190 -0.5603
 7737TIP3    H144626   2.085   5.518   4.748 -1.5566 -0.0947  0.1234
 7737TIP3    H244627   2.083   5.477   4.603  0.7733  0.7809 -0.1918
 7738TIP3   OH244628   2.705   0.995  14.051 -0.0910 -0.1997 -0.0785
 7738TIP3    H144629   2.721   1.045  13.971 -0.6109 -0.1954 -0.1839
 7738TIP3    H244630   2.703   0.904  14.023 -0.0165 -0.2174 -0.0279
 7739TIP3   OH244631   2.316   0.036  14.109 -0.1004  0.3534  0.6240
 7739TIP3    H144632   2.314   0.024  14.204 -2.0239  0.0121  0.5749
 7739TIP3    H244633   2.350  -0.047  14.075  1.3186  0.7471  1.0239
 7740TIP3   OH244634   3.876   4.027  16.574 -0.4669  0.3199 -0.4340
 7740TIP3    H144635   3.900   4.042  16.665 -0.7692  1.3459 -0.5142
 7740TIP3    H244636   3.784   4.002  16.577  0.0341 -1.7122 -0.2978
 7741TIP3   OH244637   6.687   5.992   0.670 -0.7768 -0.1040 -0.4412
 7741TIP3    H144638   6.691   6.071   0.616 -1.1518 -1.4525 -2.5787
 7741TIP3    H244639   6.596   5.962   0.661 -0.4331 -1.2111 -0.3208
 7742TIP3   OH244640   6.279   3.173  15.605 -0.2250 -0.0122 -0.0405
 7742TIP3    H144641   6.350   3.233  15.580  1.3070 -1.1142  1.4362
 7742TIP3    H244642   6.291   3.097  15.548 -0.5810  0.0209 -0.1615
 7743TIP3   OH244643   6.267   4.008  16.359 -0.0239 -0.8158  0.3325
 7743TIP3    H144644   6.272   3.930  16.304 -0.8319 -2.0353  1.8981
 7743TIP3    H244645   6.174   4.030  16.360  0.2145  0.3004 -0.2151
 7744TIP3   OH244646   3.796   4.875   3.858 -0.4112 -0.4186  0.3368
 7744TIP3    H144647   3.725   4.888   3.795  1.7877  0.5519 -2.1023
 7744TIP3    H244648   3.844   4.800   3.825  1.0693  0.4036  0.5650
 7745TIP3   OH244649   1.220   0.650   3.632 -0.3622 -0.2988  0.2146
 7745TIP3    H144650   1.260   0.705   3.566 -2.9386  1.7542  0.2188
 7745TIP3    H244651   1.193   0.571   3.585 -0.0757  0.1254 -0.6800
 7746TIP3   OH244652   5.043   0.610   3.610 -0.1480 -0.1952  0.2421
 7746TIP3    H144653   5.052   0.679   3.676  0.1402 -0.5783  0.6126
 7746TIP3    H244654   5.089   0.644   3.533  0.2346 -0.0940  0.5161
 7747TIP3   OH244655   6.737   2.239  15.061 -0.4251 -0.0005 -0.2852
 7747TIP3    H144656   6.743   2.332  15.083  1.6338 -0.5134  1.6714
 7747TIP3    H244657   6.658   2.209  15.105  0.6432  0.1929  1.9016
 7748TIP3   OH244658   1.848   6.574  12.052 -0.1822 -0.5285  0.1553
 7748TIP3    H144659   1.906   6.498  12.045 -0.2357 -0.7031  1.3434
 7748TIP3    H244660   1.872   6.629  11.977  1.0155 -0.9484  0.1960
 7749TIP3   OH244661   4.928   2.800  11.142  0.4441 -0.2135  0.2267
 7749TIP3    H144662   4.848   2.823  11.094  1.1941 -0.2238 -1.0826
 7749TIP3    H244663   4.946   2.709  11.117  0.2167 -0.6318  1.4858
 7750TIP3   OH244664   0.370   6.558  17.221 -0.1589 -0.0138  0.3518
 7750TIP3    H144665   0.457   6.590  17.198  0.3157 -1.1873  0.4600
 7750TIP3    H244666   0.378   6.463  17.221 -0.8649 -0.1343  2.5459
 7751TIP3   OH244667   6.756   3.917   1.920 -0.3262  0.0064 -0.0070
 7751TIP3    H144668   6.850   3.924   1.938  0.0768 -0.8790 -1.5829
 7751TIP3    H244669   6.750   3.858   1.845 -1.9994  1.7878 -1.3923
 7752TIP3   OH244670   5.223   6.157   4.604  0.0131 -0.4068 -0.6101
 7752TIP3    H144671   5.194   6.183   4.517  0.6411 -0.2471 -0.7782
 7752TIP3    H244672   5.161   6.200   4.664 -0.1975 -0.2186 -0.9602
 7753TIP3   OH244673   1.173   1.293   1.741 -0.0688  0.0753  0.0377
 7753TIP3    H144674   1.103   1.301   1.676  1.9944  1.4022 -2.1790
 7753TIP3    H244675   1.197   1.383   1.761  0.3036 -0.3483  1.5984
 7754TIP3   OH244676   0.033   4.967   5.729 -0.1836  0.5791 -0.2963
 7754TIP3    H144677  -0.039   4.947   5.789 -1.3414  0.5784 -1.6398
 7754TIP3    H244678   0.112   4.947   5.779 -1.1466 -1.5451  0.4886
 7755TIP3   OH244679   1.356   4.386   3.091 -0.2470  0.2521  0.0525
 7755TIP3    H144680   1.370   4.465   3.040  0.6771  1.2147  1.6831
 7755TIP3    H244681   1.380   4.314   3.033  0.1437  1.2534 -1.0452
 7756TIP3   OH244682   6.064   3.748  12.100  0.1570  0.3105 -0.0224
 7756TIP3    H144683   6.097   3.804  12.170  1.4092 -0.9503  0.4434
 7756TIP3    H244684   6.069   3.802  12.021  1.0326  0.9721  0.4711
 7757TIP3   OH244685   3.648   2.080   0.952 -0.1179 -0.3546 -0.0283
 7757TIP3    H144686   3.690   2.043   0.875 -1.9868 -2.3333 -0.2080
 7757TIP3    H244687   3.717   2.131   0.995  1.0083  0.7349 -2.8832
 7758TIP3   OH244688   0.481   2.450  12.174  0.1675 -0.0715 -0.7049
 7758TIP3    H144689   0.480   2.481  12.083  0.7533  1.4036 -0.2315
 7758TIP3    H244690   0.438   2.520  12.224 -1.4034 -1.4716  0.0107
 7759TIP3   OH244691   3.026   1.658   4.129  1.0462  0.1936  0.3513
 7759TIP3    H144692   3.002   1.566   4.138  1.2844 -0.2113 -2.2960
 7759TIP3    H244693   2.963   1.705   4.183  0.1554 -1.4198  0.7788
 7760TIP3   OH244694   6.194   2.147  11.252 -0.2081  0.5607 -0.4173
 7760TIP3    H144695   6.253   2.162  11.178  1.0883 -0.5098  0.3519
 7760TIP3    H244696   6.137   2.075  11.223  0.4596 -0.0250 -0.2984
 7761TIP3   OH244697   4.044   1.859  14.563  0.0717  0.3541  0.6606
 7761TIP3    H144698   4.075   1.841  14.475  1.1980 -1.2167  1.3333
 7761TIP3    H244699   4.037   1.954  14.567 -0.4934  0.4288 -1.2579
 7762TIP3   OH244700   6.471   2.115   2.231 -0.2859  0.1274 -0.3367
 7762TIP3    H144701   6.543   2.167   2.268 -1.9559  0.0566  3.4605
 7762TIP3    H244702   6.407   2.180   2.202 -0.5934  0.2255  0.5311
 7763TIP3   OH244703   3.249   4.755   6.373 -0.5924  0.8805  0.0416
 7763TIP3    H144704   3.244   4.684   6.436 -0.4057  0.5317 -0.3313
 7763TIP3    H244705   3.335   4.795   6.388 -0.3142  0.4467 -0.3563
 7764TIP3   OH244706   3.810   0.600   4.963  0.1256  0.3441  0.8577
 7764TIP3    H144707   3.848   0.679   4.925  2.0728 -1.7378 -2.0590
 7764TIP3    H244708   3.715   0.611   4.952  0.4621  1.2759 -1.9111
 7765TIP3   OH244709   1.205   1.618   4.023  0.2768 -0.6340  0.2930
 7765TIP3    H144710   1.201   1.711   4.003  0.9502 -1.0156 -1.9179
 7765TIP3    H244711   1.114   1.589   4.020  0.1058 -0.1372  0.5506
 7766TIP3   OH244712   4.238   4.316  14.330 -0.1054  0.3758  0.7286
 7766TIP3    H144713   4.167   4.251  14.332 -1.2264  1.5624  0.9426
 7766TIP3    H244714   4.315   4.267  14.300 -0.9966 -0.9616  0.5470
 7767TIP3   OH244715   1.654   0.397   1.745 -0.4455 -0.1825 -0.6779
 7767TIP3    H144716   1.742   0.428   1.769 -1.0613  2.4456 -1.4055
 7767TIP3    H244717   1.616   0.471   1.697 -2.8473 -1.4846 -0.9119
 7768TIP3   OH244718   3.965   3.776  16.869  0.9965  0.5489  0.1578
 7768TIP3    H144719   4.045   3.805  16.912  0.3182 -1.2815  2.8927
 7768TIP3    H244720   3.977   3.683  16.853 -0.5992  0.1946  0.7769
 7769TIP3   OH244721   4.403   5.722  14.047  0.1357 -0.3216  0.1978
 7769TIP3    H144722   4.309   5.728  14.066  0.4870  2.8006  1.3563
 7769TIP3    H244723   4.411   5.757  13.959  0.3183  0.2208  0.4321
 7770TIP3   OH244724   4.332   5.639  16.850 -0.0279  0.5261  0.2173
 7770TIP3    H144725   4.377   5.724  16.848  1.6680 -0.3343 -0.3356
 7770TIP3    H244726   4.312   5.620  16.758  0.0551  0.0957  0.2875
 7771TIP3   OH244727   5.821   4.676  13.213  0.7945 -0.7045  0.2281
 7771TIP3    H144728   5.778   4.697  13.296  0.5555 -1.6597  0.3543
 7771TIP3    H244729   5.760   4.619  13.167  1.7368 -1.7622  0.2387
 7772TIP3   OH244730   6.465   5.617  15.848  0.3549  0.8186 -0.3909
 7772TIP3    H144731   6.553   5.587  15.871  0.9349  2.7500  0.1271
 7772TIP3    H244732   6.447   5.689  15.909 -1.8282  0.1289 -0.1111
 7773TIP3   OH244733   2.857   4.387  16.159  0.0853 -0.2838 -0.5859
 7773TIP3    H144734   2.848   4.332  16.081  1.3673  0.1175 -1.0410
 7773TIP3    H244735   2.866   4.324  16.231 -0.3947 -0.6570 -0.8485
 7774TIP3   OH244736   0.872   0.212   2.563  0.8751  0.2658 -0.7640
 7774TIP3    H144737   0.852   0.303   2.543  0.8083  0.0017 -1.9860
 7774TIP3    H244738   0.804   0.185   2.624 -0.0514  0.5883 -1.6182
 7775TIP3   OH244739   3.308   3.300   2.956  0.3142  0.1584  0.4397
 7775TIP3    H144740   3.276   3.353   3.029 -1.6450  0.5479 -0.6308
 7775TIP3    H244741   3.353   3.362   2.899  2.7263 -0.3049  1.6944
 7776TIP3   OH244742   3.899   6.621  16.658  0.1457  0.1538  0.5981
 7776TIP3    H144743   3.958   6.614  16.733 -0.0719  0.4907  0.8050
 7776TIP3    H244744   3.926   6.701  16.614  2.5828 -1.7814 -1.7138
 7777TIP3   OH244745   2.103   2.067   0.930 -0.3250  0.1053  0.1043
 7777TIP3    H144746   2.036   2.001   0.949 -0.1192  0.0512  0.6402
 7777TIP3    H244747   2.133   2.045   0.842 -1.6869  0.7099 -0.5468
 7778TIP3   OH244748   3.359   0.498  15.115  0.1682  0.6508 -0.0789
 7778TIP3    H144749   3.379   0.416  15.161 -2.0391  0.6970  1.0991
 7778TIP3    H244750   3.291   0.473  15.052  0.8529  1.2389 -1.0739
 7779TIP3   OH244751   0.742   6.410   2.914  0.1376  0.2581 -0.1215
 7779TIP3    H144752   0.670   6.455   2.869 -0.8441 -1.5141 -0.4099
 7779TIP3    H244753   0.704   6.381   2.997  0.4231 -0.9653 -0.4104
 7780TIP3   OH244754   2.756   4.402   0.622  0.4566 -0.0657 -0.5562
 7780TIP3    H144755   2.767   4.446   0.707  0.3341 -0.3989 -0.3657
 7780TIP3    H244756   2.838   4.420   0.576  0.4909  0.1898 -0.3990
 7781TIP3   OH244757   4.764   5.884   5.782  0.3097  0.3049 -0.6720
 7781TIP3    H144758   4.683   5.911   5.739  0.2056  1.2199  0.0614
 7781TIP3    H244759   4.832   5.937   5.742  0.6938 -1.0116 -1.8355
 7782TIP3   OH244760   3.318   0.300   1.313  0.2250 -0.1112  0.3338
 7782TIP3    H144761   3.272   0.365   1.366 -0.0240 -0.4961  0.6046
 7782TIP3    H244762   3.248   0.245   1.277  0.4802 -1.2854  1.5108
 7783TIP3   OH244763   4.236   3.184  12.633 -0.3246  0.0193 -0.2955
 7783TIP3    H144764   4.196   3.168  12.718 -0.4806  2.0281  0.0571
 7783TIP3    H244765   4.183   3.255  12.595  1.4302  1.1054 -0.8211
 7784TIP3   OH244766   3.790   2.290   6.293  0.1779 -0.3802  0.4206
 7784TIP3    H144767   3.767   2.240   6.215  0.2697 -1.1196  0.8612
 7784TIP3    H244768   3.721   2.270   6.356 -0.2894  0.7739  0.3051
 7785TIP3   OH244769   1.059   5.393   6.570 -0.2385 -0.1267 -0.3983
 7785TIP3    H144770   1.020   5.306   6.566 -0.6583  0.0858 -1.2126
 7785TIP3    H244771   1.151   5.376   6.593 -0.5482 -0.6989  0.4800
 7786TIP3   OH244772   5.466   4.746  15.443  0.0311  0.1944 -0.1211
 7786TIP3    H144773   5.475   4.821  15.383 -1.1288 -0.1072 -0.7127
 7786TIP3    H244774   5.373   4.744  15.463 -0.0390 -1.3827 -0.5066
 7787TIP3   OH244775   2.685   4.507   2.940 -0.2862 -0.0937 -0.0313
 7787TIP3    H144776   2.599   4.488   2.904 -1.5130 -1.2760  3.2193
 7787TIP3    H244777   2.744   4.445   2.897 -1.4354 -0.7390 -0.7035
 7788TIP3   OH244778   0.977   0.533  16.767  0.2138  0.3597 -0.0689
 7788TIP3    H144779   0.969   0.525  16.672  0.4150  0.9649 -0.1453
 7788TIP3    H244780   1.030   0.612  16.779 -0.3698  0.6677  0.5570
 7789TIP3   OH244781   1.679   2.734   5.358  0.2331  0.0875  0.7692
 7789TIP3    H144782   1.627   2.667   5.403  0.9450 -0.2971  1.0407
 7789TIP3    H244783   1.621   2.809   5.351 -0.7827 -0.7335 -0.0333
 7790TIP3   OH244784   3.190   6.394  15.317  0.3406 -0.1721  0.3206
 7790TIP3    H144785   3.128   6.450  15.364  2.6901  1.3571  1.7849
 7790TIP3    H244786   3.171   6.305  15.349 -0.8473  0.2980  0.9873
 7791TIP3   OH244787   4.548   5.303   1.815 -0.4321  0.6148  0.0370
 7791TIP3    H144788   4.480   5.243   1.843  0.1166 -0.7169 -1.3643
 7791TIP3    H244789   4.536   5.312   1.720  2.0250 -0.6353 -0.4790
 7792TIP3   OH244790   4.945   5.083   5.082 -0.1053  0.1357 -0.1049
 7792TIP3    H144791   4.894   5.061   5.161  3.0436 -0.5273  1.9414
 7792TIP3    H244792   4.992   5.163   5.105  0.5343  0.1844 -1.4975
 7793TIP3   OH244793   2.952   1.899   5.483  0.0806  0.7165  0.3658
 7793TIP3    H144794   3.013   1.848   5.429  0.0819  0.0689  0.9548
 7793TIP3    H244795   2.974   1.990   5.465  1.2580  0.5004  0.5786
 7794TIP3   OH244796   1.019   2.938   2.038 -0.5090  0.3635  0.4990
 7794TIP3    H144797   1.041   2.890   1.958 -0.9802  1.0987 -0.0931
 7794TIP3    H244798   1.101   2.980   2.064 -0.5191  0.7587 -0.0637
 7795TIP3   OH244799   4.333   3.187   3.118  0.4102 -0.6840  0.0593
 7795TIP3    H144800   4.268   3.172   3.187 -0.4037  0.4600 -0.4155
 7795TIP3    H244801   4.413   3.211   3.165 -0.1943  0.2972  0.6365
 7796TIP3   OH244802   0.319   0.339   0.373 -0.0378 -0.2762 -0.2932
 7796TIP3    H144803   0.318   0.319   0.279 -0.6526 -0.5673 -0.2286
 7796TIP3    H244804   0.241   0.392   0.388  0.7122  0.8209 -0.1578
 7797TIP3   OH244805   2.355   0.428  16.569  0.3765  0.3658 -0.7684
 7797TIP3    H144806   2.408   0.473  16.635  0.1637 -1.0299  0.3888
 7797TIP3    H244807   2.265   0.458  16.587  0.2098 -0.6105  0.1204
 7798TIP3   OH244808   4.178   3.336   0.576  0.2060 -0.4332 -0.3500
 7798TIP3    H144809   4.253   3.355   0.520  0.8209 -1.4390  0.1158
 7798TIP3    H244810   4.215   3.303   0.657 -0.6953  0.5758  0.5061
 7799TIP3   OH244811   3.743   0.057  17.352 -0.3030 -0.2355  0.4304
 7799TIP3    H144812   3.771  -0.014  17.294  0.3793 -0.7893  1.4112
 7799TIP3    H244813   3.700   0.120  17.293 -1.2532 -1.6072 -0.4129
 7800TIP3   OH244814   6.489   0.581  15.997 -0.1001  0.3881  0.3774
 7800TIP3    H144815   6.484   0.589  15.902 -0.4888  1.0109  0.4399
 7800TIP3    H244816   6.403   0.547  16.023  0.3591 -0.7646  0.4244
 7801TIP3   OH244817   1.197   2.267  15.744 -0.0510 -0.5183  0.4512
 7801TIP3    H144818   1.290   2.246  15.736  0.0664 -0.4375  1.4967
 7801TIP3    H244819   1.169   2.285  15.654  1.1389  0.2862  0.2184
 7802TIP3   OH244820   0.565   5.438  13.282 -0.2610 -0.4368  0.2870
 7802TIP3    H144821   0.640   5.495  13.299 -0.4899 -0.3438  1.0207
 7802TIP3    H244822   0.599   5.371  13.223  0.0532  0.3695 -0.4615
 7803TIP3   OH244823   2.190   4.014  14.503  0.1479 -0.4304  0.7283
 7803TIP3    H144824   2.281   3.985  14.509 -0.3430 -2.1767  0.4550
 7803TIP3    H244825   2.181   4.047  14.414  0.8274  0.9930  1.1698
 7804TIP3   OH244826   2.580   5.852  12.462 -0.0518 -0.4075  0.3442
 7804TIP3    H144827   2.545   5.916  12.401 -0.9935  0.3940  1.6656
 7804TIP3    H244828   2.675   5.864  12.459 -0.1738  0.5322  0.0416
 7805TIP3   OH244829   2.181   4.265   2.239 -0.3279 -0.0107 -0.2095
 7805TIP3    H144830   2.274   4.244   2.246 -0.4299 -0.8478 -1.2036
 7805TIP3    H244831   2.136   4.185   2.266 -0.7773  0.4884  0.5682
 7806TIP3   OH244832   5.451   5.990   2.631 -0.4890  0.0839 -0.3712
 7806TIP3    H144833   5.536   5.978   2.589 -0.5046  0.3322 -0.4766
 7806TIP3    H244834   5.388   5.988   2.560 -0.7963 -2.1723 -0.1092
 7807TIP3   OH244835   6.558   5.194  13.159 -0.1777 -0.4260  0.1283
 7807TIP3    H144836   6.462   5.200  13.165 -0.2740 -2.3361  1.4950
 7807TIP3    H244837   6.587   5.284  13.149 -1.9542  0.5838  2.8862
 7808TIP3   OH244838   5.286   1.461   0.689  0.4314 -0.1245  0.1272
 7808TIP3    H144839   5.192   1.481   0.684  0.6282  0.8149  0.1085
 7808TIP3    H244840   5.327   1.526   0.632  1.1067 -0.4708  0.2158
 7809TIP3   OH244841   1.128   3.047   2.608  0.4137 -0.2695 -0.1546
 7809TIP3    H144842   1.033   3.057   2.599  0.5493 -0.3940 -2.1053
 7809TIP3    H244843   1.157   3.129   2.647 -0.4863 -0.2030  0.3999
 7810TIP3   OH244844   1.774   3.596   1.371 -0.2791  0.4618 -0.3453
 7810TIP3    H144845   1.864   3.576   1.397 -0.7224 -0.0957  0.8372
 7810TIP3    H244846   1.728   3.614   1.453 -1.3005  0.5173 -0.9050
 7811TIP3   OH244847   4.381   1.626  15.397  0.1459  0.0955  0.0900
 7811TIP3    H144848   4.475   1.605  15.401 -0.1971 -1.3316  1.5756
 7811TIP3    H244849   4.371   1.701  15.455  0.8984  2.8064 -2.9815
 7812TIP3   OH244850   3.796   1.189   4.138  0.6464 -0.3503 -0.0092
 7812TIP3    H144851   3.851   1.229   4.206  0.5098 -0.9413  0.4592
 7812TIP3    H244852   3.834   1.219   4.056  1.6521 -0.7040  0.3042
 7813TIP3   OH244853   1.713   1.157   2.653  0.4426  0.4005 -0.0862
 7813TIP3    H144854   1.639   1.133   2.596 -0.2851 -1.9937  1.6786
 7813TIP3    H244855   1.737   1.074   2.696  2.2436  1.7129  1.5980
 7814TIP3   OH244856   2.964   4.872   5.799  0.2512  0.7607  0.5305
 7814TIP3    H144857   3.023   4.889   5.873  0.7889 -1.3732  0.6737
 7814TIP3    H244858   3.018   4.889   5.722  0.2494  1.2917  0.6450
 7815TIP3   OH244859   3.226   3.946  13.897 -0.3556  0.0138 -0.0406
 7815TIP3    H144860   3.171   3.901  13.960 -1.7624  0.9272 -0.5638
 7815TIP3    H244861   3.175   3.945  13.816  0.1031  1.4587 -0.3744
 7816TIP3   OH244862   5.737   0.748   3.154 -0.1273  0.3749  0.2809
 7816TIP3    H144863   5.653   0.726   3.193 -0.3957  0.5827 -0.1776
 7816TIP3    H244864   5.746   0.687   3.081  0.3067  0.0875  0.5639
 7817TIP3   OH244865   3.056   3.850   3.720 -0.1410 -0.2130 -0.0250
 7817TIP3    H144866   2.965   3.879   3.711 -0.3378 -0.7209  0.2643
 7817TIP3    H244867   3.061   3.817   3.810  0.5437  0.5521  0.2270
 7818TIP3   OH244868   3.316   0.356   2.488  0.2390  0.6059  0.1057
 7818TIP3    H144869   3.321   0.279   2.546  0.0315  0.9115  0.5354
 7818TIP3    H244870   3.390   0.410   2.514 -1.2645  1.9542  1.8663
 7819TIP3   OH244871   0.525   5.221   2.875 -0.6151 -0.4241  0.3790
 7819TIP3    H144872   0.574   5.178   2.805 -0.6921  0.5443 -0.2921
 7819TIP3    H244873   0.542   5.314   2.862 -2.8003 -0.0397 -0.0249
 7820TIP3   OH244874   4.273   1.831  15.586  0.0754 -0.1480  0.5045
 7820TIP3    H144875   4.304   1.900  15.644 -0.5626 -0.0369  0.7151
 7820TIP3    H244876   4.206   1.785  15.636  0.3045 -0.7548  0.2651
 7821TIP3   OH244877   5.373   1.725  11.554 -0.2272  0.5971  0.7493
 7821TIP3    H144878   5.411   1.645  11.590  0.1706  1.0680  1.3936
 7821TIP3    H244879   5.336   1.770  11.630 -0.2447  1.1365  0.4281
 7822TIP3   OH244880   1.887   5.734   4.292 -0.1127 -0.1685 -0.0149
 7822TIP3    H144881   1.959   5.737   4.229 -0.2637 -1.1655 -0.2567
 7822TIP3    H244882   1.929   5.738   4.378  0.3164 -1.6649 -0.1323
 7823TIP3   OH244883   5.954   6.294  16.392  0.5566  0.6830  0.8006
 7823TIP3    H144884   5.993   6.231  16.332 -0.9600  0.1911  0.2653
 7823TIP3    H244885   5.859   6.282  16.382  0.2368  1.3299  2.5129
 7824TIP3   OH244886   4.102   2.019  12.777  0.0946 -0.2697  0.2427
 7824TIP3    H144887   4.094   1.980  12.690 -1.3846  0.7913 -0.1337
 7824TIP3    H244888   4.165   2.090  12.767  2.3290 -2.0411  0.7950
 7825TIP3   OH244889   5.135   0.318  11.278  0.3771  0.6688 -0.4731
 7825TIP3    H144890   5.194   0.326  11.203  1.3765  1.8806  0.3993
 7825TIP3    H244891   5.048   0.339  11.242  0.5326 -0.5655 -1.6433
 7826TIP3   OH244892   1.543   5.539  16.821  0.0569  0.3688 -0.7134
 7826TIP3    H144893   1.559   5.451  16.855 -2.3937  0.0081 -0.3767
 7826TIP3    H244894   1.559   5.597  16.896  2.0323  0.3128 -1.0281
 7827TIP3   OH244895   1.164   5.684  16.949 -0.2285 -0.0226  0.3011
 7827TIP3    H144896   1.191   5.775  16.942  0.7058 -0.2416  0.9105
 7827TIP3    H244897   1.116   5.667  16.868 -0.1680  0.9283  0.0595
 7828TIP3   OH244898   6.110   0.886   6.041  0.0001  0.0283 -0.0642
 7828TIP3    H144899   6.092   0.820   6.109 -3.4619  2.3015  1.5190
 7828TIP3    H244900   6.059   0.857   5.966 -1.6895  0.8657  0.6994
 7829TIP3   OH244901   0.573   3.989   1.101 -0.1060  0.2820 -0.3068
 7829TIP3    H144902   0.628   4.064   1.079  1.1740 -0.1556  1.2188
 7829TIP3    H244903   0.606   3.918   1.045  1.1031 -0.0492  0.7958
 7830TIP3   OH244904   4.433   6.483   0.605  0.8423  0.1731  0.4352
 7830TIP3    H144905   4.512   6.468   0.656  0.5593 -1.4237  0.4434
 7830TIP3    H244906   4.450   6.439   0.521  0.2162  0.3743  0.1979
 7831TIP3   OH244907   5.357   4.608   2.038  0.3339  0.0576  0.1081
 7831TIP3    H144908   5.434   4.577   2.087  1.7581  0.9032 -1.4665
 7831TIP3    H244909   5.392   4.677   1.981 -1.6666  0.6217 -0.5021
 7832TIP3   OH244910   6.138   1.421   3.996  0.4800  0.0755 -0.6187
 7832TIP3    H144911   6.122   1.432   4.090 -0.0201  0.5363 -0.7513
 7832TIP3    H244912   6.059   1.378   3.964  1.4682 -1.9744 -0.5017
 7833TIP3   OH244913   5.559   4.069   3.660 -0.2737  0.0561  0.0256
 7833TIP3    H144914   5.543   4.119   3.740 -2.5150 -2.0098  1.0173
 7833TIP3    H244915   5.568   4.135   3.591  1.7569  1.8954  1.9229
 7834TIP3   OH244916   0.433   4.236  15.959 -0.4635  0.0748 -0.3009
 7834TIP3    H144917   0.343   4.247  15.929 -0.6905 -3.7564 -1.4876
 7834TIP3    H244918   0.431   4.159  16.015  2.0816 -0.0996 -0.3331
 7835TIP3   OH244919   0.213   0.412  15.319 -0.0663 -0.0549  0.6359
 7835TIP3    H144920   0.305   0.407  15.344  0.5490 -4.0358 -1.6361
 7835TIP3    H244921   0.171   0.340  15.368 -1.2444 -0.3397 -0.7315
 7836TIP3   OH244922   4.437   3.779  16.413 -0.8066  0.5622  0.3216
 7836TIP3    H144923   4.514   3.751  16.363  0.2971  3.3060  0.2864
 7836TIP3    H244924   4.365   3.778  16.349 -0.4000 -0.3063 -0.1289
 7837TIP3   OH244925   1.867   1.114  14.851  0.0036  0.4647 -0.0881
 7837TIP3    H144926   1.812   1.061  14.909  0.4297  0.8235  0.6498
 7837TIP3    H244927   1.950   1.067  14.845  0.2111  0.7932  0.1718
 7838TIP3   OH244928   2.388   2.083  13.152  0.0331 -0.2822 -0.0098
 7838TIP3    H144929   2.298   2.114  13.142 -1.1202 -2.2082  3.0130
 7838TIP3    H244930   2.433   2.154  13.198 -0.8068 -0.4349  1.0979
 7839TIP3   OH244931   3.461   0.123   5.691 -0.0311 -0.1692  0.0918
 7839TIP3    H144932   3.401   0.059   5.654 -0.1599 -1.2264  1.9815
 7839TIP3    H244933   3.538   0.122   5.634  0.1167 -2.2813  0.2804
 7840TIP3   OH244934   2.337   2.337   4.602  0.1742 -0.3341 -0.5921
 7840TIP3    H144935   2.407   2.314   4.663  1.9223  2.9355 -1.1308
 7840TIP3    H244936   2.375   2.322   4.516 -0.0320  0.7104 -0.8812
 7841TIP3   OH244937   1.815   6.601   0.305  0.0837  0.4511 -0.2591
 7841TIP3    H144938   1.769   6.551   0.373  0.9076 -0.8796 -0.6318
 7841TIP3    H244939   1.831   6.686   0.344  0.3361 -0.2083  1.1370
 7842TIP3   OH244940   2.550   3.159   0.424  0.3650  0.0671  0.0465
 7842TIP3    H144941   2.628   3.181   0.474  0.4652  0.7889 -0.4222
 7842TIP3    H244942   2.583   3.116   0.345  0.1792 -1.7015  0.8871
 7843TIP3   OH244943   2.170   3.707   3.718 -0.0864  0.0702 -0.1203
 7843TIP3    H144944   2.154   3.684   3.627  1.3911 -1.5403 -0.0341
 7843TIP3    H244945   2.129   3.637   3.769 -0.5006  0.7079  0.4387
 7844TIP3   OH244946   4.381   5.590  12.621  0.4029 -0.3357 -0.0917
 7844TIP3    H144947   4.458   5.551  12.578  0.5896 -1.0238  0.8256
 7844TIP3    H244948   4.308   5.570  12.562  0.9711  0.6559 -1.1588
 7845TIP3   OH244949   5.786   3.863   3.891 -0.0894 -0.3328  0.2648
 7845TIP3    H144950   5.815   3.815   3.968  0.7220 -0.4316 -0.0819
 7845TIP3    H244951   5.855   3.847   3.826 -1.4487 -1.4154 -0.9714
 7846TIP3   OH244952   4.823   0.024  13.009  0.4929 -0.2758 -0.0746
 7846TIP3    H144953   4.910   0.051  13.038  0.4963 -1.2356  0.9131
 7846TIP3    H244954   4.833  -0.069  12.988 -0.0428 -0.1205 -1.0570
 7847TIP3   OH244955   1.497   4.684   5.412  0.1237 -0.1255  0.0699
 7847TIP3    H144956   1.478   4.765   5.460 -0.6039 -0.7101  0.7803
 7847TIP3    H244957   1.439   4.619   5.450 -1.1897 -0.4111 -2.2154
 7848TIP3   OH244958   6.735   6.205   1.570  0.1600  0.3537  0.4785
 7848TIP3    H144959   6.747   6.112   1.592 -0.3431  0.3252  0.6471
 7848TIP3    H244960   6.764   6.252   1.648  0.2875  0.3315  0.4442
 7849TIP3   OH244961   6.000   4.179   4.317 -0.2149  0.3162  0.0526
 7849TIP3    H144962   6.023   4.096   4.361  0.5617  0.4540 -0.0805
 7849TIP3    H244963   5.909   4.194   4.342 -0.5556 -0.8710 -0.3753
 7850TIP3   OH244964   4.035   1.265  12.602 -0.4845 -0.5077 -0.2196
 7850TIP3    H144965   3.971   1.303  12.543  0.1151 -1.1102 -1.3003
 7850TIP3    H244966   3.983   1.223  12.671 -1.1886  0.2391 -0.2862
 7851TIP3   OH244967   5.410   2.034  15.373 -0.2719  0.1176 -0.2408
 7851TIP3    H144968   5.431   1.951  15.329  1.0743 -0.1505  0.8581
 7851TIP3    H244969   5.435   2.101  15.309 -0.0071 -0.2942 -0.5763
 7852TIP3   OH244970   4.430   0.281  11.921 -0.4075  0.3292 -0.0281
 7852TIP3    H144971   4.374   0.303  11.846  1.7481 -0.6199 -2.0676
 7852TIP3    H244972   4.372   0.238  11.983 -1.8745 -1.0536 -2.2277
 7853TIP3   OH244973   2.466   3.055  12.599 -0.3599 -0.0391 -0.3297
 7853TIP3    H144974   2.393   2.994  12.598 -1.4957  1.2639 -0.3856
 7853TIP3    H244975   2.481   3.077  12.507  2.3033 -2.7174 -0.6928
 7854TIP3   OH244976   5.745   6.437  10.680  0.7167  0.2304  0.7609
 7854TIP3    H144977   5.811   6.471  10.740  0.3384  0.3425  1.1242
 7854TIP3    H244978   5.764   6.479  10.596  0.6892  0.8023  1.0306
 7855TIP3   OH244979   0.583   4.088  13.530  0.5407 -0.3286  0.0877
 7855TIP3    H144980   0.601   4.180  13.514 -2.1357  0.2170 -0.2316
 7855TIP3    H244981   0.613   4.072  13.620  3.0922  0.1952 -0.6031
 7856TIP3   OH244982   4.844   3.953   5.713 -0.2011 -0.1416 -0.3347
 7856TIP3    H144983   4.848   3.970   5.619  1.8025 -1.0568 -0.4713
 7856TIP3    H244984   4.781   3.882   5.722 -0.6460  0.1669 -0.9521
 7857TIP3   OH244985   6.651   6.289   4.201  0.1996 -0.8383 -0.1195
 7857TIP3    H144986   6.558   6.276   4.222  0.4097 -1.1493  0.6322
 7857TIP3    H244987   6.651   6.365   4.143 -0.7011 -1.9329 -1.6544
 7858TIP3   OH244988   4.658   4.934  11.351 -0.1347 -0.0558 -0.3253
 7858TIP3    H144989   4.620   4.972  11.272 -1.3947  1.2685  0.8514
 7858TIP3    H244990   4.704   4.856  11.321 -0.9188  0.1891 -2.2970
 7859TIP3   OH244991   1.611   2.461   4.901 -0.1206 -0.2105 -0.0309
 7859TIP3    H144992   1.679   2.497   4.844  1.0377  0.8446  1.9494
 7859TIP3    H244993   1.573   2.538   4.945 -0.9809 -1.0009  0.6523
 7860TIP3   OH244994   3.983   1.662   1.711  0.1842  0.1470  0.0269
 7860TIP3    H144995   4.000   1.648   1.618  0.4938 -2.5434  0.3928
 7860TIP3    H244996   3.968   1.756   1.720  0.6037  0.5281 -2.6468
 7861TIP3   OH244997   4.370   1.272  14.706 -0.0724 -0.3097  0.0090
 7861TIP3    H144998   4.359   1.177  14.698  1.8166 -0.5312 -0.3813
 7861TIP3    H244999   4.341   1.306  14.621 -0.8846 -0.5117  0.1975
 7862TIP3   OH245000   2.074   5.114   2.724  0.1558  0.4847 -0.1216
 7862TIP3    H145001   2.149   5.160   2.686  1.2030  0.3287  1.6522
 7862TIP3    H245002   1.998   5.150   2.678  1.0420  3.1196  0.2999
 7863TIP3   OH245003   6.056   4.109   4.608  0.5144  0.1344  0.5021
 7863TIP3    H145004   6.010   4.063   4.678  1.0404 -1.7284 -0.3014
 7863TIP3    H245005   6.071   4.197   4.643  1.5808 -0.9666  3.1135
 7864TIP3   OH245006   1.087   4.042  13.690 -0.2615 -1.0010 -0.4930
 7864TIP3    H145007   1.050   4.036  13.779 -1.1285 -2.0918 -0.9011
 7864TIP3    H245008   1.075   3.954  13.654  2.1624 -1.2322 -0.9094
 7865TIP3   OH245009   5.404   5.065   3.823  0.2708 -0.4081  0.1287
 7865TIP3    H145010   5.365   5.151   3.833  2.4059  0.8748 -1.7527
 7865TIP3    H245011   5.331   5.009   3.794 -1.2234  0.6095  1.7522
 7866TIP3   OH245012   0.644   3.675   2.165  0.2524  0.3437  0.1505
 7866TIP3    H145013   0.687   3.623   2.097 -1.5947  0.3117 -1.0726
 7866TIP3    H245014   0.697   3.660   2.243  2.5004  0.4205 -1.2508
 7867TIP3   OH245015   4.215   1.092  13.755  0.2163 -0.0524  0.0088
 7867TIP3    H145016   4.161   1.027  13.799 -1.1307  0.8200 -0.2910
 7867TIP3    H245017   4.189   1.176  13.794  0.9475  0.4427 -0.5402
 7868TIP3   OH245018   2.382   2.445   2.998  0.3352  0.1300  0.0903
 7868TIP3    H145019   2.457   2.483   2.951  0.6534 -1.7539 -1.0521
 7868TIP3    H245020   2.306   2.483   2.955  0.6212  1.1643  0.4697
 7869TIP3   OH245021   6.237   1.939  13.303  0.2055 -0.1827  0.1053
 7869TIP3    H145022   6.285   2.005  13.353  0.1732  0.7523 -1.0548
 7869TIP3    H245023   6.283   1.857  13.322  1.2129  0.4209  0.3632
 7870TIP3   OH245024   5.031   6.111   3.117 -0.1597 -0.2510  0.0656
 7870TIP3    H145025   4.971   6.076   3.052  0.5109 -1.5877  0.1300
 7870TIP3    H245026   5.115   6.070   3.097  0.5585  0.9787  0.4553
 7871TIP3   OH245027   1.747   6.125  14.211  0.1819  0.4448  0.0344
 7871TIP3    H145028   1.773   6.076  14.133  0.5215 -1.2995  1.1748
 7871TIP3    H245029   1.727   6.057  14.276  2.7594  1.7530  2.4065
 7872TIP3   OH245030   3.222   6.199  12.848  0.1041  0.3237 -0.8766
 7872TIP3    H145031   3.192   6.234  12.932  2.3193 -1.5426  0.8469
 7872TIP3    H245032   3.183   6.256  12.782 -0.9991  2.4390  1.4529
 7873TIP3   OH245033   0.311   4.277  16.315 -0.0505 -0.5238 -0.2712
 7873TIP3    H145034   0.318   4.317  16.401  1.1210 -0.9329 -0.1581
 7873TIP3    H245035   0.367   4.200  16.319  1.6614  0.5219 -1.9880
 7874TIP3   OH245036   4.423   1.591   5.199 -0.5965  0.7192 -0.1731
 7874TIP3    H145037   4.408   1.500   5.176  1.8229  0.5040 -1.2180
 7874TIP3    H245038   4.400   1.640   5.120  0.0719  0.7865 -0.3336
 7875TIP3   OH245039   4.607   6.695  10.561 -0.0089 -0.3929 -0.3609
 7875TIP3    H145040   4.688   6.692  10.510 -1.1073  0.5116 -2.2463
 7875TIP3    H245041   4.572   6.606  10.556 -0.1655 -0.2867 -1.3412
 7876TIP3   OH245042   4.842   0.157   0.863 -0.7293  0.1763 -0.5366
 7876TIP3    H145043   4.797   0.225   0.914  0.8678  0.2373  0.8783
 7876TIP3    H245044   4.892   0.108   0.928  1.6939  0.4896 -2.0488
 7877TIP3   OH245045   1.613   4.080  13.183  0.1904  0.3625 -0.2993
 7877TIP3    H145046   1.697   4.047  13.151  0.3433  0.1016  0.3585
 7877TIP3    H245047   1.624   4.175  13.187  0.7108  0.2759  0.4840
 7878TIP3   OH245048   4.607   2.189  16.777 -0.5645 -0.2316  0.3575
 7878TIP3    H145049   4.562   2.260  16.732  0.5541  1.4537  1.7514
 7878TIP3    H245050   4.694   2.186  16.737 -0.6763 -0.9978  0.1503
 7879TIP3   OH245051   1.498   5.634   3.258 -0.0136  0.2111  0.3687
 7879TIP3    H145052   1.418   5.656   3.211  0.4191 -1.8518 -1.4909
 7879TIP3    H245053   1.484   5.668   3.346 -2.0396  1.7392 -0.4599
 7880TIP3   OH245054   1.821   6.003   2.179 -0.4379 -0.2015 -0.4122
 7880TIP3    H145055   1.858   6.057   2.109 -0.0995 -0.9284 -0.8106
 7880TIP3    H245056   1.727   6.013   2.170 -0.3689  0.7181 -0.1558
 7881TIP3   OH245057   3.850   0.291  12.986  0.4630  0.6073  0.0011
 7881TIP3    H145058   3.798   0.243  13.051  0.4164 -0.1108 -0.5465
 7881TIP3    H245059   3.803   0.277  12.903 -0.4425  2.9416  0.0453
 7882TIP3   OH245060   0.067   0.204  15.512 -0.3447  0.4878  0.0579
 7882TIP3    H145061   0.052   0.178  15.603  0.6041 -1.6980 -0.3396
 7882TIP3    H245062  -0.019   0.196  15.470 -0.8817  1.9316  0.8143
 7883TIP3   OH245063   2.827   6.115  12.420 -0.4957  0.5721  0.3727
 7883TIP3    H145064   2.851   6.026  12.445 -0.3549  1.2226  2.7890
 7883TIP3    H245065   2.909   6.158  12.400 -0.4997  0.3819 -0.0722
 7884TIP3   OH245066   1.889   4.057  16.480 -0.1203 -0.0421 -0.0062
 7884TIP3    H145067   1.930   4.088  16.561  0.0252 -0.8246  0.2273
 7884TIP3    H245068   1.795   4.068  16.495 -0.0709  0.2815  0.0736
 7885TIP3   OH245069   0.658   3.538  10.977 -0.0401  0.0597  0.3748
 7885TIP3    H145070   0.714   3.552  11.053 -0.1908 -0.4846  0.5851
 7885TIP3    H245071   0.581   3.593  10.994  0.0000  0.0647  0.5374
 7886TIP3   OH245072   1.480   5.829   4.410 -0.7044  0.6529  0.6966
 7886TIP3    H145073   1.392   5.825   4.448 -0.9702  1.2937  0.1638
 7886TIP3    H245074   1.483   5.756   4.348 -0.6284  0.2317  1.1924
 7887TIP3   OH245075   3.365   6.100  13.133  0.2016  0.0757  0.5565
 7887TIP3    H145076   3.273   6.078  13.118 -0.0709  1.6160 -0.3408
 7887TIP3    H245077   3.364   6.194  13.154  1.5418  0.0762  0.7195
 7888TIP3   OH245078   1.741   4.219  15.648 -0.5022 -0.0077 -0.1234
 7888TIP3    H145079   1.660   4.271  15.643 -0.2964  0.1924 -2.0345
 7888TIP3    H245080   1.775   4.237  15.735 -1.6442  1.2502  0.1039
 7889TIP3   OH245081   5.635   0.970   0.523 -0.0107  0.4541  0.5443
 7889TIP3    H145082   5.553   1.016   0.504  0.5278  1.8111  1.3604
 7889TIP3    H245083   5.672   1.018   0.597  2.3743  0.9294 -0.8765
 7890TIP3   OH245084   6.606   0.230  17.295 -0.1266 -0.1102 -0.3877
 7890TIP3    H145085   6.571   0.144  17.274 -2.1238  1.1790 -2.9110
 7890TIP3    H245086   6.568   0.251  17.381 -0.4677 -1.2997 -0.2331
 7891TIP3   OH245087   5.767   4.599  12.913 -0.3169  0.0538 -0.2537
 7891TIP3    H145088   5.695   4.613  12.852  1.3026 -0.1906 -2.3395
 7891TIP3    H245089   5.809   4.685  12.921 -0.4953  0.0793  0.5226
 7892TIP3   OH245090   4.563   2.007  11.568  0.6576 -0.1991  0.4443
 7892TIP3    H145091   4.605   1.981  11.486 -0.2954  0.5114 -0.2882
 7892TIP3    H245092   4.469   2.008  11.547  0.2759 -1.3967  1.9317
 7893TIP3   OH245093   1.031   6.120   4.937 -0.3969 -0.4418 -0.1365
 7893TIP3    H145094   1.088   6.102   4.862 -1.4192 -0.0017 -1.0558
 7893TIP3    H245095   1.009   6.033   4.971  1.5249 -0.5971  0.8225
 7894TIP3   OH245096   4.661   2.229  13.283 -0.0106  0.0385 -0.6349
 7894TIP3    H145097   4.628   2.308  13.238 -0.2772 -0.4153 -1.2515
 7894TIP3    H245098   4.683   2.169  13.212  1.8403  0.1875 -0.2340
 7895TIP3   OH245099   0.319   5.537  14.331 -0.3690 -0.4877 -0.3537
 7895TIP3    H145100   0.288   5.578  14.412 -0.6859 -1.0083 -0.2016
 7895TIP3    H245101   0.329   5.609  14.269  2.2618  0.2938  0.8568
 7896TIP3   OH245102   0.589   2.360   3.992 -0.4444 -0.1637  0.1525
 7896TIP3    H145103   0.580   2.442   3.944 -1.2204 -0.7564 -0.7669
 7896TIP3    H245104   0.653   2.310   3.942 -0.4415 -0.3620  0.3516
 7897TIP3   OH245105   1.941   4.861   2.202  0.0028  0.2698 -0.4632
 7897TIP3    H145106   1.936   4.771   2.234  0.1534  1.1293  2.1613
 7897TIP3    H245107   2.029   4.868   2.165  0.9682  0.0083  1.6535
 7898TIP3   OH245108   4.769   3.772   2.192  0.1319  0.0286 -0.1880
 7898TIP3    H145109   4.775   3.741   2.282  0.5326 -0.3040 -0.3262
 7898TIP3    H245110   4.749   3.865   2.200  1.6629  0.3468  0.2745
 7899TIP3   OH245111   0.255   4.506   0.428  0.0540 -0.7188  0.0325
 7899TIP3    H145112   0.194   4.496   0.501 -0.3081  0.8144 -0.0224
 7899TIP3    H245113   0.199   4.529   0.353  0.4969 -1.4965 -0.5547
 7900TIP3   OH245114   2.259   6.753   4.484 -0.0704 -0.3477  0.0672
 7900TIP3    H145115   2.332   6.808   4.511 -1.4003  1.5702 -0.0127
 7900TIP3    H245116   2.225   6.796   4.405 -2.6262  0.1758  1.3454
 7901TIP3   OH245117   5.388   5.131  15.544  0.3992 -0.0952  0.1289
 7901TIP3    H145118   5.387   5.054  15.600  0.0533 -0.4306 -0.3391
 7901TIP3    H245119   5.458   5.186  15.580  1.0631 -0.9006  0.0870
 7902TIP3   OH245120   0.185   0.392  16.325 -0.1922  0.2822 -0.4469
 7902TIP3    H145121   0.252   0.417  16.389 -0.8051  0.4813  0.1308
 7902TIP3    H245122   0.216   0.308  16.290 -1.2533 -1.3894  2.2653
 7903TIP3   OH245123   2.244   4.020  13.550  0.8861 -0.6482 -0.4033
 7903TIP3    H145124   2.338   4.034  13.559  0.2397  4.6806  1.8314
 7903TIP3    H245125   2.208   4.047  13.635 -2.8333  1.3164 -2.3669
 7904TIP3   OH245126   6.696   5.544   5.636  0.0110 -0.1842 -0.4594
 7904TIP3    H145127   6.701   5.467   5.579 -0.4720 -2.2967  2.1364
 7904TIP3    H245128   6.617   5.530   5.688  0.6935  1.3484  1.0930
 7905TIP3   OH245129   2.657   0.723  11.834  0.1682  0.1640 -0.1818
 7905TIP3    H145130   2.616   0.807  11.814 -0.6913 -0.2153 -0.0528
 7905TIP3    H245131   2.609   0.691  11.911 -0.7998 -1.3064 -1.3328
 7906TIP3   OH245132   4.662   0.328   4.991  0.0154 -0.3649  0.8302
 7906TIP3    H145133   4.712   0.246   4.989  0.8302  0.1166  1.1570
 7906TIP3    H245134   4.711   0.385   5.050 -0.4893  0.3997  0.5280
 7907TIP3   OH245135   4.602   3.134   4.386 -0.1335 -0.2813  0.9732
 7907TIP3    H145136   4.676   3.193   4.395 -0.1175 -0.1796  0.2473
 7907TIP3    H245137   4.542   3.179   4.326 -0.3569 -0.7701  0.8165
 7908TIP3   OH245138   1.519   4.310  15.164 -0.8592  0.1405  0.0466
 7908TIP3    H145139   1.439   4.259  15.152 -0.8990  0.5287 -1.5726
 7908TIP3    H245140   1.577   4.281  15.093 -0.7062  1.9500 -0.6301
 7909TIP3   OH245141   2.629   4.251  15.001 -0.2702  0.8320 -0.0613
 7909TIP3    H145142   2.538   4.274  14.984 -0.4321  2.0706  2.0716
 7909TIP3    H245143   2.643   4.277  15.092  1.7141 -0.9729  0.2186
 7910TIP3   OH245144   4.144   5.569  17.175  0.6919  0.2420  0.3010
 7910TIP3    H145145   4.200   5.491  17.184  0.7487  0.1496 -0.7578
 7910TIP3    H245146   4.081   5.546  17.107  0.5381  1.0296  0.1666
 7911TIP3   OH245147   5.155   2.758  16.475 -0.3319 -0.1473 -0.1354
 7911TIP3    H145148   5.185   2.781  16.563 -2.1351  2.6721 -0.1118
 7911TIP3    H245149   5.174   2.836  16.422  0.6362 -1.7332 -2.2819
 7912TIP3   OH245150   0.576   1.820   5.270 -1.1562 -0.1536  0.1927
 7912TIP3    H145151   0.514   1.767   5.320 -1.6310  0.6199  0.4426
 7912TIP3    H245152   0.529   1.843   5.191 -1.6053  1.3291  0.8593
 7913TIP3   OH245153   0.953   2.060  16.092 -0.4646  0.2591  0.2134
 7913TIP3    H145154   0.946   2.037  15.999 -1.6159  0.6076  0.2045
 7913TIP3    H245155   1.035   2.020  16.120  0.2597  0.7478 -1.1222
 7914TIP3   OH245156   1.652   3.040  10.761  0.5269 -0.4250  0.6870
 7914TIP3    H145157   1.582   3.087  10.806  0.5967  1.2937 -0.8864
 7914TIP3    H245158   1.611   2.959  10.730 -0.7276  0.4551 -0.0243
 7915TIP3   OH245159   1.949   5.341   6.062  0.5122 -0.4337 -0.2413
 7915TIP3    H145160   1.889   5.315   6.131  0.0465  0.1060 -0.4369
 7915TIP3    H245161   1.982   5.258   6.026  1.0048 -0.7166  0.8239
 7916TIP3   OH245162   0.499   4.119  11.388 -0.0395  0.1642  0.3121
 7916TIP3    H145163   0.513   4.092  11.479 -0.3923  1.3555  0.7314
 7916TIP3    H245164   0.501   4.037  11.339  0.8567 -0.4404  1.2954
 7917TIP3   OH245165   0.027   5.834  12.779 -0.3112 -0.0783 -0.4133
 7917TIP3    H145166   0.002   5.882  12.700 -0.0223 -0.8628 -0.9860
 7917TIP3    H245167   0.067   5.901  12.835  1.7824  0.0618 -1.9447
 7918TIP3   OH245168   4.290   5.679   4.146 -0.7236  0.0687 -0.1977
 7918TIP3    H145169   4.195   5.674   4.136 -0.8885  0.3862  0.9685
 7918TIP3    H245170   4.306   5.770   4.173 -0.1196 -0.0584 -0.1176
 7919TIP3   OH245171   0.634   2.966   1.209  0.4664 -0.6452 -0.2137
 7919TIP3    H145172   0.621   2.906   1.136 -0.9848  0.4456 -0.8887
 7919TIP3    H245173   0.725   2.995   1.199  1.8253 -3.9129  1.1217
 7920TIP3   OH245174   2.037   0.303  14.682  0.2265  0.3818  0.0311
 7920TIP3    H145175   2.045   0.322  14.776  0.9147 -0.4482  0.1496
 7920TIP3    H245176   2.024   0.389  14.642 -0.9741  0.6646  0.9599
 7921TIP3   OH245177   3.518   4.632  12.982  0.2552  0.4351 -0.3428
 7921TIP3    H145178   3.552   4.718  13.005  0.9928  0.0985 -0.1576
 7921TIP3    H245179   3.595   4.581  12.956  0.5364 -1.4947  3.5757
 7922TIP3   OH245180   1.906   3.655  10.767  0.0625  0.3346  0.4522
 7922TIP3    H145181   1.926   3.562  10.756  0.4820  0.3589  0.9571
 7922TIP3    H245182   1.820   3.666  10.727 -0.0718 -0.3107  0.5504
 7923TIP3   OH245183   5.913   2.981   5.002 -0.4227 -0.3764  0.1141
 7923TIP3    H145184   5.999   2.970   4.963 -0.9066 -1.6866 -0.6612
 7923TIP3    H245185   5.863   2.905   4.971 -1.3828 -0.4959  1.8325
 7924TIP3   OH245186   2.946   6.180  15.581  0.1380 -0.5215  0.7421
 7924TIP3    H145187   2.997   6.195  15.502 -0.2463 -0.9381  0.4101
 7924TIP3    H245188   2.877   6.247  15.578  1.3399  0.8258  1.8018
 7925TIP3   OH245189   4.312   2.547   6.404  0.1147  0.4399 -0.1781
 7925TIP3    H145190   4.285   2.570   6.493  1.2425 -1.0943  0.5929
 7925TIP3    H245191   4.355   2.626   6.371 -1.9566  1.6771 -0.1031
 7926TIP3   OH245192   0.908   1.150  13.800  0.2146 -0.4639 -0.3841
 7926TIP3    H145193   0.959   1.171  13.722  1.0049 -1.2889 -0.1129
 7926TIP3    H245194   0.948   1.069  13.834  0.4067  0.2959  1.3144
 7927TIP3   OH245195   1.443   1.681   4.444  0.2631  0.4969 -0.0129
 7927TIP3    H145196   1.363   1.680   4.392 -1.5030  0.2720  2.5733
 7927TIP3    H245197   1.428   1.618   4.514  3.3758 -0.7641 -0.3232
 7928TIP3   OH245198   2.681   5.561  15.959  0.2626  0.4284  0.4081
 7928TIP3    H145199   2.769   5.596  15.948 -0.2518  1.8007  0.4590
 7928TIP3    H245200   2.693   5.485  16.015  1.4968  0.1527 -0.1928
 7929TIP3   OH245201   3.109   4.123   3.301  0.1728 -0.0574 -0.5077
 7929TIP3    H145202   3.128   4.031   3.317  0.3563  0.0357 -0.1554
 7929TIP3    H245203   3.015   4.127   3.287 -0.0414 -0.1390  0.7581
 7930TIP3   OH245204   0.764   0.654   3.778  0.0000 -0.2718  0.4692
 7930TIP3    H145205   0.700   0.627   3.844 -0.7866 -0.4862 -0.3571
 7930TIP3    H245206   0.849   0.637   3.819 -0.4739 -1.0124  1.1778
 7931TIP3   OH245207   3.375   6.462   4.243  0.4258 -0.6425 -0.1529
 7931TIP3    H145208   3.462   6.475   4.281  0.8458 -0.8026 -1.0478
 7931TIP3    H245209   3.335   6.548   4.244  1.2230 -0.2484 -1.2604
 7932TIP3   OH245210   3.644   3.611  12.586  0.4223 -0.4149  0.4514
 7932TIP3    H145211   3.659   3.585  12.677  0.0730  0.7148  0.8556
 7932TIP3    H245212   3.550   3.598  12.573  0.2312  0.6834  0.6831
 7933TIP3   OH245213   0.096   5.429  14.846 -0.5326  0.7400 -0.3079
 7933TIP3    H145214   0.099   5.369  14.771  0.4450  0.9398 -0.4509
 7933TIP3    H245215   0.175   5.483  14.836 -0.3739  0.7543  0.8749
 7934TIP3   OH245216   6.403   3.566   0.162  0.1900 -0.4724 -0.1771
 7934TIP3    H145217   6.486   3.529   0.193  0.3999 -0.1843 -0.3920
 7934TIP3    H245218   6.353   3.581   0.242  0.2410 -0.8938 -0.0637
 7935TIP3   OH245219   5.988   3.939  13.899 -0.3550  0.1634 -0.6449
 7935TIP3    H145220   5.912   3.935  13.957  0.3447  3.2120  0.7055
 7935TIP3    H245221   5.981   4.025  13.857  0.9795 -0.5763 -2.4956
 7936TIP3   OH245222   3.990   2.080   3.182  0.5794 -0.4692  0.3727
 7936TIP3    H145223   3.903   2.063   3.218 -0.3605  0.6429 -1.2859
 7936TIP3    H245224   4.044   2.009   3.218 -0.9760 -1.1737  1.4539
 7937TIP3   OH245225   0.496   3.052   5.013 -0.3374  0.0394  0.4228
 7937TIP3    H145226   0.471   3.119   5.076  0.7209  1.7302 -0.8600
 7937TIP3    H245227   0.525   2.978   5.066 -1.4053  0.6214  1.8828
 7938TIP3   OH245228   5.196   0.010  13.455 -0.4394  0.3459  0.2341
 7938TIP3    H145229   5.286  -0.023  13.463 -0.7994 -1.4438 -1.9701
 7938TIP3    H245230   5.166   0.020  13.545  1.8299  0.6567  1.0270
 7939TIP3   OH245231   4.439   1.572   3.933 -0.4479  0.1433  0.6794
 7939TIP3    H145232   4.463   1.501   3.873 -2.1402 -1.3387  1.6570
 7939TIP3    H245233   4.418   1.646   3.876  0.9176 -0.2486 -0.3830
 7940TIP3   OH245234   6.637   4.376  17.031  0.1157 -0.5832 -0.3528
 7940TIP3    H145235   6.594   4.376  16.945 -0.2365  1.4257 -0.2178
 7940TIP3    H245236   6.576   4.330  17.088 -0.6585 -0.0538 -0.7342
 7941TIP3   OH245237   3.875   5.860   4.261 -0.1276 -0.0210 -0.0621
 7941TIP3    H145238   3.805   5.808   4.302 -0.0221 -0.8583 -0.8895
 7941TIP3    H245239   3.916   5.907   4.333 -1.0946 -0.0626  0.5338
 7942TIP3   OH245240   4.617   0.620   0.277  0.2638 -0.1633  0.3256
 7942TIP3    H145241   4.565   0.612   0.197  0.1625  0.9879  0.2588
 7942TIP3    H245242   4.663   0.536   0.284 -0.7304 -0.7687 -0.2203
 7943TIP3   OH245243   5.280   6.369  11.466 -0.3114  0.3749  0.1135
 7943TIP3    H145244   5.284   6.348  11.373  1.0753 -0.9346  0.4320
 7943TIP3    H245245   5.241   6.456  11.469  2.4948  1.8817 -1.9219
 7944TIP3   OH245246   1.443   4.687   0.862  0.2308  0.0029  0.6941
 7944TIP3    H145247   1.430   4.595   0.838  2.6722 -0.0906 -0.5513
 7944TIP3    H245248   1.440   4.688   0.958  0.4141 -1.4069  0.7328
 7945TIP3   OH245249   4.245   6.162   3.321  0.1001  0.1211 -0.7123
 7945TIP3    H145250   4.279   6.229   3.260 -1.2503  0.5445 -1.0479
 7945TIP3    H245251   4.150   6.174   3.318 -0.1740 -1.7615 -0.6934
 7946TIP3   OH245252   1.049   2.326  15.955  0.0615  0.3490 -0.8454
 7946TIP3    H145253   1.115   2.295  15.894 -0.6064 -0.1873 -1.3140
 7946TIP3    H245254   0.966   2.296  15.918 -0.2577 -1.7430  1.2918
 7947TIP3   OH245255   3.922   3.930  13.951 -0.1656  0.2984 -0.6411
 7947TIP3    H145256   3.988   3.978  14.000 -1.2502  0.7408  0.4300
 7947TIP3    H245257   3.972   3.865  13.901  1.0614  0.5879  0.1652
 7948TIP3   OH245258   0.834   3.748   2.706 -0.0104  0.1291  0.7394
 7948TIP3    H145259   0.792   3.662   2.708 -2.0461  0.9510 -1.8991
 7948TIP3    H245260   0.767   3.808   2.738  0.6924  0.9857  0.6281
 7949TIP3   OH245261   2.927   4.475  15.124 -0.1421 -0.2210 -0.2606
 7949TIP3    H145262   2.931   4.415  15.198 -1.2338 -0.9303 -0.7588
 7949TIP3    H245263   2.878   4.428  15.057 -2.1483  1.6392 -0.2223
 7950TIP3   OH245264   1.070   5.878  15.532  0.4038 -0.2136 -0.6475
 7950TIP3    H145265   0.999   5.917  15.481 -0.4174 -0.9459 -0.0701
 7950TIP3    H245266   1.047   5.896  15.623  0.7455 -0.8234 -0.4398
 7951TIP3   OH245267   6.404   1.727   4.021  0.5146 -0.2846  0.4859
 7951TIP3    H145268   6.347   1.718   4.097 -0.4007  0.6204 -0.0714
 7951TIP3    H245269   6.455   1.806   4.039 -0.0637  0.2212 -0.0560
 7952TIP3   OH245270   4.301   2.349  13.944 -0.5038  0.0406  0.4963
 7952TIP3    H145271   4.228   2.352  14.006  0.2130 -0.0119  1.3654
 7952TIP3    H245272   4.361   2.417  13.975 -0.2396  0.1666 -0.2828
 7953TIP3   OH245273   6.693   6.492   3.958 -0.5201 -0.1851  0.3713
 7953TIP3    H145274   6.691   6.551   4.034 -1.1787  0.2847  0.0002
 7953TIP3    H245275   6.724   6.547   3.886 -0.3500 -0.5115  0.1921
 7954TIP3   OH245276   6.212   0.209  15.443  0.1614 -0.4081 -0.1418
 7954TIP3    H145277   6.230   0.127  15.397  0.6961  0.6154 -1.8579
 7954TIP3    H245278   6.179   0.267  15.375  0.4385  1.0161  0.9013
 7955TIP3   OH245279   2.250   0.774  14.186  0.6870 -0.1980  0.4799
 7955TIP3    H145280   2.285   0.859  14.159 -1.1105  0.6600  0.7197
 7955TIP3    H245281   2.321   0.733  14.236  1.9223  0.7328 -0.4707
 7956TIP3   OH245282   4.755   5.094   4.204  0.1972  0.3491  0.1494
 7956TIP3    H145283   4.768   5.120   4.295  0.8151  0.8123 -0.0698
 7956TIP3    H245284   4.685   5.151   4.173 -0.1199  0.0883  0.3695
 7957TIP3   OH245285   2.769   2.235   4.281 -0.2209  0.4662  0.7310
 7957TIP3    H145286   2.784   2.181   4.204  1.5085 -0.3888  1.6182
 7957TIP3    H245287   2.815   2.317   4.262 -0.3751  0.5197  0.5830
 7958TIP3   OH245288   3.284   1.952  11.931  0.4380  0.5469  0.2435
 7958TIP3    H145289   3.230   2.028  11.954 -0.1740  0.1800  0.0551
 7958TIP3    H245290   3.330   1.978  11.852 -1.0678  0.1392 -0.8103
 7959TIP3   OH245291   1.868   2.068  15.219  0.0751  0.8827  0.1124
 7959TIP3    H145292   1.838   1.985  15.182  0.3036  1.3132 -1.0865
 7959TIP3    H245293   1.878   2.051  15.313 -0.1833 -0.3493 -0.0731
 7960TIP3   OH245294   3.388   2.762   0.099 -0.4849 -0.3823 -0.5820
 7960TIP3    H145295   3.472   2.805   0.082 -1.0930  1.3078  0.4579
 7960TIP3    H245296   3.405   2.669   0.082  0.8720  0.2208 -3.0294
 7961TIP3   OH245297   4.284   5.309  14.792  0.0155  0.6169  0.4073
 7961TIP3    H145298   4.308   5.255  14.867  1.1537  1.1748  0.4788
 7961TIP3    H245299   4.234   5.381  14.829 -0.8749  0.0114  0.4047
 7962TIP3   OH245300   4.993   2.810   1.067 -0.5172  0.2155 -0.0637
 7962TIP3    H145301   5.088   2.822   1.066 -0.5182  0.2314  0.0114
 7962TIP3    H245302   4.957   2.898   1.072 -0.5259  0.1882  0.4573
 7963TIP3   OH245303   2.056   0.448  15.976 -0.4343  0.4261  0.5228
 7963TIP3    H145304   1.985   0.510  15.960  0.6142  2.0868  2.0256
 7963TIP3    H245305   2.136   0.499  15.965  0.4962 -0.9477  0.6689
 7964TIP3   OH245306   2.196   1.323   0.221 -0.6578 -0.2974 -0.1459
 7964TIP3    H145307   2.291   1.318   0.230 -0.7774 -1.2258  0.7132
 7964TIP3    H245308   2.183   1.382   0.147  0.6020 -1.1031 -1.0439
 7965TIP3   OH245309   0.266   4.734  14.433  0.0656  0.4928  0.0766
 7965TIP3    H145310   0.172   4.745  14.446  0.1423  0.4588  0.6917
 7965TIP3    H245311   0.274   4.657  14.378 -0.2734  0.5683 -0.0788
 7966TIP3   OH245312   0.674   2.937  16.488 -0.2744 -0.2387 -0.6354
 7966TIP3    H145313   0.738   3.004  16.464  0.4523 -1.1236 -1.2233
 7966TIP3    H245314   0.674   2.938  16.584  0.0463  0.2989 -0.6341
 7967TIP3   OH245315   3.681   6.383  15.822 -0.1483  0.6351 -0.1445
 7967TIP3    H145316   3.715   6.304  15.781  0.0778  0.2479  0.7467
 7967TIP3    H245317   3.607   6.409  15.768  0.6048  0.6058 -1.2314
 7968TIP3   OH245318   5.236   5.428   0.122 -0.7182 -0.1070  0.1696
 7968TIP3    H145319   5.293   5.468   0.189  0.0350 -1.9644  0.6899
 7968TIP3    H245320   5.252   5.480   0.043  2.2217 -0.9054  0.1197
 7969TIP3   OH245321   5.530   1.984   6.223  0.3647  0.3182 -0.0225
 7969TIP3    H145322   5.525   2.047   6.294  2.9928  1.3662 -0.6578
 7969TIP3    H245323   5.561   1.903   6.264  0.3744  0.4592  0.2475
 7970TIP3   OH245324   3.850   5.588   5.509  0.0003  0.0769 -0.0665
 7970TIP3    H145325   3.929   5.621   5.466 -2.5575  4.1848 -2.2118
 7970TIP3    H245326   3.843   5.641   5.589 -1.7858  1.7179 -1.2178
 7971TIP3   OH245327   0.482   5.462  12.802  0.2185  0.6475  0.2497
 7971TIP3    H145328   0.424   5.396  12.765  1.9868 -1.1643  0.5132
 7971TIP3    H245329   0.488   5.530  12.735  0.1494 -0.6032 -1.0570
 7972TIP3   OH245330   1.132   3.416  14.814  0.5469 -0.5008  0.1070
 7972TIP3    H145331   1.106   3.459  14.733  0.5190 -0.0747  0.3398
 7972TIP3    H245332   1.227   3.411  14.809  0.7144  1.2567  0.8923
 7973TIP3   OH245333   0.149   5.620   6.322  0.2767  0.6947 -0.5728
 7973TIP3    H145334   0.089   5.693   6.305 -1.4329 -0.7130 -0.8633
 7973TIP3    H245335   0.112   5.577   6.399 -0.0912 -1.1741 -1.7276
 7974TIP3   OH245336   1.758   1.576  11.824  0.0497  0.4166 -0.3359
 7974TIP3    H145337   1.837   1.621  11.793  0.6913 -0.3271  0.2066
 7974TIP3    H245338   1.788   1.518  11.894 -0.5073 -1.8717 -1.8760
 7975TIP3   OH245339   4.854   3.940   0.196  0.1751  0.4799 -0.0742
 7975TIP3    H145340   4.918   3.910   0.259  0.2294  0.7392 -0.0030
 7975TIP3    H245341   4.905   3.960   0.117  0.4174  2.1291  0.4561
 7976TIP3   OH245342   3.453   2.930  15.335  0.0204 -0.0342  0.0252
 7976TIP3    H145343   3.524   2.968  15.386 -1.2288  0.8401  1.2008
 7976TIP3    H245344   3.415   2.864  15.393 -0.0547 -0.5945 -0.6442
 7977TIP3   OH245345   3.243   6.105  13.636 -0.0161 -0.2616  0.1182
 7977TIP3    H145346   3.285   6.061  13.561 -1.0189 -0.4863 -0.3238
 7977TIP3    H245347   3.223   6.193  13.604  0.0772 -0.1668  0.3174
 7978TIP3   OH245348   5.825   2.715  15.165  0.2510 -0.0137  0.0766
 7978TIP3    H145349   5.823   2.690  15.258 -0.7782 -0.4619 -0.0554
 7978TIP3    H245350   5.830   2.633  15.118  2.6565  0.2501 -0.2758
 7979TIP3   OH245351   1.220   5.888  11.179 -0.0666  0.0857 -0.1654
 7979TIP3    H145352   1.275   5.916  11.106  0.3978  0.1879  0.2239
 7979TIP3    H245353   1.256   5.804  11.206  1.4534  1.2335  1.6465
 7980TIP3   OH245354   5.015   1.735   1.763 -0.0709  0.4903 -0.0634
 7980TIP3    H145355   5.001   1.685   1.682 -0.5472 -0.0122  0.3212
 7980TIP3    H245356   4.940   1.795   1.767  0.9830  1.9479 -1.0144
 7981TIP3   OH245357   3.945   4.749  17.293 -0.1909  0.6035 -0.1565
 7981TIP3    H145358   3.929   4.655  17.284  0.3697  0.5407 -0.5178
 7981TIP3    H245359   3.874   4.790  17.243  0.0644  0.3494 -0.7359
 7982TIP3   OH245360   2.427   0.920  12.137  0.5332  0.2664  0.1510
 7982TIP3    H145361   2.455   0.997  12.087 -0.0630  0.3476 -0.0622
 7982TIP3    H245362   2.334   0.935  12.154  0.1696 -0.8402 -0.7219
 7983TIP3   OH245363   2.475   3.072   2.142  0.3830 -0.3046 -0.2444
 7983TIP3    H145364   2.415   3.002   2.116  0.2953 -0.2270 -0.2523
 7983TIP3    H245365   2.558   3.028   2.157 -0.1445 -0.7297  1.7091
 7984TIP3   OH245366   6.251   5.449   5.048  0.2204  0.1061  0.7696
 7984TIP3    H145367   6.343   5.421   5.046  0.1690 -0.1956 -1.8630
 7984TIP3    H245368   6.255   5.544   5.058  0.9970  0.3620 -1.4340
 7985TIP3   OH245369   0.915   6.710  15.709 -0.0181 -0.0883  0.2843
 7985TIP3    H145370   0.889   6.688  15.620  0.3037  0.2583  0.1034
 7985TIP3    H245371   0.984   6.647  15.730 -0.4032 -0.4525  0.4487
 7986TIP3   OH245372   6.171   3.155   5.678 -0.2443  0.0937 -0.6199
 7986TIP3    H145373   6.153   3.139   5.770 -1.1484  0.7079 -0.6727
 7986TIP3    H245374   6.135   3.078   5.633 -4.3345  1.8720 -0.8507
 7987TIP3   OH245375   3.715   3.781   3.634 -0.6651  0.5711  0.1282
 7987TIP3    H145376   3.724   3.687   3.617 -1.5601  0.7070 -1.2781
 7987TIP3    H245377   3.636   3.806   3.585 -0.6805  1.9732  0.8355
 7988TIP3   OH245378   3.529   5.102  14.596  0.1312 -0.3707  0.0307
 7988TIP3    H145379   3.590   5.075  14.664 -0.1007  0.4723  0.5783
 7988TIP3    H245380   3.446   5.117  14.642  0.3871  1.8350 -0.1192
 7989TIP3   OH245381   3.796   4.795  13.701 -0.2494  0.5916  0.0228
 7989TIP3    H145382   3.861   4.733  13.736 -1.6069 -0.4177  0.8490
 7989TIP3    H245383   3.838   4.832  13.623 -0.1933 -3.0731 -1.9214
 7990TIP3   OH245384   1.634   3.477   4.202 -0.1110  0.0269  0.4820
 7990TIP3    H145385   1.724   3.450   4.217 -0.4831 -1.3305  0.4051
 7990TIP3    H245386   1.622   3.554   4.259  1.2530  0.6033  0.0356
 7991TIP3   OH245387   4.402   6.197  13.523 -0.0580  0.1979  0.4162
 7991TIP3    H145388   4.410   6.124  13.462  0.5620  0.9786 -0.4753
 7991TIP3    H245389   4.446   6.270  13.478  0.2599  0.8386  1.7190
 7992TIP3   OH245390   3.220   1.311   2.485 -0.3213 -0.0094  0.3426
 7992TIP3    H145391   3.234   1.218   2.470 -2.2045 -0.8453  3.0054
 7992TIP3    H245392   3.126   1.324   2.472 -0.2048  1.3515  0.7058
 7993TIP3   OH245393   5.478   1.125   4.356 -0.1575  0.0938 -0.1572
 7993TIP3    H145394   5.474   1.032   4.335  0.2781 -0.0228  0.2452
 7993TIP3    H245395   5.422   1.135   4.432  1.3171 -0.2135  1.0121
 7994TIP3   OH245396   3.014   3.903  11.821  0.0608 -0.1113 -0.1104
 7994TIP3    H145397   2.933   3.854  11.835 -0.0209 -0.0069 -0.2144
 7994TIP3    H245398   3.026   3.901  11.726 -0.7269  1.3236 -0.2640
 7995TIP3   OH245399   3.775   4.547   4.735  0.3549 -0.5778  0.1806
 7995TIP3    H145400   3.757   4.587   4.820  0.0932  0.4066 -0.3295
 7995TIP3    H245401   3.688   4.531   4.697  0.3651  3.0304 -1.7500
 7996TIP3   OH245402   4.503   2.053   5.632 -0.1462  0.4527 -0.2863
 7996TIP3    H145403   4.593   2.079   5.653  0.2848 -0.4260 -0.9464
 7996TIP3    H245404   4.480   2.104   5.555 -0.2547  0.7580 -0.0518
 7997TIP3   OH245405   5.604   5.183   3.499  0.0916  0.3697  0.1842
 7997TIP3    H145406   5.566   5.230   3.574 -0.4790 -0.3929  0.3953
 7997TIP3    H245407   5.685   5.229   3.480 -0.1144  1.0160  0.8165
 7998TIP3   OH245408   2.578   6.747   3.095 -0.2027 -0.1195  0.3996
 7998TIP3    H145409   2.576   6.670   3.152 -2.1026 -1.3049 -1.1534
 7998TIP3    H245410   2.636   6.722   3.023  0.6421  0.6453  0.7851
 7999TIP3   OH245411   2.391   2.874   0.364  0.4112  0.5673 -0.1496
 7999TIP3    H145412   2.375   2.927   0.286 -0.6256  1.2158  0.4737
 7999TIP3    H245413   2.419   2.937   0.430  0.8322  0.0898  0.1331
 8000TIP3   OH245414   4.138   2.875  16.207 -0.1740 -0.0339 -0.1803
 8000TIP3    H145415   4.077   2.802  16.198 -0.9600  0.7292 -1.5158
 8000TIP3    H245416   4.140   2.894  16.300  2.7848 -3.9711  0.8042
 8001TIP3   OH245417   3.454   5.761   1.139  0.1259 -0.3664 -0.4064
 8001TIP3    H145418   3.533   5.755   1.193  0.3444 -2.2427 -0.8446
 8001TIP3    H245419   3.474   5.829   1.074  0.9292 -0.0257  0.1828
 8002TIP3   OH245420   3.883   6.609  12.304  0.4679 -0.7109 -0.2292
 8002TIP3    H145421   3.956   6.607  12.366 -0.1394  1.3763  0.6352
 8002TIP3    H245422   3.881   6.699  12.272 -1.5784 -0.7647 -0.3835
 8003TIP3   OH245423   2.112   0.506   0.014  0.2385 -0.4617  0.0555
 8003TIP3    H145424   2.031   0.463  -0.015 -0.8409  2.2302 -1.3861
 8003TIP3    H245425   2.099   0.520   0.107 -1.5721  0.8707 -0.3188
 8004TIP3   OH245426   0.283   0.915  14.900 -0.1696  0.3426 -0.7105
 8004TIP3    H145427   0.213   0.921  14.965  1.7296  0.5401  1.4566
 8004TIP3    H245428   0.291   1.004  14.865 -0.6336  0.4408 -0.5711
 8005TIP3   OH245429   2.691   0.830   0.928  0.1609 -0.1353 -0.3005
 8005TIP3    H145430   2.750   0.755   0.915 -0.5075 -0.8521  0.6781
 8005TIP3    H245431   2.748   0.900   0.959  0.5400 -0.7716  0.4812
 8006TIP3   OH245432   6.528   2.389  14.864  0.1539  0.1068  0.0153
 8006TIP3    H145433   6.595   2.378  14.797  0.1652 -0.4200  0.1091
 8006TIP3    H245434   6.466   2.451  14.826 -0.7910 -1.5220 -1.2294
 8007TIP3   OH245435   6.625   0.782   3.019  0.2310  0.0066 -0.5150
 8007TIP3    H145436   6.579   0.726   2.956  1.9643 -0.0461 -1.7944
 8007TIP3    H245437   6.705   0.808   2.974  0.5504  1.6698  0.9194
 8008TIP3   OH245438   5.832   2.724  13.889  0.7051  0.0236  0.2933
 8008TIP3    H145439   5.772   2.656  13.861 -0.9455  0.3060  2.8559
 8008TIP3    H245440   5.831   2.788  13.817 -0.9705 -0.6647 -0.3429
 8009TIP3   OH245441   4.590   4.814   5.139 -0.3431  0.8780  0.8481
 8009TIP3    H145442   4.540   4.736   5.116 -0.4211  1.2392 -0.2989
 8009TIP3    H245443   4.546   4.885   5.093  0.0228  1.5233  1.4750
 8010TIP3   OH245444   6.570   0.508  14.912 -0.0020  0.1243  0.0166
 8010TIP3    H145445   6.538   0.502  14.822  1.2591  0.9774 -0.5230
 8010TIP3    H245446   6.601   0.420  14.933  1.2610  0.2795 -1.0389
 8011TIP3   OH245447   2.854   2.260  16.556 -0.4998 -0.3596 -0.2701
 8011TIP3    H145448   2.834   2.292  16.643  0.9516  0.5416 -0.2410
 8011TIP3    H245449   2.932   2.205  16.568  1.2079  1.7043 -1.2839
 8012TIP3   OH245450   1.588   0.849  14.648  0.1313  0.1962 -0.2411
 8012TIP3    H145451   1.630   0.841  14.563 -0.3268  0.3668 -0.4888
 8012TIP3    H245452   1.606   0.766  14.692 -0.8982 -0.5066 -1.0920
 8013TIP3   OH245453   6.636   1.605  12.661 -0.2236 -0.1020 -0.3845
 8013TIP3    H145454   6.718   1.603  12.711  0.0288 -0.0808 -0.7968
 8013TIP3    H245455   6.627   1.696  12.634  0.4210 -0.3887 -1.6517
 8014TIP3   OH245456   1.884   5.232   3.499  0.0137  0.1342  0.8349
 8014TIP3    H145457   1.816   5.268   3.442  0.0145  1.0143  1.3640
 8014TIP3    H245458   1.948   5.304   3.507 -0.6483  0.5445  3.0307
 8015TIP3   OH245459   4.025   5.524  11.508  0.2969 -0.4039  0.0725
 8015TIP3    H145460   3.978   5.607  11.505  1.0273  0.0298  0.4446
 8015TIP3    H245461   3.997   5.477  11.429  1.9239  1.2983 -1.5929
 8016TIP3   OH245462   6.030   4.093  16.216 -0.4967  0.0643 -0.1354
 8016TIP3    H145463   5.998   4.174  16.175 -1.8415 -1.1772 -1.6975
 8016TIP3    H245464   6.101   4.064  16.159 -0.9363 -0.5461 -0.3887
 8017TIP3   OH245465   2.207   1.054   2.273 -0.0506  0.2640 -0.1937
 8017TIP3    H145466   2.271   1.030   2.206  0.3544  1.3592 -0.2079
 8017TIP3    H245467   2.123   1.045   2.229  0.1415 -0.2331 -0.4704
 8018TIP3   OH245468   2.949   5.614  10.948 -0.2982  0.3806  0.5379
 8018TIP3    H145469   3.041   5.642  10.949 -0.3870  0.6816  0.4554
 8018TIP3    H245470   2.903   5.680  10.999 -0.5943  0.6865 -0.1155
 8019TIP3   OH245471   2.289   3.883   2.994  0.1066 -0.5774 -0.2919
 8019TIP3    H145472   2.248   3.947   3.053 -0.4335  0.0868 -1.3511
 8019TIP3    H245473   2.218   3.857   2.935  0.3972 -1.9489 -0.0557
 8020TIP3   OH245474   1.148   3.549  16.761  0.6166  0.0329 -0.2696
 8020TIP3    H145475   1.175   3.476  16.818 -1.7542 -0.6228  0.1310
 8020TIP3    H245476   1.228   3.601  16.750  1.5276 -0.5345  2.5793
 8021TIP3   OH245477   1.811   4.604   0.260  0.0570  0.4661 -0.7908
 8021TIP3    H145478   1.796   4.517   0.296  1.2473  0.4991 -0.1598
 8021TIP3    H245479   1.892   4.633   0.301 -0.5626  2.0705 -0.6378
 8022TIP3   OH245480   5.071   4.638  17.368  0.6425 -0.0517  0.2294
 8022TIP3    H145481   4.999   4.678  17.417 -0.1812 -2.4478  1.1031
 8022TIP3    H245482   5.075   4.688  17.287 -0.8869  1.2224  0.8795
 8023TIP3   OH245483   3.225   4.520  11.356 -0.2609  0.2633  0.2601
 8023TIP3    H145484   3.278   4.443  11.375  0.6379  1.3820  2.7032
 8023TIP3    H245485   3.269   4.563  11.283  0.4219 -0.4363  0.2520
 8024TIP3   OH245486   0.465   2.516  16.365 -0.2857  0.1872  0.0312
 8024TIP3    H145487   0.525   2.535  16.437 -0.5174 -0.9986  0.5601
 8024TIP3    H245488   0.513   2.541  16.286  0.5087  0.2037  0.5146
 8025TIP3   OH245489   1.153   5.250   0.925 -0.0018  0.2980 -0.1196
 8025TIP3    H145490   1.143   5.181   0.859 -0.7264  0.7987 -0.5465
 8025TIP3    H245491   1.247   5.248   0.947  0.2932  0.2536 -1.3049
 8026TIP3   OH245492   0.503   6.259   4.822  0.0850  0.6106 -0.1719
 8026TIP3    H145493   0.591   6.231   4.849  0.3441  2.1356  0.6966
 8026TIP3    H245494   0.447   6.184   4.841  0.7968  0.5147  1.7408
 8027TIP3   OH245495   1.882   0.504  11.721 -0.1764 -0.6633 -0.4263
 8027TIP3    H145496   1.881   0.595  11.690  1.2706 -0.7906 -0.9410
 8027TIP3    H245497   1.907   0.453  11.643  0.9323 -1.2807  0.3031
 8028TIP3   OH245498   6.606   0.579   3.561 -0.3375 -0.0423  0.2781
 8028TIP3    H145499   6.649   0.493   3.553  1.6826  0.8072  1.1509
 8028TIP3    H245500   6.547   0.583   3.487  0.2663 -1.7931 -0.3623
 8029TIP3   OH245501   0.891   5.858  11.756 -0.3711 -0.0326  0.0042
 8029TIP3    H145502   0.880   5.951  11.774 -1.4437 -0.2167  0.3347
 8029TIP3    H245503   0.850   5.845  11.670 -0.5175 -0.2591  0.1068
 8030TIP3   OH245504   1.085   3.291  13.740  0.3570 -0.5190 -0.4274
 8030TIP3    H145505   0.997   3.327  13.744  0.0251 -1.0714 -2.0375
 8030TIP3    H245506   1.075   3.202  13.773  0.5198 -0.2606  0.3366
 8031TIP3   OH245507   2.873   6.276   2.801  0.7411  0.6086  0.4104
 8031TIP3    H145508   2.959   6.252   2.765  0.4705  0.7228 -0.3216
 8031TIP3    H245509   2.869   6.371   2.792 -0.0008  0.4847 -0.8061
 8032TIP3   OH245510   4.895   1.771   4.879  0.3034  0.6816  0.0401
 8032TIP3    H145511   4.904   1.838   4.811  1.0418  0.9743  0.4065
 8032TIP3    H245512   4.806   1.738   4.869  0.3532  0.8116 -0.9762
 8033TIP3   OH245513   3.951   1.015   6.400  0.5310 -0.0605 -0.5307
 8033TIP3    H145514   4.036   1.008   6.443  0.8759 -1.5032 -1.3836
 8033TIP3    H245515   3.921   0.925   6.391 -0.4384  0.3395 -1.5182
 8034TIP3   OH245516   5.621   1.661   3.197 -0.8957 -0.7057 -0.0320
 8034TIP3    H145517   5.664   1.607   3.263 -2.6785  0.1525  1.9607
 8034TIP3    H245518   5.603   1.744   3.242  0.6359  1.1786 -2.5925
 8035TIP3   OH245519   2.972   1.109  12.017 -0.2800  0.7511  0.7695
 8035TIP3    H145520   2.882   1.096  12.045 -1.2485 -2.1906 -2.8166
 8035TIP3    H245521   2.976   1.068  11.930  4.9792 -1.0065  1.4598
 8036TIP3   OH245522   1.927   3.026  14.970  0.0477  0.2650 -0.1981
 8036TIP3    H145523   2.022   3.021  14.983  0.0463  0.9540  0.1169
 8036TIP3    H245524   1.891   2.967  15.036  0.2492  0.1147 -0.2211
 8037TIP3   OH245525   1.085   3.738  15.152  0.2228 -0.2474 -0.2789
 8037TIP3    H145526   1.090   3.731  15.248 -0.0815  0.1832 -0.2277
 8037TIP3    H245527   0.993   3.760  15.135  0.6253  1.3421 -0.5548
 8038TIP3   OH245528   4.336   4.711   1.635 -0.0580  0.1861 -0.5275
 8038TIP3    H145529   4.413   4.748   1.591 -0.6377  0.2098 -1.5562
 8038TIP3    H245530   4.312   4.635   1.581 -0.0825 -0.5002  0.4323
 8039TIP3   OH245531   3.305   3.233   5.429 -0.3261  0.0536  0.2696
 8039TIP3    H145532   3.363   3.284   5.373 -0.4357  1.4640  1.3943
 8039TIP3    H245533   3.302   3.146   5.388  1.1141  0.4849 -0.8205
 8040TIP3   OH245534   1.009   1.797   4.931 -0.1456 -0.5069 -0.7138
 8040TIP3    H145535   1.047   1.851   4.862 -0.3995  0.5570 -0.0435
 8040TIP3    H245536   1.066   1.811   5.007  0.1713 -1.7163 -0.6965
 8041TIP3   OH245537   0.900   4.818   3.962 -0.4677 -0.1346 -0.3206
 8041TIP3    H145538   0.817   4.834   3.916 -0.9182 -0.3044  0.4216
 8041TIP3    H245539   0.874   4.794   4.051  0.3380 -1.3690 -0.4002
 8042TIP3   OH245540   4.864   5.886   6.119 -0.1708 -0.1364 -0.5290
 8042TIP3    H145541   4.937   5.889   6.182  0.1030 -1.5793 -0.7577
 8042TIP3    H245542   4.820   5.971   6.130  0.6167  0.1389  0.7126
 8043TIP3   OH245543   4.276   2.074  15.458  0.3149 -0.0058 -0.6783
 8043TIP3    H145544   4.285   1.984  15.488  3.1142  0.5340  0.3838
 8043TIP3    H245545   4.283   2.069  15.363 -1.4033 -1.0220 -0.7968
 8044TIP3   OH245546   1.543   2.253   4.512 -0.2727 -0.7565 -0.3871
 8044TIP3    H145547   1.526   2.308   4.589  0.1654 -0.4455 -0.5048
 8044TIP3    H245548   1.622   2.204   4.535  0.5929  0.2607 -1.1140
 8045TIP3   OH245549   6.761   4.707  13.456  0.0767 -0.1811 -0.0719
 8045TIP3    H145550   6.833   4.694  13.394 -1.0076 -0.8056 -1.2573
 8045TIP3    H245551   6.691   4.747  13.403 -1.4447 -2.1528  0.3395
 8046TIP3   OH245552   6.147   2.219  12.674  0.0993  0.3528  0.0125
 8046TIP3    H145553   6.222   2.199  12.618 -0.7201  1.2027 -1.4312
 8046TIP3    H245554   6.073   2.176  12.632 -0.6991  1.7813 -0.1126
 8047TIP3   OH245555   2.051   1.021  13.143  0.3155  0.2458  0.0110
 8047TIP3    H145556   2.091   0.944  13.103 -0.4121  0.2132 -0.6890
 8047TIP3    H245557   1.966   0.990  13.175 -0.5437  1.0122 -1.4067
 8048TIP3   OH245558   2.349   1.282  15.406 -0.4774 -0.1176  0.4242
 8048TIP3    H145559   2.343   1.285  15.501 -0.7165  0.8723  0.3913
 8048TIP3    H245560   2.367   1.373  15.380 -1.4971 -0.1625 -0.5354
 8049TIP3   OH245561   1.496   5.970  13.346 -0.1850 -0.1229 -0.3310
 8049TIP3    H145562   1.429   6.036  13.362 -0.4020 -0.5317  0.4567
 8049TIP3    H245563   1.554   6.010  13.281 -0.8430  0.4675 -0.5606
 8050TIP3   OH245564   4.110   3.292   5.195 -0.2141  0.5178  0.1535
 8050TIP3    H145565   4.081   3.264   5.108  1.6907 -0.3109 -0.2649
 8050TIP3    H245566   4.091   3.217   5.251 -1.5829  1.1092  0.5226
 8051TIP3   OH245567   1.351   3.522   5.207  0.3101  0.0006  0.3141
 8051TIP3    H145568   1.379   3.440   5.167 -2.5446 -0.2504 -1.4785
 8051TIP3    H245569   1.263   3.503   5.241  0.3731  1.8184  1.6515
 8052TIP3   OH245570   1.052   5.509  14.818 -0.1672 -0.3260 -0.1117
 8052TIP3    H145571   1.097   5.468  14.892  0.7054  1.2475  0.2892
 8052TIP3    H245572   1.024   5.594  14.852 -1.0298 -0.1701 -1.1837
 8053TIP3   OH245573   5.956   6.086  12.900  0.5099  0.3870 -0.1989
 8053TIP3    H145574   5.991   6.056  12.984  0.2992  2.1103  0.5545
 8053TIP3    H245575   5.864   6.103  12.916 -0.3329 -2.2891 -1.6702
 8054TIP3   OH245576   4.991   2.675   3.748 -0.7604  0.2808 -0.2242
 8054TIP3    H145577   5.007   2.581   3.761 -0.9525  0.2959  0.1268
 8054TIP3    H245578   5.072   2.708   3.711  0.2022  0.4310  1.8923
 8055TIP3   OH245579   3.562   6.103   4.263 -0.5621  0.1123  0.1704
 8055TIP3    H145580   3.607   6.100   4.347 -1.2195 -3.2068  0.5407
 8055TIP3    H245581   3.469   6.107   4.285 -0.7329 -0.5570 -0.3967
 8056TIP3   OH245582   0.880   3.762  14.907  0.2362  0.4095 -0.5343
 8056TIP3    H145583   0.944   3.832  14.917  1.1313 -0.4831  0.2346
 8056TIP3    H245584   0.893   3.731  14.817  0.7814  0.3366 -0.4348
 8057TIP3   OH245585   6.761   1.100   3.340 -0.0857  0.4324  0.4646
 8057TIP3    H145586   6.739   1.007   3.347  0.0035  0.3894  0.1644
 8057TIP3    H245587   6.852   1.105   3.367 -0.4995  0.6368  1.8912
 8058TIP3   OH245588   3.095   1.466   1.717 -0.1217  0.0107 -0.4080
 8058TIP3    H145589   3.154   1.530   1.677  0.1502  0.5386  0.7888
 8058TIP3    H245590   3.011   1.511   1.721  0.2520  0.6090  1.1472
 8059TIP3   OH245591   0.591   1.424   1.379 -0.2008  0.3752 -0.1822
 8059TIP3    H145592   0.680   1.431   1.414  0.6973 -0.0010 -2.2106
 8059TIP3    H245593   0.597   1.355   1.312 -0.7127  3.5676 -3.8874
 8060TIP3   OH245594   1.363   2.992   1.408 -0.3321 -0.8242  0.1098
 8060TIP3    H145595   1.304   3.049   1.359 -0.2071  1.7258  2.6379
 8060TIP3    H245596   1.447   3.000   1.364 -0.9883 -1.4751 -1.3152
 8061TIP3   OH245597   5.031   3.223   0.866 -0.2766 -0.5532  0.4115
 8061TIP3    H145598   5.055   3.134   0.890 -0.3889 -0.1374  2.2016
 8061TIP3    H245599   5.114   3.268   0.853 -0.1727 -0.4498  1.3879
 8062TIP3   OH245600   3.596   2.212  14.447 -0.2931  0.3780  0.0389
 8062TIP3    H145601   3.589   2.300  14.410  0.5387  0.3215 -0.2902
 8062TIP3    H245602   3.676   2.215  14.500 -0.5176 -0.0433  0.4056
 8063TIP3   OH245603   4.118   3.225   6.834 -0.5412 -0.0372  0.5673
 8063TIP3    H145604   4.146   3.281   6.906 -1.4791  0.1960  0.7592
 8063TIP3    H245605   4.033   3.259   6.808 -0.2237 -0.1241 -0.6578
 8064TIP3   OH245606   1.682   0.112  11.186  0.7564  0.0476 -0.1631
 8064TIP3    H145607   1.722   0.114  11.099  0.5645  0.2474 -0.2494
 8064TIP3    H245608   1.748   0.150  11.243  0.7336  0.2854 -0.2896
 8065TIP3   OH245609   2.180   6.256   3.048  0.3016  0.4282 -0.5278
 8065TIP3    H145610   2.212   6.166   3.048  1.2951  0.7518 -1.3667
 8065TIP3    H245611   2.092   6.251   3.013 -0.2067 -0.3727  0.7975
 8066TIP3   OH245612   4.006   1.125  12.234 -0.0468  0.4526 -0.6263
 8066TIP3    H145613   4.101   1.118  12.244  0.1835  2.5981 -0.9958
 8066TIP3    H245614   3.990   1.097  12.144  0.5193  2.1012 -1.2710
 8067TIP3   OH245615   4.559   5.289  16.009  0.5134 -0.2162 -0.0660
 8067TIP3    H145616   4.585   5.224  15.944  1.1459 -1.2619  1.1815
 8067TIP3    H245617   4.563   5.242  16.093  1.7099  1.5983  0.9729
 8068TIP3   OH245618   5.847   2.452   5.076 -0.0411 -0.2083 -0.0827
 8068TIP3    H145619   5.836   2.519   5.143  1.2311 -0.6771  0.6185
 8068TIP3    H245620   5.844   2.369   5.124  3.8217 -0.5010 -0.0765
 8069TIP3   OH245621   0.383   0.642   4.703  0.2980  0.3087 -0.2450
 8069TIP3    H145622   0.334   0.567   4.736  3.4927 -1.9421 -0.0529
 8069TIP3    H245623   0.384   0.630   4.608 -0.3855  0.9263 -0.3284
 8070TIP3   OH245624   5.855   3.704  16.401  0.5285  0.3320  0.3849
 8070TIP3    H145625   5.880   3.796  16.392  0.1645  0.4315  0.3778
 8070TIP3    H245626   5.918   3.657  16.346 -0.7222  0.8050 -1.5619
 8071TIP3   OH245627   5.108   5.443   5.653 -0.3706 -0.2597  0.5294
 8071TIP3    H145628   5.147   5.530   5.644 -1.4042  0.4109  2.0217
 8071TIP3    H245629   5.182   5.385   5.669  0.3196  0.3705 -0.3156
 8072TIP3   OH245630   3.009   4.471   2.384 -0.2804 -0.4629 -0.2055
 8072TIP3    H145631   3.003   4.485   2.290 -1.1087 -1.5244 -0.3295
 8072TIP3    H245632   2.992   4.377   2.396  2.4198 -0.9302  0.7742
 8073TIP3   OH245633   0.534   4.730   0.559  0.2307  0.1569 -0.0924
 8073TIP3    H145634   0.597   4.798   0.582 -0.0362 -0.4246  2.6898
 8073TIP3    H245635   0.586   4.649   0.555 -0.0965 -0.1077  0.8324
 8074TIP3   OH245636   6.722   6.639   5.358  0.1859 -0.1424  0.2175
 8074TIP3    H145637   6.704   6.702   5.428  0.6966  1.0369 -0.6582
 8074TIP3    H245638   6.816   6.622   5.365  0.3469  0.3984 -0.4880
 8075TIP3   OH245639   0.848   3.757  16.036 -0.9095 -0.1854  0.1030
 8075TIP3    H145640   0.872   3.668  16.010  0.3899  0.5717 -1.3991
 8075TIP3    H245641   0.920   3.786  16.093 -0.7236  0.3326 -0.3902
 8076TIP3   OH245642   0.745   0.324   1.152 -0.3532 -0.0403 -0.0847
 8076TIP3    H145643   0.838   0.341   1.169 -0.0985 -0.5646 -0.9120
 8076TIP3    H245644   0.725   0.247   1.205 -0.3992  0.2436  0.3187
 8077TIP3   OH245645   6.673   2.248  13.938  0.2016  0.1400  0.8139
 8077TIP3    H145646   6.763   2.218  13.924  0.5121  1.4119 -0.0239
 8077TIP3    H245647   6.649   2.292  13.857 -0.4941  1.5187  1.7399
 8078TIP3   OH245648   5.838   4.037  14.433  0.3113  0.2789 -0.2324
 8078TIP3    H145649   5.863   4.048  14.341  1.2989  1.0389  0.1163
 8078TIP3    H245650   5.914   4.067  14.483  0.7826 -2.4307  0.8503
 8079TIP3   OH245651   0.387   2.093  12.793 -0.3601 -0.1565 -0.0683
 8079TIP3    H145652   0.409   2.177  12.753 -1.5252 -0.2771 -0.9840
 8079TIP3    H245653   0.464   2.038  12.776 -0.4326  0.0956 -1.2741
 8080TIP3   OH245654   4.737   4.605  14.299  0.0861 -0.1590 -0.0279
 8080TIP3    H145655   4.714   4.643  14.384  0.8090  0.5003 -0.1110
 8080TIP3    H245656   4.656   4.564  14.268 -0.2556 -0.1644  0.8486
 8081TIP3   OH245657   1.109   2.431  14.554  0.1615 -0.4306 -0.4454
 8081TIP3    H145658   1.137   2.368  14.620 -0.3799  0.9889  1.1916
 8081TIP3    H245659   1.060   2.497  14.602 -1.8895 -0.3096 -2.5284
 8082TIP3   OH245660   6.168   4.862  17.328 -0.3038  0.2912  0.0335
 8082TIP3    H145661   6.218   4.925  17.381 -0.9495 -0.0652  1.1027
 8082TIP3    H245662   6.142   4.912  17.250  3.1952  0.0070 -1.5035
 8083TIP3   OH245663   4.977   0.930   6.053  0.3632 -0.0559 -0.2675
 8083TIP3    H145664   4.887   0.904   6.075 -0.2245  0.3855 -2.0261
 8083TIP3    H245665   5.026   0.848   6.054  0.0975 -0.2269  1.2842
 8084TIP3   OH245666   2.653   3.170   0.715  0.0152 -0.2944 -0.1182
 8084TIP3    H145667   2.710   3.117   0.659 -0.7363 -0.4425 -0.7465
 8084TIP3    H245668   2.700   3.175   0.799  0.0784 -1.9945 -0.0284
 8085TIP3   OH245669   6.648   4.352  14.172  0.2501  0.0544  0.5170
 8085TIP3    H145670   6.572   4.343  14.114 -0.5184  2.0391  1.1389
 8085TIP3    H245671   6.723   4.345  14.114 -0.4893  1.4689 -0.6808
 8086TIP3   OH245672   1.421   1.958  11.983 -0.1749 -0.1917  0.2432
 8086TIP3    H145673   1.515   1.959  11.963  0.7433  0.1441  3.9254
 8086TIP3    H245674   1.395   1.867  11.971  0.2485 -0.0701 -2.0211
 8087TIP3   OH245675   2.197   2.410   6.595  0.5410  0.6135 -0.0947
 8087TIP3    H145676   2.210   2.339   6.532 -1.3540  1.5678 -1.6796
 8087TIP3    H245677   2.179   2.366   6.678 -1.1416 -0.8241 -1.1533
 8088TIP3   OH245678   0.796   1.232  11.841 -0.1362 -0.4148  0.6128
 8088TIP3    H145679   0.888   1.259  11.834 -0.2188 -0.4003 -0.5227
 8088TIP3    H245680   0.801   1.138  11.861  0.1295 -0.5217  0.0641
 8089TIP3   OH245681   5.540   6.446   3.204 -0.1647 -0.2800  0.4353
 8089TIP3    H145682   5.472   6.382   3.226  0.6286 -0.6375  2.0106
 8089TIP3    H245683   5.620   6.394   3.193 -0.1381  0.1245 -1.5174
 8090TIP3   OH245684   5.752   2.374  16.267 -0.4412  0.4703 -0.7320
 8090TIP3    H145685   5.678   2.393  16.324  1.5856 -0.8683  2.6071
 8090TIP3    H245686   5.731   2.288  16.229 -0.5595  0.0394  0.2904
 8091TIP3   OH245687   0.289   1.273   1.138 -0.5294 -0.0911 -0.6574
 8091TIP3    H145688   0.320   1.190   1.175 -1.9078  0.0663  0.9455
 8091TIP3    H245689   0.196   1.258   1.119 -0.9721  1.2629  0.2776
 8092TIP3   OH245690   5.404   3.425  11.363  0.7063  0.0706 -0.0310
 8092TIP3    H145691   5.393   3.356  11.296  0.3140 -0.3332  0.4356
 8092TIP3    H245692   5.368   3.504  11.322 -0.5853 -0.4226  0.0991
 8093TIP3   OH245693   4.206   6.134  13.959  0.4251  0.3659 -0.2653
 8093TIP3    H145694   4.184   6.042  13.972  0.0053  0.5227  0.1832
 8093TIP3    H245695   4.274   6.134  13.892  0.2976 -0.2578 -0.3973
 8094TIP3   OH245696   2.036   3.517  16.250 -0.2110 -0.2147  0.4498
 8094TIP3    H145697   2.062   3.604  16.280 -1.2086  0.8678 -1.5460
 8094TIP3    H245698   1.975   3.485  16.316 -0.6946  1.1222  0.6741
 8095TIP3   OH245699   5.694   1.663   0.634 -0.0235 -0.8243 -0.0473
 8095TIP3    H145700   5.628   1.723   0.599 -0.9193 -1.5528  0.3592
 8095TIP3    H245701   5.743   1.634   0.558 -1.5433 -1.9052 -0.6787
 8096TIP3   OH245702   4.850   5.580   0.687  0.5291 -0.1876 -0.5060
 8096TIP3    H145703   4.853   5.559   0.780  2.5064  0.5719 -0.3321
 8096TIP3    H245704   4.795   5.658   0.682 -1.5837 -1.5771 -0.3479
 8097TIP3   OH245705   2.629   2.290  11.531 -0.2099 -0.2624 -0.3312
 8097TIP3    H145706   2.560   2.271  11.468 -1.7334  2.3020  0.4274
 8097TIP3    H245707   2.608   2.234  11.607 -0.3409 -0.8405 -0.7839
 8098TIP3   OH245708   5.845   1.071   4.591  0.2170 -0.0977  0.0499
 8098TIP3    H145709   5.809   1.080   4.680  0.2889 -0.0164  0.0711
 8098TIP3    H245710   5.893   1.153   4.577  1.1583 -0.5852  0.3682
 8099TIP3   OH245711   6.641   5.169  11.805 -0.4020  0.3735 -0.2088
 8099TIP3    H145712   6.585   5.092  11.807 -1.1836  0.9432  1.3281
 8099TIP3    H245713   6.707   5.153  11.872  0.1553  0.5249 -0.7117
 8100TIP3   OH245714   3.137   6.516   5.524  0.2018  0.1657 -0.5188
 8100TIP3    H145715   3.125   6.516   5.619 -0.5220 -0.9978 -0.5850
 8100TIP3    H245716   3.116   6.426   5.498  1.3025  0.2197 -1.6691
 8101TIP3   OH245717   4.435   1.552   5.867  0.0551 -0.0789  0.3859
 8101TIP3    H145718   4.427   1.466   5.908 -1.3001  0.1962  0.7564
 8101TIP3    H245719   4.389   1.611   5.927  2.5179  1.2655  1.1005
 8102TIP3   OH245720   2.292   1.207   4.157 -0.0214  0.2959 -0.0152
 8102TIP3    H145721   2.318   1.129   4.108 -1.7171 -0.5451  0.3821
 8102TIP3    H245722   2.225   1.249   4.103  0.8597  1.4969 -0.2210
 8103TIP3   OH245723   3.902   2.851  16.720 -0.8781  0.0289 -0.9342
 8103TIP3    H145724   3.806   2.853  16.719 -0.9282 -1.1563 -0.2683
 8103TIP3    H245725   3.924   2.794  16.793  0.3628  0.8255 -0.6537
 8104TIP3   OH245726   0.098   3.113  12.384  0.3150 -0.4050 -0.5108
 8104TIP3    H145727   0.092   3.020  12.402 -0.0171 -0.3402 -0.2771
 8104TIP3    H245728   0.007   3.143  12.381  0.3939  0.5562  2.8529
 8105TIP3   OH245729   5.953   5.899  11.786  0.3039  0.1763  0.2422
 8105TIP3    H145730   5.894   5.855  11.725  0.9811  0.0377 -0.3332
 8105TIP3    H245731   5.895   5.949  11.844 -0.4089 -0.5488  0.1702
 8106TIP3   OH245732   3.781   0.641   1.066  0.0317  0.5864 -0.1205
 8106TIP3    H145733   3.688   0.648   1.090  0.1770  2.9826  0.0619
 8106TIP3    H245734   3.825   0.614   1.146 -0.3448  1.0908  0.2668
 8107TIP3   OH245735   6.179   5.029   2.472  0.1591 -0.1784  0.2726
 8107TIP3    H145736   6.110   4.962   2.473  0.8135 -0.8600  0.6030
 8107TIP3    H245737   6.147   5.097   2.532  0.0045 -0.7262  0.8224
 8108TIP3   OH245738   2.004   4.271  12.121 -0.0637  0.1836 -0.0142
 8108TIP3    H145739   1.987   4.224  12.203 -1.8409 -0.1149 -0.5128
 8108TIP3    H245740   2.007   4.202  12.054  0.2704  0.5276 -0.3585
 8109TIP3   OH245741   4.596   4.987   5.938  0.1733 -0.2180  0.3525
 8109TIP3    H145742   4.689   4.994   5.920 -0.2413 -0.4711 -2.2644
 8109TIP3    H245743   4.574   4.896   5.919 -0.7539  0.0663 -0.0130
 8110TIP3   OH245744   6.649   6.166   3.358  0.1961  0.3171  0.3782
 8110TIP3    H145745   6.590   6.180   3.432  0.2104  1.3684  0.2168
 8110TIP3    H245746   6.733   6.146   3.398  0.6241  2.5278  0.7514
 8111TIP3   OH245747   5.312   1.408  15.079 -0.0067 -0.2408 -0.3320
 8111TIP3    H145748   5.276   1.433  15.164  1.3395  2.3011 -0.4083
 8111TIP3    H245749   5.407   1.412  15.092  0.2283 -0.9372 -1.6751
 8112TIP3   OH245750   1.083   1.839  12.968 -0.3987  0.0691  0.1395
 8112TIP3    H145751   1.091   1.743  12.970 -2.7578 -0.1889 -0.1045
 8112TIP3    H245752   1.113   1.864  12.881 -1.7626 -0.7151 -0.5839
 8113TIP3   OH245753   6.275   6.206  14.094 -0.6968  0.3457  0.3770
 8113TIP3    H145754   6.202   6.149  14.071  0.5044 -0.4565 -1.7547
 8113TIP3    H245755   6.313   6.231  14.010  1.8122  0.2579  1.3972
 8114TIP3   OH245756   0.401   2.340   5.497  0.0984 -0.3296 -0.2908
 8114TIP3    H145757   0.357   2.420   5.469 -0.3606 -0.3335  0.3754
 8114TIP3    H245758   0.362   2.271   5.444 -0.9033 -0.3665  0.4608
 8115TIP3   OH245759   2.424   2.559   4.276  0.3198  0.1834  0.6263
 8115TIP3    H145760   2.464   2.563   4.363  0.3855  0.1471  0.5973
 8115TIP3    H245761   2.345   2.507   4.289 -0.1845  0.9922  0.8679
 8116TIP3   OH245762   1.123   1.311  16.282 -0.0480  0.1564 -0.3222
 8116TIP3    H145763   1.062   1.379  16.312 -2.2981 -1.8308 -0.0776
 8116TIP3    H245764   1.182   1.298  16.357  0.5865  1.9221 -0.4554
 8117TIP3   OH245765   3.288   6.224   0.033  0.4528 -0.1809  0.8774
 8117TIP3    H145766   3.326   6.141   0.004 -0.9768  0.0989 -2.1490
 8117TIP3    H245767   3.259   6.267  -0.047 -2.5607  1.4096  2.6115
 8118TIP3   OH245768   5.822   0.535   2.993 -0.6792 -0.3212 -0.1149
 8118TIP3    H145769   5.844   0.538   2.900 -2.2302 -1.4900 -0.5446
 8118TIP3    H245770   5.771   0.455   3.004  1.0351 -1.2598  2.1092
 8119TIP3   OH245771   4.160   1.773  13.303 -0.4746 -0.8283  0.4686
 8119TIP3    H145772   4.104   1.810  13.371 -0.9493  0.6302 -0.6626
 8119TIP3    H245773   4.103   1.714  13.254 -1.3939  1.3623 -1.2683
 8120TIP3   OH245774   1.890   2.410  10.948  0.3164 -0.2029  0.2448
 8120TIP3    H145775   1.822   2.476  10.936  1.9443  1.1537 -2.7255
 8120TIP3    H245776   1.898   2.400  11.043 -0.1342  3.8391  0.8758
 8121TIP3   OH245777   4.707   4.482  15.376  0.2254 -0.3332  0.2825
 8121TIP3    H145778   4.728   4.415  15.311 -0.0652  1.0458 -1.2944
 8121TIP3    H245779   4.690   4.561  15.325 -4.1804 -0.1335  1.6999
 8122TIP3   OH245780   6.550   4.221  14.394 -0.1768  0.0238 -0.2393
 8122TIP3    H145781   6.466   4.179  14.374  0.4362 -0.6324 -1.5983
 8122TIP3    H245782   6.569   4.274  14.317 -1.4835  3.8952  1.8727
 8123TIP3   OH245783   1.611   1.401  15.258  0.1707 -0.1362  0.0571
 8123TIP3    H145784   1.616   1.476  15.199  0.0368  0.4435  0.7603
 8123TIP3    H245785   1.587   1.327  15.202  2.1128 -0.0464 -0.9705
 8124TIP3   OH245786   0.265   6.479  15.427 -0.4944 -0.8402  0.0365
 8124TIP3    H145787   0.334   6.524  15.379  0.6479 -1.3651  1.1301
 8124TIP3    H245788   0.205   6.549  15.454  0.3511 -0.1839  0.2574
 8125TIP3   OH245789   0.813   6.275  15.321 -0.2674 -0.4628 -0.5632
 8125TIP3    H145790   0.734   6.300  15.368  0.0246  0.1647 -0.3969
 8125TIP3    H245791   0.814   6.333  15.244  0.4184  0.0622 -0.1709
 8126TIP3   OH245792   1.426   6.302   3.491 -0.4953 -0.0029 -0.3197
 8126TIP3    H145793   1.480   6.352   3.430 -1.4674  0.5050 -0.7821
 8126TIP3    H245794   1.360   6.261   3.436 -2.0632  1.3517  0.4858
 8127TIP3   OH245795   3.043   2.238   1.168  0.2027  0.2056  0.2351
 8127TIP3    H145796   3.054   2.319   1.119  0.8533  0.0091  0.0481
 8127TIP3    H245797   3.012   2.266   1.254  1.5933  0.7393  0.5749
 8128TIP3   OH245798   5.439   5.783   3.589  0.6697 -0.0493 -0.6762
 8128TIP3    H145799   5.438   5.706   3.532  1.9049 -0.7537  0.1996
 8128TIP3    H245800   5.480   5.852   3.537  0.5416 -0.2958 -1.1040
 8129TIP3   OH245801   5.827   5.604   4.591 -0.2546 -0.0990 -0.0542
 8129TIP3    H145802   5.814   5.510   4.580  0.7632 -0.2421 -0.1274
 8129TIP3    H245803   5.744   5.636   4.627 -0.9600 -0.8618 -0.9555
 8130TIP3   OH245804   2.204   3.001  12.125 -0.3407 -0.3600  0.7738
 8130TIP3    H145805   2.279   3.059  12.140 -0.8953 -0.1483  3.1696
 8130TIP3    H245806   2.238   2.913  12.140 -0.7339 -0.1969  2.8345
 8131TIP3   OH245807   0.469   6.620   4.407 -0.2034 -0.5902 -0.6903
 8131TIP3    H145808   0.504   6.590   4.491 -0.4876  0.2044 -0.2733
 8131TIP3    H245809   0.485   6.714   4.407 -0.6092 -0.5160 -1.3330
 8132TIP3   OH245810   6.091   4.802  10.800 -0.2326 -0.2623 -0.0932
 8132TIP3    H145811   6.165   4.846  10.758  0.3780 -1.7284 -0.6229
 8132TIP3    H245812   6.023   4.800  10.732 -0.9299  1.3557  0.4879
 8133TIP3   OH245813   0.397   3.789  13.637  0.0391 -0.1219  0.4656
 8133TIP3    H145814   0.315   3.741  13.649 -0.8964  1.3278  0.1719
 8133TIP3    H245815   0.408   3.839  13.718  0.8226 -0.5729  0.6430
 8134TIP3   OH245816   3.246   0.010   0.279  0.4429 -0.2784  0.3935
 8134TIP3    H145817   3.255  -0.033   0.194 -0.0927  0.8640 -0.2744
 8134TIP3    H245818   3.295   0.092   0.270  0.4868 -0.2000  1.2337
 8135TIP3   OH245819   1.974   5.095   5.963 -0.3574  0.5623  0.2579
 8135TIP3    H145820   2.045   5.048   5.918 -0.6113  1.2647 -0.9252
 8135TIP3    H245821   1.913   5.026   5.990  0.6647 -0.0291  1.1085
 8136TIP3   OH245822   2.438   5.887   5.411  0.0688 -0.8181 -0.4825
 8136TIP3    H145823   2.487   5.808   5.389  1.0299  0.3973 -3.1791
 8136TIP3    H245824   2.379   5.900   5.337  1.2255  1.8743 -1.0620
 8137TIP3   OH245825   0.843   6.404  15.055  0.2357 -0.3646  0.1016
 8137TIP3    H145826   0.807   6.423  14.968  0.1589 -1.8090 -0.1973
 8137TIP3    H245827   0.915   6.467  15.065 -0.9978  1.1622 -0.1502
 8138TIP3   OH245828   6.399   4.027  13.708  0.6897 -0.4073  0.4828
 8138TIP3    H145829   6.486   4.061  13.730  0.8642  0.6127 -1.5237
 8138TIP3    H245830   6.338   4.095  13.737  0.9534  1.1916 -2.3211
 8139TIP3   OH245831   4.849   6.452   5.675  0.5503  0.3415  0.3089
 8139TIP3    H145832   4.814   6.524   5.727  0.8731 -0.1052  1.1706
 8139TIP3    H245833   4.817   6.468   5.586  1.9728  2.4793  0.0986
 8140TIP3   OH245834   4.893   2.521  17.081  0.1393  0.4578 -0.4649
 8140TIP3    H145835   4.797   2.516  17.081  0.0003  1.9793  1.6726
 8140TIP3    H245836   4.914   2.579  17.007 -0.8038  2.2701  0.6208
 8141TIP3   OH245837   0.997   0.190   5.328 -0.4903  0.0841 -0.3416
 8141TIP3    H145838   0.999   0.285   5.327 -2.3132  0.1500 -0.3670
 8141TIP3    H245839   0.905   0.167   5.319 -0.2832 -1.6644  1.2676
 8142TIP3   OH245840   0.029   6.106  15.337 -0.9405 -0.2957 -0.1659
 8142TIP3    H145841  -0.049   6.055  15.360  0.0862 -1.8946 -0.1110
 8142TIP3    H245842   0.100   6.064  15.384  0.1360  0.4982 -1.0313
 8143TIP3   OH245843   1.038   6.528  11.364 -0.9438 -0.0869 -0.2129
 8143TIP3    H145844   0.945   6.516  11.345 -1.5850  1.4645  1.6663
 8143TIP3    H245845   1.055   6.620  11.343 -0.3771  0.2075  1.4203
 8144TIP3   OH245846   5.035   1.970   3.868  0.1988 -0.2181 -0.2964
 8144TIP3    H145847   4.977   1.974   3.944  0.3377  0.2941 -0.2139
 8144TIP3    H245848   5.031   1.878   3.840  1.2720 -0.7507  1.1884
 8145TIP3   OH245849   4.666   0.615   1.427  0.0068  0.3118 -0.1136
 8145TIP3    H145850   4.734   0.662   1.379  0.5037 -0.1920  0.0839
 8145TIP3    H245851   4.714   0.555   1.484 -0.6017  0.0277  0.1111
 8146TIP3   OH245852   0.583   3.193  11.829  0.3817 -0.0573 -0.1348
 8146TIP3    H145853   0.621   3.259  11.772 -0.4290 -0.1462 -0.7926
 8146TIP3    H245854   0.488   3.203  11.818  0.2064 -2.5304 -1.7125
 8147TIP3   OH245855   0.714   4.793  14.083 -0.2959  0.2446  0.3273
 8147TIP3    H145856   0.646   4.850  14.116  0.1173  0.1591  1.3666
 8147TIP3    H245857   0.795   4.824  14.125  0.3047  0.3289 -0.8527
 8148TIP3   OH245858   2.879   4.915  14.271  0.7063 -0.2068  0.2130
 8148TIP3    H145859   2.839   4.856  14.208 -2.0156  1.0855  0.5841
 8148TIP3    H245860   2.811   4.930  14.337  2.5479  0.5251  2.0864
 8149TIP3   OH245861   0.126   3.163  17.290  0.1208 -0.1444 -0.0124
 8149TIP3    H145862   0.134   3.153  17.196 -0.6959  1.6437 -0.3107
 8149TIP3    H245863   0.213   3.190  17.319  0.0322  0.6536 -0.4682
 8150TIP3   OH245864   0.428   5.769   0.916  0.0334  0.3091 -0.1445
 8150TIP3    H145865   0.427   5.855   0.872  0.5212  0.4225  0.0611
 8150TIP3    H245866   0.378   5.783   0.996 -1.6721 -0.1363 -1.0770
 8151TIP3   OH245867   2.595   0.190   0.290  0.1011 -0.2208 -0.2235
 8151TIP3    H145868   2.613   0.280   0.263 -0.7381  1.4677  4.0104
 8151TIP3    H245869   2.506   0.173   0.259  0.0706  0.6099 -0.6255
 8152TIP3   OH245870   2.621   4.228  16.623 -0.3088  0.1795  0.0918
 8152TIP3    H145871   2.541   4.177  16.615  0.1919 -0.5276 -0.5394
 8152TIP3    H245872   2.630   4.244  16.717 -0.8732 -0.2351  0.2215
 8153TIP3   OH245873   3.578   6.249   5.035  0.3312 -0.0439 -0.3199
 8153TIP3    H145874   3.501   6.302   5.017 -0.0418 -1.1367 -2.2827
 8153TIP3    H245875   3.648   6.291   4.985  0.6546  0.0702  0.2196
 8154TIP3   OH245876   1.398   2.281   4.793 -0.2004  0.4924  0.0533
 8154TIP3    H145877   1.447   2.200   4.806  0.7969  0.9508 -0.7185
 8154TIP3    H245878   1.437   2.342   4.856  0.2180  0.8524 -0.5470
 8155TIP3   OH245879   5.622   5.025   1.949  0.3788 -0.3903  0.4683
 8155TIP3    H145880   5.564   4.949   1.946  0.9681 -0.8294  0.1962
 8155TIP3    H245881   5.702   4.997   1.905 -0.2446  1.1151 -1.7691
 8156TIP3   OH245882   4.704   3.075  13.341 -0.2734  0.1992 -0.0394
 8156TIP3    H145883   4.710   3.160  13.298  0.4405  0.2710  0.1783
 8156TIP3    H245884   4.748   3.087  13.425  0.2659 -0.4981 -0.2047
 8157TIP3   OH245885   4.434   6.182   0.822  0.3053 -0.1367  0.6056
 8157TIP3    H145886   4.518   6.220   0.794 -0.7855  0.7099 -1.7316
 8157TIP3    H245887   4.414   6.117   0.755 -1.6168  0.7511  0.2631
 8158TIP3   OH245888   4.537   6.711   0.128 -0.4073 -0.5250 -0.0170
 8158TIP3    H145889   4.532   6.618   0.104 -0.2913 -0.0408 -2.1695
 8158TIP3    H245890   4.631   6.726   0.142 -0.4561 -0.7748  0.6350
 8159TIP3   OH245891   5.506   0.544  16.197 -0.4622  0.5767 -0.1679
 8159TIP3    H145892   5.457   0.513  16.121  0.0443 -1.0873  0.1542
 8159TIP3    H245893   5.496   0.475  16.262  1.0500  0.9031  0.4465
 8160TIP3   OH245894   4.244   5.034   6.209 -0.3859 -0.5223  0.1928
 8160TIP3    H145895   4.300   4.989   6.146 -0.0277  1.0897 -0.6749
 8160TIP3    H245896   4.300   5.047   6.286 -0.2543 -0.8294  0.1528
 8161TIP3   OH245897   1.080   5.623  15.413  0.2047  0.1011  0.0189
 8161TIP3    H145898   1.091   5.711  15.449  0.2428  0.7864 -1.5504
 8161TIP3    H245899   0.992   5.597  15.440  0.4686  0.3137  1.1102
 8162TIP3   OH245900   3.177   4.024  15.030 -0.6742 -0.1314  0.1533
 8162TIP3    H145901   3.132   3.940  15.033 -1.3973  0.1759 -1.2578
 8162TIP3    H245902   3.135   4.071  14.958  0.3069  1.1024  0.3554
 8163TIP3   OH245903   0.354   2.109  15.166 -0.8059 -0.0209  0.1951
 8163TIP3    H145904   0.423   2.165  15.202  0.0493 -1.4186  0.8174
 8163TIP3    H245905   0.324   2.155  15.087  0.8053  0.6400 -0.0703
 8164TIP3   OH245906   4.175   2.272  15.118 -0.6651 -0.0685 -0.1020
 8164TIP3    H145907   4.184   2.234  15.031  0.6000 -0.5708  0.2320
 8164TIP3    H245908   4.113   2.213  15.163 -0.1813 -0.6608 -0.1958
 8165TIP3   OH245909   0.879   5.524   1.804 -0.0491  0.3834  0.1343
 8165TIP3    H145910   0.814   5.564   1.745  0.5997  0.6474 -0.4148
 8165TIP3    H245911   0.953   5.585   1.803  0.6569 -0.4550 -0.1217
 8166TIP3   OH245912   0.928   3.051  17.044  0.5871  0.6899  0.2121
 8166TIP3    H145913   0.853   3.090  17.088  0.6726  1.0874  0.0129
 8166TIP3    H245914   0.959   2.984  17.104  0.6056  1.1155  0.6820
 8167TIP3   OH245915   5.940   5.476  12.004  0.1624 -0.5416  0.2098
 8167TIP3    H145916   6.020   5.424  11.993  1.2360  0.6908  1.6268
 8167TIP3    H245917   5.963   5.540  12.072 -1.0430  1.7996 -1.4381
 8168TIP3   OH245918   4.614   5.791   0.176 -0.1023  0.0084  0.8147
 8168TIP3    H145919   4.529   5.802   0.133 -0.1214  2.2093  1.3255
 8168TIP3    H245920   4.625   5.696   0.181 -0.7291 -0.4027 -2.7443
 8169TIP3   OH245921   6.261   5.915  13.677  0.2510  0.2447  0.1235
 8169TIP3    H145922   6.322   5.965  13.624  1.1608 -1.0336 -0.0805
 8169TIP3    H245923   6.314   5.876  13.747 -0.5258  0.0457  0.6249
 8170TIP3   OH245924   3.327   6.612   0.045  0.2266  0.1340  0.0717
 8170TIP3    H145925   3.362   6.574  -0.035 -2.6070 -0.3103 -1.0904
 8170TIP3    H245926   3.393   6.594   0.112  1.4975 -1.8670 -1.6112
 8171TIP3   OH245927   1.328   6.644  12.476 -0.0077  0.0874 -0.3119
 8171TIP3    H145928   1.419   6.643  12.505  0.1211 -1.4667 -0.6952
 8171TIP3    H245929   1.284   6.703  12.537  1.1328  0.3434  0.2778
 8172TIP3   OH245930   4.044   2.973   1.418  1.0116 -0.2102 -0.1200
 8172TIP3    H145931   3.966   3.011   1.379  0.2144 -2.4738 -0.8882
 8172TIP3    H245932   4.086   3.046   1.465 -0.6681  1.4177 -1.0362
 8173TIP3   OH245933   0.242   4.166   0.328  0.0966  0.1036  0.0637
 8173TIP3    H145934   0.258   4.246   0.377 -0.2595 -0.4767  1.1571
 8173TIP3    H245935   0.158   4.180   0.284 -0.2239  0.1374  0.6757
 8174TIP3   OH245936   0.036   6.324   4.867  0.1234 -0.3953 -0.1706
 8174TIP3    H145937   0.081   6.295   4.946 -1.2660  0.0877  0.8308
 8174TIP3    H245938   0.104   6.323   4.799  1.2111 -1.3538  0.8859
 8175TIP3   OH245939   2.802   6.046  14.872  0.5078  0.3994 -0.2173
 8175TIP3    H145940   2.802   5.968  14.816  0.3236  0.0471  0.2699
 8175TIP3    H245941   2.714   6.049  14.910  0.7354  0.4468  0.3130
 8176TIP3   OH245942   0.884   4.544  14.807  0.0518 -0.4863  0.1301
 8176TIP3    H145943   0.879   4.604  14.733  1.7255 -0.7635 -0.2534
 8176TIP3    H245944   0.832   4.468  14.780  0.8431 -0.6877 -0.8860
 8177TIP3   OH245945   0.468   3.094   4.741  0.6624 -0.0532 -0.4152
 8177TIP3    H145946   0.480   3.091   4.836  0.2271  1.0527 -0.3118
 8177TIP3    H245947   0.508   3.176   4.714 -0.3326  0.2610 -1.0048
 8178TIP3   OH245948   4.731   3.927  15.822  0.1672 -0.2317  0.2532
 8178TIP3    H145949   4.766   3.900  15.907 -0.4113 -0.7222  0.3428
 8178TIP3    H245950   4.733   3.848  15.769 -0.7858 -0.2761  0.2587
 8179TIP3   OH245951   2.734   5.809   4.672  0.4550 -0.7773 -0.1313
 8179TIP3    H145952   2.728   5.897   4.710  2.3879 -1.4210  1.8759
 8179TIP3    H245953   2.826   5.801   4.645 -0.0450 -1.6697 -1.7090
 8180TIP3   OH245954   4.383   3.057  17.019  0.2324  0.1240 -0.4696
 8180TIP3    H145955   4.425   2.989  16.967  0.1587 -0.8419  0.7013
 8180TIP3    H245956   4.446   3.130  17.019  1.4181 -0.8649  0.2861
 8181TIP3   OH245957   3.377   5.447  16.785 -0.4420  0.5001  0.3087
 8181TIP3    H145958   3.318   5.376  16.811 -1.4387  1.6027  1.1825
 8181TIP3    H245959   3.367   5.513  16.854  0.8433  1.2782 -0.2136
 8182TIP3   OH245960   1.721   1.183   1.530  0.4242 -0.0773 -0.2790
 8182TIP3    H145961   1.808   1.218   1.511  0.7246 -0.6218  0.0643
 8182TIP3    H245962   1.666   1.261   1.544  0.7233  0.2810 -1.0342
 8183TIP3   OH245963   0.137   4.304  14.027  0.1845  0.7424 -0.2288
 8183TIP3    H145964   0.230   4.308  14.050  0.6900 -1.1450 -1.6873
 8183TIP3    H245965   0.130   4.358  13.948  0.5964 -1.0561 -1.5526
 8184TIP3   OH245966   4.290   2.679  15.555  0.1364  0.3290 -0.5372
 8184TIP3    H145967   4.326   2.639  15.634 -0.7882 -0.3115 -0.4343
 8184TIP3    H245968   4.241   2.609  15.512  1.7380  0.2748 -2.4148
 8185TIP3   OH245969   3.673   2.927   0.470  0.1749  0.2488 -0.1587
 8185TIP3    H145970   3.595   2.911   0.418  0.0889  1.0362 -0.2924
 8185TIP3    H245971   3.685   3.022   0.466  3.1228 -0.0872 -3.0603
 8186TIP3   OH245972   4.703   0.535  15.532 -0.0109 -0.7778 -0.1522
 8186TIP3    H145973   4.661   0.532  15.446 -0.1552  0.1244 -0.1267
 8186TIP3    H245974   4.761   0.459  15.533 -0.4330 -1.1222 -0.8207
 8187TIP3   OH245975   3.445   5.724  16.315  0.4799 -0.6132  0.7698
 8187TIP3    H145976   3.536   5.695  16.323 -0.4669 -3.8798  1.2769
 8187TIP3    H245977   3.410   5.672  16.243 -1.2026 -0.0533  1.1350
 8188TIP3   OH245978   0.679   0.388   3.505 -0.2586 -0.2473 -0.4279
 8188TIP3    H145979   0.689   0.387   3.410 -0.3887 -2.0893 -0.4469
 8188TIP3    H245980   0.768   0.400   3.539  0.1174 -1.8211 -0.7832
 8189TIP3   OH245981   4.102   2.622  11.555 -0.1635  0.2873  0.1577
 8189TIP3    H145982   4.152   2.540  11.555  1.1232  1.0376  0.2089
 8189TIP3    H245983   4.038   2.611  11.485  0.2508 -0.6082 -0.0945
 8190TIP3   OH245984   1.625   4.787  14.108  0.4459 -0.2209 -0.1706
 8190TIP3    H145985   1.538   4.821  14.127  0.0951 -0.8966 -0.5237
 8190TIP3    H245986   1.666   4.774  14.193  0.2793  0.2949 -0.0116
 8191TIP3   OH245987   3.216   0.665   4.035  0.0525 -0.2474 -0.3707
 8191TIP3    H145988   3.236   0.720   3.960  1.4022  1.0614  0.8730
 8191TIP3    H245989   3.241   0.718   4.111 -4.3719 -0.1290  1.2798
 8192TIP3   OH245990   5.094   5.581  15.871  0.5271  0.0274 -0.7705
 8192TIP3    H145991   5.026   5.649  15.880 -0.5079 -1.0348 -0.2494
 8192TIP3    H245992   5.148   5.592  15.950  0.2993  0.1760 -0.6318
 8193TIP3   OH245993   6.105   6.560  16.351 -0.3491 -0.4536 -0.3144
 8193TIP3    H145994   6.056   6.485  16.385  0.3737 -0.3604  1.0169
 8193TIP3    H245995   6.040   6.629  16.340 -0.5075 -0.1977  1.8214
 8194TIP3   OH245996   0.795   3.497   5.211  0.2637  0.2085  0.5755
 8194TIP3    H145997   0.732   3.568   5.222  0.6437  0.2780  2.6981
 8194TIP3    H245998   0.740   3.419   5.199 -0.1850  0.9189 -3.5221
 8195TIP3   OH245999   6.524   0.286   3.771 -0.0538  0.5460 -0.6060
 8195TIP3    H146000   6.436   0.273   3.735 -0.6736  2.9867 -0.2015
 8195TIP3    H246001   6.509   0.308   3.863  1.0036  0.7609 -0.4738
 8196TIP3   OH246002   2.126   4.445  15.124  0.0644  0.1669  0.5094
 8196TIP3    H146003   2.041   4.426  15.164  0.9017  0.5208  2.5770
 8196TIP3    H246004   2.131   4.386  15.049 -2.2165  0.5362 -0.0108
 8197TIP3   OH246005   2.150   5.374  16.128 -0.2223  0.0588  0.1387
 8197TIP3    H146006   2.167   5.294  16.178 -0.9033 -0.8581 -1.0420
 8197TIP3    H246007   2.101   5.430  16.188 -1.3030 -1.1459  0.4262
 8198TIP3   OH246008   1.723   5.675  16.268  0.1666  0.1679  0.5023
 8198TIP3    H146009   1.707   5.686  16.361  0.1617 -0.2105  0.5484
 8198TIP3    H246010   1.671   5.598  16.244  0.0706  0.3372  0.1617
 8199TIP3   OH246011   1.476   3.303   1.441  0.3202 -0.0073 -0.5138
 8199TIP3    H146012   1.558   3.267   1.408 -0.6600 -2.0812 -0.7905
 8199TIP3    H246013   1.440   3.353   1.368  0.7166 -0.1592 -0.8133
 8200TIP3   OH246014   2.377   4.878  16.456  0.2177  0.0151 -0.0377
 8200TIP3    H146015   2.463   4.901  16.491 -0.3262  1.3100  0.4911
 8200TIP3    H246016   2.362   4.788  16.485  1.1185 -0.0068  0.3886
 8201TIP3   OH246017   5.001   0.530   3.040  0.4095 -0.7258  0.0521
 8201TIP3    H146018   4.909   0.510   3.056  0.4330 -0.5538  0.4165
 8201TIP3    H246019   5.002   0.622   3.016  0.6103 -0.4288  1.1818
 8202TIP3   OH246020   4.489   6.156   3.476 -0.2861  0.3006  0.0897
 8202TIP3    H146021   4.565   6.117   3.432 -1.0683 -3.1835  1.4477
 8202TIP3    H246022   4.419   6.152   3.411 -0.1125  0.3011 -0.0974
 8203TIP3   OH246023   0.941   0.528  17.210 -0.3021  0.6894 -0.4320
 8203TIP3    H146024   0.982   0.482  17.137 -1.2102 -0.6825 -0.1384
 8203TIP3    H246025   0.974   0.482  17.288 -2.2368 -0.4094 -0.1868
 8204TIP3   OH246026   4.604   5.768   4.561 -0.7037 -0.4379  0.3299
 8204TIP3    H146027   4.510   5.749   4.556 -0.6448 -0.9831  1.0410
 8204TIP3    H246028   4.631   5.779   4.470 -1.1195 -2.0740 -0.0346
 8205TIP3   OH246029   1.463   6.665  14.167  0.2225 -0.0888 -0.5551
 8205TIP3    H146030   1.395   6.727  14.191  1.1070  1.4178 -1.7724
 8205TIP3    H246031   1.497   6.697  14.084  1.8538 -1.2628 -0.3967
 8206TIP3   OH246032   0.960   5.579   3.102  0.1677  0.2800  0.2040
 8206TIP3    H146033   0.909   5.539   3.173 -0.4016 -3.1022 -1.8916
 8206TIP3    H246034   0.899   5.642   3.062 -0.5874 -0.0523  0.7920
 8207TIP3   OH246035   1.883   3.460  12.996  0.0209  0.0088 -0.2449
 8207TIP3    H146036   1.959   3.513  12.970 -0.5496  0.1465 -1.7077
 8207TIP3    H246037   1.843   3.432  12.913 -0.4879 -1.5833  0.4929
 8208TIP3   OH246038   1.385   5.792  15.421 -0.1183  0.2738 -0.0209
 8208TIP3    H146039   1.292   5.770  15.419 -0.0722  0.1063 -1.0523
 8208TIP3    H246040   1.401   5.836  15.337  0.7149  0.3580  0.1743
 8209TIP3   OH246041   3.671   4.559  13.504  0.2008 -0.1095 -0.0624
 8209TIP3    H146042   3.614   4.485  13.483 -2.0898  1.8589 -1.3338
 8209TIP3    H246043   3.658   4.572  13.598  0.9033 -1.4818  0.2493
 8210TIP3   OH246044   6.424   3.751  16.460  0.2556 -0.7246  0.1968
 8210TIP3    H146045   6.397   3.744  16.369 -0.1442 -0.6245  0.3081
 8210TIP3    H246046   6.393   3.837  16.488  0.8833 -0.5156  0.2598
 8211TIP3   OH246047   5.001   3.753  12.058  0.5932  0.2630  0.6937
 8211TIP3    H146048   4.940   3.688  12.023 -0.5518  1.9698 -0.6259
 8211TIP3    H246049   4.974   3.763  12.150  1.3516 -1.6907  1.1778
 8212TIP3   OH246050   0.711   2.133   1.792  0.2593  0.6108 -0.4714
 8212TIP3    H146051   0.639   2.117   1.730 -0.9768  0.4663  0.9396
 8212TIP3    H246052   0.780   2.172   1.739 -0.7516  0.4973 -1.9417
 8213TIP3   OH246053   4.443   1.343   2.406  0.3498  0.3869 -0.1662
 8213TIP3    H146054   4.416   1.413   2.467  2.0145 -0.5043  1.7340
 8213TIP3    H246055   4.469   1.389   2.327  1.0834  1.9443  0.9188
 8214TIP3   OH246056   1.955   0.786  11.683 -0.1276 -0.4167 -0.5135
 8214TIP3    H146057   1.927   0.873  11.710  3.0744 -0.2666  3.1761
 8214TIP3    H246058   2.013   0.801  11.609 -0.4223  0.4728 -0.5679
 8215TIP3   OH246059   2.578   0.947  12.512  0.1386 -0.0605  0.5759
 8215TIP3    H146060   2.501   1.004  12.516  0.1216 -0.1333  1.3349
 8215TIP3    H246061   2.650   1.006  12.492 -0.1139 -0.0047 -0.2411
 8216TIP3   OH246062   0.402   1.475  15.947 -0.2433  0.0142 -0.3674
 8216TIP3    H146063   0.325   1.443  15.994  0.2959 -0.9571 -0.1092
 8216TIP3    H246064   0.473   1.418  15.976  0.4441  0.4702 -1.1020
 8217TIP3   OH246065   1.144   2.742   1.479 -0.6119  0.5500  0.2868
 8217TIP3    H146066   1.182   2.784   1.402 -1.6124  0.1782 -0.4285
 8217TIP3    H246067   1.063   2.702   1.447 -1.4351  1.0270  1.6969
 8218TIP3   OH246068   6.019   0.796  14.381  0.0127 -0.1080 -0.5383
 8218TIP3    H146069   6.016   0.891  14.382  1.8496  0.0258 -1.9983
 8218TIP3    H246070   6.001   0.772  14.290 -0.3555 -1.1653 -0.2079
 8219TIP3   OH246071   6.754   1.837  15.870 -0.2460  0.0713 -0.0318
 8219TIP3    H146072   6.753   1.870  15.780 -2.5851 -0.7765 -0.3987
 8219TIP3    H246073   6.842   1.803  15.883  1.3499  3.5665 -0.6535
 8220TIP3   OH246074   1.162   2.895   2.960 -1.0304 -0.3081  0.1233
 8220TIP3    H146075   1.107   2.827   2.999 -1.8915  1.1248  1.5663
 8220TIP3    H246076   1.193   2.947   3.035  0.3935  0.3327 -0.8467
 8221TIP3   OH246077   0.786   6.624  13.413  0.0019 -0.7594 -0.3262
 8221TIP3    H146078   0.831   6.694  13.461 -1.4739  2.0423 -2.7135
 8221TIP3    H246079   0.857   6.575  13.371  1.0701  1.0818 -0.8088
 8222TIP3   OH246080   5.574   2.083  10.523 -0.0877 -0.8234 -0.0971
 8222TIP3    H146081   5.578   2.149  10.453  0.1204 -0.1737  0.5092
 8222TIP3    H246082   5.583   1.999  10.478 -2.9519 -0.6484 -1.2039
 8223TIP3   OH246083   0.612   2.747   2.370 -0.2098 -0.4174  0.6749
 8223TIP3    H146084   0.593   2.830   2.412 -1.6749 -0.9510  1.1060
 8223TIP3    H246085   0.702   2.757   2.337 -0.2309  1.1804  1.0349
 8224TIP3   OH246086   3.765   1.972   4.403  0.7143 -0.6057 -0.7543
 8224TIP3    H146087   3.766   1.916   4.481  2.6207  0.1829 -0.1504
 8224TIP3    H246088   3.675   1.968   4.371  0.1981 -1.9459  0.7651
 8225TIP3   OH246089   3.653   0.824   1.296 -0.4917  0.0561  0.0080
 8225TIP3    H146090   3.689   0.842   1.383  0.3172 -2.0926  0.1784
 8225TIP3    H246091   3.610   0.906   1.271 -2.1792  0.3063  3.1160
 8226TIP3   OH246092   5.972   5.951  10.951 -0.1389  0.6560  0.5938
 8226TIP3    H146093   5.950   5.968  11.043  0.4441  1.2862  0.6249
 8226TIP3    H246094   5.981   6.038  10.912 -2.5090  0.4264 -0.6228
 8227TIP3   OH246095   6.407   3.207   0.414  0.3011  0.6289  0.0402
 8227TIP3    H146096   6.456   3.249   0.343  2.7110 -1.1777  0.5202
 8227TIP3    H246097   6.322   3.187   0.375  0.1306  3.1449 -1.0834
 8228TIP3   OH246098   3.711   6.707   0.891  0.5378 -0.0992  0.0395
 8228TIP3    H146099   3.698   6.716   0.986  0.4722  0.9807 -0.0622
 8228TIP3    H246100   3.652   6.637   0.866  0.8010 -0.6323  0.8521
 8229TIP3   OH246101   5.525   6.412   3.682  0.0307 -0.4795  0.6174
 8229TIP3    H146102   5.481   6.489   3.646 -1.5179 -0.9917  1.3134
 8229TIP3    H246103   5.617   6.435   3.684 -0.1411  0.5822 -1.1109
 8230TIP3   OH246104   3.671   4.906  12.692 -0.5593 -0.3996 -0.2148
 8230TIP3    H146105   3.710   4.927  12.777  0.7272  0.7175 -1.0501
 8230TIP3    H246106   3.638   4.989  12.660  1.4543 -0.2064 -2.0098
 8231TIP3   OH246107   6.609   5.686   2.822  0.4346  0.1806 -0.6867
 8231TIP3    H146108   6.623   5.637   2.903 -0.4548 -0.7535 -1.0796
 8231TIP3    H246109   6.640   5.628   2.753  0.1939  0.5245 -1.0901
 8232TIP3   OH246110   5.600   5.245  14.077 -0.4024 -0.2478 -0.1512
 8232TIP3    H146111   5.567   5.168  14.031 -1.7264  1.6482 -2.6549
 8232TIP3    H246112   5.548   5.250  14.157  0.0272 -2.1340  0.2963
 8233TIP3   OH246113   5.738   4.733  16.716  0.1340 -0.0735  0.1442
 8233TIP3    H146114   5.668   4.690  16.765 -1.1531  1.9601  0.1911
 8233TIP3    H246115   5.709   4.823  16.707  3.2917  1.1739  1.1938
 8234TIP3   OH246116   3.296   4.666   6.039 -0.0763  0.4290  0.7351
 8234TIP3    H146117   3.345   4.740   6.075 -0.8041 -0.0269  2.7980
 8234TIP3    H246118   3.345   4.589   6.067  0.5874  0.0746 -1.2627
 8235TIP3   OH246119   5.444   2.413  12.899  0.7592  0.2831 -0.6983
 8235TIP3    H146120   5.415   2.383  12.813  0.0256  0.2644 -0.4509
 8235TIP3    H246121   5.384   2.483  12.922  2.2825  1.8148 -1.1456
 8236TIP3   OH246122   2.388   2.133  15.723  0.3181 -0.0466  0.8637
 8236TIP3    H146123   2.385   2.226  15.746  1.4765 -0.4761  2.9534
 8236TIP3    H246124   2.475   2.120  15.686  0.8138 -0.6024  2.1705
 8237TIP3   OH246125   4.525   6.548   3.926 -0.1433 -0.1643  0.3003
 8237TIP3    H146126   4.504   6.544   4.019  1.1653 -1.8382  0.5809
 8237TIP3    H246127   4.535   6.641   3.907 -1.1846  0.2469  1.6266
 8238TIP3   OH246128   1.148   5.929   2.400  0.3984 -0.0776 -0.5569
 8238TIP3    H146129   1.076   5.993   2.396  1.8818  1.6346 -1.2921
 8238TIP3    H246130   1.198   5.954   2.477  0.6087 -0.8058 -0.4545
 8239TIP3   OH246131   5.502   5.619  13.173  0.4541  0.0291  0.0080
 8239TIP3    H146132   5.595   5.597  13.178  1.1224  2.6417  1.3009
 8239TIP3    H246133   5.458   5.554  13.228  1.8812  0.2442  1.4861
 8240TIP3   OH246134   3.359   4.766   2.322  0.6461  0.5258  0.2191
 8240TIP3    H146135   3.454   4.763   2.324  0.7621 -0.8952 -2.8231
 8240TIP3    H246136   3.331   4.686   2.367  0.8969  0.5509  0.4198
 8241TIP3   OH246137   0.820   6.302  10.958  0.2243 -0.4277  0.3292
 8241TIP3    H146138   0.786   6.303  10.869  1.1711  2.8823 -0.1336
 8241TIP3    H246139   0.914   6.290  10.948  0.5328  1.3102  0.6826
 8242TIP3   OH246140   2.630   0.939   5.963 -0.3326  0.4663 -0.1959
 8242TIP3    H146141   2.677   0.964   5.884 -1.2024  1.3881 -0.4327
 8242TIP3    H246142   2.696   0.942   6.032  0.0641  1.2579 -0.6049
 8243TIP3   OH246143   5.485   2.794  13.862  0.1124  0.5117  0.2612
 8243TIP3    H146144   5.536   2.730  13.812  2.1854  1.5402  0.9436
 8243TIP3    H246145   5.505   2.774  13.954 -0.7627  0.9460  0.5605
 8244TIP3   OH246146   0.353   0.298   4.640 -0.5496 -0.9094  0.1556
 8244TIP3    H146147   0.352   0.203   4.651  0.9749 -1.0860 -0.9397
 8244TIP3    H246148   0.281   0.329   4.695 -1.2136 -2.7031  0.3716
 8245TIP3   OH246149   2.401   3.825  13.276 -0.5793  0.1912  0.2682
 8245TIP3    H146150   2.490   3.836  13.310  0.8693 -2.7391 -2.0462
 8245TIP3    H246151   2.361   3.760  13.334 -0.1610 -0.5292 -0.2232
 8246TIP3   OH246152   1.219   2.230  13.485  0.6075 -0.1688 -0.1671
 8246TIP3    H146153   1.230   2.235  13.580  0.8955 -3.0326  0.0415
 8246TIP3    H246154   1.125   2.214  13.473  0.8950 -2.0752 -0.1557
 8247TIP3   OH246155   6.348   6.229   0.716 -0.1733  0.4794 -0.1233
 8247TIP3    H146156   6.354   6.134   0.708  0.8794  0.5249 -0.0458
 8247TIP3    H246157   6.414   6.252   0.782 -2.4092  0.9993  2.1054
 8248TIP3   OH246158   2.320   3.801  11.430  0.4432 -0.3191 -0.1232
 8248TIP3    H146159   2.349   3.884  11.393 -0.8610 -0.1071 -0.7381
 8248TIP3    H246160   2.236   3.822  11.471  1.0390 -0.9255  1.4650
 8249TIP3   OH246161   5.338   5.970   2.385 -0.2622  0.7792  0.0040
 8249TIP3    H146162   5.397   5.905   2.346  0.5001  0.8488  1.0017
 8249TIP3    H246163   5.253   5.952   2.345 -0.3162 -1.5551  1.0336
 8250TIP3   OH246164   6.605   3.951   5.528 -0.0793 -0.2002  0.4817
 8250TIP3    H146165   6.534   3.890   5.506 -1.3945  1.5411 -0.3070
 8250TIP3    H246166   6.665   3.944   5.453 -1.3076  0.9862 -0.6658
 8251TIP3   OH246167   0.260   5.746  10.638 -0.0012  0.5342  0.1692
 8251TIP3    H146168   0.213   5.735  10.720  0.2575 -1.0917  0.1358
 8251TIP3    H246169   0.344   5.785  10.663  0.1681 -0.1630  0.7086
 8252TIP3   OH246170   6.040   1.147   0.973  0.7988  0.4904 -0.6663
 8252TIP3    H146171   6.056   1.131   1.066 -1.5176  2.9139  0.2792
 8252TIP3    H246172   6.059   1.063   0.930 -0.5507 -1.5161  2.3311
 8253TIP3   OH246173   3.231   1.256  16.295 -0.3463 -0.8205  0.0642
 8253TIP3    H146174   3.218   1.328  16.355  0.8797  1.2517 -1.9759
 8253TIP3    H246175   3.186   1.283  16.214  1.5818 -1.4755 -1.3115
 8254TIP3   OH246176   5.853   0.518   3.329  0.0711 -0.0877 -0.2247
 8254TIP3    H146177   5.885   0.457   3.263  1.1416  0.0607  0.1496
 8254TIP3    H246178   5.823   0.594   3.279  1.7000  0.3938 -0.5056
 8255TIP3   OH246179   3.867   2.561   2.158  0.1017  0.6434  0.0261
 8255TIP3    H146180   3.925   2.541   2.231  0.1187 -1.4823 -0.5056
 8255TIP3    H246181   3.904   2.512   2.084 -0.8366  1.4450 -1.0078
 8256TIP3   OH246182   3.975   5.084   2.627  0.3972  0.2190  0.3134
 8256TIP3    H146183   4.066   5.069   2.654  0.3759 -0.6251 -0.0504
 8256TIP3    H246184   3.923   5.039   2.693  0.2175  1.0771  0.7692
 8257TIP3   OH246185   3.176   5.750   0.367 -0.2535  0.8333  0.3599
 8257TIP3    H146186   3.183   5.659   0.396  1.8361  1.0454  0.7051
 8257TIP3    H246187   3.127   5.794   0.437  0.1350  0.2805  0.9869
 8258TIP3   OH246188   4.019   1.909  13.486  0.3667 -0.1392  0.0393
 8258TIP3    H146189   3.989   1.822  13.511 -0.5566  0.5753  1.6733
 8258TIP3    H246190   4.064   1.942  13.564  0.0461  1.1085 -0.2765
 8259TIP3   OH246191   6.443   2.151   1.147 -0.1595  0.8460  0.0259
 8259TIP3    H146192   6.380   2.213   1.112 -0.7697  0.4459  0.4047
 8259TIP3    H246193   6.529   2.187   1.122 -0.4504  2.3321  1.0389
 8260TIP3   OH246194   5.993   4.341  16.075  0.0386 -0.1921 -0.8616
 8260TIP3    H146195   6.081   4.354  16.110 -0.3304  1.4851 -0.4785
 8260TIP3    H246196   6.007   4.324  15.981  0.7813 -0.1564 -0.7666
 8261TIP3   OH246197   3.483   5.961   6.296  0.0952  0.3318 -0.1862
 8261TIP3    H146198   3.487   5.916   6.380 -0.1682  0.0524 -0.3214
 8261TIP3    H246199   3.505   6.052   6.316  0.7982  0.1096  0.0562
 8262TIP3   OH246200   2.325   4.688  10.617  0.2230  0.0427  0.6443
 8262TIP3    H146201   2.394   4.683  10.550 -0.7375 -0.5166 -0.3282
 8262TIP3    H246202   2.363   4.744  10.685  0.6492  1.9963 -1.0883
 8263TIP3   OH246203   6.266   4.218   2.682 -0.8448 -0.4810 -0.1515
 8263TIP3    H146204   6.242   4.203   2.773  0.0571 -3.8141 -0.3472
 8263TIP3    H246205   6.323   4.295   2.685 -2.4833  0.7619  1.7374
 8264TIP3   OH246206   6.220   6.407   3.008 -0.3267 -0.5230  0.5022
 8264TIP3    H146207   6.278   6.332   2.997 -1.0746 -0.9529 -0.6170
 8264TIP3    H246208   6.201   6.410   3.102  1.8476 -0.0977  0.9799
 8265TIP3   OH246209   3.282   5.064   4.571  0.3270  0.0652  0.2191
 8265TIP3    H146210   3.318   5.106   4.649  1.3243 -0.9911  0.3448
 8265TIP3    H246211   3.223   4.996   4.606  0.2672  0.0264  0.0415
 8266TIP3   OH246212   4.218   3.042  14.598  0.0788  0.0964  0.0009
 8266TIP3    H146213   4.168   2.985  14.540  1.5050 -0.2797 -0.9064
 8266TIP3    H246214   4.292   2.988  14.627  0.5372  0.9566  0.4802
 8267TIP3   OH246215   6.189   2.918  12.036  0.2281 -0.3156  0.2882
 8267TIP3    H146216   6.115   2.973  12.062 -0.5382 -1.0403 -0.2482
 8267TIP3    H246217   6.237   2.970  11.972 -1.5043 -0.8446 -1.5987
 8268TIP3   OH246218   0.675   2.616   4.731  0.3660  0.0868 -0.1383
 8268TIP3    H146219   0.627   2.536   4.711  0.6194 -0.0248 -0.3030
 8268TIP3    H246220   0.634   2.683   4.676  0.0010  0.1218  0.1717
 8269TIP3   OH246221   5.425   3.110   0.033  0.2852 -0.0695 -0.2177
 8269TIP3    H146222   5.458   3.027  -0.001  1.1313 -0.1886  0.8362
 8269TIP3    H246223   5.497   3.172   0.022  0.5473 -0.0867  1.2100
 8270TIP3   OH246224   5.791   5.082  17.361  0.6478  0.2012  0.2894
 8270TIP3    H146225   5.793   4.994  17.322 -0.2839  0.0339  0.5947
 8270TIP3    H246226   5.791   5.142  17.287 -2.8659 -0.1212 -0.1294
 8271TIP3   OH246227   2.126   0.153   4.832  0.2873  0.2395 -0.3446
 8271TIP3    H146228   2.186   0.173   4.904  0.4294  0.4373 -0.5185
 8271TIP3    H246229   2.106   0.237   4.793  0.2385  0.1273 -0.5625
 8272TIP3   OH246230   5.393   0.370   2.233 -0.2287 -0.1088 -0.7247
 8272TIP3    H146231   5.317   0.335   2.185 -0.4616 -0.0583 -0.3926
 8272TIP3    H246232   5.355   0.415   2.308  0.1641 -0.7185 -0.1480
 8273TIP3   OH246233   6.380   1.396   3.556  0.1681 -0.5253  0.1235
 8273TIP3    H146234   6.385   1.303   3.534  0.4072 -0.4668 -0.0822
 8273TIP3    H246235   6.470   1.427   3.547 -0.1709  0.1113 -1.6074
 8274TIP3   OH246236   0.965   6.655  15.030  0.0140 -0.2881  0.4134
 8274TIP3    H146237   0.940   6.675  14.940  1.1753 -0.2099  0.0913
 8274TIP3    H246238   1.061   6.658  15.030  0.1290 -2.3127  1.1779
 8275TIP3   OH246239   6.651   2.950   0.199  0.7415 -0.2799  0.7854
 8275TIP3    H146240   6.579   3.010   0.180  0.7995  0.1827  1.9091
 8275TIP3    H246241   6.730   3.004   0.193  0.8493 -0.3926  1.1207
 8276TIP3   OH246242   4.882   5.398  11.721  0.2691 -0.1874 -0.6438
 8276TIP3    H146243   4.792   5.413  11.750 -0.0013 -2.5526 -0.1042
 8276TIP3    H246244   4.880   5.312  11.681  2.4305 -0.5492 -0.0753
 8277TIP3   OH246245   3.254   4.980  12.474  0.6748 -0.0284 -0.3175
 8277TIP3    H146246   3.183   5.006  12.533  0.9408  0.7450 -0.3279
 8277TIP3    H246247   3.273   4.889  12.498  0.3459  0.0705  0.3488
 8278TIP3   OH246248   6.135   2.863   2.051  1.0372  0.5444 -0.2159
 8278TIP3    H146249   6.121   2.950   2.088  2.1467  0.3692  0.6685
 8278TIP3    H246250   6.104   2.870   1.961 -2.7364  0.6825  0.9300
 8279TIP3   OH246251   6.503   4.618  14.717  0.1476  0.8486  0.0628
 8279TIP3    H146252   6.589   4.612  14.758  0.2411 -1.2262 -0.3056
 8279TIP3    H246253   6.445   4.647  14.787  0.6141 -0.9023  1.2326
 8280TIP3   OH246254   4.340   0.114  11.475  0.1586 -0.3085 -0.1864
 8280TIP3    H146255   4.384   0.109  11.560  1.6598  1.0059 -0.8570
 8280TIP3    H246256   4.264   0.056  11.485  0.3700 -0.3014  1.9945
 8281TIP3   OH246257   2.516   5.508   0.636 -0.4017  0.1975  0.6910
 8281TIP3    H146258   2.607   5.534   0.648 -0.1667  0.0968 -0.7070
 8281TIP3    H246259   2.478   5.513   0.724  0.4778  2.0028  1.0158
 8282TIP3   OH246260   3.957   2.105  15.189  0.1270  0.2752 -0.7176
 8282TIP3    H146261   3.920   2.078  15.272  0.5221  1.1981 -0.2209
 8282TIP3    H246262   3.912   2.052  15.123 -0.1685 -0.4790  0.0815
 8283TIP3   OH246263   2.796   3.431  13.078 -0.1050 -0.5932  0.0046
 8283TIP3    H146264   2.890   3.416  13.067 -0.1713 -0.0996 -1.4518
 8283TIP3    H246265   2.758   3.343  13.077  0.1179 -0.7328 -2.0980
 8284TIP3   OH246266   0.625   4.746  14.937  0.3191  0.2815  0.1128
 8284TIP3    H146267   0.627   4.651  14.925 -0.4791  0.4209 -1.4953
 8284TIP3    H246268   0.665   4.761  15.022 -0.5961 -1.5879  0.9253
 8285TIP3   OH246269   2.890   3.049  11.792 -0.6790 -0.4444  0.0376
 8285TIP3    H146270   2.905   3.088  11.878  0.7245 -0.5267 -0.1408
 8285TIP3    H246271   2.899   2.955  11.806 -0.9956 -0.4935 -0.0919
 8286TIP3   OH246272   3.048   5.545   4.788  0.1466 -0.0628 -0.3786
 8286TIP3    H146273   3.006   5.554   4.874 -0.1337 -1.5606 -0.3394
 8286TIP3    H246274   2.977   5.556   4.725 -0.3619 -2.4116 -0.3158
 8287TIP3   OH246275   0.388   6.046   4.650  1.6442 -0.0805 -0.3179
 8287TIP3    H146276   0.479   6.062   4.627  1.7204  1.5219  0.9122
 8287TIP3    H246277   0.339   6.060   4.569  2.4136 -0.1353 -0.7942
 8288TIP3   OH246278   4.479   1.724   2.105  0.0279 -0.2307  0.5693
 8288TIP3    H146279   4.487   1.702   2.198 -3.8145 -0.5639  1.0006
 8288TIP3    H246280   4.390   1.696   2.082  0.5930  0.4881 -3.0565
 8289TIP3   OH246281   5.675   0.232  10.763  0.0133 -0.3270  0.3929
 8289TIP3    H146282   5.730   0.154  10.759  0.9256  0.3090  0.1834
 8289TIP3    H246283   5.626   0.223  10.844  0.9267 -0.5958  0.9324
 8290TIP3   OH246284   1.674   3.271   0.199 -0.2023  0.4116 -0.8192
 8290TIP3    H146285   1.728   3.347   0.217  0.2903  0.0739 -0.8329
 8290TIP3    H246286   1.586   3.306   0.183 -0.2230  0.8762  0.2536
 8291TIP3   OH246287   0.756   5.220   4.012 -0.6498 -0.1625 -0.1183
 8291TIP3    H146288   0.685   5.187   4.067 -0.1229 -0.6836  0.2555
 8291TIP3    H246289   0.834   5.213   4.067 -0.1577 -0.4351 -0.8447
 8292TIP3   OH246290   4.438   2.152   5.890 -0.1909 -0.4727  0.1590
 8292TIP3    H146291   4.500   2.225   5.875 -1.0034  0.4839  1.2530
 8292TIP3    H246292   4.438   2.104   5.808  0.8713  0.3865 -0.3818
 8293TIP3   OH246293   5.711   0.306  17.236  0.0840 -0.8003  0.4643
 8293TIP3    H146294   5.761   0.225  17.239  1.9448  0.3080  0.6613
 8293TIP3    H246295   5.656   0.297  17.158  1.1972 -1.7204 -0.2470
 8294TIP3   OH246296   3.809   6.606  15.375  0.2297 -0.8316  0.1445
 8294TIP3    H146297   3.741   6.541  15.391 -1.5415  1.0109  0.4831
 8294TIP3    H246298   3.780   6.684  15.422  3.4647 -0.4260  1.7551
 8295TIP3   OH246299   0.725   4.053  14.604  0.1564  0.1690 -0.4739
 8295TIP3    H146300   0.650   4.111  14.616  1.2996  1.6151 -0.0513
 8295TIP3    H246301   0.778   4.096  14.537  0.8158 -0.6166 -0.4649
 8296TIP3   OH246302   5.745   4.375  14.148 -0.2511  0.3105  0.2419
 8296TIP3    H146303   5.683   4.409  14.212 -0.4797  1.1897 -0.4339
 8296TIP3    H246304   5.698   4.379  14.064  0.3810  0.0776 -0.1314
 8297TIP3   OH246305   2.262   2.857  17.022 -0.3578  0.4437  0.2984
 8297TIP3    H146306   2.215   2.776  17.002  0.7909 -0.1913  0.0747
 8297TIP3    H246307   2.217   2.924  16.971 -2.3129  0.2723  1.6796
 8298TIP3   OH246308   1.123   6.223   2.601 -0.1687 -0.3358  0.4373
 8298TIP3    H146309   1.033   6.245   2.626 -0.2454  0.3033 -0.3669
 8298TIP3    H246310   1.164   6.308   2.584  0.4897 -0.6427  0.4615
 8299TIP3   OH246311   5.786   0.308  11.862 -0.4520  0.2420  0.2614
 8299TIP3    H146312   5.867   0.320  11.813 -1.5304 -1.3623 -2.1296
 8299TIP3    H246313   5.739   0.391  11.851  0.1991  0.6221  0.3308
 8300TIP3   OH246314   2.167   4.460   2.428 -0.0552 -0.8175  0.0048
 8300TIP3    H146315   2.162   4.390   2.363 -0.2356 -0.9454  0.1569
 8300TIP3    H246316   2.225   4.426   2.496 -0.2520 -0.8736  0.1452
 8301TIP3   OH246317   4.215   4.661  13.853 -0.2297  0.1017  0.0097
 8301TIP3    H146318   4.248   4.730  13.911 -0.3568 -0.0985  0.3236
 8301TIP3    H246319   4.294   4.625  13.812 -0.2674  1.7338 -1.6823
 8302TIP3   OH246320   1.092   6.036   1.621 -0.3547 -0.2243  0.2310
 8302TIP3    H146321   1.131   5.991   1.546 -1.8314 -0.9861 -0.1172
 8302TIP3    H246322   1.140   6.002   1.697  1.0038  0.3940 -0.3179
 8303TIP3   OH246323   0.672   4.630  12.070  0.2437  0.1107  0.0258
 8303TIP3    H146324   0.682   4.639  11.975  0.9171  0.9114  0.1634
 8303TIP3    H246325   0.590   4.581  12.080  0.7216 -0.9595 -0.9850
 8304TIP3   OH246326   5.668   4.935   1.315 -0.8445 -0.3546  0.1172
 8304TIP3    H146327   5.687   4.857   1.367  0.3660  0.8445  1.5623
 8304TIP3    H246328   5.644   5.002   1.380 -1.6355  0.5585 -1.0596
 8305TIP3   OH246329   0.907   0.059  16.234  0.5784  0.2063  0.0803
 8305TIP3    H146330   0.884  -0.034  16.231  2.0489 -0.2529  1.5934
 8305TIP3    H246331   0.831   0.101  16.274  0.0975 -0.4125 -0.1687
 8306TIP3   OH246332   0.691   1.875   3.971 -0.4436 -0.4894  0.1081
 8306TIP3    H146333   0.616   1.920   3.931 -0.0989 -0.4834 -0.5459
 8306TIP3    H246334   0.701   1.795   3.920  0.2877 -0.2599 -0.1170
 8307TIP3   OH246335   3.335   1.280   3.065  0.3065  0.4604 -0.0387
 8307TIP3    H146336   3.242   1.261   3.074  0.8447 -1.7051  1.8949
 8307TIP3    H246337   3.354   1.268   2.972 -1.5210  2.1569 -0.6887
 8308TIP3   OH246338   0.321   1.523   0.074  0.0103 -0.3981  0.5580
 8308TIP3    H146339   0.415   1.515   0.054 -0.0597  0.1212 -0.0135
 8308TIP3    H246340   0.316   1.592   0.139 -0.1768  1.5219 -1.3717
 8309TIP3   OH246341   5.995   4.737  13.724 -0.2257 -0.2815 -0.3667
 8309TIP3    H146342   5.983   4.671  13.655 -0.6454 -0.1628 -0.4131
 8309TIP3    H246343   5.927   4.717  13.789 -1.0643  0.7364 -0.8850
 8310TIP3   OH246344   0.330   5.752  14.127 -0.0181  0.3105 -0.5693
 8310TIP3    H146345   0.419   5.721  14.141 -0.9425 -2.9408 -0.9956
 8310TIP3    H246346   0.333   5.793  14.041  1.0252  0.0080 -0.6971
 8311TIP3   OH246347   3.564   6.143  16.959  0.3985  0.5011 -0.4185
 8311TIP3    H146348   3.492   6.097  16.915 -0.6026  0.1143  1.5411
 8311TIP3    H246349   3.642   6.093  16.935 -0.5169 -1.5528  0.6465
 8312TIP3   OH246350   0.510   4.871  12.991 -0.0031 -0.0899 -0.6951
 8312TIP3    H146351   0.529   4.941  12.929 -0.6632 -0.3503 -1.2162
 8312TIP3    H246352   0.434   4.902  13.040  1.3054  0.6871  0.9389
 8313TIP3   OH246353   2.210   1.772  14.257  0.8935 -0.1709  0.1922
 8313TIP3    H146354   2.122   1.736  14.247  0.4388  1.2509 -1.1995
 8313TIP3    H246355   2.259   1.701  14.300 -0.4976 -1.5973 -0.4570
 8314TIP3   OH246356   6.176   0.309   4.820  0.0524  0.3504 -0.0407
 8314TIP3    H146357   6.119   0.363   4.875  0.2012  0.6514 -0.1784
 8314TIP3    H246358   6.127   0.297   4.738 -0.1368 -0.0347  0.1266
 8315TIP3   OH246359   6.572   3.097   5.334 -0.0800  0.6247 -0.9645
 8315TIP3    H146360   6.636   3.157   5.371 -0.5551  0.9570 -0.6692
 8315TIP3    H246361   6.600   3.011   5.363  0.2247  0.7677 -0.8313
 8316TIP3   OH246362   6.555   1.542   6.453  0.4724 -0.0209 -0.2040
 8316TIP3    H146363   6.643   1.551   6.490  0.4269  0.5720 -0.2228
 8316TIP3    H246364   6.558   1.593   6.372  0.7167 -1.7090 -1.3143
 8317TIP3   OH246365   3.137   2.306  10.596  0.3473  0.1604  0.2625
 8317TIP3    H146366   3.184   2.236  10.551  0.2189 -0.2806  0.8073
 8317TIP3    H246367   3.177   2.386  10.564  1.5076 -0.2015  0.7587
 8318TIP3   OH246368   3.403   2.228   5.700  0.0883 -0.1385 -0.2579
 8318TIP3    H146369   3.377   2.163   5.765  0.3605 -0.7317 -0.7243
 8318TIP3    H246370   3.340   2.300   5.710  0.2794 -0.1092  0.8166
 8319TIP3   OH246371   3.435   1.617  13.498  0.0630  0.4663 -0.6379
 8319TIP3    H146372   3.342   1.633  13.513  0.1398 -0.4132  1.0518
 8319TIP3    H246373   3.448   1.526  13.524  1.8211  1.2405  1.4661
 8320TIP3   OH246374   2.756   3.705  15.021  0.0421  1.1028  0.0351
 8320TIP3    H146375   2.804   3.787  15.013 -0.8876  1.8798  1.8299
 8320TIP3    H246376   2.679   3.727  15.074 -0.3047 -0.8936  0.4593
 8321TIP3   OH246377   0.451   5.481  16.991  0.0056  0.0795 -0.0670
 8321TIP3    H146378   0.525   5.435  16.952 -0.5432 -0.9937  0.1230
 8321TIP3    H246379   0.487   5.524  17.069  0.3272 -0.8321  0.2939
 8322TIP3   OH246380   4.246   0.256  11.082 -0.2122  0.6090  0.0157
 8322TIP3    H146381   4.268   0.239  10.991  2.5363  0.5348  0.5953
 8322TIP3    H246382   4.286   0.341  11.100 -1.4314  1.0101  0.9544
 8323TIP3   OH246383   1.466   2.572   5.129  0.1952  0.0474  0.2256
 8323TIP3    H146384   1.501   2.510   5.193  0.1265 -0.5769 -0.3307
 8323TIP3    H246385   1.375   2.546   5.118  0.5912 -0.8563 -1.2633
 8324TIP3   OH246386   6.245   1.941   0.602  0.7137 -0.4707 -0.2390
 8324TIP3    H146387   6.275   2.030   0.583  0.0446 -0.3800 -0.9336
 8324TIP3    H246388   6.312   1.884   0.565  0.3767 -0.2646 -1.1822
 8325TIP3   OH246389   0.889   5.935  14.781 -0.0325  0.3907 -0.2003
 8325TIP3    H146390   0.979   5.900  14.786  0.3469  1.1535 -1.3162
 8325TIP3    H246391   0.900   6.029  14.794 -0.1126  1.1195 -4.0976
 8326TIP3   OH246392   2.706   2.785   1.621  0.3571 -0.1294 -0.4156
 8326TIP3    H146393   2.671   2.816   1.538  0.5083  0.0853 -0.3995
 8326TIP3    H246394   2.800   2.781   1.608  0.7322  2.8457  0.6805
 8327TIP3   OH246395   5.700   0.798   5.532 -0.4681  0.0383 -0.4994
 8327TIP3    H146396   5.755   0.732   5.574 -3.2493 -2.7391 -0.9011
 8327TIP3    H246397   5.611   0.778   5.561 -1.6552  2.6597 -1.9443
 8328TIP3   OH246398   2.858   5.278  17.303  0.2825 -0.2018 -0.4546
 8328TIP3    H146399   2.777   5.291  17.351  0.0693  2.5038 -1.3382
 8328TIP3    H246400   2.887   5.190  17.327 -1.8846 -0.5106  1.3711
 8329TIP3   OH246401   5.737   3.911  12.396 -0.3307  0.6153  0.0454
 8329TIP3    H146402   5.765   3.905  12.305  3.0709 -1.7327  1.1011
 8329TIP3    H246403   5.683   3.833  12.410 -0.6183  0.8274  0.1299
 8330TIP3   OH246404   1.712   3.395  14.814 -0.5626  0.6197 -0.2771
 8330TIP3    H146405   1.771   3.364  14.883 -0.4179 -0.1663 -0.7335
 8330TIP3    H246406   1.726   3.333  14.742 -1.4167  0.8547 -0.6549
 8331TIP3   OH246407   1.258   5.028   3.636 -0.2067  0.1799  0.2424
 8331TIP3    H146408   1.265   5.121   3.661  0.4273  1.2632 -3.3932
 8331TIP3    H246409   1.164   5.012   3.632 -0.3306  0.7282  0.6830
 8332TIP3   OH246410   2.090   3.651   2.273  0.6012  0.6071  0.5786
 8332TIP3    H146411   2.017   3.656   2.212  0.6898 -0.5680  0.3448
 8332TIP3    H246412   2.117   3.559   2.271  0.8303  0.6079  2.1432
 8333TIP3   OH246413   6.617   6.134  15.887  0.7232 -0.3349  0.4040
 8333TIP3    H146414   6.568   6.087  15.818  0.0832 -1.4439  1.5619
 8333TIP3    H246415   6.701   6.155  15.846 -0.7373  1.8521 -1.7392
 8334TIP3   OH246416   3.815   5.932   3.679 -0.0388 -0.0328 -0.0984
 8334TIP3    H146417   3.781   5.906   3.593 -1.0483 -0.9789  0.5570
 8334TIP3    H246418   3.753   5.999   3.709  2.0784  2.7671 -1.4162
 8335TIP3   OH246419   3.939   5.517  13.500  0.2991  0.0975  0.3466
 8335TIP3    H146420   3.994   5.559  13.566  2.4852 -2.5651  0.3888
 8335TIP3    H246421   3.921   5.430  13.536 -0.4988 -0.5532 -1.5016
 8336TIP3   OH246422   2.232   6.403  13.577 -0.2337 -0.3933  0.3918
 8336TIP3    H146423   2.179   6.425  13.500  2.2632  0.0788 -1.3094
 8336TIP3    H246424   2.219   6.309  13.589  0.5724 -0.8339 -1.7074
 8337TIP3   OH246425   4.588   6.473  15.631  0.2789 -0.2738  0.0907
 8337TIP3    H146426   4.615   6.485  15.540 -0.9728  0.6421 -0.1927
 8337TIP3    H246427   4.499   6.439  15.625 -0.0200  0.3220  0.9675
 8338TIP3   OH246428   1.893   1.335  12.781  0.7964  0.2556  0.4076
 8338TIP3    H146429   1.984   1.315  12.761  0.7147  1.3617 -1.2542
 8338TIP3    H246430   1.843   1.288  12.714  0.2444  0.7445  0.4706
 8339TIP3   OH246431   5.663   1.309  12.823 -0.3084 -0.0910 -0.6504
 8339TIP3    H146432   5.635   1.225  12.860  1.6581 -1.8068 -2.7031
 8339TIP3    H246433   5.584   1.362  12.819 -1.1354 -0.7585  3.2209
 8340TIP3   OH246434   1.433   4.823   6.181  0.2421 -0.2111  0.4705
 8340TIP3    H146435   1.391   4.874   6.112  1.7491  0.7912  0.2496
 8340TIP3    H246436   1.412   4.869   6.262  0.5407  0.0287  0.4107
 8341TIP3   OH246437   3.304   1.666  16.530 -0.0434  0.4218  0.2188
 8341TIP3    H146438   3.345   1.604  16.591  0.6063  2.1457  1.6066
 8341TIP3    H246439   3.241   1.613  16.481  1.4680 -1.6230  0.3457
 8342TIP3   OH246440   1.050   0.425   5.208 -0.1211  0.2224 -0.5148
 8342TIP3    H146441   1.129   0.374   5.189 -0.4870 -0.0016 -1.4850
 8342TIP3    H246442   1.080   0.496   5.264  0.8471  0.3751 -1.2160
 8343TIP3   OH246443   2.177   2.631   5.597 -0.4778  0.4260  0.1879
 8343TIP3    H146444   2.213   2.609   5.683 -1.2664  0.7191  0.5942
 8343TIP3    H246445   2.125   2.554   5.572 -0.2788  0.3556 -0.0167
 8344TIP3   OH246446   3.749   3.607  15.076 -0.1723 -0.3018  0.5011
 8344TIP3    H146447   3.774   3.571  14.990 -1.2422 -0.2561  0.1613
 8344TIP3    H246448   3.785   3.695  15.076 -0.5326 -0.1463 -0.0880
 8345TIP3   OH246449   1.952   5.609   0.652  0.0028  0.4757  0.6371
 8345TIP3    H146450   1.869   5.615   0.699  0.3792 -0.4608  1.4574
 8345TIP3    H246451   2.018   5.628   0.718  0.4880  0.2196  0.2298
 8346TIP3   OH246452   2.218   1.463   0.482 -0.1110  0.1447 -0.2618
 8346TIP3    H146453   2.279   1.405   0.527 -1.8520 -1.7093 -0.1822
 8346TIP3    H246454   2.185   1.411   0.409 -0.4711  1.6516 -1.2157
 8347TIP3   OH246455   5.989   1.141   5.952  0.0128  0.4334 -0.4840
 8347TIP3    H146456   6.060   1.205   5.960  0.6693 -0.1975 -1.0903
 8347TIP3    H246457   6.015   1.068   6.008  0.3041 -0.1905 -1.4011
 8348TIP3   OH246458   4.752   1.871  16.617  0.0490 -0.9019  0.1889
 8348TIP3    H146459   4.689   1.801  16.635 -1.4408  0.4351  0.4983
 8348TIP3    H246460   4.790   1.892  16.702  1.8943 -2.5199 -0.1705
 8349TIP3   OH246461   0.519   6.328   3.122 -0.5584 -0.2485  0.4372
 8349TIP3    H146462   0.476   6.245   3.099 -0.4607 -0.2566  0.2817
 8349TIP3    H246463   0.471   6.360   3.198 -0.3458 -0.6509  0.7493
 8350TIP3   OH246464   0.315   5.481   3.477  0.3559  0.0084 -0.1973
 8350TIP3    H146465   0.314   5.387   3.494  0.3408 -0.6073 -3.0958
 8350TIP3    H246466   0.242   5.515   3.528  0.4547 -1.4853  1.0305
 8351TIP3   OH246467   5.677   3.430  10.761  0.3800  0.1406 -0.7365
 8351TIP3    H146468   5.773   3.434  10.755  0.5587  0.4153  1.4449
 8351TIP3    H246469   5.652   3.371  10.690  2.4275 -2.0366  0.1716
 8352TIP3   OH246470   4.813   0.201  12.789 -0.2334 -0.6792  0.1598
 8352TIP3    H146471   4.890   0.258  12.790  0.2547 -1.3428  0.4803
 8352TIP3    H246472   4.826   0.141  12.863 -0.4212 -1.6305 -0.5657
 8353TIP3   OH246473   2.751   2.361   5.291  0.0262  0.1527  0.0937
 8353TIP3    H146474   2.791   2.430   5.345  0.8635 -0.2802  0.0491
 8353TIP3    H246475   2.728   2.293   5.354  0.4636 -0.1034 -0.0187
 8354TIP3   OH246476   1.570   4.468  14.546 -0.0907 -0.5504 -0.5326
 8354TIP3    H146477   1.496   4.424  14.588 -0.1380 -0.1081 -0.1423
 8354TIP3    H246478   1.544   4.475  14.454 -0.5429 -0.3869 -0.3975
 8355TIP3   OH246479   2.849   0.430  10.724 -0.0994 -0.4761 -0.5345
 8355TIP3    H146480   2.801   0.384  10.656 -0.1300 -1.5697  0.1986
 8355TIP3    H246481   2.896   0.361  10.771 -0.3124  0.2041  0.7290
 8356TIP3   OH246482   5.633   0.377   2.422 -0.1142  0.1948 -0.9802
 8356TIP3    H146483   5.555   0.393   2.475 -0.5297 -0.4013 -1.3925
 8356TIP3    H246484   5.608   0.305   2.363  0.1194  1.2532 -2.4270
 8357TIP3   OH246485   2.621   4.606  15.139 -0.0236 -0.2114  0.2020
 8357TIP3    H146486   2.568   4.661  15.080 -0.3410 -0.9905 -0.2500
 8357TIP3    H246487   2.700   4.657  15.155 -0.4218  0.4859 -0.0117
 8358TIP3   OH246488   1.814   2.604   0.539  0.2585 -1.0172  0.1431
 8358TIP3    H146489   1.767   2.677   0.498 -0.7315 -3.0122 -2.5513
 8358TIP3    H246490   1.897   2.599   0.492  0.3065 -1.6421  0.2825
 8359TIP3   OH246491   2.827   0.938  12.823  0.1225 -0.0878  0.2080
 8359TIP3    H146492   2.852   1.030  12.818  1.3745 -0.4468 -0.4378
 8359TIP3    H246493   2.821   0.909  12.732  0.1576 -0.7601  0.4095
 8360TIP3   OH246494   4.167   0.242  16.976  0.2844 -0.2466  0.2474
 8360TIP3    H146495   4.108   0.211  17.045  0.2421 -0.0532  0.2985
 8360TIP3    H246496   4.221   0.166  16.954 -0.7155 -0.7527 -0.5598
 8361TIP3   OH246497   6.289   1.361   0.556  0.2015 -0.7929 -0.8234
 8361TIP3    H146498   6.273   1.313   0.475 -0.6036  1.2643 -1.9513
 8361TIP3    H246499   6.234   1.317   0.621  0.6114 -2.2707 -1.4439
 8362TIP3   OH246500   1.532   0.163  16.091 -0.0839  0.1827 -0.4165
 8362TIP3    H146501   1.583   0.196  16.017 -0.8275 -1.7336 -1.8931
 8362TIP3    H246502   1.584   0.090  16.126 -0.7706 -0.3801 -0.5379
 8363TIP3   OH246503   5.759   5.855   0.259 -0.5431  0.0815 -0.1625
 8363TIP3    H146504   5.798   5.896   0.182 -1.9677 -0.7448 -1.3642
 8363TIP3    H246505   5.735   5.767   0.231  1.3125 -1.2421  2.0142
 8364TIP3   OH246506   3.100   1.487  17.072  0.3408 -0.1070  0.2820
 8364TIP3    H146507   3.151   1.552  17.121 -0.6109 -0.1690  1.3843
 8364TIP3    H246508   3.156   1.410  17.069  0.7316  0.1609  0.5802
 8365TIP3   OH246509   0.004   1.164  12.305 -0.3099 -0.3632  0.0225
 8365TIP3    H146510   0.011   1.257  12.283 -0.4961 -0.7539 -1.8970
 8365TIP3    H246511   0.094   1.132  12.304 -0.1167  0.0190  1.9492
 8366TIP3   OH246512   2.521   2.232   0.290  0.2803  0.1952  0.1917
 8366TIP3    H146513   2.528   2.189   0.375  1.3230  0.7890  0.4176
 8366TIP3    H246514   2.578   2.182   0.232  0.9425  0.8215  0.2840
 8367TIP3   OH246515   1.979   6.368  11.904 -0.8583 -0.3282  0.0727
 8367TIP3    H146516   1.914   6.297  11.901 -1.6080  0.2675  1.4592
 8367TIP3    H246517   2.052   6.332  11.955 -1.2595 -0.1111  0.8183
 8368TIP3   OH246518   3.921   4.376   0.249 -0.2302 -0.2116  0.4354
 8368TIP3    H146519   3.832   4.342   0.251 -0.6956  0.7273 -1.5867
 8368TIP3    H246520   3.935   4.413   0.336 -1.7982 -0.3928  0.7868
 8369TIP3   OH246521   4.571   3.766  14.093  0.5052  0.0505  0.0370
 8369TIP3    H146522   4.602   3.737  14.179  1.8104  1.5450  0.1019
 8369TIP3    H246523   4.621   3.845  14.074 -1.5343  1.1614 -1.0098
 8370TIP3   OH246524   6.175   3.407  14.184  0.1896  0.1461 -0.2483
 8370TIP3    H146525   6.235   3.333  14.187 -1.0543 -0.8993 -0.6136
 8370TIP3    H246526   6.211   3.470  14.247  0.8365 -1.0772  0.6276
 8371TIP3   OH246527   6.627   0.577  10.802 -0.0978 -0.4518  0.2090
 8371TIP3    H146528   6.719   0.555  10.818  0.1176 -0.4988 -0.9869
 8371TIP3    H246529   6.581   0.493  10.808  0.0792 -0.5720 -0.0505
 8372TIP3   OH246530   1.691   1.444  13.633  0.0983  0.3712  0.0082
 8372TIP3    H146531   1.698   1.458  13.538  0.3291  2.9694  0.3191
 8372TIP3    H246532   1.763   1.385  13.654  1.1049  1.1169 -1.2203
 8373TIP3   OH246533   0.347   5.957  15.990  0.4198 -0.2197 -0.2101
 8373TIP3    H146534   0.412   5.958  16.060 -0.1986 -2.5502  0.4763
 8373TIP3    H246535   0.384   6.012  15.921  2.2082  0.0475  0.9186
 8374TIP3   OH246536   5.052   6.732   2.232 -0.5921 -0.0595  0.0900
 8374TIP3    H146537   5.074   6.691   2.316 -0.6941 -0.0449  0.1252
 8374TIP3    H246538   4.970   6.779   2.250 -0.1256  0.7273  0.2401
 8375TIP3   OH246539   4.822   0.009   0.155 -0.6980 -0.2564 -0.0177
 8375TIP3    H146540   4.878   0.079   0.123  0.3372 -1.3355 -0.6624
 8375TIP3    H246541   4.808   0.030   0.247  2.3881 -0.8810  0.7187
 8376TIP3   OH246542   1.969   3.895   5.878  0.2819 -0.3322  0.5328
 8376TIP3    H146543   2.042   3.840   5.904 -0.3491 -1.1967  0.5328
 8376TIP3    H246544   1.891   3.851   5.914 -0.2658  0.3966  0.2769
 8377TIP3   OH246545   0.336   0.228  12.299  0.1524 -0.0350 -0.2144
 8377TIP3    H146546   0.293   0.190  12.222 -0.7724 -0.9583  0.7234
 8377TIP3    H246547   0.327   0.161  12.367  0.9871  0.7420  0.6879
 8378TIP3   OH246548   3.548   0.895  16.554  0.9242 -0.1952 -0.1377
 8378TIP3    H146549   3.521   0.969  16.500 -0.8583 -2.3793 -2.4870
 8378TIP3    H246550   3.637   0.917  16.582  0.6704  2.5404 -1.1963
 8379TIP3   OH246551   0.130   3.256  12.932  0.0835  0.3241  0.0432
 8379TIP3    H146552   0.173   3.332  12.972 -0.1393  0.7615 -0.5356
 8379TIP3    H246553   0.048   3.246  12.981 -0.3767  1.1015 -0.5398
 8380TIP3   OH246554   3.122   1.510   3.296  0.3648 -0.7080  0.0461
 8380TIP3    H146555   3.151   1.441   3.355  0.3130  0.3238  1.3156
 8380TIP3    H246556   3.177   1.585   3.319  0.0667 -0.1703 -0.9575
 8381TIP3   OH246557   3.221   5.570  13.511  0.4136 -0.4210 -0.1604
 8381TIP3    H146558   3.168   5.515  13.453 -0.1125  0.4055 -0.4813
 8381TIP3    H246559   3.266   5.508  13.568 -0.5761 -1.1680 -0.1640
 8382TIP3   OH246560   6.327   2.721   3.853 -0.2236  0.3714  0.4771
 8382TIP3    H146561   6.346   2.640   3.900 -0.0003  0.0248 -0.1933
 8382TIP3    H246562   6.346   2.791   3.916  2.0193 -0.0027  0.2920
 8383TIP3   OH246563   4.911   5.698  16.662  0.2111  0.1664  0.2271
 8383TIP3    H146564   4.840   5.641  16.693  1.9439 -1.6285  1.1559
 8383TIP3    H246565   4.916   5.681  16.568 -0.5436  0.2601  0.1667
 8384TIP3   OH246566   5.123   4.918   6.528  0.1934 -1.0287 -0.2365
 8384TIP3    H146567   5.115   5.013   6.533 -0.6657 -1.1042  5.0590
 8384TIP3    H246568   5.044   4.889   6.483 -1.2251  0.7117  0.9911
 8385TIP3   OH246569   1.619   2.515  16.079 -0.3140 -0.9733  0.0533
 8385TIP3    H146570   1.589   2.486  15.993 -0.5197 -0.5774 -0.0079
 8385TIP3    H246571   1.543   2.504  16.136 -1.0524  1.3439 -0.3899
 8386TIP3   OH246572   0.889   1.977   2.033 -0.6489  0.0678  0.4148
 8386TIP3    H146573   0.920   2.058   1.993  0.6979 -0.6377 -0.0018
 8386TIP3    H246574   0.962   1.947   2.086 -1.6305 -0.1715  1.6753
 8387TIP3   OH246575   4.961   6.690   3.103  0.6012 -0.7946  0.4541
 8387TIP3    H146576   4.923   6.692   3.015 -0.1349 -0.8711  0.7653
 8387TIP3    H246577   4.992   6.779   3.118 -0.8751 -0.3049  0.7941
 8388TIP3   OH246578   6.310   2.827   1.774 -0.7884  0.4573 -0.7188
 8388TIP3    H146579   6.243   2.759   1.763  1.2451 -1.5964 -1.3854
 8388TIP3    H246580   6.389   2.789   1.734  0.7916  2.7258  0.0343
 8389TIP3   OH246581   4.276   1.593  16.266 -0.4294  0.1039  0.8643
 8389TIP3    H146582   4.278   1.689  16.269 -1.6531  0.2200 -0.7599
 8389TIP3    H246583   4.285   1.571  16.173  0.7010 -1.4176  1.2900
 8390TIP3   OH246584   5.806   2.592   4.019  0.1435 -0.2681  0.0563
 8390TIP3    H146585   5.879   2.530   4.020  0.9680  0.6747  0.2383
 8390TIP3    H246586   5.730   2.540   4.043  0.7328 -1.3040 -0.2452
 8391TIP3   OH246587   5.696   6.210  16.407 -0.0180  0.3958 -0.1296
 8391TIP3    H146588   5.669   6.176  16.322  0.1789  0.1008 -0.0757
 8391TIP3    H246589   5.621   6.259  16.439  0.2382  1.3235 -0.9104
 8392TIP3   OH246590   4.628   5.026  13.850  0.5110  0.3530  0.4137
 8392TIP3    H146591   4.624   4.930  13.849 -1.5908  0.4085  0.8217
 8392TIP3    H246592   4.608   5.050  13.940  3.1674  1.1647  0.8774
 8393TIP3   OH246593   0.851   0.890  14.350  0.0066 -0.0510  0.3870
 8393TIP3    H146594   0.889   0.978  14.353  0.9485 -0.4501  0.8566
 8393TIP3    H246595   0.834   0.875  14.258 -0.4293  0.7300  0.3286
 8394TIP3   OH246596   1.417   3.441  12.571 -0.0604  0.2032 -0.2505
 8394TIP3    H146597   1.349   3.382  12.540 -0.8092  0.1624  1.3825
 8394TIP3    H246598   1.389   3.467  12.659  2.5895 -0.7430  0.9991
 8395TIP3   OH246599   2.486   0.190  13.157  0.2761 -0.2295  0.3363
 8395TIP3    H146600   2.474   0.107  13.202  0.8947 -0.7341 -0.4108
 8395TIP3    H246601   2.529   0.167  13.075 -1.9457  0.4784 -1.1368
 8396TIP3   OH246602   5.269   4.097  13.772 -0.0440 -0.7979  0.9662
 8396TIP3    H146603   5.279   4.182  13.816  1.6258  0.1016 -0.9973
 8396TIP3    H246604   5.346   4.090  13.715 -0.9320 -2.9445 -0.0820
 8397TIP3   OH246605   4.575   4.019  12.883  0.5345  0.0712 -0.0567
 8397TIP3    H146606   4.497   3.965  12.901  0.2576  0.0321 -1.2615
 8397TIP3    H246607   4.630   3.963  12.829  0.7042  0.6362 -0.4734
 8398TIP3   OH246608   5.971   1.405   0.059  0.0546  0.4194 -0.0134
 8398TIP3    H146609   6.000   1.435  -0.027 -0.9743 -0.1397 -0.5728
 8398TIP3    H246610   5.880   1.378   0.046  0.3157 -1.0432  0.9139
 8399TIP3   OH246611   2.730   2.550  11.514  0.0477  0.3928  0.6424
 8399TIP3    H146612   2.644   2.586  11.496 -0.6041 -0.0129  2.6631
 8399TIP3    H246613   2.714   2.456  11.525  1.0010  0.0965 -0.3488
 8400TIP3   OH246614   4.533   1.219   5.684  0.5454 -0.1129 -0.4302
 8400TIP3    H146615   4.464   1.212   5.750  0.5564 -0.7293 -0.4814
 8400TIP3    H246616   4.594   1.148   5.706  1.6303  0.9695  0.1597
 8401TIP3   OH246617   1.648   5.132   1.414  0.0036  0.0777  1.2226
 8401TIP3    H146618   1.702   5.211   1.422 -1.5168  1.1016  1.6225
 8401TIP3    H246619   1.608   5.122   1.500 -2.1874  0.6316  0.3114
 8402TIP3   OH246620   6.162   4.599   2.141  0.4643 -0.2529 -0.0692
 8402TIP3    H146621   6.191   4.663   2.076  0.6018 -1.1846 -0.9340
 8402TIP3    H246622   6.167   4.515   2.097  0.3531 -0.8863  1.0828
 8403TIP3   OH246623   2.125   0.758  12.145  0.1836 -0.3662  0.0568
 8403TIP3    H146624   2.125   0.853  12.137  0.9334 -0.3943 -0.4056
 8403TIP3    H246625   2.105   0.726  12.058 -0.8849 -0.6417  0.3861
 8404TIP3   OH246626   1.696   5.706  15.797  0.1734 -0.4669  0.4490
 8404TIP3    H146627   1.680   5.739  15.709  0.8538  2.5145  1.3341
 8404TIP3    H246628   1.766   5.642  15.786  0.6752  0.2983 -1.1168
 8405TIP3   OH246629   0.009   4.852   1.620  0.0011 -0.3096 -0.2805
 8405TIP3    H146630  -0.068   4.904   1.597 -1.8457 -2.3626  0.9758
 8405TIP3    H246631  -0.024   4.782   1.676  2.7693 -1.3987  0.1613
 8406TIP3   OH246632   4.308   3.756   0.363  0.1936 -0.3969  0.6312
 8406TIP3    H146633   4.278   3.818   0.297 -0.2038 -1.2124  0.0341
 8406TIP3    H246634   4.354   3.810   0.427 -0.6797  0.5982  0.4480
 8407TIP3   OH246635   1.602   4.262   5.856  0.2273 -0.1221 -0.3017
 8407TIP3    H146636   1.603   4.245   5.761 -1.0799  1.7026 -0.7078
 8407TIP3    H246637   1.694   4.267   5.880  0.6297  1.4766 -1.9430
 8408TIP3   OH246638   5.145   4.442   5.171  0.1273 -0.6783 -0.6456
 8408TIP3    H146639   5.160   4.525   5.216  1.2861 -0.1997 -1.8658
 8408TIP3    H246640   5.052   4.425   5.184 -0.1257  0.7770 -0.3250
 8409TIP3   OH246641   2.990   4.368  16.875  0.0136  0.3619 -0.2907
 8409TIP3    H146642   2.928   4.294  16.876 -0.5127  0.7957  0.8936
 8409TIP3    H246643   3.071   4.330  16.841 -0.7528 -0.3293 -1.4252
 8410TIP3   OH246644   5.813   5.599   5.881  0.6572 -0.1335  0.1765
 8410TIP3    H146645   5.864   5.536   5.933  1.1337  0.6414  0.6588
 8410TIP3    H246646   5.748   5.633   5.942  0.6380  0.1105  0.0208
 8411TIP3   OH246647   4.826   1.853  16.895  0.3281  0.0494  0.1480
 8411TIP3    H146648   4.815   1.763  16.926  0.9968 -0.8898 -2.1785
 8411TIP3    H246649   4.879   1.895  16.963  1.5641 -1.8547  0.4356
 8412TIP3   OH246650   3.829   6.109   5.854  0.3286  0.4546  0.3459
 8412TIP3    H146651   3.786   6.068   5.779 -2.0014  4.8540 -1.1042
 8412TIP3    H246652   3.760   6.117   5.920  0.7537  1.6307  0.6753
 8413TIP3   OH246653   3.284   3.514   0.259  0.1377 -0.3773 -0.3509
 8413TIP3    H146654   3.208   3.573   0.262 -0.0609 -0.4722 -2.3423
 8413TIP3    H246655   3.286   3.474   0.346 -0.6335  1.4262  0.5576
 8414TIP3   OH246656   6.359   5.596  12.747  0.3975  0.4189 -0.4927
 8414TIP3    H146657   6.308   5.522  12.780  1.2380  0.4342  0.9497
 8414TIP3    H246658   6.381   5.573  12.657 -0.2519 -0.5976 -0.3994
 8415TIP3   OH246659   3.070   6.379  16.178 -0.1173 -0.1212  0.8701
 8415TIP3    H146660   2.974   6.384  16.173 -0.0785 -0.3126 -0.4051
 8415TIP3    H246661   3.087   6.288  16.203 -0.2469 -0.7614 -1.1793
 8416TIP3   OH246662   5.621   2.897  11.472  0.1460 -0.5562 -0.0515
 8416TIP3    H146663   5.612   2.803  11.486 -0.8751 -0.2272  1.8140
 8416TIP3    H246664   5.712   2.916  11.491  0.0283 -0.9759  0.9967
 8417TIP3   OH246665   1.789   6.306   0.962 -0.3045  0.1458  0.1971
 8417TIP3    H146666   1.843   6.359   0.903  0.5650  0.1014  0.9382
 8417TIP3    H246667   1.831   6.220   0.962 -0.9123 -0.1592  0.0785
 8418TIP3   OH246668   1.971   4.661  15.009 -0.4980  0.0127 -0.1019
 8418TIP3    H146669   1.962   4.566  15.017  0.6914 -0.0944  0.0132
 8418TIP3    H246670   1.955   4.678  14.916  0.0034 -0.3773 -0.2623
 8419TIP3   OH246671   1.663   5.307   3.311  0.0155 -0.4773  0.2489
 8419TIP3    H146672   1.575   5.287   3.341 -0.4289 -0.9360 -1.2761
 8419TIP3    H246673   1.683   5.239   3.246  0.5459  0.9721 -1.1857
 8420TIP3   OH246674   5.613   4.612   5.956  0.4612  0.2567  0.3405
 8420TIP3    H146675   5.597   4.577   6.044  0.8130  1.8054  1.0474
 8420TIP3    H246676   5.536   4.585   5.906  0.5618 -1.2138  0.9188
 8421TIP3   OH246677   4.814   3.569   2.436  0.1197  0.2505  0.3866
 8421TIP3    H146678   4.725   3.602   2.449  0.1719  0.4880  0.1445
 8421TIP3    H246679   4.802   3.482   2.398 -0.0078  0.9290 -1.2107
 8422TIP3   OH246680   1.228   0.773  10.918 -0.0731  0.1506 -0.0754
 8422TIP3    H146681   1.307   0.809  10.958 -0.3708  0.4815  0.2203
 8422TIP3    H246682   1.219   0.686  10.957  1.9073 -1.2454 -2.4429
 8423TIP3   OH246683   4.931   3.864  13.959 -0.6495 -0.0742  0.5200
 8423TIP3    H146684   4.866   3.915  13.909 -1.4211  0.0825  1.6545
 8423TIP3    H246685   4.983   3.821  13.892  0.3788  2.5996 -0.5313
 8424TIP3   OH246686   3.471   3.541  17.209  0.8350  0.1554  0.6759
 8424TIP3    H146687   3.561   3.515  17.188  0.8617  0.1937  0.7467
 8424TIP3    H246688   3.417   3.490  17.147  0.9704  1.0208 -0.1732
 8425TIP3   OH246689   4.454   3.558   4.682 -0.2148 -0.7261 -0.3665
 8425TIP3    H146690   4.444   3.462   4.682 -0.3615 -0.7607 -2.3034
 8425TIP3    H246691   4.441   3.583   4.590 -1.3689  1.2966  0.2871
 8426TIP3   OH246692   4.747   0.991   5.523 -0.2039  0.2336  0.2220
 8426TIP3    H146693   4.782   1.079   5.533 -0.0228  0.2547 -0.5442
 8426TIP3    H246694   4.681   1.000   5.454 -0.2522 -0.2150  0.2095
 8427TIP3   OH246695   2.507   4.402  15.908 -0.0767 -0.0024 -0.0635
 8427TIP3    H146696   2.460   4.385  15.990 -0.4962  0.1002 -0.2775
 8427TIP3    H246697   2.553   4.320  15.889  0.0501 -0.0149  0.2915
 8428TIP3   OH246698   3.331   4.111   4.780  0.6054 -0.6137  0.2840
 8428TIP3    H146699   3.394   4.066   4.723 -0.1168 -1.4636  0.1356
 8428TIP3    H246700   3.256   4.052   4.783 -0.5870  0.8368 -0.3095
 8429TIP3   OH246701   4.567   4.338  15.565 -0.0149  0.1343  0.2485
 8429TIP3    H146702   4.596   4.395  15.494 -0.7021 -0.5116 -0.5688
 8429TIP3    H246703   4.628   4.264  15.564 -0.7591 -0.4847 -0.4928
 8430TIP3   OH246704   2.246   1.323  15.021  0.0381 -0.4765  0.7206
 8430TIP3    H146705   2.337   1.294  15.015 -0.1225 -0.7584 -1.5043
 8430TIP3    H246706   2.197   1.244  15.044  0.1250 -0.9656 -0.6354
 8431TIP3   OH246707   0.366   6.133   1.702 -0.3466  0.1614 -0.3788
 8431TIP3    H146708   0.388   6.222   1.731 -1.8808  0.6207 -0.5117
 8431TIP3    H246709   0.333   6.144   1.613 -0.4249 -0.5545 -0.4432
 8432TIP3   OH246710   6.247   1.942   1.807 -0.1674  0.0022 -0.2953
 8432TIP3    H146711   6.176   1.881   1.784  0.9103 -0.3579 -3.0753
 8432TIP3    H246712   6.249   1.941   1.902 -4.4716  0.7511 -0.0066
 8433TIP3   OH246713   2.779   5.582  12.343 -0.5322  0.0826  0.4160
 8433TIP3    H146714   2.790   5.508  12.403 -1.6411 -0.3430  0.1180
 8433TIP3    H246715   2.814   5.551  12.260 -0.5022  0.0895  0.4256
 8434TIP3   OH246716   3.357   6.176   1.592  0.1287 -0.4164 -0.0129
 8434TIP3    H146717   3.399   6.118   1.655  2.4143  1.9313  0.7857
 8434TIP3    H246718   3.279   6.207   1.638  1.3085  0.5947  1.4058
 8435TIP3   OH246719   5.889   4.567   4.533  0.0461 -0.2619  0.4743
 8435TIP3    H146720   5.910   4.606   4.618  1.4291 -0.0257  0.0513
 8435TIP3    H246721   5.970   4.525   4.505 -0.1091  0.4245 -1.1327
 8436TIP3   OH246722   0.560   2.588  14.947 -0.1938 -0.3997  0.5989
 8436TIP3    H146723   0.467   2.584  14.970  0.1741  0.1308  2.2834
 8436TIP3    H246724   0.572   2.676  14.911 -0.4524 -0.6999 -0.2633
 8437TIP3   OH246725   5.943   0.924  15.759 -0.2170  0.3609 -0.2511
 8437TIP3    H146726   5.849   0.929  15.743 -0.3398  0.1726  0.3776
 8437TIP3    H246727   5.978   0.873  15.686 -0.7267 -0.3345 -0.0122
 8438TIP3   OH246728   2.724   0.909  15.573 -0.5900 -0.0615 -0.5480
 8438TIP3    H146729   2.679   0.990  15.598 -1.3925 -0.3275 -1.1029
 8438TIP3    H246730   2.804   0.909  15.626 -1.4349  0.2171  0.7949
 8439TIP3   OH246731   2.014   0.606  11.329  0.0137  0.6708 -0.8772
 8439TIP3    H146732   2.061   0.670  11.275  0.1000  0.1149 -1.4652
 8439TIP3    H246733   1.950   0.659  11.378  1.0806  1.4059 -0.2337
 8440TIP3   OH246734   6.371   0.695  12.929  0.4040 -0.0422  0.2814
 8440TIP3    H146735   6.407   0.616  12.968 -0.8645 -0.4448  0.7008
 8440TIP3    H246736   6.389   0.686  12.836 -0.6177 -1.3585  0.1709
 8441TIP3   OH246737   4.544   6.606  14.987 -0.3120 -0.0038 -0.1171
 8441TIP3    H146738   4.555   6.698  14.960  1.5621 -0.2623 -0.3287
 8441TIP3    H246739   4.514   6.611  15.077 -0.3236  0.8253 -0.1563
 8442TIP3   OH246740   0.790   5.226   2.294  0.4944  0.0581 -0.2131
 8442TIP3    H146741   0.803   5.320   2.307 -2.5918  0.6984 -1.0556
 8442TIP3    H246742   0.763   5.218   2.202 -2.7503 -1.1035  0.7119
 8443TIP3   OH246743   0.228   0.276   3.639 -0.0522  0.3391 -0.3993
 8443TIP3    H146744   0.215   0.301   3.731 -0.0778  0.7289 -0.5059
 8443TIP3    H246745   0.280   0.348   3.602  0.4125 -0.0747 -0.5561
 8444TIP3   OH246746   3.225   3.047   5.802 -0.4499  0.0079 -0.8554
 8444TIP3    H146747   3.166   3.003   5.741 -0.4311 -1.6324  0.2427
 8444TIP3    H246748   3.287   3.094   5.746 -0.0308 -1.9705 -2.1534
 8445TIP3   OH246749   5.743   2.369   4.839 -0.6649 -0.2400  0.1289
 8445TIP3    H146750   5.824   2.401   4.798 -2.0929  1.9760 -1.1949
 8445TIP3    H246751   5.770   2.342   4.926  1.3944  1.1635  0.0157
 8446TIP3   OH246752   4.999   3.839  14.216  0.5345 -0.4842  0.6527
 8446TIP3    H146753   5.088   3.868  14.201  0.2008  1.4983  2.0531
 8446TIP3    H246754   4.964   3.820  14.129  2.2967 -1.3397  0.0876
 8447TIP3   OH246755   4.909   0.703  12.418  0.3062  0.1409 -0.3686
 8447TIP3    H146756   4.987   0.647  12.428  0.5114  0.1735 -1.5790
 8447TIP3    H246757   4.865   0.698  12.503  2.3896  1.2915  0.8603
 8448TIP3   OH246758   5.197   3.558   3.783 -0.2590 -0.0565 -0.0246
 8448TIP3    H146759   5.166   3.469   3.797  1.4292 -0.4038  2.1314
 8448TIP3    H246760   5.279   3.547   3.734  0.1838  0.2565  0.6325
 8449TIP3   OH246761   2.429   5.937   2.016  0.3301  0.0998 -0.3164
 8449TIP3    H146762   2.430   5.954   2.111 -0.2984 -0.1081 -0.2722
 8449TIP3    H246763   2.378   5.857   2.006 -2.4235  1.8090 -1.0937
 8450TIP3   OH246764   2.443   5.761  11.991  0.1928  0.3117  0.1974
 8450TIP3    H146765   2.467   5.686  11.936  0.3767  1.3972 -1.2550
 8450TIP3    H246766   2.453   5.837  11.934 -1.7130  1.2994  1.0822
 8451TIP3   OH246767   1.172   2.362  13.176 -0.3255 -0.4565  0.0393
 8451TIP3    H146768   1.168   2.424  13.103 -0.7652  0.9562  1.2114
 8451TIP3    H246769   1.259   2.376  13.214  0.3097 -1.9239 -0.7927
 8452TIP3   OH246770   6.062   3.576   5.366  0.2978  0.4494  0.1611
 8452TIP3    H146771   6.002   3.570   5.441 -1.8883  3.1567 -1.1802
 8452TIP3    H246772   6.040   3.501   5.312  0.9532 -0.7849  1.5356
 8453TIP3   OH246773   4.629   0.871  16.762  0.2228 -0.3458 -0.2963
 8453TIP3    H146774   4.569   0.799  16.743  0.3662 -0.5382 -0.0336
 8453TIP3    H246775   4.620   0.886  16.856 -0.1571  0.3047 -0.4299
 8454TIP3   OH246776   2.904   2.877  13.647 -0.1680  0.0046 -0.6052
 8454TIP3    H146777   2.850   2.889  13.569 -1.7309  1.3753  0.6059
 8454TIP3    H246778   2.899   2.783  13.665 -1.6791  0.0032 -0.8863
 8455TIP3   OH246779   4.338   1.893   5.135  0.1531 -0.0416 -0.4135
 8455TIP3    H146780   4.296   1.876   5.050  0.6266 -0.0609 -0.6425
 8455TIP3    H246781   4.273   1.945   5.183 -0.1173 -0.0290 -0.7851
 8456TIP3   OH246782   1.633   2.422   1.910 -0.0467  0.3761  0.4842
 8456TIP3    H146783   1.685   2.365   1.966 -0.2105  0.2881  0.5490
 8456TIP3    H246784   1.551   2.434   1.957  0.3272  1.4162  0.9004
 8457TIP3   OH246785   2.950   5.473  13.646 -0.1959  0.0612  0.2943
 8457TIP3    H146786   3.011   5.403  13.621 -0.7147 -0.8117  1.3755
 8457TIP3    H246787   2.865   5.429  13.654 -1.0732  1.3200 -1.5126
 8458TIP3   OH246788   2.251   5.373  12.572 -0.3411  0.3485  0.2584
 8458TIP3    H146789   2.223   5.429  12.499 -2.3016 -1.3425 -0.3976
 8458TIP3    H246790   2.300   5.431  12.629 -1.2838  2.4549 -0.9405
 8459TIP3   OH246791   4.141   2.638   3.804 -0.1867  0.4069  0.4095
 8459TIP3    H146792   4.233   2.612   3.801 -0.4861 -0.6842 -3.3364
 8459TIP3    H246793   4.093   2.555   3.809 -1.0006  0.8972  0.8781
 8460TIP3   OH246794   5.101   5.684   2.443  0.1135 -0.1751 -0.0486
 8460TIP3    H146795   5.081   5.772   2.411  1.5518  0.6518  1.2119
 8460TIP3    H246796   5.044   5.672   2.519  1.4037  0.5389  1.0579
 8461TIP3   OH246797   1.899   6.607   3.740  0.3726  0.2731  0.1853
 8461TIP3    H146798   1.901   6.700   3.762  0.0857  0.1747  0.6330
 8461TIP3    H246799   1.861   6.604   3.653  1.6767  0.6811 -0.4301
 8462TIP3   OH246800   5.238   6.010  16.845 -0.2880  0.1442 -0.6312
 8462TIP3    H146801   5.292   6.013  16.766 -0.3786  2.1677 -0.6767
 8462TIP3    H246802   5.281   5.945  16.901  0.1880 -0.7989 -2.0357
 8463TIP3   OH246803   2.322   1.401   3.156 -0.1417 -0.3859 -0.1258
 8463TIP3    H146804   2.363   1.486   3.138 -1.0892  0.1510  0.1935
 8463TIP3    H246805   2.376   1.362   3.224 -1.9756  1.8085  2.8480
 8464TIP3   OH246806   2.575   2.770   1.350 -0.0764 -0.1373 -0.4833
 8464TIP3    H146807   2.589   2.805   1.263  1.9486  1.0363  0.2580
 8464TIP3    H246808   2.599   2.677   1.343  3.2534  0.6027 -0.5604
 8465TIP3   OH246809   1.464   1.920   3.150  0.3645  0.2471  0.2547
 8465TIP3    H146810   1.501   1.838   3.119 -0.1592 -0.2678  0.9700
 8465TIP3    H246811   1.386   1.934   3.096  0.4708  0.2910  0.1127
 8466TIP3   OH246812   3.392   5.101  12.210 -0.6652  0.4657 -0.2189
 8466TIP3    H146813   3.481   5.107  12.245 -0.1910 -1.1102 -1.0302
 8466TIP3    H246814   3.341   5.064  12.282  0.0244 -1.4995 -0.6690
 8467TIP3   OH246815   5.960   0.754   1.235 -0.1159  0.0399 -0.4306
 8467TIP3    H146816   6.018   0.685   1.267  1.0059  1.0561 -0.1970
 8467TIP3    H246817   5.962   0.745   1.140  1.8334  1.1062 -0.5454
 8468TIP3   OH246818   0.555   1.987   0.368 -0.1052 -0.5127 -0.5967
 8468TIP3    H146819   0.476   1.975   0.420  0.8630 -2.5387  0.5317
 8468TIP3    H246820   0.528   1.966   0.278 -0.8803 -1.1896 -0.2193
 8469TIP3   OH246821   5.468   0.614   4.693 -0.9665  0.1335 -0.0896
 8469TIP3    H146822   5.490   0.704   4.713 -1.3329  0.1458  0.2681
 8469TIP3    H246823   5.396   0.592   4.753 -0.6127 -0.5242  0.1093
 8470TIP3   OH246824   2.224   3.158  17.251 -0.2942 -0.5400  0.4570
 8470TIP3    H146825   2.293   3.200  17.302  0.4709 -0.9483 -0.2077
 8470TIP3    H246826   2.239   3.187  17.161 -3.1607  2.2586  0.6985
 8471TIP3   OH246827   4.232   1.654  12.901  0.2723 -0.3905 -0.3582
 8471TIP3    H146828   4.275   1.585  12.953  0.2321 -0.2903 -0.1914
 8471TIP3    H246829   4.178   1.606  12.838 -1.6286 -0.5369  1.2684
 8472TIP3   OH246830   1.563   0.739   4.777  0.1832 -0.3633  0.1094
 8472TIP3    H146831   1.631   0.804   4.763  0.2823 -0.4381  0.2431
 8472TIP3    H246832   1.572   0.712   4.868  0.6245 -1.1015 -0.1414
 8473TIP3   OH246833   6.019   4.749   1.000  0.2888 -0.4144  0.2777
 8473TIP3    H146834   5.943   4.706   1.039  0.5684 -0.4077  0.8444
 8473TIP3    H246835   6.059   4.681   0.945 -1.2541  0.1716 -1.6609
 8474TIP3   OH246836   1.518   1.871   5.080  1.1657 -0.2510  0.4427
 8474TIP3    H146837   1.512   1.882   5.175 -2.4259  0.5281  0.2803
 8474TIP3    H246838   1.490   1.781   5.064 -1.2675  0.4677  0.1000
 8475TIP3   OH246839   3.895   6.401   4.394  0.1377 -0.3894 -0.2453
 8475TIP3    H146840   3.919   6.446   4.313  0.3471  2.1064  1.0965
 8475TIP3    H246841   3.952   6.439   4.461 -2.4842  0.3997  1.7234
 8476TIP3   OH246842   2.777   0.288   0.608  0.1119  0.1151  0.5970
 8476TIP3    H146843   2.856   0.262   0.560 -0.4619 -1.0374  0.2362
 8476TIP3    H246844   2.736   0.354   0.552 -0.6723 -1.3819 -0.6974
 8477TIP3   OH246845   4.895   4.808   6.430 -0.0544  0.4328 -0.1445
 8477TIP3    H146846   4.873   4.789   6.339  0.2613  0.4825 -0.2346
 8477TIP3    H246847   4.818   4.852   6.466  0.2465  1.4512 -0.7129
 8478TIP3   OH246848   3.000   4.074   0.097 -0.4924  0.2115  0.2520
 8478TIP3    H146849   3.061   4.093   0.026  0.6638  0.1153  1.1911
 8478TIP3    H246850   2.930   4.025   0.056  0.5416 -0.5157 -0.7012
 8479TIP3   OH246851   0.470   4.947  11.697 -0.5708 -0.0261  0.1903
 8479TIP3    H146852   0.563   4.933  11.681 -0.6116  0.3832 -0.4375
 8479TIP3    H246853   0.458   5.042  11.688 -1.2244 -0.1826 -0.7207
 8480TIP3   OH246854   6.518   5.265   5.146  0.2400  0.4050  0.0231
 8480TIP3    H146855   6.551   5.176   5.138 -1.4432 -0.2343 -0.1119
 8480TIP3    H246856   6.541   5.307   5.063  1.3460  0.2263  0.2253
 8481TIP3   OH246857   1.686   1.965  12.260 -0.1492 -0.1244 -0.7880
 8481TIP3    H146858   1.666   1.877  12.229  0.6991 -0.6325  0.0491
 8481TIP3    H246859   1.711   1.953  12.351 -3.3010  1.4157  0.4298
 8482TIP3   OH246860   5.550   4.849  12.600  0.1501  0.4262  0.4287
 8482TIP3    H146861   5.477   4.902  12.568  1.0086  1.3072 -0.1352
 8482TIP3    H246862   5.569   4.886  12.687 -0.3140 -0.0658  0.7486
 8483TIP3   OH246863   3.378   5.369  15.845 -0.5154 -0.0050  0.3974
 8483TIP3    H146864   3.464   5.396  15.815 -0.5947  0.5849  0.6849
 8483TIP3    H246865   3.368   5.280  15.812 -0.9291  0.8521 -1.9864
 8484TIP3   OH246866   5.971   5.542   0.026  0.2297 -0.1489 -0.0947
 8484TIP3    H146867   5.878   5.530   0.004  0.2794  0.1129 -0.4536
 8484TIP3    H246868   5.986   5.636   0.015  0.6369 -0.2524 -0.4167
 8485TIP3   OH246869   6.199   2.891   3.466 -0.7989  0.3275 -0.2226
 8485TIP3    H146870   6.240   2.959   3.413 -0.2265  0.4949  0.4234
 8485TIP3    H246871   6.259   2.878   3.540 -1.2848 -0.3241  0.0707
 8486TIP3   OH246872   4.436   1.399   3.102 -0.3406 -0.3505 -0.4254
 8486TIP3    H146873   4.487   1.319   3.098  0.8699  0.4235 -1.3094
 8486TIP3    H246874   4.348   1.374   3.075 -0.4656 -1.7132  1.1161
 8487TIP3   OH246875   6.381   3.179  12.947  0.0041 -0.5808 -0.4430
 8487TIP3    H146876   6.354   3.156  12.858 -0.6737 -2.2610  0.1596
 8487TIP3    H246877   6.310   3.234  12.980  0.8505  1.1380 -1.3240
 8488TIP3   OH246878   2.690   6.521   4.400 -0.4129 -0.1272  0.4811
 8488TIP3    H146879   2.714   6.480   4.484 -1.1202 -0.6117  0.4548
 8488TIP3    H246880   2.692   6.615   4.418  1.5989 -0.1219  0.4430
 8489TIP3   OH246881   0.588   1.027   0.946 -0.1873  0.2422  0.6646
 8489TIP3    H146882   0.541   1.004   0.866 -0.9105 -1.2941  1.4823
 8489TIP3    H246883   0.519   1.044   1.010  0.3289 -0.8841  1.5677
 8490TIP3   OH246884   2.245   5.193   5.410  0.5232 -0.0169 -0.8751
 8490TIP3    H146885   2.296   5.262   5.369  0.2883  0.0202 -1.1055
 8490TIP3    H246886   2.303   5.157   5.477  0.4803  0.6957 -0.4582
 8491TIP3   OH246887   0.324   1.041  11.135 -0.2042  0.3605  0.2809
 8491TIP3    H146888   0.249   1.063  11.079  1.5233  0.4886 -2.1107
 8491TIP3    H246889   0.284   1.014  11.218 -2.8349  1.5681 -0.4851
 8492TIP3   OH246890   0.875   0.712  12.146 -0.6584 -0.0134  0.1589
 8492TIP3    H146891   0.944   0.746  12.088  0.2318 -1.2022  0.4840
 8492TIP3    H246892   0.800   0.699  12.088 -0.6820  1.3995 -0.1783
 8493TIP3   OH246893   0.534   4.952  17.225  0.7926  0.0467  0.3238
 8493TIP3    H146894   0.439   4.951  17.232  0.8739  0.9138  2.6996
 8493TIP3    H246895   0.557   5.045  17.225  1.6186 -0.0930 -1.8864
 8494TIP3   OH246896   1.560   3.776   5.086  0.0367 -0.0060 -0.0873
 8494TIP3    H146897   1.600   3.798   5.002  0.3579  0.1812  0.1142
 8494TIP3    H246898   1.477   3.823   5.086  0.2197  0.3225 -0.1315
 8495TIP3   OH246899   6.440   2.489   4.953 -0.5288 -0.1212  0.5764
 8495TIP3    H146900   6.380   2.482   4.880  1.8031 -3.4459 -1.2915
 8495TIP3    H246901   6.527   2.493   4.913  0.7915 -0.9652  3.1188
 8496TIP3   OH246902   0.249   6.270  17.019  0.0816  0.5292 -0.6015
 8496TIP3    H146903   0.201   6.346  16.986 -0.6968  1.2347  1.8742
 8496TIP3    H246904   0.208   6.252  17.104  2.1001 -0.9124  0.1409
 8497TIP3   OH246905   6.099   6.362   4.499 -0.2374  0.0057 -0.1347
 8497TIP3    H146906   6.041   6.422   4.545 -0.5766  0.6497 -1.3560
 8497TIP3    H246907   6.181   6.365   4.549 -0.8061  0.1337  0.8170
 8498TIP3   OH246908   5.291   4.365  16.698  0.1358  0.2592 -0.2015
 8498TIP3    H146909   5.274   4.288  16.644 -1.8903  0.2195  0.4178
 8498TIP3    H246910   5.382   4.387  16.680  0.7985 -2.2874 -0.3873
 8499TIP3   OH246911   0.348   3.065   4.492 -0.4145 -0.3560 -0.3452
 8499TIP3    H146912   0.406   3.111   4.553 -0.6933  0.6829 -0.8346
 8499TIP3    H246913   0.401   3.052   4.413 -0.6544  0.0857 -0.5857
 8500TIP3   OH246914   0.706   4.404  14.530  0.3594  0.1766  0.0993
 8500TIP3    H146915   0.625   4.369  14.493  0.6503  0.2940 -0.6536
 8500TIP3    H246916   0.692   4.402  14.625 -0.6373  0.4876 -0.0409
 8501TIP3   OH246917   1.279   6.045  11.886 -0.3844 -0.0269  0.5651
 8501TIP3    H146918   1.282   6.082  11.798  0.5513 -1.2175  0.0628
 8501TIP3    H246919   1.238   6.113  11.940 -0.9991  0.7083 -0.7868
 8502TIP3   OH246920   1.222   2.368  17.060 -0.2903 -0.7511  0.3857
 8502TIP3    H146921   1.231   2.279  17.093 -1.8056 -0.6683  1.0885
 8502TIP3    H246922   1.312   2.396  17.043  0.5187 -1.2531  3.2530
 8503TIP3   OH246923   5.586   1.186   4.979 -0.4628 -0.0435  0.0083
 8503TIP3    H146924   5.530   1.258   4.950 -0.6484 -0.6612 -1.1939
 8503TIP3    H246925   5.589   1.125   4.905  0.4465 -0.8314  0.6608
 8504TIP3   OH246926   4.614   1.844   3.899 -0.2652  0.5145 -0.5049
 8504TIP3    H146927   4.650   1.809   3.981  0.6973  0.8485 -0.7821
 8504TIP3    H246928   4.690   1.863   3.845 -0.8610  1.1812 -1.1241
 8505TIP3   OH246929   3.529   4.845   2.854  0.0386  0.0577  0.8092
 8505TIP3    H146930   3.571   4.769   2.896  1.0089 -0.4218 -0.8992
 8505TIP3    H246931   3.512   4.906   2.926 -0.6504 -1.7120  2.2216
 8506TIP3   OH246932   3.684   2.014  16.724  0.4864 -0.1112  0.0504
 8506TIP3    H146933   3.707   1.945  16.787  0.0386  1.3274  1.8630
 8506TIP3    H246934   3.595   1.992  16.697 -0.5308  0.9153  2.3564
 8507TIP3   OH246935   6.618   0.888  16.947 -0.1518 -0.3247 -0.0666
 8507TIP3    H146936   6.652   0.910  17.034  1.1505  0.0970 -0.6675
 8507TIP3    H246937   6.683   0.921  16.886 -0.8089 -1.0567 -1.2032
 8508TIP3   OH246938   3.256   0.442  16.884 -0.7096  0.7335  0.3412
 8508TIP3    H146939   3.173   0.426  16.838 -0.9773  0.2500  0.9820
 8508TIP3    H246940   3.291   0.521  16.842  0.0064 -0.7107 -2.0211
 8509TIP3   OH246941   3.153   0.451   3.127 -0.1172  0.6932  0.1795
 8509TIP3    H146942   3.083   0.516   3.138 -1.0677  0.4471 -3.3074
 8509TIP3    H246943   3.230   0.492   3.167 -1.5630  2.2281  1.5486
 8510TIP3   OH246944   6.171   3.016   5.288  0.3060  0.5819  0.7384
 8510TIP3    H146945   6.167   2.932   5.241  0.2372  0.6992  0.5329
 8510TIP3    H246946   6.199   2.992   5.376 -0.2628  0.2816  0.8437
 8511TIP3   OH246947   6.599   4.503   3.341 -0.5040 -0.3032 -0.1270
 8511TIP3    H146948   6.694   4.501   3.329 -0.3340  1.7967  0.6037
 8511TIP3    H246949   6.567   4.555   3.267 -0.9009  0.3931  0.5231
 8512TIP3   OH246950   5.907   5.164   5.894  0.1287  1.0406  0.1226
 8512TIP3    H146951   5.997   5.172   5.861  0.1664  2.4486  0.4967
 8512TIP3    H246952   5.918   5.126   5.982  0.3954  1.5479  0.3138
 8513TIP3   OH246953   4.921   5.050   5.970 -0.3817 -0.0462 -0.4611
 8513TIP3    H146954   4.932   4.981   5.905 -0.5072 -1.5675  1.0787
 8513TIP3    H246955   5.009   5.087   5.981 -0.3625  0.2527 -1.4722
 8514TIP3   OH246956   3.592   4.194  13.888  0.4114  0.5212  0.6516
 8514TIP3    H146957   3.651   4.270  13.884  0.8282  0.1951  0.4390
 8514TIP3    H246958   3.512   4.227  13.927  1.0308  0.7932  1.7252
 8515TIP3   OH246959   3.227   4.144  13.069 -0.2421  0.6343 -0.1973
 8515TIP3    H146960   3.297   4.181  13.015  0.2784  0.7226  0.5269
 8515TIP3    H246961   3.157   4.124  13.007  0.2995  0.8459 -0.8866
 8516TIP3   OH246962   6.170   6.322  15.717 -0.1680 -0.1760  0.0911
 8516TIP3    H146963   6.259   6.317  15.681 -0.1701 -1.5104  0.2381
 8516TIP3    H246964   6.133   6.236  15.700 -1.1627  0.1117  0.7696
 8517TIP3   OH246965   6.301   5.836  12.876  0.2077 -0.2356  0.4140
 8517TIP3    H146966   6.217   5.874  12.851 -0.5722 -0.7909  2.0673
 8517TIP3    H246967   6.329   5.786  12.799 -0.6601  0.4436 -0.3678
 8518TIP3   OH246968   4.173   4.477   3.580  0.7027 -0.2521  0.3524
 8518TIP3    H146969   4.079   4.499   3.576  0.3477 -1.7433  0.0241
 8518TIP3    H246970   4.179   4.410   3.648  1.5801  0.0114  0.5428
 8519TIP3   OH246971   5.267   2.836   0.189  0.2293 -0.0190 -0.3072
 8519TIP3    H146972   5.340   2.797   0.143 -0.9934 -2.2342 -0.5219
 8519TIP3    H246973   5.269   2.796   0.276 -0.6121 -0.0118 -0.2683
 8520TIP3   OH246974   4.271   1.004   0.968  0.1304  0.0984 -0.5380
 8520TIP3    H146975   4.201   0.963   1.020  0.7487 -1.7227 -1.0709
 8520TIP3    H246976   4.270   1.095   0.996 -3.9789  0.7623 -2.1235
 8521TIP3   OH246977   6.520   4.074  16.136 -0.3507  0.6967 -0.0863
 8521TIP3    H146978   6.553   4.124  16.062 -3.7148  1.8168 -1.0129
 8521TIP3    H246979   6.544   3.983  16.116  1.5062  1.3255 -0.9126
 8522TIP3   OH246980   1.477   1.803  17.261 -0.3913  0.3004  0.4156
 8522TIP3    H146981   1.405   1.858  17.291 -0.2109  0.1357  1.1701
 8522TIP3    H246982   1.543   1.811  17.330 -0.0582 -0.2587  0.1661
 8523TIP3   OH246983   4.793   3.309   4.470  0.0175 -0.2031 -0.1651
 8523TIP3    H146984   4.853   3.383   4.457 -0.4178  0.0819 -0.5861
 8523TIP3    H246985   4.834   3.258   4.540 -0.7870  1.6303  1.7561
 8524TIP3   OH246986   0.254   0.482   6.387  0.1998 -0.2579  0.7984
 8524TIP3    H146987   0.345   0.513   6.390  0.0272  0.5843 -1.3164
 8524TIP3    H246988   0.203   0.561   6.367 -0.9481 -0.8348  1.3673
 8525TIP3   OH246989   1.850   4.462  11.408 -0.4412  0.2855  0.3505
 8525TIP3    H146990   1.888   4.549  11.396  1.1114 -0.4873 -0.6712
 8525TIP3    H246991   1.792   4.451  11.332 -1.4193  0.7988  1.0089
 8526TIP3   OH246992   5.829   3.603  14.396 -0.0472 -0.4809 -0.1780
 8526TIP3    H146993   5.903   3.652  14.358 -0.6043  1.1002  0.6809
 8526TIP3    H246994   5.871   3.534  14.447  0.8948  0.5835  0.5623
 8527TIP3   OH246995   1.944   4.424  14.845  0.1116  0.2003  0.3763
 8527TIP3    H146996   1.979   4.342  14.881 -0.6380  0.0122  0.6854
 8527TIP3    H246997   2.022   4.470  14.811  0.5738 -0.5059  0.4512
 8528TIP3   OH246998   6.088   5.605  14.536 -0.4094 -0.0351  0.4617
 8528TIP3    H146999   6.171   5.592  14.490 -0.5093 -0.7780  0.4800
 8528TIP3    H247000   6.021   5.592  14.468 -0.5245  0.2114  0.5265
 8529TIP3   OH247001   3.354   2.765   1.251  0.3737 -0.2077 -0.2132
 8529TIP3    H147002   3.348   2.689   1.193  2.9219  0.3358 -1.3226
 8529TIP3    H247003   3.382   2.837   1.195 -1.5440  1.5002  0.8955
 8530TIP3   OH247004   5.581   5.499   5.712 -0.8069  0.9108 -0.6692
 8530TIP3    H147005   5.622   5.533   5.632 -0.9255  1.7831 -0.3646
 8530TIP3    H247006   5.648   5.511   5.779  0.0621 -1.6042 -0.9565
 8531TIP3   OH247007   5.224   2.803   5.414  0.7417  0.9799  0.5972
 8531TIP3    H147008   5.173   2.853   5.478  0.4579  1.5391 -0.0525
 8531TIP3    H247009   5.249   2.867   5.347  0.3667  0.2607 -0.2609
 8532TIP3   OH247010   3.499   1.631   6.246  0.3881 -0.1643 -0.1375
 8532TIP3    H147011   3.540   1.545   6.247  0.1390 -0.2835  0.1628
 8532TIP3    H247012   3.429   1.624   6.181 -0.5987 -0.6585  0.9421
 8533TIP3   OH247013   6.235   2.408   1.824  0.6080  0.1947 -0.1332
 8533TIP3    H147014   6.185   2.358   1.759  1.1521 -1.3663  0.5937
 8533TIP3    H247015   6.233   2.498   1.792 -0.3279 -0.2954 -1.5551
 8534TIP3   OH247016   3.576   6.069  12.041  0.6033 -0.0842  0.3132
 8534TIP3    H147017   3.601   6.066  12.133  1.7848 -1.2416 -0.0120
 8534TIP3    H247018   3.500   6.128  12.038 -0.1534 -0.8958  2.1780
 8535TIP3   OH247019   0.812   6.552   4.688 -0.0941 -0.3272  0.1537
 8535TIP3    H147020   0.842   6.588   4.605  0.2769  1.8399  1.1421
 8535TIP3    H247021   0.889   6.556   4.745 -1.0530  1.0558  1.4236
 8536TIP3   OH247022   4.442   4.727  16.420 -0.7097  0.1204 -0.7942
 8536TIP3    H147023   4.351   4.738  16.394 -0.7613  2.0777  0.0180
 8536TIP3    H247024   4.485   4.809  16.395  0.6272 -0.4129 -0.3724
 8537TIP3   OH247025   4.197   2.878  12.571  0.6918 -0.2940 -0.2897
 8537TIP3    H147026   4.257   2.901  12.500  1.7128  0.0440  0.6563
 8537TIP3    H247027   4.113   2.863  12.528  1.1245  0.5937 -1.4884
 8538TIP3   OH247028   6.167   5.044  16.825 -0.0350 -0.0875  0.4515
 8538TIP3    H147029   6.161   5.090  16.742 -0.2844 -1.6605 -0.4520
 8538TIP3    H247030   6.101   4.974  16.818  2.3037 -2.4582  0.4489
 8539TIP3   OH247031   0.843   4.268   3.883 -0.3212 -0.0135 -0.8621
 8539TIP3    H147032   0.907   4.197   3.888  0.7838  1.0175  0.3754
 8539TIP3    H247033   0.788   4.255   3.960  0.7611  1.2299  0.1700
 8540TIP3   OH247034   4.421   0.500  17.159  0.2219 -0.0132 -0.1726
 8540TIP3    H147035   4.373   0.422  17.188 -0.3282 -0.6352 -2.5981
 8540TIP3    H247036   4.354   0.569  17.156 -0.0111 -0.2774 -1.2038
 8541TIP3   OH247037   3.117   4.014   4.539 -0.5333  0.0803  0.1225
 8541TIP3    H147038   3.060   4.019   4.462 -1.4215  0.0430  0.7768
 8541TIP3    H247039   3.206   4.022   4.502 -0.9876  1.2545 -0.7807
 8542TIP3   OH247040   6.061   2.203  17.332 -0.4494 -0.1384  0.0439
 8542TIP3    H147041   6.134   2.264  17.339  0.5416 -1.3751  0.9533
 8542TIP3    H247042   6.100   2.124  17.295 -1.4682 -0.6024 -0.0521
 8543TIP3   OH247043   5.690   6.095  12.982 -0.2164 -0.0389 -0.0945
 8543TIP3    H147044   5.680   6.101  13.077 -0.1563  2.2126 -0.1743
 8543TIP3    H247045   5.661   6.007  12.960 -1.5484 -0.1399  1.8540
 8544TIP3   OH247046   4.089   0.315  12.219 -0.2983  0.4506  0.6627
 8544TIP3    H147047   4.018   0.343  12.277 -0.9528  0.8513 -0.3088
 8544TIP3    H247048   4.089   0.380  12.148 -1.9169 -1.9301 -1.7444
 8545TIP3   OH247049   0.295   6.656  14.683 -0.2466  0.1024  0.6830
 8545TIP3    H147050   0.343   6.574  14.684  0.5995  0.5839  1.4395
 8545TIP3    H247051   0.284   6.677  14.590  2.6173  0.8587  0.3986
 8546TIP3   OH247052   0.108   5.872   2.582 -0.2102  0.6499 -0.3333
 8546TIP3    H147053   0.151   5.883   2.497 -1.7549 -1.7864 -1.5206
 8546TIP3    H247054   0.154   5.799   2.623 -1.2190 -0.0012 -0.3203
 8547TIP3   OH247055   1.807   3.943  15.658  0.0716 -0.1966  0.3083
 8547TIP3    H147056   1.739   3.905  15.602 -0.0552  0.9013 -0.3062
 8547TIP3    H247057   1.776   4.031  15.677 -0.1392 -0.7023  2.5650
 8548TIP3   OH247058   4.705   1.789  13.159 -0.8791 -0.7587 -0.0377
 8548TIP3    H147059   4.710   1.697  13.131  2.3579 -0.4552 -0.7994
 8548TIP3    H247060   4.773   1.833  13.109  0.1978  1.3157  2.9566
 8549TIP3   OH247061   4.943   6.063   5.662  0.3991 -0.0636 -0.4618
 8549TIP3    H147062   4.977   6.122   5.594 -2.6491 -0.1398 -2.2693
 8549TIP3    H247063   4.976   6.099   5.744  1.2728  2.2590 -1.7285
 8550TIP3   OH247064   5.484   6.328  15.536  0.3804 -0.2367 -0.2444
 8550TIP3    H147065   5.442   6.248  15.505  1.6442 -2.4584  3.2329
 8550TIP3    H247066   5.412   6.383  15.565 -0.4605 -0.3536 -1.9571
 8551TIP3   OH247067   1.121   3.603   0.594 -0.7400  0.5887  0.5519
 8551TIP3    H147068   1.170   3.524   0.614 -1.6135 -0.4649 -1.1749
 8551TIP3    H247069   1.035   3.590   0.634 -1.4985 -0.2166 -1.2072
 8552TIP3   OH247070   3.841   3.520   5.185 -0.0032  0.3788  0.1503
 8552TIP3    H147071   3.888   3.547   5.106 -2.1560  2.0165 -0.6924
 8552TIP3    H247072   3.789   3.445   5.157 -1.4085  1.4675 -0.3213
 8553TIP3   OH247073   4.419   4.898  15.691 -0.5045  0.1414 -0.0005
 8553TIP3    H147074   4.333   4.935  15.709 -0.1988  0.6881  0.3469
 8553TIP3    H247075   4.473   4.923  15.766 -0.3371 -1.1976  0.3522
 8554TIP3   OH247076   1.478   4.402  15.863  0.1924 -0.1160 -0.1849
 8554TIP3    H147077   1.536   4.412  15.788 -0.4844 -2.6693 -1.1477
 8554TIP3    H247078   1.470   4.491  15.900  2.3322  0.7974 -1.7410
 8555TIP3   OH247079   6.748   1.930  15.618 -0.3957  0.2865  0.2921
 8555TIP3    H147080   6.759   1.946  15.524  1.2062  0.3705  0.4669
 8555TIP3    H247081   6.713   2.012  15.652  1.5990  1.2669  0.1559
 8556TIP3   OH247082   5.516   4.518   2.965 -0.0725  0.1743  0.2239
 8556TIP3    H147083   5.541   4.426   2.974 -1.1496 -0.1747 -0.1929
 8556TIP3    H247084   5.446   4.531   3.029 -0.2593  0.5715 -0.0515
 8557TIP3   OH247085   4.192   5.255  14.033 -0.2620 -0.4077  0.8973
 8557TIP3    H147086   4.232   5.331  13.990 -0.2390 -0.7018  0.3900
 8557TIP3    H247087   4.259   5.225  14.095  0.1200 -0.6044  0.3983
 8558TIP3   OH247088   3.504   6.130   1.360 -0.3016  0.7262 -0.3766
 8558TIP3    H147089   3.449   6.109   1.284  0.4655 -1.7274 -0.3161
 8558TIP3    H247090   3.443   6.135   1.433 -0.8126  1.2077 -0.8246
 8559TIP3   OH247091   1.610   3.561  13.575 -0.0207  0.7057 -0.1075
 8559TIP3    H147092   1.645   3.481  13.615 -0.9183 -0.5377 -1.6854
 8559TIP3    H247093   1.656   3.632  13.619  0.9810 -0.6825  1.1863
 8560TIP3   OH247094   2.091   4.154  16.302  0.3908 -0.2531  0.5144
 8560TIP3    H147095   2.021   4.105  16.345  0.7094 -1.3971 -0.2175
 8560TIP3    H247096   2.078   4.245  16.330 -0.7641 -0.6096  1.1906
 8561TIP3   OH247097   1.241   1.375  13.533  0.1244  0.3339  0.1730
 8561TIP3    H147098   1.254   1.447  13.594  0.1719 -0.3201  0.9520
 8561TIP3    H247099   1.236   1.417  13.447  1.3345  1.1526  0.4790
 8562TIP3   OH247100   5.399   6.376   5.690 -0.2211 -0.5412  0.0040
 8562TIP3    H147101   5.329   6.380   5.755  0.7334  0.5694  1.0182
 8562TIP3    H247102   5.365   6.319   5.621 -1.1859 -1.9353  1.5659
 8563TIP3   OH247103   3.038   0.285  12.912  0.1390 -0.1001  0.2259
 8563TIP3    H147104   3.029   0.368  12.959 -1.5897  0.0461 -0.2954
 8563TIP3    H247105   3.041   0.311  12.819 -1.0541 -0.6196  0.0181
 8564TIP3   OH247106   5.509   4.607   1.297 -0.2891 -0.5121 -0.0053
 8564TIP3    H147107   5.576   4.624   1.364  0.3907  0.3027 -0.8672
 8564TIP3    H247108   5.426   4.621   1.342  0.0449 -2.3015  1.2991
 8565TIP3   OH247109   4.418   0.187   2.700  0.8961  0.1534  0.0944
 8565TIP3    H147110   4.443   0.273   2.734  3.2522  0.0478 -1.1754
 8565TIP3    H247111   4.436   0.192   2.606  1.7640 -1.9301  0.1005
 8566TIP3   OH247112   0.123   5.515   2.816  0.1865  0.1150  0.0090
 8566TIP3    H147113   0.207   5.540   2.777  0.6266 -0.8301  0.3151
 8566TIP3    H247114   0.133   5.535   2.909  0.6115 -1.2942  0.2895
 8567TIP3   OH247115   2.001   6.346   6.169 -0.3370  0.2340 -0.4141
 8567TIP3    H147116   2.078   6.375   6.219 -0.0941 -1.2042  0.1016
 8567TIP3    H247117   1.926   6.368   6.225 -0.1745  0.0221 -0.1101
 8568TIP3   OH247118   2.643   0.579   0.662 -0.4831  0.3999  0.4088
 8568TIP3    H147119   2.690   0.617   0.587  2.1157 -1.5944  0.8898
 8568TIP3    H247120   2.704   0.590   0.736 -3.1738  2.8155  2.5176
 8569TIP3   OH247121   0.936   0.217  14.044 -0.5089 -0.2474  0.1464
 8569TIP3    H147122   0.870   0.151  14.026  1.4338 -2.4550  0.6778
 8569TIP3    H247123   0.924   0.238  14.137 -1.1386  0.1838 -0.0281
 8570TIP3   OH247124   3.456   6.329  12.842  0.2213  0.1006  0.3237
 8570TIP3    H147125   3.477   6.314  12.934  1.4731  0.8243  0.1748
 8570TIP3    H247126   3.377   6.277  12.827  0.2067 -0.3195  1.7037
 8571TIP3   OH247127   3.432   2.480   0.223 -0.0589 -0.0308 -0.1177
 8571TIP3    H147128   3.459   2.503   0.134 -1.7302 -1.3569 -1.0302
 8571TIP3    H247129   3.489   2.408   0.247 -0.2647 -0.3396 -0.5336
 8572TIP3   OH247130   0.639   3.083  16.762  0.2093  0.1718  0.4481
 8572TIP3    H147131   0.592   3.076  16.845 -1.5519 -0.4515 -0.5504
 8572TIP3    H247132   0.604   3.162  16.721  0.9274  0.3686  0.1997
 8573TIP3   OH247133   1.712   0.612   6.816  0.0497  0.4000 -0.5291
 8573TIP3    H147134   1.755   0.542   6.865  0.7710  2.7563  2.4817
 8573TIP3    H247135   1.705   0.577   6.727  1.6496 -2.8965  0.4609
 8574TIP3   OH247136   5.896   4.650  15.407  0.0180  0.3550  0.2515
 8574TIP3    H147137   5.942   4.696  15.477  0.2658 -1.5624  1.3993
 8574TIP3    H247138   5.842   4.585  15.451 -0.2437 -0.5417 -1.2977
 8575TIP3   OH247139   2.938   6.055  13.561 -0.8710  0.2372 -0.3236
 8575TIP3    H147140   2.999   6.127  13.571 -1.4260  0.6376  0.1969
 8575TIP3    H247141   2.954   5.998  13.636 -1.5482  0.6561  0.1505
 8576TIP3   OH247142   4.094   0.353   2.429  0.1257 -0.3580  0.0409
 8576TIP3    H147143   4.063   0.280   2.483  3.1026 -0.0849  2.3609
 8576TIP3    H247144   4.188   0.339   2.422  0.7720  3.0263  0.2949
 8577TIP3   OH247145   1.770   6.404  15.189  0.1805  0.1822  0.1071
 8577TIP3    H147146   1.718   6.442  15.260  0.0793  0.5802 -0.1763
 8577TIP3    H247147   1.833   6.473  15.165 -0.0427  0.2000 -0.4523
 8578TIP3   OH247148   0.315   6.236   0.772 -0.5024  0.4374  0.4978
 8578TIP3    H147149   0.405   6.267   0.781 -0.5059  0.5142  0.2672
 8578TIP3    H247150   0.266   6.311   0.740 -0.3612  0.0028 -0.8120
 8579TIP3   OH247151   2.158   1.666   4.482  0.3810  0.2179  0.1142
 8579TIP3    H147152   2.067   1.659   4.509  0.7864  0.3052  1.5596
 8579TIP3    H247153   2.209   1.635   4.557  1.5475  0.3823 -0.5783
 8580TIP3   OH247154   3.008   0.165   4.050 -0.3457  0.6055 -0.3953
 8580TIP3    H147155   3.006   0.125   4.137 -3.4471 -0.5743 -0.8637
 8580TIP3    H247156   3.067   0.240   4.059  1.2660 -0.8126  2.0544
 8581TIP3   OH247157   0.968   3.279  11.891 -0.0694  0.6131 -0.4201
 8581TIP3    H147158   0.913   3.345  11.933 -0.5512 -0.8802  1.4561
 8581TIP3    H247159   1.057   3.300  11.920 -0.0834  1.0948 -0.7364
 8582TIP3   OH247160   6.255   4.600  16.005 -0.3577  0.6034  0.1311
 8582TIP3    H147161   6.205   4.611  15.925 -0.4980  2.8650  0.4801
 8582TIP3    H247162   6.346   4.598  15.976 -0.4684 -0.1039 -0.1940
 8583TIP3   OH247163   1.000   1.184   4.809  0.7373 -0.1212 -0.1902
 8583TIP3    H147164   1.006   1.093   4.839 -2.6464 -0.4251 -0.0176
 8583TIP3    H247165   1.018   1.179   4.715  0.5709 -0.9781 -0.1835
 8584TIP3   OH247166   5.272   4.331   0.204 -0.2199  0.4036  0.0474
 8584TIP3    H147167   5.353   4.357   0.246 -1.0408  0.5755  1.5711
 8584TIP3    H247168   5.291   4.245   0.166  0.8126  0.6737 -0.0686
 8585TIP3   OH247169   6.228   4.634   2.638 -0.4575 -0.1702 -0.5401
 8585TIP3    H147170   6.155   4.625   2.699  0.9669  0.4951  1.3720
 8585TIP3    H247171   6.200   4.587   2.559 -3.8465  1.9047 -0.7893
 8586TIP3   OH247172   0.267   1.318  15.418 -0.1183  0.1321  0.3286
 8586TIP3    H147173   0.268   1.352  15.507 -0.3002 -1.3659  0.9421
 8586TIP3    H247174   0.249   1.394  15.363 -1.0434  0.9097  1.6527
 8587TIP3   OH247175   3.385   6.512  13.464  0.2925  0.5641  0.2193
 8587TIP3    H147176   3.382   6.436  13.522  0.7906  0.0930 -0.3534
 8587TIP3    H247177   3.299   6.514  13.423  0.8296 -0.7542 -1.0641
 8588TIP3   OH247178   1.790   0.443  14.407  0.3551  0.9336  0.0512
 8588TIP3    H147179   1.870   0.480  14.372  0.7403  0.2196  0.1531
 8588TIP3    H247180   1.722   0.466  14.343  1.0800 -0.5523 -1.3094
 8589TIP3   OH247181   2.762   3.495   3.588  0.1862 -0.0792  0.3691
 8589TIP3    H147182   2.774   3.572   3.644 -0.0058 -1.0557  1.8006
 8589TIP3    H247183   2.722   3.530   3.508  1.1324  1.4532  0.5221
 8590TIP3   OH247184   0.015   3.207  13.343 -0.3717  0.3151 -0.3673
 8590TIP3    H147185  -0.058   3.234  13.399 -1.1958 -1.8069 -0.3221
 8590TIP3    H247186  -0.017   3.216  13.254 -0.8769 -1.0176 -0.3374
 8591TIP3   OH247187   2.879   2.507   2.095  0.3664 -0.2966 -0.1384
 8591TIP3    H147188   2.784   2.507   2.086  0.4980 -2.4384 -2.8760
 8591TIP3    H247189   2.896   2.455   2.173 -0.6986 -0.7529 -0.1961
 8592TIP3   OH247190   3.957   5.078  13.905  0.6831 -0.2983  0.4910
 8592TIP3    H147191   4.029   5.044  13.852  1.4109 -2.1569  2.5226
 8592TIP3    H247192   3.999   5.139  13.967  0.5034 -1.1786  1.5074
 8593TIP3   OH247193   5.750   6.058   4.177  0.2768 -0.1394  0.2486
 8593TIP3    H147194   5.745   6.017   4.263  0.7229 -0.1272  0.2821
 8593TIP3    H247195   5.665   6.039   4.137  0.5538 -1.3178  0.1752
 8594TIP3   OH247196   1.814   4.113  12.508  0.4828  0.2144  0.0960
 8594TIP3    H147197   1.758   4.039  12.482  0.7322 -0.8288  2.2751
 8594TIP3    H247198   1.881   4.118  12.440  0.4884 -1.6310 -0.0819
 8595TIP3   OH247199   0.099   0.361   1.450 -0.1537 -0.2375  0.0772
 8595TIP3    H147200   0.121   0.398   1.365  2.2663  0.7455  1.0359
 8595TIP3    H247201   0.054   0.431   1.497  0.9780  0.1944  0.5427
 8596TIP3   OH247202   6.126   4.506  13.306  0.2790  0.4711 -0.2105
 8596TIP3    H147203   6.214   4.514  13.269 -0.0282 -0.7514 -1.2683
 8596TIP3    H247204   6.073   4.472  13.235 -1.4290  2.6056 -0.0767
 8597TIP3   OH247205   2.429   3.085  14.189 -0.0828  0.5853  0.7006
 8597TIP3    H147206   2.464   3.172  14.213 -0.2106  0.1878  2.5294
 8597TIP3    H247207   2.356   3.072  14.250 -0.9707 -0.2319 -0.4999
 8598TIP3   OH247208   2.109   5.993  16.812  1.1008 -0.4132 -0.0109
 8598TIP3    H147209   2.080   6.083  16.801  0.5684 -0.5215  0.4743
 8598TIP3    H247210   2.069   5.964  16.894  0.0515 -1.5589 -0.8879
 8599TIP3   OH247211   6.244   6.453  16.830  0.4426  0.0836 -0.3656
 8599TIP3    H147212   6.216   6.389  16.765  0.7950  1.0233 -1.4823
 8599TIP3    H247213   6.337   6.435  16.842  0.5467  0.3668 -0.6954
 8600TIP3   OH247214   4.402   4.784  11.002 -0.7374 -0.2774 -0.4381
 8600TIP3    H147215   4.405   4.734  11.084  1.1580 -0.0071 -0.3102
 8600TIP3    H247216   4.488   4.825  10.995 -1.1217  0.3189 -2.2010
 8601TIP3   OH247217   1.413   1.646  14.570 -0.2129 -0.2556 -0.6696
 8601TIP3    H147218   1.478   1.576  14.568  1.8098  1.4932  0.1799
 8601TIP3    H247219   1.416   1.685  14.483 -0.8995 -0.7945 -0.9486
 8602TIP3   OH247220   1.617   3.622  10.992  0.5686  0.3068 -0.4923
 8602TIP3    H147221   1.586   3.535  10.968 -0.4476  0.8158 -1.0763
 8602TIP3    H247222   1.559   3.682  10.946  0.1899  1.3245  1.2072
 8603TIP3   OH247223   5.465   2.245  13.808 -0.5719  0.7740  0.0091
 8603TIP3    H147224   5.503   2.162  13.838 -2.1802  0.2811  0.7786
 8603TIP3    H247225   5.471   2.303  13.884 -0.2667  1.0903 -0.2515
 8604TIP3   OH247226   5.842   4.025   4.785 -0.2097 -0.3820  0.6848
 8604TIP3    H147227   5.833   4.105   4.836  1.8721 -0.6055  1.5209
 8604TIP3    H247228   5.862   3.958   4.850  1.7933 -0.8257 -0.3218
 8605TIP3   OH247229   6.758   3.483   5.807 -0.5558 -0.5250  0.2051
 8605TIP3    H147230   6.736   3.530   5.887  1.1331  1.2796 -0.3037
 8605TIP3    H247231   6.740   3.545   5.736  0.3569 -1.1465 -0.6103
 8606TIP3   OH247232   2.169   4.325  14.547 -0.0584 -0.0338  0.1976
 8606TIP3    H147233   2.077   4.317  14.571 -0.3651 -0.0659 -0.9077
 8606TIP3    H247234   2.194   4.237  14.518 -0.4109  0.4858 -1.8509
 8607TIP3   OH247235   3.839   4.762   4.495  0.0689  0.4356  0.3257
 8607TIP3    H147236   3.861   4.845   4.453  0.1692  0.9478  1.3682
 8607TIP3    H247237   3.796   4.786   4.576  0.1755 -0.5324  0.6900
 8608TIP3   OH247238   1.636   0.865   1.572  0.0987 -0.7035  0.2483
 8608TIP3    H147239   1.673   0.908   1.495 -0.8954  0.9145  0.6211
 8608TIP3    H247240   1.546   0.843   1.545 -0.5991  0.7825  1.2083
 8609TIP3   OH247241   3.357   3.699  12.843 -0.5895 -0.2978 -0.1406
 8609TIP3    H147242   3.426   3.659  12.790 -0.4692 -0.0510 -0.1703
 8609TIP3    H247243   3.364   3.656  12.928 -1.3013 -1.2768 -0.5556
 8610TIP3   OH247244   0.242   5.659  11.709 -0.2372  0.0758  0.2486
 8610TIP3    H147245   0.217   5.569  11.730 -0.4499  0.1177  0.1757
 8610TIP3    H247246   0.337   5.662  11.725  0.6039 -1.2747 -3.5143
 8611TIP3   OH247247   6.619   6.319  11.129 -0.3247 -0.2119 -0.1124
 8611TIP3    H147248   6.642   6.370  11.052  0.1065  1.1924  0.8997
 8611TIP3    H247249   6.699   6.319  11.182 -1.3046  1.0026  1.4555
 8612TIP3   OH247250   6.132   0.896   0.887  0.3557 -0.0603  0.9016
 8612TIP3    H147251   6.196   0.878   0.817 -0.1977 -3.4648  1.0808
 8612TIP3    H247252   6.165   0.848   0.962 -1.9505 -1.2818  1.2217
 8613TIP3   OH247253   4.249   5.987  14.268  0.2503 -0.0387 -0.0822
 8613TIP3    H147254   4.201   5.946  14.196  0.6640 -3.1831  1.2915
 8613TIP3    H247255   4.339   5.996  14.235 -0.1049  1.0391 -0.8271
 8614TIP3   OH247256   3.060   1.131   5.729  0.3592  0.2537 -0.5276
 8614TIP3    H147257   3.101   1.072   5.793 -0.5194  0.3938  0.1833
 8614TIP3    H247258   3.114   1.210   5.732  0.2641  0.3009  0.1229
 8615TIP3   OH247259   1.794   2.658   4.016  0.2106  0.6920  0.0541
 8615TIP3    H147260   1.884   2.656   4.047  0.0011  0.6149  0.6818
 8615TIP3    H247261   1.753   2.581   4.055  0.0629  0.2979 -0.8484
 8616TIP3   OH247262   2.737   3.514   2.067  0.3693 -0.1633  0.2904
 8616TIP3    H147263   2.753   3.511   2.162 -1.2590  0.3037  0.6211
 8616TIP3    H247264   2.653   3.469   2.056  1.1353 -1.3576 -1.1237
 8617TIP3   OH247265   4.120   1.823  10.909 -0.3744 -0.1044 -0.8391
 8617TIP3    H147266   4.040   1.813  10.858 -2.0808  0.6504  1.5065
 8617TIP3    H247267   4.187   1.845  10.845 -1.5578 -2.6662 -3.1324
 8618TIP3   OH247268   2.336   3.728   1.999 -0.3077  0.2465 -0.3243
 8618TIP3    H147269   2.379   3.813   2.000  1.2012 -0.4927  0.1352
 8618TIP3    H247270   2.360   3.687   2.082 -2.7139  0.1456  0.4144
 8619TIP3   OH247271   1.157   0.869   3.384 -0.4654  0.1440 -0.3854
 8619TIP3    H147272   1.174   0.962   3.366 -0.4362 -0.3397 -3.3120
 8619TIP3    H247273   1.244   0.831   3.395 -0.2874  0.0258 -1.9663
 8620TIP3   OH247274   5.888   6.587   4.616 -0.2148 -0.1332  0.6740
 8620TIP3    H147275   5.812   6.630   4.655 -1.5913  0.8917 -2.7356
 8620TIP3    H247276   5.956   6.654   4.616 -0.8218  0.5208 -0.2691
 8621TIP3   OH247277   1.849   5.180  17.082  0.3212  0.2114  0.3611
 8621TIP3    H147278   1.920   5.178  17.018 -1.3878  1.5082 -1.7514
 8621TIP3    H247279   1.771   5.156  17.031 -0.8272 -0.9198  2.5169
 8622TIP3   OH247280   4.379   5.930   2.776 -0.2594 -0.2439 -0.3213
 8622TIP3    H147281   4.309   5.877   2.816 -1.2357  0.0476 -1.5730
 8622TIP3    H247282   4.394   6.000   2.839 -1.3744 -0.0963 -0.1981
 8623TIP3   OH247283   6.394   4.342  11.738 -0.4392 -0.0446 -0.1783
 8623TIP3    H147284   6.328   4.403  11.772  1.2260  1.6106  0.2693
 8623TIP3    H247285   6.381   4.341  11.643  0.2586  2.0226 -0.3355
 8624TIP3   OH247286   4.992   2.766  11.789 -0.0641 -0.0882 -0.1483
 8624TIP3    H147287   4.901   2.792  11.777 -0.5841 -0.1330  2.8299
 8624TIP3    H247288   5.043   2.840  11.754 -1.3305  1.0933  0.3875
 8625TIP3   OH247289   5.831   0.557   5.494  0.0904 -0.4196  0.1732
 8625TIP3    H147290   5.771   0.504   5.547  0.3951 -1.2735 -0.3032
 8625TIP3    H247291   5.918   0.532   5.526  0.2233  0.1185  0.2293
 8626TIP3   OH247292   0.636   6.395   2.297 -0.3702  0.0793 -0.1601
 8626TIP3    H147293   0.585   6.315   2.288 -1.8411  1.0891 -1.3230
 8626TIP3    H247294   0.632   6.436   2.210  2.0825  0.4270 -0.1755
 8627TIP3   OH247295   6.070   4.095   5.081  0.0285 -0.5135  0.0955
 8627TIP3    H147296   5.980   4.062   5.080  0.1388 -0.9846  1.9759
 8627TIP3    H247297   6.123   4.022   5.048 -0.1066 -0.9053  0.7294
 8628TIP3   OH247298   2.157   1.234  12.842  0.2592  0.3153 -0.1025
 8628TIP3    H147299   2.241   1.221  12.799  0.6111 -0.2712  0.7412
 8628TIP3    H247300   2.179   1.250  12.934 -0.4845  1.3844 -0.0849
 8629TIP3   OH247301   4.027   0.572   3.169 -0.1997 -0.0832  0.0273
 8629TIP3    H147302   4.088   0.554   3.097  0.6608 -0.3901  0.8104
 8629TIP3    H247303   4.058   0.655   3.205  1.0021 -1.1656  1.6465
 8630TIP3   OH247304   3.613   1.640  14.140 -0.5862 -0.2084  0.8496
 8630TIP3    H147305   3.634   1.707  14.076  0.4714 -1.3740 -0.0516
 8630TIP3    H247306   3.538   1.593  14.102 -0.8429 -0.0374  1.1310
 8631TIP3   OH247307   1.046   3.391  12.419  0.1774 -0.0880  0.2559
 8631TIP3    H147308   0.969   3.406  12.474 -1.5731 -1.9710 -1.5011
 8631TIP3    H247309   1.092   3.319  12.462 -1.0724 -1.4202 -0.5868
 8632TIP3   OH247310   0.456   3.137  12.947  0.1063  0.2147 -0.4845
 8632TIP3    H147311   0.535   3.130  12.893 -0.0135 -0.3334 -0.6020
 8632TIP3    H247312   0.481   3.192  13.020  0.7165 -0.2735 -0.3219
 8633TIP3   OH247313   4.095   3.386  12.555 -0.0637 -0.2766  0.1219
 8633TIP3    H147314   4.062   3.461  12.504  1.2562  0.6048  0.5157
 8633TIP3    H247315   4.164   3.423  12.609  2.5031 -2.2327 -1.5555
 8634TIP3   OH247316   4.797   3.777   4.915  0.1697  0.2879  0.0516
 8634TIP3    H147317   4.805   3.827   4.996  0.4436 -0.6849  0.6373
 8634TIP3    H247318   4.713   3.732   4.923 -0.2145  0.8798 -0.6057
 8635TIP3   OH247319   5.511   1.923  12.880  0.0195  0.1657 -0.0776
 8635TIP3    H147320   5.465   1.916  12.965 -0.0685  1.3095 -0.0159
 8635TIP3    H247321   5.603   1.933  12.904 -0.1047  1.4510 -0.0589
 8636TIP3   OH247322   4.735   2.302  16.522  0.2756  0.0594 -0.5129
 8636TIP3    H147323   4.654   2.314  16.572 -0.1387 -0.7740 -0.9564
 8636TIP3    H247324   4.705   2.291  16.432  0.7818 -1.4326 -0.5266
 8637TIP3   OH247325   5.936   1.416  15.604  0.0814  0.0124  0.3323
 8637TIP3    H147326   5.854   1.373  15.580 -1.4646  1.2750  2.8837
 8637TIP3    H247327   5.973   1.361  15.673 -0.1440  0.9508  1.2181
 8638TIP3   OH247328   3.204   0.174   5.209 -0.8220 -0.1428  0.3990
 8638TIP3    H147329   3.191   0.156   5.116  0.8067  0.6613 -0.0353
 8638TIP3    H247330   3.273   0.113   5.235  1.3173  1.9998  0.1031
 8639TIP3   OH247331   5.706   2.067  14.509 -0.0280  0.6849 -0.0437
 8639TIP3    H147332   5.742   2.004  14.572 -2.9484 -0.8866  0.2306
 8639TIP3    H247333   5.645   2.121  14.561  0.6656  2.2166 -0.7610
 8640TIP3   OH247334   4.569   3.657  12.030 -0.0062 -0.0244 -0.8376
 8640TIP3    H147335   4.664   3.656  12.015  0.0782 -0.3059 -0.3193
 8640TIP3    H247336   4.554   3.737  12.080  0.0215 -0.1876 -0.5629
 8641TIP3   OH247337   6.046   5.770  12.728 -0.4369 -0.2664 -0.2612
 8641TIP3    H147338   5.953   5.791  12.715 -1.0281 -0.5612  2.7154
 8641TIP3    H247339   6.045   5.686  12.774  1.3381 -0.3622 -0.3358
 8642TIP3   OH247340   0.225   5.830  15.243  0.1641  0.0217  0.0311
 8642TIP3    H147341   0.206   5.883  15.320 -0.0658  0.0698 -0.0553
 8642TIP3    H247342   0.291   5.768  15.272 -0.5464 -0.5248  0.5118
 8643TIP3   OH247343   1.354   0.945  13.689 -0.2891 -0.3004  0.0331
 8643TIP3    H147344   1.420   0.956  13.621 -0.1075  1.9946  0.4688
 8643TIP3    H247345   1.403   0.913  13.765 -0.1904 -1.2099 -0.4021
 8644TIP3   OH247346   2.942   2.781  11.895  0.2843 -0.0829  0.5826
 8644TIP3    H147347   2.969   2.704  11.845  0.2369  0.9014 -1.0391
 8644TIP3    H247348   3.013   2.797  11.956  1.0575 -0.4706 -0.1967
 8645TIP3   OH247349   2.797   3.734   3.272  0.3165 -0.0200 -0.8095
 8645TIP3    H147350   2.831   3.823   3.278  1.3102 -0.3992 -0.5181
 8645TIP3    H247351   2.720   3.741   3.216  0.7620  0.9156 -1.3312
 8646TIP3   OH247352   5.013   4.902  14.399 -0.0509 -0.5117  0.3259
 8646TIP3    H147353   4.998   4.996  14.387  1.2534 -0.5878 -3.0020
 8646TIP3    H247354   4.958   4.861  14.332  0.0872 -2.0844  1.1441
 8647TIP3   OH247355   4.597   5.116  11.586 -0.4240  0.1883  0.4456
 8647TIP3    H147356   4.621   5.206  11.566 -0.3006 -0.0510 -0.5130
 8647TIP3    H247357   4.629   5.065  11.512 -0.8493 -0.5915  0.7814
 8648TIP3   OH247358   0.444   2.007   1.194 -0.4852 -0.4783  0.0821
 8648TIP3    H147359   0.386   1.934   1.172 -0.9918  0.0032 -0.2255
 8648TIP3    H247360   0.406   2.082   1.147 -1.6335  0.6125  2.6060
 8649TIP3   OH247361   3.142   0.208  13.816 -0.7874  0.1419 -0.6921
 8649TIP3    H147362   3.175   0.215  13.726 -2.0186 -0.1991 -1.1893
 8649TIP3    H247363   3.157   0.117  13.840  0.9937  0.5826  0.0686
 8650TIP3   OH247364   0.770   2.597  13.031 -0.1593 -1.2826 -0.4203
 8650TIP3    H147365   0.803   2.534  12.967  0.3569  0.6735 -2.1914
 8650TIP3    H247366   0.814   2.679  13.009 -1.1229 -0.1823  1.5199
 8651TIP3   OH247367   2.756   5.177  12.227 -0.2567 -0.2047 -0.1040
 8651TIP3    H147368   2.755   5.187  12.132  0.4449 -3.3628 -0.5493
 8651TIP3    H247369   2.665   5.158  12.250 -0.1772 -0.9859 -0.3965
 8652TIP3   OH247370   0.375   0.929   5.542  0.4845 -0.3284  0.1171
 8652TIP3    H147371   0.351   1.020   5.526 -1.8387 -0.8678  0.1781
 8652TIP3    H247372   0.382   0.922   5.638 -0.3579 -0.4337  0.1748
 8653TIP3   OH247373   0.475   3.596  15.451 -0.3266  0.2114 -0.6122
 8653TIP3    H147374   0.442   3.513  15.416  0.2757  0.1159 -0.9706
 8653TIP3    H247375   0.408   3.624  15.513  0.9083 -2.1045  1.9353
 8654TIP3   OH247376   3.854   2.613  11.088 -0.2334  0.0680  0.0826
 8654TIP3    H147377   3.899   2.574  11.163 -0.0675  0.7388  0.3343
 8654TIP3    H247378   3.761   2.604  11.108 -0.1874  0.3186  0.4047
 8655TIP3   OH247379   1.549   0.013   1.784 -0.5540 -0.1946  0.8041
 8655TIP3    H147380   1.623  -0.048   1.784  0.4570  0.9440 -0.2681
 8655TIP3    H247381   1.561   0.065   1.864  0.0098  0.1780  0.4902
 8656TIP3   OH247382   3.294   0.378  14.005 -0.0585 -0.5370  0.1984
 8656TIP3    H147383   3.290   0.468  13.973  2.5482 -0.5321 -0.2997
 8656TIP3    H247384   3.256   0.326  13.934 -1.4384  0.1176  0.4240
 8657TIP3   OH247385   2.092   4.792   5.304  0.0363 -0.1723  0.3219
 8657TIP3    H147386   2.061   4.745   5.381  1.3466 -4.4188 -1.4248
 8657TIP3    H247387   2.173   4.835   5.332 -2.3700  3.3791  2.5723
 8658TIP3   OH247388   3.074   2.640  16.909 -0.2105  0.5685 -0.3529
 8658TIP3    H147389   3.158   2.601  16.886 -1.0820 -2.0938  0.5953
 8658TIP3    H247390   3.028   2.649  16.825  0.0005 -0.6410 -0.6238
 8659TIP3   OH247391   1.711   1.268   3.598 -0.1214 -0.0861 -0.1063
 8659TIP3    H147392   1.765   1.298   3.525  0.1814  3.1636  1.2982
 8659TIP3    H247393   1.622   1.296   3.576 -0.2833 -0.3865  0.1443
 8660TIP3   OH247394   1.080   6.473  15.667  0.1923  0.3672  0.4937
 8660TIP3    H147395   1.166   6.509  15.689  0.4604 -0.5920  1.0744
 8660TIP3    H247396   1.098   6.391  15.623 -0.4220  0.6999 -0.4141
 8661TIP3   OH247397   3.637   2.945   5.547  0.3496  0.1140 -0.0057
 8661TIP3    H147398   3.546   2.917   5.538 -0.2210  2.2012 -1.7021
 8661TIP3    H247399   3.636   3.010   5.617  0.5408  0.0658  0.0427
 8662TIP3   OH247400   3.238   0.523   0.325  0.0446 -0.0651 -0.5524
 8662TIP3    H147401   3.182   0.452   0.291  1.2842 -1.0385 -0.6542
 8662TIP3    H247402   3.318   0.517   0.272  0.1005  1.5618 -0.6937
 8663TIP3   OH247403   1.395   4.303   0.145 -0.6294 -0.3837 -0.1587
 8663TIP3    H147404   1.418   4.359   0.219 -0.2377 -0.1241 -0.4825
 8663TIP3    H247405   1.363   4.363   0.078 -3.2939 -0.7705  0.6292
 8664TIP3   OH247406   5.823   0.835   0.370  0.1979 -0.1956  0.1925
 8664TIP3    H147407   5.751   0.866   0.424 -0.7281 -1.9587  0.0442
 8664TIP3    H247408   5.877   0.913   0.354 -0.3002  0.6514  2.3824
 8665TIP3   OH247409   4.985   1.830   2.758 -0.4102  0.2183 -0.3484
 8665TIP3    H147410   5.013   1.875   2.838  0.1131 -0.2626 -0.2546
 8665TIP3    H247411   5.028   1.879   2.687  1.3287 -0.9452 -0.1656
 8666TIP3   OH247412   3.906   3.511  15.298  0.2081 -0.0738 -0.0108
 8666TIP3    H147413   3.861   3.544  15.220  2.6137  0.4711 -1.2418
 8666TIP3    H247414   3.938   3.424  15.272  2.1093  0.6210 -0.1248
 8667TIP3   OH247415   0.516   2.181   1.992 -0.2194 -0.0085 -0.5747
 8667TIP3    H147416   0.585   2.177   1.926  0.3084 -0.0934 -0.0272
 8667TIP3    H247417   0.556   2.144   2.071 -0.3945  1.3382  0.1787
 8668TIP3   OH247418   6.325   1.905   5.365 -0.2157  0.6987 -0.2403
 8668TIP3    H147419   6.260   1.880   5.431 -0.1902 -0.0755 -0.4988
 8668TIP3    H247420   6.293   1.867   5.284  0.7637 -0.0590 -0.2941
 8669TIP3   OH247421   6.421   4.418  16.408 -0.1517  0.4088  0.1346
 8669TIP3    H147422   6.434   4.469  16.488 -1.5050 -0.7437  1.1428
 8669TIP3    H247423   6.455   4.331  16.430 -0.6299  0.0562 -0.5058
 8670TIP3   OH247424   3.881   3.855  15.076 -0.5524 -0.1683  0.4395
 8670TIP3    H147425   3.892   3.950  15.075 -0.8511 -0.1151 -1.1625
 8670TIP3    H247426   3.952   3.822  15.131  0.4461  0.8890 -0.1858
 8671TIP3   OH247427   2.703   0.693   2.499  0.4494 -0.5087  0.0212
 8671TIP3    H147428   2.709   0.601   2.475 -0.6876 -0.5045 -0.3369
 8671TIP3    H247429   2.633   0.696   2.565  0.4726  0.0960  0.0224
 8672TIP3   OH247430   0.339   2.079  12.494  0.1656 -0.1903 -0.2106
 8672TIP3    H147431   0.415   2.074  12.551 -0.5076 -0.4279  0.6873
 8672TIP3    H247432   0.264   2.070  12.553 -0.6015  1.3153 -0.9125
 8673TIP3   OH247433   0.567   3.423   6.363 -0.1273  0.1709 -0.1319
 8673TIP3    H147434   0.584   3.493   6.426  0.6469  0.1760 -0.3407
 8673TIP3    H247435   0.653   3.394   6.334 -0.4258 -1.0732  0.1660
 8674TIP3   OH247436   5.669   3.701  16.601 -0.7391 -0.1134  0.3777
 8674TIP3    H147437   5.724   3.749  16.663  0.4204 -1.2938  0.3187
 8674TIP3    H247438   5.727   3.681  16.527 -1.1192 -1.6855  0.4615
 8675TIP3   OH247439   1.530   1.357  16.634  0.0856  0.2807  0.3570
 8675TIP3    H147440   1.572   1.412  16.700 -0.4222 -0.1182  1.0288
 8675TIP3    H247441   1.539   1.268  16.667 -0.7728  0.1369  0.2388
 8676TIP3   OH247442   5.268   1.203  12.505  0.4801  0.2230  0.3467
 8676TIP3    H147443   5.347   1.151  12.520  0.5926 -0.2737 -1.7095
 8676TIP3    H247444   5.201   1.138  12.484 -0.2128  0.7130  0.9997
 8677TIP3   OH247445   5.533   5.046  17.139 -0.2778  0.1438 -0.2662
 8677TIP3    H147446   5.446   5.063  17.173  0.4870  1.5273  1.1104
 8677TIP3    H247447   5.588   5.114  17.178  1.8362 -1.9672  0.6369
 8678TIP3   OH247448   0.912   6.094   2.380 -0.3398 -0.2005 -0.2238
 8678TIP3    H147449   0.832   6.084   2.432  0.9179 -0.1745  1.8655
 8678TIP3    H247450   0.908   6.184   2.346  0.2279  1.0388  2.6389
 8679TIP3   OH247451   1.297   6.720  12.790  0.6279  0.4045 -0.5373
 8679TIP3    H147452   1.386   6.755  12.793  1.1622 -0.8650  2.9236
 8679TIP3    H247453   1.242   6.794  12.818  1.0477  0.2633  0.7351
 8680TIP3   OH247454   5.493   4.435  17.297  0.2415 -0.0856 -0.1937
 8680TIP3    H147455   5.539   4.352  17.283 -0.3906 -0.5717  0.5367
 8680TIP3    H247456   5.516   4.488  17.220  1.6101 -0.4878 -0.0898
 8681TIP3   OH247457   4.617   4.823   5.415 -0.5501  0.1661 -0.0881
 8681TIP3    H147458   4.672   4.745   5.424 -2.1075 -0.8795  0.6383
 8681TIP3    H247459   4.605   4.834   5.321  0.1893 -0.0868 -0.2167
 8682TIP3   OH247460   3.390   2.816  16.884 -0.7258  0.1779  0.5502
 8682TIP3    H147461   3.341   2.737  16.907  0.3772 -1.7570 -2.9831
 8682TIP3    H247462   3.341   2.855  16.812  1.3128 -0.1906 -1.1270
 8683TIP3   OH247463   5.069   0.528  13.299  0.7885  0.1833  0.1037
 8683TIP3    H147464   5.127   0.586  13.250 -0.0292  1.2512  0.3527
 8683TIP3    H247465   4.988   0.578  13.309  0.1737 -0.8763  0.6372
 8684TIP3   OH247466   4.046   6.550  14.277 -0.1056  0.1773  0.3245
 8684TIP3    H147467   4.093   6.610  14.335  0.5828  2.2448 -2.1724
 8684TIP3    H247468   4.063   6.584  14.189 -2.8318 -1.5218 -0.9841
 8685TIP3   OH247469   5.859   5.698   1.782 -0.0794  0.1898 -0.4006
 8685TIP3    H147470   5.804   5.620   1.788  1.6041 -0.9547  1.6110
 8685TIP3    H247471   5.802   5.770   1.808 -0.5797 -1.0169  2.1564
 8686TIP3   OH247472   2.748   6.489   0.313  0.0345  0.2321  0.3112
 8686TIP3    H147473   2.708   6.563   0.358  0.7066  0.2401  0.9313
 8686TIP3    H247474   2.835   6.482   0.354  0.7700  0.3981 -1.1714
 8687TIP3   OH247475   1.673   4.330  14.137  0.3978 -0.5173 -0.3957
 8687TIP3    H147476   1.689   4.247  14.091  0.2196 -0.3093 -0.8279
 8687TIP3    H247477   1.674   4.305  14.230 -1.5211 -1.3571 -0.5437
 8688TIP3   OH247478   1.828   5.600  14.062 -0.6610 -0.0435  0.5767
 8688TIP3    H147479   1.831   5.504  14.056 -0.3514 -0.0291  0.4722
 8688TIP3    H247480   1.915   5.628  14.033 -1.0927  0.3163 -0.4174
 8689TIP3   OH247481   6.699   1.005  11.767  0.0767 -0.4205 -0.1035
 8689TIP3    H147482   6.687   1.015  11.861 -0.6317  2.4617 -0.3962
 8689TIP3    H247483   6.792   0.985  11.756  0.4184  0.3488  1.1811
 8690TIP3   OH247484   1.700   1.716   4.381  0.4323 -0.0756 -0.3000
 8690TIP3    H147485   1.706   1.621   4.369 -1.2726 -0.1129 -1.1076
 8690TIP3    H247486   1.607   1.732   4.399  0.4660  1.5543 -1.3911
 8691TIP3   OH247487   5.887   5.137   3.856 -0.2695 -0.3773 -0.5989
 8691TIP3    H147488   5.876   5.204   3.789  0.5159  0.1731 -0.2028
 8691TIP3    H247489   5.981   5.117   3.855 -0.3565 -0.8430 -0.1221
 8692TIP3   OH247490   5.931   3.562  12.613  0.2833 -0.5948  0.1079
 8692TIP3    H147491   6.024   3.542  12.626  0.8439  0.9629 -1.1765
 8692TIP3    H247492   5.920   3.567  12.518 -1.3329 -1.5555  0.1967
 8693TIP3   OH247493   6.637   5.247   1.684  0.2803  0.0934  0.4724
 8693TIP3    H147494   6.588   5.210   1.757 -0.0144 -0.6963 -0.1168
 8693TIP3    H247495   6.587   5.324   1.658 -0.8520 -0.8741 -0.3208
 8694TIP3   OH247496   3.207   1.585  14.255 -0.1171 -0.2532  0.1687
 8694TIP3    H147497   3.266   1.551  14.188 -0.6636  0.0280 -0.4670
 8694TIP3    H247498   3.172   1.666  14.218 -0.9120 -0.4170  0.5244
 8695TIP3   OH247499   4.112   4.019  14.143 -0.0373  0.9582 -0.5109
 8695TIP3    H147500   4.096   4.102  14.097 -0.1913  1.9814  1.2808
 8695TIP3    H247501   4.050   4.020  14.215  1.7196  0.5359  1.0861
 8696TIP3   OH247502   1.826   6.638   4.748  0.9332 -0.0419 -0.2576
 8696TIP3    H147503   1.763   6.650   4.677  1.6021  0.4732 -0.7756
 8696TIP3    H247504   1.803   6.553   4.786 -0.8467  0.6905  0.3816
 8697TIP3   OH247505   1.078   5.235  17.257  0.1709 -0.1086 -0.5643
 8697TIP3    H147506   1.159   5.183  17.258  0.6569  0.5660 -1.9545
 8697TIP3    H247507   1.096   5.305  17.194 -1.5378  0.0267 -0.9249
 8698TIP3   OH247508   2.130   4.848  12.668 -0.8363 -0.1563  0.1054
 8698TIP3    H147509   2.151   4.941  12.659 -0.6831 -0.1732  0.2796
 8698TIP3    H247510   2.193   4.816  12.732 -1.7960 -0.0830  1.0971
 8699TIP3   OH247511   6.126   6.361   4.103  0.1489  0.0171 -0.5690
 8699TIP3    H147512   6.033   6.351   4.126  0.2249 -0.9460 -0.6393
 8699TIP3    H247513   6.136   6.309   4.023  0.7574  0.0784 -0.5329
 8700TIP3   OH247514   3.070   1.681   0.858  0.1302 -0.0577  0.1728
 8700TIP3    H147515   3.108   1.607   0.905  1.7546  0.4293 -0.2667
 8700TIP3    H247516   3.024   1.642   0.784 -0.5556 -0.7097  0.9338
 8701TIP3   OH247517   0.374   5.215  16.005  0.9170 -1.0770 -0.3357
 8701TIP3    H147518   0.355   5.146  16.068 -4.9534 -0.8718 -1.2772
 8701TIP3    H247519   0.379   5.170  15.921  1.8211 -0.7427 -0.4698
 8702TIP3   OH247520   1.508   3.987   3.475 -0.1596  0.0978 -0.4501
 8702TIP3    H147521   1.520   4.020   3.386  0.0810 -0.3662 -0.5888
 8702TIP3    H247522   1.417   3.959   3.479 -0.4817  1.1106 -0.2172
 8703TIP3   OH247523   5.464   2.887   1.403 -0.5786  0.4741  0.5670
 8703TIP3    H147524   5.478   2.835   1.324 -1.3889 -1.6838  1.7681
 8703TIP3    H247525   5.468   2.977   1.373  1.1676 -0.2163 -1.5857
 8704TIP3   OH247526   2.883   3.689  13.341 -0.1336 -0.0174  0.0425
 8704TIP3    H147527   2.821   3.616  13.349 -1.5230  0.8907 -1.8148
 8704TIP3    H247528   2.955   3.664  13.399 -1.0268 -2.3524  0.2935
 8705TIP3   OH247529   3.425   4.416  13.484  0.0784  0.0656 -0.2484
 8705TIP3    H147530   3.430   4.379  13.572  1.0185  1.1349  0.1883
 8705TIP3    H247531   3.451   4.345  13.426 -1.5130 -0.9458  0.2219
 8706TIP3   OH247532   2.260   1.270  16.253 -0.1325 -0.3558  0.4680
 8706TIP3    H147533   2.287   1.181  16.231 -1.0723 -1.1644  2.3844
 8706TIP3    H247534   2.168   1.274  16.225  0.4142  0.6709 -1.3183
 8707TIP3   OH247535   4.518   5.777  16.426  0.4395 -0.2349 -0.3660
 8707TIP3    H147536   4.540   5.715  16.357  0.7672  0.6233 -1.0439
 8707TIP3    H247537   4.553   5.738  16.506  0.6817 -0.8931 -0.7888
 8708TIP3   OH247538   4.448   6.179   0.005  0.0880  0.5235  0.2963
 8708TIP3    H147539   4.391   6.160   0.080  1.2391  1.8810  1.5739
 8708TIP3    H247540   4.527   6.127   0.022  1.0774  2.1860  1.0113
 8709TIP3   OH247541   5.873   2.056  12.241  0.0663 -0.4000  0.4423
 8709TIP3    H147542   5.801   2.017  12.289  1.5648 -2.1973  1.3818
 8709TIP3    H247543   5.885   2.000  12.165  0.9673 -0.6075  0.7247
 8710TIP3   OH247544   4.713   6.668   6.831 -0.1687 -0.7746  0.0925
 8710TIP3    H147545   4.640   6.709   6.785 -0.9766 -1.1443  1.0089
 8710TIP3    H247546   4.725   6.584   6.787 -0.6061 -0.9138  0.2420
 8711TIP3   OH247547   4.850   1.404   6.710 -0.1706  0.0875 -0.2603
 8711TIP3    H147548   4.942   1.411   6.735 -0.2646  0.3528  0.0208
 8711TIP3    H247549   4.838   1.312   6.685  0.3472  0.2200 -1.0223
 8712TIP3   OH247550   4.167   6.705   4.948  0.2047 -0.1760  0.0859
 8712TIP3    H147551   4.228   6.757   4.894  1.2656 -1.0261  0.4241
 8712TIP3    H247552   4.204   6.709   5.036 -1.9126  1.8166  0.9948
 8713TIP3   OH247553   6.534   5.528   3.048  0.0456  0.4182 -0.4304
 8713TIP3    H147554   6.582   5.452   3.016  2.8795  1.4367  1.0391
 8713TIP3    H247555   6.460   5.491   3.095  2.6968 -1.7363  2.4663
 8714TIP3   OH247556   1.869   2.168  16.831 -0.1931 -0.0339 -0.1241
 8714TIP3    H147557   1.844   2.258  16.815  1.2026  0.8452  2.1313
 8714TIP3    H247558   1.947   2.154  16.777 -2.2023 -1.0640 -3.0130
 8715TIP3   OH247559   5.486   6.287   2.687  0.0021  0.1730 -0.7558
 8715TIP3    H147560   5.532   6.255   2.610  0.4379  0.1243 -0.4790
 8715TIP3    H247561   5.418   6.222   2.704  1.4545 -1.1329  0.3438
 8716TIP3   OH247562   4.996   3.684   3.427 -0.2427 -0.0892  0.1644
 8716TIP3    H147563   5.009   3.590   3.412 -2.2302 -0.2405 -0.9379
 8716TIP3    H247564   4.907   3.701   3.397  0.7973  2.5866 -1.8605
 8717TIP3   OH247565   1.416   2.159   3.263  0.3689  0.1579 -0.1504
 8717TIP3    H147566   1.406   2.079   3.212  0.6703  0.4610 -0.7090
 8717TIP3    H247567   1.423   2.130   3.354 -1.3124 -0.3233 -0.1419
 8718TIP3   OH247568   3.531   0.810   0.702 -0.2953  0.2133  0.1919
 8718TIP3    H147569   3.452   0.842   0.658 -0.9194 -1.1880  0.2530
 8718TIP3    H247570   3.515   0.829   0.795 -0.1385  0.7878  0.1032
 8719TIP3   OH247571   4.540   5.996  15.534 -0.3080 -0.2207  0.1630
 8719TIP3    H147572   4.588   6.069  15.574  1.1234  0.1255 -1.9920
 8719TIP3    H247573   4.601   5.962  15.469 -3.0351  0.3511 -2.9084
 8720TIP3   OH247574   4.255   4.769  16.960 -0.3904  0.2545  0.0569
 8720TIP3    H147575   4.334   4.802  17.002 -0.0725  0.7891 -0.9486
 8720TIP3    H247576   4.286   4.719  16.885 -1.0115  0.5748 -0.4198
 8721TIP3   OH247577   1.947   3.678  14.910  0.3062  0.0254  0.1098
 8721TIP3    H147578   1.994   3.690  14.993 -1.2771 -2.2403  1.4668
 8721TIP3    H247579   2.002   3.618  14.860  0.3427 -0.1637  0.3727
 8722TIP3   OH247580   2.914   2.869   0.117 -0.4534 -0.2116  0.3628
 8722TIP3    H147581   3.003   2.836   0.105 -0.2779  0.2972  0.2622
 8722TIP3    H247582   2.915   2.956   0.079 -1.1721 -0.4520 -0.2189
 8723TIP3   OH247583   1.866   4.140   0.802  0.0798  0.1687 -0.6437
 8723TIP3    H147584   1.841   4.049   0.813  2.1297 -0.3916 -0.2282
 8723TIP3    H247585   1.951   4.137   0.758 -0.2018  1.9175 -1.4117
 8724TIP3   OH247586   6.657   1.259  13.131 -0.2777  0.0607 -0.4849
 8724TIP3    H147587   6.639   1.350  13.109 -0.2672  0.1770 -0.0261
 8724TIP3    H247588   6.662   1.258  13.226  4.2212  0.4714 -0.4858
 8725TIP3   OH247589   1.102   3.490   2.557 -0.4903  0.6114 -0.4696
 8725TIP3    H147590   1.111   3.585   2.566  1.3290  0.4493 -0.3230
 8725TIP3    H247591   1.117   3.456   2.645 -1.6806  0.1945 -0.4063
 8726TIP3   OH247592   1.093   0.924   4.082 -0.3701 -0.2009  0.4515
 8726TIP3    H147593   1.001   0.898   4.075 -0.3151 -0.4503  0.6443
 8726TIP3    H247594   1.094   1.015   4.052 -0.4028 -0.7365 -1.3493
 8727TIP3   OH247595   2.142   6.534   2.793 -0.7116  0.2097 -0.1039
 8727TIP3    H147596   2.234   6.524   2.815 -0.6751  0.1215 -0.2937
 8727TIP3    H247597   2.112   6.445   2.773 -0.8992  0.2018  0.1959
 8728TIP3   OH247598   1.857   3.430   1.659 -0.8928 -0.1687  0.9712
 8728TIP3    H147599   1.890   3.340   1.661  0.1905  0.1361 -0.6461
 8728TIP3    H247600   1.762   3.421   1.660 -0.7942 -1.2866  1.5670
 8729TIP3   OH247601   1.532   4.969   0.061  0.4727 -0.0290 -0.1425
 8729TIP3    H147602   1.597   5.012   0.006  1.3897 -0.8090  0.3064
 8729TIP3    H247603   1.566   4.880   0.073 -0.8297 -0.5508 -0.1532
 8730TIP3   OH247604   2.530   4.225   4.212 -0.5643 -0.1827  0.3172
 8730TIP3    H147605   2.497   4.136   4.195 -0.5216 -0.2139  0.3951
 8730TIP3    H247606   2.578   4.217   4.294  0.0873 -0.2588 -0.0669
 8731TIP3   OH247607   0.279   6.336   0.172 -0.4995 -0.2824 -0.2265
 8731TIP3    H147608   0.223   6.287   0.232  1.7457 -0.8244  1.5720
 8731TIP3    H247609   0.294   6.420   0.215  1.0854 -0.6522  0.0099
 8732TIP3   OH247610   1.746   1.815  13.218 -0.6915  0.0503 -0.3248
 8732TIP3    H147611   1.799   1.821  13.139  1.1283 -0.5373  0.7787
 8732TIP3    H247612   1.786   1.879  13.278 -1.1828 -0.4718  0.5812
 8733TIP3   OH247613   0.570   2.808   3.719 -0.0295  0.4290 -0.0719
 8733TIP3    H147614   0.515   2.831   3.794  2.1402 -0.5551  1.9425
 8733TIP3    H247615   0.532   2.855   3.646 -3.3119  0.0848  1.2499
 8734TIP3   OH247616   0.877   1.543   3.677  0.0703  0.1231 -0.5275
 8734TIP3    H147617   0.959   1.499   3.702  0.4804  1.2539  0.2049
 8734TIP3    H247618   0.902   1.634   3.664 -1.1368  0.5579  0.0857
 8735TIP3   OH247619   3.191   0.706   5.136  0.1032 -0.2951  0.6925
 8735TIP3    H147620   3.180   0.616   5.165  2.0836 -0.1195  2.1599
 8735TIP3    H247621   3.135   0.757   5.195 -0.9101 -0.5002 -0.0512
 8736TIP3   OH247622   0.399   1.018   1.188  0.0993 -0.0627 -0.2547
 8736TIP3    H147623   0.343   0.977   1.121 -1.8846  1.2832  0.4996
 8736TIP3    H247624   0.391   0.961   1.264  0.1526 -0.1373 -0.3050
 8737TIP3   OH247625   5.974   5.417  16.026 -0.4421 -0.1106 -0.5966
 8737TIP3    H147626   5.918   5.495  16.024 -1.2750 -0.7040 -1.4499
 8737TIP3    H247627   6.057   5.448  16.060 -0.5488  1.2966 -1.5204
 8738TIP3   OH247628   0.391   4.579  15.186  0.4752  0.5133  0.0474
 8738TIP3    H147629   0.416   4.670  15.199  2.0416  0.0693  0.3172
 8738TIP3    H247630   0.361   4.549  15.272  0.4435  0.6237  0.0749
 8739TIP3   OH247631   1.383   0.591  11.516 -0.0825  0.4218 -0.4861
 8739TIP3    H147632   1.341   0.506  11.514  1.4739 -0.3808 -0.7896
 8739TIP3    H247633   1.466   0.578  11.471 -0.1507  2.2989 -1.2666
 8740TIP3   OH247634   2.408   5.998   2.531  0.2284  0.0083 -0.3813
 8740TIP3    H147635   2.360   6.028   2.454  1.5174  1.0091 -0.8388
 8740TIP3    H247636   2.370   6.048   2.604 -1.2014 -1.1651 -0.2888
 8741TIP3   OH247637   0.165   4.981   1.424  0.1308 -0.3939 -0.2426
 8741TIP3    H147638   0.124   4.919   1.484  1.5697  1.3284  2.7478
 8741TIP3    H247639   0.245   5.009   1.469  1.0896  1.4093 -2.8036
 8742TIP3   OH247640   2.777   2.945   5.182  0.2922 -0.2138  0.2897
 8742TIP3    H147641   2.736   2.877   5.127  2.9094 -2.2916  0.6940
 8742TIP3    H247642   2.865   2.913   5.197  0.6153  1.7385  3.3147
 8743TIP3   OH247643   2.714   3.392  13.872  0.2372 -0.0732 -0.3606
 8743TIP3    H147644   2.678   3.334  13.805  0.8858  1.2891 -1.9448
 8743TIP3    H247645   2.767   3.456  13.824 -0.7923  2.1361  1.2469
 8744TIP3   OH247646   4.965   2.749  13.045 -0.0209  0.2867 -0.1617
 8744TIP3    H147647   4.961   2.678  13.109 -1.4866  0.5352  0.0440
 8744TIP3    H247648   4.977   2.828  13.098  0.1492  0.3482 -0.2909
 8745TIP3   OH247649   4.516   0.739  11.385  0.6366  0.3992  0.4520
 8745TIP3    H147650   4.480   0.650  11.392  0.3196  0.5570  0.8743
 8745TIP3    H247651   4.587   0.742  11.448  0.8262  0.3590  0.2398
 8746TIP3   OH247652   2.751   5.783   5.830 -0.3482 -0.0884 -0.6728
 8746TIP3    H147653   2.843   5.799   5.849 -0.5733 -0.5021  0.8987
 8746TIP3    H247654   2.747   5.779   5.734  1.0014  1.3510 -0.8313
 8747TIP3   OH247655   0.972   4.896  14.071  0.8318  0.1451  0.0932
 8747TIP3    H147656   1.014   4.846  14.000 -0.6605 -0.8142 -0.1510
 8747TIP3    H247657   0.907   4.950  14.028  1.3602  1.1738  0.5387
 8748TIP3   OH247658   3.060   1.105  13.422  0.4973 -0.1181 -0.8801
 8748TIP3    H147659   3.055   1.024  13.474 -0.7913 -1.2355 -2.6366
 8748TIP3    H247660   3.018   1.171  13.478  2.8805 -0.2117  1.2093
 8749TIP3   OH247661   5.346   4.129  10.576 -0.1641 -0.3161 -0.3063
 8749TIP3    H147662   5.387   4.212  10.552  0.7383 -0.7705 -0.3659
 8749TIP3    H247663   5.302   4.101  10.495 -0.7959  0.2831 -0.1794
 8750TIP3   OH247664   0.487   0.469  15.845  0.4064  0.0691 -0.4617
 8750TIP3    H147665   0.516   0.378  15.845 -1.2855 -0.5151  0.4006
 8750TIP3    H247666   0.399   0.467  15.807  0.0137  1.2081  0.3206
 8751TIP3   OH247667   6.746   0.042  13.980  0.3104 -0.5621 -0.3894
 8751TIP3    H147668   6.759  -0.011  13.901  0.8119  1.4247 -1.7073
 8751TIP3    H247669   6.793   0.123  13.963 -0.0041  0.1511  1.7656
 8752TIP3   OH247670   6.523   4.381   2.159  0.1609 -0.1210 -0.5071
 8752TIP3    H147671   6.591   4.357   2.222  0.3816 -0.0348 -0.7150
 8752TIP3    H247672   6.522   4.309   2.096 -0.8578 -0.7885  0.2405
 8753TIP3   OH247673   3.963   5.150  14.908 -0.1261 -0.2397 -0.2753
 8753TIP3    H147674   3.961   5.226  14.850 -1.2140  0.6781  0.9012
 8753TIP3    H247675   3.922   5.080  14.858 -1.1521  0.5674 -0.6002
 8754TIP3   OH247676   2.719   5.619   0.799 -0.1736  0.0444 -0.4363
 8754TIP3    H147677   2.792   5.681   0.804 -0.3888  0.3686 -1.2155
 8754TIP3    H247678   2.642   5.673   0.785 -0.9608 -0.0787  2.6112
 8755TIP3   OH247679   2.389   4.246   1.918  0.1827 -0.2562 -0.5201
 8755TIP3    H147680   2.479   4.275   1.930  0.6827 -1.6073 -0.7687
 8755TIP3    H247681   2.336   4.322   1.941  1.3768  0.5336 -0.2658
 8756TIP3   OH247682   4.740   4.635  12.512  0.0681 -0.9237  0.1634
 8756TIP3    H147683   4.780   4.563  12.463  0.9784 -2.0368  2.4173
 8756TIP3    H247684   4.778   4.714  12.474  0.5089 -1.7099 -1.0871
 8757TIP3   OH247685   1.105   0.127  12.923 -0.1584 -0.0317  0.5763
 8757TIP3    H147686   1.035   0.191  12.941  0.5139  0.6510  0.8249
 8757TIP3    H247687   1.185   0.180  12.918  0.1641 -0.5974 -1.1451
 8758TIP3   OH247688   0.376   1.880   4.178  0.7789 -0.3512 -0.1283
 8758TIP3    H147689   0.288   1.844   4.181 -0.1590  1.7577 -0.6348
 8758TIP3    H247690   0.432   1.808   4.208 -1.1050 -1.6642  0.4494
 8759TIP3   OH247691   1.702   0.636  15.349 -0.1164 -0.1568  0.4244
 8759TIP3    H147692   1.640   0.563  15.350  0.7505 -1.0625 -2.1921
 8759TIP3    H247693   1.655   0.708  15.391 -2.1340 -1.3957  0.4239
 8760TIP3   OH247694   2.591   1.009   0.429 -0.1130 -0.2487  0.3181
 8760TIP3    H147695   2.554   0.947   0.366  0.1379 -0.5775  0.4917
 8760TIP3    H247696   2.623   0.954   0.500 -0.9114  0.1616  1.0024
 8761TIP3   OH247697   5.846   0.681  13.112 -0.4158 -0.1386  0.0690
 8761TIP3    H147698   5.896   0.605  13.082  0.3133  0.2461  0.2948
 8761TIP3    H247699   5.805   0.716  13.032  1.5237  0.8908 -0.5474
 8762TIP3   OH247700   5.466   4.879  13.086 -0.1022 -0.8194  0.1992
 8762TIP3    H147701   5.538   4.881  13.149 -0.1446  0.2570  0.2326
 8762TIP3    H247702   5.455   4.787  13.066  0.6908 -1.0803  0.8799
 8763TIP3   OH247703   2.375   5.851   3.646 -0.3238 -0.1833  0.8551
 8763TIP3    H147704   2.365   5.935   3.601 -0.3067  0.2577  1.6444
 8763TIP3    H247705   2.345   5.786   3.583 -1.6843  0.5381  0.7302
 8764TIP3   OH247706   3.757   0.229  17.091 -0.0590 -0.0119 -0.6377
 8764TIP3    H147707   3.824   0.163  17.109 -0.5011 -0.1922  0.4113
 8764TIP3    H247708   3.742   0.223  16.997 -0.1220 -1.4275 -0.5491
 8765TIP3   OH247709   5.568   3.856  11.288 -0.2454  0.0892 -0.5814
 8765TIP3    H147710   5.493   3.903  11.324  0.1597  0.1129  0.2479
 8765TIP3    H247711   5.616   3.921  11.237 -0.2999  0.2866 -0.3782
 8766TIP3   OH247712   3.875   1.238   6.276  0.0438  0.5307  0.0511
 8766TIP3    H147713   3.937   1.256   6.206 -1.7355 -0.4277 -1.8915
 8766TIP3    H247714   3.894   1.148   6.303  1.1354  1.1053  1.3075
 8767TIP3   OH247715   1.646   2.311  13.535 -0.9901  0.8881  0.5837
 8767TIP3    H147716   1.723   2.356  13.499 -0.7202 -0.9924 -1.3860
 8767TIP3    H247717   1.582   2.381  13.548 -0.1990  2.0326 -1.2246
 8768TIP3   OH247718   1.839   3.541  11.143 -0.6180  0.0737  0.0460
 8768TIP3    H147719   1.770   3.575  11.085 -0.5441 -0.9492 -0.6631
 8768TIP3    H247720   1.920   3.573  11.105 -0.5568 -0.7524 -0.5506
 8769TIP3   OH247721   4.899   3.023  12.947 -0.0345  0.2988  0.4922
 8769TIP3    H147722   4.914   2.929  12.944  1.3555  0.5136  0.0492
 8769TIP3    H247723   4.808   3.032  12.978 -0.3231 -1.1744  0.1371
 8770TIP3   OH247724   3.530   3.933   3.388 -0.3446  0.6914 -1.0667
 8770TIP3    H147725   3.472   3.857   3.387  0.7920 -0.2218 -0.0344
 8770TIP3    H247726   3.473   4.007   3.369 -1.7187 -0.2618 -0.7610
 8771TIP3   OH247727   0.187   3.607  13.648 -0.3549 -0.2742 -0.5916
 8771TIP3    H147728   0.133   3.672  13.604  0.2355  0.9015  0.3447
 8771TIP3    H247729   0.169   3.525  13.602 -0.3135  0.7316 -2.5423
 8772TIP3   OH247730   6.489   3.825  12.185  0.1418 -0.3102 -0.1160
 8772TIP3    H147731   6.499   3.877  12.105 -0.2005 -0.1278 -0.0425
 8772TIP3    H247732   6.443   3.884  12.246  0.7942 -0.2841  0.3683
 8773TIP3   OH247733   5.143   6.718   5.810 -0.0231  0.1266 -0.2966
 8773TIP3    H147734   5.052   6.739   5.833  0.4427  0.4271  1.3882
 8773TIP3    H247735   5.166   6.647   5.870  1.4111  1.2623  0.5544
 8774TIP3   OH247736   3.812   6.008   1.054  0.5056  0.0521 -0.3532
 8774TIP3    H147737   3.804   6.103   1.046  0.4070  0.0059 -0.8655
 8774TIP3    H247738   3.906   5.992   1.059  0.7807 -0.0290 -3.5591
 8775TIP3   OH247739   0.862   5.685   4.645 -0.7094  0.4716 -0.7936
 8775TIP3    H147740   0.911   5.684   4.563  2.0020 -1.0503  0.7140
 8775TIP3    H247741   0.891   5.764   4.691 -1.8873  1.0858 -1.0698
 8776TIP3   OH247742   6.425   5.957   4.219  0.0691  0.4187  0.0764
 8776TIP3    H147743   6.439   6.050   4.235 -0.6639  0.7129 -0.8707
 8776TIP3    H247744   6.330   5.947   4.215  0.1303 -0.4398  0.5019
 8777TIP3   OH247745   0.406   1.275  13.223 -0.3562  0.1117 -0.8317
 8777TIP3    H147746   0.345   1.331  13.272  0.4770  0.5636 -0.3021
 8777TIP3    H247747   0.349   1.220  13.169 -1.2155  1.1457 -1.0188
 8778TIP3   OH247748   2.495   2.997   3.912 -0.0809 -0.4069 -0.2196
 8778TIP3    H147749   2.540   3.013   3.995 -1.9404 -0.7339  0.9228
 8778TIP3    H247750   2.540   3.054   3.849  0.7741  0.5931  1.2174
 8779TIP3   OH247751   3.404   3.511   1.664 -0.6365 -0.2441  0.8271
 8779TIP3    H147752   3.475   3.573   1.647 -0.4507 -0.7629 -0.4140
 8779TIP3    H247753   3.364   3.541   1.745 -0.6658  1.6106  0.1667
 8780TIP3   OH247754   3.473   0.905   1.995 -0.3108  0.4813 -0.3932
 8780TIP3    H147755   3.491   0.909   1.901 -0.7994 -1.1811 -0.5918
 8780TIP3    H247756   3.397   0.847   2.002  1.2874 -1.5825  1.1772
 8781TIP3   OH247757   4.762   1.018   6.435 -0.2837 -0.0438  0.5048
 8781TIP3    H147758   4.682   0.975   6.408 -0.4771  0.4580  0.2640
 8781TIP3    H247759   4.832   0.960   6.404 -0.5548 -0.7568  1.1927
 8782TIP3   OH247760   6.138   3.131   2.157 -0.1893 -0.5244  0.5784
 8782TIP3    H147761   6.144   3.182   2.076  3.3512 -0.7834  0.5245
 8782TIP3    H247762   6.179   3.186   2.223  0.1336 -1.7063  1.3971
 8783TIP3   OH247763   3.776   3.368  11.288 -0.2575  0.0565 -0.3086
 8783TIP3    H147764   3.848   3.423  11.258 -1.1160  0.8017 -1.0812
 8783TIP3    H247765   3.715   3.367  11.214 -0.1576 -2.1762 -0.4446
 8784TIP3   OH247766   5.496   5.415   4.261  0.0265  0.3217  0.2575
 8784TIP3    H147767   5.409   5.417   4.222  0.7771 -3.8224 -2.3175
 8784TIP3    H247768   5.488   5.354   4.334  0.8446 -0.9043 -0.6267
 8785TIP3   OH247769   5.826   2.696  17.233  0.2781 -0.5043 -0.1396
 8785TIP3    H147770   5.853   2.609  17.263 -0.1391 -1.1260 -1.4481
 8785TIP3    H247771   5.864   2.704  17.145 -0.0542  0.4511 -0.2140
 8786TIP3   OH247772   3.581   4.954   3.690  0.2369  0.2112  0.0910
 8786TIP3    H147773   3.560   4.880   3.747  1.1631 -0.8522 -0.9064
 8786TIP3    H247774   3.545   4.930   3.604  2.0608  0.0861 -0.6841
 8787TIP3   OH247775   3.894   0.200   0.261 -0.2249  0.1775 -0.5599
 8787TIP3    H147776   3.890   0.112   0.297 -1.2949  0.7875  0.9288
 8787TIP3    H247777   3.978   0.235   0.291 -0.0957 -0.0955 -0.5981
 8788TIP3   OH247778   5.771   3.834   0.719 -0.2579 -0.7218  0.0118
 8788TIP3    H147779   5.816   3.867   0.797 -0.2289  0.6313 -0.5429
 8788TIP3    H247780   5.679   3.829   0.744 -0.1789 -0.7759  0.2862
 8789TIP3   OH247781   5.829   5.348   3.410  0.1259  0.0664  0.0762
 8789TIP3    H147782   5.893   5.281   3.385  1.5932  0.7709  1.6919
 8789TIP3    H247783   5.883   5.424   3.434 -1.2065  0.3453  2.5366
 8790TIP3   OH247784   0.506   6.573  14.974 -0.7820 -0.7619 -0.0199
 8790TIP3    H147785   0.506   6.599  15.067 -0.9026  0.2829 -0.2914
 8790TIP3    H247786   0.436   6.509  14.967 -1.9785  0.4573  0.2945
 8791TIP3   OH247787   2.651   5.713   5.591 -0.1423  0.2620 -0.0273
 8791TIP3    H147788   2.558   5.721   5.612  0.0602  2.7340  0.2716
 8791TIP3    H247789   2.657   5.634   5.537 -2.2679 -0.3885  0.5876
 8792TIP3   OH247790   6.037   6.068   0.271  0.7512 -0.1059 -0.4916
 8792TIP3    H147791   6.022   6.018   0.191  1.1682 -0.1150 -0.5685
 8792TIP3    H247792   6.132   6.078   0.274  0.5930  2.3104 -1.4740
 8793TIP3   OH247793   6.235   4.146   3.829  0.1746  0.5595  0.2219
 8793TIP3    H147794   6.203   4.140   3.919 -1.6526 -0.5298 -0.4432
 8793TIP3    H247795   6.271   4.059   3.810  1.8741  1.2068  0.3282
 8794TIP3   OH247796   5.527   3.929  15.094 -0.2501 -0.3079 -0.0617
 8794TIP3    H147797   5.578   3.987  15.152 -1.2621  1.1409 -0.5549
 8794TIP3    H247798   5.592   3.872  15.053  0.6325 -0.4471  1.4651
 8795TIP3   OH247799   2.437   5.022   0.545 -0.5809 -0.0111  0.0376
 8795TIP3    H147800   2.411   4.945   0.494 -2.4118 -0.2725  1.2590
 8795TIP3    H247801   2.425   4.996   0.636  2.4841  0.4966  0.6944
 8796TIP3   OH247802   0.762   4.771  14.698 -0.1789 -0.0083 -0.2269
 8796TIP3    H147803   0.708   4.766  14.777 -0.7652 -1.6889 -0.6967
 8796TIP3    H247804   0.701   4.751  14.626  0.2717  1.7621 -1.1595
 8797TIP3   OH247805   1.400   1.091  10.746  0.3647 -0.3381 -0.3666
 8797TIP3    H147806   1.340   1.088  10.671 -0.3025 -2.1217  0.1931
 8797TIP3    H247807   1.459   1.164  10.726 -0.2630 -0.2866 -2.2612
 8798TIP3   OH247808   1.945   3.828   5.309  0.1348  0.0147  0.1733
 8798TIP3    H147809   1.928   3.923   5.306 -0.9849 -0.1998 -0.6582
 8798TIP3    H247810   1.930   3.804   5.401  0.5105  0.6467  0.4092
 8799TIP3   OH247811   2.191   4.652   0.712  0.1566 -0.0970 -0.1322
 8799TIP3    H147812   2.106   4.694   0.722  0.0909 -0.4179  0.7716
 8799TIP3    H247813   2.174   4.560   0.732  0.9679  0.0705  1.4576
 8800TIP3   OH247814   3.013   0.100   2.760 -0.2269  0.2724  0.1281
 8800TIP3    H147815   2.921   0.117   2.741 -0.8117 -1.1840  1.4374
 8800TIP3    H247816   3.041   0.039   2.693 -0.1948  0.7450 -0.2931
 8801TIP3   OH247817   6.026   0.226  11.508 -0.2018  0.4092  0.5158
 8801TIP3    H147818   5.998   0.301  11.455  0.9252 -0.2268 -1.0459
 8801TIP3    H247819   5.948   0.172  11.515 -0.5634  0.8673  0.1278
 8802TIP3   OH247820   0.242   6.433  16.443  0.5038 -0.6175 -0.4560
 8802TIP3    H147821   0.201   6.386  16.371 -0.9271 -0.2181  0.0808
 8802TIP3    H247822   0.180   6.426  16.516  2.6852 -2.6728  1.4165
 8803TIP3   OH247823   1.535   4.769  12.785 -0.3329  0.0907 -0.0634
 8803TIP3    H147824   1.597   4.832  12.748  1.1911 -1.0160  0.4686
 8803TIP3    H247825   1.573   4.683  12.764 -1.1671 -0.6079  1.1275
 8804TIP3   OH247826   4.499   1.115  16.154 -0.2209 -0.7654  0.2972
 8804TIP3    H147827   4.434   1.152  16.213  1.0325  1.2925  0.4955
 8804TIP3    H247828   4.462   1.128  16.067 -0.4510 -0.3666  0.4500
 8805TIP3   OH247829   6.739   2.047   4.049 -0.2787 -0.3550  0.0304
 8805TIP3    H147830   6.799   2.119   4.069 -1.4784  0.6883 -0.0255
 8805TIP3    H247831   6.688   2.077   3.974 -0.8518 -1.2402  0.0396
 8806TIP3   OH247832   6.478   3.320  15.555  0.1841 -0.3453  0.2501
 8806TIP3    H147833   6.528   3.303  15.475 -0.6398 -0.5029 -0.2365
 8806TIP3    H247834   6.443   3.408  15.543 -0.1742 -0.4795  0.3135
 8807TIP3   OH247835   4.779   4.458  11.485  0.0839 -0.5376  0.2621
 8807TIP3    H147836   4.742   4.457  11.396  2.2804  1.6062 -0.7709
 8807TIP3    H247837   4.812   4.369  11.497  0.1700 -0.7443 -1.2588
 8808TIP3   OH247838   5.349   3.486   3.387 -0.1723  0.5094  0.0027
 8808TIP3    H147839   5.382   3.552   3.448  1.0791  0.1184 -0.2299
 8808TIP3    H247840   5.427   3.450   3.346 -0.9475  0.1718 -1.2241
 8809TIP3   OH247841   3.826   5.955   3.311  0.1098  0.3551  0.4980
 8809TIP3    H147842   3.795   6.035   3.355  0.3518 -0.1972  1.7278
 8809TIP3    H247843   3.905   5.930   3.360  0.9323  0.2119 -0.8557
 8810TIP3   OH247844   2.441   6.135  12.499 -0.0944  0.1848  0.4526
 8810TIP3    H147845   2.399   6.135  12.585  1.5086  1.8943  1.3028
 8810TIP3    H247846   2.492   6.216  12.497 -0.7114  0.6063 -2.4436
 8811TIP3   OH247847   4.882   4.057  14.284 -0.6306 -0.2136  0.5890
 8811TIP3    H147848   4.959   4.112  14.270 -0.8103 -0.0357  0.3103
 8811TIP3    H247849   4.917   3.968  14.289 -0.2459 -0.0126  1.7959
 8812TIP3   OH247850   2.311   5.170   0.930  0.2417  0.6654  0.2829
 8812TIP3    H147851   2.284   5.255   0.896  0.3314  0.3723 -0.5516
 8812TIP3    H247852   2.256   5.107   0.882 -0.5945  0.3074  1.6727
 8813TIP3   OH247853   2.315   1.147  11.486 -0.0928 -0.0929  0.5694
 8813TIP3    H147854   2.240   1.196  11.452  1.1341  0.1581 -1.9736
 8813TIP3    H247855   2.315   1.066  11.437  1.4536  0.0358  0.3311
 8814TIP3   OH247856   5.825   1.708  11.211 -0.0768 -0.6659  0.1245
 8814TIP3    H147857   5.761   1.751  11.154 -0.0611  0.9283  1.2562
 8814TIP3    H247858   5.906   1.758  11.199  0.2999 -1.1656  0.5287
 8815TIP3   OH247859   0.734   5.357  13.639 -0.5359 -0.0307  0.2520
 8815TIP3    H147860   0.792   5.307  13.581  0.3131 -0.3941  1.3730
 8815TIP3    H247861   0.765   5.447  13.633 -0.5615 -0.0382  0.0131
 8816TIP3   OH247862   5.031   1.801   1.120 -0.4289  0.6116  0.0404
 8816TIP3    H147863   5.100   1.809   1.053  0.3586  0.4350  0.8178
 8816TIP3    H247864   5.007   1.709   1.118  0.2108  0.4243  0.5885
 8817TIP3   OH247865   2.199   6.327  13.075 -0.3196  0.0626 -0.0779
 8817TIP3    H147866   2.254   6.401  13.100  1.1069 -0.8135 -0.5316
 8817TIP3    H247867   2.209   6.320  12.980  0.7193 -1.5761  0.1144
 8818TIP3   OH247868   6.149   4.062  15.052  0.4294 -0.0910  0.6480
 8818TIP3    H147869   6.228   4.060  14.998  1.6834  1.0952  2.3467
 8818TIP3    H247870   6.079   4.036  14.992  1.9376 -0.1999 -1.1698
 8819TIP3   OH247871   2.035   2.729   1.260 -0.0723 -0.0939 -0.3216
 8819TIP3    H147872   2.025   2.721   1.165 -3.7031 -3.8837  0.0870
 8819TIP3    H247873   2.124   2.698   1.278 -0.0317 -1.3279 -2.3724
 8820TIP3   OH247874   0.980   5.328  15.527 -0.4740  0.3938  0.0338
 8820TIP3    H147875   1.047   5.372  15.580  0.1809  0.5889 -0.9317
 8820TIP3    H247876   0.899   5.377  15.546 -0.2028  0.6168  0.6485
 8821TIP3   OH247877   5.113   1.994   0.176 -0.0128 -0.7575  0.3727
 8821TIP3    H147878   5.037   2.045   0.147 -1.4060 -1.8704  1.8586
 8821TIP3    H247879   5.144   2.040   0.254  2.1881  0.8302 -1.2908
 8822TIP3   OH247880   5.294   5.333   3.912 -0.3208  0.7038  0.3547
 8822TIP3    H147881   5.202   5.324   3.938 -0.8911  1.3191 -1.3130
 8822TIP3    H247882   5.301   5.425   3.884  0.4993  0.3556 -0.6208
 8823TIP3   OH247883   5.115   5.284   5.213  0.4525 -0.1097 -0.0821
 8823TIP3    H147884   5.044   5.287   5.278  0.2116  0.1568 -0.3555
 8823TIP3    H247885   5.190   5.324   5.258  0.1883  0.3962 -0.0870
 8824TIP3   OH247886   2.865   5.335  12.756 -0.1189  0.8496 -0.0825
 8824TIP3    H147887   2.932   5.358  12.821  0.4607  2.5175 -1.1912
 8824TIP3    H247888   2.782   5.354  12.799  0.1786  0.3407  0.7341
 8825TIP3   OH247889   1.070   4.457   0.358  0.1029  0.4130  0.1784
 8825TIP3    H147890   1.077   4.552   0.350  1.2215  0.2526 -1.0878
 8825TIP3    H247891   1.014   4.430   0.285 -0.7130  0.1467  0.8899
 8826TIP3   OH247892   0.049   6.032   4.284  0.2759 -0.4126  0.0139
 8826TIP3    H147893  -0.005   6.074   4.217  1.9070 -0.5141 -1.4410
 8826TIP3    H247894  -0.004   5.958   4.314 -0.2278 -0.8171 -1.7329
 8827TIP3   OH247895   3.121   3.776   6.339  0.6419 -0.3820 -0.4371
 8827TIP3    H147896   3.161   3.761   6.425  0.1570 -2.5624 -0.5240
 8827TIP3    H247897   3.139   3.695   6.290 -3.0550 -1.1873 -0.7518
 8828TIP3   OH247898   4.534   2.602  14.843  0.7576  0.5697 -0.3385
 8828TIP3    H147899   4.493   2.582  14.759  2.2301 -0.0096 -0.9524
 8828TIP3    H247900   4.628   2.608  14.823  1.1740  0.0465  1.3194
 8829TIP3   OH247901   5.002   2.996  16.234  0.0823 -0.2831 -0.2588
 8829TIP3    H147902   4.950   2.988  16.314  0.1222  0.6978 -0.1233
 8829TIP3    H247903   5.083   3.039  16.262  0.2992 -0.3685 -0.7427
 8830TIP3   OH247904   0.567   1.492   0.345 -0.4647 -0.6228  0.0172
 8830TIP3    H147905   0.577   1.505   0.251 -1.1187 -0.0454  0.0204
 8830TIP3    H247906   0.564   1.580   0.381 -2.3010 -0.7814  0.3460
 8831TIP3   OH247907   2.406   5.188   1.675 -0.0682  0.0152  0.5359
 8831TIP3    H147908   2.437   5.141   1.752  0.1191 -0.0083  0.4468
 8831TIP3    H247909   2.438   5.277   1.686 -1.4707  0.4549  1.3205
 8832TIP3   OH247910   0.010   4.070  17.329 -0.8228 -0.3760 -0.6798
 8832TIP3    H147911  -0.083   4.079  17.350 -0.5906  0.2755  0.0955
 8832TIP3    H247912   0.011   4.048  17.235 -1.7568 -0.5166 -0.6682
 8833TIP3   OH247913   6.269   6.224  12.965 -1.2006  0.6538 -0.1460
 8833TIP3    H147914   6.242   6.134  12.984 -0.5377  0.7759  1.5282
 8833TIP3    H247915   6.358   6.216  12.931 -0.0633  0.7651  2.5105
 8834TIP3   OH247916   4.405   6.341  12.014  0.4034  0.1581  0.1461
 8834TIP3    H147917   4.475   6.365  11.954  0.8429 -0.4162  0.4287
 8834TIP3    H247918   4.397   6.416  12.073 -0.6518  1.1447 -1.1499
 8835TIP3   OH247919   0.139   4.063   0.646 -0.2667 -0.0855  0.4138
 8835TIP3    H147920   0.181   4.149   0.644  1.6359 -0.9659  0.4588
 8835TIP3    H247921   0.046   4.083   0.653  0.0435  1.9841 -0.3740
 8836TIP3   OH247922   0.129   6.502   1.322  0.0155 -0.3463  0.6084
 8836TIP3    H147923   0.118   6.422   1.271  0.4046 -0.5072  0.7716
 8836TIP3    H247924   0.063   6.497   1.391  0.7461 -1.0535  1.2751
 8837TIP3   OH247925   0.871   5.004   2.615  0.4655 -0.0974  0.4059
 8837TIP3    H147926   0.866   5.100   2.613 -0.6870 -0.1556 -1.0428
 8837TIP3    H247927   0.813   4.975   2.545  1.8858 -1.8286 -0.1358
 8838TIP3   OH247928   5.052   5.787  14.095 -0.2387 -0.1902  0.2335
 8838TIP3    H147929   4.958   5.770  14.103 -0.1543 -1.1627 -0.5765
 8838TIP3    H247930   5.093   5.702  14.113  0.4022 -0.0953 -0.7301
 8839TIP3   OH247931   6.746   0.015  12.276 -0.6967 -0.3528  0.0005
 8839TIP3    H147932   6.833   0.047  12.251 -1.1969  2.7511  1.7314
 8839TIP3    H247933   6.737  -0.068  12.230  2.6085 -0.1109 -1.3503
 8840TIP3   OH247934   1.352   3.781  12.488  0.3843  0.0237  1.3016
 8840TIP3    H147935   1.323   3.809  12.401 -2.3120  1.0341  2.4078
 8840TIP3    H247936   1.366   3.686  12.480  1.2315  0.2583 -0.4341
 8841TIP3   OH247937   4.853   4.213  17.319 -0.4135  0.2341  0.0621
 8841TIP3    H147938   4.778   4.224  17.378 -0.6166  0.0329 -0.1547
 8841TIP3    H247939   4.928   4.247  17.368 -0.7115  0.8085  0.1238
 8842TIP3   OH247940   4.351   3.464  12.695 -0.0372  0.0414 -0.4366
 8842TIP3    H147941   4.411   3.433  12.763 -2.0150 -0.8524  0.9792
 8842TIP3    H247942   4.378   3.416  12.616  0.9925 -0.4548  0.1940
 8843TIP3   OH247943   4.384   1.171  16.527  0.1596 -0.7611 -0.2409
 8843TIP3    H147944   4.305   1.152  16.578 -0.4193  1.5576 -0.1805
 8843TIP3    H247945   4.354   1.228  16.456  1.6130 -0.7062 -0.8416
 8844TIP3   OH247946   3.867   2.534  17.130  0.4390  0.5276 -0.4294
 8844TIP3    H147947   3.800   2.514  17.064  0.3929  1.1570 -0.5805
 8844TIP3    H247948   3.945   2.489  17.098  0.2463  0.2987 -0.5810
 8845TIP3   OH247949   0.668   3.152  16.049  0.0115  0.0217  0.1722
 8845TIP3    H147950   0.760   3.150  16.023  0.2816 -0.1945  1.1006
 8845TIP3    H247951   0.628   3.218  15.993  0.9554  0.8456  0.4372
 8846TIP3   OH247952   5.790   1.191  15.577  1.0304  0.0242  0.6090
 8846TIP3    H147953   5.698   1.194  15.551  0.7651 -0.6534  1.4106
 8846TIP3    H247954   5.815   1.099  15.569  1.9885  0.3688 -0.6999
 8847TIP3   OH247955   2.838   5.644   3.677  0.2298 -0.2083  0.0982
 8847TIP3    H147956   2.793   5.726   3.655  1.8262  0.4220 -1.0072
 8847TIP3    H247957   2.805   5.581   3.613 -0.1419 -0.1289  0.2094
 8848TIP3   OH247958   3.384   5.845  14.049  0.2792  0.0458 -0.0670
 8848TIP3    H147959   3.429   5.854  13.965 -1.1239  1.1317 -0.7428
 8848TIP3    H247960   3.316   5.779  14.032  0.9199 -0.8186  0.6489
 8849TIP3   OH247961   2.031   3.192  12.904 -0.0573 -0.0466  0.4012
 8849TIP3    H147962   1.965   3.122  12.905 -1.7182  1.4435  0.4075
 8849TIP3    H247963   2.046   3.212  12.996 -0.2471  0.1985  0.3790
 8850TIP3   OH247964   6.186   0.974  12.025  0.2218  0.0714  0.0350
 8850TIP3    H147965   6.266   1.018  11.996  0.7992 -0.4134  0.8518
 8850TIP3    H247966   6.214   0.884  12.045 -0.8756 -0.6234 -1.3399
 8851TIP3   OH247967   6.409   1.048   4.046  0.1019 -0.5312  0.3298
 8851TIP3    H147968   6.327   1.007   4.073 -0.0060 -0.7756 -0.3595
 8851TIP3    H247969   6.382   1.131   4.005  0.2740 -0.0924  1.0786
 8852TIP3   OH247970   5.736   5.391  14.858  0.1687 -0.1964 -0.3654
 8852TIP3    H147971   5.684   5.320  14.821 -0.7309  0.0024  0.4652
 8852TIP3    H247972   5.809   5.348  14.902  1.5058 -0.4189 -2.6642
 8853TIP3   OH247973   5.853   0.921  12.677 -0.3967  0.3175 -0.1210
 8853TIP3    H147974   5.948   0.929  12.689 -0.3735  1.3962 -0.9259
 8853TIP3    H247975   5.841   0.925  12.582 -1.3977  2.0880  0.0532
 8854TIP3   OH247976   2.403   5.270  16.696  0.3291 -0.1597  0.4532
 8854TIP3    H147977   2.407   5.303  16.786 -0.5770 -1.9092  1.1944
 8854TIP3    H247978   2.488   5.295  16.658 -0.2049  2.7543  0.9422
 8855TIP3   OH247979   4.200   6.684  14.474 -0.3349 -0.6084  0.3478
 8855TIP3    H147980   4.289   6.717  14.486 -1.3317  1.7817  1.9432
 8855TIP3    H247981   4.199   6.601  14.523  0.9685 -0.6272  0.3793
 8856TIP3   OH247982   3.578   1.859  13.934  0.2776  0.4091 -0.9282
 8856TIP3    H147983   3.660   1.848  13.885  1.3959  1.0305  0.7116
 8856TIP3    H247984   3.575   1.952  13.954  0.2353  0.0767  0.7595
 8857TIP3   OH247985   4.809   0.904   3.511  0.1696 -0.0800  0.3475
 8857TIP3    H147986   4.885   0.960   3.494 -0.2116  0.3823  0.1668
 8857TIP3    H247987   4.786   0.923   3.602 -0.7664  1.0423 -0.1076
 8858TIP3   OH247988   0.125   1.358   0.611  0.1046 -0.2568 -0.1826
 8858TIP3    H147989   0.212   1.363   0.572  0.7102  1.4188  1.2509
 8858TIP3    H247990   0.139   1.378   0.703 -1.8926  0.7403 -0.0478
 8859TIP3   OH247991   2.525   4.166  13.470 -0.0435  0.0954 -0.0202
 8859TIP3    H147992   2.599   4.157  13.411 -0.1893 -0.9718 -0.0588
 8859TIP3    H247993   2.561   4.152  13.558 -0.0758  0.3261  0.0337
 8860TIP3   OH247994   5.731   3.361   1.728  0.1208 -0.0991 -0.8598
 8860TIP3    H147995   5.819   3.355   1.692 -0.2190 -2.4117 -1.4446
 8860TIP3    H247996   5.725   3.290   1.791 -0.3401  1.9630  1.6069
 8861TIP3   OH247997   2.108   4.209  14.958  0.3499 -0.4405 -0.7331
 8861TIP3    H147998   2.142   4.176  14.875 -0.7322 -2.2521 -0.5094
 8861TIP3    H247999   2.165   4.171  15.025  0.6690  0.2753 -0.5908
 8862TIP3   OH248000   6.731   2.879   2.399  0.5981 -0.6455 -0.3219
 8862TIP3    H148001   6.779   2.843   2.325  0.2906 -1.8488  0.0524
 8862TIP3    H248002   6.765   2.832   2.475 -0.0678 -0.4089  0.1325
 8863TIP3   OH248003   0.468   1.295  13.647  0.1858 -0.7473 -0.3524
 8863TIP3    H148004   0.510   1.338  13.721  0.5010 -1.6510  0.0139
 8863TIP3    H248005   0.416   1.225  13.687 -0.5004 -0.5646 -0.9115
 8864TIP3   OH248006   2.197   6.232  15.963  0.7109  0.0893  0.0537
 8864TIP3    H148007   2.270   6.191  16.009  0.9193  0.3524 -0.0474
 8864TIP3    H248008   2.170   6.303  16.021  1.1668  0.6120 -0.3737
 8865TIP3   OH248009   0.638   3.535  13.867 -0.3662 -0.3517  0.4946
 8865TIP3    H148010   0.592   3.618  13.877 -0.1261 -0.1925  0.2740
 8865TIP3    H248011   0.731   3.557  13.869 -0.2953 -0.4107 -1.1634
 8866TIP3   OH248012   2.068   0.606  11.931  0.1172 -0.4589  0.0731
 8866TIP3    H148013   2.015   0.536  11.970  1.1623 -2.1082 -1.3123
 8866TIP3    H248014   2.029   0.621  11.845  1.0055 -0.6640 -0.3768
 8867TIP3   OH248015   0.793   5.171  12.973 -0.1639 -0.3928  0.1767
 8867TIP3    H148016   0.722   5.220  12.932  0.5124 -1.2266 -2.1327
 8867TIP3    H248017   0.862   5.236  12.986 -0.6915  0.0526  0.8174
 8868TIP3   OH248018   6.322   3.391   5.264  0.2495  0.0538  0.4382
 8868TIP3    H148019   6.230   3.370   5.245 -0.0339  3.0878 -2.5060
 8868TIP3    H248020   6.371   3.322   5.218 -0.5844  0.0758 -0.5420
 8869TIP3   OH248021   3.490   4.860  11.317 -0.0491  0.5692  0.0939
 8869TIP3    H148022   3.563   4.863  11.378 -0.0082  0.4548  0.0526
 8869TIP3    H248023   3.414   4.890  11.367 -0.0954  0.0969  0.3184
 8870TIP3   OH248024   3.334   2.607  16.181 -0.9022 -1.0770  0.3243
 8870TIP3    H148025   3.330   2.533  16.121 -3.1480 -1.7871  1.2139
 8870TIP3    H248026   3.300   2.681  16.130 -0.6597 -1.1557  0.0516
 8871TIP3   OH248027   2.928   5.781  15.135 -0.0114  0.1619  0.0490
 8871TIP3    H148028   2.862   5.742  15.077 -0.7253 -0.6987  1.4074
 8871TIP3    H248029   2.891   5.865  15.161 -0.0544  0.1893 -0.1008
 8872TIP3   OH248030   6.576   0.250  15.007 -0.1860 -0.8323 -0.1403
 8872TIP3    H148031   6.545   0.206  14.928  0.2108  1.7092 -1.8272
 8872TIP3    H248032   6.496   0.274  15.054 -0.4480 -1.7362 -0.1035
 8873TIP3   OH248033   0.071   1.487   4.557 -0.2549 -0.8460  0.1187
 8873TIP3    H148034   0.088   1.490   4.651 -1.3162 -1.9314  0.3784
 8873TIP3    H248035   0.151   1.452   4.519 -0.1639 -1.3148  0.7354
 8874TIP3   OH248036   2.987   1.337  17.306 -0.4323  0.3665  0.0947
 8874TIP3    H148037   2.928   1.388  17.362  1.3777  0.5944  1.8813
 8874TIP3    H248038   3.026   1.402  17.247  0.0481  0.6546  0.7274
 8875TIP3   OH248039   3.607   0.005  15.494  0.2255 -0.0618 -0.2858
 8875TIP3    H148040   3.580   0.087  15.535 -0.0141  0.0436 -0.6514
 8875TIP3    H248041   3.525  -0.044  15.483  0.5019 -0.8989  1.1027
 8876TIP3   OH248042   4.016   2.865   3.692 -0.5659  0.0532  0.1478
 8876TIP3    H148043   4.082   2.811   3.737 -1.7273 -1.3000  0.2807
 8876TIP3    H248044   4.004   2.940   3.750  0.5009  0.0808  0.3564
 8877TIP3   OH248045   3.790   1.609   0.512  0.4561 -0.1854 -0.2232
 8877TIP3    H148046   3.803   1.700   0.487  0.0145  0.2219  0.9680
 8877TIP3    H248047   3.841   1.598   0.592  1.1881 -1.2274 -0.8087
 8878TIP3   OH248048   5.964   2.075   1.995  0.1200 -0.1455 -0.1979
 8878TIP3    H148049   5.887   2.105   1.946 -0.8996 -2.0962  0.1432
 8878TIP3    H248050   5.955   2.116   2.081 -1.1100 -1.1443  0.1768
 8879TIP3   OH248051   5.973   6.443  13.263 -0.1744 -0.2012  0.0099
 8879TIP3    H148052   5.896   6.388  13.248 -0.8616  0.3395  1.4415
 8879TIP3    H248053   6.040   6.382  13.295 -0.4101 -0.4692 -0.0066
 8880TIP3   OH248054   4.730   3.464   3.365 -0.1041 -0.7499 -0.0528
 8880TIP3    H148055   4.784   3.465   3.286  1.7657 -1.3605  1.1533
 8880TIP3    H248056   4.720   3.557   3.389  1.4699 -0.6692  0.3616
 8881TIP3   OH248057   3.037   2.832  15.612  0.4502  0.3259 -0.1052
 8881TIP3    H148058   3.041   2.925  15.593 -0.1172  0.1707 -1.0278
 8881TIP3    H248059   3.007   2.827  15.703 -0.0210  1.0305 -0.2207
 8882TIP3   OH248060   6.280   4.722   1.610 -0.7105 -0.0065 -0.2547
 8882TIP3    H148061   6.374   4.730   1.628 -0.7481  0.6176 -0.3187
 8882TIP3    H248062   6.274   4.651   1.546 -0.5327 -1.9137  1.7416
 8883TIP3   OH248063   4.763   2.421  16.021  0.1632  0.0682 -0.4918
 8883TIP3    H148064   4.669   2.431  16.035  0.4349  2.4605  0.0637
 8883TIP3    H248065   4.803   2.471  16.092  1.9003 -1.9424  0.0183
 8884TIP3   OH248066   3.312   1.708  11.706 -0.0923  0.3009 -1.1059
 8884TIP3    H148067   3.260   1.732  11.784  1.0468  0.0485 -0.2404
 8884TIP3    H248068   3.247   1.678  11.643 -0.9431 -1.0673  0.3444
 8885TIP3   OH248069   2.239   6.654  15.478 -0.2050  0.0558 -0.7301
 8885TIP3    H148070   2.203   6.737  15.508 -0.5154  0.4692 -2.1783
 8885TIP3    H248071   2.164   6.594  15.476  0.1833 -0.5634  1.2116
 8886TIP3   OH248072   2.139   0.478   3.865  0.2385  0.2261 -0.7481
 8886TIP3    H148073   2.085   0.552   3.841  0.9323  1.2889  0.8068
 8886TIP3    H248074   2.194   0.462   3.789 -1.5665 -0.2972 -2.0084
 8887TIP3   OH248075   0.733   3.620  16.605 -0.3856  0.5240  0.1740
 8887TIP3    H148076   0.682   3.553  16.560 -0.2847 -0.7351  1.8471
 8887TIP3    H248077   0.777   3.667  16.534 -0.6020 -1.0409 -1.0741
 8888TIP3   OH248078   1.831   6.189  14.697  1.1913 -0.2482 -0.4446
 8888TIP3    H148079   1.830   6.182  14.793 -0.7625 -0.0331 -0.4211
 8888TIP3    H248080   1.752   6.143  14.668  1.5350  0.0495 -1.9392
 8889TIP3   OH248081   0.775   0.224  13.228 -0.2394  0.1154 -0.7653
 8889TIP3    H148082   0.870   0.226  13.240 -0.0196  1.7104 -2.2703
 8889TIP3    H248083   0.759   0.147  13.173  0.4454  0.8293 -2.0246
 8890TIP3   OH248084   5.177   1.704  16.104 -0.3312  0.1348  0.9096
 8890TIP3    H148085   5.219   1.731  16.186 -1.5490 -2.5386  2.5110
 8890TIP3    H248086   5.180   1.609  16.105  1.0413 -0.0775 -2.9944
 8891TIP3   OH248087   1.042   5.388  16.550 -0.0229 -0.3547  0.1781
 8891TIP3    H148088   1.096   5.323  16.594 -0.3412 -0.7884 -0.0745
 8891TIP3    H248089   1.044   5.363  16.457 -1.1569 -0.7387  0.2406
 8892TIP3   OH248090   0.809   2.947   5.662  0.3188 -0.2331  0.5269
 8892TIP3    H148091   0.789   3.040   5.648  0.2692 -0.5435 -1.6829
 8892TIP3    H248092   0.903   2.946   5.681  0.0377  0.3766  2.1756
 8893TIP3   OH248093   1.550   4.570   5.177  0.7921  0.2318 -0.3113
 8893TIP3    H148094   1.642   4.552   5.194  0.8010  0.2061 -0.3887
 8893TIP3    H248095   1.519   4.613   5.257  0.6511 -0.5599  0.0774
 8894TIP3   OH248096   4.863   2.137  11.036 -0.4098 -0.2483  0.2990
 8894TIP3    H148097   4.874   2.162  10.944  2.1254 -1.9681  0.0152
 8894TIP3    H248098   4.806   2.060  11.033  0.8351 -1.1943 -0.0505
 8895TIP3   OH248099   3.001   3.914   0.330  0.1082 -0.0328 -0.2514
 8895TIP3    H148100   2.998   3.980   0.261 -2.8540  1.5905  1.2624
 8895TIP3    H248101   2.997   3.964   0.411 -1.1054 -2.0255  0.9921
 8896TIP3   OH248102   5.722   0.712   5.810  0.0633  0.1021  0.4618
 8896TIP3    H148103   5.641   0.661   5.816  0.4427 -0.5351  0.2679
 8896TIP3    H248104   5.693   0.803   5.809 -0.7088 -0.1377 -0.3543
 8897TIP3   OH248105   3.320   2.476   5.753  0.3794  0.1213  0.0622
 8897TIP3    H148106   3.277   2.485   5.668 -1.2085  3.2670  1.0507
 8897TIP3    H248107   3.405   2.518   5.742  0.5386 -0.2603 -0.1804
 8898TIP3   OH248108   4.538   4.993  17.376  0.0823  0.4736  0.1988
 8898TIP3    H148109   4.489   4.930  17.429 -0.6771  0.3900 -0.5759
 8898TIP3    H248110   4.598   4.940  17.324 -0.1051  0.4385  0.0160
 8899TIP3   OH248111   1.834   3.423  14.433  0.0730 -0.3422 -0.1961
 8899TIP3    H148112   1.801   3.351  14.379 -1.1551  2.2180 -3.1505
 8899TIP3    H248113   1.758   3.481  14.446  1.6971  2.0846 -0.8716
 8900TIP3   OH248114   4.633   3.502  16.177  0.0982  0.6738  0.7642
 8900TIP3    H148115   4.628   3.504  16.081 -0.8838 -1.0012  0.7606
 8900TIP3    H248116   4.700   3.567  16.198 -0.5838  2.0246 -0.9785
 8901TIP3   OH248117   3.998   1.761   3.891 -0.8968  0.5371 -0.1418
 8901TIP3    H148118   4.058   1.835   3.898 -2.4713  2.1647 -2.3588
 8901TIP3    H248119   3.914   1.796   3.920 -1.5504 -0.5650 -0.6509
 8902TIP3   OH248120   4.792   2.631   3.562 -0.7444  0.9887  0.1603
 8902TIP3    H148121   4.825   2.674   3.641 -0.7076  1.8617 -0.3216
 8902TIP3    H248122   4.871   2.596   3.519 -0.7411  0.7106  0.3887
 8903TIP3   OH248123   5.731   1.688  13.936  0.4752  0.1938  0.2052
 8903TIP3    H148124   5.783   1.670  14.014  0.4070  0.6531  0.3569
 8903TIP3    H248125   5.660   1.623  13.939  0.7234 -0.0762  0.2867
 8904TIP3   OH248126   2.965   2.352   4.501 -0.5216 -0.0044 -0.3980
 8904TIP3    H148127   3.011   2.287   4.448 -0.6303 -0.8317  0.4872
 8904TIP3    H248128   3.003   2.343   4.589  0.4386  2.1016 -0.5454
 8905TIP3   OH248129   3.759   1.246  14.868 -0.0388 -0.3589  0.2071
 8905TIP3    H148130   3.751   1.207  14.781  1.7859 -2.0529  0.7237
 8905TIP3    H248131   3.669   1.268  14.893 -0.5182  1.1479 -2.4742
 8906TIP3   OH248132   1.297   1.364   3.973 -0.4085  0.3786 -0.1243
 8906TIP3    H148133   1.236   1.364   3.899  0.9699 -0.7171 -1.3167
 8906TIP3    H248134   1.312   1.457   3.992 -3.7424  0.7730  1.4103
 8907TIP3   OH248135   0.814   4.681  13.834  0.9341  0.2561 -0.5173
 8907TIP3    H148136   0.752   4.637  13.776  2.3806 -1.3259 -0.9249
 8907TIP3    H248137   0.763   4.700  13.913  0.3660 -2.7509 -0.0514
 8908TIP3   OH248138   1.556   2.394   5.294  0.4211 -0.4595 -0.1424
 8908TIP3    H148139   1.614   2.445   5.350  1.8340 -1.7890 -0.3167
 8908TIP3    H248140   1.481   2.372   5.349  0.9577 -0.2675  0.6660
 8909TIP3   OH248141   6.549   4.402   3.998  0.3847  0.2566 -0.0638
 8909TIP3    H148142   6.468   4.428   3.955 -0.1828 -0.1690  0.7186
 8909TIP3    H248143   6.571   4.317   3.961  0.8258  0.6533 -0.7324
 8910TIP3   OH248144   4.458   4.160  14.615  0.0666 -0.2549  0.1483
 8910TIP3    H148145   4.497   4.124  14.695  1.2925  1.3827  0.3374
 8910TIP3    H248146   4.526   4.216  14.578  0.1840 -2.2279 -3.0029
 8911TIP3   OH248147   5.255   3.994   2.621 -0.5159  0.1815 -0.1270
 8911TIP3    H148148   5.177   3.992   2.566 -0.9218 -3.2681  0.3342
 8911TIP3    H248149   5.282   3.902   2.628  0.5099  0.5831  4.0163
 8912TIP3   OH248150   6.228   2.866   0.205 -0.7963  0.1513 -0.5842
 8912TIP3    H148151   6.313   2.864   0.248 -0.8030 -0.0592 -0.5756
 8912TIP3    H248152   6.234   2.798   0.138 -1.5741 -1.1834  0.6190
 8913TIP3   OH248153   2.196   3.639   5.871 -0.3313 -0.4672 -0.1294
 8913TIP3    H148154   2.160   3.657   5.958 -0.5258 -2.8003  0.3565
 8913TIP3    H248155   2.120   3.609   5.820 -0.2401  0.9816 -1.1686
 8914TIP3   OH248156   5.762   6.646  11.752  0.4505  0.7889  0.3388
 8914TIP3    H148157   5.826   6.598  11.803  0.8849  0.7763 -0.2117
 8914TIP3    H248158   5.790   6.635  11.661 -0.6312  0.3344  0.0478
 8915TIP3   OH248159   1.683   4.696   4.259  0.2787 -0.0037  0.3413
 8915TIP3    H148160   1.587   4.686   4.259  0.3004 -0.3796 -1.1351
 8915TIP3    H248161   1.706   4.698   4.352 -1.1990  0.5227  0.7305
 8916TIP3   OH248162   0.299   6.030   3.874 -0.7438 -0.1323 -0.9945
 8916TIP3    H148163   0.208   6.001   3.883 -0.0898 -2.2925 -0.9333
 8916TIP3    H248164   0.330   6.041   3.963 -0.7855  0.1693 -1.0132
 8917TIP3   OH248165   5.081   3.382  14.796 -0.0505  0.1202  0.4534
 8917TIP3    H148166   5.097   3.288  14.784 -0.8941  0.0119  0.0996
 8917TIP3    H248167   5.132   3.424  14.727 -0.5029 -0.1539 -0.0548
 8918TIP3   OH248168   0.794   4.002  14.249  0.4391 -0.5150  0.0257
 8918TIP3    H148169   0.825   4.065  14.313  0.5092 -0.2766 -0.2429
 8918TIP3    H248170   0.699   4.011  14.250  0.5382  1.3187 -1.7426
 8919TIP3   OH248171   2.163   4.607  14.124 -0.0838 -0.4031 -0.1730
 8919TIP3    H148172   2.111   4.558  14.188  0.1491  0.2834  0.5556
 8919TIP3    H248173   2.231   4.649  14.176 -0.5200  1.0347 -0.7030
 8920TIP3   OH248174   2.107   6.650  16.631  0.1513  0.1515 -0.2670
 8920TIP3    H148175   2.072   6.608  16.553 -0.2508  2.4725 -1.4299
 8920TIP3    H248176   2.202   6.637  16.627  0.2335  1.0028 -1.6778
 8921TIP3   OH248177   6.373   6.636   0.090 -0.4865 -0.3091 -0.1286
 8921TIP3    H148178   6.287   6.672   0.113 -0.0632 -0.5721  2.0561
 8921TIP3    H248179   6.362   6.541   0.099  0.0793 -0.3341  0.3189
 8922TIP3   OH248180   1.252   3.493  15.433 -0.6254 -0.5827 -0.4017
 8922TIP3    H148181   1.339   3.481  15.394  0.5153  1.4788  1.3174
 8922TIP3    H248182   1.214   3.566  15.383 -0.4870 -0.1128  0.1600
 8923TIP3   OH248183   5.449   6.091   0.968  0.7505 -0.3078 -0.5495
 8923TIP3    H148184   5.404   6.100   0.884 -0.3133 -1.2592 -0.1226
 8923TIP3    H248185   5.418   6.007   1.002  1.2110  0.0286  0.7596
 8924TIP3   OH248186   6.747   3.584   3.718 -0.0475 -0.1158  0.3017
 8924TIP3    H148187   6.698   3.664   3.703 -1.2547 -0.9328 -0.2727
 8924TIP3    H248188   6.835   3.603   3.686  0.2663  1.6274  2.0573
 8925TIP3   OH248189   4.018   3.817   2.203  0.3640  0.2394 -0.4418
 8925TIP3    H148190   4.039   3.896   2.153 -2.6227  1.1675 -0.3739
 8925TIP3    H248191   3.981   3.757   2.138 -2.3467  0.9753  0.3162
 8926TIP3   OH248192   3.136   1.795  11.144  0.6266  0.1812 -0.2579
 8926TIP3    H148193   3.062   1.735  11.149  2.3851 -2.0719 -0.1892
 8926TIP3    H248194   3.105   1.864  11.084 -1.9189 -0.0056  0.7001
 8927TIP3   OH248195   5.115   6.579  10.864  0.1567 -0.1603  0.3830
 8927TIP3    H148196   5.139   6.487  10.877  2.8687  0.5222  0.9069
 8927TIP3    H248197   5.195   6.619  10.829 -0.1912  2.4487  2.3055
 8928TIP3   OH248198   0.905   4.331   5.217 -0.0890 -0.3094  0.8357
 8928TIP3    H148199   0.824   4.332   5.166 -0.1934 -0.4688  0.9957
 8928TIP3    H248200   0.940   4.243   5.206  0.8813  0.2173 -0.4925
 8929TIP3   OH248201   1.577   5.481  15.956 -0.6255  0.8587 -0.7077
 8929TIP3    H148202   1.648   5.436  16.001 -0.5879  0.6319 -0.9949
 8929TIP3    H248203   1.614   5.566  15.932  0.3897 -0.1459 -3.0553
 8930TIP3   OH248204   2.418   1.026  15.364 -0.0932  0.9907 -0.0003
 8930TIP3    H148205   2.509   1.055  15.349  0.1288  0.7042  0.7400
 8930TIP3    H248206   2.368   1.107  15.369  0.5021  1.2947  1.8941
 8931TIP3   OH248207   2.544   0.569  15.475  0.2279  0.0263  0.0168
 8931TIP3    H148208   2.599   0.644  15.453  1.0893 -0.3578  0.7875
 8931TIP3    H248209   2.548   0.512  15.398 -1.2558  1.2143 -0.9844
 8932TIP3   OH248210   1.155   4.151  12.265 -0.2580 -0.5437  0.7389
 8932TIP3    H148211   1.160   4.178  12.356  1.3034 -0.1709  0.5675
 8932TIP3    H248212   1.246   4.139  12.238 -0.7285 -2.1538 -0.3345
 8933TIP3   OH248213   4.677   5.162  16.685  0.5099 -0.0239 -0.5166
 8933TIP3    H148214   4.764   5.151  16.722  0.2732  0.3861  0.1778
 8933TIP3    H248215   4.620   5.110  16.741 -0.1710  2.2379  1.0295
 8934TIP3   OH248216   3.208   2.709  11.514  0.2772 -0.1467 -0.8360
 8934TIP3    H148217   3.301   2.732  11.519 -0.1567  1.4692  1.4885
 8934TIP3    H248218   3.163   2.789  11.542 -1.7795 -1.1964 -1.0086
 8935TIP3   OH248219   0.260   2.215   4.851  0.8641 -0.3435 -0.1130
 8935TIP3    H148220   0.236   2.295   4.804  0.7663  0.1518  0.7665
 8935TIP3    H248221   0.309   2.164   4.787 -0.0830 -0.1068 -1.0498
 8936TIP3   OH248222   3.373   1.410  12.969 -0.0914 -0.6067  0.4427
 8936TIP3    H148223   3.390   1.337  12.909  1.5035 -2.6799  3.2041
 8936TIP3    H248224   3.289   1.390  13.008 -0.5115  0.0470 -0.1028
 8937TIP3   OH248225   1.609   1.118  11.796  0.4021  0.4598 -0.1599
 8937TIP3    H148226   1.673   1.093  11.730  2.1121  2.7662  0.4648
 8937TIP3    H248227   1.554   1.184  11.753 -0.2133 -0.0043 -0.0847
 8938TIP3   OH248228   3.528   1.884   2.924  0.2849 -0.2926  0.2931
 8938TIP3    H148229   3.448   1.880   2.873 -0.2129 -0.7818  1.0885
 8938TIP3    H248230   3.559   1.974   2.914  0.0100 -0.2844 -0.5666
 8939TIP3   OH248231   2.402   5.151  13.960 -0.6167  0.5062 -0.5945
 8939TIP3    H148232   2.473   5.115  14.013  0.0296  2.1613 -0.2728
 8939TIP3    H248233   2.432   5.140  13.870 -1.1865 -1.2312 -0.6010
 8940TIP3   OH248234   6.231   4.432  14.400 -0.2982 -0.1774 -0.1951
 8940TIP3    H148235   6.299   4.420  14.467 -0.5436  1.6147  0.4200
 8940TIP3    H248236   6.156   4.383  14.433 -0.5260  0.9484  1.0587
 8941TIP3   OH248237   5.961   4.398   2.799 -0.0577 -0.3636 -0.0550
 8941TIP3    H148238   5.886   4.452   2.775  1.5407  0.8609 -2.8243
 8941TIP3    H248239   5.950   4.318   2.748  0.6470 -0.0461 -0.7201
 8942TIP3   OH248240   2.440   1.231   1.164  0.1126 -0.3220  0.3171
 8942TIP3    H148241   2.523   1.184   1.160 -0.3769 -1.3165  1.3248
 8942TIP3    H248242   2.459   1.309   1.216  0.4950 -0.3825  0.2707
 8943TIP3   OH248243   3.656   0.207  11.521 -0.0830  0.7607 -0.3366
 8943TIP3    H148244   3.628   0.292  11.486 -0.8660 -0.0500 -1.7992
 8943TIP3    H248245   3.640   0.145  11.449  0.8877 -0.5628  0.5328
 8944TIP3   OH248246   3.928   3.718   6.586 -0.4818  0.2493 -0.6692
 8944TIP3    H148247   3.861   3.781   6.560 -0.3175  0.8018  0.1791
 8944TIP3    H248248   3.964   3.754   6.668 -0.6816 -1.1728  0.0715
 8945TIP3   OH248249   1.696   6.494   0.522  0.2026  0.0835 -0.0179
 8945TIP3    H148250   1.622   6.506   0.581  0.7044 -1.6791  1.0395
 8945TIP3    H248251   1.685   6.406   0.485  1.4290  0.0203 -0.3041
 8946TIP3   OH248252   3.919   4.763   5.917  0.3051  0.0634  0.6780
 8946TIP3    H148253   4.003   4.764   5.964  0.7107  1.4440  0.0014
 8946TIP3    H248254   3.866   4.698   5.963  1.4154 -0.1526  1.7118
 8947TIP3   OH248255   1.442   3.252   5.082 -0.0285  0.4581 -0.0644
 8947TIP3    H148256   1.524   3.207   5.102  0.5061  1.5365  0.2593
 8947TIP3    H248257   1.379   3.181   5.068  1.6728 -0.5373 -3.8043
 8948TIP3   OH248258   5.293   2.390  17.204  0.1924 -0.4313  0.0247
 8948TIP3    H148259   5.256   2.438  17.278 -0.8130 -0.0041 -0.7271
 8948TIP3    H248260   5.363   2.337  17.242  1.8491  2.1161  0.7831
 8949TIP3   OH248261   2.015   3.876  15.824 -0.3848  0.3224  0.0543
 8949TIP3    H148262   1.948   3.904  15.762 -1.5857 -0.8642  0.7606
 8949TIP3    H248263   2.011   3.940  15.895 -0.2132  0.6962 -0.2682
 8950TIP3   OH248264   2.321   0.833   0.105  0.0126 -0.2251  0.3326
 8950TIP3    H148265   2.380   0.808   0.177  1.6154 -0.7009 -1.0834
 8950TIP3    H248266   2.318   0.755   0.049 -0.8670  0.2956 -0.3678
 8951TIP3   OH248267   2.486   6.531  15.596  0.1978  0.1311  0.0264
 8951TIP3    H148268   2.472   6.443  15.560  1.4157  0.3173 -0.9753
 8951TIP3    H248269   2.424   6.586  15.550  1.2663  0.2400 -1.3472
 8952TIP3   OH248270   4.549   5.048  12.015 -0.5239  0.4551  0.3545
 8952TIP3    H148271   4.545   4.957  11.988  0.2074  0.8117 -1.0217
 8952TIP3    H248272   4.458   5.074  12.027 -0.7809 -0.1991 -0.1231
 8953TIP3   OH248273   3.486   6.258   2.871 -0.0713  0.0266 -0.6449
 8953TIP3    H148274   3.522   6.170   2.877 -0.0086  0.0941  0.2374
 8953TIP3    H248275   3.492   6.292   2.961  1.2459  1.4527 -1.2267
 8954TIP3   OH248276   0.882   4.209  14.414  0.3065  0.1414 -0.3650
 8954TIP3    H148277   0.975   4.231  14.417  0.2033  0.7473 -1.1354
 8954TIP3    H248278   0.841   4.269  14.476  0.5540 -0.9045  0.8437
 8955TIP3   OH248279   4.172   2.816   4.749  0.1564  0.1654 -0.8646
 8955TIP3    H148280   4.213   2.822   4.662  1.2953 -0.1972 -0.3620
 8955TIP3    H248281   4.245   2.823   4.811 -0.4916 -0.8255  0.0487
 8956TIP3   OH248282   1.428   1.702   6.417 -0.9817  0.3372 -0.3075
 8956TIP3    H148283   1.404   1.639   6.349  0.3744 -1.4155  0.7463
 8956TIP3    H248284   1.423   1.787   6.374 -1.0723 -0.6390 -2.3410
 8957TIP3   OH248285   0.940   0.600  15.381  0.1556  0.0647 -0.0301
 8957TIP3    H148286   0.860   0.634  15.340  0.2106  0.9202  0.5507
 8957TIP3    H248287   0.985   0.553  15.311  0.7161  2.2868 -1.2353
 8958TIP3   OH248288   2.630   2.342   0.793  0.4863 -0.0325  0.1899
 8958TIP3    H148289   2.701   2.365   0.733  0.3223  1.4852  0.5408
 8958TIP3    H248290   2.648   2.393   0.872  0.1160 -1.1982  1.0516
 8959TIP3   OH248291   4.793   4.981   3.323 -0.0994  0.2512 -0.1671
 8959TIP3    H148292   4.872   4.998   3.272 -0.4390  1.3692 -0.3450
 8959TIP3    H248293   4.803   5.034   3.402 -1.3528  1.6355 -0.8985
 8960TIP3   OH248294   6.583   5.964  14.308 -0.6849 -0.1249 -0.3678
 8960TIP3    H148295   6.540   5.995  14.388 -0.9348  1.1500 -0.9559
 8960TIP3    H248296   6.675   5.955  14.332 -0.5512  1.3559 -0.1981
 8961TIP3   OH248297   2.338   6.698  15.233  0.5521 -0.3910 -0.2101
 8961TIP3    H148298   2.292   6.664  15.310 -2.7572  0.2027 -1.7708
 8961TIP3    H248299   2.403   6.758  15.270 -0.1204 -0.9844  2.1665
 8962TIP3   OH248300   2.851   2.379  15.022  0.0469 -0.3289 -0.0029
 8962TIP3    H148301   2.766   2.346  14.993  1.0613 -1.3545 -2.0444
 8962TIP3    H248302   2.831   2.432  15.099 -2.2370 -1.7344  0.4605
 8963TIP3   OH248303   2.045   0.793   0.139  0.3377  0.0626 -0.0774
 8963TIP3    H148304   2.058   0.738   0.061 -0.3164  1.0240 -0.8836
 8963TIP3    H248305   2.132   0.830   0.156  0.5578 -0.4096 -0.1453
 8964TIP3   OH248306   5.842   5.479  15.725 -0.0534 -0.6533  0.2676
 8964TIP3    H148307   5.849   5.477  15.629 -0.3255  0.3923  0.2199
 8964TIP3    H248308   5.755   5.515  15.742 -0.1825 -1.2465  0.9195
 8965TIP3   OH248309   2.084   1.765  15.306  0.3801  0.1754 -0.1063
 8965TIP3    H148310   2.066   1.671  15.299 -1.2692  0.4329  0.2101
 8965TIP3    H248311   2.087   1.796  15.216  0.5187 -0.1074 -0.2005
 8966TIP3   OH248312   4.987   4.770  15.046  0.8887 -0.3728  0.1720
 8966TIP3    H148313   4.922   4.838  15.064  2.1748  0.4943  1.8615
 8966TIP3    H248314   4.982   4.711  15.121  1.9125 -0.3673  0.2665
 8967TIP3   OH248315   3.007   1.889  17.118  0.2355 -0.2791  0.0924
 8967TIP3    H148316   3.066   1.964  17.114  0.6819 -0.6244  0.1610
 8967TIP3    H248317   2.968   1.884  17.031 -2.1048  1.8663  0.8974
 8968TIP3   OH248318   6.592   5.574  10.501 -0.8248 -0.4196  0.1638
 8968TIP3    H148319   6.547   5.574  10.585 -0.2737  1.7868  0.5215
 8968TIP3    H248320   6.543   5.636  10.447 -0.2841 -0.6630 -0.6298
 8969TIP3   OH248321   2.247   3.545  16.779 -0.4062 -1.1599  0.0555
 8969TIP3    H148322   2.338   3.521  16.760  0.1779  0.4154  0.6878
 8969TIP3    H248323   2.196   3.499  16.712  0.9953 -0.8498 -1.2858
 8970TIP3   OH248324   0.019   4.336  16.066 -0.2428  0.6174 -0.3032
 8970TIP3    H148325   0.003   4.253  16.022  0.8478  0.4505 -0.4117
 8970TIP3    H248326   0.052   4.394  15.997  1.5557  0.3302  0.2722
 8971TIP3   OH248327   0.682   4.786   5.954  0.1259 -0.1978 -0.1427
 8971TIP3    H148328   0.748   4.824   6.012  0.3343  0.5194 -0.8438
 8971TIP3    H248329   0.634   4.861   5.919 -1.7323 -0.7354  1.0985
 8972TIP3   OH248330   6.704   5.265   0.308 -0.3171 -0.3875  0.1356
 8972TIP3    H148331   6.770   5.199   0.328 -0.7281 -1.0909 -0.7397
 8972TIP3    H248332   6.670   5.239   0.221 -0.9271  0.6079  0.0647
 8973TIP3   OH248333   2.738   6.457   6.406  0.7269  0.1272  0.1576
 8973TIP3    H148334   2.769   6.470   6.495  0.4508  0.7545  0.1689
 8973TIP3    H248335   2.732   6.546   6.369  1.3880 -0.1589 -0.6708
 8974TIP3   OH248336   5.750   0.067   5.494  0.4793  0.0549  0.3590
 8974TIP3    H148337   5.716   0.136   5.438  0.0597  0.7915  1.4892
 8974TIP3    H248338   5.813   0.020   5.439 -1.3722 -0.5326 -1.3804
 8975TIP3   OH248339   6.563   2.782   3.083  0.2191  0.1764  0.8697
 8975TIP3    H148340   6.530   2.867   3.054 -0.3756 -0.2318  0.3061
 8975TIP3    H248341   6.605   2.800   3.167 -1.0829  0.8132  1.4254
 8976TIP3   OH248342   0.231   4.753   4.133  0.1199  0.0241  0.1292
 8976TIP3    H148343   0.236   4.830   4.077 -0.5332 -1.1520 -1.6134
 8976TIP3    H248344   0.209   4.681   4.074  1.1508 -1.6063  1.6278
 8977TIP3   OH248345   2.398   4.483  12.679  0.0962  0.4113 -0.0066
 8977TIP3    H148346   2.389   4.520  12.767 -1.5148 -1.5711  0.7442
 8977TIP3    H248347   2.473   4.529  12.641  0.0659  2.2112  1.9153
 8978TIP3   OH248348   0.013   5.131  14.751 -0.0658 -0.1984  0.5829
 8978TIP3    H148349  -0.023   5.189  14.684  2.9277  2.3682  1.0017
 8978TIP3    H248350   0.091   5.093  14.711  0.0436 -1.1043  1.6092
 8979TIP3   OH248351   6.298   4.521   3.895  0.3243 -0.2078 -0.0648
 8979TIP3    H148352   6.205   4.509   3.877  0.9801 -3.3324 -2.2862
 8979TIP3    H248353   6.336   4.546   3.811  1.9608 -3.1212 -0.3247
 8980TIP3   OH248354   6.683   1.320   1.673 -0.2176 -0.0400 -0.0584
 8980TIP3    H148355   6.656   1.374   1.598  0.1310  0.1288 -0.0635
 8980TIP3    H248356   6.687   1.231   1.639 -0.0932  0.0317 -0.2309
 8981TIP3   OH248357   6.319   0.542  15.070  0.9290 -0.0611  0.2983
 8981TIP3    H148358   6.407   0.567  15.041  0.6325  0.4962 -0.1521
 8981TIP3    H248359   6.262   0.568  14.997  0.4449 -0.8580  0.3854
 8982TIP3   OH248360   3.760   2.479  14.904 -0.2815  0.0417  0.0259
 8982TIP3    H148361   3.797   2.427  14.975 -1.2320  0.2191  0.6753
 8982TIP3    H248362   3.665   2.467  14.913 -0.4510 -2.2828 -2.9377
 8983TIP3   OH248363   4.027   5.438   3.745 -0.2924  0.1863  0.1191
 8983TIP3    H148364   4.016   5.513   3.687 -0.3529 -1.2344 -1.8071
 8983TIP3    H248365   3.938   5.406   3.760 -0.3242  0.7885  1.4244
 8984TIP3   OH248366   0.650   3.205  16.389 -0.0339 -0.6930  0.0328
 8984TIP3    H148367   0.634   3.250  16.471  1.0524  0.5189 -0.3930
 8984TIP3    H248368   0.565   3.206  16.343 -0.5249 -0.9746  0.9195
 8985TIP3   OH248369   2.478   4.766  16.743  0.3346  0.3291 -0.5272
 8985TIP3    H148370   2.518   4.836  16.795 -1.5316  0.6736  0.5204
 8985TIP3    H248371   2.403   4.737  16.794 -0.4114 -0.7160 -2.1209
 8986TIP3   OH248372   1.655   0.614   0.208 -0.4105 -0.1883  0.4008
 8986TIP3    H148373   1.736   0.565   0.194 -1.0345 -1.0994 -0.1276
 8986TIP3    H248374   1.602   0.556   0.263 -0.8354  0.2605  0.4673
 8987TIP3   OH248375   5.379   4.706   6.077 -0.7306  0.0152  0.0952
 8987TIP3    H148376   5.438   4.658   6.136 -0.1865 -1.0085 -1.2295
 8987TIP3    H248377   5.307   4.735   6.133  0.8831  1.1130  1.7323
 8988TIP3   OH248378   6.075   0.798   6.355 -0.0335 -0.4164 -0.6056
 8988TIP3    H148379   6.041   0.791   6.444 -0.7551 -1.2597 -0.9373
 8988TIP3    H248380   6.083   0.892   6.339  3.1096 -0.1862  1.4507
 8989TIP3   OH248381   3.519   6.661  12.471 -0.2652  0.4287  0.2890
 8989TIP3    H148382   3.509   6.650  12.566  0.9191  0.6709  0.4669
 8989TIP3    H248383   3.578   6.736  12.463 -0.3442  0.3928 -0.6464
 8990TIP3   OH248384   1.626   4.428   6.088 -0.2251  0.0545  0.4890
 8990TIP3    H148385   1.641   4.346   6.135  0.3345 -0.4418 -0.5042
 8990TIP3    H248386   1.614   4.401   5.997  1.7143  1.2083 -0.1522
 8991TIP3   OH248387   0.648   0.293  17.239  0.0529 -0.3621 -0.3184
 8991TIP3    H148388   0.686   0.340  17.165  0.0462  1.3928  0.7559
 8991TIP3    H248389   0.678   0.202  17.227  0.9883  0.1098 -1.8348
 8992TIP3   OH248390   1.717   1.297   5.532  0.3421  0.4898 -0.0012
 8992TIP3    H148391   1.773   1.253   5.597 -2.7839 -1.1687  1.8034
 8992TIP3    H248392   1.762   1.284   5.449  2.1879 -1.5234  1.2117
 8993TIP3   OH248393   1.310   3.388   2.096  0.4240 -0.2460  0.0788
 8993TIP3    H148394   1.382   3.326   2.107  0.7456  0.4071  1.9394
 8993TIP3    H248395   1.351   3.474   2.100 -0.0264  0.1752 -2.3982
 8994TIP3   OH248396   3.428   1.039   3.920  0.1992 -0.0435 -0.1449
 8994TIP3    H148397   3.510   1.009   3.959  0.0257 -0.5377 -0.1634
 8994TIP3    H248398   3.392   0.962   3.878  0.5472  0.5539 -1.5881
 8995TIP3   OH248399   5.934   1.081   0.379  0.2724 -0.0445  0.5543
 8995TIP3    H148400   6.028   1.091   0.364  0.0015  0.2286 -1.1491
 8995TIP3    H248401   5.897   1.166   0.354 -0.5734 -0.6183 -0.1900
 8996TIP3   OH248402   1.071   5.051   1.800 -0.2815  0.1390  0.5559
 8996TIP3    H148403   1.070   5.061   1.896 -0.3303 -0.7578  0.6556
 8996TIP3    H248404   1.064   4.957   1.786  1.0042  0.1610 -0.3235
 8997TIP3   OH248405   5.310   4.526  13.244  0.3570  0.1008  0.6801
 8997TIP3    H148406   5.273   4.575  13.171 -1.8792  0.6258  2.0594
 8997TIP3    H248407   5.281   4.436  13.230 -1.5525  0.5110  1.7555
 8998TIP3   OH248408   2.459   5.130  15.705  0.0382  0.2193  0.2689
 8998TIP3    H148409   2.383   5.095  15.751  0.3808 -0.8477  0.0359
 8998TIP3    H248410   2.532   5.120  15.766  0.1992  0.2443  0.0848
 8999TIP3   OH248411   5.470   1.421  15.565 -0.6198 -0.0921 -0.2634
 8999TIP3    H148412   5.415   1.361  15.616 -0.4962 -0.6464 -0.7749
 8999TIP3    H248413   5.514   1.475  15.631  0.3967 -1.5356  0.2792
 9000TIP3   OH248414   5.444   6.630  13.464 -0.4199  0.7208  0.6267
 9000TIP3    H148415   5.460   6.627  13.559  2.1620 -0.9687  0.2283
 9000TIP3    H248416   5.506   6.696  13.432 -0.2916  0.2691 -0.0586
 9001TIP3   OH248417   4.908   1.571   1.569 -0.2072  0.0883 -0.2482
 9001TIP3    H148418   4.852   1.566   1.491  1.0877 -0.5660 -1.1768
 9001TIP3    H248419   4.975   1.504   1.555  2.4822  2.6042 -0.5790
 9002TIP3   OH248420   0.875   1.140  15.727  0.1524 -0.3785 -0.3401
 9002TIP3    H148421   0.831   1.159  15.645 -1.3246 -0.4968  0.3857
 9002TIP3    H248422   0.895   1.047  15.723 -0.1023 -0.4264 -0.4724
 9003TIP3   OH248423   5.561   4.239   1.616  0.2439 -0.2336 -0.2500
 9003TIP3    H148424   5.525   4.315   1.570  0.3776 -0.0849 -0.1132
 9003TIP3    H248425   5.489   4.209   1.673 -0.0644 -0.6783 -0.8609
 9004TIP3   OH248426   6.111   5.573  15.783 -0.5016  0.2558 -0.2770
 9004TIP3    H148427   6.024   5.533  15.775 -0.7734  0.8881 -0.5844
 9004TIP3    H248428   6.148   5.569  15.695 -0.7492  1.1371 -0.4362
 9005TIP3   OH248429   6.397   5.226   5.588 -0.0767 -0.0149  0.8799
 9005TIP3    H148430   6.445   5.288   5.532 -0.5953  0.9905  1.5142
 9005TIP3    H248431   6.360   5.162   5.527  2.0129 -0.8093  0.3718
 9006TIP3   OH248432   1.508   3.388  11.725  0.2782  0.0538  0.0964
 9006TIP3    H148433   1.542   3.373  11.814 -0.4847  1.5045  0.6794
 9006TIP3    H248434   1.585   3.409  11.673  0.8178 -1.4840  0.2415
 9007TIP3   OH248435   1.328   1.720  12.008 -0.2990  0.0295  0.0593
 9007TIP3    H148436   1.345   1.634  11.971  1.1389 -0.0612  0.8661
 9007TIP3    H248437   1.250   1.708  12.062  0.0210 -0.8222  0.3462
 9008TIP3   OH248438   2.325   2.946   2.467 -0.0897 -0.2550 -0.5093
 9008TIP3    H148439   2.382   2.918   2.396 -0.1113  1.0662 -1.0676
 9008TIP3    H248440   2.243   2.900   2.451  0.2820 -0.8815 -0.6519
 9009TIP3   OH248441   0.384   4.602  16.322  0.2287 -0.2542  0.2768
 9009TIP3    H148442   0.289   4.606  16.308  0.1879 -0.1488  0.5759
 9009TIP3    H248443   0.416   4.545  16.253 -0.2127 -1.2914  0.9017
 9010TIP3   OH248444   3.550   1.427  17.002  0.6125  0.1487 -0.2998
 9010TIP3    H148445   3.554   1.484  17.078 -1.8836 -0.5685  0.4673
 9010TIP3    H248446   3.619   1.363  17.017  1.4013  1.1321  0.3926
 9011TIP3   OH248447   3.384   0.549  13.403  0.5662 -0.3921  0.1820
 9011TIP3    H148448   3.318   0.536  13.335 -0.0000 -0.1076  0.6649
 9011TIP3    H248449   3.459   0.497  13.374  0.2677 -0.4301 -0.5590
 9012TIP3   OH248450   3.076   4.926   3.140 -0.5439  0.6447  0.5525
 9012TIP3    H148451   3.038   5.004   3.182 -1.2668  1.0225 -0.7261
 9012TIP3    H248452   3.022   4.854   3.170  1.0250  0.3495  2.9247
 9013TIP3   OH248453   1.392   3.416  16.026 -0.2562  0.5727  0.2548
 9013TIP3    H148454   1.341   3.496  16.012 -0.9197  0.2949  1.0228
 9013TIP3    H248455   1.360   3.356  15.958  0.7015  1.1597 -0.7333
 9014TIP3   OH248456   2.703   2.308  16.182  0.2133  0.5581  1.7430
 9014TIP3    H148457   2.797   2.287  16.185  0.3030  0.4529 -0.2467
 9014TIP3    H248458   2.659   2.225  16.199  0.5511 -0.3251 -1.1809
 9015TIP3   OH248459   4.518   3.257  15.286  0.1783 -0.7779 -0.2307
 9015TIP3    H148460   4.559   3.252  15.373 -1.2707 -1.0239  0.4675
 9015TIP3    H248461   4.546   3.342  15.252  0.1772 -0.3410  0.7974
 9016TIP3   OH248462   3.950   0.903   6.829  0.5130  0.4051  0.1457
 9016TIP3    H148463   4.036   0.924   6.865  0.3940  2.3355 -0.5860
 9016TIP3    H248464   3.955   0.810   6.806  1.8432  0.0925  1.5962
 9017TIP3   OH248465   3.080   4.033   0.800 -0.6004 -0.7290  0.1318
 9017TIP3    H148466   2.999   3.983   0.806 -0.2014 -1.3105  0.9382
 9017TIP3    H248467   3.061   4.114   0.847 -1.1895 -0.1730 -1.0187
 9018TIP3   OH248468   6.045   6.535  11.333  0.5760 -0.4730 -0.2112
 9018TIP3    H148469   6.114   6.587  11.374  0.2268 -0.7115  0.7135
 9018TIP3    H248470   6.068   6.532  11.241  0.8140  0.9680 -0.2080
 9019TIP3   OH248471   3.553   5.090  15.495 -0.3915  0.5870 -0.5764
 9019TIP3    H148472   3.605   5.031  15.441 -0.5957  0.0799 -0.2244
 9019TIP3    H248473   3.520   5.035  15.567  0.1051  1.3058  0.2234
 9020TIP3   OH248474   0.908   0.268   4.775  0.7016  0.3740  0.2761
 9020TIP3    H148475   0.890   0.203   4.843  0.2931  1.1561  0.9171
 9020TIP3    H248476   0.886   0.352   4.814 -0.8247  0.7476 -1.2622
 9021TIP3   OH248477   0.352   1.531  11.674 -0.0549  0.2301 -0.7226
 9021TIP3    H148478   0.318   1.596  11.736  0.5690  0.5482 -0.7055
 9021TIP3    H248479   0.441   1.513  11.704 -0.3615 -0.9828 -0.4579
 9022TIP3   OH248480   1.168   5.876   1.409 -0.0232 -0.0221  0.4885
 9022TIP3    H148481   1.166   5.922   1.325  1.2137  2.5122  1.7255
 9022TIP3    H248482   1.245   5.820   1.404 -0.5084 -0.6435 -0.3817
 9023TIP3   OH248483   2.782   3.786  11.927 -0.3445 -0.4628 -0.2293
 9023TIP3    H148484   2.695   3.758  11.900 -0.4850  1.2907 -1.8036
 9023TIP3    H248485   2.764   3.852  11.995 -0.3256  0.6302 -1.2572
 9024TIP3   OH248486   2.585   0.481  17.245 -0.2299 -0.4842 -0.1640
 9024TIP3    H148487   2.628   0.549  17.194 -1.9586  0.8327  0.0437
 9024TIP3    H248488   2.640   0.403  17.233  2.3497  1.1260  0.3543
 9025TIP3   OH248489   3.019   5.746   5.892 -0.0800 -0.0305  0.0740
 9025TIP3    H148490   3.105   5.757   5.851 -0.6331 -0.1934 -1.1453
 9025TIP3    H248491   2.997   5.654   5.876 -0.7192  0.1505 -0.0900
 9026TIP3   OH248492   5.001   4.107   5.419 -0.2961 -0.5076 -0.2535
 9026TIP3    H148493   5.068   4.043   5.395  0.2469  0.7318 -2.3359
 9026TIP3    H248494   5.049   4.177   5.463  0.0585  0.8570 -2.6341
 9027TIP3   OH248495   3.632   5.831  16.026 -0.3855 -0.0653  0.1698
 9027TIP3    H148496   3.696   5.850  15.957 -1.5335  1.1934 -0.5918
 9027TIP3    H248497   3.649   5.896  16.094 -1.8108  1.3363 -0.7333
 9028TIP3   OH248498   2.985   0.472   4.042 -0.4614  0.5072 -0.3456
 9028TIP3    H148499   3.041   0.549   4.049  1.1080 -0.5754 -0.6994
 9028TIP3    H248500   2.929   0.490   3.967  1.1261  0.5491 -1.5523
 9029TIP3   OH248501   4.110   5.758  15.078  0.4045 -0.2641  0.7187
 9029TIP3    H148502   4.035   5.779  15.134 -0.7083  1.1802 -1.1631
 9029TIP3    H248503   4.178   5.819  15.106  0.2428 -0.3117  1.2264
 9030TIP3   OH248504   2.705   4.259  15.483 -0.3177  0.1316 -0.1162
 9030TIP3    H148505   2.776   4.296  15.536 -1.2296 -1.2180  2.1833
 9030TIP3    H248506   2.626   4.300  15.517 -1.1117 -2.0828  0.8908
 9031TIP3   OH248507   6.084   5.644   4.732 -0.0571 -0.5065 -0.6273
 9031TIP3    H148508   6.044   5.688   4.808 -0.1640 -0.0603 -0.9395
 9031TIP3    H248509   6.014   5.638   4.668 -0.6980 -3.1576  0.2019
 9032TIP3   OH248510   6.542   6.150   5.209 -0.0435 -0.5689 -0.2448
 9032TIP3    H148511   6.581   6.136   5.295 -0.6109  3.8305  0.9697
 9032TIP3    H248512   6.603   6.111   5.147  2.1222 -0.9103  1.9807
 9033TIP3   OH248513   0.755   6.497  12.626  0.0187 -0.3023  0.3119
 9033TIP3    H148514   0.842   6.459  12.637  0.9036  0.6833 -2.3759
 9033TIP3    H248515   0.770   6.577  12.575 -2.2575  1.1137  1.6667
 9034TIP3   OH248516   1.518   1.487  17.219 -0.1385  0.7248  0.6955
 9034TIP3    H148517   1.439   1.525  17.181 -0.0573  1.7354  1.5102
 9034TIP3    H248518   1.524   1.525  17.306  1.2955  0.7411  0.6166
 9035TIP3   OH248519   0.616   3.639   3.229  0.7928 -0.4396  0.2629
 9035TIP3    H148520   0.668   3.563   3.254  0.9713  0.5289  3.2130
 9035TIP3    H248521   0.525   3.608   3.232  0.9370 -1.6918 -3.3057
 9036TIP3   OH248522   2.373   1.377  11.871 -0.3194  0.2718  0.2794
 9036TIP3    H148523   2.303   1.439  11.849 -0.8474  0.2007  1.6794
 9036TIP3    H248524   2.417   1.417  11.946 -0.8990 -1.1793  1.4463
 9037TIP3   OH248525   5.745   6.134   1.975  0.0994  0.2323  0.2893
 9037TIP3    H148526   5.826   6.151   1.927  1.3134 -1.6016  1.5386
 9037TIP3    H248527   5.738   6.207   2.037  1.5240 -0.1946  1.0156
 9038TIP3   OH248528   3.638   2.046   2.041 -0.0385 -0.2393 -0.2364
 9038TIP3    H148529   3.731   2.023   2.041 -0.1865 -0.8751  0.5349
 9038TIP3    H248530   3.606   2.013   1.957  0.1477 -1.2392  0.0762
 9039TIP3   OH248531   0.910   3.071  12.684 -0.5263  0.0359 -0.1011
 9039TIP3    H148532   0.968   3.039  12.615 -1.0872 -1.0467 -0.0990
 9039TIP3    H248533   0.822   3.044  12.655 -0.7915 -0.1877  0.8981
 9040TIP3   OH248534   6.367   1.018  11.634 -0.4917  0.0725 -0.2668
 9040TIP3    H148535   6.417   1.043  11.712 -0.9244  0.5178 -0.1298
 9040TIP3    H248536   6.278   1.048  11.652 -0.4147  0.9511 -1.3010
 9041TIP3   OH248537   0.338   1.340   2.643 -0.4392  0.0343 -0.1966
 9041TIP3    H148538   0.317   1.431   2.621 -2.2300 -0.1313  0.5946
 9041TIP3    H248539   0.280   1.320   2.716 -0.5251 -1.9405 -0.7568
 9042TIP3   OH248540   1.291   6.117   0.870  0.1088 -0.3292  0.4735
 9042TIP3    H148541   1.232   6.106   0.944  0.3735 -1.1311  0.5769
 9042TIP3    H248542   1.316   6.209   0.872 -0.2018 -0.2596  1.1397
 9043TIP3   OH248543   1.093   0.442   1.995  0.8429 -0.0484  0.3526
 9043TIP3    H148544   1.087   0.364   1.939  0.9742 -0.3152  0.7077
 9043TIP3    H248545   1.075   0.410   2.083  1.1037  0.2878  0.5296
 9044TIP3   OH248546   2.954   6.616   6.165 -0.4077 -0.3864 -0.4726
 9044TIP3    H148547   2.921   6.672   6.235  0.0118  0.8844 -1.2520
 9044TIP3    H248548   2.912   6.649   6.086 -1.4598 -2.2851 -0.7582
 9045TIP3   OH248549   5.200   0.558  11.971  0.3474  0.1384 -0.4225
 9045TIP3    H148550   5.131   0.500  11.937  2.4307 -2.1976 -0.9153
 9045TIP3    H248551   5.213   0.622  11.901  0.0006 -0.5814 -1.1722
 9046TIP3   OH248552   3.598   4.984  13.228  0.1114  0.1700 -0.1230
 9046TIP3    H148553   3.564   5.064  13.269 -3.1129 -1.0498 -0.1316
 9046TIP3    H248554   3.624   4.929  13.301  1.3863  0.7936 -0.0810
 9047TIP3   OH248555   3.542   0.859   6.819 -0.0302  0.3941 -0.3115
 9047TIP3    H148556   3.509   0.891   6.903  1.7914 -0.6076  0.8642
 9047TIP3    H248557   3.479   0.792   6.792 -0.1742  0.0913  0.7270
 9048TIP3   OH248558   1.719   5.841   2.707  0.4069  0.5746  0.0665
 9048TIP3    H148559   1.740   5.831   2.615  0.5492 -1.0993  0.2513
 9048TIP3    H248560   1.772   5.775   2.751  0.2132  1.2274  1.3415
 9049TIP3   OH248561   1.244   5.596   2.074  0.1730 -0.3335  0.2153
 9049TIP3    H148562   1.186   5.523   2.050  0.6766 -0.9404  0.8017
 9049TIP3    H248563   1.221   5.616   2.165 -0.8679  1.1316 -0.3305
 9050TIP3   OH248564   4.235   4.037  15.714 -0.6998 -0.8128 -0.1768
 9050TIP3    H148565   4.227   4.131  15.729  2.5788 -0.6536  1.4570
 9050TIP3    H248566   4.153   4.000  15.748 -0.9025  1.2607  1.8121
 9051TIP3   OH248567   0.735   6.440  14.821 -0.1733 -0.6839 -0.0789
 9051TIP3    H148568   0.776   6.524  14.801 -2.2329  0.2579 -0.6348
 9051TIP3    H248569   0.649   6.463  14.856 -0.4552 -2.5536  0.5603
 9052TIP3   OH248570   1.544   4.393   0.916  0.4537 -0.6287 -0.4005
 9052TIP3    H148571   1.575   4.441   0.839 -2.9153  1.6924 -0.5255
 9052TIP3    H248572   1.600   4.424   0.987  0.2369  1.3487 -1.0194
 9053TIP3   OH248573   3.044   3.231   0.315  0.1488 -0.5651 -0.1941
 9053TIP3    H148574   3.120   3.180   0.285  0.0686  0.0270 -1.4476
 9053TIP3    H248575   2.991   3.244   0.236 -0.6813  0.0176  0.4449
 9054TIP3   OH248576   0.994   3.251   1.515 -0.4011 -0.1104 -0.0734
 9054TIP3    H148577   1.004   3.316   1.585  1.5256  1.9839 -2.1459
 9054TIP3    H248578   0.914   3.203   1.539 -0.4480  1.2342  2.9318
 9055TIP3   OH248579   2.673   1.070  13.772 -0.1987 -0.2743 -0.2146
 9055TIP3    H148580   2.705   1.063  13.682  2.5385 -0.2213  0.6702
 9055TIP3    H248581   2.605   1.137  13.768 -2.1676 -2.2058 -2.6791
 9056TIP3   OH248582   1.348   3.557   4.885  0.0674 -0.1663  0.2019
 9056TIP3    H148583   1.388   3.578   4.969 -0.6826  1.3047  0.2318
 9056TIP3    H248584   1.318   3.642   4.851  0.5242 -0.7035 -1.6481
 9057TIP3   OH248585   3.039   3.433   3.643  0.2954  0.0158 -0.1415
 9057TIP3    H148586   3.092   3.365   3.600 -0.1960  0.0447 -0.8146
 9057TIP3    H248587   2.968   3.450   3.581 -0.5618 -0.0949  0.8000
 9058TIP3   OH248588   4.308   4.892   6.551  0.6245 -0.0144  0.3200
 9058TIP3    H148589   4.350   4.806   6.557 -1.2214 -0.8666  2.0812
 9058TIP3    H248590   4.373   4.947   6.507  1.3762 -2.5817 -2.0843
 9059TIP3   OH248591   1.181   4.898  11.458  0.5191  0.4450  0.4692
 9059TIP3    H148592   1.098   4.915  11.501  0.6352 -0.4433  1.0662
 9059TIP3    H248593   1.161   4.902  11.364 -0.4321 -0.7968  0.6022
 9060TIP3   OH248594   0.602   2.807  12.842  0.5749  0.3910  0.0910
 9060TIP3    H148595   0.565   2.852  12.767 -1.6622 -0.7809  0.4033
 9060TIP3    H248596   0.696   2.820  12.834  0.1822  4.4100 -0.2374
 9061TIP3   OH248597   2.833   1.691   6.405 -0.5407 -0.0573 -0.0604
 9061TIP3    H148598   2.837   1.631   6.479  0.1630  2.0960  1.7730
 9061TIP3    H248599   2.884   1.767   6.434  0.2483  0.6408 -3.0082
 9062TIP3   OH248600   0.581   1.293  12.396 -0.3865  0.0829  0.0461
 9062TIP3    H148601   0.661   1.330  12.434 -0.7612  1.7175 -0.6735
 9062TIP3    H248602   0.537   1.250  12.469  0.0863  1.0516  0.9221
 9063TIP3   OH248603   2.069   3.426  17.016  0.2197  0.2213  0.6238
 9063TIP3    H148604   2.058   3.520  17.002  0.2062 -0.0018 -1.0535
 9063TIP3    H248605   1.980   3.391  17.014  0.3619 -0.1483 -1.5902
 9064TIP3   OH248606   4.739   3.432  17.301 -0.0488 -0.0511 -0.4879
 9064TIP3    H148607   4.699   3.451  17.386 -0.8542  0.1177 -0.8962
 9064TIP3    H248608   4.785   3.512  17.277 -0.0036 -0.0245 -0.3108
 9065TIP3   OH248609   6.437   5.257  16.950  0.2675 -0.8021 -0.8558
 9065TIP3    H148610   6.442   5.345  16.913 -1.6987  0.0327  0.6307
 9065TIP3    H248611   6.483   5.264  17.034  1.4238 -1.6322 -1.4056
 9066TIP3   OH248612   4.834   0.731   3.943 -0.3235 -0.2360  0.2674
 9066TIP3    H148613   4.894   0.765   3.876  1.2055  0.3789  1.8840
 9066TIP3    H248614   4.845   0.789   4.017 -2.5055 -0.4960  0.8528
 9067TIP3   OH248615   2.504   5.351   4.261 -0.0032  0.0168 -0.2968
 9067TIP3    H148616   2.475   5.442   4.272 -0.2341  0.1806 -2.0163
 9067TIP3    H248617   2.592   5.350   4.297 -0.5758  0.5162  1.2094
 9068TIP3   OH248618   4.950   5.275   2.444  0.1904  0.4597  0.0174
 9068TIP3    H148619   4.954   5.346   2.380 -0.5505  1.8411  1.4466
 9068TIP3    H248620   5.006   5.304   2.516 -0.0700 -0.4438  0.6016
 9069TIP3   OH248621   0.643   6.646   1.692 -0.1528 -0.3196  0.0477
 9069TIP3    H148622   0.577   6.715   1.694  1.8434  1.7759 -0.8928
 9069TIP3    H248623   0.690   6.657   1.775 -0.0754 -0.8406  0.0753
 9070TIP3   OH248624   4.210   4.273   3.770 -0.1401  0.1247 -0.0333
 9070TIP3    H148625   4.258   4.193   3.789  0.6249  0.4254 -0.6183
 9070TIP3    H248626   4.118   4.251   3.787  0.1273 -0.6735  0.4303
 9071TIP3   OH248627   5.417   4.079   1.802 -0.6303  0.3194 -0.0780
 9071TIP3    H148628   5.400   4.101   1.894  0.6940  1.4957 -0.0815
 9071TIP3    H248629   5.502   4.034   1.803 -0.8367 -0.0964 -0.6841
 9072TIP3   OH248630   2.450   5.859  14.666  0.9331 -0.4395 -0.9982
 9072TIP3    H148631   2.452   5.814  14.582 -0.8108  0.2769 -1.4677
 9072TIP3    H248632   2.357   5.877  14.681  1.0763 -1.4742  1.5887
 9073TIP3   OH248633   3.138   2.056  12.790 -0.0419  0.1806 -0.5021
 9073TIP3    H148634   3.114   2.127  12.730 -1.8329  1.2279  1.3286
 9073TIP3    H248635   3.208   2.094  12.844 -2.1718  1.3220  1.6367
 9074TIP3   OH248636   3.048   5.084  12.111  0.2091  0.0772 -0.5417
 9074TIP3    H148637   3.142   5.071  12.099 -0.0454 -3.2697 -0.0366
 9074TIP3    H248638   3.016   5.112  12.026  1.2982 -2.0926 -1.7552
 9075TIP3   OH248639   0.360   2.095   5.354 -0.5847 -0.1040  0.5961
 9075TIP3    H148640   0.321   2.009   5.336 -1.6341  0.6749 -1.1020
 9075TIP3    H248641   0.382   2.130   5.267 -0.9175  1.6708  1.1890
 9076TIP3   OH248642   2.421   3.800   0.790 -0.2437 -0.8867 -0.3007
 9076TIP3    H148643   2.425   3.829   0.881  0.3365 -1.0218 -0.2803
 9076TIP3    H248644   2.508   3.763   0.772 -0.4488 -1.1327 -0.8179
 9077TIP3   OH248645   6.318   5.437   3.237  0.0548  0.2015 -0.0159
 9077TIP3    H148646   6.257   5.374   3.199 -1.2504  0.9289  0.7797
 9077TIP3    H248647   6.352   5.394   3.315 -1.6341  0.8012  1.1169
 9078TIP3   OH248648   4.721   3.731  16.363  0.4699 -0.3802 -0.8236
 9078TIP3    H148649   4.704   3.674  16.439 -0.6233 -0.1993 -0.9193
 9078TIP3    H248650   4.809   3.765  16.379 -0.0270  0.2485  0.7633
 9079TIP3   OH248651   3.362   5.247   5.970  0.1391 -0.5377 -0.5109
 9079TIP3    H148652   3.344   5.312   6.037  1.2722 -0.7409  0.0120
 9079TIP3    H248653   3.275   5.220   5.938 -0.3405  2.0747 -1.6125
 9080TIP3   OH248654   6.195   2.122   1.310  0.4436  0.1312 -0.0216
 9080TIP3    H148655   6.261   2.099   1.375  0.9725 -0.3224 -0.7001
 9080TIP3    H248656   6.245   2.137   1.229 -0.3732 -2.0585 -1.0359
 9081TIP3   OH248657   1.575   0.224  14.187  0.1894 -0.1445  0.2903
 9081TIP3    H148658   1.528   0.275  14.253  1.1295  1.9779 -0.5909
 9081TIP3    H248659   1.523   0.234  14.107 -0.3397 -1.7558  0.4026
 9082TIP3   OH248660   5.442   2.435   1.726  0.2665 -0.4964 -0.0930
 9082TIP3    H148661   5.496   2.497   1.677 -0.6707 -0.1588 -0.7426
 9082TIP3    H248662   5.483   2.429   1.812  0.7603  0.5140 -0.2483
 9083TIP3   OH248663   1.783   0.061   0.012  0.0012 -0.1663 -0.4382
 9083TIP3    H148664   1.785   0.036  -0.080  0.2070 -0.1078 -0.4496
 9083TIP3    H248665   1.715   0.005   0.051  0.5012 -0.7920 -0.4514
 9084TIP3   OH248666   1.130   2.752  15.463 -0.5650  1.0465 -0.5855
 9084TIP3    H148667   1.179   2.719  15.387 -0.2706 -0.0469  0.0572
 9084TIP3    H248668   1.048   2.702  15.462  0.0649 -0.0771  0.6457
 9085TIP3   OH248669   1.277   0.142  16.180  0.2056  0.2331  0.4739
 9085TIP3    H148670   1.371   0.138  16.164  0.3455  2.4340  0.4701
 9085TIP3    H248671   1.240   0.079  16.118  1.3860  2.6121 -2.9469
 9086TIP3   OH248672   3.812   0.221  13.821  0.1831 -0.8443  0.3785
 9086TIP3    H148673   3.905   0.212  13.798 -0.0497 -1.1301 -0.4795
 9086TIP3    H248674   3.774   0.269  13.747 -0.3919 -0.9098  0.6309
 9087TIP3   OH248675   4.253   1.834  17.238  0.2477 -0.0589 -0.4212
 9087TIP3    H148676   4.255   1.885  17.319  2.9956 -1.8123  0.7566
 9087TIP3    H248677   4.161   1.811  17.226 -0.1922 -0.2675  2.5855
 9088TIP3   OH248678   2.097   1.014   3.710 -0.6645 -0.4990  0.1874
 9088TIP3    H148679   2.088   1.034   3.617 -1.3765 -0.4793  0.2519
 9088TIP3    H248680   2.007   1.017   3.743 -0.2739  0.9154  1.1717
 9089TIP3   OH248681   4.204   6.255   1.452 -0.0662 -0.2548  0.2371
 9089TIP3    H148682   4.235   6.331   1.501 -1.1753  0.6570 -0.4303
 9089TIP3    H248683   4.110   6.253   1.467 -0.2603 -0.6480 -0.8957
 9090TIP3   OH248684   3.509   0.846   0.320 -0.4414  0.4118 -0.0459
 9090TIP3    H148685   3.524   0.758   0.354 -1.1848  0.3040  0.0062
 9090TIP3    H248686   3.595   0.873   0.288 -0.0843 -0.1119  0.4431
 9091TIP3   OH248687   0.919   3.214  16.318 -0.3479  0.7173 -0.2381
 9091TIP3    H148688   0.826   3.238  16.317  0.0665  2.6325  0.9231
 9091TIP3    H248689   0.949   3.241  16.405  1.3816  0.4416 -0.7211
 9092TIP3   OH248690   3.888   3.556   3.448  0.3143  0.1635 -0.2484
 9092TIP3    H148691   3.960   3.521   3.395  0.5881 -0.7061  0.6719
 9092TIP3    H248692   3.810   3.539   3.397  0.7723  1.5625 -1.4975
 9093TIP3   OH248693   1.686   3.069  11.412 -0.0295  0.6752 -0.2513
 9093TIP3    H148694   1.596   3.095  11.394  0.8972  4.0084 -0.8456
 9093TIP3    H248695   1.687   3.045  11.505 -1.6577 -0.4670 -0.4800
 9094TIP3   OH248696   6.316   1.992   3.557 -0.5387  0.1997 -0.2306
 9094TIP3    H148697   6.232   2.021   3.594 -0.0384  1.3527  0.0413
 9094TIP3    H248698   6.359   1.946   3.628 -0.3751  0.7863  0.0576
 9095TIP3   OH248699   5.727   6.524  16.623  0.7076  0.6118 -0.4306
 9095TIP3    H148700   5.757   6.438  16.654  0.6882  1.6995  2.9416
 9095TIP3    H248701   5.729   6.580  16.700 -0.7180  3.3073 -2.1899
 9096TIP3   OH248702   4.982   3.989   5.090 -0.1669  1.7301 -0.2411
 9096TIP3    H148703   5.066   3.948   5.071 -0.5000  1.3204 -0.8627
 9096TIP3    H248704   4.998   4.083   5.080  0.5656  1.7683  1.0503
 9097TIP3   OH248705   3.671   6.013  13.408 -0.2740  0.9335  0.8325
 9097TIP3    H148706   3.690   6.018  13.501  1.0722 -2.4830  0.9142
 9097TIP3    H248707   3.582   5.978  13.403  0.5819 -1.5202  1.0487
 9098TIP3   OH248708   0.802   5.923   4.367  0.1921 -0.2251 -0.1814
 9098TIP3    H148709   0.772   5.955   4.282 -0.2802  1.8574  0.7084
 9098TIP3    H248710   0.730   5.868   4.398  0.3538 -0.9798 -1.0864
 9099TIP3   OH248711   4.486   4.323  15.051 -0.0174 -0.2049  0.6181
 9099TIP3    H148712   4.507   4.255  15.115 -1.9369  0.1031  1.6425
 9099TIP3    H248713   4.430   4.279  14.988  0.7761 -0.1611 -0.1413
 9100TIP3   OH248714   2.796   4.883  12.156 -0.1384 -0.0429 -0.1679
 9100TIP3    H148715   2.833   4.820  12.217  2.7401 -0.0122 -1.7056
 9100TIP3    H248716   2.831   4.968  12.184 -0.7830  0.3103 -0.4117
 9101TIP3   OH248717   6.397   1.903   1.003 -0.7262 -0.1556  0.3014
 9101TIP3    H148718   6.303   1.921   1.003 -0.5353  0.9693 -0.9140
 9101TIP3    H248719   6.431   1.955   1.076 -1.2221 -1.8773  1.8526
 9102TIP3   OH248720   3.918   5.304  17.297  0.1030  0.1593 -0.0757
 9102TIP3    H148721   3.986   5.247  17.333  0.1526 -0.2237 -0.7614
 9102TIP3    H248722   3.920   5.382  17.353  0.3811 -0.2936  0.5546
 9103TIP3   OH248723   1.350   0.526  12.497 -1.1757  0.4604 -0.4351
 9103TIP3    H148724   1.420   0.579  12.537  0.0722 -1.2683 -0.2389
 9103TIP3    H248725   1.386   0.499  12.413 -1.0068 -1.5650  0.2383
 9104TIP3   OH248726   5.590   0.545  11.839 -0.1733  0.4421 -0.6152
 9104TIP3    H148727   5.500   0.555  11.807 -0.4506  3.2907  0.7303
 9104TIP3    H248728   5.586   0.576  11.929  1.6696 -2.0330  0.4095
 9105TIP3   OH248729   1.136   4.170   4.215 -0.2291  0.3301 -0.0832
 9105TIP3    H148730   1.052   4.161   4.261 -0.3092  0.7785 -0.1414
 9105TIP3    H248731   1.144   4.263   4.198  0.7197  0.4259  0.7588
 9106TIP3   OH248732   2.770   4.860   4.644 -0.0091 -0.0785  0.0027
 9106TIP3    H148733   2.762   4.766   4.627 -2.1841  0.2221 -0.9064
 9106TIP3    H248734   2.703   4.878   4.710  1.2950  0.6451  1.1872
 9107TIP3   OH248735   3.388   4.514  14.022 -0.4259 -0.1470 -0.0850
 9107TIP3    H148736   3.313   4.490  14.077 -2.4285  0.4112 -2.4472
 9107TIP3    H248737   3.464   4.495  14.078 -2.2809  0.4985  2.9197
 9108TIP3   OH248738   0.878   6.048  12.740  0.3934 -0.3633  0.4456
 9108TIP3    H148739   0.969   6.078  12.744  0.0825  0.5277  1.1919
 9108TIP3    H248740   0.830   6.109  12.796 -0.5443 -1.2793  0.6710
 9109TIP3   OH248741   0.170   6.608   4.669  0.6113 -0.1389  0.1704
 9109TIP3    H148742   0.102   6.608   4.736  1.9469  0.6862  1.6026
 9109TIP3    H248743   0.201   6.517   4.667  0.5021 -0.1929  0.6251
 9110TIP3   OH248744   5.068   4.632   5.904  0.3848 -0.4384 -0.4594
 9110TIP3    H148745   4.996   4.664   5.959 -0.2944 -0.1971 -1.4652
 9110TIP3    H248746   5.110   4.564   5.957 -0.7717 -0.7916  0.0428
 9111TIP3   OH248747   1.345   4.412  16.585 -0.1501 -0.2202 -0.1162
 9111TIP3    H148748   1.266   4.465  16.579  1.1077  1.8520  0.5809
 9111TIP3    H248749   1.335   4.363  16.667 -1.0475 -0.6315 -0.4548
 9112TIP3   OH248750   3.386   3.574  15.733 -0.0268  0.0592 -0.6634
 9112TIP3    H148751   3.470   3.544  15.699 -0.1581 -1.6721  0.4296
 9112TIP3    H248752   3.382   3.539  15.822 -2.0640 -0.2604 -0.8320
 9113TIP3   OH248753   3.013   3.198  14.765 -0.1319  0.5535  0.4096
 9113TIP3    H148754   2.939   3.259  14.752  1.0727  1.6093 -2.2490
 9113TIP3    H248755   3.090   3.254  14.761  1.0280 -1.0387 -2.0312
 9114TIP3   OH248756   5.028   4.989   1.412  0.4572 -0.1385 -0.0180
 9114TIP3    H148757   5.040   5.017   1.321  0.8144 -1.2162 -0.3062
 9114TIP3    H248758   4.950   4.934   1.410  1.5851 -1.7775 -0.0407
 9115TIP3   OH248759   2.604   3.156  12.819 -0.4036  0.5175 -0.0451
 9115TIP3    H148760   2.555   3.141  12.739 -0.1025  1.0593 -0.3353
 9115TIP3    H248761   2.680   3.208  12.792 -0.6509  1.2780  0.6893
 9116TIP3   OH248762   6.059   2.900  16.195 -0.4190 -0.6316 -0.0784
 9116TIP3    H148763   5.988   2.948  16.151 -0.6008 -1.6267 -0.9222
 9116TIP3    H248764   6.097   2.964  16.255 -0.4895  0.6571 -1.3352
 9117TIP3   OH248765   4.072   2.848  15.527  0.9103 -0.0719 -0.4371
 9117TIP3    H148766   4.159   2.882  15.506  0.7629 -0.5390 -1.9222
 9117TIP3    H248767   4.088   2.762  15.564  1.0557 -1.4922 -3.4709
 9118TIP3   OH248768   1.954   0.991  16.878 -0.1998 -0.0822  0.6965
 9118TIP3    H148769   1.938   0.986  16.784  0.8213  0.6716  0.4647
 9118TIP3    H248770   1.939   0.903  16.911 -4.4596  0.3423  0.5054
 9119TIP3   OH248771   3.148   0.928   5.883 -0.2772 -0.0474 -0.1969
 9119TIP3    H148772   3.228   0.936   5.936 -0.2135  1.7151 -0.5041
 9119TIP3    H248773   3.089   0.875   5.937  0.4608  0.1194  0.8013
 9120TIP3   OH248774   2.163   3.601   5.103  0.3149 -0.0970 -0.2435
 9120TIP3    H148775   2.152   3.525   5.045  0.0309  0.7111 -1.2849
 9120TIP3    H248776   2.107   3.581   5.178 -0.1124 -0.7241 -0.7068
 9121TIP3   OH248777   3.641   2.664   0.953  0.0502  0.2145  0.6156
 9121TIP3    H148778   3.631   2.747   0.906  0.8489  1.4048  2.4354
 9121TIP3    H248779   3.682   2.688   1.036 -0.6284 -1.8843  1.6307
 9122TIP3   OH248780   1.274   4.658   5.638 -0.2004 -0.4444 -0.1589
 9122TIP3    H148781   1.280   4.564   5.621 -2.2185 -0.6593  0.0503
 9122TIP3    H248782   1.204   4.689   5.581  0.2703  0.8978 -0.0596
 9123TIP3   OH248783   5.010   4.175  12.977 -0.2926  0.3640  0.7879
 9123TIP3    H148784   5.087   4.129  12.944  0.2091  0.8926  1.2044
 9123TIP3    H248785   5.043   4.260  13.005 -0.6871 -0.0417  2.6205
 9124TIP3   OH248786   4.995   3.648   0.915 -0.0424 -0.0456  0.2697
 9124TIP3    H148787   5.012   3.733   0.956  0.5258 -0.4259  0.8353
 9124TIP3    H248788   4.915   3.663   0.863 -1.1913  0.2901  2.0202
 9125TIP3   OH248789   6.309   1.612  11.096 -0.3197  0.0844  0.0537
 9125TIP3    H148790   6.326   1.706  11.083 -0.0494  0.0211 -0.0701
 9125TIP3    H248791   6.357   1.570  11.025 -1.8020 -0.0576 -0.9083
 9126TIP3   OH248792   2.911   5.521   5.783 -0.2839 -0.3235  0.7778
 9126TIP3    H148793   2.882   5.530   5.692  0.3014  0.0511  0.6237
 9126TIP3    H248794   2.829   5.522   5.834 -0.5529  1.3608  0.4026
 9127TIP3   OH248795   5.356   0.895   1.311 -0.2488  0.1742  0.2981
 9127TIP3    H148796   5.385   0.961   1.249 -0.9112  1.1411  0.9831
 9127TIP3    H248797   5.372   0.934   1.397 -0.1340 -0.7891  0.7247
 9128TIP3   OH248798   0.506   2.593   4.346 -0.3489 -0.5092 -0.1681
 9128TIP3    H148799   0.441   2.659   4.371 -0.0030 -0.1167 -0.2776
 9128TIP3    H248800   0.552   2.632   4.271 -0.0543 -0.8220 -0.1548
 9129TIP3   OH248801   0.406   1.651   5.479 -0.8148  0.2389 -0.0713
 9129TIP3    H148802   0.362   1.594   5.542  0.0015 -0.2724  0.0549
 9129TIP3    H248803   0.499   1.629   5.487 -0.3855  2.0068  0.4070
 9130TIP3   OH248804   6.550   4.946   4.486 -0.0977 -0.6121 -0.0815
 9130TIP3    H148805   6.567   4.915   4.397  0.7552 -2.2420  0.6124
 9130TIP3    H248806   6.473   4.897   4.514 -1.7968  1.5575 -0.6660
 9131TIP3   OH248807   4.153   0.430   6.822 -0.3481  0.5081  0.0062
 9131TIP3    H148808   4.169   0.523   6.833 -0.3554  0.6214 -0.8653
 9131TIP3    H248809   4.098   0.424   6.744 -1.8808 -0.0947  1.0689
 9132TIP3   OH248810   5.952   3.160  15.220 -0.0025 -0.0663 -0.1582
 9132TIP3    H148811   5.940   3.151  15.125 -1.4629  1.0405 -0.1059
 9132TIP3    H248812   6.004   3.240  15.230 -1.7225  1.0645  0.0332
 9133TIP3   OH248813   5.243   2.838  13.726  0.0961  0.2756 -0.0118
 9133TIP3    H148814   5.194   2.881  13.796  1.5826  2.2332 -0.0729
 9133TIP3    H248815   5.325   2.810  13.768 -0.0632 -0.8529 -0.4182
 9134TIP3   OH248816   6.574   2.791   1.276  0.4100  0.1377  0.2660
 9134TIP3    H148817   6.521   2.857   1.320  0.2110  0.0059  0.2301
 9134TIP3    H248818   6.646   2.773   1.336 -0.0755 -0.3249  0.7135
 9135TIP3   OH248819   6.222   6.709  15.658 -1.0493  0.3118  0.4536
 9135TIP3    H148820   6.170   6.789  15.666  0.6169  1.3190  2.0005
 9135TIP3    H248821   6.294   6.721  15.721  0.2282 -1.6393 -0.5462
 9136TIP3   OH248822   5.733   2.840   0.059 -0.6837  0.4121 -0.2302
 9136TIP3    H148823   5.788   2.878   0.129 -2.7293 -0.6547  2.1051
 9136TIP3    H248824   5.792   2.781   0.013  1.0489  2.0115 -0.2140
 9137TIP3   OH248825   2.346   3.641   4.023  0.6450 -0.7399  0.7210
 9137TIP3    H148826   2.258   3.645   3.984 -0.3758 -2.7088  2.5576
 9137TIP3    H248827   2.399   3.595   3.958  0.3038  0.3554 -0.3587
 9138TIP3   OH248828   3.644   2.824  15.679 -0.3049 -1.2934  0.4367
 9138TIP3    H148829   3.649   2.879  15.757 -0.4298 -0.3592 -0.2002
 9138TIP3    H248830   3.724   2.844  15.631 -0.6744 -1.1725 -0.1270
 9139TIP3   OH248831   2.037   1.424  10.685 -0.0993  0.3100  0.0136
 9139TIP3    H148832   2.091   1.401  10.610 -1.3489 -1.7769 -0.3069
 9139TIP3    H248833   2.009   1.514  10.668  1.6300  0.7470 -0.7564
 9140TIP3   OH248834   6.525   1.329  11.423  0.2178  0.7542  0.1779
 9140TIP3    H148835   6.460   1.399  11.415  2.0526  2.6101  0.8938
 9140TIP3    H248836   6.603   1.363  11.379  1.0952 -0.9626  0.3247
 9141TIP3   OH248837   6.121   5.911  14.471 -0.2961 -0.1635  0.3502
 9141TIP3    H148838   6.095   5.837  14.416  0.5040  0.3200 -0.7148
 9141TIP3    H248839   6.051   5.918  14.536 -0.8140 -1.3157 -0.0549
 9142TIP3   OH248840   4.524   5.454   5.744 -0.7958  0.2802 -0.3058
 9142TIP3    H148841   4.592   5.499   5.794  0.1557 -0.7500 -0.6479
 9142TIP3    H248842   4.522   5.366   5.781  0.0650 -0.5725 -2.1904
 9143TIP3   OH248843   5.713   6.014   4.474  0.0562  0.0449 -0.0050
 9143TIP3    H148844   5.668   6.098   4.484  0.2735  0.1834 -0.1804
 9143TIP3    H248845   5.731   5.985   4.564  1.0573  0.7728  0.0428
 9144TIP3   OH248846   4.844   3.093   5.324  0.7283 -0.2871  0.5378
 9144TIP3    H148847   4.890   3.163   5.371  1.9973  0.5900 -1.8603
 9144TIP3    H248848   4.754   3.125   5.315  0.6513 -0.1476  1.6970
 9145TIP3   OH248849   4.804   4.148   3.849  0.1397  1.0275  0.5796
 9145TIP3    H148850   4.745   4.075   3.868 -1.5229  1.5588 -1.9804
 9145TIP3    H248851   4.884   4.127   3.896 -0.7167 -1.7679  0.9972
 9146TIP3   OH248852   3.800   2.164   1.542  0.2441  0.5203 -0.3131
 9146TIP3    H148853   3.783   2.104   1.469  0.0259  1.0151 -0.6703
 9146TIP3    H248854   3.816   2.248   1.500  2.1866  0.4026  0.0673
 9147TIP3   OH248855   6.373   4.925  16.995  0.7449 -0.3173 -0.1273
 9147TIP3    H148856   6.356   4.961  17.082 -0.4773  0.6616 -0.7464
 9147TIP3    H248857   6.299   4.953  16.942  1.9607 -0.0391 -1.7615
 9148TIP3   OH248858   5.805   1.927   3.418 -0.3764  0.4063  0.2464
 9148TIP3    H148859   5.809   1.931   3.514 -0.5776  0.1981  0.2636
 9148TIP3    H248860   5.713   1.945   3.398 -0.4367 -0.0390  0.1172
 9149TIP3   OH248861   3.629   5.871  13.676 -1.2100 -0.0024 -0.1047
 9149TIP3    H148862   3.673   5.802  13.627 -0.2249  1.6843 -1.7233
 9149TIP3    H248863   3.635   5.842  13.767 -2.8184 -3.0851 -0.8329
 9150TIP3   OH248864   2.379   3.618  16.421 -0.4784 -0.2936 -0.6053
 9150TIP3    H148865   2.294   3.662  16.412 -0.5338 -0.3533 -0.3976
 9150TIP3    H248866   2.443   3.687  16.404 -0.5393  0.2806  1.2422
 9151TIP3   OH248867   6.208   0.951  16.454 -0.3946 -0.2008  0.1003
 9151TIP3    H148868   6.185   1.036  16.490  1.1984  0.0306  0.6946
 9151TIP3    H248869   6.203   0.891  16.529 -0.7304 -0.4751 -0.1363
 9152TIP3   OH248870   5.885   5.125   1.466 -0.1676  0.2787  0.2580
 9152TIP3    H148871   5.808   5.163   1.423 -0.3491 -1.4678 -1.0363
 9152TIP3    H248872   5.947   5.109   1.396  1.3508  1.4549  1.2599
 9153TIP3   OH248873   2.035   4.613   4.720  0.0533 -0.6551  0.4886
 9153TIP3    H148874   2.048   4.649   4.633 -1.2314 -0.8354  0.1995
 9153TIP3    H248875   2.117   4.568   4.740  0.9727  0.7830  0.0768
 9154TIP3   OH248876   2.891   1.780  13.735  0.4052 -0.4966 -0.1859
 9154TIP3    H148877   2.874   1.872  13.755 -0.9803 -0.3513 -1.7700
 9154TIP3    H248878   2.891   1.737  13.820 -0.5920  0.7384  0.4832
 9155TIP3   OH248879   1.222   0.422   1.304 -0.5548  0.1585 -0.6539
 9155TIP3    H148880   1.214   0.514   1.329 -0.5506 -0.2411  0.9158
 9155TIP3    H248881   1.175   0.375   1.372  0.8713 -1.1156 -0.5088
 9156TIP3   OH248882   4.612   6.486  17.174 -0.1219 -0.1800 -0.2582
 9156TIP3    H148883   4.568   6.431  17.109 -0.9915 -1.1694  1.1012
 9156TIP3    H248884   4.701   6.451  17.179 -0.4074 -0.8877 -0.0485
 9157TIP3   OH248885   2.695   5.304   1.824  0.2775 -0.0702 -0.2898
 9157TIP3    H148886   2.660   5.348   1.746 -2.1824  0.9664  1.2830
 9157TIP3    H248887   2.749   5.371   1.866 -1.7720  0.8723  0.9984
 9158TIP3   OH248888   5.083   0.491  11.027 -0.9649 -0.0626 -0.1771
 9158TIP3    H148889   5.153   0.426  11.040  0.1312  0.8466 -1.2763
 9158TIP3    H248890   5.004   0.446  11.057 -0.1542 -1.6801 -0.3026
 9159TIP3   OH248891   2.233   1.660   3.710 -0.2309 -0.5317 -0.0853
 9159TIP3    H148892   2.177   1.587   3.739 -1.2523 -0.3562 -1.5204
 9159TIP3    H248893   2.271   1.630   3.627 -0.4650  0.4694 -0.5676
 9160TIP3   OH248894   4.395   0.013  11.815 -0.1588 -0.4750  0.1032
 9160TIP3    H148895   4.302   0.004  11.838 -0.3462 -0.6183 -0.6736
 9160TIP3    H248896   4.420   0.098  11.851 -0.4797 -0.6197  0.6806
 9161TIP3   OH248897   3.904   0.488   4.231 -0.1167 -0.1608 -0.4428
 9161TIP3    H148898   3.871   0.426   4.166  0.3708 -0.0560 -0.8042
 9161TIP3    H248899   3.890   0.574   4.192 -0.5640 -0.0570 -0.0518
 9162TIP3   OH248900   4.772   6.278  13.069  0.2998 -0.2514  0.1813
 9162TIP3    H148901   4.762   6.225  12.990 -0.2653 -0.4888  0.4045
 9162TIP3    H248902   4.715   6.354  13.055 -0.9756 -1.0149  0.9565
 9163TIP3   OH248903   4.554   1.337  13.649  0.6671 -0.1751 -0.1487
 9163TIP3    H148904   4.472   1.370  13.611  0.5400 -0.1134  0.1749
 9163TIP3    H248905   4.598   1.415  13.682  0.4613 -0.3019  0.4363
 9164TIP3   OH248906   3.020   1.815  14.570  0.0629  0.1085  0.5039
 9164TIP3    H148907   3.056   1.902  14.588 -0.0683  0.1312  0.6562
 9164TIP3    H248908   2.962   1.828  14.495  1.1028 -0.1031 -0.3735
 9165TIP3   OH248909   1.575   3.152  12.788  0.3725  0.2795 -0.1150
 9165TIP3    H148910   1.607   3.224  12.843 -2.5869  2.8260 -1.4465
 9165TIP3    H248911   1.592   3.180  12.698 -0.2391 -1.0272 -0.6725
 9166TIP3   OH248912   5.767   4.465  12.005  0.2963 -0.8614 -0.2357
 9166TIP3    H148913   5.783   4.554  11.971 -3.1486  0.5814  1.4496
 9166TIP3    H248914   5.830   4.456  12.076  0.6863  0.2636 -0.4077
 9167TIP3   OH248915   4.441   4.218   5.438 -0.1818 -0.8465 -0.1329
 9167TIP3    H148916   4.370   4.226   5.502  1.0441  0.9416  1.1231
 9167TIP3    H248917   4.503   4.156   5.478 -0.4583 -1.4633 -0.6534
 9168TIP3   OH248918   5.562   0.324  11.624  0.1586  0.0293  0.3618
 9168TIP3    H148919   5.590   0.415  11.616  2.2514 -0.6580 -0.6962
 9168TIP3    H248920   5.466   0.329  11.628  0.2263  2.2651  0.3743
 9169TIP3   OH248921   5.790   4.433   0.630  0.2044  0.2058 -0.2036
 9169TIP3    H148922   5.708   4.426   0.679 -2.0338 -1.8857 -3.8705
 9169TIP3    H248923   5.826   4.344   0.630  2.5403  1.0384  1.1591
 9170TIP3   OH248924   5.144   6.450  15.412  0.1311  0.2227 -0.4204
 9170TIP3    H148925   5.106   6.456  15.324  1.7697 -1.1737 -1.3094
 9170TIP3    H248926   5.096   6.379  15.454  0.3762 -0.1881 -0.8101
 9171TIP3   OH248927   0.291   3.924  12.688  0.3075 -0.0661 -0.8872
 9171TIP3    H148928   0.213   3.873  12.666 -0.2351  0.0358  0.7128
 9171TIP3    H248929   0.309   3.903  12.779  0.5519  1.9953 -0.4155
 9172TIP3   OH248930   0.711   3.952  16.343  0.2437  0.0226 -0.2015
 9172TIP3    H148931   0.807   3.956  16.345  0.2829 -0.8165 -0.1773
 9172TIP3    H248932   0.690   3.899  16.266 -0.2293  0.7670 -0.5978
 9173TIP3   OH248933   3.633   4.256  15.141 -0.2602 -0.3979 -0.2312
 9173TIP3    H148934   3.678   4.282  15.222  1.0784 -0.1999 -1.0157
 9173TIP3    H248935   3.542   4.284  15.154  0.1343  0.4567  0.8306
 9174TIP3   OH248936   6.755   2.491  11.771 -0.3254  0.1299  0.2925
 9174TIP3    H148937   6.683   2.483  11.709  0.4425 -0.1317 -0.5854
 9174TIP3    H248938   6.734   2.427  11.839 -0.2415 -0.9438 -0.6586
 9175TIP3   OH248939   1.773   2.119   3.118  0.2329 -0.0402  0.0221
 9175TIP3    H148940   1.755   2.116   3.212  1.0283  1.9327  0.2758
 9175TIP3    H248941   1.695   2.081   3.078 -1.6930  2.2153  1.3536
 9176TIP3   OH248942   5.348   2.424   5.824  0.6212  0.1506  0.4422
 9176TIP3    H148943   5.337   2.473   5.743 -0.3599 -0.9390 -0.1183
 9176TIP3    H248944   5.308   2.480   5.891 -0.1338  0.3044 -0.1214
 9177TIP3   OH248945   2.907   1.359   0.538 -0.1900  0.4379  0.0109
 9177TIP3    H148946   2.936   1.283   0.488  0.2567 -0.3710  1.4458
 9177TIP3    H248947   2.839   1.325   0.596 -0.2644  1.2132  0.3904
 9178TIP3   OH248948   1.380   5.802  16.411  0.3368 -0.5788 -0.2029
 9178TIP3    H148949   1.412   5.737  16.347 -0.1975 -0.0552 -1.0173
 9178TIP3    H248950   1.375   5.753  16.493  2.6460 -0.8423 -0.1627
 9179TIP3   OH248951   5.010   4.607  16.021 -0.4940 -0.4528  0.6944
 9179TIP3    H148952   5.106   4.600  16.022 -0.3832  0.8713  0.6130
 9179TIP3    H248953   4.982   4.527  15.975  0.6899  0.0761 -1.0874
 9180TIP3   OH248954   0.878   5.640   0.427 -0.0299  0.2003 -0.1637
 9180TIP3    H148955   0.965   5.663   0.394 -1.0843 -1.2025 -4.5763
 9180TIP3    H248956   0.832   5.723   0.432 -0.2108  0.4872 -4.0945
 9181TIP3   OH248957   3.725   0.221   5.652 -0.5104  0.1266  0.4815
 9181TIP3    H148958   3.689   0.286   5.712  0.1876  0.6633  0.3313
 9181TIP3    H248959   3.787   0.171   5.706 -0.7096 -0.1162  0.4845
 9182TIP3   OH248960   2.235   1.337   1.002 -0.4108  0.7348  0.2191
 9182TIP3    H148961   2.240   1.432   0.993  0.1851  0.7936  1.1115
 9182TIP3    H248962   2.313   1.313   1.052 -0.2560 -0.2902 -0.4678
 9183TIP3   OH248963   2.213   5.731   0.526  0.0256 -0.0048  0.6588
 9183TIP3    H148964   2.200   5.778   0.608  0.3931  0.9122  0.2058
 9183TIP3    H248965   2.145   5.664   0.525  0.4154 -0.4437  2.0033
 9184TIP3   OH248966   4.473   5.548  11.618 -0.2831  0.0947 -0.3390
 9184TIP3    H148967   4.516   5.611  11.676 -0.4808 -0.3562  0.3133
 9184TIP3    H248968   4.383   5.543  11.651  0.0442 -1.4304  0.3979
 9185TIP3   OH248969   0.196   2.400  13.317  0.0174 -0.2464  0.1060
 9185TIP3    H148970   0.234   2.399  13.229  2.7474  1.5657  1.1185
 9185TIP3    H248971   0.151   2.485  13.322  0.1773 -0.1865  0.5473
 9186TIP3   OH248972   4.688   2.972   4.603 -0.1006 -0.4745 -0.2723
 9186TIP3    H148973   4.652   3.017   4.527  0.7762 -0.4831 -0.7020
 9186TIP3    H248974   4.782   2.983   4.595  0.0193 -0.7243  0.6654
 9187TIP3   OH248975   1.934   4.575  11.933  0.2294  0.0112 -0.2928
 9187TIP3    H148976   2.021   4.542  11.912  0.5178 -0.0058  0.8852
 9187TIP3    H248977   1.936   4.591  12.027 -0.9187  0.3868 -0.3163
 9188TIP3   OH248978   1.825   5.092  17.340  0.6530 -0.3629  0.3338
 9188TIP3    H148979   1.840   5.133  17.255  1.8502 -0.2416  0.5842
 9188TIP3    H248980   1.870   5.008  17.334 -0.0978 -0.7854  0.5157
 9189TIP3   OH248981   2.363   3.098   4.795 -0.5165 -0.0575  0.0638
 9189TIP3    H148982   2.458   3.093   4.801 -0.5536 -0.2313  0.6189
 9189TIP3    H248983   2.332   3.065   4.880 -1.0533  0.5514  0.1143
 9190TIP3   OH248984   0.385   1.022   2.707  0.3613  0.2647 -0.0582
 9190TIP3    H148985   0.400   0.983   2.793  1.3409  0.1930 -0.2515
 9190TIP3    H248986   0.292   1.045   2.707  0.1669 -0.4766  0.7079
 9191TIP3   OH248987   0.885   1.480  13.141  0.2995 -0.2908 -1.2045
 9191TIP3    H148988   0.911   1.508  13.053 -0.8112 -1.5054 -1.9511
 9191TIP3    H248989   0.790   1.494  13.144  0.5690  1.6715  0.5642
 9192TIP3   OH248990   1.938   3.718   4.172 -0.2795  0.0765 -0.1592
 9192TIP3    H148991   1.857   3.769   4.161  0.4935  1.8216  1.6591
 9192TIP3    H248992   1.972   3.746   4.257  2.2231 -0.6575 -0.8527
 9193TIP3   OH248993   3.596   0.286   2.398 -0.3651  0.0495 -0.5320
 9193TIP3    H148994   3.520   0.236   2.368  2.8357 -4.5558 -2.0364
 9193TIP3    H248995   3.620   0.246   2.481  1.3876  0.0954 -0.9697
 9194TIP3   OH248996   3.113   2.186   2.827  0.3034  0.5325  0.7413
 9194TIP3    H148997   3.115   2.147   2.739  1.4187  0.2302  0.8796
 9194TIP3    H248998   3.186   2.143   2.873 -0.2874  0.6712  1.8218
 9195TIP3   OH248999   4.703   3.343  14.840 -0.1289 -0.2236 -0.2833
 9195TIP3    H149000   4.698   3.436  14.820  1.5485  0.3047  1.4958
 9195TIP3    H249001   4.721   3.339  14.934  2.3388 -2.2436 -0.7263
 9196TIP3   OH249002   4.353   0.243   6.164 -0.6224  0.2050 -0.7745
 9196TIP3    H149003   4.261   0.265   6.179 -0.8170  0.5675 -2.3057
 9196TIP3    H249004   4.364   0.156   6.201 -1.8668 -0.2821 -1.4895
 9197TIP3   OH249005   4.798   3.351  15.957  0.3572 -0.1817  0.2548
 9197TIP3    H149006   4.718   3.317  15.999 -0.8247  0.9215 -1.0273
 9197TIP3    H249007   4.818   3.287  15.889  0.7809 -0.6182  0.7715
 9198TIP3   OH249008   0.937   5.574  12.786  0.1857 -0.5848  0.3358
 9198TIP3    H149009   0.852   5.581  12.742 -0.3080 -0.8518  1.2396
 9198TIP3    H249010   0.958   5.664  12.812 -0.4411 -0.6974  1.2590
 9199TIP3   OH249011   6.559   0.591  11.306  0.6436  0.4920 -0.4400
 9199TIP3    H149012   6.612   0.663  11.339 -0.3180  0.8955  0.2933
 9199TIP3    H249013   6.479   0.632  11.273  0.6872 -0.1138 -1.3198
 9200TIP3   OH249014   3.864   0.570   1.608 -0.2968 -0.2302 -0.8486
 9200TIP3    H149015   3.955   0.566   1.635 -0.4302  0.6957 -0.2402
 9200TIP3    H249016   3.844   0.481   1.578  0.2670 -0.9127  0.7321
 9201TIP3   OH249017   2.007   1.549  16.962 -0.2431  0.5500 -0.2293
 9201TIP3    H149018   1.951   1.581  17.033  1.0302 -0.7699  1.4495
 9201TIP3    H249019   2.071   1.620  16.949 -1.1715  1.2855 -0.8897
 9202TIP3   OH249020   0.388   1.396  14.723  0.0121  0.3224  1.2192
 9202TIP3    H149021   0.343   1.312  14.719 -0.7460  0.7567 -0.8449
 9202TIP3    H249022   0.319   1.461  14.732 -0.0255  1.0346 -2.4259
 9203TIP3   OH249023   0.642   6.115  11.729  0.6980  0.0757  0.0825
 9203TIP3    H149024   0.559   6.158  11.750  0.3699 -0.7685  0.5657
 9203TIP3    H249025   0.634   6.091  11.637 -0.7797 -2.4925  0.7993
 9204TIP3   OH249026   5.259   6.155   2.823  0.3837 -0.4322  0.5383
 9204TIP3    H149027   5.242   6.246   2.802 -1.7277 -0.9517 -0.1837
 9204TIP3    H249028   5.199   6.105   2.768  2.3921 -2.3563 -0.0531
 9205TIP3   OH249029   0.215   5.357   1.359  0.4766  0.7590  0.4642
 9205TIP3    H149030   0.296   5.307   1.359 -0.0968 -0.2726 -2.0488
 9205TIP3    H249031   0.243   5.448   1.344  1.1448  0.3579 -0.7633
 9206TIP3   OH249032   0.914   0.565   1.268 -0.3480 -0.0158 -0.6666
 9206TIP3    H149033   0.974   0.595   1.336 -0.6927 -0.1357 -0.3035
 9206TIP3    H249034   0.933   0.621   1.193  1.1936 -0.9768 -1.0380
 9207TIP3   OH249035   2.851   5.164   0.684 -0.3811  0.1952  0.3264
 9207TIP3    H149036   2.853   5.147   0.778  1.7548  0.3301  0.3577
 9207TIP3    H249037   2.814   5.084   0.646  1.2772 -1.0121  1.1164
 9208TIP3   OH249038   4.427   1.973  17.046 -0.2678  0.4276 -0.4806
 9208TIP3    H149039   4.392   1.914  17.113  0.1033  0.1258 -0.5474
 9208TIP3    H249040   4.351   2.022  17.016 -0.4501  0.5257  0.1183
 9209TIP3   OH249041   1.359   1.360  12.964 -0.2890  0.4976 -0.0281
 9209TIP3    H149042   1.290   1.308  13.005  1.2994 -2.0432 -0.4134
 9209TIP3    H249043   1.422   1.296  12.931  0.7846  2.5757 -2.3987
 9210TIP3   OH249044   5.705   6.180  13.560 -0.1810 -0.3283  0.3816
 9210TIP3    H149045   5.797   6.167  13.536 -0.2525 -0.3142  0.0953
 9210TIP3    H249046   5.694   6.276  13.564  0.2168 -0.3093  1.9903
 9211TIP3   OH249047   3.606   1.484   0.219  0.2352  0.0560  0.2026
 9211TIP3    H149048   3.565   1.505   0.303  0.4696  1.3986 -0.0081
 9211TIP3    H249049   3.575   1.396   0.199 -0.6265  0.1151  1.2025
 9212TIP3   OH249050   3.373   2.779  12.741  0.0177  0.2844  0.2902
 9212TIP3    H149051   3.391   2.867  12.710 -0.5402  0.0152 -0.8424
 9212TIP3    H249052   3.279   2.778  12.757 -0.1006 -0.3070 -0.3957
 9213TIP3   OH249053   5.540   3.859   5.663 -0.2596 -0.4961  0.9403
 9213TIP3    H149054   5.609   3.837   5.600  0.1456 -0.4993  1.3836
 9213TIP3    H249055   5.582   3.852   5.749 -0.5502  0.4623  1.1666
 9214TIP3   OH249056   1.372   0.052   4.470  0.0507  0.3001 -0.0581
 9214TIP3    H149057   1.386   0.141   4.502  2.1872  0.2088 -0.6308
 9214TIP3    H249058   1.396   0.055   4.378 -0.9538 -0.6398 -0.3767
 9215TIP3   OH249059   5.861   3.028   3.666 -0.4429  0.9155  0.1286
 9215TIP3    H149060   5.814   3.003   3.586 -0.5575  0.1296  0.4252
 9215TIP3    H249061   5.834   3.118   3.683 -0.4435  1.0835 -0.6962
 9216TIP3   OH249062   3.829   2.629  16.421  0.1936 -0.0642 -0.5840
 9216TIP3    H149063   3.828   2.552  16.364 -0.5713  1.3964 -2.6309
 9216TIP3    H249064   3.809   2.703  16.364 -0.3354  1.5422  1.5242
 9217TIP3   OH249065   0.068   1.565  12.878 -0.2852  0.3663 -0.5494
 9217TIP3    H149066   0.052   1.561  12.972  1.5146  0.7513 -0.1873
 9217TIP3    H249067   0.163   1.572  12.870 -0.4905  2.3081 -2.3059
 9218TIP3   OH249068   2.777   3.109  11.000  0.3593 -0.4877 -0.2194
 9218TIP3    H149069   2.851   3.102  11.059 -1.1536 -0.5694  1.7775
 9218TIP3    H249070   2.790   3.038  10.937  1.8876 -0.5841  0.1681
 9219TIP3   OH249071   1.762   4.820  14.356 -0.9094 -0.2057  1.0626
 9219TIP3    H149072   1.733   4.893  14.410 -2.0492 -0.8199  1.3140
 9219TIP3    H249073   1.851   4.843  14.330 -0.3993  0.1856  3.0382
 9220TIP3   OH249074   4.150   6.463  12.137  0.1335 -0.1867  0.0361
 9220TIP3    H149075   4.219   6.523  12.166  0.2077 -0.4556  0.4236
 9220TIP3    H249076   4.165   6.452  12.044  0.8256 -0.5088  0.1792
 9221TIP3   OH249077   0.035   5.910  15.672 -0.3485  0.4280  0.0274
 9221TIP3    H149078   0.079   5.872  15.748  0.6902 -1.3045 -1.3391
 9221TIP3    H249079  -0.048   5.943  15.706  0.7316  1.1478  2.1742
 9222TIP3   OH249080   5.093   5.912  14.367  0.4042  0.4166  0.4010
 9222TIP3    H149081   5.083   5.831  14.418  0.0418  0.7950  0.9437
 9222TIP3    H249082   5.162   5.892  14.303  0.2946 -0.3294  0.5081
 9223TIP3   OH249083   3.322   0.005  13.571 -0.0292  0.3016 -0.1187
 9223TIP3    H149084   3.330  -0.085  13.539 -0.1797 -0.2193  1.2756
 9223TIP3    H249085   3.373   0.007  13.651 -0.3040  1.3747  0.0370
 9224TIP3   OH249086   2.865   4.803   3.269 -0.1668  0.0732  0.0883
 9224TIP3    H149087   2.903   4.809   3.356  1.2530 -1.4874 -0.3866
 9224TIP3    H249088   2.772   4.824   3.282 -0.3163 -1.6071  2.2372
 9225TIP3   OH249089   1.560   0.545   4.009 -0.6786 -1.0759  1.0057
 9225TIP3    H149090   1.631   0.543   4.074 -0.0709 -1.2985  0.3511
 9225TIP3    H249091   1.604   0.529   3.925 -1.1079  1.4150  0.2190
 9226TIP3   OH249092   1.120   0.392   0.844 -0.2297  0.1209 -0.0379
 9226TIP3    H149093   1.153   0.347   0.922 -1.3937  1.3281  1.2012
 9226TIP3    H249094   1.053   0.452   0.877 -3.9492 -2.3020 -2.3503
 9227TIP3   OH249095   5.840   1.616   5.170  0.2886  0.5388  0.0535
 9227TIP3    H149096   5.906   1.608   5.239  0.3606 -1.2933 -0.1837
 9227TIP3    H249097   5.869   1.556   5.102 -1.7787 -0.5629  0.0743
 9228TIP3   OH249098   4.394   5.546  15.222  0.2453  0.3688  0.4065
 9228TIP3    H149099   4.357   5.632  15.200  3.4751  1.8567  0.2062
 9228TIP3    H249100   4.431   5.514  15.139 -0.1412 -0.8031  0.6764
 9229TIP3   OH249101   1.152   4.386  17.374  0.3560 -0.1698 -0.1632
 9229TIP3    H149102   1.189   4.456  17.427  0.8260 -0.6916  0.2019
 9229TIP3    H249103   1.093   4.431  17.313 -2.1952  0.2663  2.4222
 9230TIP3   OH249104   0.091   3.926  17.088  0.0250  0.0324  0.5086
 9230TIP3    H149105   0.009   3.877  17.086 -0.2173  0.4393  0.3301
 9230TIP3    H249106   0.128   3.915  17.001  0.6154 -0.9011  0.8644
 9231TIP3   OH249107   3.692   3.032  13.744 -0.0562 -0.1051  0.1144
 9231TIP3    H149108   3.597   3.036  13.747 -0.0838 -1.2379  1.3357
 9231TIP3    H249109   3.713   3.018  13.651 -1.0501  0.4115 -0.1943
 9232TIP3   OH249110   0.817   3.489  15.006 -0.4539 -0.2068 -0.0182
 9232TIP3    H149111   0.834   3.566  14.951 -2.4806  1.3569  1.3999
 9232TIP3    H249112   0.891   3.486  15.066  0.1807 -0.0363 -0.7704
 9233TIP3   OH249113   0.470   2.823  13.314  0.4134  0.0797  0.0573
 9233TIP3    H149114   0.531   2.750  13.324  1.0374  0.8239  2.5042
 9233TIP3    H249115   0.494   2.863  13.231  0.6510 -1.9090 -0.9060
 9234TIP3   OH249116   2.269   1.300   5.514  0.4024  0.8152 -0.6072
 9234TIP3    H149117   2.223   1.224   5.478  0.3878  0.5702 -0.0868
 9234TIP3    H249118   2.362   1.280   5.501  0.8624 -1.9601  4.3300
 9235TIP3   OH249119   3.600   5.944   0.625 -0.4536 -0.1941  0.0722
 9235TIP3    H149120   3.685   5.985   0.639  0.0272 -1.0902 -0.1311
 9235TIP3    H249121   3.546   6.012   0.584  0.2451  0.3014 -0.0244
 9236TIP3   OH249122   4.346   1.451   0.025  0.6036 -0.1843 -0.0381
 9236TIP3    H149123   4.401   1.462  -0.053  1.5433  3.3623  0.9323
 9236TIP3    H249124   4.395   1.494   0.095 -1.9572  0.2935  1.5957
 9237TIP3   OH249125   0.488   4.342   0.941 -0.3608  0.3875 -0.2970
 9237TIP3    H149126   0.495   4.437   0.939 -1.1288  0.4439 -1.5866
 9237TIP3    H249127   0.561   4.313   0.995 -0.4055  1.7269  0.5189
 9238TIP3   OH249128   0.438   2.159   5.083 -0.3782  0.5968  0.2498
 9238TIP3    H149129   0.526   2.157   5.044 -0.7942  0.1553 -0.6973
 9238TIP3    H249130   0.399   2.240   5.050  0.0051  1.2919  1.4535
 9239TIP3   OH249131   4.097   1.137   4.670  0.0818 -0.1780 -0.6913
 9239TIP3    H149132   4.117   1.044   4.682 -1.0618 -0.8601 -3.2784
 9239TIP3    H249133   4.153   1.164   4.597 -0.1644  0.9795 -0.4728
 9240TIP3   OH249134   1.736   0.296  12.229 -0.9606 -0.3396 -0.6296
 9240TIP3    H149135   1.786   0.309  12.310 -3.2821 -0.5243  0.9295
 9240TIP3    H249136   1.766   0.365  12.171 -1.0745  1.5098  1.3812
 9241TIP3   OH249137   5.444   2.762   2.135 -0.1855 -0.2853 -0.5767
 9241TIP3    H149138   5.412   2.735   2.221 -1.1398  0.6296 -0.6268
 9241TIP3    H249139   5.526   2.714   2.124 -1.5837 -2.8986 -0.5265
 9242TIP3   OH249140   0.391   0.501   5.044  0.4236  0.0265 -0.5428
 9242TIP3    H149141   0.360   0.467   5.129 -1.1598 -0.4462 -1.2656
 9242TIP3    H249142   0.435   0.583   5.066  1.0677 -0.6517  0.8543
 9243TIP3   OH249143   5.316   2.661   4.060  0.0496 -0.0309 -0.2837
 9243TIP3    H149144   5.401   2.618   4.051  0.8334  1.2914  0.4736
 9243TIP3    H249145   5.272   2.613   4.130 -0.5919 -1.8107 -1.7981
 9244TIP3   OH249146   4.532   3.376   2.070  0.3065  0.0659 -0.3644
 9244TIP3    H149147   4.515   3.469   2.054  0.1653  0.0636 -0.2333
 9244TIP3    H249148   4.567   3.373   2.158 -0.2663 -0.0653 -0.1356
 9245TIP3   OH249149   1.273   5.305   5.221  0.5064  0.7570 -0.4210
 9245TIP3    H149150   1.308   5.376   5.275  2.1726  0.2859 -0.8199
 9245TIP3    H249151   1.324   5.228   5.248 -0.9238 -0.1869 -0.3491
 9246TIP3   OH249152   0.678   1.582  16.514  0.0099  0.1088 -0.6376
 9246TIP3    H149153   0.613   1.599  16.446  0.6066  0.3466 -1.1506
 9246TIP3    H249154   0.701   1.668  16.548  0.1900  0.0379 -0.5786
 9247TIP3   OH249155   1.959   5.471   5.189  0.4607 -0.0667  0.4637
 9247TIP3    H149156   2.047   5.479   5.228  0.8378  0.2078 -0.4268
 9247TIP3    H249157   1.900   5.471   5.264  1.3870 -4.0943  1.4698
 9248TIP3   OH249158   0.418   0.112  12.708  0.0189 -0.0322 -0.5778
 9248TIP3    H149159   0.497   0.075  12.669 -0.3162 -0.7483 -0.5999
 9248TIP3    H249160   0.421   0.205  12.687  1.3842  0.1545  0.3255
 9249TIP3   OH249161   0.401   1.173  16.037 -0.0247  0.2025  0.3479
 9249TIP3    H149162   0.479   1.137  16.080  0.5887  1.0880  0.0018
 9249TIP3    H249163   0.393   1.122  15.956 -0.9128 -1.1523  1.2267
 9250TIP3   OH249164   2.125   0.139  14.295 -0.0662 -0.0285 -0.4320
 9250TIP3    H149165   2.052   0.151  14.357  1.1516 -0.8061  1.2268
 9250TIP3    H249166   2.097   0.067  14.239 -1.3618  0.9511 -1.1051
 9251TIP3   OH249167   1.657   6.009  13.107  0.1122  0.0645  0.5163
 9251TIP3    H149168   1.625   5.983  13.020 -1.8745  0.2468  1.1610
 9251TIP3    H249169   1.740   5.962  13.116  1.6211  1.8405 -2.4252
 9252TIP3   OH249170   0.207   2.364  11.704  0.3088 -0.3187 -0.5592
 9252TIP3    H149171   0.222   2.421  11.629 -1.1545  2.1357  0.8737
 9252TIP3    H249172   0.118   2.384  11.732  1.3872  0.3074  2.9469
 9253TIP3   OH249173   0.413   0.565  16.417 -0.8620 -0.4292 -0.0763
 9253TIP3    H149174   0.339   0.594  16.364 -1.1949  1.4469  1.2942
 9253TIP3    H249175   0.417   0.628  16.489  0.0660 -2.3585  1.6970
 9254TIP3   OH249176   4.323   5.831   2.507  0.3555  0.1508  0.0505
 9254TIP3    H149177   4.239   5.874   2.489  0.0312 -0.4318  0.1587
 9254TIP3    H249178   4.330   5.762   2.441  0.4018 -0.2766  0.4974
 9255TIP3   OH249179   3.845   0.327   0.573 -0.5142 -0.3132  0.2437
 9255TIP3    H149180   3.769   0.269   0.560 -2.3691  1.6369  1.6364
 9255TIP3    H249181   3.818   0.384   0.645  2.1825  0.7128  0.5261
 9256TIP3   OH249182   3.882   4.274   2.708 -0.5113  0.3241 -0.2889
 9256TIP3    H149183   3.933   4.282   2.789 -0.3784  0.1303 -0.3548
 9256TIP3    H249184   3.855   4.183   2.705 -1.5644  0.6045  0.1691
 9257TIP3   OH249185   1.248   5.189  11.530  0.4021 -0.1141  0.6260
 9257TIP3    H149186   1.154   5.169  11.536  0.4313 -0.6457 -0.4262
 9257TIP3    H249187   1.284   5.119  11.476  1.4665 -0.0597  1.2286
 9258TIP3   OH249188   6.672   2.117   0.845 -0.0918 -0.2454 -0.7338
 9258TIP3    H149189   6.643   2.194   0.798 -2.5981 -1.0756 -0.6925
 9258TIP3    H249190   6.697   2.149   0.932 -1.2268  0.5365 -0.6756
 9259TIP3   OH249191   3.769   6.155  15.492 -0.1884  0.8762 -0.4409
 9259TIP3    H149192   3.844   6.159  15.551 -0.0447  1.6545 -0.6646
 9259TIP3    H249193   3.804   6.180  15.407 -0.5273  0.3883 -0.7286
 9260TIP3   OH249194   4.127   3.874  16.112  0.7512 -0.4831  0.3255
 9260TIP3    H149195   4.081   3.862  16.195  0.6753 -1.2256  0.1850
 9260TIP3    H249196   4.212   3.833  16.125  0.6681 -0.7744 -0.0205
 9261TIP3   OH249197   4.594   6.281   1.620  0.5553  0.4414 -0.0331
 9261TIP3    H149198   4.623   6.314   1.535 -1.8113  0.1916 -0.9973
 9261TIP3    H249199   4.581   6.187   1.608  1.0636  0.2344  0.8839
 9262TIP3   OH249200   4.766   1.172   4.123  0.0981 -0.0961  0.0737
 9262TIP3    H149201   4.732   1.142   4.207  2.5346 -3.5333  0.0509
 9262TIP3    H249202   4.730   1.112   4.059  0.6153  0.6149 -0.9185
 9263TIP3   OH249203   0.309   2.020   0.863  0.7721  0.5154  0.1383
 9263TIP3    H149204   0.288   2.096   0.809  0.3765  0.0876 -0.3179
 9263TIP3    H249205   0.233   2.010   0.920 -0.6636 -1.4152 -1.9408
 9264TIP3   OH249206   2.910   4.919   4.320  0.0786 -0.5812  0.0416
 9264TIP3    H149207   3.002   4.943   4.322 -0.2136  0.6925  2.4179
 9264TIP3    H249208   2.865   4.992   4.363 -2.0349 -1.2265 -0.9427
 9265TIP3   OH249209   0.978   2.150  12.721 -0.0498 -0.4451 -0.0211
 9265TIP3    H149210   1.062   2.162  12.676  0.1324 -1.3545  0.0597
 9265TIP3    H249211   0.975   2.056  12.742 -0.5623 -0.2189  1.0016
 9266TIP3   OH249212   6.255   4.057  16.053 -0.0698  0.8704 -0.2176
 9266TIP3    H149213   6.290   3.995  15.989 -0.4997  0.8597 -0.4436
 9266TIP3    H249214   6.332   4.099  16.091  0.2949 -0.6354  0.7817
 9267TIP3   OH249215   5.572   0.522  15.863 -0.2264  0.4715  0.4533
 9267TIP3    H149216   5.497   0.502  15.807  1.1357  0.0875 -1.3212
 9267TIP3    H249217   5.638   0.457  15.839  1.1351  1.6105  0.9886
 9268TIP3   OH249218   0.905   1.530   0.784  0.1006 -0.4369 -0.1874
 9268TIP3    H149219   0.891   1.564   0.695  0.6213 -0.5028 -0.2973
 9268TIP3    H249220   1.000   1.516   0.789 -0.1177 -2.1616 -0.2555
 9269TIP3   OH249221   2.789   4.563   3.515  0.0815  0.0459  0.0363
 9269TIP3    H149222   2.774   4.585   3.607 -0.9619  1.1801 -0.3805
 9269TIP3    H249223   2.884   4.574   3.504  0.2108 -0.0307  0.9484
 9270TIP3   OH249224   3.914   3.790  11.609  0.4666  0.0011 -0.0189
 9270TIP3    H149225   3.957   3.750  11.534 -0.1145  0.9880 -0.9132
 9270TIP3    H249226   3.909   3.883  11.587  0.9723  0.4462  1.5868
 9271TIP3   OH249227   2.246   4.926   3.824 -0.4568  0.4204 -0.3896
 9271TIP3    H149228   2.280   5.014   3.805  2.8149 -0.6773 -0.2277
 9271TIP3    H249229   2.253   4.918   3.919 -1.5069  0.2245 -0.3182
 9272TIP3   OH249230   5.936   0.118  12.958 -0.2145  0.1188 -0.5205
 9272TIP3    H149231   6.012   0.155  12.912 -0.5119  2.4334  0.6813
 9272TIP3    H249232   5.974   0.064  13.027  0.3841  1.3081  0.1098
 9273TIP3   OH249233   6.171   3.704   4.467 -1.1410  0.0973 -0.1610
 9273TIP3    H149234   6.119   3.650   4.527  0.4324  0.7146  1.9073
 9273TIP3    H249235   6.200   3.644   4.399 -0.1435 -1.5539  1.6160
 9274TIP3   OH249236   4.129   2.635   2.601  0.0205  0.0994 -0.2493
 9274TIP3    H149237   4.102   2.727   2.598  0.6960  0.3065 -0.2491
 9274TIP3    H249238   4.090   2.600   2.681 -0.4497  0.3187 -0.3827
 9275TIP3   OH249239   3.856   1.081  16.360  0.0934 -0.6174 -0.3726
 9275TIP3    H149240   3.893   1.164  16.330 -2.7076  0.8731 -0.0388
 9275TIP3    H249241   3.931   1.033  16.394  1.7563  2.0754  0.1200
 9276TIP3   OH249242   2.043   5.491   3.569 -1.1100  0.3307 -0.2189
 9276TIP3    H149243   1.970   5.504   3.510 -1.2107  3.0957  0.3497
 9276TIP3    H249244   2.015   5.532   3.651 -0.4879 -2.2513  1.3879
 9277TIP3   OH249245   1.062   5.630   5.595 -0.1707 -0.3739 -0.3802
 9277TIP3    H149246   1.057   5.693   5.667  0.4911 -0.7682  0.0229
 9277TIP3    H249247   1.012   5.554   5.625 -0.2300 -0.3841 -0.5014
 9278TIP3   OH249248   6.279   2.677   0.488 -0.3442  0.4505  1.0097
 9278TIP3    H149249   6.351   2.619   0.511 -0.9084 -1.1738 -0.9347
 9278TIP3    H249250   6.317   2.741   0.429 -0.6109 -1.0988 -0.9493
 9279TIP3   OH249251   4.183   3.999  13.596  0.3382 -0.7516  0.0680
 9279TIP3    H149252   4.097   3.964  13.622 -0.6512  1.8057  0.5775
 9279TIP3    H249253   4.162   4.069  13.534  2.1656 -0.8232 -0.6813
 9280TIP3   OH249254   4.265   3.051  15.532 -0.1503  0.3111 -0.2461
 9280TIP3    H149255   4.231   3.134  15.564 -0.2850 -0.7686  2.7346
 9280TIP3    H249256   4.346   3.037  15.582  0.7753 -0.6276 -1.8818
 9281TIP3   OH249257   0.477   2.163   1.415 -0.1256 -0.4477 -0.3898
 9281TIP3    H149258   0.472   2.104   1.340  2.1712 -0.8839 -0.2693
 9281TIP3    H249259   0.387   2.168   1.448 -0.5179 -3.3952 -0.7552
 9282TIP3   OH249260   3.096   5.648  13.785 -0.8162  0.0877  0.4436
 9282TIP3    H149261   3.037   5.609  13.720  1.4198  0.4697 -1.9699
 9282TIP3    H249262   3.142   5.573  13.824 -0.4265 -0.0267 -0.2207
 9283TIP3   OH249263   3.451   6.090   1.855  0.4067  0.2036  0.5139
 9283TIP3    H149264   3.384   6.120   1.915  0.4278  0.2482  0.5146
 9283TIP3    H249265   3.502   6.027   1.905 -0.4397 -0.8274  0.1259
 9284TIP3   OH249266   6.386   6.264  13.818  0.1592 -0.3844 -0.2930
 9284TIP3    H149267   6.344   6.220  13.744 -0.4392  0.5679 -0.5264
 9284TIP3    H249268   6.475   6.229  13.819  0.1178 -0.5376 -1.3513
 9285TIP3   OH249269   6.619   2.833  15.065  0.3219  0.3060 -0.2441
 9285TIP3    H149270   6.531   2.825  15.027  0.2104 -0.9469  0.2180
 9285TIP3    H249271   6.639   2.926  15.061 -0.7578  0.5203 -0.9747
 9286TIP3   OH249272   4.168   1.251  11.594 -0.3793 -0.8029  0.4197
 9286TIP3    H149273   4.159   1.198  11.516  0.8789  1.0574 -1.0854
 9286TIP3    H249274   4.262   1.260  11.607 -0.5661 -0.5457  1.7878
 9287TIP3   OH249275   1.205   4.485   3.358 -0.7452  0.5960 -0.6773
 9287TIP3    H149276   1.256   4.493   3.277 -0.7044 -2.4472 -1.0955
 9287TIP3    H249277   1.114   4.487   3.329 -0.8034  1.9404 -0.4501
 9288TIP3   OH249278   6.670   2.427  16.356 -0.3421  0.1347 -0.3144
 9288TIP3    H149279   6.663   2.494  16.288  0.4693  0.5013 -0.0457
 9288TIP3    H249280   6.761   2.431  16.385 -0.9920  0.9169  1.7576
 9289TIP3   OH249281   2.736   5.083   3.065 -0.2404  0.3198 -0.2651
 9289TIP3    H149282   2.828   5.059   3.078 -0.4704 -1.5271 -1.6761
 9289TIP3    H249283   2.739   5.175   3.040  0.9443  1.1659  2.5351
 9290TIP3   OH249284   5.536   2.427   5.508 -0.4345 -0.0617  0.5596
 9290TIP3    H149285   5.560   2.498   5.567  1.4370  0.3765 -0.6395
 9290TIP3    H249286   5.473   2.467   5.447 -0.1232  0.3179  0.4803
 9291TIP3   OH249287   3.093   0.516  11.288 -0.0837  0.6431 -0.2601
 9291TIP3    H149288   3.167   0.565  11.324 -0.3624 -0.6509  2.3153
 9291TIP3    H249289   3.071   0.562  11.206  1.7746  2.7138  0.3029
 9292TIP3   OH249290   3.568   3.188   1.786 -0.3471 -0.2900 -0.0207
 9292TIP3    H149291   3.482   3.158   1.756 -0.0763 -2.2227  1.0049
 9292TIP3    H249292   3.600   3.118   1.843  2.0581  0.2312 -0.6037
 9293TIP3   OH249293   4.240   3.026  15.895 -0.2480 -0.1750  0.0496
 9293TIP3    H149294   4.187   3.028  15.815  0.9253  0.7649 -0.7254
 9293TIP3    H249295   4.243   2.933  15.919 -1.3715 -0.3710 -0.4567
 9294TIP3   OH249296   0.333   5.373  15.066  0.1468 -0.1446 -1.2909
 9294TIP3    H149297   0.398   5.443  15.062  1.0563 -0.9094 -0.3643
 9294TIP3    H249298   0.330   5.338  14.977  1.8576 -0.8285 -1.1195
 9295TIP3   OH249299   1.214   0.253  17.206  0.2507 -0.0921  0.0144
 9295TIP3    H149300   1.160   0.272  17.282  0.0403 -0.4385 -0.0441
 9295TIP3    H249301   1.244   0.339  17.175  0.2455  0.0548  0.4176
 9296TIP3   OH249302   4.486   5.073  15.473 -0.0371 -0.7403 -0.1157
 9296TIP3    H149303   4.492   5.030  15.558 -1.2104  0.2677  0.5049
 9296TIP3    H249304   4.396   5.060  15.445 -0.0479  0.1581 -0.5362
 9297TIP3   OH249305   3.081   5.473   1.017 -0.1636  0.2484  0.2446
 9297TIP3    H149306   3.042   5.472   0.929  0.9322  3.4879 -0.3850
 9297TIP3    H249307   3.084   5.380   1.042 -1.7963 -0.6813 -2.5165
 9298TIP3   OH249308   0.765   0.041  17.069  0.4323 -0.2680 -0.4810
 9298TIP3    H149309   0.674   0.027  17.042 -0.1492 -0.4516  1.3732
 9298TIP3    H249310   0.803  -0.046  17.072  0.8638 -0.1343 -1.8440
 9299TIP3   OH249311   1.971   2.291   1.799 -0.0261 -0.7198  0.3679
 9299TIP3    H149312   1.962   2.202   1.764  2.3792 -1.0309  0.3151
 9299TIP3    H249313   1.970   2.280   1.894 -1.6646 -0.5247  0.3870
 9300TIP3   OH249314   1.168   1.119  13.429 -0.2308 -0.2683 -0.5892
 9300TIP3    H149315   1.078   1.150  13.435 -0.2557 -0.3984 -0.2812
 9300TIP3    H249316   1.221   1.198  13.434 -0.3093 -0.2386 -0.2348
 9301TIP3   OH249317   3.127   3.071  14.113  0.3237  0.1133 -0.6768
 9301TIP3    H149318   3.132   3.120  14.031 -2.1173  3.0828  0.7507
 9301TIP3    H249319   3.177   3.122  14.175 -2.9866  1.5702  1.0759
 9302TIP3   OH249320   3.872   5.113  17.099  0.1816 -0.5512 -0.2578
 9302TIP3    H149321   3.965   5.089  17.100  0.3244 -0.0165 -0.3364
 9302TIP3    H249322   3.865   5.185  17.162 -0.6395 -2.1874  1.6101
 9303TIP3   OH249323   2.200   4.300   3.676  0.1263  0.0008  0.4579
 9303TIP3    H149324   2.116   4.257   3.658 -0.4866  1.1634  0.4127
 9303TIP3    H249325   2.211   4.292   3.770  0.3127 -0.7433  0.3828
 9304TIP3   OH249326   4.869   1.076  15.831  0.3416  0.0411 -0.0623
 9304TIP3    H149327   4.894   1.131  15.906 -0.9008  1.7463 -0.8406
 9304TIP3    H249328   4.907   0.990  15.851 -1.0708  0.0149  3.2073
 9305TIP3   OH249329   5.500   5.331  12.497 -0.1571  0.0679  0.0501
 9305TIP3    H149330   5.541   5.415  12.516 -0.8869  0.0891  1.6830
 9305TIP3    H249331   5.540   5.270  12.560  0.1913 -0.7745 -0.9535
 9306TIP3   OH249332   1.099   3.447  15.143 -0.3671 -0.2525 -0.3259
 9306TIP3    H149333   1.137   3.435  15.056 -0.5571  0.9274 -0.5969
 9306TIP3    H249334   1.153   3.514  15.183  0.7068 -1.9117  1.1106
 9307TIP3   OH249335   5.122   3.256   3.712 -0.2166  0.2268  0.2184
 9307TIP3    H149336   5.048   3.227   3.765 -1.6944  0.6665 -1.4958
 9307TIP3    H249337   5.126   3.192   3.641  0.5077  0.7064 -0.1826
 9308TIP3   OH249338   1.685   5.602   2.942 -0.4749 -0.2459  0.3202
 9308TIP3    H149339   1.622   5.531   2.958 -0.8788 -0.1875 -0.9535
 9308TIP3    H249340   1.743   5.568   2.875 -0.2014  0.3475  0.2497
 9309TIP3   OH249341   4.981   6.091  16.863 -0.6282 -0.1883 -0.3197
 9309TIP3    H149342   5.073   6.064  16.861 -0.5619 -0.4178  2.4571
 9309TIP3    H249343   4.985   6.186  16.868 -0.4332 -0.2533  1.3303
 9310TIP3   OH249344   3.480   3.216  12.780  0.6788 -0.6301 -0.1869
 9310TIP3    H149345   3.491   3.125  12.751  0.4311 -0.2385 -1.6282
 9310TIP3    H249346   3.391   3.219  12.814  0.5664 -0.8648 -0.4508
 9311TIP3   OH249347   6.244   0.474   2.384  0.1042 -0.2824  0.4199
 9311TIP3    H149348   6.226   0.380   2.384 -0.5056 -0.1714  0.3746
 9311TIP3    H249349   6.308   0.486   2.454 -0.7912 -0.5590  1.3026
 9312TIP3   OH249350   4.262   4.116  15.191  1.0758  0.3514 -0.0929
 9312TIP3    H149351   4.354   4.102  15.210  0.7064  0.4493  2.0573
 9312TIP3    H249352   4.218   4.103  15.276 -1.1635 -2.0307 -1.4510
 9313TIP3   OH249353   3.069   1.797  13.523 -0.5075  0.6666  0.5785
 9313TIP3    H149354   3.151   1.821  13.566  1.0554 -0.3061 -1.6436
 9313TIP3    H249355   3.002   1.805  13.591  1.6066  0.2037  2.8358
 9314TIP3   OH249356   1.870   4.398  15.228 -0.0773 -0.0398 -0.1623
 9314TIP3    H149357   1.790   4.451  15.221  0.8570  1.3102 -1.0715
 9314TIP3    H249358   1.840   4.315  15.264 -2.2069 -0.2252 -2.1184
 9315TIP3   OH249359   4.394   6.510   3.677 -0.2394  0.3001  0.3986
 9315TIP3    H149360   4.299   6.511   3.687 -0.1540  1.8724  1.5367
 9315TIP3    H249361   4.427   6.493   3.765  0.5577 -0.9812 -0.1205
 9316TIP3   OH249362   0.668   6.288   3.937  0.2959 -0.0035  0.2535
 9316TIP3    H149363   0.712   6.222   3.884  1.2608  0.6090  0.2742
 9316TIP3    H249364   0.577   6.286   3.907 -0.5062 -3.4999  2.3533
 9317TIP3   OH249365   4.407   2.596   5.551  0.3058  0.5038 -0.1343
 9317TIP3    H149366   4.337   2.579   5.615  0.7052 -0.9004 -0.0515
 9317TIP3    H249367   4.486   2.605   5.604  0.6445 -0.6960 -0.4233
 9318TIP3   OH249368   1.375   1.025   5.212  0.2873 -0.8899  0.0603
 9318TIP3    H149369   1.411   0.988   5.131  1.9419 -0.0113  0.3389
 9318TIP3    H249370   1.449   1.025   5.273  0.7397  3.4872 -0.1585
 9319TIP3   OH249371   4.631   3.106  14.730 -0.0930 -0.1444 -0.3813
 9319TIP3    H149372   4.646   3.034  14.791 -1.0158  0.2682  0.3586
 9319TIP3    H249373   4.634   3.185  14.785 -3.4028  0.0877 -0.3306
 9320TIP3   OH249374   5.111   4.813  16.705 -0.1929 -0.1548 -0.5865
 9320TIP3    H149375   5.109   4.718  16.707 -0.3254 -0.1652  2.6481
 9320TIP3    H249376   5.200   4.835  16.677 -0.3795 -1.1512 -2.0880
 9321TIP3   OH249377   0.019   1.915  13.075  0.4972 -0.1126  0.1236
 9321TIP3    H149378   0.001   1.858  13.150 -1.3741 -0.8005 -0.7841
 9321TIP3    H249379   0.111   1.898  13.054  0.0086 -2.8813 -0.1311
 9322TIP3   OH249380   4.633   2.807  14.166 -0.2924 -0.1648  0.2100
 9322TIP3    H149381   4.544   2.843  14.169 -0.4693 -0.5162 -0.5821
 9322TIP3    H249382   4.663   2.826  14.077  0.7171  0.6269  0.7034
 9323TIP3   OH249383   1.481   2.909   3.745  0.1209  0.3476  0.2254
 9323TIP3    H149384   1.562   2.930   3.698 -0.7570  0.0289 -1.5227
 9323TIP3    H249385   1.495   2.822   3.780 -0.1213 -0.5382 -1.7420
 9324TIP3   OH249386   5.773   5.182   4.339 -0.1894  0.2563 -0.0777
 9324TIP3    H149387   5.809   5.093   4.336  0.4186  0.4469  0.9023
 9324TIP3    H249388   5.694   5.178   4.285  0.0441 -0.7772 -0.3688
 9325TIP3   OH249389   1.535   0.077   6.313  0.1282  0.0621  0.2690
 9325TIP3    H149390   1.582  -0.007   6.316  0.5382  0.1503 -1.7926
 9325TIP3    H249391   1.541   0.111   6.402  2.2859 -0.8626  0.5454
 9326TIP3   OH249392   6.344   1.743   2.996  0.1428 -0.5371  0.3069
 9326TIP3    H149393   6.366   1.826   2.953 -0.1119 -0.8020 -0.3464
 9326TIP3    H249394   6.269   1.764   3.051 -0.2728 -0.4462 -0.2823
 9327TIP3   OH249395   6.111   5.410   5.342  0.2233  0.1617  0.0864
 9327TIP3    H149396   6.101   5.405   5.437  0.0563  0.4788  0.0861
 9327TIP3    H249397   6.197   5.449   5.329  1.3868 -2.2275  0.0895
 9328TIP3   OH249398   1.765   4.045  11.512  0.3780  0.6312 -0.4188
 9328TIP3    H149399   1.710   4.121  11.492  0.2234  0.0042 -2.7094
 9328TIP3    H249400   1.853   4.071  11.482  1.1710  1.2140  2.1881
 9329TIP3   OH249401   3.423   3.232   2.536  0.3996 -0.2912 -0.1140
 9329TIP3    H149402   3.422   3.159   2.597 -1.4795  0.1142  0.4014
 9329TIP3    H249403   3.514   3.236   2.504  0.6035 -2.6742  0.0103
 9330TIP3   OH249404   1.851   0.222  16.294  0.1207 -0.2435  0.2422
 9330TIP3    H149405   1.924   0.284  16.302 -0.4663  0.4774  0.1427
 9330TIP3    H249406   1.861   0.185  16.206  0.8624 -0.8036  0.5501
 9331TIP3   OH249407   2.703   1.924   5.894  0.1316  0.1462 -0.1612
 9331TIP3    H149408   2.677   1.935   5.802 -1.9221  2.7618  0.5785
 9331TIP3    H249409   2.748   2.006   5.916 -1.8642  0.8255  1.7979
 9332TIP3   OH249410   3.207   1.336  13.179  0.1933  0.7019  0.1328
 9332TIP3    H149411   3.205   1.384  13.262 -1.8632 -0.0653  0.5820
 9332TIP3    H249412   3.127   1.282  13.180  0.4277  0.2139 -2.0793
 9333TIP3   OH249413   1.003   3.088   3.884  0.0927 -0.0885  0.4098
 9333TIP3    H149414   1.070   3.053   3.825  1.0155 -1.0118  1.9411
 9333TIP3    H249415   0.996   3.023   3.953 -1.9993  0.2750  0.6022
 9334TIP3   OH249416   2.953   3.047  16.371  0.2589 -0.4268 -0.1371
 9334TIP3    H149417   3.028   3.092  16.333 -0.3291  0.1857 -0.6111
 9334TIP3    H249418   2.950   3.076  16.462  1.8099 -2.0719  0.4958
 9335TIP3   OH249419   5.267   0.729   1.673 -0.0053 -0.8652  0.4101
 9335TIP3    H149420   5.312   0.791   1.616 -0.2874 -1.1928 -0.1725
 9335TIP3    H249421   5.242   0.781   1.750  1.0179 -0.5901  0.5738
 9336TIP3   OH249422   0.220   0.003  15.094 -0.3484 -0.3863  0.3900
 9336TIP3    H149423   0.302  -0.004  15.143 -0.8846  1.0708  1.5860
 9336TIP3    H249424   0.242   0.057  15.018 -0.1930  0.0468  0.7373
 9337TIP3   OH249425   5.936   4.830  16.287  0.4802 -0.2921 -0.0508
 9337TIP3    H149426   5.992   4.754  16.275  2.0541  0.6451  0.9880
 9337TIP3    H249427   5.850   4.794  16.309  1.3856 -1.7638  1.2354
 9338TIP3   OH249428   3.280   0.536  12.947  0.0747 -0.1564 -0.4095
 9338TIP3    H149429   3.207   0.596  12.962  1.0530  0.9596  0.1194
 9338TIP3    H249430   3.297   0.497  13.033  0.4025 -0.0301 -0.4129
 9339TIP3   OH249431   3.533   4.179  13.636 -0.1143  0.7420  0.3983
 9339TIP3    H149432   3.448   4.160  13.596  1.0452 -2.2623 -0.9701
 9339TIP3    H249433   3.525   4.146  13.726  0.1058 -1.4238 -0.3086
 9340TIP3   OH249434   0.366   1.389  16.990 -0.1290  0.2948 -0.8288
 9340TIP3    H149435   0.406   1.318  16.940 -0.1461 -0.9772  0.8700
 9340TIP3    H249436   0.276   1.360  17.004 -0.1780  0.7130 -0.2361
 9341TIP3   OH249437   0.940   2.527  11.714  0.2216 -0.3822  0.0922
 9341TIP3    H149438   0.897   2.613  11.717 -0.7558 -0.8645  0.1882
 9341TIP3    H249439   1.022   2.543  11.668  0.0395  0.6063  0.0961
 9342TIP3   OH249440   3.975   3.921   0.036  0.4055 -0.1734 -0.2040
 9342TIP3    H149441   3.958   3.909   0.130  1.0048 -3.1258 -0.3740
 9342TIP3    H249442   3.891   3.948  -0.000 -0.3145 -0.7703  0.9473
 9343TIP3   OH249443   0.117   6.578   3.764  0.5728 -0.0284 -0.7403
 9343TIP3    H149444   0.171   6.601   3.840  0.2363  1.3058 -0.8723
 9343TIP3    H249445   0.108   6.660   3.716  1.8985 -1.0821 -2.9750
 9344TIP3   OH249446   5.122   3.551   1.639 -0.6252  0.2565 -0.7384
 9344TIP3    H149447   5.195   3.612   1.633 -0.8366  0.3861 -2.5393
 9344TIP3    H249448   5.158   3.467   1.610 -0.9308  0.0735 -0.5930
 9345TIP3   OH249449   4.565   1.835  12.043  0.4610  0.1501  0.4250
 9345TIP3    H149450   4.528   1.811  12.128 -0.2699 -0.8315 -0.1386
 9345TIP3    H249451   4.508   1.906  12.012 -0.0145 -0.3073  0.2380
 9346TIP3   OH249452   2.680   0.196  15.842 -0.4022 -0.3279  0.0577
 9346TIP3    H149453   2.662   0.283  15.805  0.2983  0.2210  0.9722
 9346TIP3    H249454   2.594   0.155  15.849 -0.6657 -0.0252 -1.1271
 9347TIP3   OH249455   3.780   0.641  12.497 -0.6205 -0.2944  0.2158
 9347TIP3    H149456   3.691   0.645  12.463 -0.9963  1.5365  1.2762
 9347TIP3    H249457   3.836   0.654  12.421 -1.4204  3.2831  0.0809
 9348TIP3   OH249458   1.987   6.747   3.279 -0.3764 -0.3159  0.2452
 9348TIP3    H149459   1.901   6.707   3.265 -2.4955  3.6152  0.6368
 9348TIP3    H249460   2.030   6.743   3.194 -1.4550 -1.1994 -0.2850
 9349TIP3   OH249461   5.187   0.979  11.011 -0.5348  0.0240  0.2103
 9349TIP3    H149462   5.264   0.999  10.958 -1.0789  1.0894 -0.2046
 9349TIP3    H249463   5.207   0.895  11.052  0.7149  0.1380 -0.1355
 9350TIP3   OH249464   0.506   4.199  14.599  0.2833 -0.1304 -0.1480
 9350TIP3    H149465   0.452   4.211  14.521 -0.2857  1.5538  0.4526
 9350TIP3    H249466   0.449   4.223  14.672 -0.2445 -4.5805  1.2182
 9351TIP3   OH249467   3.323   0.672   6.892  0.0762 -0.2140 -0.6244
 9351TIP3    H149468   3.264   0.640   6.961  0.4000 -0.6157 -0.5282
 9351TIP3    H249469   3.270   0.667   6.812 -0.3905  0.5073 -0.3721
 9352TIP3   OH249470   0.869   1.999   3.667  0.0954  0.6003 -0.8177
 9352TIP3    H149471   0.833   2.048   3.593 -1.4959 -1.4293 -1.4600
 9352TIP3    H249472   0.915   1.925   3.627  0.4742  0.2683  0.1979
 9353TIP3   OH249473   1.134   6.352   2.987  0.5606 -0.6009 -0.5723
 9353TIP3    H149474   1.210   6.384   3.036  0.9855 -1.2108 -0.8175
 9353TIP3    H249475   1.073   6.426   2.985  0.7654 -0.3969  0.4110
 9354TIP3   OH249476   0.115   2.661   2.230 -0.5507 -0.2419  0.2529
 9354TIP3    H149477   0.069   2.601   2.172 -0.1295 -0.0458 -0.2901
 9354TIP3    H249478   0.207   2.635   2.224 -0.4762 -0.0833  0.6676
 9355TIP3   OH249479   1.112   0.529   6.004 -0.3979  0.2283 -0.1167
 9355TIP3    H149480   1.207   0.533   6.019 -0.5789 -0.6684  1.4495
 9355TIP3    H249481   1.074   0.573   6.081 -1.2631  1.1140 -1.0111
 9356TIP3   OH249482   3.099   3.261   3.364  0.4848  0.0802  0.2250
 9356TIP3    H149483   3.020   3.241   3.415 -0.8066  2.4825 -0.6931
 9356TIP3    H249484   3.124   3.177   3.325 -2.6073 -0.4870 -0.8009
 9357TIP3   OH249485   2.388   5.717   5.661 -0.4269 -0.2165 -0.1381
 9357TIP3    H149486   2.324   5.659   5.620 -0.2804  0.1287 -0.8760
 9357TIP3    H249487   2.351   5.805   5.651  0.3578  0.0420 -1.0134
 9358TIP3   OH249488   4.011   4.336   1.436  0.0220 -0.3669 -0.5566
 9358TIP3    H149489   4.100   4.337   1.471  0.3893 -1.0857 -1.4277
 9358TIP3    H249490   3.966   4.267   1.485 -0.3356  0.5981  0.5088
 9359TIP3   OH249491   3.188   6.541   2.069 -0.2718 -0.2696  0.3806
 9359TIP3    H149492   3.096   6.514   2.067 -0.3385 -0.0708  0.7208
 9359TIP3    H249493   3.196   6.591   2.151 -0.0139  0.2551  0.0372
 9360TIP3   OH249494   4.747   5.333  13.124 -0.6773  0.4517 -0.6211
 9360TIP3    H149495   4.752   5.330  13.220 -1.0563 -0.1495 -0.6089
 9360TIP3    H249496   4.799   5.258  13.096  2.0316  2.3521 -1.0338
 9361TIP3   OH249497   6.524   3.384   2.881  0.5038  0.0768  0.7151
 9361TIP3    H149498   6.448   3.376   2.939  1.5083  0.4693  2.1255
 9361TIP3    H249499   6.571   3.302   2.893  0.3034 -0.1720 -0.1700
 9362TIP3   OH249500   2.364   2.770   2.856 -0.5182 -0.1038 -0.4238
 9362TIP3    H149501   2.304   2.783   2.929  0.8727 -0.0155  0.7659
 9362TIP3    H249502   2.357   2.850   2.804 -0.0138  0.7568  0.7876
 9363TIP3   OH249503   0.048   0.124  11.229  0.3582 -0.7805 -0.4040
 9363TIP3    H149504   0.125   0.177  11.252  0.8418 -1.0285 -1.4105
 9363TIP3    H249505   0.080   0.034  11.228  0.4509 -0.7694 -2.2668
 9364TIP3   OH249506   1.316   2.924   0.743 -0.0010 -0.0637 -0.1820
 9364TIP3    H149507   1.265   2.866   0.800  0.9894  0.2981  1.1090
 9364TIP3    H249508   1.330   2.874   0.663 -0.3507 -1.0607  0.3727
 9365TIP3   OH249509   3.348   6.536   2.471  0.1598 -0.5014 -0.2620
 9365TIP3    H149510   3.358   6.446   2.500  0.3934 -0.2630  0.4097
 9365TIP3    H249511   3.436   6.563   2.444  0.2929 -0.1517  0.5047
 9366TIP3   OH249512   5.000   5.038  11.793 -0.2766 -0.4159 -0.1437
 9366TIP3    H149513   5.063   5.109  11.796  0.9932 -1.3508 -2.3797
 9366TIP3    H249514   4.918   5.077  11.822  0.8835  1.3219  0.9560
 9367TIP3   OH249515   4.594   4.913   3.142 -0.2594  0.5547 -0.5490
 9367TIP3    H149516   4.646   4.929   3.221  0.2880  0.5224 -0.8933
 9367TIP3    H249517   4.504   4.929   3.169 -0.0750  0.5996  0.0682
 9368TIP3   OH249518   2.222   0.644   3.148  0.1422 -0.0721  0.4859
 9368TIP3    H149519   2.273   0.708   3.098 -2.1954  1.1054 -0.5585
 9368TIP3    H249520   2.155   0.614   3.087 -2.0170  0.4441  2.4520
 9369TIP3   OH249521   1.930   3.482  13.779  0.1466 -0.4795 -0.4791
 9369TIP3    H149522   1.927   3.496  13.684  0.3051 -2.1432 -0.7587
 9369TIP3    H249523   2.023   3.482  13.800  0.1295 -0.6390 -0.4069
 9370TIP3   OH249524   1.795   0.175   6.615 -0.4094 -0.1906 -0.7321
 9370TIP3    H149525   1.704   0.206   6.613 -0.8366 -1.3975 -0.7855
 9370TIP3    H249526   1.841   0.232   6.554 -0.8150  1.3605  0.3370
 9371TIP3   OH249527   0.136   3.975   5.882  0.0102  0.0630  0.1083
 9371TIP3    H149528   0.168   3.893   5.920 -1.3855  0.1145  1.5193
 9371TIP3    H249529   0.203   4.040   5.904  0.1906 -0.3266  0.7287
 9372TIP3   OH249530   1.984   4.107  11.885  0.8045 -0.1074 -1.0613
 9372TIP3    H149531   1.905   4.161  11.881 -0.2403 -1.6352 -2.4297
 9372TIP3    H249532   2.043   4.146  11.820  1.5983  1.5686  0.5798
 9373TIP3   OH249533   6.605   6.558   4.438  0.0738  0.2523 -0.1657
 9373TIP3    H149534   6.510   6.568   4.448 -0.0497 -0.7673 -0.1877
 9373TIP3    H249535   6.629   6.488   4.499  0.6813 -0.0266 -0.7043
 9374TIP3   OH249536   6.516   0.111  13.793 -0.1804  0.4229 -0.0283
 9374TIP3    H149537   6.564   0.169  13.853  0.5804 -0.8997  0.6812
 9374TIP3    H249538   6.497   0.033  13.845 -0.3788 -0.3457 -1.2230
 9375TIP3   OH249539   2.038   6.690   4.157 -0.0003 -0.6138 -0.1633
 9375TIP3    H149540   2.086   6.770   4.175 -0.9006  0.1471 -1.0329
 9375TIP3    H249541   1.999   6.666   4.241  0.0945 -0.0197  0.0506
 9376TIP3   OH249542   3.798   2.467  16.647  0.0914 -0.4927  0.1165
 9376TIP3    H149543   3.805   2.528  16.573 -1.4326 -0.9103 -0.4050
 9376TIP3    H249544   3.767   2.385  16.609  0.5101 -1.1097  1.0499
 9377TIP3   OH249545   0.828   3.424  12.576  0.7184  0.0114 -0.5035
 9377TIP3    H149546   0.788   3.502  12.615  2.4721  1.4717 -1.4310
 9377TIP3    H249547   0.756   3.382  12.529 -0.8979 -0.5306  2.2785
 9378TIP3   OH249548   0.156   5.433  17.098  0.1565  0.1065  0.4959
 9378TIP3    H149549   0.154   5.509  17.156  0.6482  1.2767 -0.9739
 9378TIP3    H249550   0.213   5.370  17.143  0.6951  1.0650  1.1831
 9379TIP3   OH249551   2.418   2.788   5.961 -1.0600  0.1045  0.4794
 9379TIP3    H149552   2.444   2.803   6.052 -0.1585 -0.0452  0.2562
 9379TIP3    H249553   2.470   2.711   5.934 -0.6899  0.6538 -0.4062
 9380TIP3   OH249554   4.296   5.375  15.679 -0.2928  0.3034 -0.2326
 9380TIP3    H149555   4.386   5.401  15.659 -0.1392 -0.3211 -0.3967
 9380TIP3    H249556   4.287   5.388  15.773  0.9078 -2.2888  0.3140
 9381TIP3   OH249557   0.926   0.842  10.858 -0.0083 -0.2048 -0.5449
 9381TIP3    H149558   0.973   0.925  10.852 -3.0330  1.5728 -1.4425
 9381TIP3    H249559   0.927   0.821  10.951  0.7615  0.8543 -0.2922
 9382TIP3   OH249560   1.629   1.207  17.206 -0.0528  0.0076  0.1335
 9382TIP3    H149561   1.594   1.156  17.133 -0.0083 -1.1511  0.8900
 9382TIP3    H249562   1.614   1.298  17.181  0.0440 -0.3505 -1.3513
 9383TIP3   OH249563   0.638   0.489  12.953 -0.0541 -0.2542 -0.2075
 9383TIP3    H149564   0.577   0.558  12.927 -1.0158 -0.6258  0.9557
 9383TIP3    H249565   0.585   0.409  12.950  0.5110 -0.6550  0.3510
 9384TIP3   OH249566   5.357   5.416   5.307  0.1651 -0.4619 -0.3235
 9384TIP3    H149567   5.378   5.509   5.300  0.5692 -0.6568 -2.7104
 9384TIP3    H249568   5.424   5.381   5.366 -0.6469  0.8887  1.5149
 9385TIP3   OH249569   0.252   5.466  16.604 -0.3679 -0.5705  0.3988
 9385TIP3    H149570   0.241   5.372  16.589  1.4383 -0.7194 -0.2204
 9385TIP3    H249571   0.173   5.505  16.567 -0.3180 -1.7183 -1.0564
 9386TIP3   OH249572   1.671   4.468   3.736 -0.0243 -0.3972 -0.4297
 9386TIP3    H149573   1.587   4.510   3.718 -1.2124 -2.5605 -0.2605
 9386TIP3    H249574   1.736   4.528   3.699 -1.6872  0.8104 -1.5475
 9387TIP3   OH249575   5.891   3.793  11.644 -0.1694 -0.0754 -0.1539
 9387TIP3    H149576   5.979   3.826  11.660  0.1544 -1.8982  2.5189
 9387TIP3    H249577   5.835   3.848  11.700 -0.3622 -0.4864  0.0630
 9388TIP3   OH249578   1.753   4.654   3.541  0.5104 -0.1553 -0.2846
 9388TIP3    H149579   1.689   4.720   3.568  0.2254 -0.8921  0.8891
 9388TIP3    H249580   1.732   4.637   3.449  0.0394  0.7531 -0.3554
 9389TIP3   OH249581   0.276   4.846   3.436 -0.0554 -0.0056  0.4834
 9389TIP3    H149582   0.326   4.899   3.374  0.1243  0.9810  1.4428
 9389TIP3    H249583   0.184   4.865   3.416 -0.0072  0.0580  0.3177
 9390TIP3   OH249584   0.205   4.225  15.300 -0.0068 -0.1035  0.1043
 9390TIP3    H149585   0.279   4.195  15.353 -1.6452 -0.4305  2.3140
 9390TIP3    H249586   0.235   4.215  15.209  1.7285 -2.6555  0.8679
 9391TIP3   OH249587   0.360   6.373   5.397 -0.1058  0.2231 -0.6519
 9391TIP3    H149588   0.405   6.438   5.451  0.8190 -1.6503  0.9424
 9391TIP3    H249589   0.413   6.294   5.404 -0.7011 -0.5188 -3.2662
 9392TIP3   OH249590   1.982   1.059  12.459 -0.3870 -0.0342  0.7095
 9392TIP3    H149591   1.964   1.152  12.447 -1.8237 -0.4176 -0.3202
 9392TIP3    H249592   1.988   1.024  12.370  0.4527 -0.8872  1.0835
 9393TIP3   OH249593   2.568   3.437   0.463  0.0553 -0.3153 -0.0963
 9393TIP3    H149594   2.608   3.442   0.549 -0.6865 -0.1065  0.2410
 9393TIP3    H249595   2.516   3.356   0.465  1.8112 -1.5611 -1.1378
 9394TIP3   OH249596   6.356   2.814  10.397 -0.1648  0.2043  0.1426
 9394TIP3    H149597   6.402   2.888  10.357  2.5397 -0.0324  2.4543
 9394TIP3    H249598   6.358   2.832  10.491 -0.0856 -2.3832  0.7207
 9395TIP3   OH249599   3.898   0.123   0.767  0.3153 -0.4619 -0.0629
 9395TIP3    H149600   3.882   0.181   0.692  1.8034  0.2356  0.1189
 9395TIP3    H249601   3.811   0.104   0.801 -0.3055  0.3365 -1.1286
 9396TIP3   OH249602   3.942   2.877   4.325  0.1095  0.5196 -0.3190
 9396TIP3    H149603   3.930   2.806   4.387 -1.4024 -0.0445 -1.1978
 9396TIP3    H249604   4.034   2.904   4.335  0.0794 -0.0093  1.6216
 9397TIP3   OH249605   2.587   1.950  12.142  0.4410 -0.7222 -0.0055
 9397TIP3    H149606   2.535   2.021  12.178 -0.5049  0.1477 -2.8306
 9397TIP3    H249607   2.670   1.991  12.116 -0.3791 -0.3527 -2.3126
 9398TIP3   OH249608   6.110   4.570  15.764 -0.0138 -0.0190  0.8322
 9398TIP3    H149609   6.152   4.597  15.682  2.7167 -0.6849  1.9213
 9398TIP3    H249610   6.035   4.630  15.772  1.8497  2.6817 -0.2475
 9399TIP3   OH249611   4.561   4.151   2.194  0.0844 -0.4973 -0.0023
 9399TIP3    H149612   4.655   4.133   2.185  0.3905  0.9189  0.0468
 9399TIP3    H249613   4.555   4.207   2.271 -0.8549 -0.8754  0.2123
 9400TIP3   OH249614   0.168   6.591   6.713  0.2565 -0.3248 -0.0875
 9400TIP3    H149615   0.189   6.653   6.643 -0.9453 -0.2713 -0.4175
 9400TIP3    H249616   0.213   6.625   6.790  0.1901  0.5591 -0.4343
 9401TIP3   OH249617   1.412   6.354  11.612  0.1998  0.0429 -0.4140
 9401TIP3    H149618   1.450   6.352  11.700  2.9044 -0.2253 -1.4860
 9401TIP3    H249619   1.428   6.443  11.582  4.0792 -1.1218 -2.4195
 9402TIP3   OH249620   5.213   4.863  10.860 -0.0961 -0.7828 -0.0585
 9402TIP3    H149621   5.176   4.891  10.777  0.1091  0.3132  0.1989
 9402TIP3    H249622   5.294   4.817  10.837 -1.0048 -2.1721 -0.5532
 9403TIP3   OH249623   3.901   4.900   1.787  0.5808  0.3259  0.4512
 9403TIP3    H149624   3.867   4.821   1.744  0.2327  0.5870  0.2361
 9403TIP3    H249625   3.828   4.931   1.840  0.3065  1.1737 -0.4029
 9404TIP3   OH249626   3.789   0.933  12.182 -0.0145  0.6515 -0.2111
 9404TIP3    H149627   3.844   0.963  12.255 -0.5928 -0.4817  0.7308
 9404TIP3    H249628   3.700   0.950  12.211 -0.2352  0.6962 -0.9033
 9405TIP3   OH249629   2.044   3.881   0.558 -0.1858  0.8296  0.1351
 9405TIP3    H149630   2.086   3.818   0.617  0.8662  2.0403  0.7230
 9405TIP3    H249631   2.050   3.964   0.605 -1.6383  1.3647 -0.5833
 9406TIP3   OH249632   0.436   5.576  13.513 -0.8375 -0.0584  0.0613
 9406TIP3    H149633   0.410   5.484  13.507 -0.2295 -0.5239  3.1654
 9406TIP3    H249634   0.517   5.581  13.462 -0.4831 -1.4288  0.4494
 9407TIP3   OH249635   6.749   4.097   3.554 -0.5243 -0.0791 -0.3594
 9407TIP3    H149636   6.657   4.115   3.534 -1.2529 -2.9651 -0.1327
 9407TIP3    H249637   6.798   4.151   3.493 -2.4509 -0.0910 -2.0216
 9408TIP3   OH249638   4.725   3.027   3.664 -0.2493  0.1637 -0.2926
 9408TIP3    H149639   4.763   2.990   3.584 -1.2155 -0.5184 -0.4545
 9408TIP3    H249640   4.755   3.118   3.664  0.5765 -0.0898 -0.9084
 9409TIP3   OH249641   5.837   6.586  11.503  0.0863 -0.3767  0.1798
 9409TIP3    H149642   5.776   6.526  11.459 -0.1039 -0.1733  0.1614
 9409TIP3    H249643   5.922   6.566  11.464 -0.2416  0.5116 -1.0586
 9410TIP3   OH249644   4.283   6.180  16.612 -0.8154 -0.1250  0.0765
 9410TIP3    H149645   4.195   6.198  16.644 -1.2491  0.3240 -1.3237
 9410TIP3    H249646   4.333   6.259  16.632 -0.9130 -0.1016  0.2279
 9411TIP3   OH249647   5.656   3.120  16.749  0.1700 -0.2263 -0.2380
 9411TIP3    H149648   5.702   3.194  16.710 -0.1395  0.1446  0.0819
 9411TIP3    H249649   5.604   3.160  16.819 -1.2483 -0.5130 -1.0946
 9412TIP3   OH249650   1.511   1.257  15.043  0.4833  0.0336 -0.3947
 9412TIP3    H149651   1.551   1.283  14.960 -0.8162 -0.1868 -1.1160
 9412TIP3    H249652   1.420   1.236  15.020 -0.3552  1.4864  1.3288
 9413TIP3   OH249653   0.227   4.766  14.736 -0.9525  0.2636 -0.6900
 9413TIP3    H149654   0.245   4.708  14.662 -0.6788 -0.0808 -0.3631
 9413TIP3    H249655   0.133   4.782  14.732 -1.1163 -0.5791 -0.5289
 9414TIP3   OH249656   4.194   3.470  15.238  0.3866  0.1145  0.1826
 9414TIP3    H149657   4.205   3.565  15.241 -3.5907  0.7130  0.8425
 9414TIP3    H249658   4.218   3.440  15.325  1.6819  0.4511 -0.0335
 9415TIP3   OH249659   3.440   4.360  13.055 -0.8810  0.0944  0.4176
 9415TIP3    H149660   3.450   4.311  13.137  0.8554  2.0940  1.4986
 9415TIP3    H249661   3.455   4.451  13.079 -0.9005  0.8301 -2.0477
 9416TIP3   OH249662   6.716   4.563  14.384 -0.0379 -0.2828 -0.4890
 9416TIP3    H149663   6.747   4.528  14.467 -2.7197  2.1835  1.7604
 9416TIP3    H249664   6.728   4.491  14.322  2.0348 -2.2581  1.9710
 9417TIP3   OH249665   4.113   6.536   4.485 -0.2418  0.5112 -0.4069
 9417TIP3    H149666   4.130   6.568   4.573 -0.8160  0.3083 -0.2212
 9417TIP3    H249667   4.186   6.475   4.467  0.8736  1.9047 -0.7767
 9418TIP3   OH249668   0.992   2.958  14.400 -0.2291  0.2751 -0.8198
 9418TIP3    H149669   0.936   2.994  14.468 -0.7667  2.7612 -2.4139
 9418TIP3    H249670   0.955   2.873  14.379 -0.2408 -0.3846  1.6856
 9419TIP3   OH249671   0.493   5.367  14.774 -0.0420  0.0675 -0.2048
 9419TIP3    H149672   0.560   5.376  14.843 -1.8806  1.9707  1.4782
 9419TIP3    H249673   0.426   5.312  14.814 -1.7737  2.3114  0.1430
 9420TIP3   OH249674   5.260   4.327  12.920 -0.2242  0.2155  0.2267
 9420TIP3    H149675   5.294   4.266  12.854  0.2945 -0.2719  0.9214
 9420TIP3    H249676   5.338   4.357  12.967 -0.6071  0.3705  0.7719
 9421TIP3   OH249677   5.701   1.617   3.501 -0.0252  0.5881 -0.1571
 9421TIP3    H149678   5.650   1.640   3.578 -0.0576  2.1776 -0.6268
 9421TIP3    H249679   5.784   1.664   3.512 -0.6282  2.1615 -1.8236
 9422TIP3   OH249680   6.749   2.474   5.472 -0.3137  0.6346  0.1596
 9422TIP3    H149681   6.676   2.427   5.431 -1.4245  2.2913  0.1446
 9422TIP3    H249682   6.717   2.564   5.482  1.8543  1.4931 -0.1186
 9423TIP3   OH249683   0.336   1.126  14.093 -0.0818  0.8517 -0.5260
 9423TIP3    H149684   0.335   1.102  14.185 -1.5097  0.5684 -0.5839
 9423TIP3    H249685   0.412   1.081  14.056  0.2805  0.6699  0.4306
 9424TIP3   OH249686   6.589   0.921  14.244  0.0457 -0.0033 -0.2221
 9424TIP3    H149687   6.674   0.881  14.225 -0.8069 -1.5699 -0.9688
 9424TIP3    H249688   6.591   1.005  14.198  0.6916 -0.6283 -1.3769
 9425TIP3   OH249689   5.735   5.063  15.367  0.0867 -0.5767 -0.0074
 9425TIP3    H149690   5.703   5.134  15.423  0.5456  1.4442 -2.1973
 9425TIP3    H249691   5.656   5.017  15.339 -0.9539  2.7769 -3.2718
 9426TIP3   OH249692   2.746   4.133   2.204 -0.2232 -0.4643  0.1403
 9426TIP3    H149693   2.685   4.071   2.164 -1.5083  0.7150  0.2171
 9426TIP3    H249694   2.807   4.155   2.133 -0.0188 -1.4415 -0.0099
 9427TIP3   OH249695   3.976   4.306   2.041 -0.1937 -0.4108 -0.3374
 9427TIP3    H149696   4.057   4.347   2.010 -0.8022  0.3026 -1.0354
 9427TIP3    H249697   3.972   4.328   2.134  0.4186 -0.4477 -0.3001
 9428TIP3   OH249698   0.317   5.908  17.155 -0.5850  0.4729  0.4844
 9428TIP3    H149699   0.290   5.980  17.212  0.0549  0.3831  0.9167
 9428TIP3    H249700   0.281   5.930  17.069 -0.1695  1.4552  0.5467
 9429TIP3   OH249701   4.153   2.307  14.244 -0.4908  0.0305  0.5576
 9429TIP3    H149702   4.090   2.236  14.230 -1.3386  0.9126 -0.1941
 9429TIP3    H249703   4.119   2.353  14.321 -0.6589  0.3850  0.2723
 9430TIP3   OH249704   2.236   5.528   1.672 -0.6363  0.4012 -0.2559
 9430TIP3    H149705   2.170   5.462   1.693 -0.6910  0.8833  1.2602
 9430TIP3    H249706   2.245   5.524   1.577 -0.8927 -1.5255 -0.2448
 9431TIP3   OH249707   0.072   5.717  14.545  0.2389 -0.0563 -0.2015
 9431TIP3    H149708   0.105   5.684  14.629  1.5344 -1.1207 -1.0855
 9431TIP3    H249709  -0.006   5.767  14.568  0.1483 -0.9364  1.5637
 9432TIP3   OH249710   2.302   5.312   6.028 -0.0402  0.2898 -0.0901
 9432TIP3    H149711   2.381   5.262   6.005 -0.9198 -1.5736  0.7102
 9432TIP3    H249712   2.333   5.381   6.087  1.1375  0.3576 -0.7502
 9433TIP3   OH249713   3.454   4.633  15.994  0.0963  0.4116  0.0151
 9433TIP3    H149714   3.444   4.715  16.042  0.1789  0.1024  0.5704
 9433TIP3    H249715   3.393   4.572  16.037 -0.3081  0.3079 -0.6899
 9434TIP3   OH249716   1.726   6.444  11.582 -0.1860 -0.1448  0.8887
 9434TIP3    H149717   1.777   6.366  11.605 -0.6419 -0.1898  1.7676
 9434TIP3    H249718   1.744   6.506  11.653  1.0828  1.0107 -0.3583
 9435TIP3   OH249719   5.783   1.703   6.605  0.1147  0.2645 -0.1132
 9435TIP3    H149720   5.854   1.748   6.651  1.5312  1.1603 -2.9714
 9435TIP3    H249721   5.815   1.614   6.593  0.1796  0.3087 -0.2646
 9436TIP3   OH249722   0.257   3.392  15.983 -0.4004 -0.0095 -0.0190
 9436TIP3    H149723   0.339   3.350  15.960 -0.8685 -0.7346 -0.3971
 9436TIP3    H249724   0.189   3.329  15.959 -1.0480  0.3647  0.7706
 9437TIP3   OH249725   1.673   1.456  16.878  0.5533 -0.2303  0.5121
 9437TIP3    H149726   1.632   1.378  16.915  1.0532 -1.9228 -2.2289
 9437TIP3    H249727   1.648   1.527  16.938 -1.9195 -2.0486  1.8160
 9438TIP3   OH249728   2.646   2.516  10.554 -0.6117  0.4829 -0.0869
 9438TIP3    H149729   2.624   2.425  10.537 -1.0806  0.2905  1.4082
 9438TIP3    H249730   2.721   2.534  10.498 -1.2441 -0.4610 -1.2639
 9439TIP3   OH249731   2.501   2.308   3.618  0.4439 -0.3924  0.3543
 9439TIP3    H149732   2.410   2.278   3.610 -0.3749  2.2528 -2.8390
 9439TIP3    H249733   2.498   2.371   3.690 -0.4521  0.0867 -0.0707
 9440TIP3   OH249734   5.958   3.504  13.464 -0.1863  0.1199 -0.1303
 9440TIP3    H149735   5.862   3.511  13.465 -0.2624 -0.2361  2.4481
 9440TIP3    H249736   5.975   3.414  13.489  0.7946  0.7134  1.4900
 9441TIP3   OH249737   4.622   3.671   4.292 -0.0628 -0.8016 -0.5327
 9441TIP3    H149738   4.684   3.702   4.358 -0.7923  1.0407 -0.6352
 9441TIP3    H249739   4.677   3.640   4.220  0.7575  0.1372 -0.3377
 9442TIP3   OH249740   1.909   1.333  16.790 -0.2502 -0.2534  0.6035
 9442TIP3    H149741   1.972   1.397  16.825 -0.0736 -0.6713  1.0582
 9442TIP3    H249742   1.824   1.362  16.824 -0.2774  0.1888  0.1645
 9443TIP3   OH249743   2.366   3.885  16.837 -0.3950 -0.0322 -0.1327
 9443TIP3    H149744   2.443   3.830  16.842  0.1750  0.4678 -2.4353
 9443TIP3    H249745   2.321   3.858  16.757 -1.2734  1.3377 -0.1466
 9444TIP3   OH249746   6.030   1.103   6.305 -0.2550 -0.3684 -0.0920
 9444TIP3    H149747   5.947   1.132   6.341 -0.2481 -1.8304  1.2333
 9444TIP3    H249748   6.095   1.164   6.342 -0.7187  0.8989 -1.2971
 9445TIP3   OH249749   4.993   0.796  15.467 -0.7291  0.5718  0.0142
 9445TIP3    H149750   4.954   0.875  15.504 -1.6711 -0.6554  1.7558
 9445TIP3    H249751   4.918   0.744  15.439 -0.1666 -0.1847 -0.0995
 9446TIP3   OH249752   5.755   2.025  16.708  0.4828 -0.3040 -0.6125
 9446TIP3    H149753   5.758   1.967  16.632  1.5728 -1.7771  0.4841
 9446TIP3    H249754   5.819   2.093  16.689 -0.8824  0.6721 -1.9603
 9447TIP3   OH249755   4.112   4.936   0.689 -0.3711  0.2522  0.0134
 9447TIP3    H149756   4.181   4.911   0.750 -1.2201 -1.0492  0.5098
 9447TIP3    H249757   4.039   4.962   0.746 -0.9445 -0.3169 -0.4472
 9448TIP3   OH249758   5.391   4.793  13.655  0.1453  0.2853  0.1996
 9448TIP3    H149759   5.483   4.813  13.638  0.6147 -2.4499 -1.0735
 9448TIP3    H249760   5.347   4.810  13.571 -0.0989 -0.4113  0.1805
 9449TIP3   OH249761   2.772   1.446  16.129  0.5707  0.1522 -0.4056
 9449TIP3    H149762   2.737   1.372  16.178  0.7139  1.1198  1.2387
 9449TIP3    H249763   2.695   1.491  16.095  0.4997 -2.2129 -3.8869
 9450TIP3   OH249764   6.091   6.025   4.631  0.3616  0.1667  0.3823
 9450TIP3    H149765   6.064   6.055   4.544 -0.4007  2.0214  1.1983
 9450TIP3    H249766   6.009   6.003   4.676  0.6951 -0.1331  0.8546
 9451TIP3   OH249767   5.370   1.605   3.121  0.2723  0.4051 -0.0633
 9451TIP3    H149768   5.334   1.686   3.084 -0.2534 -0.8714 -2.5995
 9451TIP3    H249769   5.460   1.626   3.144  0.2513  1.6366 -1.0308
 9452TIP3   OH249770   0.806   1.255   2.211  0.0903  0.4310 -0.2508
 9452TIP3    H149771   0.801   1.351   2.206 -0.9631  0.6027  2.2737
 9452TIP3    H249772   0.859   1.238   2.289  0.1251 -1.0496 -0.5684
 9453TIP3   OH249773   0.819   0.509   2.774 -0.3528  0.6256  0.1813
 9453TIP3    H149774   0.756   0.563   2.821  0.8076  1.1729  1.1531
 9453TIP3    H249775   0.857   0.453   2.841  0.4176  0.5181 -0.3394
 9454TIP3   OH249776   5.039   0.037   0.717  0.2038  0.4859  0.3354
 9454TIP3    H149777   5.119   0.005   0.756 -0.6842 -2.0462  0.2302
 9454TIP3    H249778   4.994   0.083   0.788  1.5454  1.6921  0.4596
 9455TIP3   OH249779   5.992   2.092   0.540  0.5498 -0.4726  0.0065
 9455TIP3    H149780   6.005   2.185   0.556 -0.6536 -0.2139 -0.4204
 9455TIP3    H249781   6.055   2.049   0.598  1.5782  0.5993 -0.2617
 9456TIP3   OH249782   1.515   5.688  12.106  0.2908 -0.0656  0.4094
 9456TIP3    H149783   1.537   5.689  12.013 -1.2075  2.6194 -0.0142
 9456TIP3    H249784   1.489   5.597  12.123  2.2957 -1.0338 -1.3105
 9457TIP3   OH249785   2.673   2.766   4.927  0.0243  0.5577 -0.2235
 9457TIP3    H149786   2.587   2.777   4.967  0.5799 -0.0945  1.2463
 9457TIP3    H249787   2.715   2.698   4.980  2.2237  2.3207  0.4512
 9458TIP3   OH249788   2.967   1.714   2.449 -0.2573 -0.3543 -0.1350
 9458TIP3    H149789   3.062   1.705   2.455 -0.3247 -0.9771  0.0597
 9458TIP3    H249790   2.934   1.625   2.458 -0.8484 -0.1731 -0.4660
 9459TIP3   OH249791   3.057   2.089  16.621 -0.4771  0.5571 -0.0607
 9459TIP3    H149792   3.128   2.128  16.672 -0.1263  0.1019 -0.2054
 9459TIP3    H249793   3.053   1.998  16.650  0.3138  0.0399 -1.4717
 9460TIP3   OH249794   4.392   1.776  13.558  0.0839 -0.2477  0.2542
 9460TIP3    H149795   4.392   1.682  13.571  0.1003 -0.1238  1.2626
 9460TIP3    H249796   4.474   1.794  13.511 -0.9636 -0.9544 -1.9657
 9461TIP3   OH249797   2.965   1.960  10.964  0.5119 -0.3477 -0.0090
 9461TIP3    H149798   3.031   2.010  10.917 -0.3065  0.6074 -0.1808
 9461TIP3    H249799   2.901   2.025  10.993 -0.3364 -1.2361  0.1889
 9462TIP3   OH249800   4.648   0.351  16.464 -1.3265 -0.4516  0.1041
 9462TIP3    H149801   4.651   0.389  16.376 -1.6729  0.2827  0.3985
 9462TIP3    H249802   4.653   0.427  16.523  1.0910 -1.0338  0.7654
 9463TIP3   OH249803   4.174   5.277  12.640 -0.1644 -0.0497  0.0731
 9463TIP3    H149804   4.080   5.281  12.655 -0.1201  2.4788  0.1455
 9463TIP3    H249805   4.184   5.291  12.545  0.1515  0.6262  0.1981
 9464TIP3   OH249806   3.948   4.048   6.147  0.2252 -0.6040  0.3828
 9464TIP3    H149807   3.863   4.048   6.192  0.1856 -0.3116  0.3054
 9464TIP3    H249808   4.004   3.995   6.203  0.1480 -0.3211  0.7307
 9465TIP3   OH249809   1.080   2.667   5.706 -0.2075 -0.6531 -0.3305
 9465TIP3    H149810   1.141   2.596   5.688 -0.8535 -1.2817 -0.0729
 9465TIP3    H249811   1.098   2.693   5.796  1.5446  1.0311 -1.1089
 9466TIP3   OH249812   4.817   4.108   2.479  0.0986  0.1677  0.3163
 9466TIP3    H149813   4.724   4.086   2.482  0.3181 -0.8745 -0.1555
 9466TIP3    H249814   4.855   4.062   2.554  0.1370  1.1041  0.8817
 9467TIP3   OH249815   1.019   0.450  11.766 -0.1035  0.8876  0.2476
 9467TIP3    H149816   1.000   0.357  11.755  1.7402  0.3884  0.9658
 9467TIP3    H249817   0.964   0.477  11.839 -0.0250  0.1371  0.5947
 9468TIP3   OH249818   2.811   4.862   0.593 -0.0117  0.0177 -0.1457
 9468TIP3    H149819   2.850   4.824   0.672 -1.3260 -0.6734  0.1955
 9468TIP3    H249820   2.850   4.812   0.521  0.5536  0.0735  0.1212
 9469TIP3   OH249821   5.448   3.614   0.805 -0.5589  0.3665  0.2350
 9469TIP3    H149822   5.504   3.577   0.737 -1.2510  0.8699 -0.6317
 9469TIP3    H249823   5.366   3.635   0.760 -0.8864  1.0846  1.1328
 9470TIP3   OH249824   5.759   5.330   4.576  0.3585  0.3699  0.6621
 9470TIP3    H149825   5.669   5.362   4.585  0.2180  0.2183 -0.1542
 9470TIP3    H249826   5.762   5.289   4.490  1.0866 -0.0507  0.8752
 9471TIP3   OH249827   3.559   1.621  17.255 -0.1022  0.2005  0.0587
 9471TIP3    H149828   3.563   1.708  17.214  0.6157  0.7944  1.3353
 9471TIP3    H249829   3.626   1.624  17.324 -0.0889 -1.3611  0.1459
 9472TIP3   OH249830   2.161   6.546   3.797 -0.2205  0.1096  0.0044
 9472TIP3    H149831   2.211   6.573   3.719 -0.6197 -0.8838 -0.6248
 9472TIP3    H249832   2.071   6.573   3.778 -0.4983 -0.9807 -0.3368
 9473TIP3   OH249833   5.813   4.362   3.977  0.3185  0.0870  0.1860
 9473TIP3    H149834   5.723   4.385   4.002 -0.2556 -2.2398  0.5090
 9473TIP3    H249835   5.825   4.273   4.011  1.5860 -0.9688 -2.7421
 9474TIP3   OH249836   5.431   4.525  14.340  0.3960  0.2196  0.7274
 9474TIP3    H149837   5.501   4.577  14.302  0.3655  0.4243  0.9481
 9474TIP3    H249838   5.379   4.587  14.391  1.3581 -0.2950  2.4416
 9475TIP3   OH249839   2.653   1.280   2.784 -0.0319 -0.6720  0.1533
 9475TIP3    H149840   2.715   1.349   2.809 -0.4122 -0.0829 -0.4817
 9475TIP3    H249841   2.579   1.291   2.845 -0.5379  0.1468 -0.5880
 9476TIP3   OH249842   5.245   2.656  15.437  0.2711  0.3034 -0.2300
 9476TIP3    H149843   5.198   2.573  15.430 -0.0981  0.6063 -1.9077
 9476TIP3    H249844   5.244   2.677  15.530 -0.8136 -0.8958  0.0572
 9477TIP3   OH249845   4.121   3.436   1.517  0.2319 -0.1317 -0.2116
 9477TIP3    H149846   4.166   3.521   1.511  0.2010 -0.0747  0.3213
 9477TIP3    H249847   4.039   3.449   1.469 -0.2210  0.4488  0.6871
 9478TIP3   OH249848   6.344   6.312  14.331 -0.0781  0.2547 -0.1923
 9478TIP3    H149849   6.327   6.248  14.262 -0.9381 -0.2556  0.4720
 9478TIP3    H249850   6.292   6.282  14.406  0.5974  0.9566  0.5915
 9479TIP3   OH249851   5.811   1.843  10.510 -0.3020  0.4272  0.7181
 9479TIP3    H149852   5.754   1.774  10.546  0.5804 -0.6044  0.2062
 9479TIP3    H249853   5.869   1.797  10.449  0.0181  1.7111  0.0156
 9480TIP3   OH249854   1.827   0.999   3.573  0.0079  0.0674  0.0633
 9480TIP3    H149855   1.796   1.085   3.600 -0.3695 -0.3316  0.9681
 9480TIP3    H249856   1.788   0.939   3.637  3.0431 -0.4324  1.5939
 9481TIP3   OH249857   1.225   3.984  12.602  0.0843  0.0296  0.0622
 9481TIP3    H149858   1.137   3.946  12.600  0.5041 -1.0175  0.5995
 9481TIP3    H249859   1.282   3.911  12.577  0.7113  1.0290 -1.6251
 9482TIP3   OH249860   4.850   4.769  16.615 -0.1097 -0.3785  0.1244
 9482TIP3    H149861   4.938   4.803  16.631 -0.5897  1.2918 -0.5715
 9482TIP3    H249862   4.852   4.741  16.524 -0.4700  0.2979 -0.1007
 9483TIP3   OH249863   2.033   6.693   6.154 -0.1812 -0.2540 -0.0772
 9483TIP3    H149864   2.095   6.621   6.162 -0.2170 -0.2092  0.6980
 9483TIP3    H249865   2.015   6.699   6.060  2.1441  0.7192 -0.5296
 9484TIP3   OH249866   0.782   6.732  12.331  0.1402 -0.4007 -0.2828
 9484TIP3    H149867   0.857   6.673  12.323  0.2287 -0.2097 -0.9062
 9484TIP3    H249868   0.756   6.751  12.241 -0.0399  0.3209 -0.0898
 9485TIP3   OH249869   6.239   4.956   1.376  0.0369  0.3148  0.4826
 9485TIP3    H149870   6.168   5.018   1.360 -0.9022 -1.0702 -1.1353
 9485TIP3    H249871   6.194   4.878   1.410  0.8103 -0.4485 -0.2145
 9486TIP3   OH249872   6.505   3.470  16.602  0.0679 -0.5805 -0.0431
 9486TIP3    H149873   6.526   3.561  16.622 -0.0707 -0.5768  0.0870
 9486TIP3    H249874   6.480   3.470  16.509 -2.5352 -0.0182  0.5789
 9487TIP3   OH249875   5.163   4.318   3.495  0.0579 -0.5685  0.0882
 9487TIP3    H149876   5.142   4.347   3.583 -0.3476  1.0900 -0.5211
 9487TIP3    H249877   5.235   4.375   3.467 -1.0018  0.1807 -1.2842
 9488TIP3   OH249878   2.223   5.339  15.876 -0.2423  0.2599 -0.1446
 9488TIP3    H149879   2.224   5.348  15.972 -0.3492 -0.9021 -0.0181
 9488TIP3    H249880   2.293   5.276  15.858  0.0283  0.7576 -0.8724
 9489TIP3   OH249881   0.959   1.861  11.829 -0.5039  0.3981 -0.2340
 9489TIP3    H149882   0.988   1.838  11.741  0.3292  0.1848  0.0845
 9489TIP3    H249883   0.996   1.947  11.845  0.3539 -0.0571  0.3378
 9490TIP3   OH249884   1.467   1.497  13.194 -0.3787 -0.2199  0.3466
 9490TIP3    H149885   1.429   1.441  13.126 -1.0391  0.5733  0.0393
 9490TIP3    H249886   1.457   1.586  13.159 -0.0032  0.1394  1.1393
 9491TIP3   OH249887   3.514   5.107  16.606  0.1680 -0.0499 -0.1580
 9491TIP3    H149888   3.496   5.045  16.678  1.9503 -0.5443 -0.0745
 9491TIP3    H249889   3.556   5.181  16.649  0.3611  0.0821 -0.5719
 9492TIP3   OH249890   5.332   6.562  14.219  0.4808 -0.2488 -0.1384
 9492TIP3    H149891   5.378   6.504  14.158  1.0733  0.8757 -0.7739
 9492TIP3    H249892   5.291   6.502  14.281  0.5617 -1.3891 -1.1403
 9493TIP3   OH249893   5.910   4.923   3.638  0.3220 -0.3774 -0.1942
 9493TIP3    H149894   5.973   4.980   3.682 -0.8636 -1.2636  2.8480
 9493TIP3    H249895   5.826   4.942   3.679 -0.8161 -1.6715 -1.7540
 9494TIP3   OH249896   5.682   3.420  16.502 -0.1637 -0.2708 -0.5059
 9494TIP3    H149897   5.658   3.417  16.409  0.0223  2.0840 -0.6864
 9494TIP3    H249898   5.691   3.513  16.521 -1.3750 -0.6226  2.1970
 9495TIP3   OH249899   0.385   4.779  12.266 -0.1948  0.3911  0.6027
 9495TIP3    H149900   0.421   4.817  12.185 -0.2810 -1.9626 -0.6314
 9495TIP3    H249901   0.291   4.777  12.251 -0.0841 -1.9307 -0.2157
 9496TIP3   OH249902   1.610   0.775   5.655  0.1520  0.1266  0.1537
 9496TIP3    H149903   1.537   0.749   5.712 -1.0158  0.9611 -0.9143
 9496TIP3    H249904   1.650   0.849   5.701  0.5599 -0.5518  0.9156
 9497TIP3   OH249905   6.046   0.380  14.141 -0.8874  0.0926 -0.0517
 9497TIP3    H149906   6.019   0.461  14.185  1.4474  1.5505 -1.0925
 9497TIP3    H249907   6.073   0.322  14.212  1.7830  2.0060  0.6871
 9498TIP3   OH249908   2.079   0.962  16.405  0.3492  0.0779 -0.1164
 9498TIP3    H149909   2.129   0.881  16.394 -1.8182 -1.5224  1.1348
 9498TIP3    H249910   2.136   1.019  16.457  1.7898 -0.7270 -0.7544
 9499TIP3   OH249911   5.222   0.409   0.353  0.4483 -0.1021  0.5038
 9499TIP3    H149912   5.178   0.328   0.378 -1.2615  0.7440  0.3479
 9499TIP3    H249913   5.271   0.435   0.431  0.1586 -0.7333  0.8977
 9500TIP3   OH249914   1.298   6.521   6.450  0.0841 -0.2508  0.2689
 9500TIP3    H149915   1.214   6.502   6.492 -1.1336  0.4936 -1.7026
 9500TIP3    H249916   1.353   6.445   6.471 -2.1022 -2.3239 -0.9668
 9501TIP3   OH249917   4.086   0.321  14.005  0.0705  0.4769  0.0645
 9501TIP3    H149918   4.032   0.398  13.988 -1.5401 -0.7569 -0.7053
 9501TIP3    H249919   4.120   0.297  13.919 -0.6075 -0.4816  0.0513
 9502TIP3   OH249920   1.810   1.895  16.509  0.2615  0.1536 -0.1201
 9502TIP3    H149921   1.871   1.849  16.566 -0.1959  1.8565  1.8972
 9502TIP3    H249922   1.845   1.882  16.421  2.2217 -0.8420  0.7366
 9503TIP3   OH249923   0.558   1.518   2.276 -0.2027 -0.1660 -1.2277
 9503TIP3    H149924   0.642   1.481   2.250 -0.6044 -0.2044 -2.5261
 9503TIP3    H249925   0.509   1.526   2.195 -0.2758  2.9270 -1.0016
 9504TIP3   OH249926   0.201   5.229   4.709  0.0479  0.1351 -0.7020
 9504TIP3    H149927   0.115   5.238   4.749  0.2887 -2.0113  0.4812
 9504TIP3    H249928   0.255   5.189   4.777  1.5716  0.0306 -1.9138
 9505TIP3   OH249929   4.296   2.435   3.499 -0.3564  0.0122 -0.5573
 9505TIP3    H149930   4.386   2.403   3.499 -0.0717  0.7704 -1.3884
 9505TIP3    H249931   4.262   2.411   3.413 -0.6769  0.4585 -0.5578
 9506TIP3   OH249932   2.839   5.118  13.917 -0.0007 -0.4982 -0.5064
 9506TIP3    H149933   2.803   5.188  13.862  2.0799  0.0179 -1.3266
 9506TIP3    H249934   2.814   5.142  14.006  1.0558  1.6205 -0.7083
 9507TIP3   OH249935   1.396   3.384  14.782 -0.3738  0.1103 -0.7028
 9507TIP3    H149936   1.390   3.343  14.696 -0.8488  0.9999 -1.1066
 9507TIP3    H249937   1.434   3.316  14.838 -0.3543 -0.5870 -1.5349
 9508TIP3   OH249938   5.305   2.806  13.195 -0.6264  0.2554  0.5975
 9508TIP3    H149939   5.398   2.820  13.216 -0.8192  1.4342  0.7312
 9508TIP3    H249940   5.260   2.811  13.279 -0.7144 -1.4661  0.6907
 9509TIP3   OH249941   5.766   6.517   1.100 -0.0845 -0.1740  0.0869
 9509TIP3    H149942   5.801   6.539   1.013 -0.4634 -0.2139 -0.0762
 9509TIP3    H249943   5.796   6.427   1.115  1.9995  0.6366  1.0248
 9510TIP3   OH249944   3.972   5.226   4.991  0.5559 -0.6687  0.1864
 9510TIP3    H149945   4.067   5.228   4.982  0.6529 -2.2643  0.5802
 9510TIP3    H249946   3.956   5.228   5.086  0.0411  2.2258  0.1581
 9511TIP3   OH249947   5.478   0.113   1.217  0.1677 -0.1276 -0.2090
 9511TIP3    H149948   5.523   0.189   1.181  1.5776 -0.7182  0.2324
 9511TIP3    H249949   5.401   0.149   1.261  0.8869  1.0582  0.1209
 9512TIP3   OH249950   3.386   5.238  16.407  0.4553 -0.1303  0.0802
 9512TIP3    H149951   3.427   5.197  16.482  1.6062  0.9574  0.0890
 9512TIP3    H249952   3.394   5.332  16.424 -1.5585  0.1478 -0.2048
 9513TIP3   OH249953   3.298   3.576   4.503  0.4795 -0.2965 -0.2655
 9513TIP3    H149954   3.322   3.488   4.472  0.4934 -0.6048  0.6016
 9513TIP3    H249955   3.247   3.560   4.583  0.7011  0.4955  0.0378
 9514TIP3   OH249956   4.943   2.531   0.016 -0.2703 -0.1659 -0.1490
 9514TIP3    H149957   4.932   2.551  -0.077 -0.3290 -0.8527 -0.2959
 9514TIP3    H249958   4.893   2.599   0.061  0.8513  0.9851 -0.5608
 9515TIP3   OH249959   3.323   5.224  15.463  0.1659 -0.1737  0.0323
 9515TIP3    H149960   3.405   5.190  15.500  0.4890 -0.4362 -0.8882
 9515TIP3    H249961   3.293   5.154  15.405  0.3039  0.6891 -1.1180
 9516TIP3   OH249962   6.348   4.731  11.573 -0.4507  0.1612  0.2699
 9516TIP3    H149963   6.254   4.727  11.585 -0.5241 -1.1165 -0.5869
 9516TIP3    H249964   6.377   4.801  11.633 -1.7260 -0.4782  1.6981
 9517TIP3   OH249965   4.670   1.017   6.140  0.2039  0.1906 -0.5419
 9517TIP3    H149966   4.679   1.111   6.154 -0.8198  0.7457 -3.0924
 9517TIP3    H249967   4.621   0.985   6.215  2.5298  1.2051  1.5562
 9518TIP3   OH249968   4.918   3.967   2.681  0.4853 -0.1386 -0.2855
 9518TIP3    H149969   4.973   3.993   2.755  0.6310  0.3937 -0.5779
 9518TIP3    H249970   4.839   3.932   2.721  0.6387 -0.0228  0.1240
 9519TIP3   OH249971   0.416   1.103  14.680  0.2164  0.1109 -0.8071
 9519TIP3    H149972   0.324   1.114  14.706  0.1642 -0.7590 -0.5857
 9519TIP3    H249973   0.430   1.008  14.683  0.4644  0.0193 -3.0890
 9520TIP3   OH249974   0.208   6.388  10.540 -0.2972 -0.3618  0.7797
 9520TIP3    H149975   0.234   6.472  10.501 -0.8803 -1.7337 -3.0905
 9520TIP3    H249976   0.256   6.384  10.623  0.4779  3.3245  0.6900
 9521TIP3   OH249977   2.650   6.095  16.146 -0.3268  0.2079 -0.4467
 9521TIP3    H149978   2.712   6.129  16.082  1.0116 -0.9229  0.2007
 9521TIP3    H249979   2.615   6.015  16.107 -0.1818 -0.0042 -0.1473
 9522TIP3   OH249980   2.469   2.792   5.637  0.1294  0.0455 -0.5672
 9522TIP3    H149981   2.553   2.816   5.678 -0.8153  1.1678  0.8348
 9522TIP3    H249982   2.452   2.703   5.668 -0.0709  0.5014  0.7054
 9523TIP3   OH249983   1.368   2.138  15.480 -0.3593  0.5477 -0.1767
 9523TIP3    H149984   1.396   2.151  15.571  0.2961  0.9533 -0.4297
 9523TIP3    H249985   1.422   2.199  15.429 -1.9022  1.5478 -0.6575
 9524TIP3   OH249986   6.633   2.156   1.785  0.0710 -0.2961  0.4519
 9524TIP3    H149987   6.684   2.102   1.724  0.3051 -2.4029  2.3670
 9524TIP3    H249988   6.546   2.161   1.745  0.4886 -0.7179 -0.5606
 9525TIP3   OH249989   2.586   2.894   1.113 -0.2942  0.2967 -0.3496
 9525TIP3    H149990   2.653   2.841   1.069 -0.0610  0.0646  0.2766
 9525TIP3    H249991   2.509   2.887   1.056 -0.0298 -0.0882 -0.6656
 9526TIP3   OH249992   2.093   0.933  14.842  0.0787  0.5275  0.4141
 9526TIP3    H149993   2.146   0.862  14.878 -0.0668  0.4510  0.4782
 9526TIP3    H249994   2.100   0.923  14.747 -1.2816 -0.5943  0.3907
 9527TIP3   OH249995   3.706   2.413   0.881  0.0913 -0.2739 -0.0437
 9527TIP3    H149996   3.782   2.433   0.827 -0.2985 -0.1061 -0.5376
 9527TIP3    H249997   3.669   2.498   0.904 -0.6830 -0.3780 -0.8712
 9528TIP3   OH249998   0.210   6.002  15.496 -0.3111 -0.0274 -0.7531
 9528TIP3    H149999   0.297   5.968  15.513  0.1193  0.2341 -2.2490
 9528TIP3    H250000   0.156   5.971  15.569  0.0312 -3.9254 -1.9709
 9529TIP3   OH250001   2.656   4.039   1.817 -0.3065  0.6373  0.4511
 9529TIP3    H150002   2.659   3.958   1.765 -0.2405  1.6752 -1.2679
 9529TIP3    H250003   2.566   4.069   1.809 -0.0849  1.2582  0.1918
 9530TIP3   OH250004   2.843   2.513  11.242  0.1569  0.3407 -0.2301
 9530TIP3    H150005   2.786   2.589  11.248  0.2993  0.3907  0.8355
 9530TIP3    H250006   2.810   2.463  11.168 -1.9963 -0.1875  0.9923
 9531TIP3   OH250007   5.043   4.719  13.474  0.3563  0.3521 -0.1667
 9531TIP3    H150008   5.070   4.750  13.560  0.3304 -0.5757  0.1874
 9531TIP3    H250009   5.125   4.701  13.428  0.4457 -2.4077  0.8869
 9532TIP3   OH250010   5.012   6.200  12.872 -0.7425 -0.0975 -0.2959
 9532TIP3    H150011   5.044   6.264  12.936  0.9922 -1.0482 -0.1547
 9532TIP3    H250012   4.978   6.253  12.800  0.3600  1.0006 -0.0443
 9533TIP3   OH250013   4.985   2.548  14.941  0.3709  0.4641  0.3897
 9533TIP3    H150014   4.960   2.581  15.027 -0.8949  0.2266  0.1467
 9533TIP3    H250015   4.909   2.569  14.885  1.0861  0.4407 -0.6128
 9534TIP3   OH250016   1.367   1.026  14.914  0.1049 -0.1094 -0.2167
 9534TIP3    H150017   1.313   0.987  14.983 -0.8601  0.1960 -0.7828
 9534TIP3    H250018   1.346   0.975  14.836  2.7133 -1.8109  0.0669
 9535TIP3   OH250019   0.154   4.648  13.197  0.2746 -0.9109 -0.4300
 9535TIP3    H150020   0.210   4.604  13.133  2.2149 -0.8353  1.0965
 9535TIP3    H250021   0.165   4.742  13.178 -1.6874 -0.9428 -1.9481
 9536TIP3   OH250022   4.435   0.419  14.933 -0.3757 -0.3544 -0.2098
 9536TIP3    H150023   4.404   0.421  14.842 -0.9803 -1.0881 -0.0310
 9536TIP3    H250024   4.378   0.480  14.979  0.2901  0.4442 -0.4193
 9537TIP3   OH250025   1.006   3.962   3.671  0.3734 -0.3468  0.3101
 9537TIP3    H150026   1.022   3.997   3.759  0.4295 -0.7014  0.4422
 9537TIP3    H250027   1.085   3.913   3.649  0.8300  0.6783 -0.4061
 9538TIP3   OH250028   5.952   1.875  15.251  0.1723  0.2578 -0.5993
 9538TIP3    H150029   5.908   1.794  15.280  0.4944  0.5104  0.6661
 9538TIP3    H250030   6.021   1.889  15.316  0.3680  1.3464 -1.0252
 9539TIP3   OH250031   6.355   5.968   0.650 -0.0345  0.3007 -0.0474
 9539TIP3    H150032   6.321   5.980   0.561 -1.8721  2.1605  0.8098
 9539TIP3    H250033   6.304   5.894   0.684 -1.1749  1.1814  0.2382
 9540TIP3   OH250034   3.474   6.719   2.650 -0.6181 -0.3095  0.1704
 9540TIP3    H150035   3.385   6.740   2.622 -0.0787  0.7468 -0.9098
 9540TIP3    H250036   3.487   6.629   2.623 -1.1599 -0.2706 -0.2395
 9541TIP3   OH250037   4.920   3.949   4.737  0.0877  0.3060  0.3897
 9541TIP3    H150038   4.880   3.909   4.814  0.6417  0.0673  0.5541
 9541TIP3    H250039   4.995   3.893   4.717  1.1497  1.5019  0.9003
 9542TIP3   OH250040   4.122   6.475  11.839 -0.2825 -0.1222  0.2825
 9542TIP3    H150041   4.062   6.441  11.773  0.5073 -2.2964  0.5955
 9542TIP3    H250042   4.208   6.472  11.797 -0.0705  0.7790  0.6218
 9543TIP3   OH250043   1.723   0.087   2.350  0.0663 -0.3012  0.7560
 9543TIP3    H150044   1.770   0.042   2.420  1.0007 -0.5146  0.0264
 9543TIP3    H250045   1.636   0.048   2.350 -0.7595  1.3221  3.2827
 9544TIP3   OH250046   4.242   2.433  11.911 -0.2603  0.2087 -0.2094
 9544TIP3    H150047   4.168   2.482  11.874  0.6718 -0.0037 -2.4696
 9544TIP3    H250048   4.203   2.353  11.945 -1.2392  0.6846 -0.1679
 9545TIP3   OH250049   0.042   3.579  11.909 -0.4030 -0.7027 -0.0607
 9545TIP3    H150050   0.105   3.507  11.909  1.5580  0.8796 -2.2554
 9545TIP3    H250051   0.000   3.575  11.823 -0.3156  0.7109 -0.1868
 9546TIP3   OH250052   4.001   4.450   2.340 -0.0521  0.2429 -0.0637
 9546TIP3    H150053   3.944   4.526   2.355 -0.0120  0.7844 -2.2809
 9546TIP3    H250054   3.942   4.375   2.345 -0.3889  0.5443  0.5992
 9547TIP3   OH250055   6.214   1.997  17.172 -0.3634  0.3512  0.2417
 9547TIP3    H150056   6.246   1.907  17.183 -1.2076  0.1477  1.1237
 9547TIP3    H250057   6.269   2.033  17.103  0.7923 -0.4621  0.7014
 9548TIP3   OH250058   4.611   6.283   4.368  0.7862  0.0628  0.0648
 9548TIP3    H150059   4.643   6.373   4.370  1.3731 -0.1465  0.3533
 9548TIP3    H250060   4.681   6.233   4.326  1.1634 -0.5182  1.3229
 9549TIP3   OH250061   5.896   2.091  11.836 -0.0090 -0.1856 -0.6734
 9549TIP3    H150062   5.929   2.002  11.849 -1.8040 -1.3368 -3.1323
 9549TIP3    H250063   5.893   2.129  11.923  1.7434 -2.1850  0.3283
 9550TIP3   OH250064   1.817   2.630  13.447  0.3741 -0.2228  0.3471
 9550TIP3    H150065   1.793   2.689  13.518 -0.7207  2.1119 -1.7640
 9550TIP3    H250066   1.894   2.583  13.478 -0.8334 -0.3126  3.5047
 9551TIP3   OH250067   2.835   2.132   5.670 -0.7736 -0.1298 -0.1405
 9551TIP3    H150068   2.842   2.163   5.761  0.6191  0.4812 -0.4353
 9551TIP3    H250069   2.875   2.046   5.671 -1.5737 -0.5161 -0.0174
 9552TIP3   OH250070   0.210   0.204  10.806  0.6541  0.2737 -0.3238
 9552TIP3    H150071   0.283   0.143  10.803  0.9626  0.6100  0.1416
 9552TIP3    H250072   0.245   0.281  10.851 -0.3822 -0.1309  1.2913
 9553TIP3   OH250073   4.721   1.324   3.724 -0.2774 -0.1194  0.2541
 9553TIP3    H150074   4.801   1.338   3.674 -0.0911 -1.1754  0.2387
 9553TIP3    H250075   4.673   1.406   3.714 -0.2834 -0.2961 -1.7389
 9554TIP3   OH250076   2.797   5.072   4.493 -0.6319 -0.3136  0.2118
 9554TIP3    H150077   2.779   5.001   4.554  0.1183 -0.9329 -0.2698
 9554TIP3    H250078   2.755   5.149   4.532 -0.6984 -0.8314  1.1773
 9555TIP3   OH250079   1.989   1.934   2.434 -0.9027 -0.5284  0.7557
 9555TIP3    H150080   2.048   1.962   2.504  0.5433  0.3090 -0.7403
 9555TIP3    H250081   2.034   1.958   2.353 -2.8305 -0.8330 -0.4708
 9556TIP3   OH250082   6.223   0.090   5.001 -0.8395 -0.1603 -0.1436
 9556TIP3    H150083   6.310   0.054   4.983 -2.0570 -2.7678 -1.3547
 9556TIP3    H250084   6.206   0.149   4.928 -0.5421 -0.5406 -0.5252
 9557TIP3   OH250085   5.592   2.409   5.990  0.7187 -0.1914 -0.3767
 9557TIP3    H150086   5.503   2.408   5.957  0.4869  2.1256 -0.0185
 9557TIP3    H250087   5.612   2.318   6.010 -1.0034 -0.9501 -1.8819
 9558TIP3   OH250088   6.326   3.177   3.790  0.0423  0.2840 -0.0545
 9558TIP3    H150089   6.302   3.242   3.855  0.4169 -0.9424  1.3621
 9558TIP3    H250090   6.256   3.179   3.725 -0.9189  0.7357  0.9885
 9559TIP3   OH250091   0.255   2.567  13.069 -0.2962 -0.4198  0.2221
 9559TIP3    H150092   0.334   2.594  13.022 -1.8823 -0.3159 -2.6089
 9559TIP3    H250093   0.213   2.649  13.095  0.0816 -0.4546  0.9551
 9560TIP3   OH250094   1.528   4.890  11.393 -0.1730  0.5854 -0.0311
 9560TIP3    H150095   1.617   4.907  11.425  0.2267  0.3542 -0.9879
 9560TIP3    H250096   1.497   4.975  11.362  0.8229  0.1951 -2.3464
 9561TIP3   OH250097   1.342   0.946  15.236 -0.1142  0.2920 -0.0352
 9561TIP3    H150098   1.324   0.897  15.156  0.5945  0.4793 -0.3217
 9561TIP3    H250099   1.309   0.891  15.306  0.3419 -0.4387 -0.3812
 9562TIP3   OH250100   2.401   5.863  16.942  0.6671 -0.0225  0.2708
 9562TIP3    H150101   2.415   5.954  16.968  1.0429 -0.2950  1.0874
 9562TIP3    H250102   2.416   5.862  16.848  2.0716  0.5095  0.4586
 9563TIP3   OH250103   4.927   3.517   1.830  0.0060 -0.3576  0.2358
 9563TIP3    H150104   5.014   3.514   1.790 -0.1271  0.7072 -0.1791
 9563TIP3    H250105   4.867   3.505   1.757 -0.2034 -1.7501  0.6141
 9564TIP3   OH250106   6.707   3.997  14.734  0.5876  0.5182 -0.0959
 9564TIP3    H150107   6.683   3.929  14.797  1.5065 -0.9977 -1.3343
 9564TIP3    H250108   6.704   4.078  14.785 -1.4279 -0.2899  1.1969
 9565TIP3   OH250109   6.638   4.030  16.872 -0.0370  0.0411  0.5049
 9565TIP3    H150110   6.618   4.119  16.842  1.4919  0.2798  0.1233
 9565TIP3    H250111   6.730   4.017  16.849  0.2885 -0.9610  2.2214
 9566TIP3   OH250112   5.673   0.306  15.753 -0.0759  0.4824 -0.3701
 9566TIP3    H150113   5.730   0.229  15.752 -1.0659 -0.2641 -0.6794
 9566TIP3    H250114   5.631   0.305  15.667 -2.2667 -0.2911  0.6592
 9567TIP3   OH250115   1.817   1.480  12.087  0.4749 -0.0354  0.4925
 9567TIP3    H150116   1.825   1.552  12.149  1.2519 -0.2724  0.6858
 9567TIP3    H250117   1.806   1.402  12.142  0.3434 -0.1480  0.3087
 9568TIP3   OH250118   2.932   3.999   1.520  0.6609  0.3802 -0.1715
 9568TIP3    H150119   2.875   4.041   1.455 -0.3886  0.1697  0.5846
 9568TIP3    H250120   2.872   3.954   1.579  1.6296  0.0531  0.5931
 9569TIP3   OH250121   6.728   5.886   4.576  0.7320 -0.4292  0.7107
 9569TIP3    H150122   6.804   5.882   4.519  0.9257 -0.7069  0.9888
 9569TIP3    H250123   6.718   5.980   4.595 -0.2414 -0.1408 -0.9762
 9570TIP3   OH250124   1.326   0.336   5.192  0.0848 -0.4069 -0.0006
 9570TIP3    H150125   1.419   0.319   5.180  0.5845  0.6141  1.9663
 9570TIP3    H250126   1.283   0.257   5.158  1.6755 -1.0898 -0.5325
 9571TIP3   OH250127   1.494   5.538  12.796 -0.2105 -0.1952  0.3759
 9571TIP3    H150128   1.443   5.472  12.844 -1.4151 -2.4796 -3.5724
 9571TIP3    H250129   1.584   5.506  12.800 -0.5145 -1.1415  0.0448
 9572TIP3   OH250130   5.108   4.981  16.954  0.1618  0.0646  0.0810
 9572TIP3    H150131   5.115   4.926  16.876  1.3624  1.4466 -0.8394
 9572TIP3    H250132   5.085   5.068  16.921 -0.8709  0.3375  1.4210
 9573TIP3   OH250133   0.570   4.562  13.770  0.2755  0.1513 -0.2213
 9573TIP3    H150134   0.532   4.475  13.784  1.4538 -0.5029 -0.8934
 9573TIP3    H250135   0.565   4.575  13.675 -1.9489  1.8320  0.0437
 9574TIP3   OH250136   6.589   2.777  11.470  0.7681  0.2793  0.2468
 9574TIP3    H150137   6.642   2.732  11.404  1.2083 -0.1564  0.8868
 9574TIP3    H250138   6.516   2.814  11.420  2.2977  1.9915 -0.8894
 9575TIP3   OH250139   5.493   3.924  14.144  0.2119 -0.4360  0.0996
 9575TIP3    H150140   5.525   3.834  14.137  1.0107 -0.0735 -1.2303
 9575TIP3    H250141   5.551   3.974  14.087 -0.9231  0.7426 -0.0577
 9576TIP3   OH250142   0.567   2.852   2.090 -0.2057  0.1051 -0.2117
 9576TIP3    H150143   0.621   2.802   2.151  1.0180  1.1120 -0.4029
 9576TIP3    H250144   0.588   2.944   2.110 -1.4300  0.5099 -0.6965
 9577TIP3   OH250145   5.515   6.701  15.304 -0.2588 -0.4463  0.2497
 9577TIP3    H150146   5.570   6.750  15.242 -1.4873  0.3533 -0.2493
 9577TIP3    H250147   5.493   6.620  15.257 -0.2909 -0.3318  0.0627
 9578TIP3   OH250148   1.953   1.717   5.429 -0.4173  0.2486  0.3608
 9578TIP3    H150149   2.029   1.760   5.468  0.9287 -1.7080  0.0695
 9578TIP3    H250150   1.960   1.735   5.335 -2.2531  2.8536  0.6344
 9579TIP3   OH250151   3.934   3.424   0.065 -0.3636  0.1255 -0.0231
 9579TIP3    H150152   3.999   3.451  -0.001 -0.1111  0.0724  0.2019
 9579TIP3    H250153   3.987   3.398   0.140 -0.4850 -2.7456 -0.8142
 9580TIP3   OH250154   2.703   5.517  14.484 -0.1205 -0.2910 -0.1673
 9580TIP3    H150155   2.634   5.583  14.486  0.8867  0.7777  0.5538
 9580TIP3    H250156   2.726   5.510  14.391 -1.1080 -0.5801 -0.4002
 9581TIP3   OH250157   0.259   1.892   5.741 -0.1662  1.1714  0.0936
 9581TIP3    H150158   0.350   1.878   5.716  0.2170 -1.2522  2.3192
 9581TIP3    H250159   0.217   1.928   5.663  2.3860  1.0471 -1.4328
 9582TIP3   OH250160   6.334   4.926   3.381  0.0735 -0.5347  0.4503
 9582TIP3    H150161   6.296   4.942   3.468 -1.0008  2.3717 -0.4200
 9582TIP3    H250162   6.321   4.833   3.366 -3.0802 -0.4623  1.9374
 9583TIP3   OH250163   0.176   5.833   1.036  0.4539 -0.5976  0.6712
 9583TIP3    H150164   0.122   5.769   0.989  1.1452 -1.3626  0.8849
 9583TIP3    H250165   0.122   5.912   1.040  0.4116 -0.4618 -1.4878
 9584TIP3   OH250166   1.480   4.135   1.350 -0.1232 -0.0342  0.7055
 9584TIP3    H150167   1.556   4.086   1.317 -1.3259 -2.6395  1.5726
 9584TIP3    H250168   1.420   4.139   1.276 -0.2326 -0.3065  0.7804
 9585TIP3   OH250169   5.707   5.385   1.549  0.6999 -0.1231 -0.4031
 9585TIP3    H150170   5.722   5.471   1.508 -1.6900  0.9046  0.6634
 9585TIP3    H250171   5.712   5.403   1.643  1.1590 -1.3914 -0.1714
 9586TIP3   OH250172   4.879   3.696  17.278  0.7329 -0.1999  0.3183
 9586TIP3    H150173   4.908   3.787  17.287  0.7802 -0.0655 -0.9759
 9586TIP3    H250174   4.913   3.652  17.356 -1.2139  1.3504  2.1429
 9587TIP3   OH250175   1.604   3.514   6.131  0.0897  0.1410 -0.0982
 9587TIP3    H150176   1.607   3.468   6.215  0.0412  0.7135  0.2259
 9587TIP3    H250177   1.693   3.546   6.118 -0.2649  1.5439  0.6084
 9588TIP3   OH250178   2.235   1.640   3.430  0.2035 -0.1097 -0.0729
 9588TIP3    H150179   2.313   1.685   3.396  0.2449 -0.6837 -0.7502
 9588TIP3    H250180   2.162   1.680   3.383 -0.1253  1.6681  1.8052
 9589TIP3   OH250181   2.034   1.498  15.322  0.1305  0.4646 -0.0613
 9589TIP3    H150182   1.994   1.445  15.253 -1.4414  0.1355  1.0757
 9589TIP3    H250183   2.064   1.435  15.387  0.0614  0.8715  0.3685
 9590TIP3   OH250184   1.577   6.047   3.555  0.1331  0.0423 -0.5834
 9590TIP3    H150185   1.512   6.108   3.522  0.4682 -0.0877 -1.5090
 9590TIP3    H250186   1.642   6.040   3.485  1.0655  0.0447  0.2407
 9591TIP3   OH250187   0.385   1.761   3.100  0.0605  0.1287  0.6928
 9591TIP3    H150188   0.308   1.817   3.107 -1.5039 -1.8915  0.6389
 9591TIP3    H250189   0.459   1.818   3.124 -1.3868  2.1914  0.5191
 9592TIP3   OH250190   2.600   5.024  14.110 -0.5642 -0.7738 -0.0533
 9592TIP3    H150191   2.595   4.994  14.201  0.5254 -1.6735 -0.2608
 9592TIP3    H250192   2.640   4.950  14.063 -1.2373 -0.3788 -1.2904
 9593TIP3   OH250193   0.634   4.443  17.360 -0.0517  0.1598 -0.0598
 9593TIP3    H150194   0.585   4.489  17.428  2.3250  0.7493  1.3867
 9593TIP3    H250195   0.670   4.513  17.306 -0.2970 -0.2270 -0.7276
 9594TIP3   OH250196   2.545   1.958   5.364  0.4379 -0.2431 -0.0148
 9594TIP3    H150197   2.562   1.875   5.321 -0.4879 -0.1735 -0.5399
 9594TIP3    H250198   2.488   2.006   5.304  1.2245  0.9153  0.1264
 9595TIP3   OH250199   3.078   2.681  12.496 -0.0550 -0.3835  0.0683
 9595TIP3    H150200   3.104   2.643  12.580 -0.9972 -0.0285  0.5373
 9595TIP3    H250201   3.036   2.609  12.449 -1.8901  0.0371  0.9805
 9596TIP3   OH250202   5.139   1.549   5.590  0.6281  0.2056  0.0860
 9596TIP3    H150203   5.200   1.506   5.530  0.7864  1.3211 -0.5795
 9596TIP3    H250204   5.161   1.513   5.676  0.9474 -0.8132 -0.4080
 9597TIP3   OH250205   3.031   2.501  11.457 -0.9499 -0.2380  0.1840
 9597TIP3    H150206   3.079   2.580  11.480 -0.2030 -0.0638 -1.7281
 9597TIP3    H250207   2.968   2.529  11.390 -2.2928 -0.8546  1.1417
 9598TIP3   OH250208   0.802   0.183  16.521  0.1032  0.4048  0.3950
 9598TIP3    H150209   0.820   0.207  16.612 -0.2187 -0.3092  0.6617
 9598TIP3    H250210   0.794   0.087  16.524 -0.8318  0.4597 -0.2161
 9599TIP3   OH250211   2.623   5.193   3.731  0.6658 -0.3272 -0.0161
 9599TIP3    H150212   2.614   5.216   3.824 -0.3124 -0.5543 -0.0388
 9599TIP3    H250213   2.553   5.130   3.716  1.3914 -0.9922 -0.6961
 9600TIP3   OH250214   0.525   0.809   1.633  0.4054  0.3825 -0.7763
 9600TIP3    H150215   0.528   0.796   1.727  1.8679 -0.5682 -0.9134
 9600TIP3    H250216   0.599   0.758   1.599 -1.1982 -0.8876 -2.6249
 9601TIP3   OH250217   4.043   2.719  12.775 -0.8754  0.6844 -0.1154
 9601TIP3    H150218   4.020   2.645  12.719  1.0800  1.1010 -1.5758
 9601TIP3    H250219   4.101   2.773  12.722  0.6296  1.4283  2.1204
 9602TIP3   OH250220   3.046   6.066   0.179 -0.4040 -0.3816  0.2013
 9602TIP3    H150221   3.093   6.084   0.260 -2.8063  1.0949  1.3934
 9602TIP3    H250222   3.071   5.976   0.156  3.0108  0.3407  0.5755
 9603TIP3   OH250223   5.633   0.081  15.099 -0.0719 -0.4851  0.8950
 9603TIP3    H150224   5.679   0.075  15.015 -3.1542 -1.7835 -0.9101
 9603TIP3    H250225   5.605   0.173  15.104  1.9090  0.1199  1.6315
 9604TIP3   OH250226   2.922   2.134  14.562 -0.2504 -0.5124 -0.3944
 9604TIP3    H150227   3.007   2.121  14.604  0.2212 -0.3797 -1.2831
 9604TIP3    H250228   2.925   2.078  14.484 -0.8083 -0.1861 -0.6568
 9605TIP3   OH250229   0.745   4.076   6.440 -0.3260 -0.3955  0.3716
 9605TIP3    H150230   0.650   4.072   6.444 -0.3632  0.9943  1.9419
 9605TIP3    H250231   0.766   4.168   6.456  1.2402 -0.3586 -1.5018
 9606TIP3   OH250232   6.411   0.897  15.008 -0.6448  0.7521 -0.2851
 9606TIP3    H150233   6.416   0.926  15.099  0.6113 -2.5058  0.8348
 9606TIP3    H250234   6.321   0.865  14.998 -0.2748 -0.6378  0.4994
 9607TIP3   OH250235   6.040   5.135   1.690  0.4971 -0.2797 -0.0211
 9607TIP3    H150236   5.979   5.154   1.619  1.1471  0.5627 -0.3700
 9607TIP3    H250237   6.011   5.192   1.762 -0.1773 -1.1508  0.4270
 9608TIP3   OH250238   1.161   0.201  11.738 -0.2199 -0.2495 -0.5823
 9608TIP3    H150239   1.255   0.218  11.744 -0.2686 -0.0658 -0.3219
 9608TIP3    H250240   1.150   0.115  11.780 -0.2739  0.0896  0.1104
 9609TIP3   OH250241   4.249   4.220  14.937  0.2398 -0.3012  0.4348
 9609TIP3    H150242   4.160   4.193  14.916  0.0445  1.0962 -0.6778
 9609TIP3    H250243   4.272   4.170  15.015 -0.9121 -1.8730 -0.1941
 9610TIP3   OH250244   5.894   0.095   2.451 -0.1408 -0.2658 -0.1822
 9610TIP3    H150245   5.800   0.095   2.469  0.1355 -2.2391  1.5828
 9610TIP3    H250246   5.900   0.089   2.356 -1.7807  0.5627 -0.3693
 9611TIP3   OH250247   4.007   3.696  11.341 -0.5689 -0.0991 -0.2833
 9611TIP3    H150248   4.005   3.610  11.298 -0.7244 -0.0345 -0.4018
 9611TIP3    H250249   3.939   3.747  11.298 -1.2131 -0.2588  0.5062
 9612TIP3   OH250250   0.258   5.030   2.344 -0.3364 -0.1181 -0.1013
 9612TIP3    H150251   0.237   5.025   2.437  1.1011  0.7911  0.3057
 9612TIP3    H250252   0.233   5.119   2.319 -0.6172 -0.3237 -0.5607
 9613TIP3   OH250253   2.841   4.942   2.865  0.2337  0.2746 -0.2952
 9613TIP3    H150254   2.788   5.019   2.843  0.4251  0.4215 -0.2454
 9613TIP3    H250255   2.781   4.885   2.913  0.1045  0.4146 -0.2874
 9614TIP3   OH250256   0.096   0.090   2.805 -0.1957 -0.3811 -0.0243
 9614TIP3    H150257   0.157   0.106   2.877 -1.8011 -0.7551  1.5096
 9614TIP3    H250258   0.104  -0.004   2.788 -1.2396 -0.7158  1.1208
 9615TIP3   OH250259   3.757   4.272   5.676 -0.2749 -0.4091  0.0884
 9615TIP3    H150260   3.815   4.202   5.705  0.2605 -0.1914 -0.4382
 9615TIP3    H250261   3.765   4.273   5.580 -0.1983  0.4316  0.0917
 9616TIP3   OH250262   5.288   5.976   3.720  0.3784  0.4653 -0.5389
 9616TIP3    H150263   5.248   5.946   3.802  0.4337  1.7840 -0.0057
 9616TIP3    H250264   5.357   5.912   3.702 -0.2176 -0.3364 -0.0359
 9617TIP3   OH250265   6.182   0.000   1.276  0.2179  0.1918  0.0834
 9617TIP3    H150266   6.176   0.095   1.266  1.4767  0.3069  0.2525
 9617TIP3    H250267   6.092  -0.027   1.295 -0.0420  1.4498  0.8478
 9618TIP3   OH250268   4.865   5.730   1.515 -0.6051  0.1645  0.0854
 9618TIP3    H150269   4.911   5.650   1.540 -0.5326  0.6071  1.4448
 9618TIP3    H250270   4.835   5.767   1.598 -1.1719  1.2316 -0.5777
 9619TIP3   OH250271   4.736   4.145   5.521  0.1493 -0.2759  0.4263
 9619TIP3    H150272   4.822   4.162   5.481  0.2397 -2.2141 -0.3035
 9619TIP3    H250273   4.724   4.217   5.583  2.1258  0.2652  0.2598
 9620TIP3   OH250274   0.914   2.641  16.969 -0.2478  0.3016  0.4234
 9620TIP3    H150275   0.849   2.632  16.899 -0.1284 -0.6922  0.4179
 9620TIP3    H250276   0.863   2.659  17.047 -0.8989 -3.3882  1.0242
 9621TIP3   OH250277   4.693   2.914  13.086 -0.2141 -0.0640  0.1505
 9621TIP3    H150278   4.657   2.964  13.160  0.7182  1.2701 -0.2720
 9621TIP3    H250279   4.773   2.874  13.121  0.2110  0.5436 -0.1172
 9622TIP3   OH250280   1.682   2.005  12.916 -0.1727 -0.1434  0.2471
 9622TIP3    H150281   1.621   2.041  12.980 -1.2522  0.8508 -1.2796
 9622TIP3    H250282   1.641   2.022  12.831  1.5810 -0.7061 -0.7672
 9623TIP3   OH250283   5.158   2.993  11.669  0.1650 -0.2668 -0.4069
 9623TIP3    H150284   5.164   3.055  11.596 -0.7486  0.9346  0.5084
 9623TIP3    H250285   5.201   3.037  11.742 -3.5196  0.9302  1.2818
 9624TIP3   OH250286   0.743   3.557  11.242 -0.4074  0.6702 -0.3267
 9624TIP3    H150287   0.686   3.633  11.256 -3.6708 -1.4591 -1.0309
 9624TIP3    H250288   0.714   3.493  11.307  0.3620 -0.9440 -1.5046
 9625TIP3   OH250289   1.639   2.999   2.349 -0.1528  0.0559  0.1657
 9625TIP3    H150290   1.563   3.044   2.314  0.3632  2.1046  1.4938
 9625TIP3    H250291   1.603   2.939   2.415 -0.7511 -0.6743 -0.7954
 9626TIP3   OH250292   6.029   4.626   4.743  0.5497  0.0759 -0.5184
 9626TIP3    H150293   5.982   4.626   4.826  0.2195 -0.7161 -0.7025
 9626TIP3    H250294   6.040   4.719   4.722  0.2193  0.2754  0.1724
 9627TIP3   OH250295   2.037   5.050  16.210 -0.3860  0.4485 -0.3024
 9627TIP3    H150296   1.984   5.038  16.131 -0.8023 -1.8582  0.2594
 9627TIP3    H250297   1.976   5.034  16.282  0.5143  0.2223  0.4281
 9628TIP3   OH250298   5.463   4.002   2.190  0.1128  0.2066 -0.6520
 9628TIP3    H150299   5.460   3.916   2.232 -0.1291  0.6220  0.2117
 9628TIP3    H250300   5.545   4.041   2.220 -0.2514  0.6653 -0.2399
 9629TIP3   OH250301   3.165   4.024   6.733 -0.3343 -0.2099  0.5776
 9629TIP3    H150302   3.172   3.930   6.746  0.5892 -0.5863 -2.0009
 9629TIP3    H250303   3.184   4.062   6.818 -0.8391 -2.3429  1.7030
 9630TIP3   OH250304   5.120   2.239   3.898  0.1205 -0.6458  0.8605
 9630TIP3    H150305   5.080   2.243   3.985  1.7452 -1.7160  1.7047
 9630TIP3    H250306   5.110   2.148   3.872 -0.3730 -0.3233 -0.1058
 9631TIP3   OH250307   1.841   3.502   0.241  0.3717 -1.0934  0.1511
 9631TIP3    H150308   1.852   3.522   0.148 -0.2533  0.3121  0.3480
 9631TIP3    H250309   1.843   3.588   0.283  2.5369 -1.7990  1.6740
 9632TIP3   OH250310   4.678   3.858  16.106  0.5114  0.0108  0.1655
 9632TIP3    H150311   4.701   3.825  16.193  0.6158 -1.0532 -0.2511
 9632TIP3    H250312   4.660   3.951  16.120 -1.1765 -0.4750  1.6595
 9633TIP3   OH250313   6.660   4.570  11.162  0.9189  0.2649  0.3081
 9633TIP3    H150314   6.609   4.648  11.143 -2.0839 -1.3467  1.1026
 9633TIP3    H250315   6.693   4.541  11.076 -1.4556  0.1771 -0.6474
 9634TIP3   OH250316   1.182   3.828   4.046 -0.0231 -0.0707  0.3055
 9634TIP3    H150317   1.181   3.826   4.142  0.2313  2.1468  0.4125
 9634TIP3    H250318   1.120   3.760   4.020  0.6425 -1.4011  1.9982
 9635TIP3   OH250319   3.719   0.792   2.063  0.4532  0.4760  0.4413
 9635TIP3    H150320   3.722   0.794   1.967  0.3078  0.3886  0.4339
 9635TIP3    H250321   3.643   0.846   2.085 -0.0667 -0.2543  0.4691
 9636TIP3   OH250322   1.595   4.825   4.714  0.1938 -0.1652 -0.1491
 9636TIP3    H150323   1.574   4.736   4.686  0.5685 -0.1492 -0.4914
 9636TIP3    H250324   1.587   4.823   4.809  0.2668 -0.5840 -0.1508
 9637TIP3   OH250325   1.893   0.430   3.422 -0.1305 -0.1023  0.1311
 9637TIP3    H150326   1.839   0.371   3.369  0.7026  1.1387 -2.2121
 9637TIP3    H250327   1.967   0.375   3.450 -0.8063 -0.8896  0.4224
 9638TIP3   OH250328   5.732   2.869  13.621  0.6180  0.5333 -0.8228
 9638TIP3    H150329   5.637   2.862  13.609  0.7357  1.1968 -2.2926
 9638TIP3    H250330   5.765   2.781  13.602  0.4232  0.6326 -1.6331
 9639TIP3   OH250331   4.678   4.263   0.480  0.5613 -0.2491  0.0347
 9639TIP3    H150332   4.717   4.235   0.396  0.0251  0.8788 -0.6009
 9639TIP3    H250333   4.745   4.319   0.519 -0.0744  1.0257 -0.6786
 9640TIP3   OH250334   5.748   3.265   2.121 -0.0569  0.9499  0.6898
 9640TIP3    H150335   5.777   3.273   2.212  0.1886 -0.9535  0.8371
 9640TIP3    H250336   5.660   3.227   2.128  0.5546 -0.6663  0.1579
 9641TIP3   OH250337   2.873   3.453   4.288 -0.2181 -0.1323  0.4977
 9641TIP3    H150338   2.888   3.365   4.324 -1.4131 -0.1593  0.9646
 9641TIP3    H250339   2.849   3.506   4.363  1.8437  0.9595  0.4404
 9642TIP3   OH250340   5.944   3.878   1.410  0.5113  0.0610  0.8401
 9642TIP3    H150341   5.984   3.852   1.327  0.8441  0.4043  0.8916
 9642TIP3    H250342   5.970   3.810   1.472  1.7702  0.7349  1.0853
 9643TIP3   OH250343   6.034   4.712   1.829  0.3030 -0.7734 -0.5342
 9643TIP3    H150344   6.071   4.637   1.782  1.2077  1.0981 -3.0036
 9643TIP3    H250345   6.105   4.741   1.887  1.5414  0.6064 -2.6241
 9644TIP3   OH250346   6.141   0.191   2.992  0.3944 -0.2778 -0.0117
 9644TIP3    H150347   6.188   0.118   3.034 -2.8857 -1.5429  1.8083
 9644TIP3    H250348   6.073   0.148   2.940  0.4350  1.4786 -1.6079
 9645TIP3   OH250349   2.515   0.803  15.192 -0.5166  0.0203  0.6396
 9645TIP3    H150350   2.585   0.761  15.242 -1.9924  0.6493  3.4081
 9645TIP3    H250351   2.500   0.886  15.237 -0.1140  2.0290 -2.5545
 9646TIP3   OH250352   0.640   0.050   4.175 -0.2379 -0.1771  0.4507
 9646TIP3    H150353   0.615  -0.041   4.163  0.7181 -0.6615  1.7903
 9646TIP3    H250354   0.606   0.073   4.262  0.6330  0.3112  0.6790
 9647TIP3   OH250355   1.831   5.318  14.018  0.3076  0.0415  0.5741
 9647TIP3    H150356   1.754   5.331  13.962  0.9647  0.9676 -0.1445
 9647TIP3    H250357   1.810   5.241  14.071 -1.8967  1.3256  1.7176
 9648TIP3   OH250358   6.638   4.730   4.873  0.3264  0.3981  0.3022
 9648TIP3    H150359   6.681   4.807   4.910  0.5824 -0.3500  1.6567
 9648TIP3    H250360   6.687   4.711   4.793  0.8926  1.0642  0.4785
 9649TIP3   OH250361   1.534   4.629  13.587 -0.2593  0.1626 -0.5143
 9649TIP3    H150362   1.457   4.621  13.531 -1.0647 -0.3500  0.6337
 9649TIP3    H250363   1.506   4.686  13.658  1.0060  1.4801 -1.0304
 9650TIP3   OH250364   0.716   2.978  13.980 -0.1800  0.1702  0.1406
 9650TIP3    H150365   0.801   3.011  14.007  0.0113  0.1748 -0.4637
 9650TIP3    H250366   0.672   3.054  13.942  0.0531 -0.1448 -0.7571
 9651TIP3   OH250367   0.526   5.878  16.923  0.1938  0.2052 -0.6608
 9651TIP3    H150368   0.545   5.972  16.915  1.2090  0.0958  0.2467
 9651TIP3    H250369   0.462   5.861  16.853  0.9354  1.3067 -1.6604
 9652TIP3   OH250370   4.974   3.215  16.446 -0.1828 -0.6728  0.0743
 9652TIP3    H150371   4.892   3.211  16.496  1.0017 -2.9161  2.0050
 9652TIP3    H250372   4.946   3.239  16.357 -2.7430  0.0720  0.9745
 9653TIP3   OH250373   2.976   2.780  16.675  0.2827  0.5056  0.2750
 9653TIP3    H150374   2.958   2.779  16.581 -0.5203 -0.6395  0.4238
 9653TIP3    H250375   2.929   2.857  16.707  0.5095  0.8682 -0.2378
 9654TIP3   OH250376   0.185   4.925  13.562  1.0801  0.0611  0.0889
 9654TIP3    H150377   0.162   5.010  13.524  1.0979 -0.0172 -0.0991
 9654TIP3    H250378   0.121   4.864  13.525  0.9252  0.0328  0.4008
 9655TIP3   OH250379   6.738   2.902  16.308 -0.6334  0.1783 -0.2585
 9655TIP3    H150380   6.681   2.968  16.347 -1.4907  0.4934 -1.9545
 9655TIP3    H250381   6.700   2.885  16.222 -1.4168 -3.7500  0.6863
 9656TIP3   OH250382   2.589   3.967  17.313  0.0680  0.3405  0.2090
 9656TIP3    H150383   2.503   3.958  17.271 -0.1836  0.9858  0.5696
 9656TIP3    H250384   2.635   4.033  17.261 -0.1153  0.8865  0.7236
 9657TIP3   OH250385   2.689   2.514   0.425 -0.0599  0.5817  0.2517
 9657TIP3    H150386   2.744   2.531   0.348 -0.8618  2.4063  0.0133
 9657TIP3    H250387   2.599   2.515   0.391 -0.4561  1.8920  1.2420
 9658TIP3   OH250388   1.257   2.338  15.278  0.0469  0.1936 -0.5024
 9658TIP3    H150389   1.297   2.254  15.254  0.9622  0.1576  0.9890
 9658TIP3    H250390   1.235   2.379  15.195 -1.1020 -1.8365 -1.2556
 9659TIP3   OH250391   6.027   1.486   2.391  0.0679 -0.3270 -0.0176
 9659TIP3    H150392   6.072   1.411   2.431 -2.3218 -0.9884  1.6426
 9659TIP3    H250393   6.056   1.485   2.300  2.3794 -1.4277  0.6497
 9660TIP3   OH250394   0.965   6.082  12.417  0.6294  0.4974  0.0776
 9660TIP3    H150395   0.908   6.150  12.382 -1.1558 -1.4181 -0.9397
 9660TIP3    H250396   0.991   6.115  12.504  0.3192  2.6822 -0.6000
 9661TIP3   OH250397   3.540   6.644  11.731 -0.2783  0.2071  0.3104
 9661TIP3    H150398   3.547   6.739  11.734 -0.2619  0.2604  4.8285
 9661TIP3    H250399   3.447   6.626  11.721 -0.3074  0.6572 -0.2769
 9662TIP3   OH250400   4.168   0.346   5.671  0.0559 -0.4635 -0.3402
 9662TIP3    H150401   4.088   0.310   5.708 -0.5300  0.3060 -0.8249
 9662TIP3    H250402   4.228   0.354   5.746 -1.2092  1.3607  0.5601
 9663TIP3   OH250403   4.151   1.478   1.350 -0.0488 -0.5889  0.4067
 9663TIP3    H150404   4.242   1.490   1.376  1.0698 -1.7824 -2.6233
 9663TIP3    H250405   4.118   1.567   1.334 -0.0957  0.0071  3.2139
 9664TIP3   OH250406   1.997   4.373   2.936  0.1740 -0.0441  0.0087
 9664TIP3    H150407   2.065   4.439   2.928 -0.0072  0.3091  1.2203
 9664TIP3    H250408   2.007   4.338   3.025 -0.2890 -1.0157 -0.3080
 9665TIP3   OH250409   4.269   6.757   3.914 -0.2263  0.2954  0.0292
 9665TIP3    H150410   4.351   6.761   3.866  0.0702  1.4863  0.6038
 9665TIP3    H250411   4.294   6.768   4.006 -0.7723 -2.0102  0.5220
 9666TIP3   OH250412   5.083   0.083  16.666 -0.2199  0.2870 -0.0228
 9666TIP3    H150413   4.995   0.050  16.649 -0.5081  0.7234  0.5580
 9666TIP3    H250414   5.137   0.047  16.596 -1.0603  0.8610 -0.9797
 9667TIP3   OH250415   3.399   5.364   2.623 -0.3995  0.0379  0.6151
 9667TIP3    H150416   3.352   5.322   2.551 -1.6378  1.3704  0.5917
 9667TIP3    H250417   3.490   5.335   2.613 -0.4459  0.5032 -1.7347
 9668TIP3   OH250418   1.903   0.676   3.840 -0.0046  0.0262 -0.2084
 9668TIP3    H150419   1.951   0.705   3.762  1.9287  0.1514  0.9551
 9668TIP3    H250420   1.827   0.734   3.844  1.9756  2.8632  0.1923
 9669TIP3   OH250421   3.397   4.872  12.778  0.0528  0.0244  0.0551
 9669TIP3    H150422   3.477   4.860  12.829  0.2583 -0.4745 -0.3792
 9669TIP3    H250423   3.403   4.807  12.708  0.2961  1.3843 -1.2370
 9670TIP3   OH250424   6.228   0.817  11.502  0.5321  0.7106  0.1350
 9670TIP3    H150425   6.316   0.842  11.528  0.5231  0.7910  0.0886
 9670TIP3    H250426   6.172   0.844  11.575  0.2332  2.7492 -0.7650
 9671TIP3   OH250427   1.715   4.228  14.406 -0.0345 -0.0419 -0.2952
 9671TIP3    H150428   1.783   4.195  14.464 -0.2397  0.6258  0.3469
 9671TIP3    H250429   1.672   4.298  14.456 -1.9936 -1.2439 -0.1961
 9672TIP3   OH250430   3.407   2.797  13.524 -0.2006  0.1522  0.3131
 9672TIP3    H150431   3.358   2.753  13.593 -0.4506  1.2501  0.8740
 9672TIP3    H250432   3.498   2.774  13.539 -0.3894 -0.7014  0.1779
 9673TIP3   OH250433   4.889   2.104  13.119 -0.5961  0.2383 -0.6946
 9673TIP3    H150434   4.967   2.077  13.072 -0.1844 -0.9389  0.6006
 9673TIP3    H250435   4.816   2.066  13.070 -0.3116  0.5236 -1.3557
 9674TIP3   OH250436   5.844   5.215  13.962 -0.0389  0.8563  0.4765
 9674TIP3    H150437   5.842   5.273  13.886 -0.1188 -0.2714 -0.4025
 9674TIP3    H250438   5.755   5.217  13.996 -0.5850 -0.2949 -0.7773
 9675TIP3   OH250439   1.898   1.112  17.135  0.1468  0.2456  0.0640
 9675TIP3    H150440   1.856   1.083  17.054 -1.0864 -0.6952  0.9966
 9675TIP3    H250441   1.969   1.169  17.106 -0.8533  0.7089 -1.6470
 9676TIP3   OH250442   4.099   5.466   0.850  0.6627  0.2184 -0.4856
 9676TIP3    H150443   4.131   5.546   0.808 -1.2881  0.1034 -2.3528
 9676TIP3    H250444   4.004   5.475   0.851  0.4418 -1.7125  0.0553
 9677TIP3   OH250445   2.540   3.350  16.873 -0.5123  0.0431 -0.0935
 9677TIP3    H150446   2.557   3.411  16.801 -0.4135  0.6672  0.4530
 9677TIP3    H250447   2.509   3.270  16.830 -0.0481  0.2675 -0.8536
 9678TIP3   OH250448   3.603   0.683  17.274 -0.1588 -0.4645 -0.7711
 9678TIP3    H150449   3.690   0.677  17.313 -0.1669  0.0792 -0.6541
 9678TIP3    H250450   3.603   0.617  17.205  0.6836  0.1524 -1.3905
 9679TIP3   OH250451   4.600   5.086   5.571 -0.3744  0.2965 -0.1020
 9679TIP3    H150452   4.562   5.074   5.658  0.5380 -0.1215  0.2533
 9679TIP3    H250453   4.589   5.001   5.528 -0.0933  0.2525 -0.0916
 9680TIP3   OH250454   4.662   6.053   4.038  0.1303  0.4150  0.2088
 9680TIP3    H150455   4.619   6.005   3.967 -0.6178 -1.4895  1.8644
 9680TIP3    H250456   4.676   6.141   4.002 -3.0728  0.4788 -1.2147
 9681TIP3   OH250457   0.497   0.208  13.741  0.0666  0.1303  0.3708
 9681TIP3    H150458   0.470   0.163  13.661 -1.8091  0.2012  0.9304
 9681TIP3    H250459   0.543   0.286  13.710  1.1459 -0.8588 -0.6073
 9682TIP3   OH250460   2.772   1.108   3.084 -0.1522  0.5162 -0.0679
 9682TIP3    H150461   2.846   1.142   3.034  0.6306 -1.4237 -0.3365
 9682TIP3    H250462   2.741   1.033   3.033 -1.3194  0.3678  0.8113
 9683TIP3   OH250463   6.115   0.068   6.040 -0.0363  0.1460 -0.2578
 9683TIP3    H150464   6.116   0.085   6.134 -0.9812 -0.4227 -0.1295
 9683TIP3    H250465   6.050  -0.001   6.029  0.9576 -0.6764 -1.1920
 9684TIP3   OH250466   4.736   4.676  12.772  0.2948 -0.4646 -0.5103
 9684TIP3    H150467   4.791   4.611  12.816 -1.2074 -1.5109 -0.1008
 9684TIP3    H250468   4.732   4.646  12.681  2.2817  0.9462 -1.1467
 9685TIP3   OH250469   6.311   1.278  16.161 -0.4124 -0.1012  0.1110
 9685TIP3    H150470   6.347   1.209  16.218 -0.1963 -0.1579 -0.0938
 9685TIP3    H250471   6.280   1.345  16.222 -0.2138 -0.1773  0.2981
 9686TIP3   OH250472   3.937   4.489  17.383  0.4175  0.0269 -0.0498
 9686TIP3    H150473   3.903   4.458  17.467 -0.1436 -1.1643 -0.6869
 9686TIP3    H250474   4.008   4.429  17.363 -1.0817 -1.3289 -1.5995
 9687TIP3   OH250475   2.605   1.661   6.209 -0.2682 -0.1785  0.0613
 9687TIP3    H150476   2.599   1.675   6.303 -0.6953 -0.1272  0.0257
 9687TIP3    H250477   2.525   1.615   6.185 -0.3785  0.2178 -0.3516
 9688TIP3   OH250478   6.648   1.495   1.424  0.4431  0.2229  0.1167
 9688TIP3    H150479   6.598   1.473   1.346 -2.0013 -0.7060  1.8270
 9688TIP3    H250480   6.734   1.456   1.409 -1.1125 -3.3609 -0.5754
 9689TIP3   OH250481   0.059   6.385   1.792  0.1213  0.3665  0.4264
 9689TIP3    H150482   0.129   6.339   1.838 -0.9857  0.6879  2.5435
 9689TIP3    H250483   0.066   6.476   1.822 -1.2992  0.3615  0.8386
 9690TIP3   OH250484   6.570   5.700   5.110  0.3995  0.5039  0.4048
 9690TIP3    H150485   6.607   5.695   5.022  0.1784  0.4286  0.3168
 9690TIP3    H250486   6.615   5.631   5.159 -2.0175 -1.9414 -0.5869
 9691TIP3   OH250487   2.246   0.439   1.983  0.0567  0.8289  0.4293
 9691TIP3    H150488   2.166   0.478   1.948  0.3587 -0.0644 -1.4118
 9691TIP3    H250489   2.217   0.360   2.029 -0.0847 -0.1828 -1.3006
 9692TIP3   OH250490   5.441   1.062  15.319 -0.3188 -0.1948  0.1977
 9692TIP3    H150491   5.438   1.145  15.272  2.1156  0.0041  0.2821
 9692TIP3    H250492   5.367   1.012  15.284 -1.6266  1.8513 -0.0991
 9693TIP3   OH250493   6.090   2.962   4.351  0.0340  0.4431  0.2099
 9693TIP3    H150494   6.184   2.963   4.333 -0.0688  1.7351 -0.3374
 9693TIP3    H250495   6.051   2.922   4.273  0.2185 -1.4740  1.0531
 9694TIP3   OH250496   1.423   1.393   2.805  0.8516  0.3134 -0.4828
 9694TIP3    H150497   1.372   1.465   2.767 -0.5491 -0.4214 -0.0904
 9694TIP3    H250498   1.358   1.323   2.819  1.8581 -0.4317  0.6715
 9695TIP3   OH250499   6.350   3.438   6.196 -0.3151 -0.0356  0.2097
 9695TIP3    H150500   6.429   3.408   6.241  0.8468  0.2946 -1.4873
 9695TIP3    H250501   6.330   3.368   6.134  0.3612  1.0887 -1.3395
 9696TIP3   OH250502   1.816   4.832  13.209  0.3131 -0.8292 -0.3699
 9696TIP3    H150503   1.846   4.914  13.170 -1.2611 -0.6782 -1.3478
 9696TIP3    H250504   1.755   4.859  13.278 -0.9214 -1.1419 -1.2963
 9697TIP3   OH250505   3.780   0.289   1.172 -0.1741 -0.1270  0.7263
 9697TIP3    H150506   3.700   0.297   1.121 -0.0607 -1.0617  0.3819
 9697TIP3    H250507   3.791   0.374   1.213  0.1595  0.9437 -1.4422
 9698TIP3   OH250508   4.209   3.047   1.046 -0.0309 -0.0894 -0.1725
 9698TIP3    H150509   4.158   3.015   0.971  0.1061  0.6574 -0.6012
 9698TIP3    H250510   4.144   3.090   1.102 -0.0124  0.1048 -0.2953
 9699TIP3   OH250511   4.976   3.249   1.710 -0.4973 -0.2527 -0.1094
 9699TIP3    H150512   5.051   3.241   1.652  0.3996 -0.0645  0.9812
 9699TIP3    H250513   4.920   3.315   1.669  0.8436  1.0002 -0.0269
 9700TIP3   OH250514   6.298   3.149   0.993  0.2813  0.3702  1.0981
 9700TIP3    H150515   6.358   3.086   1.035  0.3655  1.5127  2.7483
 9700TIP3    H250516   6.335   3.235   1.014  0.8335  1.0385 -2.1020
 9701TIP3   OH250517   2.165   1.062  12.047 -0.1132 -0.2745  0.1802
 9701TIP3    H150518   2.162   1.147  12.092 -2.3166 -0.4142  0.3938
 9701TIP3    H250519   2.204   1.082  11.962 -1.4621  1.1628 -0.1505
 9702TIP3   OH250520   6.546   2.492   2.925  0.1815 -0.3418 -0.1490
 9702TIP3    H150521   6.594   2.536   2.855 -0.8646  1.2058  0.0517
 9702TIP3    H250522   6.601   2.503   3.002 -0.2773  1.1240  0.0081
 9703TIP3   OH250523   5.027   4.057  11.235 -0.0488 -0.0265  0.0053
 9703TIP3    H150524   4.984   3.980  11.198 -1.6046 -0.2073  2.0420
 9703TIP3    H250525   5.090   4.022  11.298  0.1544  0.3543  0.0174
 9704TIP3   OH250526   3.109   5.258   2.230  0.1168  0.3695  0.4843
 9704TIP3    H150527   3.046   5.192   2.203  1.5393 -0.4759 -0.9246
 9704TIP3    H250528   3.057   5.338   2.241 -1.1929 -0.3002 -0.5988
 9705TIP3   OH250529   1.711   0.112   4.780  0.4195  0.3277 -0.3440
 9705TIP3    H150530   1.756   0.029   4.764 -0.6584 -0.3897  0.2262
 9705TIP3    H250531   1.622   0.087   4.805 -0.1327  1.6858 -0.8505
 9706TIP3   OH250532   2.406   3.518  17.089  0.1685 -0.1008 -0.0258
 9706TIP3    H150533   2.451   3.527  17.005  0.7692 -0.2585  0.2746
 9706TIP3    H250534   2.358   3.435  17.082 -0.6013  0.3857 -0.5871
 9707TIP3   OH250535   6.591   3.759  11.531 -0.2407 -0.4084  0.0039
 9707TIP3    H150536   6.498   3.783  11.532 -0.5923 -1.5810 -1.3509
 9707TIP3    H250537   6.604   3.718  11.445  1.2786 -1.2370  0.5975
 9708TIP3   OH250538   1.325   3.326  16.883  0.2843  0.1782  0.1634
 9708TIP3    H150539   1.364   3.322  16.970  0.0958 -0.7308  0.2210
 9708TIP3    H250540   1.241   3.280  16.892  0.3219 -0.0407 -0.5161
 9709TIP3   OH250541   5.842   2.890  13.306  0.2337 -0.3760 -0.6287
 9709TIP3    H150542   5.808   2.955  13.368 -0.5616  0.0160 -1.4606
 9709TIP3    H250543   5.932   2.874  13.335  0.3419  0.8758 -0.2386
 9710TIP3   OH250544   3.975   0.660   6.698 -0.3432  0.7436  0.2615
 9710TIP3    H150545   3.948   0.568   6.694  0.6555  0.4477  0.2033
 9710TIP3    H250546   4.009   0.680   6.611 -1.9881  1.6412 -0.2221
 9711TIP3   OH250547   4.991   5.806  11.804 -0.2975 -0.5903  0.1155
 9711TIP3    H150548   4.991   5.901  11.805 -0.2747 -0.5586  2.6354
 9711TIP3    H250549   4.952   5.782  11.720  0.3041  1.6168 -0.8389
 9712TIP3   OH250550   5.883   5.395   4.845  0.0173  0.2486  0.6956
 9712TIP3    H150551   5.850   5.366   4.760 -1.2068  1.6879  0.6205
 9712TIP3    H250552   5.967   5.351   4.856  0.6206  0.7050 -1.6570
 9713TIP3   OH250553   2.474   3.070   5.962  0.5619  0.3271  0.0114
 9713TIP3    H150554   2.456   3.080   6.056  0.3466 -0.0559  0.0121
 9713TIP3    H250555   2.473   2.975   5.947 -1.2946  0.4213 -0.7422
 9714TIP3   OH250556   4.183   0.086   2.012 -0.7291  0.0480  0.2094
 9714TIP3    H150557   4.198  -0.007   1.997  0.9049  0.4687 -1.1015
 9714TIP3    H250558   4.119   0.111   1.944  1.1533  0.4464 -1.5266
 9715TIP3   OH250559   2.935   0.742   2.844  0.2334  0.0001 -1.1411
 9715TIP3    H150560   2.897   0.655   2.829  0.0618 -0.1213 -0.0252
 9715TIP3    H250561   2.972   0.765   2.759  1.2198 -1.6172 -1.1988
 9716TIP3   OH250562   3.255   0.273  16.412  0.7399 -0.1639 -0.1295
 9716TIP3    H150563   3.290   0.218  16.341  0.5022 -0.9500  0.3592
 9716TIP3    H250564   3.248   0.214  16.487  1.5489  0.7933  0.7365
 9717TIP3   OH250565   3.387   3.938  12.618 -0.0695 -0.0334 -0.1734
 9717TIP3    H150566   3.370   3.910  12.528 -0.7229  2.0683 -0.7658
 9717TIP3    H250567   3.482   3.944  12.624 -0.0239 -0.2381 -0.6939
 9718TIP3   OH250568   3.542   1.437  14.380 -0.2998 -0.1630  0.4193
 9718TIP3    H150569   3.539   1.486  14.298  2.3166  0.2758  0.5039
 9718TIP3    H250570   3.583   1.497  14.442 -0.0829 -1.3053  1.4167
 9719TIP3   OH250571   0.226   1.950  16.588 -0.0019  0.1639 -0.0954
 9719TIP3    H150572   0.172   1.932  16.665 -1.0141 -3.8102 -1.5169
 9719TIP3    H250573   0.315   1.928  16.616 -0.2950 -0.8261  0.0828
 9720TIP3   OH250574   1.410   2.469  16.253 -0.9019 -0.4126 -0.2485
 9720TIP3    H150575   1.403   2.401  16.321  0.0734  0.6204  0.9369
 9720TIP3    H250576   1.334   2.455  16.197 -1.4994 -1.5830  0.8028
 9721TIP3   OH250577   4.787   4.163  12.750  0.3507  0.3779  0.2587
 9721TIP3    H150578   4.781   4.254  12.778 -1.0193 -0.3348  2.5204
 9721TIP3    H250579   4.815   4.115  12.828  2.7809 -0.9839 -1.3287
 9722TIP3   OH250580   0.717   1.982   5.406 -0.6051 -0.1581 -0.1312
 9722TIP3    H150581   0.773   1.924   5.456  0.2424  0.2175 -0.6137
 9722TIP3    H250582   0.664   1.924   5.351 -0.9764 -0.5318  0.6191
 9723TIP3   OH250583   0.293   5.272  15.583 -0.6019  0.8537 -0.1163
 9723TIP3    H150584   0.252   5.354  15.610 -1.9264  0.6999 -1.4885
 9723TIP3    H250585   0.354   5.298  15.514 -3.4414  0.5016 -3.0328
 9724TIP3   OH250586   0.331   5.164  10.830 -0.3367 -0.2579 -0.3629
 9724TIP3    H150587   0.409   5.153  10.776 -0.7059 -2.3053 -0.5631
 9724TIP3    H250588   0.260   5.126  10.778 -0.8106 -1.7453  1.2549
 9725TIP3   OH250589   5.444   2.560   0.468 -0.4494  1.1756 -0.3183
 9725TIP3    H150590   5.485   2.645   0.485 -1.3301  2.5123 -3.7624
 9725TIP3    H250591   5.466   2.541   0.377 -3.3151 -0.4300 -0.8103
 9726TIP3   OH250592   4.421   5.821  12.798 -0.1288  0.7618  0.3377
 9726TIP3    H150593   4.362   5.806  12.872 -1.6851  1.3322 -0.7446
 9726TIP3    H250594   4.387   5.766  12.728  1.7502 -0.3321  0.2052
 9727TIP3   OH250595   4.758   0.421   3.150  0.3453 -0.3263  0.3764
 9727TIP3    H150596   4.748   0.441   3.243  0.6177 -0.9604  0.5518
 9727TIP3    H250597   4.700   0.482   3.105  0.3425  0.0990  0.9530
 9728TIP3   OH250598   2.368   5.553  14.282  0.1103  0.0721  0.2880
 9728TIP3    H150599   2.421   5.632  14.271  0.0470  0.3610  1.8341
 9728TIP3    H250600   2.372   5.534  14.376 -1.8530 -0.3686  0.3247
 9729TIP3   OH250601   5.163   0.697   5.535  0.4282 -0.1466 -0.1157
 9729TIP3    H150602   5.080   0.732   5.566 -0.1399 -0.5919 -1.0780
 9729TIP3    H250603   5.140   0.645   5.458  1.7502  0.7761 -1.1736
 9730TIP3   OH250604   6.070   5.095   0.513  0.3248 -0.1867 -0.1142
 9730TIP3    H150605   6.007   5.030   0.544 -1.3452  1.9507  1.2590
 9730TIP3    H250606   6.151   5.073   0.560 -0.2554 -1.1343  0.4917
 9731TIP3   OH250607   4.717   4.168  12.355  0.3902  0.5037  0.1600
 9731TIP3    H150608   4.790   4.123  12.312 -0.4869 -1.1341  0.3097
 9731TIP3    H250609   4.692   4.111  12.427 -0.9663  1.0758  0.1801
 9732TIP3   OH250610   6.485   4.223  17.347  0.2397  0.3512  0.0842
 9732TIP3    H150611   6.440   4.234  17.263  0.5463  1.3312  0.0344
 9732TIP3    H250612   6.489   4.312  17.383  2.5645  0.3828 -0.1293
 9733TIP3   OH250613   1.310   0.016   1.628  0.4835 -0.4437  0.2251
 9733TIP3    H150614   1.383  -0.002   1.687  0.6674 -0.5581 -0.0360
 9733TIP3    H250615   1.352   0.039   1.545  0.2093 -2.5483 -0.5377
 9734TIP3   OH250616   0.601   5.736   4.996 -0.3659 -0.0037  0.2940
 9734TIP3    H150617   0.598   5.790   5.075 -1.3888  0.6752 -0.1755
 9734TIP3    H250618   0.555   5.788   4.930  1.2458 -0.1547 -1.0122
 9735TIP3   OH250619   2.473   2.826  15.807 -0.4932  0.1570 -0.2848
 9735TIP3    H150620   2.557   2.804  15.768 -0.5706  0.6645 -0.7609
 9735TIP3    H250621   2.408   2.790  15.746 -0.6148 -0.2210  0.0739
 9736TIP3   OH250622   5.474   2.866  13.541  0.8749  0.5919 -0.1017
 9736TIP3    H150623   5.391   2.820  13.531  1.7092 -1.2383  0.8613
 9736TIP3    H250624   5.450   2.949  13.581 -0.3715 -0.8275  2.3835
 9737TIP3   OH250625   1.953   1.256   1.854 -0.2036  0.2195  0.0666
 9737TIP3    H150626   1.890   1.312   1.808 -0.7172  0.4516  1.0167
 9737TIP3    H250627   1.945   1.171   1.812  1.5764  1.1104 -2.3481
 9738TIP3   OH250628   5.075   0.102  16.945  0.3574 -0.1344  0.3701
 9738TIP3    H150629   5.079   0.086  16.851 -1.3817  1.1751  0.0223
 9738TIP3    H250630   4.993   0.060  16.973  1.1076 -0.9516  1.4228
 9739TIP3   OH250631   0.619   3.537  16.925 -0.2579 -0.0324 -0.1233
 9739TIP3    H150632   0.572   3.620  16.938 -1.5936 -0.8249  0.2396
 9739TIP3    H250633   0.694   3.561  16.869 -0.4456  1.4633  0.2151
 9740TIP3   OH250634   6.207   6.556   3.745  0.2545  0.3423 -0.2078
 9740TIP3    H150635   6.173   6.590   3.827 -1.2211 -2.5195  0.4888
 9740TIP3    H250636   6.228   6.634   3.694 -1.5758  2.2407  1.7265
 9741TIP3   OH250637   3.395   6.512  12.277  0.0145  0.6040  0.0717
 9741TIP3    H150638   3.439   6.588  12.314 -0.2992  1.3621 -1.0532
 9741TIP3    H250639   3.463   6.464  12.231  0.2445  0.1087  0.9195
 9742TIP3   OH250640   1.939   3.350   5.215  0.3335 -0.0666 -0.3237
 9742TIP3    H150641   1.946   3.288   5.142  1.6120  0.6204 -0.7968
 9742TIP3    H250642   1.847   3.378   5.214  0.3737  0.0641 -1.7722
 9743TIP3   OH250643   1.339   1.800  15.766  0.9005  0.4639 -0.0461
 9743TIP3    H150644   1.348   1.836  15.678  1.3511 -0.5838 -0.4367
 9743TIP3    H250645   1.429   1.778  15.792  0.7085  0.2889  0.4791
 9744TIP3   OH250646   1.282   4.424   2.108 -0.6057 -0.1386 -0.1677
 9744TIP3    H150647   1.267   4.398   2.018 -2.7998  0.3686  0.0016
 9744TIP3    H250648   1.371   4.461   2.108 -1.0998  1.2480 -2.4488
 9745TIP3   OH250649   4.174   6.694  11.551  0.2701  0.5578  0.4613
 9745TIP3    H150650   4.125   6.648  11.483 -0.2461  2.3939 -0.4598
 9745TIP3    H250651   4.246   6.634  11.573  1.0779  0.3157 -2.4623
 9746TIP3   OH250652   2.152   5.182   6.260  0.0926 -0.1352 -0.5763
 9746TIP3    H150653   2.197   5.214   6.181  1.1765 -0.8287 -0.2644
 9746TIP3    H250654   2.061   5.207   6.248  0.6439  1.8008 -0.9968
 9747TIP3   OH250655   2.585   0.895   1.288 -0.0273  0.1766 -0.5331
 9747TIP3    H150656   2.555   0.897   1.379 -0.9599  0.4876 -0.8390
 9747TIP3    H250657   2.624   0.981   1.274 -1.0937  0.6295 -0.8139
 9748TIP3   OH250658   3.279   1.379  15.948  0.5094  0.1320 -0.3216
 9748TIP3    H150659   3.310   1.327  15.874  1.6917  1.2312 -0.6202
 9748TIP3    H250660   3.209   1.326  15.986  0.7873 -1.0664 -1.4065
 9749TIP3   OH250661   3.680   6.641  14.004  0.0749 -0.4532 -0.7700
 9749TIP3    H150662   3.627   6.592  13.940  0.4087  1.3482 -2.5470
 9749TIP3    H250663   3.711   6.575  14.065 -1.6319 -2.0376 -1.5131
 9750TIP3   OH250664   2.327   2.085   3.400 -0.0508 -0.5666 -0.1614
 9750TIP3    H150665   2.299   2.033   3.325  0.3870 -0.3084 -0.5117
 9750TIP3    H250666   2.345   2.172   3.363  0.3094 -0.4782  0.2151
 9751TIP3   OH250667   2.469   0.320   3.163  0.5050  0.1769  0.2931
 9751TIP3    H150668   2.507   0.309   3.076  0.9018  0.3371  0.4470
 9751TIP3    H250669   2.418   0.240   3.177 -2.3266  1.5158 -1.4663
 9752TIP3   OH250670   2.313   5.899  15.494  0.5007 -0.4182 -0.0986
 9752TIP3    H150671   2.259   5.973  15.467  0.6476 -0.0031  0.7194
 9752TIP3    H250672   2.335   5.853  15.413  0.9848  0.8362 -0.6918
 9753TIP3   OH250673   4.173   0.559  14.949  0.4376 -0.2476 -0.2807
 9753TIP3    H150674   4.096   0.596  14.993 -0.1422 -0.3543 -1.1709
 9753TIP3    H250675   4.213   0.634  14.904 -0.0616 -0.4723 -1.1152
 9754TIP3   OH250676   6.551   3.009   1.087  0.5375 -0.3739  0.6785
 9754TIP3    H150677   6.585   2.929   1.127  0.3396  0.2409  2.1315
 9754TIP3    H250678   6.557   3.075   1.156 -0.7334  0.4952  0.0042
 9755TIP3   OH250679   3.489   2.114  13.561  0.0255 -0.5664 -0.1027
 9755TIP3    H150680   3.509   2.072  13.477 -1.6158  1.6482 -1.7505
 9755TIP3    H250681   3.556   2.183  13.569 -1.5386  1.2062 -1.2525
 9756TIP3   OH250682   6.233   5.887  11.638  0.2240 -0.0441 -0.6696
 9756TIP3    H150683   6.199   5.964  11.592 -0.5996  0.0346  0.0365
 9756TIP3    H250684   6.188   5.888  11.723  2.5280  0.4787  0.6577
 9757TIP3   OH250685   3.345   1.732  15.262 -0.1794 -0.3889  0.5130
 9757TIP3    H150686   3.288   1.809  15.257 -0.7562 -0.7921  0.7348
 9757TIP3    H250687   3.373   1.717  15.172  0.9607  0.8242  0.6329
 9758TIP3   OH250688   2.130   3.808  13.111  0.3327 -0.3915  0.2053
 9758TIP3    H150689   2.113   3.718  13.140 -0.7766 -0.0475  0.6723
 9758TIP3    H250690   2.203   3.837  13.166  0.3453 -0.8183  0.4251
 9759TIP3   OH250691   3.619   0.592  16.475  0.0766 -0.2203  0.4714
 9759TIP3    H150692   3.597   0.507  16.435  0.2606  0.1361 -0.4014
 9759TIP3    H250693   3.662   0.641  16.405 -1.1037  1.0461  0.5864
 9760TIP3   OH250694   0.278   1.865  12.960  0.0516  0.2419 -0.1002
 9760TIP3    H150695   0.303   1.945  12.914  0.3716  0.3782  0.2993
 9760TIP3    H250696   0.348   1.803  12.940  0.6500  0.5668  0.8737
 9761TIP3   OH250697   1.384   1.473   4.633 -0.4130  0.0256 -0.7252
 9761TIP3    H150698   1.354   1.504   4.719 -0.8704  0.4662 -1.0350
 9761TIP3    H250699   1.309   1.425   4.598 -0.0402 -0.6095 -0.6585
 9762TIP3   OH250700   0.138   4.557  16.217 -0.7303  0.3440 -0.4525
 9762TIP3    H150701   0.160   4.476  16.172 -1.0137 -0.6522  1.1119
 9762TIP3    H250702   0.043   4.566  16.204 -0.5895  0.7899 -1.1860
 9763TIP3   OH250703   5.850   5.852   0.539  0.0922 -0.4587  0.1490
 9763TIP3    H150704   5.779   5.916   0.546  0.8426  0.5009 -0.6599
 9763TIP3    H250705   5.858   5.834   0.446  2.4607  1.3221 -0.0699
 9764TIP3   OH250706   2.843   5.572  13.966  0.3125 -0.0996  0.8458
 9764TIP3    H150707   2.909   5.518  13.923 -2.0293 -1.3550 -1.4639
 9764TIP3    H250708   2.832   5.648  13.908 -0.9125 -0.3951  0.6604
 9765TIP3   OH250709   3.491   3.408   0.109 -0.2729 -0.1053  0.2603
 9765TIP3    H150710   3.419   3.463   0.141 -0.0516  1.6230 -1.9688
 9765TIP3    H250711   3.530   3.458   0.037  2.5744 -1.4181  0.7376
 9766TIP3   OH250712   4.953   3.991   3.033 -0.2618 -0.1428  0.4113
 9766TIP3    H150713   4.971   4.070   2.982  0.3216  0.8255  2.0369
 9766TIP3    H250714   4.911   4.024   3.113 -1.9063 -1.6735  0.2432
 9767TIP3   OH250715   4.558   4.605   1.167 -0.4781 -0.6107  0.6297
 9767TIP3    H150716   4.636   4.659   1.154 -0.8595 -0.2046 -0.0136
 9767TIP3    H250717   4.586   4.537   1.229  0.1541  0.0059  1.0322
 9768TIP3   OH250718   1.801   3.873   1.072 -0.2247 -0.1718 -0.5677
 9768TIP3    H150719   1.893   3.886   1.049 -0.0500 -1.6692 -0.8264
 9768TIP3    H250720   1.764   3.828   0.996 -0.8480 -0.7191  0.0514
 9769TIP3   OH250721   4.350   4.270  12.356  0.3914  0.0612  0.4182
 9769TIP3    H150722   4.388   4.184  12.342 -0.1216  0.0422 -1.0467
 9769TIP3    H250723   4.416   4.331  12.322 -0.0734  0.1204 -0.4184
 9770TIP3   OH250724   3.239   3.575  11.301  0.0002  0.0823 -0.4975
 9770TIP3    H150725   3.147   3.599  11.291  0.0507  0.0517 -1.0613
 9770TIP3    H250726   3.273   3.575  11.212  0.1252 -1.5725 -0.4717
 9771TIP3   OH250727   3.456   6.691   5.940  0.1851 -0.4791  0.8070
 9771TIP3    H150728   3.440   6.773   5.893 -1.0163 -1.1442  0.0117
 9771TIP3    H250729   3.372   6.670   5.981  0.4030 -1.4729  0.7632
 9772TIP3   OH250730   6.612   6.654  14.213 -0.2226 -0.4262  0.3214
 9772TIP3    H150731   6.616   6.559  14.220  1.7349 -0.3970  0.2875
 9772TIP3    H250732   6.634   6.673  14.122  1.9992  0.0937  0.8962
 9773TIP3   OH250733   0.805   4.541  15.826  0.0077 -0.2786 -0.7728
 9773TIP3    H150734   0.870   4.610  15.807 -0.1326  0.9502  2.5050
 9773TIP3    H250735   0.721   4.582  15.806  0.0147  0.0407 -0.2038
 9774TIP3   OH250736   4.344   6.759  16.925 -0.2225 -0.1469 -0.3067
 9774TIP3    H150737   4.377   6.784  17.011 -3.2795 -1.6648  1.4530
 9774TIP3    H250738   4.409   6.698  16.891  1.5640  1.2897  0.3633
 9775TIP3   OH250739   6.688   5.518  15.087  0.5544 -0.4759  0.0697
 9775TIP3    H150740   6.701   5.429  15.056 -2.5992 -1.2394  0.5905
 9775TIP3    H250741   6.660   5.508  15.178 -1.7991  0.8241 -0.4253
 9776TIP3   OH250742   3.293   3.877   0.845  0.1233 -0.1252  0.8361
 9776TIP3    H150743   3.234   3.948   0.820  1.1867  0.9222  1.2183
 9776TIP3    H250744   3.277   3.864   0.938  1.0713  0.7568  1.1427
 9777TIP3   OH250745   2.192   2.328   4.906  0.0216 -0.5255 -0.6102
 9777TIP3    H150746   2.257   2.398   4.900 -1.1720  0.5109 -2.7055
 9777TIP3    H250747   2.237   2.250   4.875  0.4593  0.0438 -1.4299
 9778TIP3   OH250748   4.406   0.234   5.082 -0.8136 -0.0326  0.7786
 9778TIP3    H150749   4.400   0.157   5.025 -1.0010 -0.0623  0.8405
 9778TIP3    H250750   4.481   0.282   5.047 -0.2089 -0.6349  1.2186
 9779TIP3   OH250751   2.343   0.890   2.076 -0.0437 -0.2804 -0.4136
 9779TIP3    H150752   2.289   0.876   1.998  0.7584 -0.2722 -0.9966
 9779TIP3    H250753   2.330   0.812   2.130  0.5059 -0.9801 -1.2556
 9780TIP3   OH250754   2.945   0.936   4.790 -0.0744 -0.2628 -0.3059
 9780TIP3    H150755   3.030   0.935   4.834 -0.1211  0.2458 -0.2024
 9780TIP3    H250756   2.962   0.974   4.704  0.4184 -3.1425 -1.5991
 9781TIP3   OH250757   1.381   6.203  14.610 -0.3521 -0.4626  0.6161
 9781TIP3    H150758   1.402   6.288  14.650 -2.4580 -0.0385  0.9449
 9781TIP3    H250759   1.300   6.220  14.561 -0.6659 -2.2355  0.4843
 9782TIP3   OH250760   0.718   5.131   4.615  0.4140  0.0127 -0.0215
 9782TIP3    H150761   0.743   5.220   4.639  2.6153 -0.7119  0.6057
 9782TIP3    H250762   0.641   5.142   4.560  1.4197  2.4261 -1.1185
 9783TIP3   OH250763   6.410   3.066  12.560  0.0434  0.3191 -0.3715
 9783TIP3    H150764   6.360   3.114  12.625  0.5361 -0.0091  0.2661
 9783TIP3    H250765   6.456   2.998  12.610 -0.8573 -1.0045 -1.2794
 9784TIP3   OH250766   1.271   4.847   0.676  0.5327 -0.4057 -0.8251
 9784TIP3    H150767   1.256   4.791   0.599  1.5392  0.0664 -1.3821
 9784TIP3    H250768   1.296   4.786   0.745 -1.2576 -0.9323 -0.5932
 9785TIP3   OH250769   1.677   1.046  12.424 -0.0949  0.3395  0.2547
 9785TIP3    H150770   1.731   1.001  12.488  0.7041  0.3152 -0.4193
 9785TIP3    H250771   1.629   0.977  12.379 -0.4090  0.3319  0.5948
 9786TIP3   OH250772   2.752   3.088   6.284 -0.1533 -0.5826 -0.2853
 9786TIP3    H150773   2.776   3.009   6.333  0.5192  0.5440  1.2831
 9786TIP3    H250774   2.796   3.159   6.331 -1.3110  0.8090 -1.2517
 9787TIP3   OH250775   1.071   0.592  12.431 -0.1299 -0.0608 -0.3137
 9787TIP3    H150776   1.087   0.636  12.348 -0.3992  0.6915  0.0228
 9787TIP3    H250777   1.138   0.523  12.435 -0.6857 -0.6935 -1.5572
 9788TIP3   OH250778   3.532   0.472   4.499 -0.0946 -0.1282  0.3334
 9788TIP3    H150779   3.541   0.380   4.475  0.0005  0.0447 -0.3202
 9788TIP3    H250780   3.582   0.481   4.579 -0.8186 -0.8335  0.8793
 9789TIP3   OH250781   5.448   1.670  11.909  0.2671 -0.2347 -0.7220
 9789TIP3    H150782   5.412   1.590  11.948  0.0482  0.3133  0.2250
 9789TIP3    H250783   5.373   1.729  11.901  0.7791  0.6425  0.5776
 9790TIP3   OH250784   5.850   4.631  11.631  0.3601 -0.4935  0.0178
 9790TIP3    H150785   5.793   4.679  11.691 -0.0836  1.5264 -1.8900
 9790TIP3    H250786   5.933   4.623  11.678 -0.7511 -1.4518  1.9307
 9791TIP3   OH250787   5.909   2.051   0.108  0.4409 -0.0284  0.4483
 9791TIP3    H150788   5.970   2.114   0.068 -0.3618 -0.1573 -1.0706
 9791TIP3    H250789   5.945   1.965   0.086  0.6414 -0.1052  1.0705
 9792TIP3   OH250790   4.568   1.444  12.198 -0.1674  0.2041  0.1753
 9792TIP3    H150791   4.483   1.401  12.204  0.3493 -0.9775 -0.4849
 9792TIP3    H250792   4.593   1.434  12.106  0.6147  0.6538  0.3327
 9793TIP3   OH250793   5.176   1.194   5.019  0.8007 -0.0735  0.9378
 9793TIP3    H150794   5.190   1.104   5.047 -0.1416 -0.5977 -0.2122
 9793TIP3    H250795   5.126   1.234   5.090  0.0376 -0.8510  0.8465
 9794TIP3   OH250796   6.582   3.039  14.113 -0.4504 -0.5316  0.2003
 9794TIP3    H150797   6.557   2.961  14.161  0.9668 -2.3295 -1.7692
 9794TIP3    H250798   6.632   3.006  14.038 -0.2442  2.2435 -1.0175
 9795TIP3   OH250799   1.715   0.471  12.751  0.4695  0.2459  1.0211
 9795TIP3    H150800   1.734   0.394  12.804  0.4408 -0.0405  0.6200
 9795TIP3    H250801   1.715   0.439  12.661 -1.6763  0.2611  0.9654
 9796TIP3   OH250802   2.027   6.431  13.392  0.2721 -0.3926  0.1456
 9796TIP3    H150803   1.986   6.516  13.377  0.3923 -0.2456  0.6590
 9796TIP3    H250804   2.041   6.396  13.304  0.0342  0.0275 -0.0609
 9797TIP3   OH250805   3.454   2.106   1.406 -0.1978  0.2672 -0.6192
 9797TIP3    H150806   3.396   2.164   1.358 -0.9630 -0.3536 -0.4749
 9797TIP3    H250807   3.396   2.039   1.442  0.4448  0.3467  0.6147
 9798TIP3   OH250808   6.636   2.736   0.808 -0.5510  0.1273 -0.7088
 9798TIP3    H150809   6.567   2.783   0.761 -0.6995 -1.6649 -2.4260
 9798TIP3    H250810   6.670   2.799   0.871 -2.4504  1.6673 -1.1436
 9799TIP3   OH250811   5.794   5.538   3.923  0.1606 -0.0064 -0.0440
 9799TIP3    H150812   5.823   5.472   3.861  1.2648  0.0583  0.3750
 9799TIP3    H250813   5.852   5.613   3.908 -1.8315  1.3767 -1.3401
 9800TIP3   OH250814   1.384   6.630   5.114  0.7209 -0.2770 -0.0007
 9800TIP3    H150815   1.336   6.547   5.117 -1.2830  0.8692  1.5250
 9800TIP3    H250816   1.396   6.654   5.206  2.2439  0.6280 -0.4041
 9801TIP3   OH250817   4.132   2.471  14.558  0.1644  0.4158  0.0036
 9801TIP3    H150818   4.178   2.469  14.642  0.1123 -0.2172  0.0253
 9801TIP3    H250819   4.041   2.452  14.581 -0.1851  1.9395 -0.0053
 9802TIP3   OH250820   3.171   2.810  14.772  0.6327  0.2655  0.2445
 9802TIP3    H150821   3.096   2.865  14.747  1.3934  1.4720  0.5077
 9802TIP3    H250822   3.230   2.816  14.696  0.2705 -1.0761 -0.1646
 9803TIP3   OH250823   0.050   2.348   4.172 -0.2821  0.5776  0.2932
 9803TIP3    H150824   0.081   2.317   4.087 -1.2382  0.6474 -0.0837
 9803TIP3    H250825   0.082   2.439   4.177 -0.0373  0.5033  0.1105
 9804TIP3   OH250826   3.306   6.040  16.878  0.4570 -0.3907  0.6157
 9804TIP3    H150827   3.253   6.103  16.830  0.7251 -0.2799  0.4608
 9804TIP3    H250828   3.287   5.955  16.837  1.2499 -0.1935 -0.1938
 9805TIP3   OH250829   4.525   1.816  16.111 -0.0763  0.2413  0.2795
 9805TIP3    H150830   4.528   1.817  16.206  0.8104  0.0692  0.2607
 9805TIP3    H250831   4.609   1.852  16.084 -0.9216  1.7532 -0.4442
 9806TIP3   OH250832   0.691   0.911   3.833  0.5728  0.2877 -0.0747
 9806TIP3    H150833   0.710   0.833   3.781  2.6070 -0.9110  2.2559
 9806TIP3    H250834   0.739   0.982   3.789  2.4763 -0.7493  0.2190
 9807TIP3   OH250835   4.273   3.735  15.669  0.7702  0.1381  0.1573
 9807TIP3    H150836   4.239   3.696  15.749 -0.5104 -0.2944 -0.5711
 9807TIP3    H250837   4.265   3.829  15.682 -1.4473  0.0610 -0.2483
 9808TIP3   OH250838   5.322   5.680  11.260 -0.2275 -0.1298 -0.6656
 9808TIP3    H150839   5.279   5.655  11.178  0.7874  0.0502 -1.2715
 9808TIP3    H250840   5.413   5.655  11.248  0.0693  0.4929  0.1659
 9809TIP3   OH250841   5.663   5.999  17.083 -0.3825  0.5220 -0.5246
 9809TIP3    H150842   5.604   6.047  17.024 -0.3623 -0.2058 -1.1566
 9809TIP3    H250843   5.610   5.980  17.160 -0.9006  0.1240 -0.9683
 9810TIP3   OH250844   2.493   1.157  12.023  0.2729  0.6812  0.0762
 9810TIP3    H150845   2.480   1.192  12.111  0.3608  1.7179 -0.3050
 9810TIP3    H250846   2.442   1.215  11.966 -1.0227 -0.8568 -0.4224
 9811TIP3   OH250847   1.162   5.468   0.595 -0.2034 -0.0534 -0.0612
 9811TIP3    H150848   1.115   5.415   0.531 -1.1595  2.5399 -1.6648
 9811TIP3    H250849   1.096   5.528   0.630  1.2049  1.5737 -0.0447
 9812TIP3   OH250850   4.515   4.475  15.957 -0.0447  0.0705  0.2549
 9812TIP3    H150851   4.535   4.484  15.864 -2.4360  1.4656 -0.2088
 9812TIP3    H250852   4.469   4.392  15.965  1.0483 -0.5440  0.4142
 9813TIP3   OH250853   4.847   3.645   3.796  0.3151  0.0273  0.2313
 9813TIP3    H150854   4.924   3.697   3.774 -0.7646  2.7144  2.1614
 9813TIP3    H250855   4.775   3.689   3.751 -0.5207 -0.4145  1.1018
 9814TIP3   OH250856   5.606   4.392  13.900 -0.3729 -0.0799  0.3281
 9814TIP3    H150857   5.614   4.454  13.827 -1.6259 -0.0198  0.2261
 9814TIP3    H250858   5.513   4.375  13.907 -0.2733 -0.0514  1.9721
 9815TIP3   OH250859   0.065   4.483  16.463 -0.2908 -0.2848 -0.3062
 9815TIP3    H150860   0.053   4.393  16.432  0.0625 -0.4726  0.0901
 9815TIP3    H250861   0.112   4.526  16.392  0.5003 -0.7100 -0.0625
 9816TIP3   OH250862   4.092   4.210  12.682 -0.2948 -0.6729  0.6211
 9816TIP3    H150863   4.176   4.164  12.675  0.3183  0.4259  0.6162
 9816TIP3    H250864   4.101   4.266  12.759 -0.3227  0.8329 -0.4231
 9817TIP3   OH250865   4.720   1.800  15.173  0.0767  0.1280 -0.5422
 9817TIP3    H150866   4.668   1.739  15.226  2.4875 -1.2601  0.3561
 9817TIP3    H250867   4.762   1.858  15.236 -0.2418  1.1605 -1.2461
 9818TIP3   OH250868   4.964   2.410   3.451  0.6466 -0.0818 -0.1768
 9818TIP3    H150869   4.890   2.394   3.393  1.1503  0.6640 -1.0433
 9818TIP3    H250870   5.041   2.381   3.401  1.0378  0.0763  0.3247
 9819TIP3   OH250871   3.760   1.568   5.557 -0.1697 -0.4687  0.5036
 9819TIP3    H150872   3.791   1.491   5.509  1.6029 -1.8019  3.4701
 9819TIP3    H250873   3.838   1.624   5.565 -1.2688  1.3995 -0.9984
 9820TIP3   OH250874   6.742   1.501   4.249  0.1572 -0.1833 -0.0415
 9820TIP3    H150875   6.763   1.563   4.319 -0.8057  0.2003 -0.0794
 9820TIP3    H250876   6.788   1.421   4.274 -0.5138 -0.1852  1.2658
 9821TIP3   OH250877   2.316   0.802  16.386  0.5532 -0.0356  0.2635
 9821TIP3    H150878   2.356   0.872  16.333 -0.2591  0.4503  0.2816
 9821TIP3    H250879   2.351   0.816  16.474  0.5210  0.2445  0.2316
 9822TIP3   OH250880   5.794   6.517  16.088  0.3341  0.5125  0.2616
 9822TIP3    H150881   5.785   6.592  16.147  0.8449  0.6319  0.1973
 9822TIP3    H250882   5.813   6.443  16.146 -1.2546  0.1973  0.4232
 9823TIP3   OH250883   2.287   5.848  12.193  0.2726 -0.7197 -0.2347
 9823TIP3    H150884   2.348   5.821  12.125  1.0793  0.1582  0.1286
 9823TIP3    H250885   2.307   5.791  12.267  1.0152 -0.0948  0.0555
 9824TIP3   OH250886   2.468   0.067  14.701  0.4884 -0.1893 -0.4751
 9824TIP3    H150887   2.405   0.020  14.647  2.1227 -2.1350 -0.8193
 9824TIP3    H250888   2.522  -0.002  14.740  0.7849  1.2667  1.8848
 9825TIP3   OH250889   6.502   6.460   0.460 -0.4732 -0.8525  0.2641
 9825TIP3    H150890   6.577   6.520   0.471 -2.0807  1.2637  0.3026
 9825TIP3    H250891   6.521   6.414   0.378  1.5704 -1.5095  1.0349
 9826TIP3   OH250892   1.969   6.719   0.962 -0.0362  0.1522 -0.7772
 9826TIP3    H150893   1.933   6.777   0.894 -0.1900 -0.0906 -0.9040
 9826TIP3    H250894   1.966   6.772   1.042 -5.8017 -1.4813  0.5352
 9827TIP3   OH250895   4.035   4.510  14.049  0.0594  0.2638 -0.3661
 9827TIP3    H150896   4.041   4.534  14.141  1.7449  2.3788 -0.9422
 9827TIP3    H250897   4.115   4.544  14.010 -1.1797  0.5843 -2.8637
 9828TIP3   OH250898   6.684   2.268   1.075 -0.2344 -0.2385  0.4328
 9828TIP3    H150899   6.698   2.356   1.042 -0.6786 -0.8177 -1.4442
 9828TIP3    H250900   6.762   2.248   1.126  0.9125  0.4131 -1.0310
 9829TIP3   OH250901   3.422   4.595  16.344  0.3609  0.2938  0.2945
 9829TIP3    H150902   3.388   4.674  16.385 -0.5251 -0.2183  0.5822
 9829TIP3    H250903   3.344   4.547  16.316  0.5737 -2.2591  3.4492
 9830TIP3   OH250904   5.246   1.296  11.730  0.2209 -0.1402  0.1904
 9830TIP3    H150905   5.242   1.205  11.759 -0.3585 -0.2959 -0.3562
 9830TIP3    H250906   5.220   1.293  11.638 -0.9553  0.7117  0.4715
 9831TIP3   OH250907   5.538   1.107  12.578 -0.5903  0.2066  1.1388
 9831TIP3    H150908   5.577   1.169  12.516  1.7194 -1.9368  0.2582
 9831TIP3    H250909   5.543   1.151  12.663 -3.9502  3.2910 -0.0037
 9832TIP3   OH250910   3.456   2.151  14.202 -0.2010  0.1186  0.3290
 9832TIP3    H150911   3.538   2.183  14.240 -0.4350  0.0623  0.8897
 9832TIP3    H250912   3.477   2.133  14.110 -0.0562  1.8800 -0.0204
 9833TIP3   OH250913   4.699   1.466   2.964  0.3207 -0.3395  0.1625
 9833TIP3    H150914   4.632   1.533   2.970  0.7664  0.1394 -0.1551
 9833TIP3    H250915   4.653   1.384   2.986 -0.6109 -0.1686 -1.0216
 9834TIP3   OH250916   4.739   1.839   2.871  0.6693  0.2121 -0.2701
 9834TIP3    H150917   4.824   1.829   2.827  0.7967  1.1533 -0.2613
 9834TIP3    H250918   4.750   1.792   2.954  0.3016 -1.9065 -1.3587
 9835TIP3   OH250919   4.850   3.446   3.086 -0.0191  0.0119 -0.7864
 9835TIP3    H150920   4.889   3.532   3.100 -0.6644  0.0023  1.3617
 9835TIP3    H250921   4.812   3.451   2.998  0.9509  1.5115 -1.1524
 9836TIP3   OH250922   6.327   1.605  11.382  0.2457  0.2644  0.9572
 9836TIP3    H150923   6.292   1.605  11.293  0.1260  0.2167  1.0031
 9836TIP3    H250924   6.400   1.667  11.380  0.8585 -0.4551  0.5931
 9837TIP3   OH250925   5.505   5.990  13.521 -0.7572  1.0610  0.1197
 9837TIP3    H150926   5.531   5.917  13.464 -0.8711  0.1800  1.1605
 9837TIP3    H250927   5.561   6.063  13.493 -0.9075  0.6971 -1.1978
 9838TIP3   OH250928   3.463   4.504   0.701  0.1604  0.5772  0.0962
 9838TIP3    H150929   3.521   4.462   0.765 -1.2244  2.5862  2.8659
 9838TIP3    H250930   3.375   4.489   0.735 -0.7358  0.7115 -2.0401
 9839TIP3   OH250931   2.152   5.660   4.220 -0.0454 -0.1758  0.1052
 9839TIP3    H150932   2.192   5.633   4.137 -0.8643  1.7296 -0.9691
 9839TIP3    H250933   2.197   5.741   4.243  0.7758 -1.1306  2.0231
 9840TIP3   OH250934   2.926   5.194   1.716  0.4025  0.4571  0.2205
 9840TIP3    H150935   2.860   5.234   1.772 -0.2030 -1.2524  0.7792
 9840TIP3    H250936   2.979   5.268   1.685 -1.1617  1.7617  0.5304
 9841TIP3   OH250937   6.589   5.263  12.826 -0.2686 -0.1242  1.1587
 9841TIP3    H150938   6.631   5.197  12.771 -1.2338  1.0549 -1.1287
 9841TIP3    H250939   6.586   5.223  12.913 -0.5671 -2.9968 -0.0434
 9842TIP3   OH250940   2.850   5.861   0.878 -0.4167  0.0951 -0.0811
 9842TIP3    H150941   2.882   5.949   0.900  0.9853 -0.8698  2.0465
 9842TIP3    H250942   2.929   5.806   0.877 -1.3353 -1.2701 -0.7861
 9843TIP3   OH250943   2.840   5.117  16.613 -0.9336  0.1150 -0.1011
 9843TIP3    H150944   2.819   5.198  16.568 -0.1950 -0.8948 -2.4328
 9843TIP3    H250945   2.792   5.121  16.696 -2.2322  2.1578 -0.9088
 9844TIP3   OH250946   2.439   5.367   3.169  0.1084  0.1952  0.8655
 9844TIP3    H150947   2.346   5.382   3.184 -0.3073  0.9794 -1.8158
 9844TIP3    H250948   2.483   5.436   3.218 -0.7874  0.4858  1.2871
 9845TIP3   OH250949   3.554   0.646  14.967 -0.9341  1.3007  0.3993
 9845TIP3    H150950   3.486   0.588  15.003  0.9488 -1.6510 -0.4035
 9845TIP3    H250951   3.554   0.626  14.873  1.2149  0.9079  0.4228
 9846TIP3   OH250952   5.013   2.292  17.183  0.7661  0.0785  0.3491
 9846TIP3    H150953   5.109   2.298  17.187  0.6360  2.4919  1.7588
 9846TIP3    H250954   4.986   2.365  17.128 -0.2854 -0.6862 -0.1830
 9847TIP3   OH250955   0.793   1.625  16.227 -0.2388 -0.5644 -0.2577
 9847TIP3    H150956   0.821   1.648  16.138 -0.9322  1.1219 -0.0848
 9847TIP3    H250957   0.814   1.703  16.279 -2.2791 -0.4574  0.4949
 9848TIP3   OH250958   4.903   5.843  13.379 -0.1247  0.4162 -0.0367
 9848TIP3    H150959   4.894   5.917  13.320 -1.2796 -1.6039 -2.5638
 9848TIP3    H250960   4.842   5.861  13.450 -1.6878  1.1068 -1.5074
 9849TIP3   OH250961   3.702   0.643  13.677 -0.3279  0.4465 -0.8674
 9849TIP3    H150962   3.729   0.664  13.588 -2.7507  0.8057 -1.5998
 9849TIP3    H250963   3.712   0.725  13.726 -2.6968  1.4468 -1.8719
 9850TIP3   OH250964   1.564   2.981   3.334 -0.1760 -0.8425  0.3967
 9850TIP3    H150965   1.569   3.053   3.397 -0.3154 -1.0874  0.6885
 9850TIP3    H250966   1.654   2.947   3.330  0.5768  1.1064 -1.8364
 9851TIP3   OH250967   2.577   1.781   2.172  0.5201 -0.3367 -0.1237
 9851TIP3    H150968   2.638   1.787   2.246  0.0661 -0.7546  0.2890
 9851TIP3    H250969   2.542   1.870   2.163  0.2544 -0.3791  0.4459
 9852TIP3   OH250970   3.407   1.338  15.702 -0.2703  0.5093 -0.1414
 9852TIP3    H150971   3.371   1.264  15.652 -1.5211  0.8962  0.1488
 9852TIP3    H250972   3.480   1.370  15.648  2.3008 -2.7261  1.0936
 9853TIP3   OH250973   2.506   5.855  16.012 -0.0417 -0.3861 -0.0225
 9853TIP3    H150974   2.411   5.851  16.003 -0.0806  1.7987 -1.2601
 9853TIP3    H250975   2.534   5.763  16.012 -2.2430 -1.1796  2.4017
 9854TIP3   OH250976   1.358   0.103  11.975 -0.6352  0.2509  0.4555
 9854TIP3    H150977   1.304   0.029  12.002  0.3652 -0.5475  0.3087
 9854TIP3    H250978   1.403   0.130  12.055 -0.0920 -0.0768  0.2676
 9855TIP3   OH250979   3.040   1.268   4.780  0.1788 -0.0210 -0.3150
 9855TIP3    H150980   2.950   1.239   4.770  0.5389 -0.8388 -1.4006
 9855TIP3    H250981   3.064   1.242   4.869 -1.2577  2.0233  0.7357
 9856TIP3   OH250982   3.825   5.431   4.054 -0.3384  0.0203 -0.0907
 9856TIP3    H150983   3.882   5.508   4.063  0.4955 -0.5613 -0.2343
 9856TIP3    H250984   3.774   5.447   3.975  2.1201 -0.9599 -2.0116
 9857TIP3   OH250985   3.407   4.997   2.092  0.5796  0.5231  0.0116
 9857TIP3    H150986   3.499   4.992   2.116  1.0687  3.2365 -0.9254
 9857TIP3    H250987   3.365   5.037   2.168  0.6760  1.6681 -0.5188
 9858TIP3   OH250988   5.214   2.889   4.842 -0.4537 -0.0349 -0.1424
 9858TIP3    H150989   5.240   2.871   4.932  2.4458 -2.7472 -1.3699
 9858TIP3    H250990   5.152   2.820   4.820 -0.1584 -0.1566 -0.6090
 9859TIP3   OH250991   5.454   6.485  15.141 -0.1669 -0.2698 -0.5644
 9859TIP3    H150992   5.379   6.425  15.134  0.5214 -1.1923 -0.2000
 9859TIP3    H250993   5.457   6.530  15.056 -0.8048 -0.6146 -0.7738
 9860TIP3   OH250994   1.793   1.936  11.357  0.0005  0.6153  0.4218
 9860TIP3    H150995   1.850   1.990  11.304  0.2989  0.4911  0.6163
 9860TIP3    H250996   1.741   1.998  11.408 -0.2335  0.7335  0.0448
 9861TIP3   OH250997   2.995   5.514  11.493  0.0626 -0.3532 -0.0583
 9861TIP3    H150998   3.020   5.553  11.409 -0.5585 -0.5124 -0.3251
 9861TIP3    H250999   2.959   5.586  11.544 -1.3558 -0.5960 -0.6588
 9862TIP3   OH251000   5.433   6.667   4.212  0.2226 -0.1865 -0.7649
 9862TIP3    H151001   5.464   6.607   4.144  0.2108  1.8628 -2.6935
 9862TIP3    H251002   5.512   6.699   4.254  0.2666 -0.8805 -0.3003
 9863TIP3   OH251003   4.046   1.991   6.373  0.4695  0.0144  0.5107
 9863TIP3    H151004   4.077   2.067   6.323  1.5591 -0.4319  0.4750
 9863TIP3    H251005   3.997   1.938   6.309  0.5200  0.2167  0.3049
 9864TIP3   OH251006   1.457   1.202  11.558 -0.0411  0.2184  0.8969
 9864TIP3    H151007   1.430   1.287  11.523 -1.0455 -0.4919 -0.1172
 9864TIP3    H251008   1.414   1.138  11.501  2.9546 -1.0299 -0.1681
 9865TIP3   OH251009   3.823   3.686   5.658 -0.0087 -0.3831 -0.4759
 9865TIP3    H151010   3.802   3.644   5.575 -0.3357  0.3035 -0.7486
 9865TIP3    H251011   3.741   3.728   5.685  0.0219 -0.8203  0.3250
 9866TIP3   OH251012   3.801   1.907  14.968  0.2100  0.1896 -0.2676
 9866TIP3    H151013   3.819   1.848  14.894 -1.5258  1.0101 -1.4236
 9866TIP3    H251014   3.738   1.859  15.021  0.3173  0.2049 -0.1267
 9867TIP3   OH251015   6.611   4.555  12.343  0.0718  0.4897 -0.0397
 9867TIP3    H151016   6.649   4.537  12.429  1.2641  0.5164 -0.5466
 9867TIP3    H251017   6.632   4.478  12.290  1.4347  1.4442 -0.9688
 9868TIP3   OH251018   4.505   0.861  17.024 -0.1040 -0.6117 -0.3826
 9868TIP3    H151019   4.528   0.919  17.096 -2.5428  1.0746 -0.8342
 9868TIP3    H251020   4.539   0.775  17.050  0.9158  0.3734  1.7700
 9869TIP3   OH251021   0.170   0.503   2.094 -0.0364  0.2849 -0.1401
 9869TIP3    H151022   0.205   0.488   2.006  1.3773  1.4643  0.1679
 9869TIP3    H251023   0.203   0.430   2.146 -1.5945 -0.8918 -0.7291
 9870TIP3   OH251024   0.617   0.177   1.364  0.4094  0.6484  0.2387
 9870TIP3    H151025   0.585   0.267   1.354  0.4130  0.6747  0.4568
 9870TIP3    H251026   0.683   0.183   1.433 -1.4619  0.0338  2.1810
 9871TIP3   OH251027   1.388   0.444   3.114 -0.3223 -0.1883 -0.0472
 9871TIP3    H151028   1.410   0.356   3.084  0.1026  0.1801 -0.8580
 9871TIP3    H251029   1.471   0.478   3.150 -0.5052 -0.1484  0.3430
 9872TIP3   OH251030   2.901   3.580  14.008  0.3567 -0.2482  0.5636
 9872TIP3    H151031   2.988   3.545  13.991  1.0235  0.9233  1.3985
 9872TIP3    H251032   2.850   3.505  14.039  1.7370 -0.5362  2.3184
 9873TIP3   OH251033   3.108   3.736  16.422  0.0179  0.0543  0.0180
 9873TIP3    H151034   3.198   3.705  16.430 -0.2003 -0.4320  0.7618
 9873TIP3    H251035   3.115   3.817  16.372  0.6117 -1.1674 -1.9759
 9874TIP3   OH251036   1.066   1.422  17.143 -0.4449  0.3012 -0.4559
 9874TIP3    H151037   0.981   1.431  17.099 -0.8966 -1.2347  0.0613
 9874TIP3    H251038   1.048   1.446  17.234 -0.2204  0.3712 -0.4313
 9875TIP3   OH251039   0.836   0.835   5.168 -0.1823 -0.2380  0.7178
 9875TIP3    H151040   0.746   0.865   5.182 -0.8986 -1.2968 -1.1555
 9875TIP3    H251041   0.828   0.740   5.160  0.5470 -0.1430 -2.5138
 9876TIP3   OH251042   6.521   0.198   3.129 -0.2225  0.3064  0.0252
 9876TIP3    H151043   6.589   0.253   3.168  0.1462 -0.4216  0.4230
 9876TIP3    H251044   6.557   0.173   3.043  1.0001 -1.8216  1.0696
 9877TIP3   OH251045   2.676   3.893   5.125 -0.0719  0.1787  0.0218
 9877TIP3    H151046   2.658   3.880   5.032 -0.0881  0.0437  0.0437
 9877TIP3    H251047   2.603   3.948   5.155 -0.1595  0.0795 -0.0080
 9878TIP3   OH251048   6.611   1.028   1.054  0.0943  0.0920 -0.2494
 9878TIP3    H151049   6.642   1.062   0.970  2.1117 -1.0674 -0.0300
 9878TIP3    H251050   6.549   0.959   1.030 -2.4801  2.3912 -0.6947
 9879TIP3   OH251051   0.548   3.119   2.153 -0.1456 -0.0958 -0.1599
 9879TIP3    H151052   0.623   3.138   2.210  0.8468 -0.8781 -1.1540
 9879TIP3    H251053   0.472   3.119   2.212  0.6086  0.8478  0.8429
 9880TIP3   OH251054   1.152   2.198  14.719 -0.2950 -0.1424 -0.0031
 9880TIP3    H151055   1.232   2.150  14.699 -0.4353 -0.9405  1.2595
 9880TIP3    H251056   1.109   2.147  14.787 -1.6742  0.5043 -0.3411
 9881TIP3   OH251057   1.558   4.449   2.170  0.5121  0.3583 -0.1188
 9881TIP3    H151058   1.628   4.415   2.114 -0.1439 -0.9556 -0.1774
 9881TIP3    H251059   1.576   4.411   2.256 -1.2869 -1.7757 -0.6077
 9882TIP3   OH251060   1.904   0.154   6.249 -0.3398 -0.0029  0.4899
 9882TIP3    H151061   1.942   0.070   6.222 -0.0357  0.0874  0.6336
 9882TIP3    H251062   1.834   0.130   6.310  0.7094 -0.0914  1.6849
 9883TIP3   OH251063   1.077   5.835   3.523 -0.2696 -0.4726  0.0261
 9883TIP3    H151064   1.020   5.795   3.589 -3.0324  0.5270 -1.5909
 9883TIP3    H251065   1.107   5.761   3.469  0.6909 -1.0930  1.3448
 9884TIP3   OH251066   1.555   6.306   4.659 -0.1452 -0.5949  0.7929
 9884TIP3    H151067   1.641   6.294   4.617 -0.6728  2.3954 -1.4191
 9884TIP3    H251068   1.524   6.216   4.675  2.4840 -1.7998 -0.2284
 9885TIP3   OH251069   0.636   2.593  14.190  0.0782  0.2486 -0.1071
 9885TIP3    H151070   0.694   2.535  14.240  0.7224  0.7061 -0.3093
 9885TIP3    H251071   0.566   2.616  14.252 -0.0223 -0.5021  0.0633
 9886TIP3   OH251072   0.832   1.995   3.206  0.0829 -0.2884 -0.3676
 9886TIP3    H151073   0.777   1.940   3.262 -0.5173  0.4559 -0.2007
 9886TIP3    H251074   0.893   1.935   3.165  0.7531 -0.8329  1.3301
 9887TIP3   OH251075   5.728   3.685  15.901  0.4890  0.1220  0.0177
 9887TIP3    H151076   5.710   3.719  15.813 -0.9954  1.0617  0.6351
 9887TIP3    H251077   5.756   3.762  15.951  1.4486 -0.4250  0.3440
 9888TIP3   OH251078   5.106   2.451   3.710 -0.5254  0.3396  0.1920
 9888TIP3    H151079   5.181   2.434   3.653 -1.3664  1.0955 -1.2014
 9888TIP3    H251080   5.103   2.376   3.769  1.5872  0.5046  0.6140
 9889TIP3   OH251081   0.092   1.280   5.340  0.0081  0.0137 -0.0178
 9889TIP3    H151082   0.070   1.231   5.420  0.2243 -0.2148 -0.0960
 9889TIP3    H251083   0.083   1.372   5.365  3.1240  0.1096  1.2222
 9890TIP3   OH251084   6.100   3.231  12.012  0.1055 -0.3491  0.0857
 9890TIP3    H151085   6.114   3.319  11.979 -0.3591  0.4601  1.9038
 9890TIP3    H251086   6.167   3.218  12.079 -0.1863 -1.1430  0.2464
 9891TIP3   OH251087   1.864   5.817  13.140  0.1981  0.5895  0.1443
 9891TIP3    H151088   1.826   5.742  13.185  0.4154  0.2436 -0.2464
 9891TIP3    H251089   1.913   5.780  13.067  1.2481  1.0329  0.6014
 9892TIP3   OH251090   2.797   2.359  10.990  0.2093  0.0510 -0.0191
 9892TIP3    H151091   2.764   2.274  11.020  3.0841 -1.2327 -0.0884
 9892TIP3    H251092   2.810   2.348  10.896 -1.0175  1.2231 -0.3538
 9893TIP3   OH251093   5.828   6.249   1.033  0.2405 -0.1856  0.7380
 9893TIP3    H151094   5.794   6.162   1.053 -0.3820  0.2402  1.5900
 9893TIP3    H251095   5.848   6.246   0.939  2.0189 -1.8249  1.1133
 9894TIP3   OH251096   5.621   4.939  12.836 -0.0974  0.0039  0.0191
 9894TIP3    H151097   5.705   4.897  12.854 -0.4717 -0.6060  0.3573
 9894TIP3    H251098   5.573   4.932  12.918 -1.0116 -0.9006 -0.5689
 9895TIP3   OH251099   5.354   1.412  11.954  0.3504 -0.0448 -0.7783
 9895TIP3    H151100   5.321   1.349  11.890  1.1035 -0.7491 -0.4876
 9895TIP3    H251101   5.309   1.390  12.036 -1.9921  1.9848 -1.3859
 9896TIP3   OH251102   5.083   4.111   4.271  0.4705 -0.0560  0.3437
 9896TIP3    H151103   5.116   4.027   4.302  1.3664  0.2670  0.2966
 9896TIP3    H251104   4.998   4.121   4.314 -0.2626 -1.5779 -0.6609
 9897TIP3   OH251105   0.458   0.660   0.428  0.3601  0.6027 -0.3005
 9897TIP3    H151106   0.505   0.601   0.368  0.8343  1.8320 -1.1752
 9897TIP3    H251107   0.508   0.657   0.509  0.8128  0.3692 -0.5818
 9898TIP3   OH251108   2.202   3.227  13.699 -0.4247  0.1877  0.5269
 9898TIP3    H151109   2.165   3.311  13.727  0.4443  0.5478  0.6346
 9898TIP3    H251110   2.270   3.207  13.764  0.6046  0.3030 -0.4747
 9899TIP3   OH251111   2.364   1.023   3.663 -0.8349 -0.2179 -0.2405
 9899TIP3    H151112   2.365   1.072   3.582 -0.1281  0.2161  0.0282
 9899TIP3    H251113   2.271   1.012   3.683 -1.0373 -0.9694 -1.4786
 9900TIP3   OH251114   1.014   4.849   3.656  0.0419 -0.1878 -0.0708
 9900TIP3    H151115   0.997   4.804   3.738 -1.7913 -1.6658 -1.1728
 9900TIP3    H251116   1.071   4.789   3.607 -0.0472 -0.0037 -0.4058
 9901TIP3   OH251117   3.090   2.070   6.124  0.5285  0.2283  0.3743
 9901TIP3    H151118   3.030   2.125   6.175  0.1826  1.3728 -1.1653
 9901TIP3    H251119   3.159   2.045   6.185 -1.8260 -1.7572  2.4479
 9902TIP3   OH251120   5.038   1.915   2.057  0.2309 -0.1374 -0.1684
 9902TIP3    H151121   4.946   1.932   2.077  0.3749  1.7403 -0.8672
 9902TIP3    H251122   5.036   1.866   1.975 -0.1524  0.5055 -0.5557
 9903TIP3   OH251123   1.403   5.721   1.441  0.0269  0.0179 -0.4004
 9903TIP3    H151124   1.497   5.736   1.450 -0.0977  0.2033  0.7087
 9903TIP3    H251125   1.396   5.637   1.395  0.7685 -1.6094  2.2301
 9904TIP3   OH251126   5.532   5.520  14.354 -0.1952  0.2467 -0.2411
 9904TIP3    H151127   5.448   5.481  14.379 -0.7040  1.8240  0.6591
 9904TIP3    H251128   5.519   5.548  14.264 -0.1404 -0.7828 -0.5812
 9905TIP3   OH251129   4.219   6.539   5.732  1.0446  0.0148 -0.2026
 9905TIP3    H151130   4.302   6.585   5.743  0.7153  0.2337  1.5679
 9905TIP3    H251131   4.168   6.596   5.674  1.7259  0.4097 -0.4198
 9906TIP3   OH251132   4.928   1.700   4.519  0.3210  0.1007 -0.4290
 9906TIP3    H151133   4.832   1.700   4.514  0.3373 -1.8860 -2.6345
 9906TIP3    H251134   4.952   1.608   4.510  2.4667  0.5474  0.1948
 9907TIP3   OH251135   2.160   5.959   2.903 -0.4630 -0.6459  0.3402
 9907TIP3    H151136   2.255   5.966   2.896 -0.3293  0.2137  2.2566
 9907TIP3    H251137   2.126   6.026   2.844  0.2038  0.4158  1.1169
 9908TIP3   OH251138   0.579   5.611  14.169 -0.0202 -0.2673  0.5242
 9908TIP3    H151139   0.543   5.538  14.219  0.5261 -1.7882 -1.2228
 9908TIP3    H251140   0.674   5.601  14.176  0.0595  0.0527 -0.0686
 9909TIP3   OH251141   4.942   1.709   3.835 -0.4056  0.0527 -0.2132
 9909TIP3    H151142   4.901   1.636   3.881 -0.6880 -0.0363 -0.5975
 9909TIP3    H251143   4.961   1.674   3.748  0.9646 -0.0625  0.1207
 9910TIP3   OH251144   3.805   1.257   0.571  0.0665  0.1390 -0.1679
 9910TIP3    H151145   3.762   1.173   0.556 -2.4480  0.8001  2.4316
 9910TIP3    H251146   3.865   1.241   0.643 -0.0564  0.4612  0.0079
 9911TIP3   OH251147   4.640   0.403  16.083 -0.1332  1.0266 -0.1087
 9911TIP3    H151148   4.565   0.350  16.053  0.5055  1.0309 -1.8256
 9911TIP3    H251149   4.716   0.363  16.040  0.8972  0.9379  1.7290
 9912TIP3   OH251150   5.449   0.228   4.702 -0.1641  0.2319  0.0286
 9912TIP3    H151151   5.495   0.311   4.687  0.4184  0.1589  1.2965
 9912TIP3    H251152   5.379   0.250   4.763 -1.2422  0.1422 -1.1194
 9913TIP3   OH251153   2.874   4.003  14.380 -0.0930 -0.4586 -0.1935
 9913TIP3    H151154   2.950   4.034  14.330 -1.2345 -1.7426 -2.9427
 9913TIP3    H251155   2.845   3.925  14.333 -0.6428 -2.5247  3.2281
 9914TIP3   OH251156   4.354   5.171   0.454 -0.2827  0.1115 -0.0931
 9914TIP3    H151157   4.375   5.241   0.392  0.6074 -0.6654 -0.6922
 9914TIP3    H251158   4.329   5.097   0.399 -0.9894 -0.1201  0.5291
 9915TIP3   OH251159   2.221   5.847  13.997  0.0080  0.1247  0.1541
 9915TIP3    H151160   2.286   5.781  13.972  1.4957  1.6349 -0.1728
 9915TIP3    H251161   2.207   5.898  13.917  0.8277  1.7659  1.0143
 9916TIP3   OH251162   5.475   0.531   5.834 -0.1888  0.4169  0.0245
 9916TIP3    H151163   5.398   0.490   5.794  1.3844 -0.0788 -2.7744
 9916TIP3    H251164   5.484   0.488   5.919 -2.1524 -0.5310 -0.1911
 9917TIP3   OH251165   3.965   4.386  16.210  0.7318  0.0301 -0.4667
 9917TIP3    H151166   4.028   4.333  16.259 -0.0016  0.0536  0.5287
 9917TIP3    H251167   3.890   4.396  16.269 -0.3255 -0.2104 -1.7064
 9918TIP3   OH251168   3.674   3.822   0.739  0.3855 -0.2342 -0.1614
 9918TIP3    H151169   3.601   3.801   0.681  1.1559  0.7372 -1.5173
 9918TIP3    H251170   3.726   3.886   0.691 -0.4523  2.8504  2.6788
 9919TIP3   OH251171   1.927   5.907  14.536  0.7944 -0.4030 -0.4288
 9919TIP3    H151172   1.949   5.815  14.551 -0.2426 -0.4140  1.2758
 9919TIP3    H251173   1.933   5.947  14.623 -0.9015  0.6459 -0.7621
 9920TIP3   OH251174   2.370   2.827   0.969  0.4679 -0.0542  0.1626
 9920TIP3    H151175   2.352   2.733   0.961 -0.7387  0.1401  0.4782
 9920TIP3    H251176   2.295   2.869   0.928  0.8385  0.7780  0.3290
 9921TIP3   OH251177   5.477   2.322  15.803 -0.2833 -0.4942  0.2111
 9921TIP3    H151178   5.425   2.395  15.771  0.4637  0.3165  0.7958
 9921TIP3    H251179   5.421   2.278  15.867 -0.3007  0.2951  0.7438
 9922TIP3   OH251180   4.972   3.476   6.018  0.1426 -0.6122 -0.3579
 9922TIP3    H151181   5.018   3.484   5.934  0.2705 -0.2464 -0.2540
 9922TIP3    H251182   4.894   3.532   6.008  0.7715  0.3918  0.1870
 9923TIP3   OH251183   6.534   1.170  14.073  0.1778  0.0761  0.0654
 9923TIP3    H151184   6.476   1.243  14.091 -0.7068 -0.8435  1.0887
 9923TIP3    H251185   6.476   1.099  14.045  0.8285 -0.7298  0.6771
 9924TIP3   OH251186   2.630   4.728  17.153  0.4747  0.1776 -0.0312
 9924TIP3    H151187   2.614   4.733  17.247 -0.4638 -1.3994 -0.0836
 9924TIP3    H251188   2.548   4.695  17.116  0.7338  1.0098 -1.4515
 9925TIP3   OH251189   3.937   4.706  12.579  0.4120 -0.1121 -0.3355
 9925TIP3    H151190   3.963   4.796  12.596  2.7909 -0.6924 -0.4405
 9925TIP3    H251191   3.976   4.656  12.651  0.6755 -1.2400 -1.2260
 9926TIP3   OH251192   2.351   6.360   2.510 -0.3913  0.3040 -0.0107
 9926TIP3    H151193   2.304   6.362   2.593  1.9861  3.3862  1.4803
 9926TIP3    H251194   2.438   6.328   2.532 -0.6607 -2.2410 -2.1076
 9927TIP3   OH251195   4.148   4.976   1.748  0.0341 -0.5351 -0.0337
 9927TIP3    H151196   4.061   4.944   1.770 -0.8604  2.3221  0.9501
 9927TIP3    H251197   4.195   4.898   1.716 -2.1272 -2.6102  1.5291
 9928TIP3   OH251198   1.567   5.250   2.147  0.0118 -0.6780 -0.3628
 9928TIP3    H151199   1.588   5.157   2.135 -0.0855 -0.6605 -0.6802
 9928TIP3    H251200   1.610   5.294   2.074 -0.0132 -0.4835 -0.2610
 9929TIP3   OH251201   2.250   0.869   1.593  0.9175  0.0005 -0.5965
 9929TIP3    H151202   2.250   0.916   1.676  0.1233  0.2991 -0.7588
 9929TIP3    H251203   2.201   0.789   1.610  0.6738  0.1044 -0.7944
 9930TIP3   OH251204   4.550   6.542  16.818  0.5450 -0.0575 -0.1129
 9930TIP3    H151205   4.531   6.476  16.886 -0.0383 -0.9383 -1.0949
 9930TIP3    H251206   4.645   6.550  16.819  0.5644 -0.2746  0.6082
 9931TIP3   OH251207   4.402   1.229   6.604 -0.5372  0.1125  0.2966
 9931TIP3    H151208   4.412   1.314   6.561 -0.5257 -0.6401 -1.2702
 9931TIP3    H251209   4.492   1.198   6.617 -0.5518 -0.0741 -0.0288
 9932TIP3   OH251210   5.137   3.496  12.212  0.5459 -0.4464 -0.4492
 9932TIP3    H151211   5.162   3.539  12.294 -0.3442  0.7485 -0.7739
 9932TIP3    H251212   5.103   3.411  12.239 -0.8507  0.3951  0.5561
 9933TIP3   OH251213   3.047   4.138  14.826  0.8042  0.2670 -0.1052
 9933TIP3    H151214   2.988   4.213  14.830 -0.3407 -0.3939 -2.6991
 9933TIP3    H251215   3.108   4.158  14.755  2.3291 -0.0477  1.0592
 9934TIP3   OH251216   1.027   0.413  12.139  0.4213 -0.6212  0.9209
 9934TIP3    H151217   0.983   0.490  12.176  0.1946  0.2915 -1.1047
 9934TIP3    H251218   0.958   0.346  12.134 -0.5995  0.4988 -1.3663
 9935TIP3   OH251219   5.879   2.404  16.876 -0.0081 -0.1663 -0.2260
 9935TIP3    H151220   5.932   2.409  16.956 -1.1219 -0.0796  0.5252
 9935TIP3    H251221   5.874   2.310  16.857 -0.7748 -0.3068  0.5485
 9936TIP3   OH251222   6.628   3.803  16.106  0.7073  0.0160 -0.5377
 9936TIP3    H151223   6.544   3.773  16.141  0.3393  0.2809 -1.1840
 9936TIP3    H251224   6.646   3.745  16.032  0.5054  0.7164 -1.1433
 9937TIP3   OH251225   4.722   4.765   3.828 -0.5979  0.4057  0.2199
 9937TIP3    H151226   4.637   4.810   3.831 -0.4091  0.7410  0.7134
 9937TIP3    H251227   4.709   4.694   3.765 -0.7594  1.4379 -0.9654
 9938TIP3   OH251228   5.735   0.988   6.755 -0.0806  0.0091 -0.2999
 9938TIP3    H151229   5.704   0.925   6.820  1.2588 -0.7751 -0.3789
 9938TIP3    H251230   5.699   1.071   6.783  0.1808 -0.3737  1.2663
 9939TIP3   OH251231   5.659   5.120   5.602 -0.0451  0.0038  0.3794
 9939TIP3    H151232   5.665   5.086   5.691  0.2269  1.7891  1.0857
 9939TIP3    H251233   5.576   5.085   5.568  0.4872 -1.7745  0.8247
 9940TIP3   OH251234   5.710   5.675   1.471 -0.3261  0.3387  0.6463
 9940TIP3    H151235   5.772   5.678   1.398 -1.1263 -0.1417 -0.0631
 9940TIP3    H251236   5.686   5.766   1.486  0.2243  0.4881  0.6527
 9941TIP3   OH251237   0.109   4.214   3.337 -0.4825 -0.0811 -0.7820
 9941TIP3    H151238   0.029   4.206   3.286 -0.2180 -2.6912 -0.9515
 9941TIP3    H251239   0.161   4.280   3.290 -1.5292 -0.1315 -2.0781
 9942TIP3   OH251240   6.694   6.183   6.729  0.2256  0.0628  0.2441
 9942TIP3    H151241   6.766   6.215   6.676  0.0936 -0.3614 -0.1978
 9942TIP3    H251242   6.721   6.094   6.755  0.4475  0.3929  1.1839
 9943TIP3   OH251243   3.845   2.113  10.889  0.4584 -0.1752 -0.1834
 9943TIP3    H151244   3.786   2.094  10.962 -0.0470 -1.6208 -0.9249
 9943TIP3    H251245   3.796   2.086  10.811  2.2496 -1.9594 -0.7826
 9944TIP3   OH251246   5.531   6.278  12.021 -1.0013  0.0973 -0.0335
 9944TIP3    H151247   5.497   6.366  12.005 -0.7915  0.1012 -0.4762
 9944TIP3    H251248   5.457   6.220  12.004 -1.1070  0.1775  0.1451
 9945TIP3   OH251249   2.121   4.728   2.405 -0.7222  0.5772  0.6400
 9945TIP3    H151250   2.152   4.716   2.315  0.3077  1.8446  0.8011
 9945TIP3    H251251   2.120   4.640   2.442 -0.9095  0.0722 -0.5331
 9946TIP3   OH251252   2.601   4.194   0.757 -0.3445 -0.4511 -0.7021
 9946TIP3    H151253   2.641   4.281   0.760 -0.5750 -0.3515  1.8910
 9946TIP3    H251254   2.537   4.199   0.686 -0.2405  1.4496 -0.7053
 9947TIP3   OH251255   0.620   1.144  13.046  0.1626  0.1240  0.7163
 9947TIP3    H151256   0.610   1.075  13.112  1.7749 -0.1220  0.7404
 9947TIP3    H251257   0.557   1.121  12.978 -0.2497 -0.6245  1.3252
 9948TIP3   OH251258   1.582   4.688   1.166 -0.2260  0.3999  0.3521
 9948TIP3    H151259   1.497   4.645   1.174  1.0697 -2.4569  0.4194
 9948TIP3    H251260   1.596   4.730   1.250 -2.2722  2.5276 -0.2794
 9949TIP3   OH251261   5.378   6.080   1.674 -0.0926  0.1564  0.8940
 9949TIP3    H151262   5.435   6.156   1.677 -0.5508  0.5972 -0.8401
 9949TIP3    H251263   5.291   6.115   1.697 -0.1254 -0.0479  1.0880
 9950TIP3   OH251264   2.799   5.497   0.241  0.6512 -0.4035  0.0287
 9950TIP3    H151265   2.819   5.446   0.319  0.3454 -0.0258  0.3590
 9950TIP3    H251266   2.787   5.587   0.273 -0.4973 -0.4263 -0.2978
 9951TIP3   OH251267   2.484   4.960   2.738  0.3975 -0.1377  0.2161
 9951TIP3    H151268   2.395   4.964   2.701 -0.2929 -2.4410  1.4694
 9951TIP3    H251269   2.536   5.017   2.681 -1.5560  0.0402 -1.4937
 9952TIP3   OH251270   6.399   5.943  13.918  0.0557 -0.3512  0.0233
 9952TIP3    H151271   6.465   6.009  13.940  0.8116 -0.9874 -0.2724
 9952TIP3    H251272   6.405   5.879  13.988 -1.1719  0.2264  0.6860
 9953TIP3   OH251273   5.721   1.118  14.329 -0.5728  0.3118 -0.2079
 9953TIP3    H151274   5.691   1.146  14.243 -0.7571  1.8262  0.3288
 9953TIP3    H251275   5.654   1.056  14.359 -0.1585 -0.7543 -1.4129
 9954TIP3   OH251276   1.728   5.475  17.049  0.2430 -0.8647  0.1299
 9954TIP3    H151277   1.808   5.528  17.042  0.3016 -0.9236  0.3364
 9954TIP3    H251278   1.759   5.390  17.081 -0.1066 -0.2983  2.1081
 9955TIP3   OH251279   4.812   1.546   6.407 -0.2248  0.0501 -0.5314
 9955TIP3    H151280   4.837   1.469   6.459 -0.5149 -0.8987 -1.7527
 9955TIP3    H251281   4.808   1.513   6.317 -0.6241  1.4447 -1.0358
 9956TIP3   OH251282   1.657   3.064  16.838  0.1453  0.1376 -0.5665
 9956TIP3    H151283   1.597   3.010  16.890 -0.6676 -1.0762 -2.6307
 9956TIP3    H251284   1.605   3.088  16.761  1.4715  1.3808 -1.1058
 9957TIP3   OH251285   4.872   4.426   2.878  0.2968  0.1381  0.1658
 9957TIP3    H151286   4.801   4.477   2.839 -1.4040 -2.2449 -0.1193
 9957TIP3    H251287   4.844   4.412   2.968  0.4655 -0.6827  0.0947
 9958TIP3   OH251288   0.421   4.908   1.369  0.0908 -0.1221 -0.5480
 9958TIP3    H151289   0.365   4.844   1.412 -0.1179  0.0726 -0.5280
 9958TIP3    H251290   0.439   4.974   1.436 -0.5700  0.3960 -0.8612
 9959TIP3   OH251291   2.006   0.910   5.239 -0.5886 -0.3056  0.0283
 9959TIP3    H151292   2.056   0.958   5.305 -0.8030 -0.4073  0.2649
 9959TIP3    H251293   1.995   0.972   5.167 -0.3109 -0.2114  0.0677
 9960TIP3   OH251294   4.463   4.986  13.367 -0.1147 -0.1070 -0.9005
 9960TIP3    H151295   4.464   5.012  13.459  2.5623 -1.2197 -0.5113
 9960TIP3    H251296   4.448   5.068  13.320  1.2960  1.0211  0.4722
 9961TIP3   OH251297   1.087   5.709   4.131  0.1351  0.0521  0.9008
 9961TIP3    H151298   1.086   5.632   4.075  0.1670  1.3714 -0.9980
 9961TIP3    H251299   1.159   5.763   4.098  1.8973 -0.2214  3.8720
 9962TIP3   OH251300   4.410   2.829   4.932  0.3707 -0.4942  0.4498
 9962TIP3    H151301   4.385   2.858   5.019  0.7701 -0.5688  0.5875
 9962TIP3    H251302   4.493   2.872   4.914  0.5261 -0.8478  0.2975
 9963TIP3   OH251303   0.930   0.105   6.241 -0.1658 -0.5821 -0.0864
 9963TIP3    H151304   0.921   0.098   6.146  0.1032  0.6187 -0.2221
 9963TIP3    H251305   0.868   0.041   6.277  0.3772 -1.6983 -1.0671
 9964TIP3   OH251306   6.231   6.739  15.308  0.0342  0.4075  0.4483
 9964TIP3    H151307   6.300   6.680  15.277 -0.2908 -0.1677  0.7837
 9964TIP3    H251308   6.186   6.688  15.376  0.4926  1.4967  1.5987
 9965TIP3   OH251309   2.235   4.729  15.065 -0.5232 -0.1798  0.2225
 9965TIP3    H151310   2.301   4.660  15.063  0.6461  0.9061 -0.8405
 9965TIP3    H251311   2.153   4.685  15.044 -0.1749 -1.5668  1.6013
 9966TIP3   OH251312   6.382   4.827  15.584 -0.3581  0.0553  0.2647
 9966TIP3    H151313   6.372   4.798  15.675  0.6767 -0.6854  0.1650
 9966TIP3    H251314   6.387   4.923  15.590  3.7086 -0.0356  1.5247
 9967TIP3   OH251315   4.854   0.808  17.027  0.0201 -0.4856 -0.5627
 9967TIP3    H151316   4.917   0.737  17.016 -0.9112 -1.2743 -1.0479
 9967TIP3    H251317   4.773   0.764  17.054 -0.6331  0.3574 -1.0691
 9968TIP3   OH251318   5.196   3.706   0.718  0.4491 -0.4086 -0.2046
 9968TIP3    H151319   5.175   3.636   0.656 -2.0068  1.4597 -1.6919
 9968TIP3    H251320   5.138   3.690   0.793  0.1034 -0.1866 -0.4173
 9969TIP3   OH251321   4.124   6.569   3.746  0.7058 -0.1946  0.0435
 9969TIP3    H151322   4.160   6.643   3.795  0.1069 -0.1933  0.4972
 9969TIP3    H251323   4.058   6.608   3.689  0.4987 -0.3607  0.1704
 9970TIP3   OH251324   4.690   6.419   0.728 -0.4049  0.0556  0.2333
 9970TIP3    H151325   4.741   6.486   0.774 -1.2262  0.3461  0.7304
 9970TIP3    H251326   4.733   6.413   0.642 -0.0716  0.9334  0.3200
 9971TIP3   OH251327   0.762   4.573   0.645  0.2939 -0.0276  0.2525
 9971TIP3    H151328   0.838   4.516   0.631  0.6411  1.1328 -4.1658
 9971TIP3    H251329   0.797   4.650   0.689  0.4657 -1.6133  3.1471
 9972TIP3   OH251330   3.984   3.125   0.339  0.3233 -0.4859 -0.4461
 9972TIP3    H151331   4.041   3.201   0.347 -0.7621  0.2936  0.1456
 9972TIP3    H251332   3.899   3.162   0.314 -0.3247 -1.4582  0.2761
 9973TIP3   OH251333   6.622   0.244  14.528  0.2404 -0.2787  0.3411
 9973TIP3    H151334   6.529   0.230  14.507  0.4217 -1.7480  0.4008
 9973TIP3    H251335   6.621   0.293  14.610 -0.4685  1.5597 -0.7011
 9974TIP3   OH251336   3.966   6.046  17.007 -0.6460  0.2464 -0.8737
 9974TIP3    H151337   4.032   5.977  17.007 -1.8753 -0.9785 -1.1908
 9974TIP3    H251338   3.933   6.048  17.097 -0.0622  0.9929 -0.6666
 9975TIP3   OH251339   3.491   2.277   1.655 -0.0445 -0.0314  0.1013
 9975TIP3    H151340   3.497   2.219   1.580 -0.7133 -0.9860  0.7597
 9975TIP3    H251341   3.432   2.347   1.627  1.6017  0.9505 -1.0579
 9976TIP3   OH251342   3.854   6.313  16.663 -0.2478 -0.0465  0.0884
 9976TIP3    H151343   3.864   6.405  16.636 -0.4348  0.3618  1.3383
 9976TIP3    H251344   3.777   6.313  16.719  0.6087 -0.6806  1.3118
 9977TIP3   OH251345   1.615   4.773  15.734 -0.3497 -0.3100  0.0752
 9977TIP3    H151346   1.571   4.726  15.804 -0.7873  0.5173  0.3594
 9977TIP3    H251347   1.681   4.711  15.702 -2.1685 -1.8889 -0.8734
 9978TIP3   OH251348   5.885   0.036  11.252 -0.2354  0.1001  0.2655
 9978TIP3    H151349   5.941   0.081  11.189 -1.9780 -0.1442 -1.5530
 9978TIP3    H251350   5.901  -0.057  11.237 -0.7084  0.0378  0.1449
 9979TIP3   OH251351   0.921   2.468   4.750  0.3293  0.1930  0.2754
 9979TIP3    H151352   0.892   2.378   4.761  0.5962  0.1600  0.7428
 9979TIP3    H251353   0.841   2.520   4.752  0.2737  0.0814  1.3091
 9980TIP3   OH251354   3.658   6.009  14.731  0.4645 -0.9799  0.2172
 9980TIP3    H151355   3.677   5.926  14.688 -0.9252 -0.0881 -2.3219
 9980TIP3    H251356   3.563   6.013  14.736  0.3824  1.2491 -1.5609
 9981TIP3   OH251357   6.590   6.451   3.396 -0.0119 -0.3132 -0.2841
 9981TIP3    H151358   6.665   6.461   3.454  0.3452  0.3375 -0.8404
 9981TIP3    H251359   6.581   6.357   3.385  0.1337 -0.4315  0.5386
 9982TIP3   OH251360   5.680   0.847  13.532 -0.0098 -0.1996 -0.1493
 9982TIP3    H151361   5.768   0.811  13.543 -0.7315 -2.0164  0.0269
 9982TIP3    H251362   5.663   0.840  13.438 -0.0151  0.0214 -0.1640
 9983TIP3   OH251363   2.455   5.695   0.407  0.0875  1.1079 -0.3533
 9983TIP3    H151364   2.368   5.717   0.441  0.2927 -1.3976  2.1266
 9983TIP3    H251365   2.484   5.622   0.461  2.4399 -0.2620 -3.1923
 9984TIP3   OH251366   1.627   0.594  12.154  0.3370 -0.7092  0.0869
 9984TIP3    H151367   1.716   0.596  12.190  0.2208 -1.8535  0.4803
 9984TIP3    H251368   1.639   0.570  12.062  0.4116 -1.2707  0.2419
 9985TIP3   OH251369   1.438   3.249   1.696  0.0191  0.2371 -0.3621
 9985TIP3    H151370   1.454   3.255   1.602  4.7346  0.0084  0.1929
 9985TIP3    H251371   1.394   3.165   1.708 -0.2949  0.0914 -2.3170
 9986TIP3   OH251372   4.091   1.339   4.136  0.2656  0.3977  0.1547
 9986TIP3    H151373   4.186   1.350   4.142  0.3678 -0.8184  1.5334
 9986TIP3    H251374   4.060   1.360   4.224 -0.7528  0.8587 -0.3096
 9987TIP3   OH251375   1.665   4.065  10.388  0.4915 -0.7543  0.0375
 9987TIP3    H151376   1.614   4.031  10.314 -0.9186 -0.1267  0.6829
 9987TIP3    H251377   1.719   4.135  10.350  0.0788 -0.7060 -0.4776
 9988TIP3   OH251378   1.442   0.775  12.007  0.4824  0.0312  0.3222
 9988TIP3    H151379   1.473   0.778  11.917  2.1557  2.8176  0.8686
 9988TIP3    H251380   1.486   0.699  12.045 -0.1508 -1.1088 -1.1338
 9989TIP3   OH251381   2.403   5.451   1.079  0.0614  0.4927  0.1340
 9989TIP3    H151382   2.474   5.412   1.129  0.2172 -0.1868 -0.5935
 9989TIP3    H251383   2.445   5.487   1.002 -0.5457 -1.4748 -1.1965
 9990TIP3   OH251384   5.757   4.938   5.304 -0.0673  0.4795  0.1052
 9990TIP3    H151385   5.821   4.871   5.279  0.4159  0.8810  0.2474
 9990TIP3    H251386   5.737   4.917   5.396 -1.0161 -0.3373 -0.2778
 9991TIP3   OH251387   4.592   1.834  13.859  0.7091 -0.2073 -0.3912
 9991TIP3    H151388   4.647   1.894  13.910 -1.3404 -0.5021  2.3791
 9991TIP3    H251389   4.556   1.889  13.789  0.7873  1.1861  0.6185
 9992TIP3   OH251390   5.905   3.603  11.106  0.1933 -0.0884  0.4714
 9992TIP3    H151391   5.911   3.697  11.087 -0.2032 -0.5704 -2.6397
 9992TIP3    H251392   5.844   3.597  11.179 -1.2257  1.9980 -0.4411
 9993TIP3   OH251393   4.688   4.002  13.289  0.2336  0.1129 -0.4247
 9993TIP3    H151394   4.670   3.972  13.378 -0.2577  0.9377 -0.2364
 9993TIP3    H251395   4.688   4.097  13.296 -0.4827  0.2029 -1.4313
 9994TIP3   OH251396   1.833   2.559   1.736 -0.0232 -0.1042 -0.0458
 9994TIP3    H151397   1.790   2.480   1.769  0.7204 -1.1401 -1.4562
 9994TIP3    H251398   1.825   2.553   1.641  1.5226  0.6444 -0.2495
 9995TIP3   OH251399   4.023   6.055  16.717 -0.7636 -0.1572  0.3798
 9995TIP3    H151400   4.028   6.070  16.812  1.3774  2.3397 -0.0185
 9995TIP3    H251401   3.958   6.119  16.686 -1.1075 -0.6421  0.0735
 9996TIP3   OH251402   6.712   1.540   4.951 -0.5711  0.0024 -0.0748
 9996TIP3    H151403   6.730   1.569   5.040 -2.6312  0.9716  0.0767
 9996TIP3    H251404   6.786   1.484   4.929 -1.1638 -2.4080  3.1853
 9997TIP3   OH251405   2.250   4.402   4.630 -0.0067 -0.4008 -0.4777
 9997TIP3    H151406   2.286   4.411   4.718 -0.4248  0.8767 -0.4056
 9997TIP3    H251407   2.312   4.448   4.573 -0.6829  0.4614 -0.5595
 9998TIP3   OH251408   0.268   4.609   6.253  0.2954 -1.1350 -0.0082
 9998TIP3    H151409   0.346   4.644   6.210  1.3198  0.1695  2.6563
 9998TIP3    H251410   0.201   4.676   6.239  1.1946  0.2705  1.9497
 9999TIP3   OH251411   2.351   0.615  11.424  0.9208 -0.0001  0.1892
 9999TIP3    H151412   2.374   0.532  11.384 -0.5800 -1.1399  1.5347
 9999TIP3    H251413   2.346   0.596  11.518  2.7233  2.1571  0.8061
10000TIP3   OH251414   3.296   1.292   0.025 -0.0893  0.2697 -1.0580
10000TIP3    H151415   3.239   1.280  -0.051 -0.8170 -1.6495 -0.2693
10000TIP3    H251416   3.384   1.278  -0.008 -0.3960 -0.5053 -1.5659
10001TIP3   OH251417   6.479   4.941  12.311  0.6550 -0.8647  0.1523
10001TIP3    H151418   6.463   4.879  12.381  0.7448  0.9995  1.9095
10001TIP3    H251419   6.575   4.944  12.304  0.7031  0.1005  1.0664
10002TIP3   OH251420   1.680   6.651   4.154 -0.5083 -0.1646 -0.1471
10002TIP3    H151421   1.719   6.621   4.072  0.6125  2.6924 -0.7715
10002TIP3    H251422   1.706   6.585   4.219  2.2677 -0.3121 -1.2825
10003TIP3   OH251423   4.888   6.490  15.627 -0.0205 -0.1722 -0.6063
10003TIP3    H151424   4.813   6.495  15.568 -0.5832  0.3743  0.1389
10003TIP3    H251425   4.924   6.403  15.612  0.2098  0.1494 -2.1759
10004TIP3   OH251426   5.848   2.002   6.447 -0.9198  0.5565 -0.3584
10004TIP3    H151427   5.833   2.068   6.378  1.2188  0.7678 -0.6926
10004TIP3    H251428   5.809   2.040   6.525  0.4045  2.3447 -0.5086
10005TIP3   OH251429   5.343   4.436   0.809  0.4492 -0.5955 -0.1275
10005TIP3    H151430   5.415   4.404   0.755  0.0570 -1.4428 -0.1678
10005TIP3    H251431   5.385   4.465   0.890  1.1373  1.4782 -1.1787
10006TIP3   OH251432   6.506   3.465   1.299 -0.1411 -0.3511  0.0866
10006TIP3    H151433   6.441   3.534   1.308 -0.0253  0.0970 -2.0955
10006TIP3    H251434   6.584   3.500   1.343 -0.8277 -0.1842  1.2042
10007TIP3   OH251435   3.081   4.257   2.796  0.2034 -0.2965  0.9252
10007TIP3    H151436   3.095   4.171   2.756  2.6139  0.6630 -0.5243
10007TIP3    H251437   3.112   4.247   2.886 -0.8956 -1.2729  1.2249
10008TIP3   OH251438   5.643   4.936   3.757 -0.4845  0.2743  0.1692
10008TIP3    H151439   5.562   4.986   3.765 -0.8846 -0.4566  0.7472
10008TIP3    H251440   5.617   4.845   3.771  0.3295 -0.0439 -0.3031
10009TIP3   OH251441   1.908   0.397   5.614 -0.2473  0.2916 -0.0247
10009TIP3    H151442   1.817   0.377   5.592 -0.3222 -0.4485  0.8813
10009TIP3    H251443   1.903   0.475   5.669 -0.3459  0.2032  0.0930
10010TIP3   OH251444   0.632   5.432  11.717 -0.2195 -0.3437  0.0311
10010TIP3    H151445   0.726   5.448  11.712  0.2163 -2.5286 -0.1813
10010TIP3    H251446   0.592   5.514  11.691  1.6502  0.4342 -0.5752
10011TIP3   OH251447   3.489   5.636   2.663 -0.1175  0.8697 -0.7643
10011TIP3    H151448   3.478   5.643   2.758 -2.4365  0.2851 -0.9395
10011TIP3    H251449   3.527   5.549   2.649  0.1547  0.9266 -0.3808
10012TIP3   OH251450   6.558   5.296  15.716  0.5637  0.4171 -0.0344
10012TIP3    H151451   6.613   5.351  15.773  1.0473 -1.3917  1.3545
10012TIP3    H251452   6.474   5.291  15.762  0.9683 -1.0871  0.6131
10013TIP3   OH251453   5.342   5.658   6.457  0.3002 -0.1596 -0.5538
10013TIP3    H151454   5.306   5.594   6.396  0.5778  2.3742 -3.6055
10013TIP3    H251455   5.435   5.661   6.436 -0.0413  2.7435 -2.1635
10014TIP3   OH251456   3.676   0.977   4.050 -0.2189 -0.0032  0.4682
10014TIP3    H151457   3.702   1.066   4.072 -0.5418  0.1415  0.2684
10014TIP3    H251458   3.608   0.955   4.114  0.4253 -0.4014  1.0270
10015TIP3   OH251459   1.933   0.675  15.184  0.1968 -0.5025 -0.7305
10015TIP3    H151460   1.862   0.663  15.247  0.3844  0.5346 -0.2885
10015TIP3    H251461   2.013   0.656  15.234  0.2224 -2.1382 -1.3548
10016TIP3   OH251462   2.988   4.275   4.291  0.1908 -0.0923  0.0391
10016TIP3    H151463   2.947   4.348   4.338  0.1911 -0.8909  1.3343
10016TIP3    H251464   3.055   4.316   4.237 -1.2944  1.0994 -1.0177
10017TIP3   OH251465   4.785   6.342  14.218  0.3653 -0.5214  0.3023
10017TIP3    H151466   4.790   6.344  14.123 -0.4926 -0.3337  0.2595
10017TIP3    H251467   4.794   6.249  14.241 -0.5694 -0.6942 -0.0260
10018TIP3   OH251468   6.021   4.852  16.687 -0.5528 -0.2051  0.2714
10018TIP3    H151469   6.085   4.796  16.643 -0.8493  0.3128 -0.8506
10018TIP3    H251470   5.944   4.796  16.699  0.3301 -1.0822  2.3620
10019TIP3   OH251471   6.043   5.433   0.287 -0.7962  0.4440 -0.5177
10019TIP3    H151472   6.007   5.473   0.208 -0.0379 -0.2722 -1.2492
10019TIP3    H251473   6.118   5.382   0.256  0.3521  1.2088  0.8258
10020TIP3   OH251474   5.210   4.365  10.882 -0.0318 -0.7035  0.0315
10020TIP3    H151475   5.125   4.320  10.888  0.4030 -1.6127 -0.4852
10020TIP3    H251476   5.217   4.413  10.965 -2.1136  1.3532 -0.8466
10021TIP3   OH251477   2.250   4.984   6.008  0.1327 -0.0374 -0.7119
10021TIP3    H151478   2.345   4.977   6.015 -0.0146 -1.6322  0.2600
10021TIP3    H251479   2.232   5.077   6.024  1.6191  0.7011 -2.8625
10022TIP3   OH251480   3.796   6.171   0.537  0.2270 -0.6171 -0.5241
10022TIP3    H151481   3.840   6.254   0.557  0.3910 -0.0973 -2.7204
10022TIP3    H251482   3.714   6.198   0.495 -1.1246 -1.5983  1.3666
10023TIP3   OH251483   3.464   4.376  14.406 -0.4488 -0.3050  0.5794
10023TIP3    H151484   3.517   4.430  14.347 -0.7839  1.4073  1.7725
10023TIP3    H251485   3.453   4.293  14.360  1.9030 -0.1362 -0.4053
10024TIP3   OH251486   1.550   1.136  14.661  0.1737 -0.0245  0.7364
10024TIP3    H151487   1.460   1.108  14.676  0.2037 -1.4358 -1.3946
10024TIP3    H251488   1.601   1.056  14.665  1.4447  0.7961  2.2363
10025TIP3   OH251489   5.708   5.706   2.821  0.6087  0.0847  0.4511
10025TIP3    H151490   5.797   5.678   2.841  1.7740  1.1016 -2.6927
10025TIP3    H251491   5.698   5.790   2.867  0.4251 -1.0252  2.5258
10026TIP3   OH251492   5.762   3.756   5.522 -0.1750 -0.3172  0.2015
10026TIP3    H151493   5.731   3.666   5.509 -0.2617 -0.7124  2.6252
10026TIP3    H251494   5.835   3.748   5.583 -0.4998  1.3015  0.8567
10027TIP3   OH251495   0.031   1.912   5.508 -0.2685  0.2226  0.3062
10027TIP3    H151496   0.013   1.911   5.414  0.9633 -0.7999  0.0492
10027TIP3    H251497   0.040   2.005   5.530  1.0531  0.4301 -0.9458
10028TIP3   OH251498   6.502   6.188  17.322 -0.0873 -0.5489 -0.0155
10028TIP3    H151499   6.567   6.118  17.326 -0.9194 -1.3471 -0.0926
10028TIP3    H251500   6.433   6.160  17.383  0.4505  1.1557  1.4436
10029TIP3   OH251501   1.927   4.927   6.358  0.3525  0.0347  0.1099
10029TIP3    H151502   1.936   5.002   6.299  0.6190  0.6895  0.9657
10029TIP3    H251503   1.847   4.945   6.408 -0.5444 -1.0940 -0.8302
10030TIP3   OH251504   0.405   3.340  14.167  0.0857 -0.2169 -0.2109
10030TIP3    H151505   0.419   3.398  14.242 -0.8220 -0.6259  0.2824
10030TIP3    H251506   0.351   3.392  14.107  0.3071 -0.1048 -0.3117
10031TIP3   OH251507   5.931   6.692   1.372 -0.2933  0.0174 -0.0168
10031TIP3    H151508   5.891   6.728   1.452 -1.6574  0.2591 -0.7718
10031TIP3    H251509   5.926   6.597   1.384 -1.4378  0.0321 -0.2241
10032TIP3   OH251510   1.757   3.035   2.716  0.0616  0.0366 -0.6377
10032TIP3    H151511   1.847   3.007   2.701 -0.1460  0.3359 -2.7223
10032TIP3    H251512   1.716   3.033   2.629 -2.1005 -0.5868  0.3201
10033TIP3   OH251513   0.795   4.226  16.541  0.1903  0.7213 -0.2618
10033TIP3    H151514   0.871   4.282  16.524 -0.6084  2.7382  2.3146
10033TIP3    H251515   0.742   4.274  16.604 -1.1927 -2.4402  1.2183
10034TIP3   OH251516   1.467   6.032   4.831 -0.1631 -0.4134  0.0618
10034TIP3    H151517   1.452   6.001   4.920 -3.8896 -1.9155 -0.8626
10034TIP3    H251518   1.520   5.964   4.790 -0.9156 -1.2037  0.3812
10035TIP3   OH251519   1.695   0.820   3.724 -0.2889 -0.9984  0.1501
10035TIP3    H151520   1.651   0.735   3.723 -0.5235 -0.8796  0.2929
10035TIP3    H251521   1.632   0.879   3.764 -0.0176 -0.8163  0.3125
10036TIP3   OH251522   2.803   6.390  16.434  0.5140 -0.0680  0.3564
10036TIP3    H151523   2.752   6.310  16.430 -0.4403  0.4314  1.6372
10036TIP3    H251524   2.786   6.434  16.351 -1.2655  0.1344  0.7975
10037TIP3   OH251525   1.368   6.337   2.816 -0.3388  0.2924  0.2423
10037TIP3    H151526   1.319   6.262   2.849  0.6701  0.0978  1.3718
10037TIP3    H251527   1.444   6.343   2.874  1.1717  0.3615 -1.6401
10038TIP3   OH251528   3.245   0.104  15.418  0.6811  0.2280 -0.1244
10038TIP3    H151529   3.268   0.153  15.340  3.9462  1.2915  1.3503
10038TIP3    H251530   3.285   0.018  15.405 -0.2306 -0.1744 -0.3229
10039TIP3   OH251531   1.424   1.138  12.106 -0.6750  0.2958 -0.4646
10039TIP3    H151532   1.376   1.074  12.159 -2.6101 -0.0167 -2.4706
10039TIP3    H251533   1.511   1.099  12.096 -1.7210 -1.9875 -1.4556
10040TIP3   OH251534   5.349   4.084   0.090 -0.4773 -0.2374  0.4046
10040TIP3    H151535   5.428   4.046   0.050 -2.3363 -1.4492 -2.3811
10040TIP3    H251536   5.323   4.153   0.029 -1.3145  0.5420  1.5986
10041TIP3   OH251537   2.957   4.914  15.488  0.1281  0.0758 -0.2193
10041TIP3    H151538   2.994   4.967  15.558  0.6172  1.8104 -1.6940
10041TIP3    H251539   3.026   4.853  15.464 -0.6552 -1.7722  1.9178
10042TIP3   OH251540   0.611   4.604  12.883  0.1653 -0.7836  0.0911
10042TIP3    H151541   0.605   4.625  12.790 -2.7455  1.8622  0.6945
10042TIP3    H251542   0.589   4.686  12.928 -1.4369 -2.6329  3.0462
10043TIP3   OH251543   0.614   2.272  17.016 -0.0959 -0.1307  0.5480
10043TIP3    H151544   0.576   2.221  17.087  0.3357  0.1843  1.0230
10043TIP3    H251545   0.606   2.363  17.046  0.4803 -0.0241  0.4000
10044TIP3   OH251546   6.745   3.101   3.516 -0.2063  0.3290  0.2086
10044TIP3    H151547   6.805   3.097   3.590 -1.3034  1.1326  1.1846
10044TIP3    H251548   6.753   3.190   3.482 -1.6087  0.8274  1.0671
10045TIP3   OH251549   1.454   3.770   6.188  0.6460 -0.8892 -0.2325
10045TIP3    H151550   1.500   3.686   6.192  0.6750 -0.8172  2.0663
10045TIP3    H251551   1.506   3.829   6.241 -0.3879  0.0866 -0.2650
10046TIP3   OH251552   5.301   0.891   5.371 -0.1046  0.2532  0.7585
10046TIP3    H151553   5.394   0.901   5.392 -0.3249  0.5276  1.6495
10046TIP3    H251554   5.263   0.850   5.449 -0.7997  0.4770  0.5465
10047TIP3   OH251555   0.988   4.088   4.744  0.3718 -0.0563  0.1267
10047TIP3    H151556   0.974   4.064   4.836  0.5601  0.8246  0.3939
10047TIP3    H251557   1.035   4.171   4.748 -0.1438  0.2932 -0.7668
10048TIP3   OH251558   2.039   5.377   6.516 -0.3462  0.5239  0.0457
10048TIP3    H151559   1.991   5.460   6.512 -1.8667 -0.2836  0.6027
10048TIP3    H251560   1.971   5.311   6.528  0.8902 -0.7357  0.3939
10049TIP3   OH251561   2.406   3.537   5.731 -0.1823  0.1948  0.2915
10049TIP3    H151562   2.335   3.584   5.774  0.4872  0.8634  0.6962
10049TIP3    H251563   2.452   3.605   5.681  0.1250 -0.2414 -0.0253
10050TIP3   OH251564   6.733   1.759  11.336  0.3631  0.2384 -0.8501
10050TIP3    H151565   6.652   1.809  11.322  0.8091  0.8236 -1.3999
10050TIP3    H251566   6.755   1.775  11.428 -0.3145 -0.1888 -0.6045
10051TIP3   OH251567   0.018   2.411   3.429  0.0634  0.1208 -0.4330
10051TIP3    H151568   0.080   2.460   3.375  0.8161  0.1999  0.4727
10051TIP3    H251569   0.032   2.445   3.518 -0.6367 -0.5065 -0.0734
10052TIP3   OH251570   3.617   2.407   5.995  1.0278  0.0505 -0.4783
10052TIP3    H151571   3.538   2.398   6.047  2.1895  1.5799  1.7198
10052TIP3    H251572   3.683   2.356   6.042  2.1268  1.5199 -0.3298
10053TIP3   OH251573   4.440   1.043  14.471 -0.0060  0.3277  0.2531
10053TIP3    H151574   4.497   0.977  14.511  0.5244  0.4588 -0.2771
10053TIP3    H251575   4.364   1.047  14.529  0.9058  0.7705  1.4761
10054TIP3   OH251576   5.279   2.185   5.000  0.4544 -0.0490  0.0395
10054TIP3    H151577   5.317   2.228   4.924  0.3642 -2.0094 -1.1898
10054TIP3    H251578   5.249   2.100   4.967 -1.1133 -0.2889  1.9060
10055TIP3   OH251579   3.002   4.317  11.725 -0.2752 -0.2572 -0.3187
10055TIP3    H151580   3.019   4.405  11.691  1.7870  0.4559  2.2489
10055TIP3    H251581   3.062   4.260  11.676  0.7320  0.3230  0.2048
10056TIP3   OH251582   1.926   6.063   0.459  0.7435  0.5494  0.1292
10056TIP3    H151583   1.904   6.152   0.487 -0.6698 -0.2779  1.8926
10056TIP3    H251584   1.897   6.059   0.368 -0.4970  1.4850  0.4501
10057TIP3   OH251585   6.090   1.756   0.354  0.4237  0.0100 -0.1165
10057TIP3    H151586   6.127   1.668   0.361 -1.7677 -0.8940  1.1886
10057TIP3    H251587   6.110   1.798   0.437 -1.0657 -0.3805  0.4814
10058TIP3   OH251588   0.558   3.818   1.588 -0.0218  0.1181 -0.0404
10058TIP3    H151589   0.559   3.723   1.575 -0.2096  0.1411 -0.2310
10058TIP3    H251590   0.607   3.853   1.514  1.7973  0.0633  1.0762
10059TIP3   OH251591   6.656   3.530  13.708  0.3035 -0.3541 -0.5214
10059TIP3    H151592   6.561   3.523  13.713  0.3334 -0.5385 -0.1993
10059TIP3    H251593   6.689   3.465  13.769  0.6258  0.1587 -0.1362
10060TIP3   OH251594   2.327   2.029   4.840 -0.1441  0.0073  0.1545
10060TIP3    H151595   2.283   2.002   4.760 -1.8344 -1.8804  1.6231
10060TIP3    H251596   2.403   2.078   4.809  0.2208 -2.0338 -2.6732
10061TIP3   OH251597   2.542   2.759   0.709  0.4617  0.0024 -0.2792
10061TIP3    H151598   2.509   2.723   0.791 -0.2721  0.1508 -0.4940
10061TIP3    H251599   2.590   2.687   0.668  2.5666  0.5035  1.1740
10062TIP3   OH251600   1.286   6.653   1.159 -0.5685 -0.7858 -0.3359
10062TIP3    H151601   1.217   6.700   1.205  0.0619 -2.0763  2.0736
10062TIP3    H251602   1.261   6.561   1.163  1.3946 -1.3364  0.9077
10063TIP3   OH251603   1.431   1.738  16.079  0.7519  0.1778  0.5756
10063TIP3    H151604   1.351   1.692  16.105 -0.8435  1.9524 -0.9395
10063TIP3    H251605   1.425   1.823  16.123  1.5967  0.4987  0.0871
10064TIP3   OH251606   1.207   5.618  11.306 -0.4182 -0.5219  0.1458
10064TIP3    H151607   1.291   5.598  11.348  0.0071 -2.2960 -1.4108
10064TIP3    H251608   1.159   5.535  11.309 -2.1062  0.4231  0.8843
10065TIP3   OH251609   6.087   2.853  11.151 -0.5093  0.3664  0.0758
10065TIP3    H151610   6.112   2.769  11.113 -0.4627  0.2955  0.2637
10065TIP3    H251611   6.159   2.912  11.129 -0.1931  0.1718  0.5873
10066TIP3   OH251612   6.374   5.815   3.388  0.2159 -0.0664 -0.0802
10066TIP3    H151613   6.425   5.850   3.315  2.1162  0.2760  1.3304
10066TIP3    H251614   6.363   5.889   3.448 -1.1146 -0.3973  0.1237
10067TIP3   OH251615   4.760   1.231  15.636  0.1812 -0.0467 -0.6231
10067TIP3    H151616   4.763   1.165  15.705 -0.6496  0.3949 -0.1560
10067TIP3    H251617   4.843   1.279  15.645 -0.4646  0.8480  0.9300
10068TIP3   OH251618   2.639   2.957  12.135  0.0922  0.5708  0.1170
10068TIP3    H151619   2.559   2.914  12.164 -0.5667  1.4384 -0.3760
10068TIP3    H251620   2.684   2.980  12.217  1.3619 -2.5771  0.4243
10069TIP3   OH251621   3.250   0.780   2.037  0.3581 -0.4419  0.0814
10069TIP3    H151622   3.207   0.761   1.954  0.7605 -1.6639  0.1316
10069TIP3    H251623   3.225   0.707   2.094  0.7506 -0.0440  0.7747
10070TIP3   OH251624   2.285   0.515  15.545 -0.2018 -0.4653 -0.2014
10070TIP3    H151625   2.245   0.571  15.612  0.9077  0.8988 -0.6370
10070TIP3    H251626   2.377   0.541  15.543 -0.3738  0.2150 -2.8894
10071TIP3   OH251627   4.556   3.662  14.370  0.4329  0.7333 -0.8731
10071TIP3    H151628   4.645   3.651  14.403  0.5312  0.1394 -1.3448
10071TIP3    H251629   4.516   3.576  14.378 -0.7489  1.3904  1.1975
10072TIP3   OH251630   3.885   5.826  11.714 -0.2555  0.0649 -0.4203
10072TIP3    H151631   3.967   5.853  11.673 -1.3177  1.1481 -1.9232
10072TIP3    H251632   3.851   5.905  11.755 -1.8166  0.2876 -2.0702
10073TIP3   OH251633   3.259   1.474   3.930 -0.6565 -0.4703  0.0598
10073TIP3    H151634   3.273   1.465   3.836 -0.9142  1.0546 -0.1537
10073TIP3    H251635   3.184   1.534   3.937  2.1020  3.1948  1.1950
10074TIP3   OH251636   1.410   2.264  16.415 -0.4155  0.0345  0.4469
10074TIP3    H151637   1.460   2.252  16.496  0.1143  0.0350  0.1229
10074TIP3    H251638   1.415   2.179  16.371 -0.8946 -0.0330  0.5180
10075TIP3   OH251639   1.566   0.440   4.973 -0.1038 -0.1557 -0.4463
10075TIP3    H151640   1.488   0.397   4.938 -1.5221  0.7580  1.4437
10075TIP3    H251641   1.536   0.483   5.053  2.1371  1.0383 -0.1748
10076TIP3   OH251642   0.798   4.473  15.190 -0.0235 -0.1463 -0.1008
10076TIP3    H151643   0.852   4.411  15.141 -1.7696 -2.2841  0.5120
10076TIP3    H251644   0.841   4.482  15.274  0.6214  0.0372 -0.4481
10077TIP3   OH251645   0.613   0.245  14.046  0.0959  0.6600  0.4316
10077TIP3    H151646   0.669   0.254  14.123  0.5523  0.7843  0.0844
10077TIP3    H251647   0.625   0.326  13.998 -1.3468  1.2472  0.9806
10078TIP3   OH251648   0.053   0.439   4.357 -0.2743  0.2284  0.0366
10078TIP3    H151649   0.036   0.349   4.330  0.4124 -0.1617  0.8802
10078TIP3    H251650   0.037   0.491   4.278  1.2848 -0.8332 -1.0335
10079TIP3   OH251651   5.322   5.460  13.999  0.3409  0.1425  0.5426
10079TIP3    H151652   5.293   5.370  13.992 -0.0172  0.3865 -2.1419
10079TIP3    H251653   5.287   5.490  14.083 -1.4235 -1.5647  0.4913
10080TIP3   OH251654   2.249   1.047   4.556  0.0447  0.1610  0.3814
10080TIP3    H151655   2.217   0.965   4.519 -1.4644  0.9693 -0.2063
10080TIP3    H251656   2.173   1.083   4.602 -0.0871  2.3661 -1.3988
10081TIP3   OH251657   1.630   6.227   0.713 -0.0232 -0.0875 -0.3633
10081TIP3    H151658   1.571   6.299   0.689 -0.9489 -0.3045  1.1541
10081TIP3    H251659   1.682   6.262   0.786 -0.7545 -1.0557  0.6463
10082TIP3   OH251660   4.597   0.766  17.378  0.1633  0.3308  0.2824
10082TIP3    H151661   4.592   0.674  17.404 -1.7273  0.4125  0.3469
10082TIP3    H251662   4.609   0.764  17.284  2.1212  0.0531  0.4900
10083TIP3   OH251663   4.597   6.524  10.852  0.3290 -0.0011 -0.4630
10083TIP3    H151664   4.566   6.491  10.768  0.7188  0.4900 -0.8119
10083TIP3    H251665   4.688   6.550  10.834 -0.0117  1.4024 -0.2591
10084TIP3   OH251666   4.706   3.604  15.047 -0.4263 -0.4177  0.1063
10084TIP3    H151667   4.653   3.585  15.125 -0.4150 -1.5551 -0.1396
10084TIP3    H251668   4.642   3.621  14.978 -0.4496 -0.4642  0.1163
10085TIP3   OH251669   1.273   2.429   5.353  0.2853 -0.2800 -0.1562
10085TIP3    H151670   1.190   2.436   5.400  0.5093 -0.2259  0.2391
10085TIP3    H251671   1.248   2.421   5.261 -0.0935  2.3316 -0.3503
10086TIP3   OH251672   1.747   0.437  16.189  0.5712  0.5134  0.2438
10086TIP3    H151673   1.766   0.395  16.272 -1.5329  1.5485  1.3129
10086TIP3    H251674   1.797   0.519  16.192  1.5842 -0.0741 -0.1444
10087TIP3   OH251675   5.649   5.960  15.250 -0.3467 -0.0635  0.0110
10087TIP3    H151676   5.612   6.048  15.260 -1.0292 -0.3347 -0.0355
10087TIP3    H251677   5.693   5.943  15.333 -0.4837  0.2022  0.1418
10088TIP3   OH251678   1.364   1.967   3.761 -0.0572 -0.2561  0.1696
10088TIP3    H151679   1.313   2.047   3.754  0.5400  0.1396  0.2852
10088TIP3    H251680   1.336   1.929   3.845 -0.3124 -0.1477  0.1344
10089TIP3   OH251681   6.540   6.320  13.199  0.3286  0.0049 -0.1500
10089TIP3    H151682   6.566   6.381  13.131 -0.6747  0.9422  0.2646
10089TIP3    H251683   6.447   6.339  13.215  0.3127 -0.7700  0.8759
10090TIP3   OH251684   6.002   1.467  17.185 -0.5903 -0.2193 -0.2240
10090TIP3    H151685   5.963   1.479  17.099  0.5669  0.3709 -0.6890
10090TIP3    H251686   6.071   1.533  17.190  1.0006 -1.8190  0.1560
10091TIP3   OH251687   4.186   6.640  16.575 -0.4829 -0.3644  0.1141
10091TIP3    H151688   4.162   6.718  16.626  0.0891  0.4587 -0.8236
10091TIP3    H251689   4.179   6.669  16.484  2.8449 -0.3765 -0.2809
10092TIP3   OH251690   4.226   0.464   6.470 -0.3092  0.0128 -0.5044
10092TIP3    H151691   4.177   0.389   6.503  0.2732 -0.4983 -0.7794
10092TIP3    H251692   4.167   0.539   6.482 -0.5078 -0.3213  0.7090
10093TIP3   OH251693   4.315   1.073   5.047  0.0736 -0.9868 -0.5317
10093TIP3    H151694   4.307   1.165   5.072  2.0929 -1.1578  1.0845
10093TIP3    H251695   4.393   1.071   4.991 -1.3795 -1.4073 -2.6256
10094TIP3   OH251696   2.954   5.720  12.865  0.0684 -0.0457  0.3676
10094TIP3    H151697   3.020   5.676  12.811  1.4569 -0.0682  1.9565
10094TIP3    H251698   3.005   5.760  12.936 -1.6503 -0.3257  1.8498
10095TIP3   OH251699   4.406   3.863  15.000 -0.0977  0.1102  0.2070
10095TIP3    H151700   4.327   3.839  14.951  0.2727  1.2148 -0.9967
10095TIP3    H251701   4.378   3.863  15.092 -1.4485  0.2770 -0.1806
10096TIP3   OH251702   1.332   6.084  15.534  0.0475  0.4011 -0.4984
10096TIP3    H151703   1.409   6.065  15.480  0.3626  1.5096 -0.4556
10096TIP3    H251704   1.282   6.002  15.533 -0.7081  0.7478 -3.6894
10097TIP3   OH251705   3.376   3.485   2.665 -0.4303  0.3082 -0.1094
10097TIP3    H151706   3.364   3.409   2.608 -0.1930  1.4461 -1.7701
10097TIP3    H251707   3.459   3.524   2.636 -0.1737  0.7916  1.1996
10098TIP3   OH251708   3.481   1.347   4.148 -0.4968  0.3315  0.0584
10098TIP3    H151709   3.417   1.324   4.215  1.1948 -0.5002  1.4646
10098TIP3    H251710   3.544   1.403   4.192  1.5481 -1.5217 -0.3003
10099TIP3   OH251711   5.158   5.022  15.332  0.1821  0.2773  0.1188
10099TIP3    H151712   5.110   5.065  15.261  0.8909 -0.8960 -1.1383
10099TIP3    H251713   5.245   5.063  15.330  1.0093 -1.4086 -1.3854
10100TIP3   OH251714   3.351   4.705   3.201  0.0288 -0.1988 -0.0113
10100TIP3    H151715   3.331   4.641   3.270  0.8070 -0.8469 -0.3673
10100TIP3    H251716   3.403   4.656   3.138  0.5580  0.7653 -0.3426
10101TIP3   OH251717   5.439   3.564   5.181 -0.2872 -0.6836  0.1336
10101TIP3    H151718   5.418   3.553   5.088 -1.2268 -3.3528  0.5674
10101TIP3    H251719   5.504   3.496   5.199 -0.2399 -0.3050  1.4446
10102TIP3   OH251720   5.010   0.060   1.054  0.2863  0.4617 -0.5513
10102TIP3    H151721   5.085   0.003   1.037  0.0133  0.3521 -1.4466
10102TIP3    H251722   5.042   0.125   1.116  0.0327 -1.9216  2.2658
10103TIP3   OH251723   6.306   1.432   6.393  0.0733  0.8293 -0.1645
10103TIP3    H151724   6.258   1.514   6.398  0.5445  1.0318  2.1682
10103TIP3    H251725   6.396   1.456   6.416  0.2846 -0.2660  0.2155
10104TIP3   OH251726   2.057   0.837  11.149  0.3769 -0.6121  0.0609
10104TIP3    H151727   2.029   0.839  11.057  1.5762 -3.8390 -0.5205
10104TIP3    H251728   2.118   0.910  11.157 -0.6800  0.4903 -1.3213
10105TIP3   OH251729   5.865   4.548  14.915  0.2545  0.6816 -0.1629
10105TIP3    H151730   5.896   4.634  14.886  0.6489  0.6781  0.2340
10105TIP3    H251731   5.901   4.538  15.003 -0.3140  0.3768  0.0395
10106TIP3   OH251732   2.473   6.748  16.482 -0.4576  0.0584  0.4142
10106TIP3    H151733   2.407   6.684  16.511 -1.6138  1.7340  1.6506
10106TIP3    H251734   2.422   6.821  16.447  0.6570  1.6659  1.9563
10107TIP3   OH251735   0.203   0.265  13.473  0.5546  0.4366  0.5646
10107TIP3    H151736   0.143   0.335  13.448  0.6436 -0.7283 -3.8741
10107TIP3    H251737   0.290   0.307  13.474  0.8191  0.4179 -3.5494
10108TIP3   OH251738   4.642   0.464   3.858 -0.5019  0.8503 -0.7376
10108TIP3    H151739   4.732   0.436   3.841 -0.1792  1.1178  0.4374
10108TIP3    H251740   4.646   0.559   3.856 -1.1410  0.8570 -2.4879
10109TIP3   OH251741   0.370   2.381  15.798 -0.1923  0.2279  0.8135
10109TIP3    H151742   0.365   2.414  15.708 -1.3657  3.0286  1.8081
10109TIP3    H251743   0.282   2.395  15.833  0.3706 -0.3983  2.5590
10110TIP3   OH251744   0.227   3.849  15.644 -0.2017  0.3987 -0.1140
10110TIP3    H151745   0.211   3.847  15.550  3.2968  0.8475 -0.8562
10110TIP3    H251746   0.234   3.757  15.670 -2.5189  0.2302  0.0458
10111TIP3   OH251747   4.855   1.963   4.166  0.6765 -0.4568  0.3407
10111TIP3    H151748   4.911   1.889   4.190 -0.5102 -1.0250  1.4787
10111TIP3    H251749   4.842   2.012   4.247  3.3551  2.4581 -0.8062
10112TIP3   OH251750   4.764   5.502  17.031 -0.5721 -0.2507  0.7499
10112TIP3    H151751   4.819   5.436  17.074  1.2521  2.0109  2.1513
10112TIP3    H251752   4.684   5.505  17.083 -0.5262 -1.0794  0.8830
10113TIP3   OH251753   3.058   0.134   1.906  0.1754 -0.0192  0.1725
10113TIP3    H151754   2.980   0.083   1.925  0.2368 -0.0511  0.3376
10113TIP3    H251755   3.130   0.083   1.943  0.0403  1.2061  2.2611
10114TIP3   OH251756   4.096   5.871  14.036  0.1827  0.0551 -0.1879
10114TIP3    H151757   4.018   5.865  13.981  1.3252  0.4903 -1.9156
10114TIP3    H251758   4.115   5.781  14.062 -1.4597  0.0436  1.1346
10115TIP3   OH251759   1.455   4.935  16.370 -0.1779 -0.4956 -1.0220
10115TIP3    H151760   1.401   4.879  16.425  1.0877 -0.8023 -0.0661
10115TIP3    H251761   1.451   5.021  16.412 -0.6703 -0.2822 -1.4878
10116TIP3   OH251762   4.223   4.383   1.989  0.7276  0.0107 -0.1203
10116TIP3    H151763   4.234   4.462   2.042  2.1363  0.4135 -0.9529
10116TIP3    H251764   4.292   4.388   1.924  2.0105 -2.7679  0.8388
10117TIP3   OH251765   6.228   5.318   0.658 -0.2946 -0.2863 -0.0068
10117TIP3    H151766   6.171   5.267   0.601 -0.5048  0.4917 -0.5033
10117TIP3    H251767   6.305   5.337   0.604  0.2219 -0.8899  0.4915
10118TIP3   OH251768   5.175   1.305  11.462  0.3115  0.3899 -0.3436
10118TIP3    H151769   5.169   1.401  11.454 -0.8900  0.3648 -0.0376
10118TIP3    H251770   5.181   1.274  11.372  0.7934  0.7607 -0.4425
10119TIP3   OH251771   6.101   3.838   3.271 -0.2502 -0.2011  0.2059
10119TIP3    H151772   6.191   3.820   3.244 -0.2358  1.3649 -0.9462
10119TIP3    H251773   6.050   3.763   3.240  0.3445 -0.1073 -1.0380
10120TIP3   OH251774   1.561   1.413  14.643 -0.4293 -0.1429 -0.5502
10120TIP3    H151775   1.646   1.455  14.635 -0.8802  0.4750 -2.9052
10120TIP3    H251776   1.580   1.322  14.663  0.6229  0.6420  2.5249
10121TIP3   OH251777   2.335   2.318   3.271  0.3831  0.1320  0.2431
10121TIP3    H151778   2.248   2.352   3.293 -0.4307 -1.5855 -0.1144
10121TIP3    H251779   2.355   2.359   3.187 -0.9095 -0.7795 -0.5566
10122TIP3   OH251780   6.547   0.470  16.725 -0.2660  0.3977 -0.1276
10122TIP3    H151781   6.613   0.529  16.686  0.7945 -1.2208 -0.9123
10122TIP3    H251782   6.537   0.501  16.815  0.8360  1.3075 -0.2939
10123TIP3   OH251783   6.189   2.197  15.679 -0.6303  0.3193 -1.0846
10123TIP3    H151784   6.244   2.119  15.692  1.2968  1.6728 -0.6317
10123TIP3    H251785   6.109   2.178  15.727 -0.0667 -1.2454 -0.6902
10124TIP3   OH251786   1.195   6.340  13.598 -0.5696 -0.0713 -0.2146
10124TIP3    H151787   1.115   6.312  13.644  1.1663  0.4187  3.4617
10124TIP3    H251788   1.228   6.260  13.557 -1.2958 -1.0286  0.9979
10125TIP3   OH251789   2.062   6.037  14.134  0.2311  0.0787 -0.0987
10125TIP3    H151790   2.119   5.968  14.101 -1.1364 -2.6020  2.5880
10125TIP3    H251791   1.973   6.005  14.115 -0.4343  1.0628  1.2035
10126TIP3   OH251792   5.524   1.827   5.961 -0.2558  0.2249  0.1217
10126TIP3    H151793   5.445   1.786   5.997 -0.0680  1.1056  1.6094
10126TIP3    H251794   5.537   1.905   6.014  0.4218  1.2530 -1.4868
10127TIP3   OH251795   5.540   1.173  14.114 -0.3874 -0.3459  0.0772
10127TIP3    H151796   5.546   1.079  14.132 -0.2075 -0.6087 -1.2774
10127TIP3    H251797   5.450   1.186  14.083 -0.0623 -0.2896 -0.8658
10128TIP3   OH251798   3.154   0.790   1.224 -0.2288  0.2061  0.6304
10128TIP3    H151799   3.240   0.798   1.264  1.1197 -1.2524 -1.7487
10128TIP3    H251800   3.132   0.879   1.196  1.2243  0.3753 -0.0589
10129TIP3   OH251801   1.452   1.781   3.456 -0.1892 -0.0226  0.2478
10129TIP3    H151802   1.442   1.741   3.543  0.5239  0.5209  0.5846
10129TIP3    H251803   1.433   1.873   3.470 -0.1418  0.0554 -0.1966
10130TIP3   OH251804   2.518   2.416   1.109  0.2457  0.4208  0.4410
10130TIP3    H151805   2.513   2.423   1.204 -3.4559  1.5140  0.3067
10130TIP3    H251806   2.495   2.325   1.090  1.8677 -0.0506  0.5286
10131TIP3   OH251807   6.117   1.964  14.185 -0.1294 -0.5048  0.3881
10131TIP3    H151808   6.115   1.946  14.091 -0.1974 -0.1985  0.3306
10131TIP3    H251809   6.200   2.010  14.199 -1.1666  1.5829  0.0782
10132TIP3   OH251810   5.980   2.214  16.718  0.2798  0.6787  0.0050
10132TIP3    H151811   6.061   2.210  16.666  0.5942 -2.7340  0.5358
10132TIP3    H251812   6.002   2.170  16.800 -1.5141  1.8259  1.1800
10133TIP3   OH251813   5.357   1.640  14.766 -0.4279 -0.2031  0.1782
10133TIP3    H151814   5.289   1.599  14.820  1.1285 -2.4568  0.5388
10133TIP3    H251815   5.312   1.659  14.683 -1.4876 -1.8587  0.3206
10134TIP3   OH251816   0.120   1.246   4.348 -0.4102  0.2026  0.6110
10134TIP3    H151817   0.207   1.286   4.357 -0.2711 -0.1749  0.9544
10134TIP3    H251818   0.106   1.200   4.431 -1.3658  1.1017  0.9719
10135TIP3   OH251819   6.760   2.136   3.480  0.2529 -0.3332  0.6560
10135TIP3    H151820   6.806   2.082   3.416 -0.0486 -1.3967  1.3163
10135TIP3    H251821   6.774   2.226   3.450  1.5613 -0.7131  0.0603
10136TIP3   OH251822   2.057   5.077  11.130  0.4824  0.5529 -0.2371
10136TIP3    H151823   2.043   5.162  11.089  0.7184  0.3997 -0.6322
10136TIP3    H251824   2.121   5.033  11.075 -2.9601 -1.7458 -2.8303
10137TIP3   OH251825   5.610   4.896   0.913 -0.2052  0.1288 -0.3229
10137TIP3    H151826   5.676   4.841   0.870 -0.5973  0.7472 -1.7386
10137TIP3    H251827   5.527   4.853   0.896 -0.3332  0.1561  0.1947
10138TIP3   OH251828   0.498   3.099  16.982  0.4921  0.8950 -0.1364
10138TIP3    H151829   0.504   3.177  17.038 -1.6156 -0.8764  2.8124
10138TIP3    H251830   0.406   3.074  16.985  0.5648 -0.2477 -3.2728
10139TIP3   OH251831   3.041   1.630  15.051  0.4579  0.4480  0.7903
10139TIP3    H151832   3.090   1.565  15.001  0.1227  1.3553 -0.8284
10139TIP3    H251833   3.024   1.700  14.987  0.6352  2.0256  2.3896
10140TIP3   OH251834   6.291   3.447   4.361  0.5377  0.0771 -0.2451
10140TIP3    H151835   6.239   3.507   4.307  0.6232  2.2503  1.9009
10140TIP3    H251836   6.362   3.418   4.303  1.0049  2.7992 -1.1981
10141TIP3   OH251837   4.883   4.458  13.990  0.0364  0.0229 -0.1607
10141TIP3    H151838   4.850   4.496  13.909 -0.4250  1.1241  0.5268
10141TIP3    H251839   4.807   4.415  14.030 -0.0497  0.5799  0.2947
10142TIP3   OH251840   4.301   2.209   3.964  0.6629 -0.0220 -0.2246
10142TIP3    H151841   4.366   2.157   4.012 -0.5390 -0.6422  0.8024
10142TIP3    H251842   4.292   2.289   4.017 -1.1348 -0.9840  1.0133
10143TIP3   OH251843   4.432   3.672   1.818 -0.2687 -0.0063 -0.1754
10143TIP3    H151844   4.402   3.715   1.898  0.8979  3.8180 -1.5512
10143TIP3    H251845   4.526   3.690   1.815 -0.4836  1.1820 -2.9520
10144TIP3   OH251846   5.833   6.308   1.649  0.6116 -0.2860 -0.4140
10144TIP3    H151847   5.841   6.216   1.625 -0.1285 -1.0776  2.0260
10144TIP3    H251848   5.739   6.324   1.651  0.4770 -0.6978  2.8688
10145TIP3   OH251849   1.400   0.581   2.211  0.5486 -0.6825 -0.4585
10145TIP3    H151850   1.343   0.636   2.158 -1.2253 -1.8614  0.1327
10145TIP3    H251851   1.436   0.641   2.277 -0.9104 -0.0972 -0.1571
10146TIP3   OH251852   0.008   0.902  16.538  0.0161  0.0350  0.2875
10146TIP3    H151853   0.103   0.898  16.521  0.3728  0.4202  1.9983
10146TIP3    H251854  -0.000   0.966  16.609 -1.5932  0.3681 -0.1728
10147TIP3   OH251855   3.523   5.082   3.367  0.2578 -0.2625  0.1350
10147TIP3    H151856   3.612   5.111   3.347  1.1426 -2.1016  1.1792
10147TIP3    H251857   3.534   4.994   3.402 -2.0307 -0.6827 -0.0885
10148TIP3   OH251858   2.032   1.549  16.108  0.7243  0.0928 -0.0336
10148TIP3    H151859   2.089   1.612  16.152 -1.6528  2.0721  0.4341
10148TIP3    H251860   2.027   1.475  16.169 -0.9166  1.9439  2.2959
10149TIP3   OH251861   2.826   0.939   4.278  0.0136  0.1770  0.1588
10149TIP3    H151862   2.755   0.938   4.213  1.0746  1.4637 -1.1063
10149TIP3    H251863   2.896   0.987   4.235  0.8560  0.8941  2.2277
10150TIP3   OH251864   0.319   3.612  14.237 -0.5121  0.3909 -0.2421
10150TIP3    H151865   0.285   3.700  14.222 -1.8541 -0.0073  0.4150
10150TIP3    H251866   0.394   3.626  14.295 -0.1471  1.1677 -0.8627
10151TIP3   OH251867   3.191   0.212  14.479 -0.6123  0.3430 -0.1631
10151TIP3    H151868   3.230   0.143  14.533  0.6902  0.8826 -0.3798
10151TIP3    H251869   3.219   0.191  14.390  0.8339  1.7856 -0.0961
10152TIP3   OH251870   4.981   3.439  11.454 -0.0453  0.4536 -0.0709
10152TIP3    H151871   4.914   3.502  11.427 -0.1435 -0.4179 -2.0085
10152TIP3    H251872   4.931   3.363  11.483  0.0884  0.9165  1.4403
10153TIP3   OH251873   2.054   2.320   2.885  0.2021  0.2457 -0.2785
10153TIP3    H151874   2.053   2.252   2.952  0.4812  1.3134  0.8404
10153TIP3    H251875   2.147   2.332   2.865  0.0699 -1.4268 -2.3514
10154TIP3   OH251876   0.172   4.265   5.219 -0.5248  0.4222  0.1376
10154TIP3    H151877   0.186   4.262   5.124 -2.0575  0.7159 -0.1152
10154TIP3    H251878   0.240   4.208   5.255 -0.0102  0.2027 -1.1424
10155TIP3   OH251879   5.614   5.851   6.360 -0.3001  0.3401 -0.1531
10155TIP3    H151880   5.552   5.885   6.424 -0.3190  1.4055 -0.7098
10155TIP3    H251881   5.628   5.760   6.386 -3.2450 -0.4154 -0.8658
10156TIP3   OH251882   1.904   3.252  11.891  0.4166 -0.0332  0.5158
10156TIP3    H151883   1.843   3.280  11.824  1.5663  2.3512  0.3509
10156TIP3    H251884   1.985   3.300  11.872  1.5132 -1.0732  2.2270
10157TIP3   OH251885   5.438   6.009  16.391  0.0609 -0.1402 -0.1070
10157TIP3    H151886   5.533   5.998  16.402  0.0278 -0.9036 -0.4974
10157TIP3    H251887   5.424   5.993  16.297 -0.4417  0.0595 -0.0663
10158TIP3   OH251888   6.302   1.107  14.762  0.0494  0.0736 -0.2344
10158TIP3    H151889   6.212   1.109  14.792  0.1843  0.3237  0.1659
10158TIP3    H251890   6.347   1.049  14.823  0.2304  0.2233 -0.2245
10159TIP3   OH251891   6.556   6.699   0.913  0.0687 -1.3968 -0.6464
10159TIP3    H151892   6.602   6.616   0.912 -1.8276 -2.4984 -1.5302
10159TIP3    H251893   6.478   6.683   0.967  1.0040  0.6521  1.5445
10160TIP3   OH251894   5.888   4.582   4.991 -0.0484 -0.6459 -0.1391
10160TIP3    H151895   5.922   4.645   5.054  0.8984 -1.6148  0.3576
10160TIP3    H251896   5.806   4.551   5.030  0.8029 -1.6451  0.9145
10161TIP3   OH251897   2.926   3.923   5.733 -0.1785 -0.4470 -0.0010
10161TIP3    H151898   2.876   3.889   5.660 -0.0308 -0.8084  0.0669
10161TIP3    H251899   2.866   3.982   5.778 -0.5484 -0.8972  0.0937
10162TIP3   OH251900   6.072   5.545   0.715  0.0626  0.2899  0.0864
10162TIP3    H151901   6.130   5.470   0.702  0.3751  0.4755  0.3894
10162TIP3    H251902   5.992   5.507   0.753  1.2729  0.4042  3.0509
10163TIP3   OH251903   2.667   5.925  17.382 -0.0199  0.8508  0.7120
10163TIP3    H151904   2.624   5.870  17.447 -0.9072  1.3711  0.5867
10163TIP3    H251905   2.644   5.884  17.298  2.2609 -0.6264  0.7387
10164TIP3   OH251906   2.631   1.889  11.410 -0.3204  0.6236  0.0427
10164TIP3    H151907   2.652   1.822  11.345  0.2592  0.8608 -0.0206
10164TIP3    H251908   2.682   1.965  11.383 -1.2726  1.2221 -0.1110
10165TIP3   OH251909   4.837   6.260  10.999 -0.4625  0.2186 -0.1884
10165TIP3    H151910   4.879   6.283  11.081 -1.3909 -0.4938  0.5222
10165TIP3    H251911   4.743   6.258  11.020 -0.6894 -0.2916 -1.1778
10166TIP3   OH251912   5.168   5.577   1.272 -0.3126 -0.5225 -0.3139
10166TIP3    H151913   5.079   5.578   1.237 -0.8101 -0.4615  0.9098
10166TIP3    H251914   5.176   5.492   1.315  0.5045 -0.8543 -1.0856
10167TIP3   OH251915   0.927   1.323  15.302  0.2864 -0.1208 -0.2332
10167TIP3    H151916   0.899   1.261  15.369  0.8637 -0.0608  0.0657
10167TIP3    H251917   1.021   1.334  15.316  0.1001  1.2721  0.1046
10168TIP3   OH251918   0.413   3.160   3.706 -0.1453  0.5890 -0.1818
10168TIP3    H151919   0.385   3.082   3.755  1.6829  1.6037  2.7205
10168TIP3    H251920   0.363   3.232   3.746  0.9405  1.3692 -0.1914
10169TIP3   OH251921   6.251   5.927   4.892 -0.0133  0.0569  0.2761
10169TIP3    H151922   6.333   5.973   4.874 -1.0715  1.8317 -0.3404
10169TIP3    H251923   6.202   5.933   4.809 -0.3786 -1.8615  0.3074
10170TIP3   OH251924   2.856   1.447  12.651 -0.0367 -0.3583  0.0292
10170TIP3    H151925   2.888   1.512  12.588  0.5022 -1.3592 -0.7598
10170TIP3    H251926   2.812   1.499  12.718 -1.4397  0.6919 -1.6127
10171TIP3   OH251927   4.095   0.823   4.375  0.2363 -0.0144 -0.5131
10171TIP3    H151928   4.032   0.894   4.388  1.7469  1.3996 -0.6197
10171TIP3    H251929   4.105   0.816   4.280 -2.6948 -3.0197 -0.7982
10172TIP3   OH251930   4.460   2.424   2.281  0.8585  0.1045 -0.4005
10172TIP3    H151931   4.506   2.509   2.285 -0.7788  1.0021  0.1054
10172TIP3    H251932   4.385   2.441   2.223  1.1817 -1.3641 -1.3034
10173TIP3   OH251933   4.874   5.910   0.460  0.1996  0.1471 -0.3667
10173TIP3    H151934   4.943   5.862   0.414 -2.5241 -2.0345 -2.5623
10173TIP3    H251935   4.866   5.993   0.412  2.0910  1.0685  0.7861
10174TIP3   OH251936   2.905   1.413   6.258  0.5810 -0.2143  0.3780
10174TIP3    H151937   2.904   1.319   6.274 -1.9253 -0.2521  0.4052
10174TIP3    H251938   2.991   1.442   6.288  1.1791 -2.3867  0.9311
10175TIP3   OH251939   4.860   4.942  14.699 -0.1422 -0.2434 -0.3765
10175TIP3    H151940   4.934   4.970  14.753 -0.6116  0.0186  0.1433
10175TIP3    H251941   4.834   5.019  14.650  1.0198 -0.7726 -1.8778
10176TIP3   OH251942   5.701   0.396  15.181  0.6571  0.0716  0.2797
10176TIP3    H151943   5.726   0.434  15.266  0.8386  1.4534 -0.3694
10176TIP3    H251944   5.783   0.390  15.132  0.4582 -0.1331 -0.0359
10177TIP3   OH251945   5.883   6.179  12.342  0.3848 -0.0653 -0.1204
10177TIP3    H151946   5.875   6.210  12.252 -0.6884  0.7242  0.2364
10177TIP3    H251947   5.972   6.143  12.347  0.6819  0.4710 -1.3030
10178TIP3   OH251948   6.690   0.592   4.142  0.0094 -0.1405 -0.1551
10178TIP3    H151949   6.621   0.603   4.208  0.1906 -1.3968  0.2584
10178TIP3    H251950   6.644   0.597   4.059 -0.6764 -1.4311  0.1204
10179TIP3   OH251951   1.374   6.234  13.226 -0.0758  0.1087 -0.2646
10179TIP3    H151952   1.338   6.258  13.311 -0.5086 -0.0819 -0.3910
10179TIP3    H251953   1.326   6.288  13.163 -1.4893 -1.4797 -0.6151
10180TIP3   OH251954   3.182   2.594  10.483  0.5989 -0.4977 -0.3285
10180TIP3    H151955   3.267   2.620  10.449  0.2991 -0.1810 -0.8623
10180TIP3    H251956   3.156   2.667  10.540  0.7417 -0.6553 -0.0599
10181TIP3   OH251957   1.956   3.537  17.327  0.7663  0.1146  0.2927
10181TIP3    H151958   1.964   3.443  17.316 -0.8609 -0.4574  3.1007
10181TIP3    H251959   2.028   3.560  17.386  1.3711  0.7279 -0.6583
10182TIP3   OH251960   4.006   3.500   4.347  0.3569 -0.7326 -0.3597
10182TIP3    H151961   4.040   3.586   4.323 -3.5296  0.3752 -3.0437
10182TIP3    H251962   4.029   3.444   4.273 -2.6874 -0.0950 -1.9566
10183TIP3   OH251963   1.928   5.410  12.354  0.0869  0.2171  0.0475
10183TIP3    H151964   1.981   5.489  12.358  0.4408  0.3778 -3.7684
10183TIP3    H251965   1.989   5.342  12.325 -0.8605 -0.6440  0.0162
10184TIP3   OH251966   4.630   2.805   3.111  0.3732 -0.1105 -0.0138
10184TIP3    H151967   4.699   2.786   3.174  0.9714  0.2400 -0.5582
10184TIP3    H251968   4.606   2.896   3.128 -0.1011 -0.2884  0.3038
10185TIP3   OH251969   0.805   4.513  13.173 -0.1386  0.6622 -0.2496
10185TIP3    H151970   0.785   4.473  13.089  2.1059  0.6608 -0.8344
10185TIP3    H251971   0.797   4.607  13.158  1.0245  0.7021 -0.7144
10186TIP3   OH251972   2.744   6.504   4.710 -0.4864  0.2772 -0.1702
10186TIP3    H151973   2.700   6.449   4.774  1.5801  1.0883  2.0971
10186TIP3    H251974   2.800   6.561   4.762  0.9821  1.3057 -2.6994
10187TIP3   OH251975   3.038   1.956   0.867 -0.0092 -0.0176 -0.0068
10187TIP3    H151976   2.958   1.969   0.919  0.3544  0.9790  0.3125
10187TIP3    H251977   3.035   1.863   0.843 -1.4302  0.0719 -0.2674
10188TIP3   OH251978   1.932   0.380  12.419  0.2191  0.1707  0.0289
10188TIP3    H151979   1.996   0.310  12.435  2.2536  0.9549 -3.6469
10188TIP3    H251980   1.984   0.461  12.423 -0.7348  0.9212 -1.8973
10189TIP3   OH251981   5.351   6.141  12.886  0.0806 -0.1423 -0.3098
10189TIP3    H151982   5.336   6.095  12.969 -0.7153 -0.1247 -0.4336
10189TIP3    H251983   5.269   6.132  12.838  0.5762 -0.2624 -1.1587
10190TIP3   OH251984   6.512   6.561   1.842 -0.5814 -0.4932 -0.3069
10190TIP3    H151985   6.515   6.478   1.889 -1.2562 -0.1612  0.3319
10190TIP3    H251986   6.604   6.581   1.822 -0.5123 -2.1288 -1.8068
10191TIP3   OH251987   1.621   0.862  15.048  0.1929  0.4276 -0.5419
10191TIP3    H151988   1.632   0.767  15.047 -0.0535  0.3830  0.1470
10191TIP3    H251989   1.567   0.881  14.972  0.6686  0.0759 -0.9757
10192TIP3   OH251990   0.421   3.797  16.683 -0.3185 -0.4580 -0.6705
10192TIP3    H151991   0.400   3.706  16.664 -0.8792 -0.6304  0.6528
10192TIP3    H251992   0.360   3.848  16.629 -1.3812 -0.9128  0.0584
10193TIP3   OH251993   3.802   0.632  13.245  0.4423 -0.0340 -0.0789
10193TIP3    H151994   3.873   0.595  13.297 -0.1770 -0.3931  0.5242
10193TIP3    H251995   3.725   0.580  13.268  0.1127 -0.0878 -1.2280
10194TIP3   OH251996   2.215   2.919  16.616  0.4191 -0.1841 -0.1695
10194TIP3    H151997   2.138   2.875  16.651 -0.1938  2.5641  2.2941
10194TIP3    H251998   2.288   2.884  16.668  0.2064  0.2562  0.4363
10195TIP3   OH251999   5.972   4.144   3.607 -0.2467 -0.0520  0.2849
10195TIP3    H152000   6.028   4.211   3.645  0.1451 -0.4635  0.4326
10195TIP3    H252001   5.983   4.154   3.512  0.9690 -0.8789  0.3245
10196TIP3   OH252002   1.571   0.117  13.770 -0.3939 -0.2180 -0.7060
10196TIP3    H152003   1.666   0.126  13.778 -0.6167  0.8623  1.2909
10196TIP3    H252004   1.555   0.112  13.676  1.5698  0.4095 -1.1147
10197TIP3   OH252005   0.297   3.746  15.989  0.3836  0.0688 -0.3728
10197TIP3    H152006   0.294   3.650  15.986  2.5583 -0.1441  1.2212
10197TIP3    H252007   0.223   3.770  16.045  0.7846 -0.8589  0.6154
10198TIP3   OH252008   5.490   5.814   5.822  0.1718 -0.3076  0.6824
10198TIP3    H152009   5.501   5.749   5.753  0.3438 -1.5020  1.8031
10198TIP3    H252010   5.556   5.881   5.803  0.3785 -0.7355 -0.1602
10199TIP3   OH252011   6.408   2.039   4.608  0.1294  0.1166 -0.0088
10199TIP3    H152012   6.455   1.958   4.591  1.0038  1.1036 -3.0103
10199TIP3    H252013   6.443   2.070   4.692  1.0269 -1.7387  0.3529
10200TIP3   OH252014   1.835   5.112  13.403 -0.1721 -0.1316  0.4519
10200TIP3    H152015   1.812   5.179  13.338  2.9105  0.4607 -0.2129
10200TIP3    H252016   1.771   5.043  13.391 -0.5964  0.6156 -2.2406
10201TIP3   OH252017   3.576   6.229   2.252 -0.4336  0.0503  0.5130
10201TIP3    H152018   3.488   6.206   2.282 -0.8590  1.6177  0.5560
10201TIP3    H252019   3.562   6.284   2.175  0.4589  1.0567  1.0401
10202TIP3   OH252020   0.122   6.288  17.303  0.3427 -0.3269 -0.0076
10202TIP3    H152021   0.076   6.217  17.348 -0.8488  0.4715  0.0858
10202TIP3    H252022   0.212   6.281  17.333  0.3507 -2.0370 -0.3023
10203TIP3   OH252023   0.934   0.501  14.063  0.1965 -1.3374  0.0777
10203TIP3    H152024   0.938   0.444  13.986  0.7276  1.2216 -1.9798
10203TIP3    H252025   0.841   0.513  14.080 -0.1216  0.3819 -2.2227
10204TIP3   OH252026   3.935   6.622   2.422  0.0553  0.3376 -0.3279
10204TIP3    H152027   4.020   6.605   2.380  0.6209  0.2598  0.7865
10204TIP3    H252028   3.886   6.541   2.410  0.2695  0.2600 -0.6989
10205TIP3   OH252029   3.189   1.251   3.436  0.0008  0.4991  0.1041
10205TIP3    H152030   3.259   1.208   3.485  0.6798  1.2809 -0.1507
10205TIP3    H252031   3.179   1.199   3.357  0.1322  0.2465  0.2517
10206TIP3   OH252032   1.724   5.080   5.343  0.4016 -0.5466  0.2149
10206TIP3    H152033   1.706   5.131   5.422  0.4797  0.4290 -0.3824
10206TIP3    H252034   1.820   5.073   5.340  0.3974 -0.6090  0.2186
10207TIP3   OH252035   4.940   4.674  15.386  0.7767  0.7769  0.5966
10207TIP3    H152036   4.866   4.701  15.331  3.1229  1.6208 -2.3974
10207TIP3    H252037   4.923   4.582  15.406  0.5740 -0.1416 -3.1265
10208TIP3   OH252038   2.755   5.754   2.081 -0.1600 -0.3144  0.5742
10208TIP3    H152039   2.827   5.803   2.041  0.1416 -2.1994 -1.4123
10208TIP3    H252040   2.771   5.663   2.055 -1.0112 -1.4421  3.5901
10209TIP3   OH252041   2.604   1.926   1.689 -0.4493  0.1160 -0.3106
10209TIP3    H152042   2.669   1.923   1.760  0.3008  1.8860 -0.8621
10209TIP3    H252043   2.549   1.850   1.704  1.0085 -0.7606  0.9122
10210TIP3   OH252044   5.475   6.530   2.956 -0.5952 -0.0582 -0.0114
10210TIP3    H152045   5.424   6.553   2.878 -3.5015 -1.9472  1.1341
10210TIP3    H252046   5.477   6.434   2.956  0.5366 -0.0719  1.5180
10211TIP3   OH252047   2.204   0.213  14.886 -0.2005 -0.3918 -0.2876
10211TIP3    H152048   2.233   0.196  14.797  0.8697 -0.9416  0.1461
10211TIP3    H252049   2.277   0.259  14.927 -1.7894  2.5231 -0.4897
10212TIP3   OH252050   5.431   3.385  12.366  0.2432  0.0567  0.1442
10212TIP3    H152051   5.405   3.396  12.458 -0.1453 -0.3010  0.0799
10212TIP3    H252052   5.471   3.468  12.342 -0.3573  0.4261  0.4058
10213TIP3   OH252053   0.890   1.142   4.554  0.3007  0.3093  0.0621
10213TIP3    H152054   0.827   1.201   4.596  0.1605  0.3740 -0.2378
10213TIP3    H252055   0.836   1.081   4.504  0.3645 -0.9556  1.4699
10214TIP3   OH252056   2.234   3.155  16.000  0.6416 -0.5100  0.3064
10214TIP3    H152057   2.154   3.131  15.953  0.2055  0.5707  0.4900
10214TIP3    H252058   2.260   3.074  16.045  0.2388 -1.1484 -0.5750
10215TIP3   OH252059   0.280   5.438   1.885  0.3467 -0.9180  0.1601
10215TIP3    H152060   0.312   5.421   1.797  0.4550 -0.9127  0.1982
10215TIP3    H252061   0.356   5.471   1.933  0.1520 -0.3742  0.1011
10216TIP3   OH252062   4.002   4.704   3.874 -0.1505  0.2024 -0.0954
10216TIP3    H152063   4.072   4.639   3.879  0.5571  0.9109 -0.5078
10216TIP3    H252064   3.971   4.712   3.965  0.0413 -0.3899  0.0282
10217TIP3   OH252065   5.312   1.310   5.611 -0.2054 -0.2374  0.0272
10217TIP3    H152066   5.400   1.302   5.576 -0.2652  4.3055 -1.8048
10217TIP3    H252067   5.258   1.256   5.553  1.1718 -2.8871  1.0379
10218TIP3   OH252068   1.519   1.165   4.924 -0.1056  0.0468  0.0076
10218TIP3    H152069   1.454   1.207   4.981  1.4126  1.3515  0.8760
10218TIP3    H252070   1.468   1.107   4.867 -1.8974  0.2718  1.3085
10219TIP3   OH252071   0.250   0.190  11.517  0.3431  0.0772  0.4615
10219TIP3    H152072   0.243   0.223  11.427 -2.8913  0.3609  0.7152
10219TIP3    H252073   0.241   0.095  11.508  0.3050  0.0797  0.4751
10220TIP3   OH252074   1.188   0.568  14.151 -0.0899  0.4156 -0.0544
10220TIP3    H152075   1.103   0.540  14.117 -0.1692  1.8198 -1.0957
10220TIP3    H252076   1.240   0.587  14.072  0.6418  1.1447  0.5889
10221TIP3   OH252077   3.307   0.971  12.036 -0.3391  0.4872 -0.2933
10221TIP3    H152078   3.294   1.065  12.049 -1.6529  0.3199 -0.3202
10221TIP3    H252079   3.261   0.951  11.955  0.9842  0.0266 -0.9707
10222TIP3   OH252080   3.328   5.338  17.050  0.5359  0.5911  0.4893
10222TIP3    H152081   3.355   5.251  17.079  0.7633 -0.3425 -2.2278
10222TIP3    H252082   3.391   5.398  17.091  1.8329 -0.7651  0.5769
10223TIP3   OH252083   3.548   1.851   0.577  0.3612 -0.1057  0.0966
10223TIP3    H152084   3.587   1.846   0.664 -1.2128  1.5617  0.9701
10223TIP3    H252085   3.453   1.854   0.593 -0.1388 -2.5970 -1.8475
10224TIP3   OH252086   5.655   1.820   0.228 -0.4575  0.3641  0.1306
10224TIP3    H152087   5.692   1.793   0.144  1.2231 -0.8389  1.1876
10224TIP3    H252088   5.700   1.902   0.249 -0.3818  0.3110  0.1743
10225TIP3   OH252089   2.104   4.827   2.905 -0.3493 -0.1594  0.1085
10225TIP3    H152090   2.071   4.914   2.883 -1.5750 -0.6540 -0.0971
10225TIP3    H252091   2.117   4.785   2.820 -0.3858 -0.3952  0.2201
10226TIP3   OH252092   3.260   4.914   4.842  0.9224 -0.0081  0.7116
10226TIP3    H152093   3.336   4.861   4.820  0.6738  0.2680 -0.9424
10226TIP3    H252094   3.191   4.851   4.861  1.3426 -0.2593  1.4236
10227TIP3   OH252095   0.726   4.071  10.603  0.6174 -0.0233  0.2754
10227TIP3    H152096   0.809   4.026  10.618  0.6299 -0.2351 -0.3900
10227TIP3    H252097   0.751   4.160  10.579  0.6603 -0.1398 -0.1138
10228TIP3   OH252098   1.713   5.542  16.609  0.1526 -0.1420 -0.1716
10228TIP3    H152099   1.648   5.539  16.679  1.1358 -1.3068  0.7258
10228TIP3    H252100   1.793   5.573  16.651  0.3806  0.5846 -1.1086
10229TIP3   OH252101   2.267   0.343  15.165  0.1842  0.4740 -0.4678
10229TIP3    H152102   2.354   0.378  15.184 -0.8331  2.4511  0.8294
10229TIP3    H252103   2.245   0.291  15.243  0.4892 -0.6566 -1.1208
10230TIP3   OH252104   4.823   1.955  13.977  0.0653 -0.0197  0.1944
10230TIP3    H152105   4.860   1.995  13.898 -2.0300  2.2128  0.2377
10230TIP3    H252106   4.893   1.960  14.042  1.0441  0.2373 -0.8467
10231TIP3   OH252107   5.740   1.072   1.146 -0.3476  0.5448  0.1876
10231TIP3    H152108   5.746   1.161   1.112  0.9600  0.8472  1.1047
10231TIP3    H252109   5.790   1.019   1.084  0.0863  0.7053  0.3946
10232TIP3   OH252110   2.233   1.707  17.210  0.2031  0.7782 -0.1950
10232TIP3    H152111   2.315   1.698  17.259 -0.2724 -2.3110  0.2848
10232TIP3    H252112   2.170   1.741  17.272  0.4786  0.4537  0.2659
10233TIP3   OH252113   6.732   3.881   5.286 -0.3223 -0.0596 -0.8561
10233TIP3    H152114   6.746   3.937   5.209  0.6170 -0.8784 -1.3100
10233TIP3    H252115   6.656   3.827   5.262  0.6483 -1.0896 -1.6993
10234TIP3   OH252116   5.571   2.760   1.170  0.2195 -0.1507 -0.2278
10234TIP3    H152117   5.545   2.778   1.079 -1.0862 -0.2444  0.1028
10234TIP3    H252118   5.657   2.801   1.179  0.7557 -0.8693 -1.7462
10235TIP3   OH252119   3.046   3.614  15.242  0.3752 -0.0076 -0.2622
10235TIP3    H152120   3.012   3.676  15.307 -0.1688 -0.0426 -0.5067
10235TIP3    H252121   2.993   3.536  15.253  0.2683 -0.0075 -0.7599
10236TIP3   OH252122   2.765   4.504  12.148 -0.4613 -0.5341  0.1864
10236TIP3    H152123   2.805   4.574  12.200  1.0344  0.7093 -2.4456
10236TIP3    H252124   2.826   4.431  12.155 -1.4105 -1.2205  1.9308
10237TIP3   OH252125   6.086   3.420   3.367 -0.0616 -0.0742 -0.4848
10237TIP3    H152126   6.118   3.333   3.341 -0.3133  0.3185 -2.2727
10237TIP3    H252127   5.992   3.416   3.350 -0.3896 -0.0142  1.1778
10238TIP3   OH252128   6.492   5.388  11.117 -0.6471 -0.4967 -1.3792
10238TIP3    H152129   6.461   5.397  11.207  2.4037  0.1701 -0.2712
10238TIP3    H252130   6.467   5.470  11.075 -3.9739 -1.6204 -1.9229
10239TIP3   OH252131   2.645   0.903   4.926  0.2661  0.3567 -0.8828
10239TIP3    H152132   2.732   0.930   4.896  0.5256  0.0028 -0.4463
10239TIP3    H252133   2.588   0.919   4.850  0.8276 -0.0346 -1.3944
10240TIP3   OH252134   2.269   1.136  14.715 -0.4353  0.2783 -0.3162
10240TIP3    H152135   2.204   1.086  14.666 -0.3556  0.0958 -0.2349
10240TIP3    H252136   2.278   1.090  14.798 -0.1644  0.2734 -0.3485
10241TIP3   OH252137   6.455   3.493  14.027 -0.3317  0.0319  0.3217
10241TIP3    H152138   6.515   3.525  14.095 -1.1307 -1.3262  1.7473
10241TIP3    H252139   6.410   3.419  14.068 -0.3802 -1.2886 -1.9378
10242TIP3   OH252140   1.425   1.616  11.445 -0.5040 -0.1289  0.0872
10242TIP3    H152141   1.498   1.599  11.504  0.7988 -3.3946 -2.1736
10242TIP3    H252142   1.360   1.549  11.467  0.2699 -1.8336 -2.3684
10243TIP3   OH252143   5.660   1.884  16.927  0.5261 -0.3324  0.0766
10243TIP3    H152144   5.657   1.937  17.007 -0.5943  0.3372 -0.3939
10243TIP3    H252145   5.706   1.939  16.863  1.3335 -0.8291  0.2027
10244TIP3   OH252146   0.397   3.181   5.231 -0.4005  0.1170 -0.0523
10244TIP3    H152147   0.347   3.255   5.197 -0.7693 -0.1109 -0.0124
10244TIP3    H252148   0.331   3.121   5.264 -0.0766  0.0072  0.4007
10245TIP3   OH252149   4.626   1.246   6.274  0.5677 -0.4971 -0.8275
10245TIP3    H152150   4.601   1.319   6.331  1.8825  0.5848 -1.5915
10245TIP3    H252151   4.543   1.209   6.244 -0.1563 -0.6686  1.2027
10246TIP3   OH252152   5.555   2.810   3.282  0.3764 -0.5579 -0.1354
10246TIP3    H152153   5.554   2.783   3.191 -1.7124  0.1178 -0.3766
10246TIP3    H252154   5.502   2.745   3.328 -1.1570  0.7283  0.0134
10247TIP3   OH252155   6.655   5.193  10.407  0.2291  0.1040 -0.4708
10247TIP3    H152156   6.580   5.228  10.359  0.7389  0.5798 -0.9374
10247TIP3    H252157   6.718   5.265  10.409  0.1611  0.1500  1.0646
10248TIP3   OH252158   5.475   0.354  13.197  0.4647 -0.8460 -0.1777
10248TIP3    H152159   5.562   0.382  13.227 -0.2453  0.1074  1.0451
10248TIP3    H252160   5.468   0.389  13.108  1.1114 -0.4475 -0.0808
10249TIP3   OH252161   3.507   4.069  16.814  0.0752 -0.2705  0.1346
10249TIP3    H152162   3.590   4.022  16.829  0.8788  1.1222  0.1853
10249TIP3    H252163   3.508   4.141  16.876 -0.6293  0.4599 -0.6806
10250TIP3   OH252164   4.733   0.538   5.202  0.5464  0.1160 -0.1434
10250TIP3    H152165   4.793   0.598   5.158  0.2563  2.3346  2.2632
10250TIP3    H252166   4.645   0.567   5.175  0.4451 -0.0613 -0.0099
10251TIP3   OH252167   1.827   6.076   5.649 -0.3135  0.0539  0.3618
10251TIP3    H152168   1.839   6.030   5.566 -0.3773 -0.8207  0.8285
10251TIP3    H252169   1.819   6.168   5.624 -0.8279 -0.2460 -0.6409
10252TIP3   OH252170   6.204   0.413  12.508 -0.1938  0.0667  0.0564
10252TIP3    H152171   6.291   0.434  12.474  0.6665  0.2893  2.2031
10252TIP3    H252172   6.156   0.380  12.433  1.2123  1.4817 -1.5540
10253TIP3   OH252173   2.219   3.157   3.125  0.2017  0.1853  0.4009
10253TIP3    H152174   2.255   3.147   3.213  2.2524  1.0669 -0.2689
10253TIP3    H252175   2.296   3.166   3.068 -1.0564 -0.4140 -1.5061
10254TIP3   OH252176   3.899   0.847   5.589 -0.0473 -0.1524 -0.4604
10254TIP3    H152177   3.979   0.898   5.579 -0.6536  0.9437  0.1236
10254TIP3    H252178   3.928   0.756   5.584  0.9046  0.2069 -2.7326
10255TIP3   OH252179   3.425   3.280  13.685  0.1139  0.0440 -0.7821
10255TIP3    H152180   3.376   3.323  13.615 -1.9443  0.1165  0.6068
10255TIP3    H252181   3.445   3.350  13.747  1.6176 -0.0808 -1.0719
10256TIP3   OH252182   6.446   4.792   4.061  0.0627  0.2216  0.1260
10256TIP3    H152183   6.364   4.799   4.111 -0.7177  0.7298 -1.1784
10256TIP3    H252184   6.429   4.723   3.997  0.7823  0.1108  0.0465
10257TIP3   OH252185   5.174   5.874  12.300 -0.1926 -0.7390  0.0598
10257TIP3    H152186   5.144   5.846  12.213 -1.6957 -1.6706  0.8314
10257TIP3    H252187   5.123   5.953  12.319  0.6606 -0.1199 -0.1904
10258TIP3   OH252188   4.002   4.489  14.656  0.0764  0.1126 -0.1348
10258TIP3    H152189   3.946   4.565  14.671 -0.7161 -0.2543 -1.0750
10258TIP3    H252190   3.945   4.414  14.674  0.3236 -0.2655 -0.8879
10259TIP3   OH252191   1.553   3.282   3.598  0.1307  0.0518  0.3402
10259TIP3    H152192   1.591   3.316   3.516 -1.0190 -0.5390 -0.4635
10259TIP3    H252193   1.539   3.361   3.651  1.1646  0.4166  0.1078
10260TIP3   OH252194   6.211   4.473  16.256  0.3008 -0.0294 -0.0939
10260TIP3    H152195   6.252   4.498  16.173  0.7616 -0.0732  0.1148
10260TIP3    H252196   6.284   4.441  16.309 -0.2384 -1.6120 -0.2778
10261TIP3   OH252197   1.731   5.248  15.666  0.2053  0.0435  0.2675
10261TIP3    H152198   1.702   5.182  15.728  0.4143 -0.3824 -0.0756
10261TIP3    H252199   1.761   5.197  15.590  0.4050  0.5317  0.0151
10262TIP3   OH252200   0.472   3.823  15.791  0.5664 -0.2369 -0.4676
10262TIP3    H152201   0.438   3.819  15.702  0.1046  0.8878 -0.3532
10262TIP3    H252202   0.396   3.810  15.847  0.8354 -0.8209 -0.2303
10263TIP3   OH252203   4.850   1.622  17.033 -0.0574  0.5569  0.8631
10263TIP3    H152204   4.868   1.569  17.110  0.9506 -0.1402  0.1748
10263TIP3    H252205   4.773   1.581  16.993  0.4268 -0.1128  0.6007
10264TIP3   OH252206   5.860   4.280   1.850 -0.3417  0.3677 -0.0338
10264TIP3    H152207   5.877   4.187   1.866 -2.7477 -0.1285  0.0176
10264TIP3    H252208   5.820   4.311   1.931  0.7641  1.5827  0.0828
10265TIP3   OH252209   3.676   3.604   3.931 -0.2617  0.2086 -0.1297
10265TIP3    H152210   3.674   3.525   3.877  0.4586  1.0783 -1.5077
10265TIP3    H252211   3.766   3.637   3.922  0.7815 -1.0247  3.8669
10266TIP3   OH252212   1.036   2.160  15.110 -0.0983 -0.3197  0.1875
10266TIP3    H152213   1.087   2.225  15.063  0.5222 -0.3498  0.7963
10266TIP3    H252214   1.102   2.098  15.144 -0.6210 -0.8988  0.1596
10267TIP3   OH252215   4.209   0.270  13.448 -0.0265  0.9243  0.1310
10267TIP3    H152216   4.291   0.297  13.488  0.2134  1.7560 -0.8644
10267TIP3    H252217   4.179   0.348  13.401 -1.3605  0.6110  0.4297
10268TIP3   OH252218   3.234   0.029   6.144 -0.4800 -0.2492 -0.0312
10268TIP3    H152219   3.148   0.032   6.186  0.9352 -0.3752  3.1893
10268TIP3    H252220   3.259   0.121   6.136 -0.4507 -0.2480  0.0749
10269TIP3   OH252221   1.874   0.949  15.162  0.0390  0.1392 -0.1201
10269TIP3    H152222   1.800   0.919  15.109 -0.3459  0.1406  0.4138
10269TIP3    H252223   1.907   0.870  15.205 -1.0665  0.4517  1.4012
10270TIP3   OH252224   3.239   0.369  12.264  0.8591 -0.2574  0.2893
10270TIP3    H152225   3.296   0.397  12.193  1.9684 -1.1460  0.7944
10270TIP3    H252226   3.277   0.286  12.294 -0.0648 -0.3178  1.3711
10271TIP3   OH252227   0.761   3.341   1.135 -0.4830 -0.0016 -0.3386
10271TIP3    H152228   0.745   3.267   1.076 -2.3940  0.4382 -0.4256
10271TIP3    H252229   0.800   3.408   1.078 -0.9303 -0.1118 -0.7850
10272TIP3   OH252230   0.600   6.411   1.568  0.2528  0.4729 -0.2419
10272TIP3    H152231   0.608   6.384   1.660 -1.9092  2.6231  0.7117
10272TIP3    H252232   0.614   6.506   1.571 -0.2863  0.6411 -2.0702
10273TIP3   OH252233   3.368   2.014  14.871 -0.1625  0.4187  0.8283
10273TIP3    H152234   3.302   2.037  14.936 -0.6495  0.4315  0.3372
10273TIP3    H252235   3.347   1.924  14.846  1.0390 -0.1947  1.8990
10274TIP3   OH252236   0.847   0.748   0.000 -0.3576 -0.2320 -0.2261
10274TIP3    H152237   0.846   0.709   0.087  0.9507  1.2908  0.5340
10274TIP3    H252238   0.894   0.686  -0.054  1.2388 -0.0027  0.8273
10275TIP3   OH252239   1.285   2.270  14.975  0.2320  0.0599  0.3995
10275TIP3    H152240   1.288   2.355  14.931  0.7248 -0.8517 -1.4377
10275TIP3    H252241   1.341   2.214  14.922 -1.0929 -1.7495  0.8152
10276TIP3   OH252242   1.271   5.477   1.661 -0.0266  0.3423  0.1872
10276TIP3    H152243   1.211   5.407   1.687  0.5346  0.2310  1.2055
10276TIP3    H252244   1.301   5.451   1.574  0.3491 -0.8181  0.6467
10277TIP3   OH252245   0.317   6.409   3.313 -0.4077  0.8798  0.0894
10277TIP3    H152246   0.229   6.409   3.274 -2.3691  1.7817  3.9684
10277TIP3    H252247   0.326   6.322   3.351  0.1166  0.9804  0.1928
10278TIP3   OH252248   1.149   4.199  10.918  0.1590 -0.2927 -0.3252
10278TIP3    H152249   1.123   4.276  10.969 -0.3596 -1.3679  1.0926
10278TIP3    H252250   1.083   4.132  10.940 -0.0890 -0.8243 -2.4115
10279TIP3   OH252251   2.006   1.014   2.759 -0.4085 -0.4568  0.2639
10279TIP3    H152252   2.007   1.079   2.689  0.4200 -0.9396 -0.1855
10279TIP3    H252253   2.047   1.058   2.834 -0.5903 -0.1945  0.2078
10280TIP3   OH252254   4.275   2.299  15.913 -0.6982  0.1590 -0.4214
10280TIP3    H152255   4.324   2.301  15.995  1.7571 -1.8534 -1.6927
10280TIP3    H252256   4.249   2.208  15.902 -1.0528  0.3974 -1.8420
10281TIP3   OH252257   0.688   1.814   3.368 -0.2727  0.3209  0.0219
10281TIP3    H152258   0.603   1.836   3.404 -0.6086  0.4978 -0.8510
10281TIP3    H252259   0.669   1.765   3.288  0.4529 -0.3969  0.2705
10282TIP3   OH252260   3.055   4.552   1.425 -0.6870 -0.0836  0.4868
10282TIP3    H152261   3.102   4.506   1.494  0.0465  0.4651  0.3611
10282TIP3    H252262   3.062   4.644   1.449 -0.8479  0.0726 -0.0617
10283TIP3   OH252263   1.088   3.859   0.838 -0.2010  0.3486 -0.3363
10283TIP3    H152264   1.024   3.806   0.886 -0.5162  0.3425 -0.7567
10283TIP3    H252265   1.173   3.828   0.870 -0.4076  1.1736  1.0940
10284TIP3   OH252266   1.405   1.238   0.398 -0.4142  0.1232  0.7743
10284TIP3    H152267   1.333   1.290   0.433  0.1015  1.3890 -0.0187
10284TIP3    H252268   1.482   1.294   0.406  0.3784 -0.9478  0.9651
10285TIP3   OH252269   4.077   1.738   1.303 -0.5057  0.4513 -0.2443
10285TIP3    H152270   4.122   1.810   1.346 -1.7014  2.0027 -1.4756
10285TIP3    H252271   3.985   1.749   1.327 -0.5406 -1.6907  0.8960
10286TIP3   OH252272   2.862   2.526  13.549 -0.5661 -0.2681  0.0916
10286TIP3    H152273   2.935   2.470  13.522  0.1016 -0.1241  1.5168
10286TIP3    H252274   2.898   2.579  13.620 -1.1775  1.9689 -1.1512
10287TIP3   OH252275   2.125   3.419  11.858 -0.3494  0.6821 -0.0126
10287TIP3    H152276   2.180   3.422  11.937 -0.1636  1.9510 -0.1728
10287TIP3    H252277   2.184   3.444  11.787  0.1021 -2.6158 -0.9986
10288TIP3   OH252278   5.083   2.020  12.922 -0.0008 -0.2543 -0.0584
10288TIP3    H152279   5.118   2.027  12.833 -0.6891  2.6160 -0.2249
10288TIP3    H252280   5.140   2.077  12.974 -1.1253  0.1240  0.7932
10289TIP3   OH252281   3.433   2.629   4.594  0.0556  0.7347 -0.6244
10289TIP3    H152282   3.507   2.579   4.628  0.4204  1.2515 -0.6415
10289TIP3    H252283   3.464   2.720   4.594 -1.5624  1.3981  2.1428
10290TIP3   OH252284   6.609   2.856  12.622  0.1988  0.1217  0.5103
10290TIP3    H152285   6.662   2.877  12.545  2.0180 -1.7396  1.1748
10290TIP3    H252286   6.560   2.778  12.597  1.5327 -1.0776  1.4975
10291TIP3   OH252287   1.632   3.838  16.666  0.2931  0.1693 -0.2094
10291TIP3    H152288   1.630   3.896  16.590 -0.5322 -0.9945 -1.1231
10291TIP3    H252289   1.666   3.755  16.633 -1.2126 -0.7371  0.3746
10292TIP3   OH252290   3.813   5.408   1.783 -0.1473 -0.0297  0.0700
10292TIP3    H152291   3.732   5.371   1.818  0.2527 -0.7831  0.2178
10292TIP3    H252292   3.801   5.405   1.688 -0.0562 -0.6897  0.0759
10293TIP3   OH252293   3.539   0.654  11.696  0.1715 -0.2906 -0.4819
10293TIP3    H152294   3.513   0.683  11.609  2.3879 -1.7159 -1.7059
10293TIP3    H252295   3.548   0.734  11.746  1.5094  0.8164 -2.3764
10294TIP3   OH252296   4.179   0.520   4.172 -0.8180 -0.1710  0.5503
10294TIP3    H152297   4.237   0.444   4.170 -0.2364  0.2827 -1.1770
10294TIP3    H252298   4.092   0.484   4.192 -0.6386 -1.3589 -0.7009
10295TIP3   OH252299   1.555   6.160  11.498  0.2055  0.2238  0.2611
10295TIP3    H152300   1.504   6.080  11.512  0.2958 -0.1870 -1.5769
10295TIP3    H252301   1.496   6.230  11.526 -0.3139 -0.4102  0.8070
10296TIP3   OH252302   2.209   2.771   3.715  0.0985 -0.2190  0.0330
10296TIP3    H152303   2.225   2.772   3.809 -0.1396  0.0676  0.0737
10296TIP3    H252304   2.231   2.682   3.687  2.8732  0.4239 -0.1242
10297TIP3   OH252305   1.754   6.085   1.241 -0.7291  0.5146  0.1752
10297TIP3    H152306   1.747   6.181   1.244 -1.0861  0.4830  0.4967
10297TIP3    H252307   1.833   6.065   1.291 -0.4782  0.6590 -0.1604
10298TIP3   OH252308   2.699   2.273  17.296 -0.6835 -0.3185  0.0403
10298TIP3    H152309   2.747   2.230  17.367  0.0302  1.6321  0.8317
10298TIP3    H252310   2.638   2.332  17.341 -0.4942  0.6757 -0.9589
10299TIP3   OH252311   3.827   6.375  14.464 -0.0795 -0.0473  0.1619
10299TIP3    H152312   3.793   6.326  14.539  0.9183  0.8611  1.2477
10299TIP3    H252313   3.895   6.431  14.501  0.2463  0.6321 -1.3915
10300TIP3   OH252314   6.557   1.391  12.805  0.4006 -0.2088 -0.6500
10300TIP3    H152315   6.509   1.415  12.884 -1.1681 -1.6006 -1.1173
10300TIP3    H252316   6.579   1.474  12.763  1.7583  0.5809  1.4788
10301TIP3   OH252317   6.004   6.701   3.164  0.5804 -0.6940  0.3326
10301TIP3    H152318   6.088   6.727   3.201 -0.4112  0.0553  2.1871
10301TIP3    H252319   5.965   6.644   3.230 -1.2748  0.6747  0.5007
10302TIP3   OH252320   5.799   5.041  15.786  0.3353 -0.1064 -0.1233
10302TIP3    H152321   5.804   4.982  15.862 -0.4912 -0.1308 -0.0789
10302TIP3    H252322   5.850   5.118  15.813 -4.4267  2.5314  2.9410
10303TIP3   OH252323   0.793   2.284  11.761 -0.4802  0.3892  0.1057
10303TIP3    H152324   0.822   2.234  11.684 -1.2045 -0.6721  0.5039
10303TIP3    H252325   0.816   2.375  11.740 -1.6313  0.2816 -1.8358
10304TIP3   OH252326   4.315   0.955  12.609 -0.5732  0.7283  0.4093
10304TIP3    H152327   4.348   0.878  12.654 -0.8415  0.8745  0.8548
10304TIP3    H252328   4.225   0.964  12.638 -0.9321  0.5048 -0.5724
10305TIP3   OH252329   2.399   6.078   4.740 -0.4841  0.2296 -0.7776
10305TIP3    H152330   2.355   6.147   4.689 -0.0947  0.3653 -0.9338
10305TIP3    H252331   2.328   6.025   4.774 -0.8715  1.4332  0.3819
10306TIP3   OH252332   1.625   5.359   6.133  0.4049 -0.3535  0.7567
10306TIP3    H152333   1.608   5.337   6.224  1.0064 -0.0281  0.9582
10306TIP3    H252334   1.546   5.334   6.086  0.3276 -1.1097  1.2711
10307TIP3   OH252335   4.170   0.710  16.892  0.4150  0.1197 -0.4072
10307TIP3    H152336   4.160   0.676  16.981  0.0125  0.5417 -0.2865
10307TIP3    H252337   4.234   0.652  16.851  0.2866 -0.3350  0.0234
10308TIP3   OH252338   3.610   0.621   0.466 -0.1614 -0.0496 -0.7088
10308TIP3    H152339   3.578   0.653   0.550  0.1540 -1.5176  0.0067
10308TIP3    H252340   3.705   0.627   0.472 -0.1209 -0.5298 -0.7855
10309TIP3   OH252341   4.235   1.983   0.557 -0.1969  0.5348  0.1194
10309TIP3    H152342   4.244   1.935   0.639 -0.4908  0.8470  0.3346
10309TIP3    H252343   4.325   2.000   0.529 -0.0968  1.2219  0.8408
10310TIP3   OH252344   6.608   2.067  16.145  0.1379 -0.2556  0.3007
10310TIP3    H152345   6.521   2.102  16.162  0.2409  0.4865 -0.5807
10310TIP3    H252346   6.665   2.144  16.143  0.4019 -0.4355 -1.4968
10311TIP3   OH252347   1.385   5.650  16.151  0.1438  0.2111  0.5133
10311TIP3    H152348   1.388   5.661  16.056  0.7815  0.2490  0.5380
10311TIP3    H252349   1.302   5.691  16.177 -1.9099 -2.9354 -0.4371
10312TIP3   OH252350   6.269   5.445  10.480  0.2760  0.2732  0.5355
10312TIP3    H152351   6.225   5.530  10.479 -0.1847  0.0626  1.6432
10312TIP3    H252352   6.265   5.416  10.571  0.0882 -1.1117  0.1236
10313TIP3   OH252353   3.393   6.690   4.498  1.1437 -0.0159 -0.2347
10313TIP3    H152354   3.455   6.713   4.567 -0.3813  2.5457  0.4229
10313TIP3    H252355   3.350   6.773   4.476 -0.1226 -1.1997 -2.5740
10314TIP3   OH252356   4.679   3.242   2.380  0.2965 -0.0214 -0.5662
10314TIP3    H152357   4.662   3.280   2.466 -0.3769 -1.9901  0.2145
10314TIP3    H252358   4.592   3.223   2.345  0.6040 -1.1808 -0.7482
10315TIP3   OH252359   2.334   4.626  16.571 -0.7079 -0.3090 -0.2933
10315TIP3    H152360   2.267   4.588  16.629  1.0308 -0.2880  1.8691
10315TIP3    H252361   2.386   4.682  16.629  0.3035  0.8305 -2.2117
10316TIP3   OH252362   4.031   2.074   1.659 -0.0511  0.8139  0.5327
10316TIP3    H152363   3.966   2.131   1.617  0.2795  0.7259 -0.1046
10316TIP3    H252364   4.087   2.044   1.587  1.4862  1.9161  1.2078
10317TIP3   OH252365   5.647   5.221  15.621  0.2456 -0.0915  0.2505
10317TIP3    H152366   5.701   5.154  15.662  1.3993 -0.8237 -2.2786
10317TIP3    H252367   5.623   5.280  15.693  1.6971 -1.5297  2.0072
10318TIP3   OH252368   5.854   5.755  17.118  0.2932 -0.4365  0.1450
10318TIP3    H152369   5.844   5.849  17.106  0.4436 -0.1328  2.1380
10318TIP3    H252370   5.768   5.719  17.100  0.7382 -0.2363 -2.8374
10319TIP3   OH252371   3.403   3.548   3.078 -0.3876 -0.1446 -0.3996
10319TIP3    H152372   3.391   3.642   3.062 -0.2500  0.4072  2.3343
10319TIP3    H252373   3.329   3.524   3.134  1.2942 -0.8767  1.6362
10320TIP3   OH252374   3.862   2.349   4.066 -0.0187 -0.7763  0.0666
10320TIP3    H152375   3.932   2.375   4.125 -0.8890 -0.5213  1.0157
10320TIP3    H252376   3.825   2.431   4.034 -0.7680 -0.8728  0.6532
10321TIP3   OH252377   0.113   4.661   4.668  0.7612  0.1176 -0.6670
10321TIP3    H152378   0.199   4.619   4.663  0.7641  0.1173 -0.6181
10321TIP3    H252379   0.091   4.680   4.577  0.8106  0.1126 -0.6801
10322TIP3   OH252380   4.657   3.657  11.158 -0.1794 -0.0716 -0.3510
10322TIP3    H152381   4.685   3.624  11.072 -3.2049 -0.6675 -1.2481
10322TIP3    H252382   4.561   3.659  11.152 -0.4329  1.2216  2.5636
10323TIP3   OH252383   2.310   1.534  15.783 -0.5954 -0.3139 -0.3491
10323TIP3    H152384   2.223   1.568  15.805  0.5933  1.6611  1.7397
10323TIP3    H252385   2.308   1.443  15.810 -1.4696  0.1962  1.4679
10324TIP3   OH252386   5.182   5.063   5.956 -0.0703  0.8936 -0.6471
10324TIP3    H152387   5.251   5.128   5.969 -0.7022  1.6613 -1.0183
10324TIP3    H252388   5.228   4.985   5.926  0.9157  0.5380  1.6042
10325TIP3   OH252389   0.331   5.930  13.900 -0.1430  0.3467 -0.4156
10325TIP3    H152390   0.298   5.871  13.832  0.4548  0.6697 -0.9939
10325TIP3    H252391   0.340   6.015  13.857  0.2568  0.5577  0.0610
10326TIP3   OH252392   4.926   5.436   5.400  0.2286 -0.1640 -0.3653
10326TIP3    H152393   4.839   5.445   5.439  1.4152 -1.4128  2.8654
10326TIP3    H252394   4.986   5.461   5.469  2.5116 -0.0478 -2.2712
10327TIP3   OH252395   6.457   2.529  15.193  0.1036 -0.3172  0.2949
10327TIP3    H152396   6.414   2.444  15.203  0.3571 -0.2281  2.7407
10327TIP3    H252397   6.396   2.581  15.142 -0.2792 -1.7739 -0.8226
10328TIP3   OH252398   1.611   0.387  16.795  0.5008  0.4849  0.0043
10328TIP3    H152399   1.676   0.339  16.745 -0.2536  1.7902 -2.4134
10328TIP3    H252400   1.527   0.347  16.771  0.1882  0.5122  1.0089
10329TIP3   OH252401   2.189   2.787  11.076  0.1974  0.0724 -0.2719
10329TIP3    H152402   2.113   2.765  11.130  0.1946  0.5004 -0.0950
10329TIP3    H252403   2.191   2.883  11.075  1.4404  0.0847  0.7430
10330TIP3   OH252404   1.472   4.586   4.605 -0.7946 -0.4735 -0.0079
10330TIP3    H152405   1.446   4.524   4.673 -0.1825  0.2618  0.9115
10330TIP3    H252406   1.523   4.533   4.543 -0.2905 -0.8870  0.7562
10331TIP3   OH252407   3.440   0.752  15.469  0.3806  0.4318  0.1525
10331TIP3    H152408   3.383   0.738  15.544 -0.1068 -0.1663 -0.3188
10331TIP3    H252409   3.382   0.749  15.393  0.8538  1.1078 -0.2504
10332TIP3   OH252410   5.326   3.359   0.902  0.1042 -0.1633 -0.6063
10332TIP3    H152411   5.383   3.404   0.839  1.6386 -0.5091  0.4542
10332TIP3    H252412   5.293   3.429   0.959 -0.2190 -0.0011 -0.9934
10333TIP3   OH252413   2.929   3.088  17.073 -0.3524  0.0897  0.1441
10333TIP3    H152414   2.846   3.070  17.029 -0.3228 -0.8214  0.4363
10333TIP3    H252415   2.966   3.002  17.091 -0.6795  0.3615  2.5456
10334TIP3   OH252416   4.678   3.226  16.596  0.3561 -0.0354 -0.5563
10334TIP3    H152417   4.684   3.265  16.509 -0.2657  1.3902  0.0143
10334TIP3    H252418   4.668   3.300  16.655  0.3622 -1.0027  0.7021
10335TIP3   OH252419   2.214   2.052  16.222 -0.0771 -0.2315  0.4421
10335TIP3    H152420   2.251   2.135  16.252  0.2409 -0.4040  0.5394
10335TIP3    H252421   2.258   2.034  16.140  0.1555 -0.5043  0.6225
10336TIP3   OH252422   4.192   3.420  14.734 -0.1371  0.3144  0.2753
10336TIP3    H152423   4.141   3.359  14.788  0.1076  0.9233  1.2073
10336TIP3    H252424   4.272   3.372  14.713 -0.5952 -0.2325 -0.2600
10337TIP3   OH252425   4.237   6.066  14.965  0.2100  0.0620  0.8112
10337TIP3    H152426   4.150   6.089  14.932 -1.4982 -1.7567  3.6668
10337TIP3    H252427   4.285   6.036  14.888 -1.3652  1.8367 -0.9727
10338TIP3   OH252428   4.894   4.108   5.935  0.1731 -0.1639 -0.3467
10338TIP3    H152429   4.926   4.046   6.001 -0.4471  0.7435  0.8331
10338TIP3    H252430   4.869   4.052   5.861 -1.6761 -1.4953  1.1892
10339TIP3   OH252431   0.549   6.543  13.532 -0.0714 -0.0981  0.1610
10339TIP3    H152432   0.624   6.572  13.481 -0.8049  1.0763 -0.2927
10339TIP3    H252433   0.538   6.451  13.507  0.7878 -0.0891 -0.2865
10340TIP3   OH252434   2.475   1.791  15.090  0.8810 -0.5532 -0.3533
10340TIP3    H152435   2.431   1.859  15.141 -0.1301 -0.9696 -0.6371
10340TIP3    H252436   2.567   1.816  15.090  0.6075  0.5031  0.0275
10341TIP3   OH252437   2.494   0.909  14.931 -0.2096 -0.6545  0.3944
10341TIP3    H152438   2.519   0.996  14.962 -1.5336 -0.0108 -0.2728
10341TIP3    H252439   2.529   0.849  14.997  2.4373  0.1844 -0.1128
10342TIP3   OH252440   6.006   0.371   1.927 -0.3546 -0.4927  0.1707
10342TIP3    H152441   6.100   0.358   1.911 -0.0246  1.1171  0.6775
10342TIP3    H252442   5.998   0.462   1.955 -2.2424 -0.2294 -1.0435
10343TIP3   OH252443   1.182   5.527   0.890  0.1174  0.0210  0.4470
10343TIP3    H152444   1.127   5.562   0.820  0.2034 -1.9827 -0.6888
10343TIP3    H252445   1.176   5.432   0.881  2.0028 -0.2784  1.6955
10344TIP3   OH252446   6.222   2.824   1.211  0.2067  0.4993 -0.0628
10344TIP3    H152447   6.197   2.850   1.122 -0.1365  2.6149  0.5946
10344TIP3    H252448   6.235   2.729   1.205 -1.8681  0.2309 -1.8923
10345TIP3   OH252449   1.498   2.139  13.084  0.1168  0.3204  0.5666
10345TIP3    H152450   1.557   2.193  13.137 -0.7076 -0.1061  1.9716
10345TIP3    H252451   1.433   2.107  13.146 -0.9289 -0.1619 -0.7331
10346TIP3   OH252452   1.034   6.591  17.293  0.1684 -0.1107  0.3084
10346TIP3    H152453   0.990   6.552  17.369  0.9380 -0.4160  0.6087
10346TIP3    H252454   0.975   6.573  17.220  0.2063 -1.2876  0.5525
10347TIP3   OH252455   2.880   0.909  11.479  0.3941 -1.0868 -0.5417
10347TIP3    H152456   2.786   0.921  11.468  0.1272 -0.6531  1.7462
10347TIP3    H252457   2.913   0.997  11.498  1.5090 -1.0107 -2.5115
10348TIP3   OH252458   0.939   4.248  11.883 -0.2303 -0.2673 -1.0389
10348TIP3    H152459   0.919   4.204  11.965 -2.6313 -0.6756 -1.7508
10348TIP3    H252460   1.034   4.249  11.878  0.0219  0.1925  1.9414
10349TIP3   OH252461   5.176   3.306   4.008 -0.1764  0.1276  0.2368
10349TIP3    H152462   5.121   3.296   3.930 -3.8417  1.4347  2.4104
10349TIP3    H252463   5.187   3.216   4.040  1.0682 -0.3875 -1.4686
10350TIP3   OH252464   5.892   3.640   6.159  0.9717 -0.4006 -0.7060
10350TIP3    H152465   5.938   3.668   6.080  1.0738 -0.4627 -0.6683
10350TIP3    H252466   5.922   3.551   6.174  0.5045 -0.6004 -0.9347
10351TIP3   OH252467   2.347   4.571   4.087  0.4079  0.5283 -0.4104
10351TIP3    H152468   2.374   4.592   3.998 -0.1640 -0.6476 -0.8853
10351TIP3    H252469   2.398   4.493   4.110 -1.5101 -0.9415 -0.8440
10352TIP3   OH252470   3.454   5.555  13.357 -0.9496  0.1765 -0.3167
10352TIP3    H152471   3.364   5.548  13.389 -0.2492 -0.7972  1.5760
10352TIP3    H252472   3.476   5.468  13.327  0.1776 -0.3065  1.7049
10353TIP3   OH252473   1.252   2.373   0.924 -0.3110  0.6564 -0.0349
10353TIP3    H152474   1.327   2.353   0.868 -0.8730  0.0295 -0.5903
10353TIP3    H252475   1.285   2.438   0.986  0.4359  1.0721 -0.8384
10354TIP3   OH252476   1.947   5.183   4.057 -0.0834  0.2649 -0.7513
10354TIP3    H152477   1.976   5.097   4.028 -0.3728  0.6110 -2.1392
10354TIP3    H252478   2.011   5.244   4.019  0.3683  0.6409  0.5759
10355TIP3   OH252479   6.585   4.297  13.735 -0.3701  0.3518 -0.4225
10355TIP3    H152480   6.517   4.321  13.798 -0.8901 -0.2895 -0.7240
10355TIP3    H252481   6.600   4.377  13.685 -3.3191 -0.2483 -2.5602
10356TIP3   OH252482   2.488   2.412  16.486  0.3172  0.1329  0.0827
10356TIP3    H152483   2.529   2.343  16.539  0.7669  0.4751  0.1909
10356TIP3    H252484   2.491   2.490  16.542 -0.1679  0.2486 -0.0478
10357TIP3   OH252485   6.761   2.288  15.678  0.2530 -0.2774 -0.4123
10357TIP3    H152486   6.846   2.251  15.654 -0.1069 -1.3514 -0.1093
10357TIP3    H252487   6.742   2.251  15.764 -0.1490  0.6056 -0.1149
10358TIP3   OH252488   0.591   2.121  16.013 -0.4222  0.3372  0.1325
10358TIP3    H152489   0.619   2.209  16.037  0.2154 -0.1714  1.3476
10358TIP3    H252490   0.654   2.092  15.947 -0.2744  0.5593  0.1755
10359TIP3   OH252491   6.340   2.310   3.737  0.0219  0.4505  0.3791
10359TIP3    H152492   6.252   2.339   3.714  0.0728  0.7243  0.5306
10359TIP3    H252493   6.396   2.350   3.672  0.2261  1.6433  1.2463
10360TIP3   OH252494   2.449   4.642   6.401 -0.3967  0.4420 -0.3571
10360TIP3    H152495   2.521   4.641   6.338 -0.4065  0.7819 -0.3733
10360TIP3    H252496   2.370   4.637   6.347 -0.3748 -1.6462 -0.2889
10361TIP3   OH252497   4.264   3.127   4.947  0.5912  0.5784  0.7680
10361TIP3    H152498   4.243   3.203   4.894  1.7209  1.5850  1.7112
10361TIP3    H252499   4.283   3.058   4.884  0.4719  1.3322 -0.1111
10362TIP3   OH252500   5.294   1.680  11.012  0.4565  0.1919 -0.1980
10362TIP3    H152501   5.294   1.718  10.924 -1.1958 -0.4112 -0.5027
10362TIP3    H252502   5.283   1.586  10.997  1.4888 -0.0754  0.6308
10363TIP3   OH252503   0.767   2.477  14.613 -0.0945 -0.3797 -0.5399
10363TIP3    H152504   0.820   2.435  14.680 -0.8152  0.3972  0.5521
10363TIP3    H252505   0.783   2.571  14.625 -2.2506 -0.0607  0.3390
10364TIP3   OH252506   2.218   0.014  12.526  0.3048  0.2640  0.4984
10364TIP3    H152507   2.291  -0.027  12.481  1.0828  0.1568  1.8313
10364TIP3    H252508   2.157   0.037  12.455  1.2795 -0.2935 -0.5588
10365TIP3   OH252509   5.393   0.615   1.351 -0.0255  0.6339  0.3750
10365TIP3    H152510   5.483   0.607   1.320  0.1180  0.3299  0.8576
10365TIP3    H252511   5.376   0.709   1.353  0.2088  0.6844  0.0865
10366TIP3   OH252512   1.539   5.527  17.217 -0.2097  0.0525  0.2458
10366TIP3    H152513   1.611   5.548  17.157 -0.9907 -1.2682 -1.2085
10366TIP3    H252514   1.517   5.610  17.259  1.3993  0.6905 -0.1184
10367TIP3   OH252515   1.064   6.108  13.073  0.0379  0.2145  0.5027
10367TIP3    H152516   1.086   6.199  13.093  0.5434  0.0827  0.5658
10367TIP3    H252517   1.148   6.063  13.071 -0.0532  0.0735 -1.2305
10368TIP3   OH252518   4.635   2.833  15.755 -0.0751  0.2197  0.1916
10368TIP3    H152519   4.623   2.748  15.713  0.0314 -0.2391  1.0759
10368TIP3    H252520   4.726   2.856  15.737  0.1830 -0.3184  0.7753
10369TIP3   OH252521   4.847   0.964   5.105  0.8887 -0.4919  0.1403
10369TIP3    H152522   4.779   0.999   5.162  1.0340  0.1247 -0.0499
10369TIP3    H252523   4.926   0.964   5.160  0.6762 -1.5371  0.4714
10370TIP3   OH252524   1.555   5.114  12.402  0.7757  0.2075 -0.0983
10370TIP3    H152525   1.555   5.204  12.436  1.3069 -0.1680  0.9632
10370TIP3    H252526   1.532   5.123  12.310 -0.8477  1.2757  0.3735
10371TIP3   OH252527   4.533   6.432  10.569  0.4334 -0.0056  0.1899
10371TIP3    H152528   4.462   6.380  10.605 -0.1475  0.6343 -0.0063
10371TIP3    H252529   4.606   6.370  10.559  0.3605 -0.3594  1.6983
10372TIP3   OH252530   4.671   4.445   1.345 -0.2168 -0.2071 -0.1184
10372TIP3    H152531   4.620   4.391   1.406 -0.7628 -1.1752 -1.3699
10372TIP3    H252532   4.759   4.448   1.383 -0.5495 -0.7825  0.7215
10373TIP3   OH252533   6.126   2.969  12.513 -0.3827 -0.0341  0.3432
10373TIP3    H152534   6.070   3.046  12.521 -0.9718 -0.5211  1.0165
10373TIP3    H252535   6.214   3.002  12.532 -0.5161  0.6252 -0.1652
10374TIP3   OH252536   1.107   3.272   4.079 -0.4642 -0.4072  0.4153
10374TIP3    H152537   1.190   3.226   4.090 -1.6548 -2.6437  0.6437
10374TIP3    H252538   1.051   3.210   4.031 -2.2584  0.6867  0.9767
10375TIP3   OH252539   1.532   0.143   4.228  0.1684 -0.7205 -0.0376
10375TIP3    H152540   1.534   0.058   4.184 -1.3501 -0.2974 -1.0050
10375TIP3    H252541   1.448   0.182   4.202  0.5949  0.8627  0.7974
10376TIP3   OH252542   0.247   2.560   5.462 -0.2830 -0.1409 -0.2712
10376TIP3    H152543   0.228   2.652   5.475  0.2682 -0.2840  1.9200
10376TIP3    H252544   0.161   2.517   5.460 -0.5045  0.1378  1.5170
10377TIP3   OH252545   0.362   3.860   5.220 -0.3535 -0.0918 -0.0255
10377TIP3    H152546   0.450   3.822   5.215 -0.5709 -0.7895  1.1276
10377TIP3    H252547   0.332   3.862   5.129  0.3105 -1.1616 -0.2908
10378TIP3   OH252548   4.624   0.039   1.302 -0.1416 -0.3840  0.3394
10378TIP3    H152549   4.587   0.071   1.384 -0.2795  0.9800 -0.2177
10378TIP3    H252550   4.613  -0.056   1.306 -0.0786 -0.3557  1.9155
10379TIP3   OH252551   5.247   4.223  14.798 -0.2770  0.1521  0.0562
10379TIP3    H152552   5.320   4.187  14.849  0.3695  1.0258 -0.2272
10379TIP3    H252553   5.267   4.202  14.707 -0.3993  0.3418 -0.0177
10380TIP3   OH252554   4.468   4.460   0.500  0.3296  0.3838 -0.6119
10380TIP3    H152555   4.502   4.533   0.448  0.5625 -0.9073 -2.3693
10380TIP3    H252556   4.546   4.409   0.523  0.2203  0.9002  0.9854
10381TIP3   OH252557   1.403   5.312  14.314 -0.1816  0.0824 -0.4044
10381TIP3    H152558   1.463   5.385  14.299  0.0311 -0.1483 -0.6671
10381TIP3    H252559   1.438   5.268  14.392 -0.3329  0.2816 -0.2214
10382TIP3   OH252560   4.662   5.838   2.964 -0.2202 -0.0828 -0.3077
10382TIP3    H152561   4.705   5.762   3.003  1.2574  0.9565  0.1544
10382TIP3    H252562   4.585   5.854   3.018  0.9825  0.4234  1.3072
10383TIP3   OH252563   4.744   5.309   4.802 -0.2569  0.2380  0.4437
10383TIP3    H152564   4.685   5.233   4.796 -0.2837  0.3653 -1.9597
10383TIP3    H252565   4.689   5.384   4.779  0.9310  0.2262 -3.0606
10384TIP3   OH252566   0.862   2.467   2.167 -0.0886  0.1823  0.4086
10384TIP3    H152567   0.782   2.446   2.118  0.0841  0.4682 -0.0031
10384TIP3    H252568   0.851   2.559   2.192 -0.6009 -0.2105  1.7389
10385TIP3   OH252569   3.838   4.910   0.318 -0.5443  0.2935 -0.3114
10385TIP3    H152570   3.912   4.856   0.292 -0.7325 -0.5524  0.7944
10385TIP3    H252571   3.824   4.971   0.245  0.7097 -0.0741 -0.8713
10386TIP3   OH252572   4.316   4.331   4.611 -0.1576 -0.0609  0.1922
10386TIP3    H152573   4.318   4.250   4.662 -2.2326 -0.4385 -0.2437
10386TIP3    H252574   4.358   4.395   4.667 -1.5565 -0.6750  2.0426
10387TIP3   OH252575   4.084   1.898   0.355 -0.5939 -0.1401  0.4087
10387TIP3    H152576   4.133   1.943   0.424 -0.3069 -0.8301  0.6598
10387TIP3    H252577   3.996   1.888   0.392 -1.8528  3.5483 -1.0546
10388TIP3   OH252578   4.933   1.049  11.100 -0.0296  0.2101  0.1542
10388TIP3    H152579   5.019   1.041  11.059 -0.8244 -0.2856 -1.5080
10388TIP3    H252580   4.942   1.006  11.185  1.3852  0.2519  0.0349
10389TIP3   OH252581   6.337   4.800   4.832  0.1231 -0.1020 -0.0528
10389TIP3    H152582   6.282   4.829   4.905  0.0069 -1.5090  0.4443
10389TIP3    H252583   6.385   4.725   4.866  0.1840 -0.6959 -1.3696
10390TIP3   OH252584   5.893   5.639   3.135 -0.2782 -0.6155  0.6685
10390TIP3    H152585   5.821   5.646   3.197 -0.3897 -1.2619  0.6178
10390TIP3    H252586   5.971   5.661   3.187 -0.2868 -1.8206  1.2258
10391TIP3   OH252587   3.884   5.132   1.126 -0.5695 -0.0377 -0.2019
10391TIP3    H152588   3.847   5.207   1.173  0.1485 -0.1695  0.5987
10391TIP3    H252589   3.839   5.056   1.162  0.1472 -0.1601  0.4767
10392TIP3   OH252590   2.414   0.395   2.737  0.6789  0.3812 -0.3088
10392TIP3    H152591   2.319   0.406   2.731  0.5369 -0.8521 -0.6370
10392TIP3    H252592   2.437   0.344   2.659  1.9798  2.7268 -1.5522
10393TIP3   OH252593   2.294   6.750   2.439 -0.0738  0.0199  0.7556
10393TIP3    H152594   2.249   6.747   2.355  1.1065 -2.0696  0.1331
10393TIP3    H252595   2.385   6.771   2.417  0.4772 -1.5732  1.3397
10394TIP3   OH252596   1.570   3.606  14.728  0.1427 -0.2537  0.0039
10394TIP3    H152597   1.640   3.554  14.767  1.2196  0.8754 -0.3916
10394TIP3    H252598   1.490   3.559  14.751  0.6763  0.3510  3.5950
10395TIP3   OH252599   2.933   2.850  15.886 -0.3053  0.0430 -0.4957
10395TIP3    H152600   2.965   2.923  15.938  1.2454  1.2398 -2.9244
10395TIP3    H252601   2.892   2.791  15.949 -1.9850  3.1134  1.5605
10396TIP3   OH252602   6.444   5.074   3.188  0.1196 -0.5784  0.8928
10396TIP3    H152603   6.398   5.021   3.253 -0.7638  0.6669  1.3144
10396TIP3    H252604   6.382   5.082   3.116 -0.4566  1.2803  1.5435
10397TIP3   OH252605   5.517   0.007   5.628  0.1000  0.7505  0.4961
10397TIP3    H152606   5.561  -0.011   5.711 -0.8620  0.3231  0.9340
10397TIP3    H252607   5.588   0.026   5.566  1.0274 -1.5274  0.7586
10398TIP3   OH252608   4.794   3.118   0.735  0.0674  0.3055  0.0899
10398TIP3    H152609   4.867   3.178   0.752 -0.7230  0.8871  1.6759
10398TIP3    H252610   4.808   3.089   0.645  0.3252  3.1358 -0.9079
10399TIP3   OH252611   0.292   2.288   0.778 -0.7573  0.0314  0.1761
10399TIP3    H152612   0.224   2.345   0.741  0.6671  1.8864  0.2686
10399TIP3    H252613   0.355   2.277   0.706 -1.2319 -1.8920  0.0012
10400TIP3   OH252614   4.063   2.713  12.250  0.1984 -1.0074 -0.5276
10400TIP3    H152615   4.074   2.731  12.156  2.7683 -1.3182 -0.3592
10400TIP3    H252616   4.047   2.799  12.289 -2.2566 -1.0070 -1.3116
10401TIP3   OH252617   1.942   4.034  15.189 -0.8260  0.0131 -0.3940
10401TIP3    H152618   1.926   4.115  15.237  0.5690 -0.4606  0.9452
10401TIP3    H252619   2.036   4.035  15.172 -0.5818 -1.7859  0.5978
10402TIP3   OH252620   2.765   4.200  16.960 -0.3410  0.6848 -0.4266
10402TIP3    H152621   2.729   4.213  17.047 -0.5513 -0.6327 -0.2964
10402TIP3    H252622   2.790   4.107  16.957  0.6417  0.9451 -1.4054
10403TIP3   OH252623   1.548   0.349   0.740 -0.0279  0.3055 -0.1670
10403TIP3    H152624   1.629   0.343   0.688 -0.2545  1.5094 -0.6908
10403TIP3    H252625   1.564   0.292   0.815  0.1619 -1.8471 -1.7285
10404TIP3   OH252626   1.421   0.246   2.606 -0.0003  0.2463  0.3273
10404TIP3    H152627   1.467   0.329   2.593 -1.4277  0.9435 -0.4731
10404TIP3    H252628   1.363   0.238   2.531 -1.5831 -0.3198  1.5492
10405TIP3   OH252629   3.279   0.652  13.636 -0.3547  0.2349  0.2310
10405TIP3    H152630   3.338   0.631  13.564 -0.3344 -0.0399  0.3257
10405TIP3    H252631   3.194   0.666  13.595 -0.2183  0.6654  0.0907
10406TIP3   OH252632   6.483   4.723  17.302 -0.6157  0.3698  0.3963
10406TIP3    H152633   6.552   4.709  17.236 -0.5941  1.1078  0.2598
10406TIP3    H252634   6.476   4.638  17.347  0.0051  0.1270  0.0515
10407TIP3   OH252635   6.365   4.563  13.684  0.7234  0.1459  0.4925
10407TIP3    H152636   6.340   4.472  13.668  2.2981 -0.2714  0.2447
10407TIP3    H252637   6.458   4.567  13.660  0.5949  1.9032  0.1527
10408TIP3   OH252638   5.832   4.809   5.823  0.2542  0.2962 -0.2419
10408TIP3    H152639   5.852   4.720   5.795 -1.1722 -0.0119 -0.3419
10408TIP3    H252640   5.918   4.853   5.828  1.0370 -1.2426  0.4215
10409TIP3   OH252641   0.885   3.032   0.215 -0.1069  0.6049  0.2396
10409TIP3    H152642   0.972   3.008   0.181 -0.2124 -0.8307  0.9009
10409TIP3    H252643   0.903   3.099   0.282  0.4194  0.8018 -0.0922
10410TIP3   OH252644   2.853   2.195   3.413  0.6839 -0.0871  0.6937
10410TIP3    H152645   2.806   2.129   3.464  2.0471  0.8214  3.3213
10410TIP3    H252646   2.794   2.270   3.409  0.3373 -0.3733  0.4090
10411TIP3   OH252647   2.712   3.510  15.805  0.0230 -0.2199  0.0050
10411TIP3    H152648   2.720   3.515  15.709  0.0737  0.1854  0.0314
10411TIP3    H252649   2.630   3.556  15.824  0.0913 -0.1686  0.1696
10412TIP3   OH252650   6.288   0.729  12.110  0.7501  0.0555 -0.2068
10412TIP3    H152651   6.367   0.777  12.133  0.5265 -0.8329  2.9114
10412TIP3    H252652   6.312   0.637  12.118 -0.4924 -0.2296  0.6639
10413TIP3   OH252653   6.665   6.366   6.317 -0.2509 -0.0623  0.3620
10413TIP3    H152654   6.649   6.363   6.411 -0.4809  1.4207  0.3888
10413TIP3    H252655   6.593   6.418   6.281 -0.3645 -0.8975 -0.6987
10414TIP3   OH252656   1.096   6.395  11.907  0.0240  0.1451 -0.0845
10414TIP3    H152657   1.130   6.441  11.831  0.9281 -0.6062 -0.1515
10414TIP3    H252658   1.010   6.434  11.923  1.2983  2.8978  0.7388
10415TIP3   OH252659   6.571   3.114  16.400  0.0689  0.1813  0.9871
10415TIP3    H152660   6.503   3.078  16.457  0.3045  1.5209  2.1769
10415TIP3    H252661   6.522   3.162  16.333 -0.1927  0.4482  1.3596
10416TIP3   OH252662   3.380   4.155  14.282  0.1293 -0.1130  0.1673
10416TIP3    H152663   3.441   4.109  14.225 -0.9244 -0.7337 -0.4912
10416TIP3    H252664   3.301   4.165  14.229  0.1929  2.1517  0.4021
10417TIP3   OH252665   0.339   4.664  16.922 -0.3722  0.0794  0.4332
10417TIP3    H152666   0.377   4.610  16.992 -0.2459  0.9543  1.0562
10417TIP3    H252667   0.265   4.613  16.890  0.3155 -0.8994  0.3459
10418TIP3   OH252668   3.503   4.175   5.698  0.3816  0.0836 -0.2045
10418TIP3    H152669   3.586   4.215   5.722  0.4151  0.0344 -0.2396
10418TIP3    H252670   3.482   4.212   5.612  0.9452 -0.7957 -0.7305
10419TIP3   OH252671   5.813   0.972  14.967 -0.0644  0.2927 -0.1431
10419TIP3    H152672   5.787   0.904  15.029 -2.0982  1.2831  0.1808
10419TIP3    H252673   5.792   0.936  14.881  2.5934 -1.0108 -0.3490
10420TIP3   OH252674   4.117   6.132   2.398  0.4206 -0.1042 -0.6799
10420TIP3    H152675   4.044   6.194   2.397  0.8090  0.3885  0.5923
10420TIP3    H252676   4.115   6.093   2.485 -0.9001 -3.2458 -1.9761
10421TIP3   OH252677   5.818   1.585   1.480  0.0591 -0.5176  0.0439
10421TIP3    H152678   5.905   1.622   1.467  0.7788 -2.2155 -0.3465
10421TIP3    H252679   5.782   1.576   1.392 -0.7382  0.6393  0.2353
10422TIP3   OH252680   0.679   4.162  15.848 -0.3191  0.3619  0.4837
10422TIP3    H152681   0.736   4.181  15.923  0.0987  3.0443 -0.3640
10422TIP3    H252682   0.593   4.193  15.875 -0.7141 -0.8606  0.6675
10423TIP3   OH252683   5.229   1.164   1.993 -0.5498 -0.4136  0.2375
10423TIP3    H152684   5.317   1.185   2.022 -1.8884  0.9934  3.8118
10423TIP3    H252685   5.197   1.245   1.953 -0.8754 -0.2413  0.8313
10424TIP3   OH252686   5.635   5.216  13.291  0.3420 -0.2232 -0.6339
10424TIP3    H152687   5.653   5.126  13.262 -1.8724 -1.4402  1.3609
10424TIP3    H252688   5.716   5.243  13.336  1.0617 -1.1811 -1.3160
10425TIP3   OH252689   3.750   1.671   0.071 -0.0544  0.0898  0.4912
10425TIP3    H152690   3.844   1.668   0.056 -0.0007 -0.9191  0.9696
10425TIP3    H252691   3.730   1.589   0.115 -1.0622  0.5715  0.9586
10426TIP3   OH252692   5.902   5.707   3.717  0.2791 -0.5394  0.3585
10426TIP3    H152693   5.812   5.727   3.742  0.2250 -1.6309  1.1109
10426TIP3    H252694   5.897   5.680   3.625 -0.2112 -0.9162  0.4955
10427TIP3   OH252695   0.599   1.864  13.157 -0.7746  0.9216  0.2290
10427TIP3    H152696   0.656   1.879  13.081 -0.8095 -0.8937 -0.1988
10427TIP3    H252697   0.652   1.891  13.232  1.5072 -2.3836  0.0275
10428TIP3   OH252698   4.359   2.197  14.427 -0.9014  0.5637 -0.2249
10428TIP3    H152699   4.325   2.247  14.353 -2.0543  0.6784  0.3597
10428TIP3    H252700   4.450   2.225  14.436 -1.0155  1.2169 -1.0176
10429TIP3   OH252701   4.221   6.106   1.694 -0.5314  0.0799  0.4922
10429TIP3    H152702   4.202   6.135   1.605 -1.9760  1.9909  1.3596
10429TIP3    H252703   4.292   6.042   1.684  0.6756  1.6552 -1.8437
10430TIP3   OH252704   4.754   1.924   2.119 -0.1471  0.4074 -0.0465
10430TIP3    H152705   4.705   1.992   2.074 -0.5819 -0.9296 -1.6691
10430TIP3    H252706   4.751   1.950   2.212 -1.0143  2.1155 -0.5096
10431TIP3   OH252707   4.277   1.098   3.078  0.0547  0.1624  0.5282
10431TIP3    H152708   4.235   1.184   3.091  1.2865  0.8522  0.1133
10431TIP3    H252709   4.282   1.061   3.165 -1.4179  0.0427  0.5924
10432TIP3   OH252710   2.382   6.433  11.228 -0.4524 -0.6103 -0.1211
10432TIP3    H152711   2.357   6.483  11.151  0.9305  0.8545  0.3168
10432TIP3    H252712   2.456   6.482  11.266 -1.5713 -0.8163  2.5734
10433TIP3   OH252713   1.878   0.674  16.527 -0.0105 -0.0833 -0.1690
10433TIP3    H152714   1.843   0.586  16.538  1.7023 -0.6764  0.8235
10433TIP3    H252715   1.942   0.666  16.456 -0.7692  0.6692 -0.9673
10434TIP3   OH252716   5.534   2.538  13.265 -0.5844  0.7907  0.4985
10434TIP3    H152717   5.583   2.488  13.201  1.2360 -0.4906  2.7669
10434TIP3    H252718   5.558   2.629  13.248 -1.9896  0.7823 -2.0541
10435TIP3   OH252719   6.100   4.939  15.433  0.3737  0.9614  0.1235
10435TIP3    H152720   6.111   5.011  15.495  0.4408  1.0515  0.0087
10435TIP3    H252721   6.182   4.891  15.437 -0.9302 -1.3104  2.9427
10436TIP3   OH252722   6.677   1.743  13.266 -0.2618  0.4584  0.6470
10436TIP3    H152723   6.682   1.773  13.356  0.9180 -0.0648  0.7776
10436TIP3    H252724   6.583   1.728  13.250 -0.4248 -0.1525  2.0228
10437TIP3   OH252725   4.821   3.559  12.017 -0.0649  0.1306 -0.1640
10437TIP3    H152726   4.805   3.527  11.928 -3.3424  0.3936  0.2025
10437TIP3    H252727   4.794   3.486  12.073 -1.7119  1.2591  0.5948
10438TIP3   OH252728   2.719   0.435   4.573 -0.3817 -0.1245 -0.0955
10438TIP3    H152729   2.749   0.518   4.536 -1.4272  0.4731  0.3564
10438TIP3    H252730   2.688   0.384   4.498  1.2655 -0.5668 -0.5141
10439TIP3   OH252731   0.625   0.145  14.461  0.1660  0.1626  0.0789
10439TIP3    H152732   0.587   0.182  14.381  0.6133  0.9351  0.2180
10439TIP3    H252733   0.574   0.183  14.532 -0.5528 -0.9030  0.1592
10440TIP3   OH252734   1.138   0.687  13.606  0.1431  0.3317 -0.1322
10440TIP3    H152735   1.135   0.735  13.523  0.7876  2.5785  1.0743
10440TIP3    H252736   1.048   0.691  13.639  0.0060 -0.0922 -0.4402
10441TIP3   OH252737   2.050   5.185  16.882 -0.2029  0.2340 -0.3835
10441TIP3    H152738   2.030   5.267  16.835 -0.9556  0.4597  0.3261
10441TIP3    H252739   2.107   5.137  16.821 -0.1284  1.0771 -1.0033
10442TIP3   OH252740   2.527   3.700  11.903 -0.3656 -0.7826 -0.2524
10442TIP3    H152741   2.438   3.697  11.937  0.0034 -0.3843  0.8203
10442TIP3    H252742   2.518   3.730  11.813 -1.2515  0.0801  0.1081
10443TIP3   OH252743   5.034   0.174  12.517 -0.1828  0.5830  0.7692
10443TIP3    H152744   5.045   0.138  12.428 -0.6800 -0.5790  1.1531
10443TIP3    H252745   5.003   0.100  12.569  0.8441  1.0449  2.0980
10444TIP3   OH252746   6.734   1.032  16.212  0.4743  0.0149  0.1160
10444TIP3    H152747   6.800   0.996  16.154 -0.7562 -0.2075 -1.2023
10444TIP3    H252748   6.778   1.042  16.297  1.8626 -1.1091 -0.4494
10445TIP3   OH252749   6.424   5.006   0.005  0.5192 -0.0555  0.3078
10445TIP3    H152750   6.439   4.981   0.096  0.2654  1.6584  0.8661
10445TIP3    H252751   6.455   4.931  -0.046  0.2684 -1.2252  1.8047
10446TIP3   OH252752   4.838   0.259   5.835  0.4879  0.3023 -0.2339
10446TIP3    H152753   4.871   0.306   5.911  1.6216 -0.5821 -0.1399
10446TIP3    H252754   4.745   0.281   5.831  0.7789  1.7280  0.3734
10447TIP3   OH252755   1.872   0.332  14.938  0.3850  0.9732 -0.4736
10447TIP3    H152756   1.797   0.280  14.908  0.5077 -1.0401  2.2621
10447TIP3    H252757   1.937   0.267  14.965  2.6697  2.6683 -1.5501
10448TIP3   OH252758   2.027   5.447  16.791 -0.0008 -0.0041 -0.3472
10448TIP3    H152759   1.938   5.459  16.759 -0.8741 -1.7933  1.2000
10448TIP3    H252760   2.047   5.528  16.838 -0.7468  0.4751 -0.8324
10449TIP3   OH252761   5.046   5.301   3.240  0.3227  0.1645 -0.1494
10449TIP3    H152762   4.971   5.297   3.181 -0.2710  2.0755  0.3936
10449TIP3    H252763   5.027   5.375   3.298  2.5555  0.6123  0.1061
10450TIP3   OH252764   3.146   4.201  11.519  0.4744  0.3092 -0.4016
10450TIP3    H152765   3.102   4.168  11.441  1.0633  1.0549 -1.0718
10450TIP3    H252766   3.218   4.255  11.485  0.1773  1.4163  0.6340
10451TIP3   OH252767   4.094   2.622   0.323 -0.1680  0.0409  0.0576
10451TIP3    H152768   4.138   2.669   0.253 -0.8753  0.9984  0.2309
10451TIP3    H252769   4.145   2.642   0.402  2.2593 -3.1970 -0.4838
10452TIP3   OH252770   6.046   0.621  16.478  0.1735  0.2243 -0.1818
10452TIP3    H152771   6.093   0.660  16.552 -0.7106  1.0248 -0.0227
10452TIP3    H252772   6.058   0.683  16.407 -0.3659  0.2788 -0.2305
10453TIP3   OH252773   5.047   5.805   4.835 -0.4875  0.6559  0.2542
10453TIP3    H152774   4.996   5.835   4.760  0.1950  2.5373  0.4743
10453TIP3    H252775   5.135   5.791   4.801  0.0021  2.2246  0.8035
10454TIP3   OH252776   4.778   5.462   1.775  0.5851 -0.0938  0.0056
10454TIP3    H152777   4.707   5.397   1.782  1.9280 -1.4319  2.0429
10454TIP3    H252778   4.774   5.491   1.684 -0.8609 -2.1398 -0.6594
10455TIP3   OH252779   3.770   3.236   1.604 -0.1097  0.2327  0.0992
10455TIP3    H152780   3.837   3.283   1.655  0.0917 -0.8824  0.9224
10455TIP3    H252781   3.694   3.232   1.663 -1.2032  2.1066 -1.0910
10456TIP3   OH252782   3.040   3.759  17.168 -0.0962  0.1487 -0.0773
10456TIP3    H152783   2.978   3.811  17.219  1.2314  1.5621  0.1645
10456TIP3    H252784   3.084   3.704  17.233 -0.1862  0.0765 -0.0767
10457TIP3   OH252785   6.465   6.613  13.900  0.6604  0.4461 -0.2780
10457TIP3    H152786   6.546   6.575  13.867  0.7544  0.8475 -0.5158
10457TIP3    H252787   6.396   6.554  13.868  0.7797  0.6413 -0.9084
10458TIP3   OH252788   6.386   6.563  16.034 -0.3030  0.2638 -0.5780
10458TIP3    H152789   6.479   6.547  16.050 -0.0601 -0.8640 -2.8007
10458TIP3    H252790   6.361   6.626  16.101  2.2291  1.1488 -0.3691
10459TIP3   OH252791   0.165   5.056  15.424 -0.4091 -0.6897  0.2308
10459TIP3    H152792   0.087   5.047  15.478 -0.5057 -0.7519  0.0823
10459TIP3    H252793   0.217   5.123  15.468 -0.5291 -0.6736  0.3498
10460TIP3   OH252794   0.999   3.269   0.379 -0.2984  0.6701 -0.1238
10460TIP3    H152795   0.954   3.312   0.452  1.1157  0.7582  0.7348
10460TIP3    H252796   1.076   3.323   0.364 -0.0495  0.0764 -1.0230
10461TIP3   OH252797   4.749   0.770  10.398  0.1300 -0.4234  0.1342
10461TIP3    H152798   4.765   0.845  10.340 -1.1203 -1.2147 -1.2911
10461TIP3    H252799   4.738   0.696  10.339 -2.2488 -1.0749  1.2777
10462TIP3   OH252800   5.502   0.081   5.257  0.0276  0.8748  0.0485
10462TIP3    H152801   5.578   0.047   5.210 -0.8302  0.1220 -0.8299
10462TIP3    H252802   5.536   0.158   5.304  1.6437 -0.2666  0.8451
10463TIP3   OH252803   5.430   4.553   1.050  0.1475 -0.0642  0.2480
10463TIP3    H152804   5.448   4.633   1.001  0.8115  0.2540  0.9792
10463TIP3    H252805   5.472   4.567   1.134 -1.9889 -0.0991  1.3852
10464TIP3   OH252806   6.076   1.669   1.478  0.2104  0.6447  0.0447
10464TIP3    H152807   6.085   1.714   1.395  0.5578 -0.2830 -0.4411
10464TIP3    H252808   6.143   1.601   1.476 -0.7185 -0.3283  0.4491
10465TIP3   OH252809   0.053   0.902  13.952 -0.0111  0.2041 -0.6537
10465TIP3    H152810   0.049   0.997  13.939 -2.0739  0.0416 -1.6092
10465TIP3    H252811   0.062   0.866  13.864 -0.4742 -0.5276 -0.4095
10466TIP3   OH252812   6.013   6.276  15.986 -0.1561 -0.0418  0.0949
10466TIP3    H152813   6.047   6.365  15.999  0.7546 -0.4479  0.5966
10466TIP3    H252814   6.034   6.256  15.895 -0.3613  0.2502 -0.0196
10467TIP3   OH252815   4.397   2.448   1.764  0.5465  0.0304  0.8323
10467TIP3    H152816   4.370   2.418   1.850 -0.6310 -0.2009  0.3983
10467TIP3    H252817   4.451   2.377   1.729  0.1552 -0.3317  0.9619
10468TIP3   OH252818   3.323   3.385   0.501  0.5980 -0.0584 -0.1633
10468TIP3    H152819   3.243   3.409   0.548  0.6189  0.5662 -0.4362
10468TIP3    H252820   3.358   3.311   0.550 -0.9087 -1.2939 -0.8674
10469TIP3   OH252821   1.739   1.770  10.989 -0.3065 -0.3051 -0.5851
10469TIP3    H152822   1.761   1.678  10.975  0.4380 -0.6304  2.1994
10469TIP3    H252823   1.824   1.813  11.000 -0.5969 -0.4048  3.7152
10470TIP3   OH252824   0.313   2.744  11.918 -0.4941 -0.0829 -0.1527
10470TIP3    H152825   0.291   2.709  12.005 -2.6621 -0.1908 -0.6926
10470TIP3    H252826   0.391   2.799  11.934 -0.2030 -0.9279  1.6474
10471TIP3   OH252827   1.509   5.401   3.028  0.7902  0.4107  0.6009
10471TIP3    H152828   1.509   5.433   3.118  0.4214  0.6584  0.5157
10471TIP3    H252829   1.504   5.305   3.037  1.8183  0.3717  0.8544
10472TIP3   OH252830   2.006   5.729  16.362 -0.2510  0.1165  0.1549
10472TIP3    H152831   2.096   5.747  16.387 -0.3043 -0.0652  0.4827
10472TIP3    H252832   2.000   5.634  16.358  0.0850  0.1377 -1.7804
10473TIP3   OH252833   2.148   1.542  12.171  0.0347  0.4555 -0.3937
10473TIP3    H152834   2.181   1.629  12.148 -0.9260  1.5230  2.0195
10473TIP3    H252835   2.064   1.558  12.213 -0.2263 -1.6699  0.0092
10474TIP3   OH252836   3.910   2.107   4.609  0.5691  0.4638  0.1371
10474TIP3    H152837   3.851   2.108   4.534  0.6560  2.8001  0.0519
10474TIP3    H252838   3.990   2.067   4.575  0.2591  0.5547 -0.7348
10475TIP3   OH252839   1.790   0.097  14.698 -0.2203 -0.1233  0.1414
10475TIP3    H152840   1.774   0.015  14.651 -1.3113 -0.4616  1.0800
10475TIP3    H252841   1.880   0.121  14.673 -0.3760 -0.8634 -1.2373
10476TIP3   OH252842   0.455   1.707   3.735 -0.0849  1.0745 -0.5693
10476TIP3    H152843   0.396   1.718   3.810 -1.6361 -3.6530 -0.7940
10476TIP3    H252844   0.540   1.689   3.774  0.3167  3.4303 -0.1790
10477TIP3   OH252845   0.763   0.925   4.445  0.7481  0.6480 -0.4910
10477TIP3    H152846   0.779   0.911   4.538 -1.1905  1.1798 -0.0228
10477TIP3    H252847   0.798   0.847   4.402 -1.5686 -1.4033  1.0872
10478TIP3   OH252848   2.548   4.380   6.609  0.1732  0.7274 -0.3639
10478TIP3    H152849   2.535   4.466   6.567 -0.1359  1.5369  1.3061
10478TIP3    H252850   2.480   4.376   6.675  1.5572  0.1707  1.0812
10479TIP3   OH252851   6.482   1.169  15.175 -0.0848  0.2138  0.3367
10479TIP3    H152852   6.540   1.132  15.109 -0.3024 -1.4348  1.0324
10479TIP3    H252853   6.492   1.112  15.251 -0.9363  1.2143  1.2342
10480TIP3   OH252854   0.646   5.167  13.241 -0.7725 -0.1146  0.1878
10480TIP3    H152855   0.720   5.158  13.180 -0.3931 -0.8044  0.7354
10480TIP3    H252856   0.632   5.079  13.276 -3.0438 -0.3964 -1.2353
10481TIP3   OH252857   0.284   4.266  14.779 -0.6980  0.5386  0.1093
10481TIP3    H152858   0.303   4.296  14.868 -0.5440 -1.4787  0.8261
10481TIP3    H252859   0.236   4.184  14.792 -0.1034 -0.1271 -1.6585
10482TIP3   OH252860   4.666   1.233  14.704  0.1857  0.4637  0.3239
10482TIP3    H152861   4.640   1.150  14.665  1.9319  0.2649 -0.5325
10482TIP3    H252862   4.584   1.273  14.733 -0.7792 -1.1172 -0.1078
10483TIP3   OH252863   1.330   0.864   4.532 -0.1997  0.1454 -0.6214
10483TIP3    H152864   1.249   0.902   4.498 -0.4227  0.2692  0.0235
10483TIP3    H252865   1.396   0.887   4.467 -0.4860  0.9374 -0.6537
10484TIP3   OH252866   2.776   2.537   5.062 -0.7415 -0.7671  0.1270
10484TIP3    H152867   2.765   2.457   5.010  0.7735 -0.2257 -1.0975
10484TIP3    H252868   2.780   2.506   5.152  0.5296 -2.1951 -0.3727
10485TIP3   OH252869   3.062   4.626   3.507 -0.3666  0.4614  0.1019
10485TIP3    H152870   3.153   4.638   3.478 -0.8058 -0.0467 -1.5523
10485TIP3    H252871   3.025   4.714   3.506 -0.4038  0.4376 -0.9994
10486TIP3   OH252872   0.337   3.634   4.680 -0.0347  0.1237 -0.8839
10486TIP3    H152873   0.319   3.557   4.626 -0.0677  0.8966 -2.0073
10486TIP3    H252874   0.432   3.642   4.680  0.0546 -0.6559  0.3272
10487TIP3   OH252875   1.108   6.035   5.650  0.3023 -0.7351  0.4977
10487TIP3    H152876   1.192   6.080   5.644  0.8046 -1.7101 -0.1748
10487TIP3    H252877   1.046   6.102   5.677  1.0776  0.2742 -0.1634
10488TIP3   OH252878   1.699   2.337  14.229  0.5511  0.0227 -0.1765
10488TIP3    H152879   1.770   2.356  14.290 -0.6983 -0.1608  1.3798
10488TIP3    H252880   1.733   2.265  14.175  1.0970 -0.9627  1.4065
10489TIP3   OH252881   6.326   6.760   3.602 -0.6132 -0.9386 -0.2371
10489TIP3    H152882   6.325   6.855   3.588  0.4116 -0.6849  1.1292
10489TIP3    H252883   6.373   6.725   3.526  1.4890 -0.0242  0.5425
10490TIP3   OH252884   3.073   5.605  11.235  0.2029  0.1339 -0.1783
10490TIP3    H152885   3.149   5.634  11.184 -0.3456  0.7474 -0.6606
10490TIP3    H252886   3.008   5.674  11.222 -0.7198 -0.7703 -0.4007
10491TIP3   OH252887   5.347   5.442  14.578 -0.1055 -0.0513  0.4375
10491TIP3    H152888   5.377   5.530  14.557 -1.3290  0.5358  1.0437
10491TIP3    H252889   5.330   5.445  14.672  0.2003 -1.0528  0.5317
10492TIP3   OH252890   6.228   0.738   3.115  0.3171  0.3467  0.1929
10492TIP3    H152891   6.282   0.785   3.179  1.0551 -1.0640  0.6595
10492TIP3    H252892   6.249   0.778   3.031  0.5792  1.1400  0.6240
10493TIP3   OH252893   3.003   0.440  16.797 -0.2605 -0.2221 -0.1397
10493TIP3    H152894   2.919   0.433  16.843 -0.2960 -1.4075 -0.3575
10493TIP3    H252895   2.981   0.428  16.705  0.1100 -0.2189 -0.2302
10494TIP3   OH252896   2.189   2.309  14.578 -0.5748 -0.2912 -0.1049
10494TIP3    H152897   2.235   2.233  14.543 -0.2260  0.7698 -2.1167
10494TIP3    H252898   2.248   2.344  14.644 -0.0059 -0.8405 -0.3059
10495TIP3   OH252899   5.996   1.792  13.172  0.0326  0.1729 -0.7538
10495TIP3    H152900   5.975   1.719  13.230  1.1790  0.1602 -0.3445
10495TIP3    H252901   6.063   1.842  13.219 -0.1293  1.0236 -1.4002
10496TIP3   OH252902   0.530   3.778   1.860  0.1842  0.0038  0.3245
10496TIP3    H152903   0.537   3.789   1.765  1.2303 -1.6797  0.1665
10496TIP3    H252904   0.514   3.684   1.872 -1.4986  0.4258  1.7654
10497TIP3   OH252905   1.078   3.444   5.198  0.0382  1.2209  0.8205
10497TIP3    H152906   1.086   3.352   5.225 -0.6534  0.9444  0.1062
10497TIP3    H252907   1.001   3.476   5.244  1.7331  2.2511  3.1836
10498TIP3   OH252908   1.244   0.506  11.017  0.0980 -0.3328  0.1815
10498TIP3    H152909   1.312   0.439  11.009 -0.1071 -0.6998  1.2945
10498TIP3    H252910   1.267   0.553  11.097  0.8849  1.7002 -1.1425
10499TIP3   OH252911   4.345   5.836  11.677  0.4292 -0.1416 -0.3307
10499TIP3    H152912   4.430   5.868  11.708  1.9297 -2.3291 -1.8750
10499TIP3    H252913   4.309   5.787  11.751  1.4776 -0.8584 -0.2709
10500TIP3   OH252914   1.862   3.683   6.735 -0.0139 -0.8148  0.3850
10500TIP3    H152915   1.803   3.725   6.673  0.6632  0.8844  0.8381
10500TIP3    H252916   1.919   3.753   6.765  0.4735 -1.8458  1.9971
10501TIP3   OH252917   2.165   2.370   0.567  0.0350 -0.2960  0.2678
10501TIP3    H152918   2.172   2.351   0.661  1.0819 -0.8329  0.0887
10501TIP3    H252919   2.098   2.310   0.535 -0.5553  0.1104  0.7265
10502TIP3   OH252920   4.208   5.571  10.931 -0.2257  0.0728  0.3245
10502TIP3    H152921   4.143   5.538  10.993 -0.0636 -0.5849  0.1542
10502TIP3    H252922   4.285   5.515  10.945 -0.3864 -0.4799 -0.8790
10503TIP3   OH252923   3.863   5.732  13.048  0.6185  0.0566  0.4690
10503TIP3    H152924   3.831   5.653  13.004 -0.4076  0.8074 -0.1634
10503TIP3    H252925   3.823   5.728  13.135 -1.2279  0.9423 -0.2819
10504TIP3   OH252926   6.127   0.826   2.530 -0.4692 -0.1261  0.3638
10504TIP3    H152927   6.218   0.811   2.555 -0.8191 -2.8256  0.2997
10504TIP3    H252928   6.128   0.824   2.434 -0.4106  1.3688  0.3146
10505TIP3   OH252929   4.589   1.942  15.721 -0.3185  0.0581  0.1511
10505TIP3    H152930   4.676   1.976  15.700  0.1667  1.4011  3.7258
10505TIP3    H252931   4.598   1.847  15.714  1.4089  0.1737  0.3653
10506TIP3   OH252932   3.812   2.884  15.428 -0.6436  0.0451 -0.7004
10506TIP3    H152933   3.901   2.870  15.462 -0.5005  0.5461 -0.8654
10506TIP3    H252934   3.799   2.812  15.367  0.1504  0.6928 -1.6681
10507TIP3   OH252935   1.728   1.820   3.646 -0.3213 -0.4239  0.1168
10507TIP3    H152936   1.793   1.754   3.669  0.0141 -0.6552 -1.3490
10507TIP3    H252937   1.725   1.817   3.550 -1.8235  0.2329  0.1179
10508TIP3   OH252938   0.139   4.383   5.719  0.1905  0.0302 -0.2514
10508TIP3    H152939   0.119   4.385   5.813  1.4584 -0.8749  0.0695
10508TIP3    H252940   0.056   4.362   5.677 -0.3269  0.1533  0.6946
10509TIP3   OH252941   2.294   4.577   3.245 -0.0734  0.4256 -0.8518
10509TIP3    H152942   2.373   4.561   3.194 -0.3948 -1.0348 -0.9180
10509TIP3    H252943   2.324   4.590   3.334  0.3660  1.5300 -1.1425
10510TIP3   OH252944   1.968   5.553  12.929  0.0092 -0.4213 -0.5865
10510TIP3    H152945   2.001   5.641  12.910 -0.7417  0.0633  0.3116
10510TIP3    H252946   2.034   5.515  12.987 -0.1524 -0.0830 -0.1780
10511TIP3   OH252947   0.710   5.412  12.645 -1.1634  0.1663 -0.2222
10511TIP3    H152948   0.682   5.379  12.560 -1.3447  1.1990 -0.5756
10511TIP3    H252949   0.634   5.399  12.702 -0.8824 -0.9657 -0.0759
10512TIP3   OH252950   3.445   4.714  16.829  0.2260  0.0235  0.2225
10512TIP3    H152951   3.391   4.639  16.808  1.1066 -0.8483  0.9510
10512TIP3    H252952   3.497   4.686  16.904  0.3817  1.4582  0.6890
10513TIP3   OH252953   3.891   2.527  11.345  0.1780  0.1741  0.1439
10513TIP3    H152954   3.813   2.532  11.399 -0.2168 -0.9325 -0.3031
10513TIP3    H252955   3.900   2.434  11.324  1.7884  0.2414  0.4332
10514TIP3   OH252956   3.915   4.008   0.863  0.4922 -0.1430 -0.5843
10514TIP3    H152957   3.893   4.100   0.873 -2.8347 -0.9775  0.9764
10514TIP3    H252958   3.855   3.976   0.795  0.5882 -1.4639 -0.0782
10515TIP3   OH252959   2.619   4.151  11.241  0.5587 -0.3366  0.0306
10515TIP3    H152960   2.549   4.086  11.251  0.6797 -0.8472 -2.0616
10515TIP3    H252961   2.652   4.138  11.152  0.9575  2.2245 -0.2830
10516TIP3   OH252962   2.367   2.027  15.179 -0.4135 -0.9527  0.1033
10516TIP3    H152963   2.310   2.062  15.111 -1.0293 -1.3525  0.4024
10516TIP3    H252964   2.381   2.100  15.239 -0.3068 -0.7495 -0.1665
10517TIP3   OH252965   2.167   0.632  15.761 -0.2280 -0.1261  0.2795
10517TIP3    H152966   2.203   0.698  15.820 -0.0189 -0.7074  0.8117
10517TIP3    H252967   2.090   0.673  15.723  0.1578  0.5910  0.2617
10518TIP3   OH252968   5.716   0.459   4.769 -0.1060 -0.6097 -0.7821
10518TIP3    H152969   5.790   0.490   4.716  1.0439  0.7576  1.4756
10518TIP3    H252970   5.643   0.516   4.743  0.6314  0.5321 -0.3993
10519TIP3   OH252971   5.673   3.553  12.959  0.8721 -0.8014  0.5211
10519TIP3    H152972   5.631   3.476  12.998 -1.4578  0.0580 -0.1058
10519TIP3    H252973   5.660   3.542  12.864  0.4780  0.3594  0.4267
10520TIP3   OH252974   3.097   3.031  13.775 -0.8267 -0.1906 -0.0637
10520TIP3    H152975   3.039   3.103  13.800 -0.8168  0.5346 -1.9580
10520TIP3    H252976   3.040   2.968  13.731 -0.1950  0.7637 -2.4140
10521TIP3   OH252977   0.272   5.682   5.621 -0.5210  0.0638 -0.1639
10521TIP3    H152978   0.255   5.669   5.714 -0.1596  1.1815  0.0658
10521TIP3    H252979   0.190   5.715   5.586 -0.3548  0.6018 -0.0459
10522TIP3   OH252980   3.695   6.463  11.607 -0.7726  0.3893  0.1996
10522TIP3    H152981   3.651   6.522  11.668 -3.1266  0.7284 -1.6953
10522TIP3    H252982   3.640   6.385  11.605 -0.1266 -0.0578 -0.6496
10523TIP3   OH252983   3.469   3.699   5.350 -0.5898  0.0431  0.7063
10523TIP3    H152984   3.421   3.656   5.421  0.4445  0.4369  1.6794
10523TIP3    H252985   3.401   3.742   5.298 -1.5030 -1.5142  0.5614
10524TIP3   OH252986   1.237   1.828   1.952  0.0061  0.3891 -0.2005
10524TIP3    H152987   1.157   1.835   2.004 -0.7724 -0.7764 -1.1926
10524TIP3    H252988   1.259   1.735   1.955  0.5418  0.4806 -1.0768
10525TIP3   OH252989   2.721   0.978  14.730 -0.3440 -0.8464  0.2416
10525TIP3    H152990   2.678   0.924  14.796  0.1215 -1.9805 -0.3479
10525TIP3    H252991   2.814   0.955  14.738 -0.4939 -2.5787 -2.1569
10526TIP3   OH252992   4.083   1.391  13.587  0.3861 -0.2175 -0.0593
10526TIP3    H152993   4.114   1.356  13.504  0.0827  0.9215 -0.6711
10526TIP3    H252994   4.006   1.338  13.607  0.6614 -0.7270 -0.3201
10527TIP3   OH252995   6.696   2.376  14.645  0.2428  0.3908  0.2652
10527TIP3    H152996   6.672   2.290  14.609  0.5980  0.9505 -1.4212
10527TIP3    H252997   6.681   2.437  14.572  1.7202  1.4933  0.8365
10528TIP3   OH252998   1.976   0.993   4.237 -0.0072  0.2361  0.6612
10528TIP3    H152999   1.971   1.015   4.331 -0.7673 -0.9210  0.9125
10528TIP3    H253000   2.012   1.072   4.196  2.3547  0.0434  2.1899
10529TIP3   OH253001   3.473   4.127  16.311  0.2347 -0.4841 -0.5542
10529TIP3    H153002   3.506   4.156  16.396 -2.3244  0.0670  0.3256
10529TIP3    H253003   3.464   4.208  16.260 -0.7422 -0.4942 -0.4053
10530TIP3   OH253004   3.724   4.969  11.090 -0.0319 -0.1114  0.1605
10530TIP3    H153005   3.794   4.932  11.037 -0.0322 -1.5538  1.1021
10530TIP3    H253006   3.768   5.007  11.166 -0.1632  0.3960 -0.0100
10531TIP3   OH253007   6.251   0.209  13.858  0.1637  0.1695  0.1851
10531TIP3    H153008   6.336   0.168  13.845 -0.1669 -0.5268  0.1880
10531TIP3    H253009   6.198   0.141  13.901 -0.4549  0.5264 -0.0053
10532TIP3   OH253010   1.242   3.935   5.450  0.2324 -0.1027 -0.8016
10532TIP3    H153011   1.206   3.897   5.530 -1.0449 -0.2741 -1.4352
10532TIP3    H253012   1.205   4.023   5.447  1.4894  0.4581 -0.4380
10533TIP3   OH253013   2.311   2.977   0.108  0.3880  0.5368 -0.1930
10533TIP3    H153014   2.246   2.931   0.055 -1.7050  0.1358  2.5183
10533TIP3    H253015   2.285   3.069   0.104  1.0089  0.6931 -0.8516
10534TIP3   OH253016   6.548   0.202  12.518 -0.4202  0.2404 -0.0318
10534TIP3    H153017   6.640   0.180  12.533  0.0961  2.1786 -0.0216
10534TIP3    H253018   6.511   0.208  12.606 -0.2897  0.4036  0.0145
10535TIP3   OH253019   5.394   3.343  10.691 -0.4024 -0.2921  0.1472
10535TIP3    H153020   5.404   3.408  10.622  2.2819  0.3432  1.0276
10535TIP3    H253021   5.358   3.391  10.765  2.6245  0.5858  1.1672
10536TIP3   OH253022   1.624   6.289  15.439  0.0702 -0.2996 -0.0233
10536TIP3    H153023   1.667   6.213  15.478 -0.5948  0.6542  2.8499
10536TIP3    H253024   1.541   6.255  15.405  0.8740 -1.2569 -1.1180
10537TIP3   OH253025   4.658   6.708  11.193 -0.0890  0.7154 -0.2610
10537TIP3    H153026   4.714   6.774  11.151 -0.9929  0.4143 -2.0711
10537TIP3    H253027   4.570   6.745  11.190 -0.1072  1.0236  2.2120
10538TIP3   OH253028   6.112   2.047  14.799 -0.2014  0.0738  0.4312
10538TIP3    H153029   6.206   2.041  14.814  0.1533 -5.0237 -1.7470
10538TIP3    H253030   6.073   2.004  14.875 -0.9033  2.3271  1.4146
10539TIP3   OH253031   4.456   1.870   4.627 -0.0623 -0.3434  0.7242
10539TIP3    H153032   4.471   1.849   4.535  1.5565 -0.3614  0.9714
10539TIP3    H253033   4.393   1.942   4.625  0.4471  0.0890 -0.4285
10540TIP3   OH253034   2.485   2.400   5.460 -0.2354 -0.5623  0.0625
10540TIP3    H153035   2.521   2.312   5.474 -0.8557 -0.4853  2.5674
10540TIP3    H253036   2.542   2.458   5.509  1.6820  0.9228 -3.5643
10541TIP3   OH253037   2.375   5.331  17.054  0.4960  0.2177  0.4164
10541TIP3    H153038   2.404   5.264  17.115  1.0525  0.0335 -0.0400
10541TIP3    H253039   2.282   5.342  17.072  0.1677 -1.3895 -0.1738
10542TIP3   OH253040   5.249   0.498  11.447 -0.0196 -0.4769  0.3650
10542TIP3    H153041   5.169   0.515  11.496  1.2934  0.7587  2.1757
10542TIP3    H253042   5.221   0.440  11.376 -3.0802  2.0391 -0.7709
10543TIP3   OH253043   3.928   1.138   3.099  0.1890 -0.6196  0.3794
10543TIP3    H153044   3.970   1.203   3.156  0.4491  0.1036 -0.6068
10543TIP3    H253045   3.991   1.126   3.027 -0.9198 -0.1157 -0.7095
10544TIP3   OH253046   4.180   5.369   3.468 -0.0149 -0.0253 -0.0151
10544TIP3    H153047   4.263   5.326   3.486 -0.3436 -0.4467  0.5603
10544TIP3    H253048   4.120   5.333   3.534 -0.7427 -0.0118 -0.6528
10545TIP3   OH253049   0.808   1.911  15.858  0.0791 -0.1127 -0.1722
10545TIP3    H153050   0.828   1.896  15.765 -3.2265  0.7173 -1.1490
10545TIP3    H253051   0.778   1.825  15.890 -1.9400  0.2602 -0.8842
10546TIP3   OH253052   1.933   3.933   4.771  0.1920  0.0161 -1.0306
10546TIP3    H153053   1.871   3.949   4.843  0.3026 -0.2171 -0.8824
10546TIP3    H253054   2.009   3.893   4.813 -0.7672 -2.6496 -1.5824
10547TIP3   OH253055   5.840   3.346   0.180  0.1252 -0.2438 -0.5316
10547TIP3    H153056   5.813   3.337   0.271 -2.3977  3.3133 -0.7031
10547TIP3    H253057   5.928   3.382   0.184 -0.5066  1.2880  0.6526
10548TIP3   OH253058   0.136   0.203  10.443 -0.5865  0.6223 -0.0026
10548TIP3    H153059   0.145   0.292  10.478 -1.0736  0.2441  1.1390
10548TIP3    H253060   0.077   0.213  10.368  0.1533  1.4003 -0.5029
10549TIP3   OH253061   1.060   2.121  11.069  0.2440 -0.0527 -0.3608
10549TIP3    H153062   0.989   2.160  11.019 -0.0502  0.0407  0.1246
10549TIP3    H253063   1.139   2.166  11.038 -0.1025  1.0260  0.2926
10550TIP3   OH253064   0.827   6.313  11.684 -0.0388  0.0604 -0.2244
10550TIP3    H153065   0.743   6.355  11.669  0.3982  0.7644 -0.7614
10550TIP3    H253066   0.808   6.240  11.744 -0.8106  1.0052  0.7040
10551TIP3   OH253067   5.346   2.921  14.304  0.3751 -0.7412 -0.2989
10551TIP3    H153068   5.270   2.979  14.306  0.3220 -0.8251  1.2350
10551TIP3    H253069   5.405   2.961  14.241  1.0557  1.9630  1.8700
10552TIP3   OH253070   4.274   0.039   1.573 -0.5100  0.0812  0.2491
10552TIP3    H153071   4.269   0.073   1.483 -0.9521  0.0379  0.2540
10552TIP3    H253072   4.346   0.086   1.613  0.2026 -0.4573 -0.3728
10553TIP3   OH253073   2.256   2.296   0.086 -0.4085  0.3409  0.0753
10553TIP3    H153074   2.226   2.385   0.104 -0.8227  0.2984 -0.3962
10553TIP3    H253075   2.234   2.247   0.166  0.6438  0.8541  0.6927
10554TIP3   OH253076   0.357   4.606  15.467  0.3053 -0.0318  0.3467
10554TIP3    H153077   0.432   4.649  15.509  0.2398 -0.4099  0.8666
10554TIP3    H253078   0.288   4.671  15.469  0.5269  0.2093  0.1597
10555TIP3   OH253079   3.611   0.949  15.585 -0.1521 -0.6714  0.4311
10555TIP3    H153080   3.553   0.998  15.644  0.8997  0.7554  0.3486
10555TIP3    H253081   3.553   0.889  15.539 -1.2742 -0.5671  1.6404
10556TIP3   OH253082   2.825   1.833  13.140 -0.4496  0.4301 -0.2923
10556TIP3    H153083   2.730   1.827  13.148 -0.2334 -2.2778  1.8465
10556TIP3    H253084   2.858   1.809  13.227  2.2174 -1.3555 -1.6395
10557TIP3   OH253085   5.953   3.034   0.438 -0.3167  0.5728  0.4687
10557TIP3    H153086   6.032   3.059   0.487  0.1809  0.1919 -0.1327
10557TIP3    H253087   5.902   3.115   0.433 -0.2449  0.6895  1.3629
10558TIP3   OH253088   4.558   1.531   3.674  0.4578 -0.0781  0.7117
10558TIP3    H153089   4.572   1.594   3.603  0.8418 -0.7785  0.1519
10558TIP3    H253090   4.469   1.499   3.659  0.8436 -0.8707 -0.0002
10559TIP3   OH253091   3.295   5.066   0.072 -0.2484 -0.2754 -0.1994
10559TIP3    H153092   3.212   5.099   0.107  0.0193 -0.5076  0.6948
10559TIP3    H253093   3.361   5.126   0.107  0.4968 -2.7272  3.1387
10560TIP3   OH253094   2.336   6.177   2.752  0.5080 -0.0856  0.5281
10560TIP3    H153095   2.363   6.148   2.839 -2.7293  0.3875  1.8030
10560TIP3    H253096   2.403   6.241   2.727  0.9948  0.5249  3.0965
10561TIP3   OH253097   2.366   3.165   0.652 -0.0632  0.0399  0.9921
10561TIP3    H153098   2.449   3.148   0.608 -1.0268 -1.5158 -0.3371
10561TIP3    H253099   2.373   3.120   0.735 -0.3921 -2.1240 -0.0880
10562TIP3   OH253100   4.445   6.344  16.990 -0.2318  0.4023 -0.2783
10562TIP3    H153101   4.356   6.311  17.005 -0.2121  0.8994  1.0819
10562TIP3    H253102   4.500   6.265  16.990 -0.5975  0.1420 -0.5459
10563TIP3   OH253103   4.360   1.141   6.292 -0.1650  0.4430  0.3563
10563TIP3    H153104   4.397   1.053   6.287 -0.0369  0.4873  0.5090
10563TIP3    H253105   4.378   1.169   6.382  0.1769  0.7897  0.1841
10564TIP3   OH253106   2.559   3.661  16.873 -0.1784 -0.1054 -0.4449
10564TIP3    H153107   2.653   3.683  16.875 -0.2893  0.4545 -1.1141
10564TIP3    H253108   2.545   3.624  16.786 -0.8248  0.9644 -0.8092
10565TIP3   OH253109   4.419   4.384   1.800  0.5991  0.1690  0.2475
10565TIP3    H153110   4.442   4.300   1.840  1.0658  0.9678  1.7331
10565TIP3    H253111   4.494   4.441   1.820  1.0949  0.5150 -2.2252
10566TIP3   OH253112   1.732   6.016  17.101  0.1044  0.4972 -0.5323
10566TIP3    H153113   1.777   5.965  17.168 -1.5551  2.3245  2.2119
10566TIP3    H253114   1.773   6.102  17.106  0.1351  0.5923 -2.1283
10567TIP3   OH253115   6.275   1.190   3.862 -0.5605 -0.0280 -0.0974
10567TIP3    H153116   6.195   1.234   3.891  0.4142  0.9023  1.3014
10567TIP3    H253117   6.270   1.192   3.767 -1.8242  0.7326 -0.0419
10568TIP3   OH253118   1.663   0.700  15.720 -0.3510 -0.3144 -0.0627
10568TIP3    H153119   1.605   0.734  15.788 -0.5164 -1.8328  0.5952
10568TIP3    H253120   1.628   0.737  15.638 -0.9028  0.5420  0.5454
10569TIP3   OH253121   2.061   5.076   5.658  0.3081  0.2489  0.0597
10569TIP3    H153122   2.030   5.110   5.574  1.8280  0.6448 -0.3733
10569TIP3    H253123   2.126   5.140   5.687 -0.5092  0.3401  1.7684
10570TIP3   OH253124   3.822   3.372  11.667 -0.0077 -0.3721 -0.0606
10570TIP3    H153125   3.738   3.328  11.681 -0.6913  1.4936  2.4991
10570TIP3    H253126   3.882   3.302  11.643 -1.9126 -2.0364 -0.2221
10571TIP3   OH253127   2.925   3.625   0.074 -0.5785  1.0073  0.2005
10571TIP3    H153128   2.989   3.642   0.143  0.4236 -1.7193  0.0303
10571TIP3    H253129   2.856   3.573   0.116  1.0664 -2.5541 -1.1085
10572TIP3   OH253130   5.689   3.105  15.333  0.8277 -0.0527  0.1369
10572TIP3    H153131   5.688   3.048  15.256 -1.1532  1.0247 -0.7263
10572TIP3    H253132   5.780   3.133  15.341  1.3539 -1.3294 -0.9349
10573TIP3   OH253133   3.217   0.426  15.466 -0.5468  0.1368 -0.0153
10573TIP3    H153134   3.276   0.377  15.408 -0.4669  0.2476 -0.0272
10573TIP3    H253135   3.182   0.495  15.410 -1.1200 -0.2636 -0.1663
10574TIP3   OH253136   6.045   3.862  15.842 -0.5823  0.3622  0.6567
10574TIP3    H153137   6.017   3.797  15.907 -0.3086  1.9065  2.4159
10574TIP3    H253138   6.137   3.876  15.861 -0.4543  0.7304 -0.1975
10575TIP3   OH253139   1.862   0.991  13.949 -0.3201  0.1464 -0.1276
10575TIP3    H153140   1.775   1.027  13.959  0.2428  1.3793  0.4975
10575TIP3    H253141   1.917   1.065  13.921  1.2871  0.4027  3.2430
10576TIP3   OH253142   2.382   6.232   2.256  0.3663  0.0175 -0.0867
10576TIP3    H153143   2.376   6.285   2.336 -1.6899  0.1106 -0.2584
10576TIP3    H253144   2.347   6.147   2.281  1.1842 -0.4523 -0.5061
10577TIP3   OH253145   4.022   0.084  17.157  0.6546  0.1258 -0.0743
10577TIP3    H153146   4.039   0.104  17.249 -2.7961  0.0448  0.7188
10577TIP3    H253147   4.036  -0.010  17.149 -0.2236 -0.0897  0.7453
10578TIP3   OH253148   0.812   4.874   4.763  0.2772  0.1714 -0.2963
10578TIP3    H153149   0.786   4.947   4.707  0.3466 -0.9288 -1.8240
10578TIP3    H253150   0.905   4.886   4.778  0.5244 -0.1769 -1.4692
10579TIP3   OH253151   1.175   5.183  16.687 -0.4978  0.0800  0.0988
10579TIP3    H153152   1.234   5.120  16.727  0.4971  0.3760 -0.8583
10579TIP3    H253153   1.087   5.148  16.704  0.0075 -1.2017  0.1777
10580TIP3   OH253154   1.654   5.961   0.957  0.3841  0.4638  0.7040
10580TIP3    H153155   1.656   5.968   0.862  0.0193 -3.1288  0.3160
10580TIP3    H253156   1.561   5.965   0.979  0.4417  0.8719  0.8819
10581TIP3   OH253157   6.008   3.653   5.914  0.6710  0.2507  0.1025
10581TIP3    H153158   6.054   3.570   5.929  0.7245  0.5040  1.4185
10581TIP3    H253159   6.027   3.674   5.822  0.0622 -1.5447 -0.4829
10582TIP3   OH253160   1.754   5.043  16.096 -0.2282  0.4582  0.1897
10582TIP3    H153161   1.771   5.077  16.184 -0.3918  1.7696 -0.2678
10582TIP3    H253162   1.811   4.967  16.088  1.3259  1.5431  0.6708
10583TIP3   OH253163   4.749   6.611   4.261  0.3360 -0.0859  0.2649
10583TIP3    H153164   4.663   6.604   4.219 -0.2568 -0.6054  1.4984
10583TIP3    H253165   4.764   6.705   4.269 -0.0761  0.0117 -0.0594
10584TIP3   OH253166   2.424   5.547  12.717 -0.7835  0.2562  0.1387
10584TIP3    H153167   2.416   5.481  12.786 -2.1088 -0.2674 -0.4791
10584TIP3    H253168   2.518   5.551  12.699 -0.5982 -0.9417  0.6995
10585TIP3   OH253169   2.170   5.192  12.975  0.1293  0.5021  0.2975
10585TIP3    H153170   2.100   5.175  12.912  0.4796 -0.3336  0.1179
10585TIP3    H253171   2.141   5.149  13.056  1.8767 -2.9090 -0.6772
10586TIP3   OH253172   0.748   2.085  14.068  0.0733 -0.4364 -0.0206
10586TIP3    H153173   0.719   2.163  14.115 -0.5098 -1.6659  1.7187
10586TIP3    H253174   0.679   2.069  14.003 -0.4684 -0.2806  0.5144
10587TIP3   OH253175   3.277   2.375   3.843  0.0851 -0.4173 -0.2780
10587TIP3    H153176   3.262   2.422   3.761  0.6838 -0.6614 -0.5311
10587TIP3    H253177   3.354   2.320   3.826 -1.1242 -2.1926 -0.3003
10588TIP3   OH253178   1.728   3.224   1.079 -0.2340 -0.0481 -0.1003
10588TIP3    H153179   1.768   3.147   1.037  0.7672  0.1317  0.4905
10588TIP3    H253180   1.722   3.201   1.171 -0.2878  0.4352  0.0205
10589TIP3   OH253181   3.043   0.384   2.589  0.0441 -0.5038 -0.4036
10589TIP3    H153182   3.136   0.364   2.591  0.4680  1.3012 -0.0371
10589TIP3    H253183   3.034   0.451   2.521 -1.1487 -1.2925 -1.0698
10590TIP3   OH253184   2.511   1.337   1.781 -0.2034  0.2980  0.1216
10590TIP3    H153185   2.602   1.345   1.751  0.0584  0.1877  0.8687
10590TIP3    H253186   2.517   1.337   1.877 -1.0483  1.0013  0.1918
10591TIP3   OH253187   0.954   0.761  16.408  0.1352 -0.3785 -0.0646
10591TIP3    H153188   0.990   0.674  16.394  0.0510 -0.5112  0.5017
10591TIP3    H253189   0.974   0.780  16.500 -0.3840 -0.0535 -0.0169
10592TIP3   OH253190   0.224   5.496  15.344  0.0927  0.5079 -0.2558
10592TIP3    H153191   0.287   5.563  15.369  1.9209 -1.6867  1.3446
10592TIP3    H253192   0.250   5.470  15.255 -0.1283  1.3020 -0.5609
10593TIP3   OH253193   2.960   1.255  15.846  0.1464 -0.0447  0.0651
10593TIP3    H153194   2.919   1.170  15.829 -0.9744  0.3949  0.4666
10593TIP3    H253195   3.016   1.240  15.921 -0.0856 -0.4230  0.1656
10594TIP3   OH253196   1.285   5.502   5.484 -0.3694 -0.2458 -0.2767
10594TIP3    H153197   1.315   5.429   5.538 -1.4334 -0.0983  0.5649
10594TIP3    H253198   1.213   5.540   5.534 -1.4498 -0.1354 -1.8636
10595TIP3   OH253199   1.358   1.637   6.663 -0.5902  0.0757 -0.4625
10595TIP3    H153200   1.397   1.674   6.584  2.3573 -0.4949  0.5880
10595TIP3    H253201   1.379   1.544   6.659  0.7509  0.2191  1.4761
10596TIP3   OH253202   5.445   1.983   0.742 -0.5394 -0.2467 -0.6309
10596TIP3    H153203   5.376   1.990   0.677 -0.9628  3.1571  0.0134
10596TIP3    H253204   5.521   2.025   0.701 -0.4155  0.7150  0.5417
10597TIP3   OH253205   1.022   2.813   0.519  0.7407  0.2168  0.0103
10597TIP3    H153206   1.098   2.834   0.464  1.2694 -1.5867 -0.0191
10597TIP3    H253207   1.021   2.717   0.522 -0.6807  0.2396  1.2228
10598TIP3   OH253208   1.063   4.059  15.860 -0.0871  0.4152  0.0414
10598TIP3    H153209   1.127   4.128  15.875 -0.8668  1.3282 -0.6307
10598TIP3    H253210   0.998   4.100  15.802 -0.7034 -0.8096 -0.1600
10599TIP3   OH253211   2.164   5.592   5.344  0.0827 -0.0702  0.2125
10599TIP3    H153212   2.156   5.618   5.436  0.4489 -0.1570  0.2718
10599TIP3    H253213   2.084   5.625   5.302  0.3854  0.8751  0.3489
10600TIP3   OH253214   6.019   0.000  11.853  0.5430  1.0888  0.5803
10600TIP3    H153215   5.971  -0.004  11.936  0.0091 -0.4576  0.2135
10600TIP3    H253216   5.968   0.060  11.799 -0.7858 -0.1898  0.3477
10601TIP3   OH253217   6.664   4.556  13.125  0.5936 -0.2063  0.2596
10601TIP3    H153218   6.756   4.575  13.142  0.3958  1.1962 -0.1011
10601TIP3    H253219   6.651   4.577  13.032 -0.0942 -0.3439  0.3153
10602TIP3   OH253220   1.604   0.860   3.324 -0.4101  0.3998  0.0752
10602TIP3    H153221   1.555   0.845   3.244 -0.2301  0.2122 -0.0018
10602TIP3    H253222   1.538   0.862   3.393 -0.3808 -2.0153  0.2748
10603TIP3   OH253223   4.651   3.342   0.916 -0.1323  0.1276 -0.5427
10603TIP3    H153224   4.633   3.260   0.870 -0.7838 -0.0043 -0.0631
10603TIP3    H253225   4.626   3.410   0.853 -0.1079 -0.0441 -0.7398
10604TIP3   OH253226   5.621   0.616   1.764  0.3898  0.0920 -0.3492
10604TIP3    H153227   5.585   0.530   1.741  1.4707 -0.1372 -1.2477
10604TIP3    H253228   5.677   0.640   1.690  1.3829  0.8379  0.6014
10605TIP3   OH253229   2.120   5.104  17.215 -0.4901 -0.4794  0.0158
10605TIP3    H153230   2.041   5.065  17.177 -1.4410  0.3301  1.0742
10605TIP3    H253231   2.114   5.196  17.192  0.0329 -0.3710  0.3162
10606TIP3   OH253232   5.161   5.965   4.335  0.4007  0.0556 -0.0466
10606TIP3    H153233   5.091   5.901   4.323 -0.2524  1.0090 -1.5218
10606TIP3    H253234   5.117   6.049   4.337  1.2480  0.5145  1.9548
10607TIP3   OH253235   0.007   3.070  11.832 -0.2104  0.0305  0.3147
10607TIP3    H153236  -0.053   2.995  11.833  0.3726 -0.4548 -0.1347
10607TIP3    H253237   0.057   3.062  11.913 -0.6800  0.3875  0.6486
10608TIP3   OH253238   3.072   2.878   2.930 -0.1582  0.0341  0.0288
10608TIP3    H153239   3.164   2.854   2.927 -0.1223  0.0419  0.8373
10608TIP3    H253240   3.030   2.806   2.977 -0.7405 -0.4686 -1.2114
10609TIP3   OH253241   4.370   1.049  13.422  0.5810 -0.2270  0.0713
10609TIP3    H153242   4.346   1.141  13.420 -0.3968 -0.4848 -1.2356
10609TIP3    H253243   4.290   1.003  13.448  0.0899 -0.9421 -2.4724
10610TIP3   OH253244   0.647   4.642   3.369  0.3983 -0.2872 -0.2631
10610TIP3    H153245   0.681   4.687   3.447  0.1494  1.1626 -0.9615
10610TIP3    H253246   0.561   4.610   3.396  0.5604 -0.3293  0.2300
10611TIP3   OH253247   3.451   5.213   3.644  0.2148  0.3178 -0.3261
10611TIP3    H153248   3.376   5.165   3.608 -1.3668  0.8846  2.0029
10611TIP3    H253249   3.520   5.147   3.651 -0.2631 -0.3879 -1.8544
10612TIP3   OH253250   0.613   3.697   5.287  0.0349 -0.0700 -0.0155
10612TIP3    H153251   0.540   3.664   5.340  0.0854  0.5511  0.4461
10612TIP3    H253252   0.673   3.737   5.350  0.1157  0.6511 -0.5363
10613TIP3   OH253253   1.677   1.803  15.500 -0.2616 -0.0196 -0.3930
10613TIP3    H153254   1.715   1.715  15.501 -0.1246  0.0297 -0.7108
10613TIP3    H253255   1.751   1.860  15.476 -0.1018  0.3140  0.8321
10614TIP3   OH253256   1.253   4.707  16.258  0.2752 -0.6582  0.2907
10614TIP3    H153257   1.193   4.725  16.331 -0.2374  0.1595 -0.3169
10614TIP3    H253258   1.323   4.772  16.268  1.2994 -1.8380  1.2083
10615TIP3   OH253259   0.913   4.829   4.238 -0.1739 -0.6856  0.3722
10615TIP3    H153260   0.892   4.902   4.297 -0.0021 -0.8865  0.6820
10615TIP3    H253261   0.982   4.780   4.284  0.0992 -0.7297 -0.0829
10616TIP3   OH253262   3.048   6.507  11.233 -0.9640  0.1716 -0.1947
10616TIP3    H153263   3.027   6.466  11.316  1.1362 -1.8360 -0.5640
10616TIP3    H253264   3.008   6.450  11.167  0.7134 -0.5231 -0.6605
10617TIP3   OH253265   5.268   0.095  15.763 -0.6404 -0.1711 -0.4077
10617TIP3    H153266   5.346   0.050  15.731  0.2299  0.6773  0.4226
10617TIP3    H253267   5.280   0.186  15.736 -2.6397 -0.4504 -2.5541
10618TIP3   OH253268   1.745   3.696   3.406 -0.4501 -0.8614  0.6216
10618TIP3    H153269   1.781   3.654   3.328  1.8289 -0.4981  1.3996
10618TIP3    H253270   1.796   3.776   3.416 -1.3717 -0.3996  1.9324
10619TIP3   OH253271   4.536   5.268  17.044 -0.5372 -0.1007 -0.2315
10619TIP3    H153272   4.534   5.299  16.953  1.2401 -1.5115 -0.8085
10619TIP3    H253273   4.616   5.217  17.050 -0.4088  0.2876  2.2799
10620TIP3   OH253274   2.505   3.063   1.564  0.0831  0.0547  0.5665
10620TIP3    H153275   2.549   3.134   1.611 -1.1130  1.9258 -0.9934
10620TIP3    H253276   2.549   3.058   1.480 -0.3847 -0.4755  0.3429
10621TIP3   OH253277   3.616   5.276   1.480 -0.1186 -0.4631 -0.0876
10621TIP3    H153278   3.655   5.312   1.401  0.1191  2.0022  1.0444
10621TIP3    H253279   3.686   5.224   1.519 -0.7312 -3.0548 -2.1940
10622TIP3   OH253280   5.004   2.664   2.044 -0.4038 -0.6877  0.0808
10622TIP3    H153281   5.019   2.654   1.950 -0.1119 -0.8150  0.1401
10622TIP3    H253282   5.092   2.665   2.083 -0.5259 -3.0097  0.5890
10623TIP3   OH253283   2.933   3.510  12.250 -0.0823  0.3119  0.0109
10623TIP3    H153284   2.939   3.606  12.246 -0.4947  0.3578  0.4459
10623TIP3    H253285   2.883   3.487  12.171 -1.9789  0.6485  1.0512
10624TIP3   OH253286   0.714   3.256  15.434 -0.2534 -0.5509  0.0266
10624TIP3    H153287   0.687   3.244  15.343 -0.3570  2.1947 -0.3922
10624TIP3    H253288   0.782   3.324  15.430 -1.2020  0.6107  2.0918
10625TIP3   OH253289   6.387   0.370   3.986 -0.1534 -0.2614 -0.0671
10625TIP3    H153290   6.312   0.310   3.987  0.3649 -0.9139  0.1306
10625TIP3    H253291   6.399   0.394   4.078 -1.7092  1.8876 -0.3449
10626TIP3   OH253292   0.386   5.952   0.695 -0.1844  0.2605 -0.1111
10626TIP3    H153293   0.426   5.988   0.616 -1.2494  1.7059 -0.0275
10626TIP3    H253294   0.415   6.009   0.766 -0.0766 -0.4043  0.3943
10627TIP3   OH253295   0.202   6.678   5.519 -0.0199 -0.0553  0.0664
10627TIP3    H153296   0.152   6.625   5.580 -1.0950  0.4482 -0.3604
10627TIP3    H253297   0.290   6.640   5.521 -0.4050 -0.9371  0.8382
10628TIP3   OH253298   4.346   6.405   4.440  0.8768  0.4134  0.3113
10628TIP3    H153299   4.358   6.485   4.388 -0.5816  0.2533 -0.3097
10628TIP3    H253300   4.398   6.339   4.394  1.6302  0.8646  0.5033
10629TIP3   OH253301   3.662   3.533  11.839 -0.2228 -0.5900  0.2905
10629TIP3    H153302   3.726   3.491  11.781 -0.4757  1.1336 -1.3168
10629TIP3    H253303   3.699   3.620  11.856 -1.6988  0.1222  0.0284
10630TIP3   OH253304   3.546   1.839  11.709 -0.7645  0.2346  0.3075
10630TIP3    H153305   3.558   1.865  11.800 -2.0384 -0.1285  0.5999
10630TIP3    H253306   3.468   1.784  11.709  0.6464 -1.9049 -0.6269
10631TIP3   OH253307   2.807   1.505   2.848 -0.7235 -0.0420 -0.2828
10631TIP3    H153308   2.765   1.588   2.824 -0.2176  0.0515 -0.8639
10631TIP3    H253309   2.859   1.526   2.926 -1.2779 -0.0253  0.0951
10632TIP3   OH253310   4.739   2.630  12.495  0.4531  0.0672  0.8570
10632TIP3    H153311   4.833   2.613  12.501  0.4201 -0.3109  0.3771
10632TIP3    H253312   4.714   2.660  12.582  0.6312 -1.7409  1.5685
10633TIP3   OH253313   5.326   0.776  10.707 -0.1820 -0.5227 -0.2908
10633TIP3    H153314   5.374   0.753  10.786 -1.1746 -2.3857 -0.1793
10633TIP3    H253315   5.312   0.693  10.662 -3.3690 -0.1429 -0.2380
10634TIP3   OH253316   3.837   1.362  13.378 -0.5163 -0.0714 -0.0322
10634TIP3    H153317   3.864   1.287  13.326 -0.1196 -0.4358  0.6717
10634TIP3    H253318   3.741   1.356  13.383 -0.4652 -0.7187  0.2792
10635TIP3   OH253319   2.973   5.492  16.286  0.2382 -0.1200  0.1754
10635TIP3    H153320   2.882   5.486  16.256  0.8419 -1.4716 -1.5800
10635TIP3    H253321   2.995   5.403  16.315  1.0669  0.1172  0.3134
10636TIP3   OH253322   4.107   1.245   2.299  0.2281 -0.1698  0.1184
10636TIP3    H153323   4.152   1.224   2.217 -1.6651 -1.3619 -0.6673
10636TIP3    H253324   4.136   1.177   2.360  2.3109  1.2067  0.7766
10637TIP3   OH253325   6.552   5.234   4.136  0.7448  0.3483  0.3560
10637TIP3    H153326   6.519   5.184   4.062  2.0690  1.5053 -1.0852
10637TIP3    H253327   6.630   5.186   4.165  0.7478  0.3886  0.4157
10638TIP3   OH253328   0.263   4.035  14.375  0.2687 -0.3558  0.3547
10638TIP3    H153329   0.278   3.982  14.454 -0.3727 -0.4372  0.4308
10638TIP3    H253330   0.181   4.082  14.394  1.3600  1.4968  0.7347
10639TIP3   OH253331   4.902   5.791  17.352  0.4345 -0.1951 -0.5046
10639TIP3    H153332   4.866   5.865  17.302  1.4585  0.7641  0.1357
10639TIP3    H253333   4.831   5.764  17.410  0.6393  1.5801  0.6449
10640TIP3   OH253334   1.757   2.939   3.940  0.0684 -0.4973  0.6395
10640TIP3    H153335   1.746   2.845   3.957  0.4461 -0.5687  0.5003
10640TIP3    H253336   1.741   2.981   4.025  2.1337 -0.8612  1.2601
10641TIP3   OH253337   2.095   4.718  17.247 -0.6983 -0.1053 -0.3650
10641TIP3    H153338   2.040   4.651  17.287 -1.3926  1.0432  0.7100
10641TIP3    H253339   2.033   4.774  17.200 -0.5297  1.3187  1.0214
10642TIP3   OH253340   4.549   5.269   0.621 -0.5119 -0.8668  0.6114
10642TIP3    H153341   4.501   5.245   0.542 -1.8635 -0.0314  1.1367
10642TIP3    H253342   4.638   5.237   0.606 -0.1929  0.9786 -2.0681
10643TIP3   OH253343   3.810   0.981   1.599 -0.1833  0.1090 -0.3424
10643TIP3    H153344   3.827   0.995   1.692  3.1837 -0.2945 -0.7535
10643TIP3    H253345   3.776   1.065   1.568 -2.2555 -0.0288  1.3459
10644TIP3   OH253346   1.533   5.088   1.649  0.1540  0.2885  0.8005
10644TIP3    H153347   1.539   5.159   1.714 -0.7222  0.3361  0.8425
10644TIP3    H253348   1.445   5.098   1.611  0.5839  0.1545 -0.2742
10645TIP3   OH253349   6.405   4.307  15.240 -0.2532 -0.1905 -0.1799
10645TIP3    H153350   6.417   4.212  15.239  1.0350 -0.0875  1.2593
10645TIP3    H253351   6.403   4.330  15.332 -1.8269  1.0749 -0.4870
10646TIP3   OH253352   1.125   1.962  14.841  0.0361  0.0634 -0.6217
10646TIP3    H153353   1.202   1.914  14.810 -0.6670 -1.4665 -0.1452
10646TIP3    H253354   1.052   1.902  14.824 -0.9032  1.0125 -0.0378
10647TIP3   OH253355   3.657   0.731  16.771  0.2991  0.2084  0.1224
10647TIP3    H153356   3.646   0.800  16.837  0.5115  0.6206 -0.2640
10647TIP3    H253357   3.752   0.718  16.766  0.2865  0.2151 -0.1381
10648TIP3   OH253358   2.704   6.489  11.893 -0.2819  0.3476  0.3707
10648TIP3    H153359   2.681   6.397  11.875  1.0315  0.1915 -0.6532
10648TIP3    H253360   2.691   6.498  11.987  1.0858 -1.3755  0.7783
10649TIP3   OH253361   0.400   5.338  14.518 -0.0139  0.8138  0.3376
10649TIP3    H153362   0.407   5.374  14.606 -2.6332 -1.0782  1.4476
10649TIP3    H253363   0.393   5.414  14.461 -0.8953  2.0817  2.0712
10650TIP3   OH253364   4.993   1.200   2.777  0.1392 -0.0226  0.3083
10650TIP3    H153365   4.941   1.261   2.724 -2.0139  0.3132  2.6379
10650TIP3    H253366   5.019   1.131   2.715  0.5702  1.9625 -1.8596
10651TIP3   OH253367   3.066   2.946   4.081 -0.5008 -0.1340 -0.3825
10651TIP3    H153368   3.013   3.012   4.037 -1.7975 -0.3254  0.7994
10651TIP3    H253369   3.002   2.884   4.117  0.3913  0.2594  2.1292
10652TIP3   OH253370   5.715   4.748  15.219  0.0523  0.1906  0.0568
10652TIP3    H153371   5.648   4.680  15.222 -0.0570  0.1650 -1.7744
10652TIP3    H253372   5.777   4.725  15.288 -0.7657 -0.9294  0.4262
10653TIP3   OH253373   3.154   1.063  12.687  0.3330  0.1875 -0.0782
10653TIP3    H153374   3.123   0.982  12.728 -0.4674  1.0224  1.0039
10653TIP3    H253375   3.160   1.042  12.594  1.4273 -1.5178  0.3344
10654TIP3   OH253376   2.640   3.705  14.554  0.5287  0.0095 -0.9541
10654TIP3    H153377   2.648   3.633  14.616  1.0452 -0.4674 -1.5592
10654TIP3    H253378   2.713   3.764  14.574  0.3115  0.1924 -0.6888
10655TIP3   OH253379   6.245   6.323  17.187  0.4042  0.3211 -0.3689
10655TIP3    H153380   6.306   6.276  17.243 -0.7233 -0.6206  0.1148
10655TIP3    H253381   6.238   6.269  17.108  1.3671  1.2328 -1.1227
10656TIP3   OH253382   0.049   0.681   1.754  0.1822  0.2875  0.6953
10656TIP3    H153383  -0.001   0.675   1.836  1.1877 -1.8341  1.2130
10656TIP3    H253384   0.054   0.775   1.736 -0.1330  0.8111  3.0274
10657TIP3   OH253385   5.115   6.477   2.122 -0.0315  0.2215 -0.2136
10657TIP3    H153386   5.201   6.500   2.157  0.1209  1.0781 -1.1316
10657TIP3    H253387   5.064   6.557   2.129 -0.3023  0.1213 -1.0332
10658TIP3   OH253388   3.352   5.091  15.843 -0.1912  0.3812  0.2001
10658TIP3    H153389   3.286   5.038  15.888  1.1114  0.0668  1.8037
10658TIP3    H253390   3.396   5.029  15.785 -0.1895  0.2196  0.3715
10659TIP3   OH253391   1.619   3.612   4.441 -0.0783 -0.3605 -0.3511
10659TIP3    H153392   1.670   3.661   4.504  0.0029 -0.4653 -0.3351
10659TIP3    H253393   1.535   3.658   4.436  0.2290  0.1539 -0.8180
10660TIP3   OH253394   0.767   0.189   4.560  0.1628 -0.9825 -0.1039
10660TIP3    H153395   0.794   0.245   4.488 -0.7626 -1.6433 -0.9989
10660TIP3    H253396   0.833   0.203   4.628  2.1846 -1.7609 -1.7919
10661TIP3   OH253397   1.767   2.564  17.264 -0.0608  0.1891 -0.0440
10661TIP3    H153398   1.804   2.575  17.176 -0.0082 -0.8267 -0.1623
10661TIP3    H253399   1.677   2.594  17.256 -0.3972 -0.9220 -0.7486
10662TIP3   OH253400   5.022   2.347  14.025 -0.0615 -0.4714 -0.2370
10662TIP3    H153401   4.927   2.337  14.020 -0.2790  0.4206  1.5358
10662TIP3    H253402   5.040   2.426  13.973 -0.2578 -0.6935 -0.6538
10663TIP3   OH253403   5.185   4.490   1.207 -0.5190 -0.0153 -0.2324
10663TIP3    H153404   5.253   4.493   1.139 -1.1546  1.5526 -0.8424
10663TIP3    H253405   5.231   4.458   1.285  0.5071 -0.6661 -1.0720
10664TIP3   OH253406   3.670   5.048   5.170  0.0095 -0.0029 -0.3428
10664TIP3    H153407   3.705   5.061   5.258 -0.3903 -0.9865 -0.0180
10664TIP3    H253408   3.579   5.075   5.176 -0.0158 -0.0604 -0.4546
10665TIP3   OH253409   5.047   3.394  16.816  0.2105 -0.1666  0.7350
10665TIP3    H153410   5.095   3.337  16.755  0.5723  0.2209  0.6471
10665TIP3    H253411   5.083   3.373  16.902 -0.1556 -0.5691  0.7887
10666TIP3   OH253412   5.118   6.409   4.774  0.1440  0.4387  0.8279
10666TIP3    H153413   5.137   6.491   4.820 -1.4750  0.0386  2.3445
10666TIP3    H253414   5.052   6.432   4.709  1.2617  0.7026 -0.2480
10667TIP3   OH253415   6.571   0.574   2.471  0.3302  0.0679  0.4303
10667TIP3    H153416   6.567   0.480   2.455  1.8393 -0.1689  1.2398
10667TIP3    H253417   6.639   0.606   2.411 -0.8000  0.8059 -0.4811
10668TIP3   OH253418   0.955   2.561  15.532  0.5692 -0.1434 -0.3417
10668TIP3    H153419   0.882   2.574  15.471  0.3020 -0.7737 -0.1551
10668TIP3    H253420   0.928   2.607  15.611  0.5761  0.0055 -0.4237
10669TIP3   OH253421   6.709   1.499  17.288  0.6439  0.2448 -0.0390
10669TIP3    H153422   6.772   1.469  17.353  0.4399  0.5679  0.3095
10669TIP3    H253423   6.691   1.590  17.311  0.8172  0.4648 -0.7393
10670TIP3   OH253424   3.448   4.168   4.146 -0.4421  0.6700  0.2017
10670TIP3    H153425   3.413   4.193   4.060  2.8844  0.4186 -1.3666
10670TIP3    H253426   3.477   4.250   4.186  0.4348  0.5304 -0.1231
10671TIP3   OH253427   5.301   0.867   3.700  0.1659  0.4963 -0.2881
10671TIP3    H153428   5.389   0.864   3.662 -0.1981  1.5811 -1.2458
10671TIP3    H253429   5.314   0.838   3.791  1.4529  0.3438 -0.4987
10672TIP3   OH253430   4.653   5.494  11.836  0.1515 -0.1384  0.0493
10672TIP3    H153431   4.689   5.533  11.916  0.7760 -2.6688  1.0891
10672TIP3    H253432   4.565   5.466  11.861 -0.3797  0.7207 -0.7626
10673TIP3   OH253433   2.327   1.106  12.373  0.0514  0.0522  0.7914
10673TIP3    H153434   2.342   1.174  12.438 -1.4934 -0.8238  2.1333
10673TIP3    H253435   2.290   1.151  12.298  1.0214  0.9588  0.8375
10674TIP3   OH253436   3.630   2.377  12.585  0.6635  0.0157  0.5699
10674TIP3    H153437   3.613   2.466  12.554 -1.1966 -0.0648  1.2197
10674TIP3    H253438   3.577   2.368  12.664  1.6273 -1.3444  1.1017
10675TIP3   OH253439   6.150   5.687   2.700  0.0285  0.1585 -0.2624
10675TIP3    H153440   6.156   5.683   2.795 -0.5352 -1.4273 -0.2681
10675TIP3    H253441   6.197   5.767   2.676 -1.0011  1.3374  1.4453
10676TIP3   OH253442   2.181   2.447   1.216  0.0652  0.2379  0.1430
10676TIP3    H153443   2.223   2.495   1.144 -0.4198  0.0873 -0.2448
10676TIP3    H253444   2.099   2.416   1.179  0.6445 -1.4272  0.1938
10677TIP3   OH253445   6.396   0.778  14.622 -0.0800 -0.3266 -0.0780
10677TIP3    H153446   6.303   0.769  14.643  0.0856 -1.0415  0.3893
10677TIP3    H253447   6.396   0.813  14.533 -0.7888  0.9732  0.4072
10678TIP3   OH253448   4.785   3.682   5.254 -0.2006  0.2494 -0.1839
10678TIP3    H153449   4.712   3.665   5.195 -1.5879  3.1175  0.4992
10678TIP3    H253450   4.796   3.777   5.251  3.0024  0.0224  0.4052
10679TIP3   OH253451   3.421   5.958   2.615  0.0236 -0.1017  0.2987
10679TIP3    H153452   3.416   5.863   2.622 -2.5474 -0.0487  0.4052
10679TIP3    H253453   3.333   5.988   2.641  0.2520  2.1839 -1.2567
10680TIP3   OH253454   4.460   3.048   1.354  0.3152  0.6781  0.6610
10680TIP3    H153455   4.431   3.137   1.337 -1.5980 -0.0996 -0.4117
10680TIP3    H253456   4.438   3.000   1.274 -2.0736 -1.5300  2.5001
10681TIP3   OH253457   3.713   4.143  12.619  0.1745 -0.4697 -0.0304
10681TIP3    H153458   3.710   4.048  12.622  1.6916 -0.5969 -0.9953
10681TIP3    H253459   3.720   4.170  12.710 -1.0243 -1.2342  0.2995
10682TIP3   OH253460   2.398   0.717   4.043 -0.4422 -0.2538  0.0133
10682TIP3    H153461   2.305   0.735   4.060 -0.8987 -1.2277 -1.3214
10682TIP3    H253462   2.399   0.676   3.957  1.4674  1.6784 -0.9643
10683TIP3   OH253463   4.683   6.491   3.574  0.5248  0.0060 -0.4020
10683TIP3    H153464   4.607   6.436   3.557  0.6026 -0.3208  0.2614
10683TIP3    H253465   4.665   6.573   3.527 -0.3404  0.0203 -0.0652
10684TIP3   OH253466   4.297   1.009  14.216 -0.1747 -0.1349  0.1907
10684TIP3    H153467   4.318   1.043  14.303 -0.8404  2.6725 -0.6281
10684TIP3    H253468   4.236   1.074  14.179 -0.9454 -1.9142 -1.8833
10685TIP3   OH253469   6.326   1.006  14.000 -0.5222  0.0753  0.4892
10685TIP3    H153470   6.354   0.923  14.040 -1.0216 -0.3544 -0.0412
10685TIP3    H253471   6.231   1.008  14.011 -0.4971  0.6612  0.6446
10686TIP3   OH253472   5.628   4.269  12.583 -0.0792  0.1531 -0.7354
10686TIP3    H153473   5.565   4.331  12.545  0.6304  0.3444 -1.6369
10686TIP3    H253474   5.676   4.320  12.649 -2.3473 -0.5664  1.6468
10687TIP3   OH253475   3.924   2.830  13.624  0.1204 -0.0319  0.2089
10687TIP3    H153476   3.933   2.911  13.573 -0.1263  0.1979  0.5219
10687TIP3    H253477   3.846   2.788  13.589 -0.5655  0.5644  0.9754
10688TIP3   OH253478   5.293   3.306  15.921 -0.2032  0.7197  0.0092
10688TIP3    H153479   5.356   3.265  15.862  0.9435  1.7013  0.5161
10688TIP3    H253480   5.233   3.352  15.863  0.3981  0.9631 -0.4293
10689TIP3   OH253481   3.495   6.350  11.836 -0.0043 -0.6059  0.4514
10689TIP3    H153482   3.495   6.281  11.769 -1.0527 -2.0572  1.8639
10689TIP3    H253483   3.440   6.419  11.799 -1.0206 -1.6126  0.0216
10690TIP3   OH253484   3.277   1.704  11.360 -0.2575  0.8907  0.1133
10690TIP3    H153485   3.223   1.651  11.419  0.7521 -0.0890  0.1812
10690TIP3    H253486   3.216   1.736  11.294 -0.7147 -1.4617 -0.7037
10691TIP3   OH253487   1.615   1.344   4.717 -0.1641  0.5915  0.6764
10691TIP3    H153488   1.611   1.250   4.701  0.0748  0.6630  0.1859
10691TIP3    H253489   1.575   1.384   4.640  1.4421  0.9504 -0.0178
10692TIP3   OH253490   0.316   3.863  14.577 -0.2208  0.0483 -0.0549
10692TIP3    H153491   0.371   3.827  14.646  0.1279 -0.4219 -0.5684
10692TIP3    H253492   0.238   3.807  14.577 -0.8957  0.9608  0.9418
10693TIP3   OH253493   5.948   0.465   0.473  0.2016 -0.5080  0.0683
10693TIP3    H153494   5.967   0.374   0.453 -1.9515 -1.2203  0.8780
10693TIP3    H253495   6.022   0.495   0.526  0.3130 -2.2454  0.9692
10694TIP3   OH253496   3.466   2.586   3.276  0.2310 -0.3865 -0.5013
10694TIP3    H153497   3.500   2.636   3.349  1.0881 -0.7555 -0.6346
10694TIP3    H253498   3.390   2.539   3.312  2.0772 -2.5297  0.8811
10695TIP3   OH253499   1.426   1.942   4.226  0.3470 -0.2697  0.7358
10695TIP3    H153500   1.474   1.974   4.150  1.5472 -0.2548  1.4731
10695TIP3    H253501   1.453   1.851   4.236  1.3257  0.1168  1.9581
10696TIP3   OH253502   2.667   2.660   3.855  0.3044 -0.1833  0.0971
10696TIP3    H153503   2.676   2.751   3.828  0.1165 -0.1916  0.0052
10696TIP3    H253504   2.678   2.662   3.950 -1.0861  0.1300  0.2704
10697TIP3   OH253505   6.139   5.689   3.285  0.2337  0.4295 -0.0037
10697TIP3    H153506   6.227   5.654   3.268  0.2984  1.3366 -1.7754
10697TIP3    H253507   6.154   5.780   3.312 -0.1769  0.9574 -1.4612
10698TIP3   OH253508   4.235   6.659   2.489  0.1927  0.0526  0.4799
10698TIP3    H153509   4.218   6.724   2.421 -0.4180  0.2947  0.8551
10698TIP3    H253510   4.249   6.710   2.569 -2.7019 -0.2887  1.3161
10699TIP3   OH253511   3.071   2.700   2.226  0.0148 -0.2642  0.3033
10699TIP3    H153512   3.033   2.729   2.143  0.6175  0.7267  0.3672
10699TIP3    H253513   3.042   2.609   2.235 -1.3080  0.0813 -0.2510
10700TIP3   OH253514   6.667   4.924   5.451 -0.3344  0.4514  0.4557
10700TIP3    H153515   6.726   4.931   5.526  0.1706 -3.6846  0.6906
10700TIP3    H253516   6.717   4.961   5.378  1.3581 -0.2463  1.2142
10701TIP3   OH253517   6.704   0.033  15.153  0.3119 -0.1174 -0.0897
10701TIP3    H153518   6.659   0.082  15.084 -2.1959 -2.6379 -0.4309
10701TIP3    H253519   6.791   0.017  15.118 -0.8493 -1.2646 -2.7311
10702TIP3   OH253520   5.211   0.161  12.898  0.1881 -0.0286 -0.2173
10702TIP3    H153521   5.266   0.103  12.950  0.2279 -0.6366 -0.9169
10702TIP3    H253522   5.137   0.181  12.955  0.2358 -0.6737  0.0825
10703TIP3   OH253523   1.543   5.930  15.798 -0.0862 -0.2308  0.0742
10703TIP3    H153524   1.577   5.856  15.847 -0.0611 -0.8428 -0.8350
10703TIP3    H253525   1.449   5.917  15.797  0.0718 -1.9222 -2.5598
10704TIP3   OH253526   3.116   1.342  16.712  0.3102 -0.3528  0.1598
10704TIP3    H153527   3.035   1.389  16.732 -0.3130 -1.5286  0.5117
10704TIP3    H253528   3.121   1.273  16.779  1.9864  0.1224  0.5938
10705TIP3   OH253529   0.559   1.257   6.969  0.3354 -0.4541 -0.4589
10705TIP3    H153530   0.647   1.231   6.941  1.7418 -0.4868  3.3804
10705TIP3    H253531   0.568   1.350   6.991 -0.6247 -0.4466 -0.0842
10706TIP3   OH253532   4.608   3.872  13.516  0.1160 -0.0641 -0.3009
10706TIP3    H153533   4.602   3.776  13.518 -1.4844 -0.0072 -1.0374
10706TIP3    H253534   4.559   3.901  13.592 -0.7426  0.1973 -0.9433
10707TIP3   OH253535   2.095   4.896  11.635 -0.0957 -0.3104 -0.3272
10707TIP3    H153536   2.122   4.926  11.549 -0.0945 -1.4410 -0.7402
10707TIP3    H253537   2.177   4.882  11.683 -0.0374 -0.8544 -0.5704
10708TIP3   OH253538   5.810   2.997   1.581 -0.2646  0.1924  0.3078
10708TIP3    H153539   5.902   2.999   1.557 -0.5998  0.6842 -1.0613
10708TIP3    H253540   5.771   3.071   1.534 -1.0635  1.0579  2.2019
10709TIP3   OH253541   3.842   3.445  14.873  0.0281 -0.1987 -0.7294
10709TIP3    H153542   3.912   3.413  14.930  0.1665 -0.8288 -1.2414
10709TIP3    H253543   3.887   3.476  14.794 -0.3016 -1.2446 -1.3517
10710TIP3   OH253544   2.922   1.113  17.154  0.0284  0.2978 -0.0750
10710TIP3    H153545   2.940   1.201  17.185  2.2917  0.5545 -1.8408
10710TIP3    H253546   3.005   1.066  17.165 -0.3877 -0.8392 -1.4886
10711TIP3   OH253547   4.785   5.222   0.268 -0.4197 -0.0213 -0.1999
10711TIP3    H153548   4.744   5.252   0.186 -2.1911 -0.4944  0.4784
10711TIP3    H253549   4.878   5.242   0.256 -0.9369  2.0075 -1.4157
10712TIP3   OH253550   3.499   2.564  17.125 -0.0464 -0.3826 -0.1260
10712TIP3    H153551   3.565   2.536  17.061  0.4256  1.8134 -0.6832
10712TIP3    H253552   3.417   2.568  17.074  0.2047  0.7432 -0.4712
10713TIP3   OH253553   5.108   4.228   2.270 -0.3982 -0.2436 -0.4460
10713TIP3    H153554   5.039   4.287   2.301 -0.5186 -0.8486  0.4820
10713TIP3    H253555   5.181   4.244   2.330  0.1531  0.1254 -1.1982
10714TIP3   OH253556   1.455   5.340   1.810 -0.0522 -0.1593  0.2066
10714TIP3    H153557   1.397   5.342   1.886 -0.8872  0.4227 -0.4310
10714TIP3    H253558   1.441   5.424   1.767  1.1746 -0.0613 -0.0434
10715TIP3   OH253559   3.184   2.008  15.951  0.2457 -0.1476 -0.0004
10715TIP3    H153560   3.253   2.051  15.900  0.7450  0.3184  1.0377
10715TIP3    H253561   3.206   2.028  16.042 -0.7558 -0.7689  0.3891
10716TIP3   OH253562   1.967   2.043   5.241  0.5869  0.6126  0.3378
10716TIP3    H153563   2.017   2.119   5.211 -2.1153  2.5167  0.3039
10716TIP3    H253564   1.925   2.072   5.322 -2.1762 -0.0151 -0.7436
10717TIP3   OH253565   5.062   3.817   3.738  0.1453 -0.1697  0.2452
10717TIP3    H153566   5.083   3.890   3.679  0.4881 -1.0516 -0.7504
10717TIP3    H253567   5.127   3.750   3.717 -0.7990 -1.1645  0.4062
10718TIP3   OH253568   6.414   6.281   4.985  0.1895  0.2045 -0.5611
10718TIP3    H153569   6.407   6.375   5.001  0.9394  0.6452 -2.5165
10718TIP3    H253570   6.452   6.245   5.065 -2.7300  1.0596  1.3791
10719TIP3   OH253571   1.162   0.402   3.484 -0.0339  0.0553 -0.2159
10719TIP3    H153572   1.222   0.328   3.495  0.6609  0.5793 -0.3699
10719TIP3    H253573   1.079   0.372   3.521  0.6694 -0.2435  1.1979
10720TIP3   OH253574   4.107   2.038  14.124 -0.2485 -0.4355 -0.4038
10720TIP3    H153575   4.184   1.980  14.119  1.5481  1.9094 -2.5130
10720TIP3    H253576   4.083   2.054  14.033 -1.0050  1.6850  0.1156
10721TIP3   OH253577   1.004   1.957  14.401  0.4192 -0.1022 -0.2903
10721TIP3    H153578   1.060   1.883  14.426 -0.9432 -0.8035  0.7671
10721TIP3    H253579   1.063   2.033  14.404  0.9684 -0.5422  2.4879
10722TIP3   OH253580   0.005   6.007  11.512  0.3623  0.4640 -0.3117
10722TIP3    H153581   0.028   5.975  11.600  2.5246  0.0289 -0.9698
10722TIP3    H253582  -0.053   5.940  11.477 -0.9179  0.8672  0.9117
10723TIP3   OH253583   3.774   0.748  11.972  0.4859  0.7751  0.3395
10723TIP3    H153584   3.814   0.806  12.037  2.4318 -0.2124  0.1104
10723TIP3    H253585   3.846   0.726  11.912 -0.7315 -0.1092 -0.8433
10724TIP3   OH253586   1.603   4.376  12.853 -0.5364 -0.1093  0.2298
10724TIP3    H153587   1.604   4.343  12.943  0.0040  0.0004  0.2687
10724TIP3    H253588   1.572   4.303  12.801 -1.1315 -0.0832  0.5390
10725TIP3   OH253589   2.536   3.753   3.077 -0.6745 -0.3550  0.2066
10725TIP3    H153590   2.535   3.715   2.989 -0.1921  1.0679 -0.4408
10725TIP3    H253591   2.477   3.828   3.072  1.7548  1.6939  0.1192
10726TIP3   OH253592   2.593   6.548   1.735  0.5457 -0.2931  0.2292
10726TIP3    H153593   2.508   6.590   1.746  1.5301  1.9157 -0.2528
10726TIP3    H253594   2.644   6.609   1.682  2.1581 -1.9819 -0.2727
10727TIP3   OH253595   2.195   3.376   3.640  0.4939  0.0211 -0.5693
10727TIP3    H153596   2.184   3.317   3.715  1.8855  0.7591  0.2327
10727TIP3    H253597   2.113   3.366   3.591  0.5644 -2.3765 -0.3338
10728TIP3   OH253598   6.741   6.297   2.809  0.0110  0.0091 -0.0746
10728TIP3    H153599   6.809   6.230   2.809  1.1238  1.0645 -1.3823
10728TIP3    H253600   6.694   6.282   2.727 -0.3925  0.1788  0.1285
10729TIP3   OH253601   0.859   2.915  13.123  0.1435 -0.7779  0.3458
10729TIP3    H153602   0.764   2.919  13.135 -0.1163 -2.4917 -0.8714
10729TIP3    H253603   0.894   2.961  13.200 -1.6500  2.1521 -0.4193
10730TIP3   OH253604   2.258   1.644  12.431 -0.3338  0.0479 -0.3537
10730TIP3    H153605   2.267   1.735  12.401 -0.7854  0.0359 -0.5317
10730TIP3    H253606   2.333   1.599  12.393 -0.3132  0.2657 -0.5764
10731TIP3   OH253607   6.701   1.344  15.354 -0.1572  0.3466  0.0627
10731TIP3    H153608   6.675   1.367  15.265  1.4077  1.0140 -0.2505
10731TIP3    H253609   6.795   1.358  15.356 -0.2904  1.3579  2.1169
10732TIP3   OH253610   0.715   4.948   2.387  0.0828 -0.6751  0.0654
10732TIP3    H153611   0.793   4.994   2.356 -0.8669  1.8074  1.1482
10732TIP3    H253612   0.650   4.963   2.319  0.5128 -3.0022 -0.9858
10733TIP3   OH253613   2.917   0.201  15.195 -0.7286 -0.3606  0.0261
10733TIP3    H153614   3.007   0.223  15.173 -1.3365  1.9810 -0.3400
10733TIP3    H253615   2.864   0.251  15.134 -2.3054 -2.0372 -0.0535
10734TIP3   OH253616   1.831   6.612  17.210 -0.0573  0.3031 -0.3060
10734TIP3    H153617   1.750   6.602  17.260  0.7595  2.2628  1.5374
10734TIP3    H253618   1.896   6.565  17.261  0.3537  0.3847 -0.7499
10735TIP3   OH253619   0.234   2.163   5.915  0.4949  0.3675 -0.2819
10735TIP3    H153620   0.270   2.251   5.926 -0.1994  0.5661  0.5847
10735TIP3    H253621   0.294   2.106   5.963  0.7589  0.4102 -0.5572
10736TIP3   OH253622   2.058   0.977   5.681 -0.2522 -0.0329  0.3044
10736TIP3    H153623   2.104   0.950   5.760 -2.2475  0.2470  1.6370
10736TIP3    H253624   1.995   0.907   5.664 -0.3474  0.2599 -0.5859
10737TIP3   OH253625   4.193   1.367  14.439  0.4543 -0.2747 -0.1489
10737TIP3    H153626   4.140   1.288  14.431  0.5977 -0.7759  2.7956
10737TIP3    H253627   4.225   1.383  14.350  0.2492 -3.4090 -0.9240
10738TIP3   OH253628   1.793   3.430  16.971 -0.0534  1.0557 -0.6022
10738TIP3    H153629   1.725   3.405  17.034 -0.2183  0.7944 -0.8813
10738TIP3    H253630   1.764   3.514  16.936  0.6475  1.8122  0.5535
10739TIP3   OH253631   4.821   2.407   4.880 -0.0017 -0.1685  0.0724
10739TIP3    H153632   4.886   2.417   4.950 -0.3793  0.7823  0.3035
10739TIP3    H253633   4.791   2.496   4.863 -1.4329 -0.6265  0.1391
10740TIP3   OH253634   3.308   0.527   1.884  0.0111  0.2774  0.3895
10740TIP3    H153635   3.213   0.513   1.881 -0.1690  1.4818 -1.4227
10740TIP3    H253636   3.320   0.598   1.947 -0.6398  2.0090 -1.3408
10741TIP3   OH253637   6.017   2.280   4.487  0.9811 -0.3374 -0.2329
10741TIP3    H153638   5.992   2.290   4.395 -0.7296  0.5672  0.2970
10741TIP3    H253639   6.112   2.293   4.487  0.7423  2.0808 -1.5810
10742TIP3   OH253640   3.048   5.263   4.742  0.4358  0.0142  0.0524
10742TIP3    H153641   3.137   5.232   4.759  0.6572 -0.0799 -1.1422
10742TIP3    H253642   3.057   5.358   4.735  0.6011 -0.0526 -0.8188
10743TIP3   OH253643   3.697   3.252   2.148 -0.3279  0.2463 -0.0556
10743TIP3    H153644   3.617   3.285   2.106 -0.3211  1.6889  0.9613
10743TIP3    H253645   3.665   3.197   2.219 -0.5741  2.3530  1.5945
10744TIP3   OH253646   1.150   3.055  14.956  0.4962 -0.3144  0.6344
10744TIP3    H153647   1.102   3.104  15.023  3.0382  2.8154  0.4168
10744TIP3    H253648   1.141   3.109  14.877  0.3180 -2.2282 -0.7222
10745TIP3   OH253649   0.520   3.361  15.903 -0.1687  0.8250 -0.2361
10745TIP3    H153650   0.552   3.451  15.903  1.6986  0.2103  0.4404
10745TIP3    H253651   0.536   3.330  15.813  0.2801  0.8307 -0.1635
10746TIP3   OH253652   1.362   1.012   4.771  0.7165 -0.3476 -0.2692
10746TIP3    H153653   1.332   0.985   4.684  2.9356 -0.0628 -1.1899
10746TIP3    H253654   1.346   0.936   4.827  1.4829 -1.4251 -1.4817
10747TIP3   OH253655   1.732   3.234  12.592 -0.3732 -0.3993 -0.0465
10747TIP3    H153656   1.699   3.290  12.522  0.2095 -0.6041 -0.4935
10747TIP3    H253657   1.735   3.146  12.553 -1.1703 -0.7329  0.6082
10748TIP3   OH253658   1.807   1.635  11.347  0.4815  0.0371  0.0698
10748TIP3    H153659   1.747   1.591  11.288  0.6017  0.2768 -0.2314
10748TIP3    H253660   1.793   1.728  11.332 -1.1363  0.1879  2.0531
10749TIP3   OH253661   5.639   2.497  15.573  0.4575  0.0192 -0.3628
10749TIP3    H153662   5.555   2.452  15.589  0.9908 -0.9388 -0.1608
10749TIP3    H253663   5.632   2.578  15.623 -0.0562 -0.4061  0.2858
10750TIP3   OH253664   2.490   1.388  11.376 -0.1891  0.4534 -0.0321
10750TIP3    H153665   2.436   1.400  11.454 -1.2923 -0.6425 -0.6085
10750TIP3    H253666   2.428   1.383  11.304  0.8446  2.5951 -1.1872
10751TIP3   OH253667   0.894   0.559  12.782 -0.3156  0.3434  0.2393
10751TIP3    H153668   0.803   0.563  12.754 -0.0044  1.2878 -0.6963
10751TIP3    H253669   0.927   0.477  12.745 -0.6229  0.3007  0.0568
10752TIP3   OH253670   5.396   1.118  13.142 -0.0819  0.1210 -0.8124
10752TIP3    H153671   5.433   1.133  13.229 -1.4090  0.0428 -0.2093
10752TIP3    H253672   5.334   1.045  13.155  0.6993 -0.7990 -2.1102
10753TIP3   OH253673   0.925   4.143  14.823  0.3313  0.2966 -0.1628
10753TIP3    H153674   0.994   4.077  14.823  1.6670  1.6526 -0.2085
10753TIP3    H253675   0.860   4.108  14.761  1.1116 -0.8453 -0.3838
10754TIP3   OH253676   0.523   3.486  11.619 -0.4351  0.3371 -0.2769
10754TIP3    H153677   0.489   3.555  11.563 -0.9592  0.8009  0.5808
10754TIP3    H253678   0.445   3.441  11.652 -0.1052 -0.5865 -0.7267
10755TIP3   OH253679   5.030   4.073  15.194  0.1917  0.0706  0.1777
10755TIP3    H153680   5.012   4.118  15.112  2.7537 -0.2245 -0.6042
10755TIP3    H253681   4.986   3.989  15.185 -0.9620  0.6765 -0.1409
10756TIP3   OH253682   0.978   2.855  14.817 -0.4880  0.2047  0.2356
10756TIP3    H153683   1.033   2.918  14.864 -1.6234  0.4731  1.2421
10756TIP3    H253684   0.987   2.880  14.725 -1.0316  1.9434  0.6206
10757TIP3   OH253685   0.510   5.597  15.053 -0.3270  0.1957 -0.2421
10757TIP3    H153686   0.512   5.681  15.007 -0.8035  0.6251  0.5063
10757TIP3    H253687   0.508   5.620  15.146 -1.1913 -0.6303 -0.0351
10758TIP3   OH253688   2.439   4.272   0.133 -0.2596 -0.3471 -0.2804
10758TIP3    H153689   2.418   4.180   0.119  0.3737 -0.4802 -0.3845
10758TIP3    H253690   2.519   4.271   0.186 -0.2672  0.1413 -0.2537
10759TIP3   OH253691   4.439   4.307   1.150  0.0434  0.3226  0.3532
10759TIP3    H153692   4.507   4.348   1.203 -0.2541  0.4714  0.6264
10759TIP3    H253693   4.472   4.311   1.060 -0.3099  1.8543  0.2726
10760TIP3   OH253694   1.261   4.275  15.800 -0.1989 -0.5370  0.2189
10760TIP3    H153695   1.338   4.325  15.826 -0.3225 -0.2426  0.0254
10760TIP3    H253696   1.233   4.315  15.717 -1.2712  0.1368  0.8823
10761TIP3   OH253697   0.389   6.393   1.024 -0.0101  0.1255 -0.0839
10761TIP3    H153698   0.459   6.349   0.977 -1.9062 -2.0710 -1.0439
10761TIP3    H253699   0.309   6.347   0.998 -1.3767 -0.4658  4.2649
10762TIP3   OH253700   3.162   6.573  12.988  0.6093  0.1255 -0.1916
10762TIP3    H153701   3.078   6.611  12.964  1.2437  1.9797  0.3420
10762TIP3    H253702   3.145   6.479  12.997 -1.0504  0.2636 -1.5058
10763TIP3   OH253703   4.863   3.150   4.167  0.5274 -0.0681 -0.2078
10763TIP3    H153704   4.825   3.172   4.252 -0.5051 -0.6957 -0.4835
10763TIP3    H253705   4.955   3.133   4.186  0.2763 -0.3831  0.8214
10764TIP3   OH253706   3.340   2.116   1.903 -0.1821 -0.2339 -0.4221
10764TIP3    H153707   3.301   2.033   1.878  0.7432 -0.6206 -0.6318
10764TIP3    H253708   3.425   2.117   1.859  0.1117  0.5141  0.1288
10765TIP3   OH253709   6.258   1.281   1.865 -0.1196 -0.2593 -0.4687
10765TIP3    H153710   6.197   1.354   1.850 -0.9773 -0.7704  0.4052
10765TIP3    H253711   6.281   1.251   1.777 -0.8183  0.2173 -0.8277
10766TIP3   OH253712   3.288   1.636   6.056  0.2082  0.3620 -0.6251
10766TIP3    H153713   3.205   1.604   6.021 -1.3511  2.0919  1.1600
10766TIP3    H253714   3.318   1.701   5.992 -0.9676  1.2455 -0.3236
10767TIP3   OH253715   1.225   1.031   3.738  0.8915 -0.1760  0.1332
10767TIP3    H153716   1.207   1.124   3.728  0.3472 -0.1335  1.2514
10767TIP3    H253717   1.152   0.988   3.693  0.6014 -0.0426  0.4682
10768TIP3   OH253718   4.577   4.089   6.709  0.7326 -0.2709  0.3133
10768TIP3    H153719   4.615   4.170   6.743 -0.7942  0.0856  1.2862
10768TIP3    H253720   4.543   4.113   6.623  2.0974 -0.4395 -0.3006
10769TIP3   OH253721   1.389   3.009   5.669  0.2199 -0.0711  0.4170
10769TIP3    H153722   1.481   3.034   5.658  0.4237 -1.0546 -0.1820
10769TIP3    H253723   1.373   3.018   5.763  0.7300  0.7470  0.4404
10770TIP3   OH253724   4.266   2.879   5.857  0.0558  0.4454  0.3940
10770TIP3    H153725   4.306   2.960   5.825 -1.3271  0.8084 -0.4984
10770TIP3    H253726   4.225   2.904   5.940  1.0890  0.2168  0.9984
10771TIP3   OH253727   6.732   2.536  13.826 -0.0340 -0.0627  0.1573
10771TIP3    H153728   6.788   2.524  13.903 -0.7781  0.3328  0.7824
10771TIP3    H253729   6.777   2.489  13.756 -0.3504 -2.1923  1.3036
10772TIP3   OH253730   2.312   4.447   4.880  0.5929 -0.0066 -0.0369
10772TIP3    H153731   2.262   4.450   4.961 -0.0317 -1.7099 -0.3145
10772TIP3    H253732   2.390   4.499   4.898  0.3197 -0.1009  1.5463
10773TIP3   OH253733   2.031   2.872  12.656  0.0227 -0.3149  0.4651
10773TIP3    H153734   1.949   2.869  12.705 -1.6426 -1.9854 -2.2182
10773TIP3    H253735   2.061   2.781  12.653 -0.7686 -0.5687 -2.7711
10774TIP3   OH253736   3.976   0.176   1.745  0.0850  0.7118  0.1590
10774TIP3    H153737   3.883   0.196   1.761  0.5334  0.9279  2.8619
10774TIP3    H253738   4.024   0.245   1.791  1.6045 -0.3129  0.1624
10775TIP3   OH253739   1.125   5.470  16.100  0.8258 -0.1944 -0.0666
10775TIP3    H153740   1.059   5.519  16.148  1.1264 -0.4012  0.5606
10775TIP3    H253741   1.162   5.533  16.038 -0.1213 -0.1404 -0.5956
10776TIP3   OH253742   2.082   0.394  16.245 -0.3940  0.3691 -0.0376
10776TIP3    H153743   2.050   0.432  16.163  0.0645 -0.0418 -0.4170
10776TIP3    H253744   2.162   0.347  16.220 -0.7831 -0.5890  0.4743
10777TIP3   OH253745   6.647   0.240   2.876  0.6253 -0.2251 -0.8892
10777TIP3    H153746   6.591   0.257   2.800 -0.3163 -2.0752 -0.6517
10777TIP3    H253747   6.720   0.189   2.841  1.2325  0.6113 -0.8727
10778TIP3   OH253748   2.445   4.589  11.387 -0.1520 -0.1475 -0.3877
10778TIP3    H153749   2.488   4.555  11.309  0.4782  0.6422 -0.3978
10778TIP3    H253750   2.412   4.675  11.360 -0.3416 -0.0727  0.0747
10779TIP3   OH253751   1.844   3.122  14.344 -0.2757  0.0885 -0.1019
10779TIP3    H153752   1.921   3.095  14.294  0.0496  0.6926  0.0646
10779TIP3    H253753   1.843   3.063  14.419  0.6269  0.7357  0.4386
10780TIP3   OH253754   4.296   1.860   4.847 -0.0130 -0.0616  0.1189
10780TIP3    H153755   4.202   1.849   4.835  0.0463 -0.6858  0.1686
10780TIP3    H253756   4.334   1.835   4.762  0.2156 -1.6189  0.6434
10781TIP3   OH253757   1.846   1.397   3.317  0.5830  0.1740 -0.6058
10781TIP3    H153758   1.751   1.409   3.321  0.5476  0.3488 -1.6485
10781TIP3    H253759   1.872   1.441   3.236  1.6071  0.4610 -0.1261
10782TIP3   OH253760   6.283   2.136   5.026 -0.2913  0.3299  0.2413
10782TIP3    H153761   6.292   2.205   5.091  0.5466  1.2480 -0.8247
10782TIP3    H253762   6.200   2.156   4.981 -0.2689  0.3829  0.2235
10783TIP3   OH253763   3.018   3.106  15.058 -0.4294 -0.1424 -0.7364
10783TIP3    H153764   3.106   3.076  15.081 -0.5675 -0.2241 -0.3087
10783TIP3    H253765   3.027   3.144  14.970 -0.1865 -1.1386 -1.1470
10784TIP3   OH253766   0.621   1.195   2.799 -0.5085  0.1317  0.0721
10784TIP3    H153767   0.548   1.214   2.740 -1.6928  0.8960  1.6906
10784TIP3    H253768   0.612   1.102   2.818 -0.2532 -0.0689 -0.7636
10785TIP3   OH253769   2.190   2.012  10.687 -0.2950  0.1597  0.5105
10785TIP3    H153770   2.159   1.945  10.748  0.0070 -0.6729 -0.2397
10785TIP3    H253771   2.146   1.992  10.604 -1.2704  1.7104  0.5986
10786TIP3   OH253772   2.289   5.686  16.315 -0.6155  0.0662 -0.6004
10786TIP3    H153773   2.348   5.610  16.314  0.3875  0.8087 -0.0957
10786TIP3    H253774   2.267   5.700  16.223 -2.0578 -1.7346 -0.5902
10787TIP3   OH253775   0.033   3.522   4.183 -0.5344 -0.7319 -0.7792
10787TIP3    H153776   0.097   3.508   4.251 -0.6527  1.8027 -0.0278
10787TIP3    H253777   0.082   3.562   4.111 -1.3331  2.7767  0.4113
10788TIP3   OH253778   1.346   2.236   5.927 -0.0579  0.1943 -0.0252
10788TIP3    H153779   1.349   2.329   5.951 -0.1961  0.2268 -0.1351
10788TIP3    H253780   1.350   2.190   6.011  0.8761  0.2847 -0.0106
10789TIP3   OH253781   6.513   0.938  12.973 -0.2292 -0.0289  0.6355
10789TIP3    H153782   6.467   0.854  12.968  0.6991 -0.5040 -0.3425
10789TIP3    H253783   6.444   1.002  12.989 -0.9941 -0.9352  1.0991
10790TIP3   OH253784   0.797   6.376  14.264  0.2203 -0.6793  0.3986
10790TIP3    H153785   0.842   6.365  14.347 -0.5567 -0.8372  0.8089
10790TIP3    H253786   0.763   6.466  14.267 -1.1939 -1.2160  0.9587
10791TIP3   OH253787   2.099   5.857   5.497 -0.0592  0.3978  0.7838
10791TIP3    H153788   2.095   5.778   5.550 -0.3971  1.0209  1.7237
10791TIP3    H253789   2.027   5.848   5.434  1.4119 -1.1386 -0.7501
10792TIP3   OH253790   5.264   2.364  16.161 -0.1899  0.6180 -0.3993
10792TIP3    H153791   5.273   2.423  16.236  1.7564 -0.6849  0.4878
10792TIP3    H253792   5.336   2.389  16.103  0.4140 -0.5831 -0.1952
10793TIP3   OH253793   1.458   3.235  13.716  0.1294  0.9603 -0.0959
10793TIP3    H153794   1.417   3.265  13.797 -0.6943 -4.0356  1.7464
10793TIP3    H253795   1.544   3.276  13.716 -0.1510  1.8251  2.9495
10794TIP3   OH253796   4.405   4.163   4.849 -0.0960  0.0130 -0.2564
10794TIP3    H153797   4.408   4.210   4.933 -0.3474  1.1425 -0.8599
10794TIP3    H253798   4.320   4.118   4.850  0.3226 -0.7923  0.5047
10795TIP3   OH253799   4.073   0.102  13.298  0.3823  0.2483 -0.2735
10795TIP3    H153800   4.132   0.160  13.347  0.8845  0.7055 -1.3829
10795TIP3    H253801   4.086   0.016  13.337  0.8850  0.5681  0.2863
10796TIP3   OH253802   3.688   5.928  15.337  0.5843 -0.1650 -0.1902
10796TIP3    H153803   3.677   5.833  15.333 -4.1742  0.1808 -1.5094
10796TIP3    H253804   3.657   5.952  15.424 -1.3610  0.3198 -0.9712
10797TIP3   OH253805   1.924   3.440   2.798  0.2798  0.5246  0.0687
10797TIP3    H153806   1.927   3.387   2.719 -0.2225  0.1290  0.3050
10797TIP3    H253807   2.008   3.424   2.841  0.6234  0.8718 -0.4622
10798TIP3   OH253808   2.835   5.038   0.254  0.2413  0.1758 -0.0609
10798TIP3    H153809   2.832   4.943   0.260 -1.8191  0.2572  1.0490
10798TIP3    H253810   2.749   5.067   0.282  0.4790  2.3505 -1.3198
10799TIP3   OH253811   6.081   1.956   4.998  0.3116 -0.4566  0.0257
10799TIP3    H153812   6.018   2.021   4.968 -0.5203 -0.4274  1.7535
10799TIP3    H253813   6.154   2.007   5.034  0.6827 -0.5019 -0.6323
10800TIP3   OH253814   3.302   0.718  16.793  0.1356  0.1002  0.8316
10800TIP3    H153815   3.288   0.773  16.870  2.5447  1.4621  0.4018
10800TIP3    H253816   3.239   0.751  16.728  1.2965  2.2138  0.6960
10801TIP3   OH253817   2.719   4.668  16.279  0.3827  0.2091  0.2717
10801TIP3    H153818   2.757   4.587  16.247  0.1475  0.3385 -0.3434
10801TIP3    H253819   2.777   4.696  16.350  0.0995 -0.8405  0.9291
10802TIP3   OH253820   3.857   3.367  16.137 -0.0734 -0.5253  0.7744
10802TIP3    H153821   3.912   3.295  16.108 -0.1181 -0.6093  0.8951
10802TIP3    H253822   3.881   3.381  16.228  1.1057  0.7096  0.3035
10803TIP3   OH253823   6.354   5.629  16.830 -0.0638  0.1710 -0.1789
10803TIP3    H153824   6.332   5.604  16.920 -0.3320 -1.5141 -0.6808
10803TIP3    H253825   6.272   5.616  16.781  0.2406  0.4748 -0.7755
10804TIP3   OH253826   0.136   2.455   1.341  0.4767  0.0490 -0.1627
10804TIP3    H153827   0.084   2.532   1.316  0.5362 -0.1389 -0.8852
10804TIP3    H253828   0.078   2.406   1.400 -0.4025 -0.4370 -1.3818
10805TIP3   OH253829   6.672   5.792   5.802  0.3252 -0.3303  0.0400
10805TIP3    H153830   6.638   5.766   5.888 -0.5600 -1.7143 -0.6862
10805TIP3    H253831   6.649   5.719   5.744 -0.0984  1.0569 -1.6275
10806TIP3   OH253832   5.897   1.247   1.355  0.2835 -0.4969  0.2880
10806TIP3    H153833   5.945   1.172   1.321 -0.7497 -1.9393  1.8878
10806TIP3    H253834   5.810   1.239   1.317  0.7621  1.2440 -1.3616
10807TIP3   OH253835   3.573   0.013   0.181 -0.0296 -0.4326 -0.4542
10807TIP3    H153836   3.637   0.022   0.110 -1.4283 -0.5783 -1.7893
10807TIP3    H253837   3.566   0.100   0.219  0.2654 -0.2060 -0.9166
10808TIP3   OH253838   1.528   0.962  17.069  0.5488  0.5920  0.7307
10808TIP3    H153839   1.457   0.901  17.086  0.2159 -0.1854 -2.7114
10808TIP3    H253840   1.580   0.921  17.000  1.1533  3.4988 -0.7295
10809TIP3   OH253841   1.464   5.019  15.613 -0.0595 -0.5058  0.2452
10809TIP3    H153842   1.396   5.082  15.638  0.7039  0.8865 -1.0093
10809TIP3    H253843   1.499   4.987  15.696 -1.6974 -0.6526  0.9088
10810TIP3   OH253844   2.998   6.552  14.175 -0.6500  0.3213 -0.2740
10810TIP3    H153845   3.004   6.475  14.231 -1.2872  0.0675 -0.5549
10810TIP3    H253846   3.032   6.624  14.229  1.2284 -0.3583 -0.4510
10811TIP3   OH253847   4.499   1.902   0.177 -0.0968  0.2663  0.0591
10811TIP3    H153848   4.532   1.844   0.109  0.9249  1.1091 -0.1814
10811TIP3    H253849   4.556   1.886   0.252 -0.7107 -0.0699  0.4640
10812TIP3   OH253850   4.140   6.758   4.294 -0.5986  0.3931 -0.1260
10812TIP3    H153851   4.182   6.841   4.315  0.1514  0.0112 -0.0804
10812TIP3    H253852   4.211   6.694   4.296 -0.9927 -0.1009 -1.0631
10813TIP3   OH253853   6.713   2.957  15.900 -0.6009 -0.5484  0.2250
10813TIP3    H153854   6.697   3.038  15.948 -3.1960 -0.1187 -1.1612
10813TIP3    H253855   6.637   2.902  15.920 -0.1494 -1.6219 -0.8542
10814TIP3   OH253856   5.014   4.044  16.200 -0.1211 -0.1776  0.3214
10814TIP3    H153857   4.977   4.132  16.206  0.4435  0.0497  0.6439
10814TIP3    H253858   5.003   4.019  16.108 -0.4139  0.1716  0.2576
10815TIP3   OH253859   0.569   0.620   2.140  0.1698  0.0277 -0.3336
10815TIP3    H153860   0.651   0.662   2.167 -1.3270  2.7660  0.3878
10815TIP3    H253861   0.507   0.641   2.211 -0.7397 -3.7412  0.2201
10816TIP3   OH253862   5.284   1.460  14.166  0.2124  0.4678  0.1792
10816TIP3    H153863   5.287   1.377  14.117  3.2118  0.5387  0.0528
10816TIP3    H253864   5.238   1.520  14.108  1.3726 -0.1485 -1.4533
10817TIP3   OH253865   4.875   5.845   3.216 -0.2429 -0.0969  0.4585
10817TIP3    H153866   4.823   5.899   3.275  1.4824 -0.2569  2.2603
10817TIP3    H253867   4.963   5.883   3.220  0.5856 -1.8702  0.2986
10818TIP3   OH253868   3.111   1.163   0.477 -0.1494  0.4685  0.3803
10818TIP3    H153869   3.169   1.237   0.461  0.6523 -0.0586  0.7755
10818TIP3    H253870   3.129   1.102   0.406 -0.9610  0.7266 -0.0639
10819TIP3   OH253871   6.697   3.357   4.557 -0.2164  0.6286 -0.1917
10819TIP3    H153872   6.742   3.304   4.623 -0.7374 -0.8420 -0.9720
10819TIP3    H253873   6.612   3.377   4.596 -0.3976  0.0348 -0.2654
10820TIP3   OH253874   3.309   2.342   4.187 -0.3415 -0.8803 -0.3052
10820TIP3    H153875   3.372   2.286   4.142  2.4209  0.2847  1.7987
10820TIP3    H253876   3.295   2.415   4.127  0.6309 -0.9945 -0.6962
10821TIP3   OH253877   1.656   5.024  15.836  0.0969  0.1366  0.1521
10821TIP3    H153878   1.691   4.939  15.808 -0.6641 -0.6260  1.3784
10821TIP3    H253879   1.695   5.038  15.922 -1.9607 -0.4040  1.2492
10822TIP3   OH253880   5.304   0.271  13.823  0.7351 -0.8813  0.0672
10822TIP3    H153881   5.342   0.350  13.861  1.7500 -1.7218  0.8506
10822TIP3    H253882   5.349   0.261  13.739  0.2445 -0.3767 -0.2695
10823TIP3   OH253883   6.422   3.789   5.426 -0.1862 -0.0608 -0.1151
10823TIP3    H153884   6.356   3.835   5.373 -0.1123  0.4306  0.2208
10823TIP3    H253885   6.418   3.698   5.395 -0.6106  0.0880 -0.5038
10824TIP3   OH253886   2.332   4.558   0.263  0.0616 -0.1805 -0.0342
10824TIP3    H153887   2.405   4.539   0.204 -1.4760 -1.4139 -1.6051
10824TIP3    H253888   2.289   4.474   0.277 -2.4506  0.8276 -1.0730
10825TIP3   OH253889   2.188   6.451  16.318 -0.7736 -0.1947  0.7321
10825TIP3    H153890   2.246   6.443  16.242 -0.0664 -3.1374  1.4288
10825TIP3    H253891   2.158   6.541  16.316  2.0610  0.8486 -0.9655
10826TIP3   OH253892   6.528   1.448   4.798  0.4813 -0.4365 -0.0474
10826TIP3    H153893   6.555   1.366   4.757 -0.9666 -1.4395  0.9074
10826TIP3    H253894   6.606   1.477   4.847  0.4910 -2.1897  1.0500
10827TIP3   OH253895   3.832   5.567   2.207  0.1728 -0.3244  0.0485
10827TIP3    H153896   3.743   5.583   2.173  0.0048  0.9595  1.0309
10827TIP3    H253897   3.829   5.476   2.237 -0.0996 -1.0453 -1.9924
10828TIP3   OH253898   1.579   3.862   5.815 -0.4812 -0.2396  0.1739
10828TIP3    H153899   1.560   3.935   5.757  2.9202  0.0376 -0.8091
10828TIP3    H253900   1.605   3.791   5.756 -2.0026 -1.7304  1.2020
10829TIP3   OH253901   3.925   5.894  12.036 -0.2576 -0.9303 -0.1331
10829TIP3    H153902   3.897   5.859  12.121  0.5147  0.3496  0.6727
10829TIP3    H253903   3.852   5.876  11.978  0.0926 -3.9496  0.1762
10830TIP3   OH253904   0.082   3.621  16.748 -0.1602  0.7614 -0.1909
10830TIP3    H153905   0.047   3.610  16.837  2.8044  2.3416  1.3354
10830TIP3    H253906   0.022   3.682  16.706 -0.3666  1.9099  1.6440
10831TIP3   OH253907   0.432   5.243  11.649 -0.4137 -0.4004 -0.2270
10831TIP3    H153908   0.488   5.315  11.677 -1.4723  0.7174 -0.8883
10831TIP3    H253909   0.343   5.275  11.661 -0.9304 -1.9317  0.2731
10832TIP3   OH253910   1.565   4.067   4.809 -0.0202 -0.3576  0.0028
10832TIP3    H153911   1.504   4.088   4.880  0.2344 -1.3326  0.5194
10832TIP3    H253912   1.556   4.141   4.748 -1.4795 -0.3223  0.2166
10833TIP3   OH253913   4.044   0.122   2.844  0.3537  0.0804 -0.3282
10833TIP3    H153914   3.979   0.116   2.774  1.0178  0.6020 -1.0004
10833TIP3    H253915   4.079   0.211   2.837 -0.8475  0.7903  1.8299
10834TIP3   OH253916   1.502   6.209   2.361  0.2687  0.3003  0.2733
10834TIP3    H153917   1.470   6.265   2.431  3.0145  3.7572 -0.9336
10834TIP3    H253918   1.427   6.196   2.304 -0.5673  2.6006  0.7577
10835TIP3   OH253919   4.334   1.149  12.093  0.2805 -0.8572  0.4082
10835TIP3    H153920   4.394   1.193  12.033 -1.8415  1.7317  0.0157
10835TIP3    H253921   4.376   1.064  12.110  2.3065 -0.6109 -2.5394
10836TIP3   OH253922   3.210   5.913  15.078 -0.5571 -0.8615 -0.7319
10836TIP3    H153923   3.166   5.913  14.993 -0.0460 -0.8544 -1.0018
10836TIP3    H253924   3.233   5.821  15.092  2.3886 -0.4644 -2.2175
10837TIP3   OH253925   0.346   3.319  11.762  0.0226 -0.2760  0.0533
10837TIP3    H153926   0.298   3.252  11.714  1.1114 -2.6424  2.0406
10837TIP3    H253927   0.286   3.350  11.829  0.6221 -1.9741  1.4343
10838TIP3   OH253928   5.645   2.200   5.777 -0.3004 -0.6686  0.2924
10838TIP3    H153929   5.662   2.153   5.859 -1.2835 -0.8950  0.3743
10838TIP3    H253930   5.731   2.233   5.751 -0.3136  1.6779  2.7624
10839TIP3   OH253931   1.570   3.040   0.335 -0.1272  0.4628  0.0357
10839TIP3    H153932   1.548   2.989   0.257 -2.5415 -0.6300  1.3244
10839TIP3    H253933   1.617   3.116   0.302 -0.6487 -0.2173 -2.4210
10840TIP3   OH253934   4.443   3.241  14.271  0.0435 -0.4001  0.4910
10840TIP3    H153935   4.387   3.311  14.237 -1.5495 -1.0589  1.6179
10840TIP3    H253936   4.520   3.286  14.305  1.3728  0.3530 -3.1259
10841TIP3   OH253937   5.198   0.722   6.203  0.3858  0.4499 -1.0819
10841TIP3    H153938   5.229   0.810   6.225 -0.5402  0.3086  1.1583
10841TIP3    H253939   5.265   0.664   6.237  0.3616  0.2663 -1.3502
10842TIP3   OH253940   2.718   5.670   1.301 -0.3832  0.1298 -0.0625
10842TIP3    H153941   2.698   5.619   1.222  0.1928 -0.1633 -0.0228
10842TIP3    H253942   2.755   5.752   1.267  1.6329 -0.7352 -0.0983
10843TIP3   OH253943   6.655   0.931  10.983  0.0576  0.0685 -0.6403
10843TIP3    H153944   6.624   1.021  10.977  0.6034  0.2553 -0.6756
10843TIP3    H253945   6.624   0.900  11.068 -2.5932 -0.6561 -1.7554
10844TIP3   OH253946   3.833   3.286  16.995 -0.3844  0.4287  0.2506
10844TIP3    H153947   3.779   3.299  16.917  0.0618 -0.0232 -0.1416
10844TIP3    H253948   3.919   3.261  16.960 -0.7053 -1.7732  0.9044
10845TIP3   OH253949   0.589   0.685   4.520  0.4132 -0.3168 -0.2348
10845TIP3    H153950   0.670   0.660   4.564  0.9925  1.5599 -0.1448
10845TIP3    H253951   0.536   0.726   4.588  0.6820  1.2272 -0.9200
10846TIP3   OH253952   0.338   5.678   2.394 -0.0684 -0.0624 -0.4969
10846TIP3    H153953   0.351   5.770   2.415  0.4932  0.1156 -1.5458
10846TIP3    H253954   0.347   5.632   2.478 -1.8115  0.9487  0.3038
10847TIP3   OH253955   6.249   4.980   0.931  0.6321 -0.1937 -0.2156
10847TIP3    H153956   6.173   4.968   0.875 -0.6664  0.1122  1.3839
10847TIP3    H253957   6.244   4.908   0.994  2.2559 -0.7459 -0.6835
10848TIP3   OH253958   4.622   1.549   4.487 -0.2693 -0.3000  0.5689
10848TIP3    H153959   4.685   1.547   4.559  0.8189  0.6181 -0.3394
10848TIP3    H253960   4.666   1.505   4.414 -2.0727 -3.0119  0.9239
10849TIP3   OH253961   6.697   1.181  14.787  0.5278  0.4534 -0.5436
10849TIP3    H153962   6.676   1.260  14.736  1.9317 -0.2484 -2.3268
10849TIP3    H253963   6.669   1.109  14.730  2.5777 -0.3751 -0.5840
10850TIP3   OH253964   1.213   0.365   4.343  0.1638 -0.2837  0.0430
10850TIP3    H153965   1.303   0.384   4.370  0.5021  0.5728 -1.5460
10850TIP3    H253966   1.223   0.305   4.269 -0.5874 -0.4187  0.0482
10851TIP3   OH253967   2.342   3.275  13.934 -0.0527 -0.3963  0.5165
10851TIP3    H153968   2.366   3.307  14.021  0.2619  0.3760  0.1569
10851TIP3    H253969   2.330   3.181  13.945  2.2286 -0.7074  0.9477
10852TIP3   OH253970   4.327   5.342  12.346 -0.3043  0.2839  0.6382
10852TIP3    H153971   4.378   5.279  12.397  0.1155  1.7957  2.1613
10852TIP3    H253972   4.361   5.332  12.256  0.9107 -0.4980  1.1538
10853TIP3   OH253973   2.710   0.945  13.280  0.0272  0.1889 -0.1345
10853TIP3    H153974   2.747   1.022  13.237 -1.7909  0.7091 -0.8701
10853TIP3    H253975   2.684   0.888  13.208 -0.5867 -0.1484  0.3519
10854TIP3   OH253976   0.765   2.645  12.475  0.4220 -0.3329 -0.2980
10854TIP3    H153977   0.679   2.630  12.513  0.4592  0.6583  0.1946
10854TIP3    H253978   0.795   2.558  12.449 -0.4497 -0.7655  0.1080
10855TIP3   OH253979   0.262   4.208  17.355  0.0916 -0.4526  0.3790
10855TIP3    H153980   0.313   4.160  17.289 -1.1867  1.0343 -1.7890
10855TIP3    H253981   0.172   4.206  17.322 -0.5611  0.5139  1.9903
10856TIP3   OH253982   6.382   4.897  16.417 -0.0194 -0.0880  0.2783
10856TIP3    H153983   6.360   4.878  16.326  0.4958 -1.4017  0.3982
10856TIP3    H253984   6.315   4.958  16.447 -0.5190 -0.0897 -0.8120
10857TIP3   OH253985   6.542   6.522  12.102  0.0491 -0.1466  0.4283
10857TIP3    H153986   6.507   6.479  12.180  0.5696  1.9317  1.8961
10857TIP3    H253987   6.610   6.463  12.071 -2.0987 -2.4442 -0.2750
10858TIP3   OH253988   2.653   2.701   2.348 -0.2330 -0.6585  0.1178
10858TIP3    H153989   2.742   2.689   2.314  0.2618 -2.7197  1.9350
10858TIP3    H253990   2.665   2.748   2.430 -0.5888 -2.3875  1.2129
10859TIP3   OH253991   4.350   2.577   5.009  0.4752  0.1583 -0.2168
10859TIP3    H153992   4.288   2.596   5.079  0.3171  1.0437 -0.5848
10859TIP3    H253993   4.362   2.660   4.964  1.0278 -0.2653 -0.8793
10860TIP3   OH253994   1.864   4.096  14.846 -0.0657  0.6654 -0.8389
10860TIP3    H153995   1.905   4.087  14.932 -2.5082  1.0342  0.4480
10860TIP3    H253996   1.906   4.029  14.793  1.3313  0.2461  0.7038
10861TIP3   OH253997   5.846   5.879  13.744  0.2166  0.1048  0.0576
10861TIP3    H153998   5.844   5.830  13.826  0.4294 -1.0113 -0.5946
10861TIP3    H253999   5.769   5.936  13.749  0.5673  0.5156  1.2984
10862TIP3   OH254000   4.952   6.691  11.943  0.1253 -0.3705  0.0568
10862TIP3    H154001   4.913   6.608  11.972  0.4607 -0.2751  0.8028
10862TIP3    H254002   4.897   6.718  11.869 -0.8693 -0.5325  0.7137
10863TIP3   OH254003   0.178   0.007   6.098 -0.6519 -0.3454 -0.1999
10863TIP3    H154004   0.175  -0.088   6.110 -0.6511 -0.2100  0.9926
10863TIP3    H254005   0.106   0.040   6.152 -1.4403  0.2669 -1.5553
10864TIP3   OH254006   6.545   5.333   6.659  0.0098  0.1251 -0.0159
10864TIP3    H154007   6.568   5.241   6.641  0.6354  0.2433  0.1581
10864TIP3    H254008   6.625   5.382   6.639 -0.1746  0.5804  0.3524
10865TIP3   OH254009   4.008   1.824   4.864 -0.4830  0.1336 -0.5333
10865TIP3    H154010   3.974   1.899   4.912  0.0763 -0.8204  1.4379
10865TIP3    H254011   3.949   1.752   4.887  1.1513 -0.8841  0.6816
10866TIP3   OH254012   0.584   2.902   5.239  0.5355 -0.1456 -0.6921
10866TIP3    H154013   0.668   2.861   5.260  2.1238  2.5525 -1.3651
10866TIP3    H254014   0.574   2.972   5.304 -1.3156 -0.4675 -0.5472
10867TIP3   OH254015   3.774   2.057   4.868  0.3505 -0.2752  0.6854
10867TIP3    H154016   3.824   2.068   4.788  1.1488  3.5142  1.4975
10867TIP3    H254017   3.830   2.095   4.937 -2.2824  1.3446  2.1228
10868TIP3   OH254018   1.502   3.092  15.896  0.1073  0.3198  1.0612
10868TIP3    H154019   1.581   3.142  15.876  1.2621 -1.8841 -0.2191
10868TIP3    H254020   1.520   3.051  15.981 -0.0992  0.6067  1.2481
10869TIP3   OH254021   6.297   1.744   4.479 -0.0906  0.0528  0.1270
10869TIP3    H154022   6.386   1.708   4.483  0.4806  1.4105  0.6313
10869TIP3    H254023   6.246   1.690   4.539  0.4978 -0.5065  0.1343
10870TIP3   OH254024   1.638   3.015  13.098  0.1653 -0.1027  0.2235
10870TIP3    H154025   1.589   3.032  13.178  3.2869  0.8926  2.1114
10870TIP3    H254026   1.662   3.102  13.065  0.6994 -0.5352 -0.5773
10871TIP3   OH254027   2.633   1.542   4.406  0.1233 -0.6391 -0.2360
10871TIP3    H154028   2.556   1.535   4.463  0.9339 -2.1420  0.7681
10871TIP3    H254029   2.695   1.594   4.456  0.0914 -0.1635 -0.6792
10872TIP3   OH254030   4.793   3.567  13.266  0.4183  0.1817  0.0001
10872TIP3    H154031   4.844   3.636  13.307 -0.6420  1.7970 -1.2894
10872TIP3    H254032   4.731   3.613  13.209 -2.6793 -1.6288  1.6387
10873TIP3   OH254033   3.076   5.744  15.746 -0.3839 -0.6072 -0.8416
10873TIP3    H154034   3.006   5.688  15.712 -0.1626  0.0398 -2.4731
10873TIP3    H254035   3.150   5.685  15.759 -1.1889 -1.3125  0.9528
10874TIP3   OH254036   3.881   1.279  11.410  1.0272  0.0238  0.0476
10874TIP3    H154037   3.850   1.316  11.328 -0.7449  0.6666  0.9486
10874TIP3    H254038   3.972   1.308  11.417  1.6399 -1.0767 -2.2325
10875TIP3   OH254039   0.175   4.973  16.723  0.3100 -0.2021  0.0920
10875TIP3    H154040   0.234   4.906  16.686 -0.8131 -0.1771 -1.9207
10875TIP3    H254041   0.093   4.960  16.676 -0.7784  0.8733  1.6143
10876TIP3   OH254042   1.415   4.235  12.163  0.2727 -0.2682 -0.6556
10876TIP3    H154043   1.508   4.239  12.188  0.6858 -0.6654 -2.0658
10876TIP3    H254044   1.384   4.325  12.174  1.0178  0.0223 -0.8825
10877TIP3   OH254045   0.000   6.638  16.607  0.2313  0.4420  0.5641
10877TIP3    H154046   0.008   6.543  16.607 -0.1503  0.4028 -0.3524
10877TIP3    H254047  -0.093   6.655  16.619  0.1872  0.6814 -0.0882
10878TIP3   OH254048   1.933   5.151   1.605 -0.0304 -0.0185  0.0299
10878TIP3    H154049   2.015   5.132   1.559  0.4709  1.6456  0.1734
10878TIP3    H254050   1.902   5.233   1.566 -0.5373  0.4709  1.3906
10879TIP3   OH254051   3.026   4.371  17.225 -0.3758  0.8307  0.0531
10879TIP3    H154052   3.066   4.400  17.142  3.4219 -0.0813  1.3401
10879TIP3    H254053   3.020   4.276  17.216  2.3096  0.4238  1.5166
10880TIP3   OH254054   4.117   5.564   0.233 -0.6654 -0.2160 -0.1383
10880TIP3    H154055   4.143   5.589   0.322 -1.6422  2.3522 -0.5015
10880TIP3    H254056   4.192   5.587   0.178 -0.8933  0.2604 -0.2516
10881TIP3   OH254057   4.711   0.573   4.811  0.0044 -0.6542 -0.1103
10881TIP3    H154058   4.786   0.591   4.869  0.7015 -0.1684 -1.1266
10881TIP3    H254059   4.682   0.485   4.837  0.5135 -0.5875  0.7442
10882TIP3   OH254060   3.718   3.889  12.571 -0.6205  0.1000 -0.1671
10882TIP3    H154061   3.721   3.831  12.496  4.1680 -0.2735  0.0127
10882TIP3    H254062   3.717   3.831  12.647 -0.5646  0.3509  0.0277
10883TIP3   OH254063   3.025   4.502   6.056 -0.4552  0.1547  0.2370
10883TIP3    H154064   3.031   4.478   5.963 -0.9167  0.2343  0.1858
10883TIP3    H254065   3.021   4.418   6.102 -2.9499  0.0626  0.0027
10884TIP3   OH254066   1.761   2.117   1.663  0.3249 -0.2182  0.8912
10884TIP3    H154067   1.670   2.086   1.663  0.3467 -0.7176 -2.8939
10884TIP3    H254068   1.754   2.210   1.642  0.7001 -0.1327  1.1394
10885TIP3   OH254069   4.617   1.000  16.524  0.1951 -0.9441 -0.2660
10885TIP3    H154070   4.526   1.027  16.530  1.2029  2.6888  0.8086
10885TIP3    H254071   4.640   0.971  16.612  0.4059 -0.5829 -0.1996
10886TIP3   OH254072   0.269   1.757  10.874  0.0936 -0.4010  0.2408
10886TIP3    H154073   0.302   1.758  10.784 -1.3025  1.5498 -0.3189
10886TIP3    H254074   0.313   1.831  10.916 -0.6669 -0.1318  0.5818
10887TIP3   OH254075   3.556   2.584  13.287 -0.3004  0.1176 -0.5754
10887TIP3    H154076   3.596   2.589  13.374 -0.1935 -2.0507 -0.4345
10887TIP3    H254077   3.626   2.613  13.228 -0.1551  0.9887  0.0034
10888TIP3   OH254078   0.700   3.848  12.841 -0.2240 -0.3649 -0.1177
10888TIP3    H154079   0.690   3.875  12.932 -0.5112 -1.0200  0.0472
10888TIP3    H254080   0.788   3.811  12.837  1.1829  2.7036 -0.8958
10889TIP3   OH254081   1.380   6.266  17.154  0.0453 -0.2725 -0.0588
10889TIP3    H154082   1.304   6.323  17.163 -0.0870 -0.5480  0.6739
10889TIP3    H254083   1.381   6.215  17.235  0.5648 -0.8159 -0.4006
10890TIP3   OH254084   1.302   5.087   2.742  0.5223 -0.0925  0.3290
10890TIP3    H154085   1.355   5.049   2.672 -0.1562  0.6609 -0.6226
10890TIP3    H254086   1.336   5.176   2.753 -1.0309  0.7039 -0.8879
10891TIP3   OH254087   6.431   3.424  12.522  0.1615 -0.1328 -0.3834
10891TIP3    H154088   6.379   3.383  12.454  1.5589  0.1661 -1.6881
10891TIP3    H254089   6.486   3.354  12.556 -0.5577 -0.2906  0.4967
10892TIP3   OH254090   1.444   5.087   2.466  0.2201 -0.2127 -0.0599
10892TIP3    H154091   1.490   5.171   2.462  0.7077 -0.5211 -1.2210
10892TIP3    H254092   1.352   5.110   2.453  0.3706  0.1281 -0.5361
10893TIP3   OH254093   1.868   3.071  10.616 -0.6760 -0.1273  0.3835
10893TIP3    H154094   1.922   2.997  10.642 -0.5501 -1.2235 -2.5888
10893TIP3    H254095   1.781   3.050  10.650 -0.2599 -0.7577  1.0923
10894TIP3   OH254096   2.312   1.403   5.779 -0.3853  0.0704 -0.5793
10894TIP3    H154097   2.251   1.373   5.846  1.2832 -1.6352  0.2849
10894TIP3    H254098   2.292   1.349   5.703  1.0204 -1.7021  0.2188
10895TIP3   OH254099   4.081   2.353   5.341 -0.1975  0.3102  0.1723
10895TIP3    H154100   4.091   2.295   5.266 -0.8007 -0.5618  0.7309
10895TIP3    H254101   4.006   2.317   5.389  0.1615  0.8426  1.1772
10896TIP3   OH254102   2.382   1.276   0.605 -0.1744 -0.7172  0.3830
10896TIP3    H154103   2.313   1.211   0.618  1.1070 -2.2167  0.0647
10896TIP3    H254104   2.456   1.242   0.656  0.4486  0.6618  0.4401
10897TIP3   OH254105   6.700   2.465  12.350 -0.4429 -0.1902 -0.3862
10897TIP3    H154106   6.734   2.522  12.281  0.3887 -1.5887 -1.1858
10897TIP3    H254107   6.774   2.454  12.410 -1.4175  1.7551  1.3126
10898TIP3   OH254108   0.163   1.144   1.570 -0.2774 -0.7499 -0.2300
10898TIP3    H154109   0.256   1.141   1.593 -0.0216 -0.8445 -1.1906
10898TIP3    H254110   0.152   1.229   1.527 -0.7858 -0.4659  0.4516
10899TIP3   OH254111   5.772   0.019   1.130 -0.1490 -0.3000 -0.1901
10899TIP3    H154112   5.830   0.010   1.205 -2.3118  0.2960  1.6741
10899TIP3    H254113   5.735  -0.069   1.117 -1.6008  0.0575  1.1153
10900TIP3   OH254114   4.289   2.916  10.576  0.0534 -0.2035 -0.2058
10900TIP3    H154115   4.296   3.011  10.570  1.6361 -0.3549 -1.9844
10900TIP3    H254116   4.370   2.884  10.536 -0.2394 -2.3024  0.7401
10901TIP3   OH254117   1.756   0.156   4.432  0.2308 -0.4326  0.4524
10901TIP3    H154118   1.710   0.154   4.349  2.6017  2.0695 -1.0947
10901TIP3    H254119   1.831   0.097   4.419  0.5076 -0.1779  0.8627
10902TIP3   OH254120   6.151   5.317  17.045  0.6178 -0.3858 -0.3274
10902TIP3    H154121   6.231   5.282  17.007  0.8710 -0.5949  0.3659
10902TIP3    H254122   6.172   5.328  17.138  0.1264  0.3986 -0.3025
10903TIP3   OH254123   5.393   4.673   0.416  0.0127 -0.0653  0.1099
10903TIP3    H154124   5.319   4.653   0.358  0.8804 -1.1795 -0.6531
10903TIP3    H254125   5.397   4.599   0.477  1.6643 -1.0358 -1.0930
10904TIP3   OH254126   1.868   4.215   4.779 -0.3351 -0.3720  0.5178
10904TIP3    H154127   1.840   4.293   4.827  0.4457 -0.2816  0.8505
10904TIP3    H254128   1.855   4.143   4.840  1.3864 -0.1600  1.1813
10905TIP3   OH254129   0.281   0.102  17.139 -0.2438  0.0579  0.2114
10905TIP3    H154130   0.232   0.169  17.093  1.2588  0.8850 -0.2640
10905TIP3    H254131   0.273   0.024  17.084  1.5953  1.0510 -1.6157
10906TIP3   OH254132   1.050   6.311   2.207 -0.0629 -0.2118 -0.3389
10906TIP3    H154133   1.132   6.358   2.190  1.0275 -1.6544  0.5942
10906TIP3    H254134   0.987   6.379   2.228  1.2083  0.8961  0.0835
10907TIP3   OH254135   1.729   4.943  12.578 -0.1943  0.2829  0.0060
10907TIP3    H154136   1.660   4.998  12.541 -0.1065  0.7160  0.4701
10907TIP3    H254137   1.803   4.954  12.518 -0.5980 -0.3520 -0.6068
10908TIP3   OH254138   3.429   0.135  17.318 -0.2103 -0.0071  0.0981
10908TIP3    H154139   3.411   0.203  17.382  0.1191  0.9149 -0.7713
10908TIP3    H254140   3.411   0.053  17.365 -1.3651  0.6852  0.9148
10909TIP3   OH254141   5.264   1.467   5.349 -0.3533 -0.9746  0.0802
10909TIP3    H154142   5.355   1.492   5.366 -0.6325  1.0353 -0.9836
10909TIP3    H254143   5.265   1.372   5.346  1.5555 -1.0310  0.8952
10910TIP3   OH254144   5.224   2.709  16.803 -0.1946  0.3299 -0.1970
10910TIP3    H154145   5.243   2.632  16.857  1.8999  1.8821  1.4176
10910TIP3    H254146   5.304   2.723  16.753 -0.2456  1.9103  0.1279
10911TIP3   OH254147   3.101   4.424   4.068  0.0261 -0.0568  0.0372
10911TIP3    H154148   3.189   4.454   4.044  0.1100 -0.1321  0.2503
10911TIP3    H254149   3.058   4.502   4.102 -0.7943  0.5643 -2.2629
10912TIP3   OH254150   1.191   4.397   2.691 -0.8047  0.0191  0.3793
10912TIP3    H154151   1.256   4.467   2.692 -0.7507  0.0144  2.9194
10912TIP3    H254152   1.243   4.317   2.680 -0.5464  0.1418  0.6866
10913TIP3   OH254153   2.533   5.902   5.035  0.1821 -0.7822  0.2547
10913TIP3    H154154   2.608   5.882   5.092  0.5837  1.8927  0.8162
10913TIP3    H254155   2.572   5.944   4.959 -0.5483 -2.3480 -1.0391
10914TIP3   OH254156   1.581   1.905   2.849 -0.0129 -0.3098  0.2966
10914TIP3    H154157   1.549   1.886   2.760 -0.1912 -0.5647  0.4148
10914TIP3    H254158   1.626   1.825   2.876 -0.0206 -0.2572  0.4638
10915TIP3   OH254159   6.208   6.176  14.515 -0.0487  0.0495 -0.0643
10915TIP3    H154160   6.127   6.219  14.542 -1.1641  0.6311 -3.7631
10915TIP3    H254161   6.181   6.085  14.497  0.1908  0.1489 -0.9477
10916TIP3   OH254162   4.485   4.958  15.974  0.0396  1.0697 -0.5239
10916TIP3    H154163   4.522   4.871  15.990  1.5923  1.7694 -0.1908
10916TIP3    H254164   4.430   4.975  16.051  2.0446  1.5565  0.8861
10917TIP3   OH254165   4.783   0.423  13.448 -0.4128 -0.0601  0.0483
10917TIP3    H154166   4.704   0.410  13.394 -1.6800 -1.5660  2.1140
10917TIP3    H254167   4.852   0.377  13.400 -1.1054 -0.0026 -1.0546
10918TIP3   OH254168   5.041   6.210   4.398 -0.7424 -0.1609  0.6214
10918TIP3    H154169   5.096   6.256   4.335  1.5681 -2.8520  0.4766
10918TIP3    H254170   4.967   6.269   4.413  0.5578  2.2497 -1.6333
10919TIP3   OH254171   1.600   0.180   0.991  0.2429  0.1453 -0.3430
10919TIP3    H154172   1.553   0.097   0.991  1.0601 -0.3319 -0.3369
10919TIP3    H254173   1.579   0.219   1.076  1.1475 -0.8350  0.3636
10920TIP3   OH254174   0.702   2.900   4.833 -0.2585 -0.2871 -0.2616
10920TIP3    H154175   0.711   2.806   4.844 -0.3036 -0.2883 -0.2311
10920TIP3    H254176   0.636   2.911   4.764  0.0484 -0.2799 -0.5505
10921TIP3   OH254177   3.478   3.367  14.085 -0.4693  0.2223  0.1611
10921TIP3    H154178   3.514   3.331  14.166 -0.4873  1.0294  0.5372
10921TIP3    H254179   3.526   3.323  14.015  0.3345  0.3518  0.6292
10922TIP3   OH254180   3.074   3.295   5.613  0.5909 -0.7347 -0.0397
10922TIP3    H154181   3.079   3.253   5.699  1.1294  1.2879  0.9675
10922TIP3    H254182   3.153   3.265   5.567  2.1957  0.8955  1.5199
10923TIP3   OH254183   5.140   3.496   4.629  0.4236  0.5305 -0.4204
10923TIP3    H154184   5.076   3.499   4.558  0.0177 -0.6052 -0.1273
10923TIP3    H254185   5.090   3.465   4.705  1.6546 -2.2878 -0.6225
10924TIP3   OH254186   4.911   4.706   3.511 -0.2575 -0.1618 -0.7050
10924TIP3    H154187   4.961   4.724   3.430 -1.4530  1.3346 -1.1643
10924TIP3    H254188   4.821   4.731   3.489 -0.9675 -1.5341  0.5264
10925TIP3   OH254189   0.909   1.648  15.942  0.5990  0.0616  0.7510
10925TIP3    H154190   0.901   1.562  15.900 -0.0605 -0.4099  1.8216
10925TIP3    H254191   0.990   1.642  15.992  1.6426  0.7895 -0.7733
10926TIP3   OH254192   6.624   4.813  16.598 -0.1188  0.3952 -0.7003
10926TIP3    H154193   6.631   4.845  16.687 -0.2902 -1.5295  0.0622
10926TIP3    H254194   6.568   4.876  16.554 -1.6706  0.3524  1.1024
10927TIP3   OH254195   1.867   2.509  16.323  0.4146  0.1963  0.0959
10927TIP3    H154196   1.811   2.437  16.352 -1.2317  1.8110  1.1607
10927TIP3    H254197   1.875   2.496  16.228 -0.3820 -1.0046  0.1705
10928TIP3   OH254198   3.408   2.535  14.202  0.3505 -0.1211 -0.3288
10928TIP3    H154199   3.375   2.507  14.116 -3.0893  0.8333  0.5378
10928TIP3    H254200   3.450   2.619  14.186  0.0841 -0.1387 -1.1516
10929TIP3   OH254201   6.612   2.217   5.280 -0.1801  0.5187  0.7276
10929TIP3    H154202   6.677   2.251   5.218 -1.8284  1.3406 -0.6185
10929TIP3    H254203   6.581   2.136   5.239  0.0521  0.0662  1.4239
10930TIP3   OH254204   0.464   1.996  16.967  0.0671  0.1139 -0.1868
10930TIP3    H154205   0.520   1.989  17.044  0.6939  1.2522 -0.5096
10930TIP3    H254206   0.461   1.907  16.931  0.5988 -0.2207  0.5798
10931TIP3   OH254207   6.193   3.881   3.530  0.1322  0.1344 -0.0863
10931TIP3    H154208   6.147   3.852   3.451  0.9823 -1.2277 -0.1037
10931TIP3    H254209   6.277   3.914   3.499  1.1382 -1.8988  0.3484
10932TIP3   OH254210   3.392   1.076  16.991  0.4314  0.6881 -0.4035
10932TIP3    H154211   3.341   0.995  16.989 -0.0586  0.8366  2.0906
10932TIP3    H254212   3.481   1.050  16.968  0.0628 -0.3689 -0.6832
10933TIP3   OH254213   1.082   3.436   4.286 -0.8503  0.1115 -0.9322
10933TIP3    H154214   1.064   3.401   4.199  0.4004 -0.0399 -1.1482
10933TIP3    H254215   1.167   3.399   4.310 -0.4807  1.3304 -0.2742
10934TIP3   OH254216   2.006   2.487  12.512 -0.2802  0.1428  0.2919
10934TIP3    H154217   1.967   2.454  12.431  0.1971  1.5536 -0.5593
10934TIP3    H254218   1.941   2.547  12.547  0.2845  1.0145 -0.1023
10935TIP3   OH254219   6.757   3.462   0.974 -0.0784  0.0097  0.2479
10935TIP3    H154220   6.747   3.542   1.025 -0.6058 -0.3421  0.7061
10935TIP3    H254221   6.791   3.397   1.036 -0.2901 -0.3000  0.0440
10936TIP3   OH254222   1.244   2.423  11.195  0.3526  0.4774 -0.0766
10936TIP3    H154223   1.183   2.374  11.250  0.3618  1.3441  0.7298
10936TIP3    H254224   1.211   2.412  11.106 -0.7092  0.5579  0.2969
10937TIP3   OH254225   0.741   1.129  11.482 -0.2018  0.1896 -0.0513
10937TIP3    H154226   0.646   1.136  11.486 -0.2082 -0.2010  0.7416
10937TIP3    H254227   0.759   1.036  11.492  0.2300  0.1272 -1.2653
10938TIP3   OH254228   5.706   3.941  13.219 -0.0419  0.6754  0.0115
10938TIP3    H154229   5.648   3.865  13.217  0.2147  0.2878  2.9123
10938TIP3    H254230   5.763   3.930  13.143 -0.7685 -1.4140 -0.2923
10939TIP3   OH254231   5.430   2.157  17.335 -0.1429 -0.1672 -0.3017
10939TIP3    H154232   5.524   2.173  17.345  0.1909 -1.2648 -1.5048
10939TIP3    H254233   5.399   2.139  17.424  0.5328  1.3183  0.2802
10940TIP3   OH254234   1.498   6.714   0.183 -0.4191  0.4532 -0.8143
10940TIP3    H154235   1.463   6.642   0.235 -1.2708  0.4018 -1.4388
10940TIP3    H254236   1.560   6.759   0.241  0.8693 -1.3517 -0.7303
10941TIP3   OH254237   5.695   2.435  11.758  0.3849 -0.5080 -0.2221
10941TIP3    H154238   5.640   2.358  11.773  2.1212 -1.3616  2.2408
10941TIP3    H254239   5.780   2.399  11.734  0.9365  0.6988 -0.1293
10942TIP3   OH254240   2.913   1.086   1.849 -0.4262  1.0033 -0.6745
10942TIP3    H154241   2.840   1.047   1.802 -0.2468  0.5953 -0.6207
10942TIP3    H254242   2.991   1.047   1.809 -0.2864  0.0819  0.4465
10943TIP3   OH254243   5.229   6.313  15.109  0.6762 -0.5202  0.2697
10943TIP3    H154244   5.312   6.284  15.071  0.7861 -0.5758  0.5431
10943TIP3    H254245   5.195   6.235  15.153  0.2235 -0.6355 -0.2772
10944TIP3   OH254246   0.914   0.203  12.380  0.9384  0.0160  0.3736
10944TIP3    H154247   0.855   0.219  12.307  0.3732  0.7522  0.9673
10944TIP3    H254248   0.903   0.110  12.400  2.5862 -0.6958 -1.7155
10945TIP3   OH254249   4.928   3.470   1.323 -0.0955  0.4085  0.4597
10945TIP3    H154250   4.880   3.446   1.244 -0.0691 -0.4703  0.6985
10945TIP3    H254251   5.016   3.436   1.309  0.5687  2.2440 -0.0871
10946TIP3   OH254252   4.258   1.300  14.105  0.2799 -0.2642 -1.1494
10946TIP3    H154253   4.218   1.346  14.032  0.6844  2.6913  0.3195
10946TIP3    H254254   4.351   1.320  14.097  0.1899  1.1856  0.7734
10947TIP3   OH254255   3.106   2.315   5.860  0.5617 -0.6074 -0.6247
10947TIP3    H154256   3.038   2.372   5.893  0.6382 -1.3228  0.8680
10947TIP3    H254257   3.171   2.374   5.821  0.0977  0.2296 -0.1486
10948TIP3   OH254258   1.881   5.061  13.083 -0.8243  0.4433 -0.2049
10948TIP3    H154259   1.855   5.150  13.105 -2.0406  0.3062 -0.9919
10948TIP3    H254260   1.882   5.059  12.988  2.3171  0.4596 -0.2863
10949TIP3   OH254261   3.347   5.759  15.447  0.3413 -0.3502  0.1857
10949TIP3    H154262   3.306   5.833  15.492  1.9032  0.4496  0.3782
10949TIP3    H254263   3.402   5.719  15.514  0.9127 -0.5579 -0.3984
10950TIP3   OH254264   5.977   5.884   2.402 -0.6023 -0.2113 -0.0463
10950TIP3    H154265   6.008   5.963   2.447  1.3052  0.7803 -2.7777
10950TIP3    H254266   6.030   5.813   2.439  0.7614  0.5305 -0.5008
10951TIP3   OH254267   4.956   0.809   6.416  0.1328  0.4861 -0.7057
10951TIP3    H154268   4.961   0.757   6.336  0.8935 -0.9105  0.2194
10951TIP3    H254269   5.008   0.760   6.480  0.7972  2.3278  0.2379
10952TIP3   OH254270   4.295   6.735  14.774  0.3460 -0.5349 -0.3896
10952TIP3    H154271   4.331   6.801  14.834  1.9944 -0.3692 -1.4811
10952TIP3    H254272   4.373   6.694  14.736 -0.6606 -2.3973 -0.5186
10953TIP3   OH254273   0.214   6.561   6.431 -0.5586  0.5008  0.4494
10953TIP3    H154274   0.299   6.582   6.391  0.8122  0.3023  3.0078
10953TIP3    H254275   0.177   6.645   6.456  0.1994  0.4948  1.7033
10954TIP3   OH254276   4.248   4.347  14.696 -0.6551 -0.0451 -0.7290
10954TIP3    H154277   4.250   4.323  14.789 -0.7329  0.1231 -0.6855
10954TIP3    H254278   4.319   4.295  14.658 -0.2784  0.2853 -0.4832
10955TIP3   OH254279   0.830   0.042   0.008 -0.4013  0.6323  0.4625
10955TIP3    H154280   0.888   0.062  -0.066 -1.2810  0.9788 -0.1506
10955TIP3    H254281   0.890   0.020   0.080  0.5213  2.3957  0.2776
10956TIP3   OH254282   2.571   3.382   6.532 -0.0614 -0.2725 -0.6545
10956TIP3    H154283   2.643   3.412   6.477 -1.0057  0.1268 -1.7108
10956TIP3    H254284   2.610   3.370   6.619  0.8624  1.8239 -0.7270
10957TIP3   OH254285   1.375   1.537  11.745  0.5071 -0.1255  0.1024
10957TIP3    H154286   1.325   1.472  11.696 -0.6590 -0.2752  1.4385
10957TIP3    H254287   1.430   1.486  11.805  1.6284  0.0692 -0.7176
10958TIP3   OH254288   1.395   1.601  15.261 -0.1103 -0.0485  0.8090
10958TIP3    H154289   1.322   1.566  15.312  0.4785 -1.3566  0.8050
10958TIP3    H254290   1.398   1.545  15.183  0.2312  0.6733  0.3006
10959TIP3   OH254291   0.232   3.049  16.022 -0.3605  0.1926  0.7599
10959TIP3    H154292   0.222   3.034  16.116 -1.5460  0.0424  0.6291
10959TIP3    H254293   0.152   3.096  15.997 -0.6615 -0.8651 -0.3838
10960TIP3   OH254294   0.817   1.253   6.870  0.6108 -0.8963  0.1617
10960TIP3    H154295   0.798   1.262   6.777  0.8769  0.0936  0.1952
10960TIP3    H254296   0.901   1.297   6.882 -1.2295  2.6410  1.5491
10961TIP3   OH254297   1.467   1.044  16.348  0.5276  0.3676  0.6676
10961TIP3    H154298   1.536   1.013  16.406  2.2427  0.8335 -1.0101
10961TIP3    H254299   1.411   0.967  16.334  0.1529  0.2180  2.7388
10962TIP3   OH254300   6.393   0.969  16.836  0.0259 -0.7512 -0.0846
10962TIP3    H154301   6.417   1.018  16.757 -1.6796  0.3550  0.0538
10962TIP3    H254302   6.478   0.946  16.876  0.9525  2.2203 -0.0673
10963TIP3   OH254303   2.737   4.258  11.826 -0.2170 -0.3590 -0.0158
10963TIP3    H154304   2.827   4.268  11.796 -0.4285  0.7611 -0.3158
10963TIP3    H254305   2.686   4.248  11.745 -0.8800  3.3344 -0.2140
10964TIP3   OH254306   4.765   2.079  12.170  0.0605  0.3609 -0.0179
10964TIP3    H154307   4.758   2.093  12.075 -1.8951 -0.1867  0.0004
10964TIP3    H254308   4.749   2.166  12.208 -2.4985  0.0298 -0.1569
10965TIP3   OH254309   5.163   2.723   3.343 -0.8510  0.1263  0.0336
10965TIP3    H154310   5.251   2.688   3.331 -0.7719 -0.4163  1.8465
10965TIP3    H254311   5.166   2.811   3.308  0.2621 -0.0762 -0.4018
10966TIP3   OH254312   1.330   0.349   1.074 -0.3318 -0.4312 -0.1519
10966TIP3    H154313   1.308   0.365   1.166  0.0653 -0.7965  0.0080
10966TIP3    H254314   1.367   0.260   1.073  0.5952 -0.0564 -0.5032
10967TIP3   OH254315   6.406   0.970   0.705 -0.5288 -0.1291 -0.3382
10967TIP3    H154316   6.432   1.023   0.630 -1.9040  1.3439  0.1592
10967TIP3    H254317   6.360   0.895   0.667 -1.1251  0.5514 -0.9943
10968TIP3   OH254318   1.435   0.953  10.983 -0.1399  0.2903  0.3484
10968TIP3    H154319   1.418   0.979  10.892  1.9429  0.0732 -0.1508
10968TIP3    H254320   1.516   0.999  11.006  0.5742 -1.3881  1.3368
10969TIP3   OH254321   0.527   2.711   5.675  0.0255  0.1608  0.4275
10969TIP3    H154322   0.470   2.687   5.749 -1.2039 -2.5416 -1.2387
10969TIP3    H254323   0.466   2.736   5.606  0.9798 -0.5153 -0.6811
10970TIP3   OH254324   2.799   5.572  17.253 -0.7678  0.0992 -0.4187
10970TIP3    H154325   2.825   5.482  17.235  0.4555  0.3827 -0.1284
10970TIP3    H254326   2.704   5.568  17.263 -0.5512 -1.5710  1.7363
10971TIP3   OH254327   4.805   6.035  12.233  0.2021 -0.1575 -0.0746
10971TIP3    H154328   4.803   5.940  12.220  0.5874 -0.0416 -0.9995
10971TIP3    H254329   4.718   6.056  12.267  0.3372 -0.9273  0.8000
10972TIP3   OH254330   0.024   1.621   5.209  0.0346 -0.4244 -0.3085
10972TIP3    H154331   0.022   1.714   5.229 -0.4826 -0.3030 -0.8990
10972TIP3    H254332  -0.039   1.582   5.270  0.1949 -0.3724 -0.1125
10973TIP3   OH254333   1.728   2.398   5.533  0.1039 -0.2210  0.3246
10973TIP3    H154334   1.782   2.448   5.472 -1.2930 -1.0959 -1.7823
10973TIP3    H254335   1.789   2.363   5.597  1.7491  0.3989 -0.8406
10974TIP3   OH254336   1.972   5.731   5.865  0.2820  0.2220  0.1465
10974TIP3    H154337   2.015   5.670   5.924 -1.2409 -2.3349 -1.2219
10974TIP3    H254338   1.879   5.725   5.887  0.0041  1.4380 -0.5689
10975TIP3   OH254339   6.703   0.195  10.647 -0.5466 -0.0093 -1.2463
10975TIP3    H154340   6.621   0.244  10.655  1.3127  3.2318  0.4851
10975TIP3    H254341   6.752   0.242  10.579  1.2146  0.4522  0.2650
10976TIP3   OH254342   0.055   4.432  15.111  0.6215 -0.2539  0.0287
10976TIP3    H154343  -0.037   4.443  15.134  1.1752  2.3326  1.3354
10976TIP3    H254344   0.098   4.413  15.194  1.3708 -0.8216 -0.4735
10977TIP3   OH254345   2.402   6.265  14.419  0.0714  0.2428  0.0279
10977TIP3    H154346   2.386   6.339  14.477  1.2981  1.8629 -1.5847
10977TIP3    H254347   2.351   6.284  14.341 -2.2710 -2.3425  0.7363
10978TIP3   OH254348   6.588   5.877  14.881  0.3302 -0.2308 -0.2062
10978TIP3    H154349   6.511   5.933  14.893  0.4961 -0.3180  1.4655
10978TIP3    H254350   6.634   5.882  14.964  1.9111 -0.5505 -1.0287
10979TIP3   OH254351   0.322   4.519  13.494 -0.1699  0.2670 -0.3306
10979TIP3    H154352   0.311   4.554  13.405 -1.4621 -0.3048 -0.4272
10979TIP3    H254353   0.409   4.480  13.494  0.2003  1.0592 -1.0655
10980TIP3   OH254354   3.920   2.309   5.597  0.5300  0.2904  0.0460
10980TIP3    H154355   3.905   2.231   5.543  3.6025 -0.1925 -0.3192
10980TIP3    H254356   3.882   2.287   5.682  1.9409 -1.9752  0.1868
10981TIP3   OH254357   5.826   5.454   4.261 -0.7223 -0.7617 -0.6234
10981TIP3    H154358   5.922   5.456   4.257 -0.7258  0.2457 -0.5627
10981TIP3    H254359   5.805   5.374   4.308  0.1065 -0.8078 -0.3151
10982TIP3   OH254360   3.361   2.440   2.763 -0.0425  0.2670  0.1301
10982TIP3    H154361   3.355   2.408   2.853 -0.5579  0.8322  0.3046
10982TIP3    H254362   3.451   2.420   2.737  0.0194 -0.1851  0.6606
10983TIP3   OH254363   6.415   2.589  14.687 -0.2764  0.0501 -0.1343
10983TIP3    H154364   6.373   2.519  14.638 -1.6423 -0.0200  1.0707
10983TIP3    H254365   6.478   2.627  14.626  0.3542 -2.0665 -0.8919
10984TIP3   OH254366   1.195   1.258   2.803  0.4142 -0.4305  0.5790
10984TIP3    H154367   1.195   1.162   2.801  0.8100 -0.4750  1.8960
10984TIP3    H254368   1.147   1.280   2.883 -0.5154  0.5033 -0.2058
10985TIP3   OH254369   0.779   4.023  11.823 -0.4691  0.3221 -0.0858
10985TIP3    H154370   0.871   4.011  11.801 -0.5315 -1.0479  0.3134
10985TIP3    H254371   0.777   4.104  11.874  0.1049  1.8414 -2.3119
10986TIP3   OH254372   2.722   6.286   5.528  0.2878  0.1084 -0.0271
10986TIP3    H154373   2.681   6.367   5.498 -0.8211 -0.4963 -0.2023
10986TIP3    H254374   2.649   6.229   5.550  1.0208 -1.0926 -0.5816
10987TIP3   OH254375   4.488   4.187   6.464 -0.1728 -0.6811  0.5756
10987TIP3    H154376   4.432   4.263   6.452  1.1806  0.0608 -1.8639
10987TIP3    H254377   4.431   4.112   6.447 -0.8332 -0.0300 -0.1634
10988TIP3   OH254378   2.456   0.778   1.058 -0.4760  0.5058  0.2458
10988TIP3    H154379   2.498   0.815   0.980 -1.2577 -1.6331 -1.2884
10988TIP3    H254380   2.511   0.807   1.131  3.7368 -2.0456 -1.5735
10989TIP3   OH254381   1.106   0.141  10.751 -0.2132 -0.1367 -1.0764
10989TIP3    H154382   1.195   0.173  10.739  0.2623 -0.8052  0.4063
10989TIP3    H254383   1.097   0.069  10.689  1.3131 -1.9545  0.6840
10990TIP3   OH254384   0.504   5.339  15.433  0.4138  0.2467 -0.2964
10990TIP3    H154385   0.593   5.326  15.463  0.5815  0.8375 -0.5232
10990TIP3    H254386   0.503   5.427  15.396 -0.2878  0.2921 -0.1996
10991TIP3   OH254387   2.838   1.198   2.389 -0.4476  0.4072  0.1313
10991TIP3    H154388   2.857   1.177   2.297 -1.5823  1.7457 -0.4386
10991TIP3    H254389   2.828   1.112   2.431  0.1807 -0.2288 -0.9620
10992TIP3   OH254390   0.869   5.576   5.097 -0.3967  0.0065 -0.3671
10992TIP3    H154391   0.840   5.521   5.023 -0.6045  0.5785 -0.7206
10992TIP3    H254392   0.908   5.515   5.159 -1.0299 -0.6028 -0.5553
10993TIP3   OH254393   3.336   1.766  14.515 -0.2825  0.4866  0.1333
10993TIP3    H154394   3.360   1.793  14.426 -0.1199 -0.7842 -0.2387
10993TIP3    H254395   3.413   1.787  14.568 -0.1572  0.7265 -0.1378
10994TIP3   OH254396   3.052   6.147  12.072 -0.1904 -0.7559  0.4274
10994TIP3    H154397   3.038   6.233  12.034  0.2927 -1.5174 -1.6090
10994TIP3    H254398   2.968   6.101  12.061  0.1410 -1.1992 -0.4329
10995TIP3   OH254399   0.221   6.384  12.903 -0.0116 -0.3053 -0.3358
10995TIP3    H154400   0.174   6.425  12.831  0.5086 -1.0414 -1.1144
10995TIP3    H254401   0.314   6.398  12.883  0.1509 -1.0625 -0.1431
10996TIP3   OH254402   4.786   5.356   6.019 -0.0039  0.6674 -0.4267
10996TIP3    H154403   4.703   5.343   6.065  1.0441  1.1298  1.7638
10996TIP3    H254404   4.823   5.268   6.011 -1.0213  0.3600 -2.1501
10997TIP3   OH254405   3.420   5.545   5.617 -0.3265  0.2527 -0.3586
10997TIP3    H154406   3.462   5.488   5.681 -1.7206  1.4196  1.7119
10997TIP3    H254407   3.400   5.488   5.543  2.9593 -0.7859 -0.6164
10998TIP3   OH254408   2.244   1.137   1.468 -0.5444 -0.6641 -0.0410
10998TIP3    H154409   2.247   1.107   1.378  1.8750 -2.1625  0.4353
10998TIP3    H254410   2.205   1.064   1.516 -1.0431 -0.2104  0.2595
10999TIP3   OH254411   4.851   6.345  17.100 -0.2161  0.1756 -0.2299
10999TIP3    H154412   4.903   6.377  17.174 -0.0357 -1.1958  0.2773
10999TIP3    H254413   4.902   6.370  17.023  1.7116 -1.7842  0.2659
11000TIP3   OH254414   1.943   0.906   6.233 -0.6126  0.7416 -0.2869
11000TIP3    H154415   1.978   0.920   6.321  1.7924 -0.2085 -1.0060
11000TIP3    H254416   1.912   0.815   6.234  0.2130  0.4417 -0.6205
11001TIP3   OH254417   2.473   4.962  10.597  0.2514  0.4039 -0.3216
11001TIP3    H154418   2.465   4.914  10.680  0.5588 -0.4587 -0.7863
11001TIP3    H254419   2.426   5.044  10.613  1.4323  0.8543  1.1582
11002TIP3   OH254420   1.942   4.832  16.018  0.4855  0.0446 -0.4259
11002TIP3    H154421   2.015   4.857  15.961  0.1619  0.3434 -0.7179
11002TIP3    H254422   1.903   4.756  15.975  0.4301  0.0804 -0.4387
11003TIP3   OH254423   6.647   5.581  13.853 -0.2348 -0.0490 -0.2978
11003TIP3    H154424   6.688   5.650  13.904 -1.6109  1.2837 -0.8895
11003TIP3    H254425   6.606   5.524  13.917 -0.3109  0.5111  0.1574
11004TIP3   OH254426   1.713   4.192  10.850 -0.2475  0.0393 -0.0970
11004TIP3    H154427   1.734   4.172  10.941 -0.2272  0.5845  0.0218
11004TIP3    H254428   1.621   4.217  10.851 -0.5330 -0.9480 -0.3929
11005TIP3   OH254429   3.226   5.412  13.795 -0.8028 -0.4494  0.2090
11005TIP3    H154430   3.150   5.369  13.834 -1.2197  0.0381 -0.0582
11005TIP3    H254431   3.281   5.340  13.765 -1.7212 -0.8011 -0.6796
11006TIP3   OH254432   3.281   5.773   5.684  0.6496 -0.0261 -0.2233
11006TIP3    H154433   3.255   5.809   5.599 -0.2977  0.7793  0.3812
11006TIP3    H254434   3.300   5.681   5.666 -0.3046 -0.0564 -1.1789
11007TIP3   OH254435   5.163   0.017  13.728 -0.0828 -0.3620  0.5579
11007TIP3    H154436   5.234   0.060  13.776  0.1878  0.8791 -0.8579
11007TIP3    H254437   5.122  -0.041  13.792  0.7510  0.6075  2.0411
11008TIP3   OH254438   2.960   1.642  16.038  0.5544 -0.5062 -0.3515
11008TIP3    H154439   2.949   1.653  15.943  3.0256 -2.9088 -1.0476
11008TIP3    H254440   2.893   1.577  16.062  0.8256 -0.9372 -0.7434
11009TIP3   OH254441   0.117   2.866  15.709 -0.9084  0.3645 -0.4148
11009TIP3    H154442   0.199   2.910  15.730 -0.5975 -0.4842  0.1679
11009TIP3    H254443   0.058   2.888  15.781 -0.3528 -1.1923  0.5610
11010TIP3   OH254444   2.215   2.808  13.542  0.2993 -1.2300 -0.3290
11010TIP3    H154445   2.293   2.853  13.508 -0.4504  0.4455  0.0620
11010TIP3    H254446   2.234   2.715  13.531  1.0039 -0.8315 -3.3127
11011TIP3   OH254447   0.790   5.495   2.296 -0.0154 -0.1520 -0.6922
11011TIP3    H154448   0.849   5.570   2.301 -1.7647  1.2921 -0.5464
11011TIP3    H254449   0.720   5.516   2.358 -0.9341 -1.5614 -1.2122
11012TIP3   OH254450   0.609   1.598   5.663 -0.3264  0.4074  0.1470
11012TIP3    H154451   0.553   1.578   5.738  1.0873  0.0125  1.1220
11012TIP3    H254452   0.647   1.513   5.638  1.1909  0.9222  0.6189
11013TIP3   OH254453   1.163   5.137  15.420 -0.1167 -0.8097 -0.1785
11013TIP3    H154454   1.081   5.181  15.444 -0.8124 -2.1592  0.0246
11013TIP3    H254455   1.149   5.110  15.329  1.0754  1.0505 -0.9736
11014TIP3   OH254456   4.454   4.019  15.905  0.1342  0.2062 -0.3423
11014TIP3    H154457   4.535   4.019  15.853  1.4619  0.9085  1.6242
11014TIP3    H254458   4.386   4.045  15.843  1.0324 -2.1153 -2.5176
11015TIP3   OH254459   3.653   3.419  11.047  0.1865  0.2086  0.3219
11015TIP3    H154460   3.665   3.380  10.960 -2.3559 -0.9648  0.3923
11015TIP3    H254461   3.655   3.513  11.032 -0.7181  0.0286 -1.1270
11016TIP3   OH254462   5.536   4.751   1.879 -0.8694 -0.1865 -0.5690
11016TIP3    H154463   5.628   4.725   1.888 -0.3737  1.4510 -0.6688
11016TIP3    H254464   5.516   4.739   1.787 -0.4467  0.4112 -0.7409
11017TIP3   OH254465   5.599   4.707  15.917  0.4606  0.1925 -0.3856
11017TIP3    H154466   5.561   4.691  15.830 -1.2832 -1.0107  0.5350
11017TIP3    H254467   5.628   4.621  15.947 -0.6005  0.2654  0.9308
11018TIP3   OH254468   0.799   4.834   5.472 -0.0988  0.3558 -0.1693
11018TIP3    H154469   0.825   4.803   5.559 -0.9972  1.1268  0.3853
11018TIP3    H254470   0.743   4.765   5.438  0.4889 -0.0839 -0.2691
11019TIP3   OH254471   2.048   4.291   1.972  0.3591  0.5499 -0.0561
11019TIP3    H154472   2.105   4.268   2.045 -1.1773 -0.1484  0.9545
11019TIP3    H254473   2.036   4.209   1.924 -1.7591  0.0974  1.1622
11020TIP3   OH254474   5.273   4.728   2.858  0.1181 -0.0462 -0.1354
11020TIP3    H154475   5.251   4.636   2.872 -0.6879  0.1947  0.1872
11020TIP3    H254476   5.198   4.764   2.811 -0.2510  0.8023  1.0592
11021TIP3   OH254477   6.688   3.937  12.417 -0.1485 -0.0655 -0.4387
11021TIP3    H154478   6.676   3.849  12.452  0.7848 -0.2336 -0.5194
11021TIP3    H254479   6.708   3.923  12.324  1.7419  0.1089 -0.0865
11022TIP3   OH254480   4.613   4.051   4.334  0.1693 -1.4234 -0.3166
11022TIP3    H154481   4.576   3.994   4.401 -1.5351 -1.2356 -1.0497
11022TIP3    H254482   4.540   4.107   4.307  1.0723 -0.8343 -1.6366
11023TIP3   OH254483   3.954   6.057  14.229 -0.6154  0.5834  0.0880
11023TIP3    H154484   3.869   6.021  14.256 -1.1377  1.0073 -0.9316
11023TIP3    H254485   3.974   6.012  14.147  1.3268 -1.2634  1.4556
11024TIP3   OH254486   4.413   4.746  15.240  0.1627  0.4320 -0.3786
11024TIP3    H154487   4.367   4.664  15.221  1.4118 -0.0097 -1.7063
11024TIP3    H254488   4.347   4.801  15.282 -0.4206 -1.6082  1.5659
11025TIP3   OH254489   2.728   4.312  11.410  0.5650 -0.3009 -0.1648
11025TIP3    H154490   2.819   4.296  11.386  0.0727 -1.6848 -1.2655
11025TIP3    H254491   2.677   4.267  11.342 -0.9267 -2.4376  2.1976
11026TIP3   OH254492   0.599   0.209  15.884 -0.6831 -0.0988  0.4196
11026TIP3    H154493   0.587   0.116  15.902 -0.2071 -0.1436  0.5213
11026TIP3    H254494   0.682   0.213  15.835 -0.7524  0.2603  0.3309
11027TIP3   OH254495   0.328   4.165  15.052  0.0312  0.3596  0.9087
11027TIP3    H154496   0.398   4.221  15.085  2.7592 -1.9935 -0.4601
11027TIP3    H254497   0.354   4.077  15.078 -0.7705 -0.9331 -2.2764
11028TIP3   OH254498   1.207   3.759   3.624  0.0342  0.9896  0.3465
11028TIP3    H154499   1.263   3.700   3.673 -2.1073 -1.1740  0.3560
11028TIP3    H254500   1.231   3.744   3.532 -0.6717 -0.1688  0.3275
11029TIP3   OH254501   5.287   0.853  11.390  0.0779 -0.3482  0.3525
11029TIP3    H154502   5.252   0.802  11.317 -1.9406 -0.3773  1.2989
11029TIP3    H254503   5.247   0.816  11.468  1.1676  0.5482  1.3816
11030TIP3   OH254504   3.597   5.208  13.020  0.1118  0.1264  0.1429
11030TIP3    H154505   3.686   5.233  13.045  0.0284  1.0662 -0.4398
11030TIP3    H254506   3.584   5.122  13.060  1.9407 -0.8650 -1.2218
11031TIP3   OH254507   1.218   5.043  12.993 -0.6877  0.1288 -0.2619
11031TIP3    H154508   1.230   4.953  13.022  0.0041  0.3621  0.1776
11031TIP3    H254509   1.206   5.036  12.898  2.4319 -0.1933 -0.7263
11032TIP3   OH254510   0.212   2.427  16.416  0.1876 -0.2652 -0.1728
11032TIP3    H154511   0.233   2.374  16.493  0.5417 -0.9734 -0.7514
11032TIP3    H254512   0.294   2.473  16.396 -0.5553  1.9357  1.3889
11033TIP3   OH254513   6.454   2.837   0.349  0.2124  0.0071 -0.1440
11033TIP3    H154514   6.527   2.872   0.299  0.3664 -1.1865 -0.8008
11033TIP3    H254515   6.487   2.828   0.439  0.7814 -0.2409 -0.3751
11034TIP3   OH254516   5.670   4.652   2.515  0.3254 -0.5993  0.2960
11034TIP3    H154517   5.655   4.624   2.605 -1.8105 -1.4820 -0.2721
11034TIP3    H254518   5.615   4.729   2.504 -1.2961 -1.8295 -0.8463
11035TIP3   OH254519   2.855   3.165   0.519 -0.1645  0.0895 -0.4163
11035TIP3    H154520   2.850   3.070   0.514 -0.2806  0.1592 -2.1487
11035TIP3    H254521   2.920   3.189   0.453  2.4918  1.0386  2.2726
11036TIP3   OH254522   2.679   1.839  13.507  0.1272  0.5713  0.0931
11036TIP3    H154523   2.679   1.916  13.450  0.8365  0.7955  0.3969
11036TIP3    H254524   2.589   1.835  13.541  0.3546  1.8714  0.8949
11037TIP3   OH254525   6.209   3.573  11.390  0.7627  0.3102  0.2218
11037TIP3    H154526   6.294   3.583  11.348  1.0611 -0.6422  0.5848
11037TIP3    H254527   6.156   3.644  11.353  1.2389 -0.0482 -1.1965
11038TIP3   OH254528   3.520   3.711   4.577 -0.0971 -0.5605  0.1881
11038TIP3    H154529   3.598   3.694   4.525 -0.7381  1.2761 -1.4709
11038TIP3    H254530   3.447   3.686   4.520 -0.7927 -2.4841  1.7932
11039TIP3   OH254531   3.475   1.169  16.650 -0.3323  0.5589 -0.4820
11039TIP3    H154532   3.560   1.200  16.619 -0.6255 -0.0704 -2.0079
11039TIP3    H254533   3.495   1.090  16.701  0.0210  0.5441 -0.6439
11040TIP3   OH254534   0.880   0.371   2.224 -0.3873  0.1646  0.4843
11040TIP3    H154535   0.877   0.394   2.317 -0.6139 -0.9901  0.7868
11040TIP3    H254536   0.795   0.329   2.207  0.0900 -0.6383  0.0415
11041TIP3   OH254537   4.277   0.069   6.394  0.3120  0.4238  0.4681
11041TIP3    H154538   4.299   0.112   6.477  0.8143 -0.2301  0.6811
11041TIP3    H254539   4.192   0.028   6.409  0.1273  0.8052  0.4668
11042TIP3   OH254540   1.086   1.389  15.956  0.1461 -0.1510  0.1363
11042TIP3    H154541   1.042   1.347  16.030 -0.7278  1.2590  0.4653
11042TIP3    H254542   1.162   1.333  15.938 -0.7548 -1.6391  0.7617
11043TIP3   OH254543   2.851   2.049  11.788 -0.4137  0.6331 -0.0358
11043TIP3    H154544   2.859   1.986  11.717  1.3432 -0.0462  0.6865
11043TIP3    H254545   2.925   2.108  11.776  0.0185  0.4007  1.2951
11044TIP3   OH254546   6.469   0.702  16.470  0.0306 -0.6256  0.6290
11044TIP3    H154547   6.430   0.681  16.384  0.9859  1.3906 -0.3650
11044TIP3    H254548   6.545   0.645  16.476 -0.4533 -1.3012  0.4872
11045TIP3   OH254549   5.939   1.369  11.299 -0.2133 -0.3955 -0.5270
11045TIP3    H154550   5.847   1.394  11.298 -0.6458 -1.8498 -2.0646
11045TIP3    H254551   5.986   1.450  11.321 -1.8368  0.3387  0.4219
11046TIP3   OH254552   2.667   4.909  15.247 -0.5347 -0.4508 -0.7390
11046TIP3    H154553   2.584   4.862  15.252 -1.1351  0.1930 -3.1506
11046TIP3    H254554   2.723   4.852  15.193 -0.3673  0.3386 -1.4195
11047TIP3   OH254555   3.351   4.587   5.450 -0.3929 -0.8891 -0.4988
11047TIP3    H154556   3.287   4.530   5.493  0.1357 -0.3821  1.0144
11047TIP3    H254557   3.343   4.671   5.496  0.0737 -0.2648 -1.5267
11048TIP3   OH254558   6.746   6.383   3.633  0.1616 -0.1294  0.6100
11048TIP3    H154559   6.796   6.446   3.684 -1.0589  0.0683  1.6011
11048TIP3    H254560   6.764   6.299   3.674 -0.8051  0.0272  1.3978
11049TIP3   OH254561   6.089   4.475   0.007 -0.3871  0.1031 -0.8060
11049TIP3    H154562   6.131   4.535   0.068 -1.0236  1.3598 -1.5778
11049TIP3    H254563   6.124   4.500  -0.079 -1.5610  0.1706 -1.2798
11050TIP3   OH254564   5.352   6.399  16.278  0.2954 -0.7688  0.0288
11050TIP3    H154565   5.326   6.388  16.186 -1.2198 -1.6492  0.5115
11050TIP3    H254566   5.275   6.371  16.327 -0.1573  2.7588  1.6003
11051TIP3   OH254567   4.557   5.002  16.876  0.5504  0.1635  0.3362
11051TIP3    H154568   4.495   5.054  16.927  0.5018 -0.4298  0.8790
11051TIP3    H254569   4.505   4.963  16.807  0.8712  2.2340 -1.1858
11052TIP3   OH254570   1.624   0.910   5.062 -0.4918  0.1051  0.2677
11052TIP3    H154571   1.636   0.999   5.030  0.5768 -0.5884 -1.4203
11052TIP3    H254572   1.685   0.857   5.011 -0.3972 -1.4755  1.8903
11053TIP3   OH254573   1.667   4.283   5.568 -0.0103 -0.1073  0.8034
11053TIP3    H154574   1.742   4.333   5.535 -0.4084  0.3212  0.5290
11053TIP3    H254575   1.638   4.230   5.494  0.3909 -0.7322  1.0852
11054TIP3   OH254576   1.610   6.539  12.691 -0.6372  0.2290  0.0791
11054TIP3    H154577   1.585   6.627  12.720  0.0559  1.0190 -1.6328
11054TIP3    H254578   1.653   6.553  12.607  1.4088 -1.5428  0.7612
11055TIP3   OH254579   1.689   5.281   0.106  0.1601  0.8702 -0.3465
11055TIP3    H154580   1.743   5.220   0.056 -0.1809  0.7706 -0.5900
11055TIP3    H254581   1.727   5.279   0.194 -0.7976 -0.8758  0.0725
11056TIP3   OH254582   6.517   4.842   1.345  0.4003  0.3624  0.0930
11056TIP3    H154583   6.548   4.911   1.404  1.1795  2.9589 -3.0599
11056TIP3    H254584   6.433   4.875   1.312 -0.7864 -1.7535  0.8278
11057TIP3   OH254585   3.067   5.790   3.539  0.5053  0.0253 -0.1192
11057TIP3    H154586   3.152   5.746   3.547  0.9231  0.8265 -0.0296
11057TIP3    H254587   3.005   5.731   3.581  1.0841 -0.4044  0.1358
11058TIP3   OH254588   6.754   0.494   3.013 -0.7277  0.1408  0.5444
11058TIP3    H154589   6.742   0.498   3.108 -1.2317  0.5356  0.4731
11058TIP3    H254590   6.686   0.434   2.983 -1.0662  0.6053  0.3630
11059TIP3   OH254591   2.497   3.687  15.137  0.0405  0.1157 -0.0606
11059TIP3    H154592   2.489   3.592  15.140 -2.8715  0.1773 -1.8205
11059TIP3    H254593   2.467   3.716  15.223 -0.4043 -0.5382  0.0120
11060TIP3   OH254594   4.794   5.937  14.712  0.7653  0.4571  0.1838
11060TIP3    H154595   4.796   5.990  14.632  1.8076 -0.7806 -0.6512
11060TIP3    H254596   4.851   5.984  14.773  1.6122  0.3546 -0.5121
11061TIP3   OH254597   0.253   2.755   0.887  0.0414  0.3001  0.0155
11061TIP3    H154598   0.170   2.709   0.880  1.5969 -2.5065 -1.9467
11061TIP3    H254599   0.274   2.753   0.981  0.0257 -3.2820  0.0783
11062TIP3   OH254600   5.784   2.870  14.419  0.4507  0.8755  0.2759
11062TIP3    H154601   5.832   2.847  14.340 -0.2796  0.0479  0.0622
11062TIP3    H254602   5.707   2.918  14.388 -0.1123  0.0893  0.4407
11063TIP3   OH254603   0.679   5.489  17.210  0.1204  0.2058  0.3067
11063TIP3    H154604   0.633   5.571  17.193 -0.0558  0.8900  3.4313
11063TIP3    H254605   0.769   5.515  17.228  0.3284 -0.4267  0.2103
11064TIP3   OH254606   0.563   2.910  13.089 -0.2481 -0.5088  0.4400
11064TIP3    H154607   0.568   2.879  12.998 -3.0981 -2.3739  0.7689
11064TIP3    H254608   0.513   2.991  13.084  0.4649 -0.0705  0.2809
11065TIP3   OH254609   0.508   0.163   5.346  0.4565 -0.0233 -0.0805
11065TIP3    H154610   0.435   0.176   5.406  0.8593  1.2088  0.1875
11065TIP3    H254611   0.487   0.218   5.271  0.8098 -0.1313 -0.2601
11066TIP3   OH254612   0.604   2.631  15.542  0.0162  0.0367 -0.4843
11066TIP3    H154613   0.636   2.554  15.590 -1.0020 -0.1094 -0.0061
11066TIP3    H254614   0.609   2.702  15.606  0.1100  0.1693 -0.6422
11067TIP3   OH254615   5.688   1.295   3.640  0.0587  0.3260  0.0643
11067TIP3    H154616   5.673   1.275   3.732  0.7245  0.9226  0.3164
11067TIP3    H254617   5.777   1.330   3.637 -0.9324  3.1257 -0.3193
11068TIP3   OH254618   2.203   0.940   4.892  0.4171  0.5537 -0.6256
11068TIP3    H154619   2.247   0.856   4.904  2.5042  1.3238 -2.1535
11068TIP3    H254620   2.127   0.920   4.837  0.8417 -0.3605 -0.8992
11069TIP3   OH254621   5.816   3.656   3.494  0.4193  0.0715 -0.3194
11069TIP3    H154622   5.819   3.635   3.401 -0.3812  0.0792 -0.3516
11069TIP3    H254623   5.809   3.751   3.497 -0.7824 -0.0032 -0.2901
11070TIP3   OH254624   1.188   1.418  15.374 -0.1380 -0.0293 -0.2415
11070TIP3    H154625   1.275   1.383  15.394  0.7282  1.9303 -0.2570
11070TIP3    H254626   1.155   1.448  15.458  0.4768  1.8090 -0.5987
11071TIP3   OH254627   6.750   1.876   4.812  0.4875 -0.2102 -0.0811
11071TIP3    H154628   6.815   1.900   4.878 -1.2390  0.5862  1.4221
11071TIP3    H254629   6.785   1.911   4.730  2.5708 -0.9921  0.3905
11072TIP3   OH254630   5.147   0.912  13.793 -0.1526  0.0865  0.0816
11072TIP3    H154631   5.237   0.921  13.826 -0.6184 -0.0479  1.4381
11072TIP3    H254632   5.155   0.925  13.698  1.6357 -2.2249 -0.1717
11073TIP3   OH254633   3.448   0.758  12.763 -0.1150 -0.4484 -0.3444
11073TIP3    H154634   3.454   0.753  12.668  0.6155 -0.5264 -0.3008
11073TIP3    H254635   3.516   0.698  12.794  3.5502  3.5334  0.2235
11074TIP3   OH254636   2.147   3.282   6.524  0.1462 -0.4110 -0.5162
11074TIP3    H154637   2.125   3.279   6.617 -1.7016 -1.5943 -0.9267
11074TIP3    H254638   2.102   3.360   6.492 -1.7458 -1.6009 -0.9228
11075TIP3   OH254639   3.459   1.597   1.080 -0.1083 -0.3684 -0.0802
11075TIP3    H154640   3.445   1.590   1.174 -0.3410 -0.4173 -0.1169
11075TIP3    H254641   3.442   1.689   1.059 -2.1388 -0.7733 -0.3960
11076TIP3   OH254642   5.188   6.614  11.520 -0.5064 -0.0715  0.1355
11076TIP3    H154643   5.233   6.636  11.602  0.0441  0.1194 -0.2116
11076TIP3    H254644   5.101   6.586  11.547 -0.6145  0.7902  0.7393
11077TIP3   OH254645   5.327   3.499  13.899  0.1233  0.2062  0.1900
11077TIP3    H154646   5.274   3.450  13.836 -1.4840  0.1911  1.4748
11077TIP3    H254647   5.368   3.568  13.847 -1.1924  0.2335 -0.8689
11078TIP3   OH254648   1.646   1.392   0.384 -0.1152 -0.0693 -0.8638
11078TIP3    H154649   1.690   1.472   0.354 -1.4149  1.0271  0.0195
11078TIP3    H254650   1.674   1.382   0.475 -1.3539  0.4425 -0.4012
11079TIP3   OH254651   5.657   0.313   3.122 -0.0583 -0.1811  0.1647
11079TIP3    H154652   5.710   0.278   3.194  0.3342  0.7692  0.3665
11079TIP3    H254653   5.676   0.257   3.048  0.0815 -0.7505  0.6259
11080TIP3   OH254654   0.535   4.192   5.134 -0.4054 -0.0824  0.2545
11080TIP3    H154655   0.476   4.264   5.112  0.7047  0.9819  0.6483
11080TIP3    H254656   0.496   4.151   5.211 -1.0671  0.0662  0.0045
11081TIP3   OH254657   1.325   1.440   0.726  0.3200 -0.0639 -0.3618
11081TIP3    H154658   1.410   1.454   0.767  1.1479  0.4585 -2.1543
11081TIP3    H254659   1.340   1.455   0.633 -1.7384  0.0168 -0.7372
11082TIP3   OH254660   4.965   1.576   2.652  0.3119  0.6111  0.2186
11082TIP3    H154661   5.046   1.550   2.696  0.8231  1.0317 -0.4631
11082TIP3    H254662   4.965   1.671   2.655 -0.8931  0.6021  1.5131
11083TIP3   OH254663   3.324   5.253   6.615  0.1759 -0.0409 -0.1418
11083TIP3    H154664   3.342   5.331   6.563 -1.1872 -0.6650 -1.6133
11083TIP3    H254665   3.229   5.241   6.608  0.2671 -1.4040  0.6993
11084TIP3   OH254666   3.486   0.942   4.228 -0.0004  0.2784 -0.0511
11084TIP3    H154667   3.410   0.884   4.238 -0.2125  0.5545 -0.0522
11084TIP3    H254668   3.473   1.009   4.296 -0.2380  0.8506 -0.6521
11085TIP3   OH254669   0.971   2.971  14.124 -0.2180 -0.5017 -0.2199
11085TIP3    H154670   0.906   2.900  14.130  0.6091 -1.2308  0.2996
11085TIP3    H254671   0.996   2.988  14.215  1.1930 -1.0587 -0.4900
11086TIP3   OH254672   1.631   6.582   6.377  0.0071 -0.1117  0.2158
11086TIP3    H154673   1.559   6.558   6.436  0.6220 -1.3231  0.5177
11086TIP3    H254674   1.601   6.556   6.290  0.2232 -0.9694  0.3929
11087TIP3   OH254675   6.181   3.432  16.168  0.0082  0.0409  0.3808
11087TIP3    H154676   6.218   3.520  16.164 -0.3183  0.3365  2.4656
11087TIP3    H254677   6.239   3.379  16.113  0.9103  1.3244  0.0389
11088TIP3   OH254678   6.447   0.409  12.340  0.0732  0.1386 -0.1596
11088TIP3    H154679   6.524   0.412  12.284 -0.5929 -0.8630 -1.1858
11088TIP3    H254680   6.471   0.350  12.412  0.2903 -0.1135 -0.4390
11089TIP3   OH254681   2.375   1.265  17.224  1.2497 -0.2841  0.2928
11089TIP3    H154682   2.420   1.204  17.165  0.2570 -1.1981  0.4436
11089TIP3    H254683   2.433   1.273  17.299  0.6301 -2.5141  1.0974
11090TIP3   OH254684   5.100   3.508  13.428 -0.5007  0.1760 -0.0357
11090TIP3    H154685   5.062   3.595  13.423 -2.5242 -0.6337  0.2546
11090TIP3    H254686   5.065   3.471  13.509  0.8296 -0.6984  0.1801
11091TIP3   OH254687   0.316   3.297  12.399  0.0645  0.3872 -0.6014
11091TIP3    H154688   0.238   3.242  12.387  0.9520 -0.8438 -0.8450
11091TIP3    H254689   0.344   3.320  12.311  0.4194  0.1987 -0.5388
11092TIP3   OH254690   2.372   3.935   3.342  0.2054  0.4804 -0.2252
11092TIP3    H154691   2.325   4.013   3.371  1.7750  1.8885 -1.2497
11092TIP3    H254692   2.337   3.917   3.254 -0.8875 -0.6406  0.4107
11093TIP3   OH254693   3.857   2.517  12.248  0.2569  0.3811  0.1444
11093TIP3    H154694   3.862   2.454  12.319 -1.0681 -0.2720 -0.3126
11093TIP3    H254695   3.941   2.563  12.250  0.9619 -0.9045  0.9366
11094TIP3   OH254696   1.671   5.313   2.560  0.3489 -0.4131 -0.3781
11094TIP3    H154697   1.605   5.354   2.505 -0.1700  0.7586  1.0705
11094TIP3    H254698   1.709   5.384   2.611 -1.2394 -1.7321  2.9118
11095TIP3   OH254699   6.662   2.198   4.354  0.6719 -0.1543  0.0434
11095TIP3    H154700   6.680   2.235   4.268 -0.0745 -0.3303 -0.2046
11095TIP3    H254701   6.575   2.158   4.344  0.4018  0.1752  0.9874
11096TIP3   OH254702   0.035   1.882  16.261 -0.1968  0.3894  0.0542
11096TIP3    H154703  -0.015   1.927  16.193 -0.6421 -0.1886 -0.0165
11096TIP3    H254704   0.092   1.823  16.212 -2.2672 -1.8752  0.1583
11097TIP3   OH254705   0.468   4.945   4.710  0.3816  0.5235 -0.1198
11097TIP3    H154706   0.509   5.022   4.749 -0.6811  0.3514  1.4262
11097TIP3    H254707   0.447   4.889   4.784  0.4899 -0.9445 -1.1595
11098TIP3   OH254708   1.088   0.078  11.288 -0.0367 -0.1220  0.2528
11098TIP3    H154709   1.057   0.112  11.371 -1.1279 -0.0162 -0.1749
11098TIP3    H254710   1.163   0.133  11.265 -0.2670  0.4063  0.7515
11099TIP3   OH254711   3.659   3.119  12.525 -0.6492  0.1962 -0.7043
11099TIP3    H154712   3.579   3.076  12.553 -0.9778  0.5438 -1.1091
11099TIP3    H254713   3.633   3.209  12.504  0.0131  0.5922  0.0766
11100TIP3   OH254714   4.662   0.412  14.768  0.1586 -0.2454  1.0172
11100TIP3    H154715   4.597   0.400  14.837  0.3502 -2.2581  0.8954
11100TIP3    H254716   4.746   0.408  14.814  0.2978 -1.9069  0.6833
11101TIP3   OH254717   1.078   6.434  11.620 -0.1791 -0.0910 -0.6162
11101TIP3    H154718   1.081   6.461  11.528  0.7644 -0.5530 -0.7272
11101TIP3    H254719   1.003   6.374  11.625 -0.5450  0.3258 -0.9672
11102TIP3   OH254720   0.417   5.126   3.944  0.0281 -0.1314 -0.1885
11102TIP3    H154721   0.338   5.077   3.969  0.5962 -0.6586  0.6199
11102TIP3    H254722   0.430   5.188   4.015 -0.0332  0.4186 -0.6512
11103TIP3   OH254723   1.750   2.361   0.101  0.0132  0.1239 -0.4358
11103TIP3    H154724   1.768   2.448   0.066  1.1934 -0.2521 -0.7981
11103TIP3    H254725   1.815   2.304   0.060  0.0930 -0.6980  0.7898
11104TIP3   OH254726   4.420   2.281   1.987 -0.1130  0.2318 -0.3329
11104TIP3    H154727   4.347   2.303   2.044  0.4810  1.3434  0.0429
11104TIP3    H254728   4.450   2.195   2.017  0.1538  0.7760  1.0191
11105TIP3   OH254729   6.697   1.192   2.830  0.2734 -0.5543 -0.3066
11105TIP3    H154730   6.619   1.158   2.874  1.1725 -1.3516  0.7678
11105TIP3    H254731   6.714   1.275   2.873  0.5710 -0.8530  0.1644
11106TIP3   OH254732   1.912   4.078  14.188  0.1892 -0.6819 -0.1673
11106TIP3    H154733   1.856   4.140  14.235  1.5803  0.9924 -0.6600
11106TIP3    H254734   1.851   4.008  14.161 -1.1381 -0.3526  1.7151
11107TIP3   OH254735   6.572   4.096   0.670  0.1341  0.5138  0.1267
11107TIP3    H154736   6.583   4.172   0.727 -2.2076  0.9614  0.1024
11107TIP3    H254737   6.564   4.133   0.582 -3.1975  0.5860  0.3271
11108TIP3   OH254738   2.974   0.856   0.631  0.1885 -0.2198  0.0917
11108TIP3    H154739   3.006   0.923   0.571  0.9481 -0.6710 -0.0142
11108TIP3    H254740   3.018   0.875   0.714  0.7167 -0.8231 -0.0459
11109TIP3   OH254741   5.208   4.017   2.117 -0.0412 -0.2747  0.4258
11109TIP3    H154742   5.161   4.075   2.177  1.3783  1.4112  0.0111
11109TIP3    H254743   5.300   4.027   2.142  0.1894 -3.6876  1.4248
11110TIP3   OH254744   6.128   6.523  15.912 -0.3740  0.2392 -0.5306
11110TIP3    H154745   6.216   6.531  15.948  0.0515 -1.4579 -1.1070
11110TIP3    H254746   6.142   6.491  15.822 -1.5439  1.1663 -1.0735
11111TIP3   OH254747   0.228   0.440   2.485 -0.3791 -0.3786 -0.0271
11111TIP3    H154748   0.293   0.439   2.555 -0.2743 -1.9389 -0.1237
11111TIP3    H254749   0.168   0.369   2.507 -0.6445 -0.5505 -1.2429
11112TIP3   OH254750   6.441   1.520  10.864  0.0883  0.2978  0.0015
11112TIP3    H154751   6.481   1.584  10.806 -0.5054  1.0948  0.4448
11112TIP3    H254752   6.466   1.435  10.828 -1.2082  0.7513 -2.0848
11113TIP3   OH254753   5.657   1.040  12.122 -0.3599 -0.1898  0.6891
11113TIP3    H154754   5.598   1.109  12.153 -0.3244 -0.4800  1.4265
11113TIP3    H254755   5.744   1.079  12.125 -0.6068  0.7936 -1.9377
11114TIP3   OH254756   4.527   5.310  13.518  0.5852  0.1366  0.5030
11114TIP3    H154757   4.501   5.244  13.581  0.6366 -1.5430 -1.1314
11114TIP3    H254758   4.445   5.340  13.480  0.6438 -0.3458 -0.0256
11115TIP3   OH254759   5.817   5.957   4.720  0.2706  0.1157  0.2761
11115TIP3    H154760   5.857   5.905   4.790  0.1561  0.5647  0.6840
11115TIP3    H254761   5.779   6.032   4.765  0.0255  0.3133 -0.2509
11116TIP3   OH254762   1.506   1.362  11.926 -0.3347  0.7265 -0.3807
11116TIP3    H154763   1.516   1.287  11.986  2.8631 -0.7360 -2.4812
11116TIP3    H254764   1.580   1.419  11.946 -0.6091  1.4355 -1.3114
11117TIP3   OH254765   5.851   3.317  15.731 -0.0916  0.0724 -0.2052
11117TIP3    H154766   5.926   3.275  15.688 -0.5615 -0.9688 -0.0341
11117TIP3    H254767   5.788   3.246  15.744 -0.3004  0.5312  1.4661
11118TIP3   OH254768   2.952   0.832   6.351 -0.1853 -0.1071  0.0415
11118TIP3    H154769   3.003   0.765   6.306  0.6646  0.2200  0.4809
11118TIP3    H254770   2.994   0.914   6.326 -0.7919  0.2066  0.0461
11119TIP3   OH254771   4.453   5.232  13.227  1.0640  0.2349  0.4198
11119TIP3    H154772   4.541   5.256  13.197  0.4416  2.0751 -0.0941
11119TIP3    H254773   4.424   5.165  13.166  2.1071 -0.4269  0.6214
11120TIP3   OH254774   5.554   1.351   1.382 -0.2681  0.7150  0.2710
11120TIP3    H154775   5.620   1.401   1.334 -2.0437  0.8009 -2.2615
11120TIP3    H254776   5.506   1.416   1.432  0.8696  0.7721  1.3432
11121TIP3   OH254777   3.614   1.664   5.057  0.1641 -0.8636 -0.3605
11121TIP3    H154778   3.592   1.572   5.042 -3.5182 -0.7907  2.9650
11121TIP3    H254779   3.621   1.672   5.152  1.9540  2.0963 -0.6032
11122TIP3   OH254780   2.560   4.966  11.970  0.7696  0.0650  0.8346
11122TIP3    H154781   2.618   4.933  12.039  1.1568  1.0098  0.9667
11122TIP3    H254782   2.579   4.910  11.895  1.6119  0.1445  0.9774
11123TIP3   OH254783   5.397   1.772   0.119 -0.3829  0.0124  0.0843
11123TIP3    H154784   5.477   1.807   0.160  0.6778 -1.3011 -0.7706
11123TIP3    H254785   5.327   1.830   0.150  0.6770  0.3558  2.0042
11124TIP3   OH254786   1.869   1.218  11.129  0.7073 -0.1875 -0.1009
11124TIP3    H154787   1.899   1.211  11.039 -0.1079  1.1171 -0.4861
11124TIP3    H254788   1.776   1.241  11.123  0.3369 -1.1957  1.0802
11125TIP3   OH254789   1.650   3.406   2.895  0.0467  0.7423 -0.3057
11125TIP3    H154790   1.594   3.433   2.822  0.9147  2.4151 -0.4044
11125TIP3    H254791   1.739   3.424   2.865  0.5219 -0.0336  0.5876
11126TIP3   OH254792   6.195   0.487  13.920 -0.0697  0.1495 -0.5231
11126TIP3    H154793   6.121   0.499  13.979 -0.3470  0.2212 -0.8879
11126TIP3    H254794   6.202   0.392  13.909  0.4591  0.0910  0.2271
11127TIP3   OH254795   2.657   0.429  15.713  0.5079  0.6903 -0.0635
11127TIP3    H154796   2.588   0.447  15.649  2.0166  1.1621 -1.6259
11127TIP3    H254797   2.709   0.509  15.716  0.5709  0.6364  1.7052
11128TIP3   OH254798   1.631   3.287   3.996 -0.6810 -0.0514 -0.3019
11128TIP3    H154799   1.647   3.347   4.069 -3.4866  0.8775 -0.3339
11128TIP3    H254800   1.710   3.294   3.941  1.0743 -0.0305  2.0631
11129TIP3   OH254801   0.213   1.303  13.838  0.2004 -0.8272 -0.1543
11129TIP3    H154802   0.271   1.379  13.840  0.1387 -0.7974  1.0432
11129TIP3    H254803   0.205   1.276  13.929 -0.4473 -1.7690 -0.4744
11130TIP3   OH254804   3.284   1.892  13.926  0.4974 -0.0425 -0.1291
11130TIP3    H154805   3.291   1.957  13.856 -1.0088 -0.3960 -0.6501
11130TIP3    H254806   3.372   1.854  13.933  1.1014  1.2238 -0.6128
11131TIP3   OH254807   4.825   1.612  16.343  0.1123 -0.0196 -0.1839
11131TIP3    H154808   4.820   1.545  16.275  1.9959  0.2302 -0.6195
11131TIP3    H254809   4.830   1.695  16.295 -1.0122  0.3561  0.3237
11132TIP3   OH254810   5.972   0.333  14.864  0.2159 -0.3361 -0.6423
11132TIP3    H154811   5.886   0.306  14.831  0.4620 -0.2555 -1.3638
11132TIP3    H254812   6.029   0.332  14.787  0.4495  1.2956 -0.5278
11133TIP3   OH254813   3.559   2.637   1.377 -0.3784 -0.3302  0.6254
11133TIP3    H154814   3.635   2.667   1.327 -0.1918 -1.6770  0.0451
11133TIP3    H254815   3.484   2.676   1.332 -0.0462  1.2436  1.3727
11134TIP3   OH254816   6.223   1.075  15.526  0.6918  0.0491 -0.0621
11134TIP3    H154817   6.165   1.001  15.539  2.0545 -0.9757  0.4528
11134TIP3    H254818   6.302   1.037  15.487  1.0945  1.3710 -0.6010
11135TIP3   OH254819   4.745   1.077   2.876  0.7561  0.4659  0.2524
11135TIP3    H154820   4.726   1.026   2.798  2.3636 -1.3291  0.9606
11135TIP3    H254821   4.838   1.097   2.869  0.9127  0.3018  1.6920
11136TIP3   OH254822   2.602   4.573   0.387 -1.0130 -0.1029 -0.2212
11136TIP3    H154823   2.554   4.615   0.458 -1.2924 -0.1233 -0.3976
11136TIP3    H254824   2.650   4.502   0.429 -1.4150 -0.3064 -0.1055
11137TIP3   OH254825   4.899   5.156   6.228 -0.1939  0.6026 -0.6805
11137TIP3    H154826   4.812   5.167   6.264 -0.7142  1.5004 -2.1449
11137TIP3    H254827   4.890   5.087   6.162  1.0982 -2.2876  1.8846
11138TIP3   OH254828   2.714   5.217   1.335 -0.0918 -0.3785 -0.1634
11138TIP3    H154829   2.622   5.212   1.361  0.0917  1.7235  1.1052
11138TIP3    H254830   2.749   5.130   1.352 -2.1212 -1.6382 -1.9578
11139TIP3   OH254831   4.165   6.300  15.140  0.0355  0.6484  0.3068
11139TIP3    H154832   4.146   6.379  15.089 -1.8927  0.3184  0.4352
11139TIP3    H254833   4.197   6.237  15.075 -1.3852  0.5699 -0.3509
11140TIP3   OH254834   6.748   1.568   5.974  0.0889  0.3769  0.0779
11140TIP3    H154835   6.838   1.593   5.996  0.6234 -1.0464 -0.3964
11140TIP3    H254836   6.742   1.581   5.880  0.2991 -1.0097 -0.1347
11141TIP3   OH254837   5.513   0.670   0.427 -0.0840 -0.0278  0.0530
11141TIP3    H154838   5.458   0.701   0.356  2.2983  1.1732 -1.4208
11141TIP3    H254839   5.565   0.747   0.452  1.8948 -1.3815  0.3626
11142TIP3   OH254840   5.112   3.245   5.443 -0.2413 -0.3108  0.7471
11142TIP3    H154841   5.080   3.251   5.533 -0.0094  0.5810  0.7744
11142TIP3    H254842   5.126   3.336   5.416  0.6253 -0.6175  0.1421
11143TIP3   OH254843   0.866   0.954  17.122 -0.4694 -0.4568  0.4404
11143TIP3    H154844   0.940   1.010  17.144  0.7896 -0.9583 -2.1082
11143TIP3    H254845   0.801   1.014  17.086  0.4905 -0.4169 -1.3687
11144TIP3   OH254846   4.088   5.952   3.730 -0.4169  0.1747 -0.4916
11144TIP3    H154847   4.000   5.943   3.694  0.0753  0.5406 -1.8845
11144TIP3    H254848   4.146   5.921   3.660  0.5340 -1.0782  0.7949
11145TIP3   OH254849   2.691   3.364   4.027 -0.3424 -0.0068 -0.1969
11145TIP3    H154850   2.614   3.318   4.061 -1.2506  0.6866 -1.2748
11145TIP3    H254851   2.726   3.410   4.103 -0.8637 -0.4802  0.3467
11146TIP3   OH254852   2.858   2.053  13.562 -0.0449  0.1708 -0.0211
11146TIP3    H154853   2.812   1.970  13.570 -0.6016  0.5773  1.3136
11146TIP3    H254854   2.851   2.076  13.470  0.6133 -1.5267 -0.5285
11147TIP3   OH254855   1.159   4.336  15.492  0.0548 -0.1080  0.1934
11147TIP3    H154856   1.088   4.347  15.428  2.1741  2.3709 -2.0077
11147TIP3    H254857   1.142   4.403  15.558 -0.9820 -1.2515  1.1314
11148TIP3   OH254858   1.865   0.278  11.298 -0.4127  0.4600  0.2087
11148TIP3    H154859   1.921   0.313  11.367  0.5555  1.7559 -1.1539
11148TIP3    H254860   1.837   0.354  11.248 -4.6373  0.0419  1.5868
11149TIP3   OH254861   6.259   1.059   2.372 -0.2021  0.4611 -0.1565
11149TIP3    H154862   6.288   0.985   2.319 -1.0161 -0.0064  0.0117
11149TIP3    H254863   6.335   1.082   2.426  0.6667  1.0286 -1.5888
11150TIP3   OH254864   3.554   4.102  11.766 -0.3597 -0.4094  0.0723
11150TIP3    H154865   3.585   4.138  11.683  0.3076  0.6446  0.7465
11150TIP3    H254866   3.535   4.179  11.819 -0.0846 -1.0682  1.1454
11151TIP3   OH254867   2.104   2.581   2.975 -0.2823 -0.2742 -0.3717
11151TIP3    H154868   2.031   2.641   2.984 -0.3613 -0.4787  0.4312
11151TIP3    H254869   2.069   2.507   2.926 -0.4148 -0.0511 -0.6144
11152TIP3   OH254870   1.877   4.793   3.058 -0.1788 -0.1390  0.0800
11152TIP3    H154871   1.896   4.887   3.055  0.4995 -0.1837  1.9564
11152TIP3    H254872   1.921   4.758   2.980  1.1027  0.8539  0.3202
11153TIP3   OH254873   0.023   5.867  13.951 -0.6164  0.0524  0.1772
11153TIP3    H154874  -0.057   5.916  13.970 -0.4943 -0.1113  1.1713
11153TIP3    H254875   0.091   5.910  14.003  0.1361  0.6820 -1.2445
11154TIP3   OH254876   4.357   4.834   4.764  0.0720 -0.2121 -0.4589
11154TIP3    H154877   4.386   4.890   4.836 -1.5587 -0.6197  0.5571
11154TIP3    H254878   4.315   4.894   4.703  0.7599  0.0277 -0.7048
11155TIP3   OH254879   2.560   4.127   4.500  0.2584 -0.5074  0.1781
11155TIP3    H154880   2.534   4.135   4.592 -0.7914  0.8084 -0.2013
11155TIP3    H254881   2.514   4.048   4.469 -0.7006 -0.0521  0.3831
11156TIP3   OH254882   6.229   5.079  12.310 -0.0584  0.2548 -0.5932
11156TIP3    H154883   6.184   5.009  12.263 -1.0598 -1.2128  2.2742
11156TIP3    H254884   6.316   5.043  12.328 -0.6590 -0.4912  1.1070
11157TIP3   OH254885   3.812   2.304  15.743  0.5024  0.2639 -0.0648
11157TIP3    H154886   3.840   2.395  15.747  1.0988  0.2341 -2.2140
11157TIP3    H254887   3.883   2.255  15.785  0.0632  0.7741  1.3186
11158TIP3   OH254888   0.593   0.234   1.888  0.0034 -0.1635  0.2579
11158TIP3    H154889   0.570   0.260   1.978 -0.2710 -0.9610  0.4281
11158TIP3    H254890   0.510   0.209   1.848  0.2914 -1.1218  0.2260
11159TIP3   OH254891   5.404   4.953   0.408 -0.2670 -0.1587  0.4315
11159TIP3    H154892   5.494   4.981   0.397  0.1688 -0.2418  3.0590
11159TIP3    H254893   5.409   4.858   0.419 -0.6888 -0.1937  0.3532
11160TIP3   OH254894   4.071   1.592  14.660 -0.3348 -0.2359 -0.6258
11160TIP3    H154895   4.110   1.532  14.597  0.7916 -0.8011  0.5600
11160TIP3    H254896   4.045   1.668  14.608  0.8654 -0.5436 -1.7234
11161TIP3   OH254897   6.186   5.400  17.293  0.1885 -0.1272  0.2989
11161TIP3    H154898   6.241   5.363  17.361  0.3700 -2.9686 -1.2480
11161TIP3    H254899   6.104   5.422  17.337  2.0235  3.2717  2.4295
11162TIP3   OH254900   2.823   2.414   6.846 -0.7541  0.1083  0.5358
11162TIP3    H154901   2.760   2.483   6.827  0.2098  0.6275 -0.9423
11162TIP3    H254902   2.906   2.447   6.812 -0.7078 -2.8150 -2.7274
11163TIP3   OH254903   1.660   2.565  15.224  0.3189  0.1900  0.2571
11163TIP3    H154904   1.697   2.482  15.194  2.7531  1.7447 -1.3801
11163TIP3    H254905   1.642   2.551  15.317 -1.1310 -2.6942 -0.3244
11164TIP3   OH254906   0.657   3.213   2.737  0.0023 -0.0548  0.3053
11164TIP3    H154907   0.613   3.198   2.654  0.2245 -1.5668  0.4301
11164TIP3    H254908   0.618   3.150   2.797  0.5098  0.3665  1.1001
11165TIP3   OH254909   4.284   5.959  16.454  0.6934  0.0877  0.1931
11165TIP3    H154910   4.362   5.904  16.467 -1.0098 -2.1704  1.6554
11165TIP3    H254911   4.299   6.035  16.510  0.6885 -1.7002  2.8239
11166TIP3   OH254912   2.312   2.374  16.896  0.5896 -0.0385 -0.2408
11166TIP3    H154913   2.307   2.279  16.906  1.7999 -0.2084 -1.0170
11166TIP3    H254914   2.342   2.406  16.982  0.7673 -0.4157 -0.1618
11167TIP3   OH254915   4.762   0.680  12.136  1.3012 -0.2729 -0.4029
11167TIP3    H154916   4.807   0.649  12.214  1.5763  0.8435 -0.1018
11167TIP3    H254917   4.791   0.770  12.126  0.7975 -0.2154 -1.4503
11168TIP3   OH254918   1.307   1.239  11.775  0.8514 -0.1211  0.5946
11168TIP3    H154919   1.370   1.244  11.846  1.4700 -1.7150  0.2185
11168TIP3    H254920   1.360   1.249  11.695  0.7297 -1.7988  0.2645
11169TIP3   OH254921   1.551   3.853  14.512  0.0755 -0.0333  0.3872
11169TIP3    H154922   1.538   3.930  14.456  0.2598 -0.5897 -0.4369
11169TIP3    H254923   1.623   3.877  14.570  1.8221 -0.4552 -1.5209
11170TIP3   OH254924   2.909   6.095   4.554 -0.1091  0.4762 -0.0784
11170TIP3    H154925   2.814   6.082   4.554  0.0622 -0.8966  0.2758
11170TIP3    H254926   2.946   6.007   4.558  1.1997  0.9540 -0.8881
11171TIP3   OH254927   4.826   0.012   5.089  0.3250  0.0197 -0.4151
11171TIP3    H154928   4.866   0.042   5.007 -1.0078 -1.8542 -1.8641
11171TIP3    H254929   4.873   0.058   5.158  2.1816  0.9178 -2.1897
11172TIP3   OH254930   0.267   5.745  12.656  0.0395 -0.4815 -0.1869
11172TIP3    H154931   0.180   5.718  12.626  0.4201  0.4568 -2.3756
11172TIP3    H254932   0.328   5.686  12.611  0.5906 -0.1134  0.0624
11173TIP3   OH254933   1.011   4.097   2.605  0.7854  0.0829  0.1524
11173TIP3    H154934   1.054   4.041   2.670  0.5754  1.9264  1.9730
11173TIP3    H254935   1.073   4.167   2.586  0.5382 -0.0002 -1.0917
11174TIP3   OH254936   3.582   2.560  15.683  0.4748  0.0274  0.0657
11174TIP3    H154937   3.614   2.649  15.699 -3.9882  2.0004 -0.3185
11174TIP3    H254938   3.573   2.553  15.588 -0.2233 -0.3783  0.1491
11175TIP3   OH254939   6.665   2.039  14.868 -0.9124 -0.4784 -0.4568
11175TIP3    H154940   6.662   2.132  14.890 -1.5845 -0.4804 -0.5295
11175TIP3    H254941   6.673   1.994  14.952  2.2820 -0.2665 -0.5306
11176TIP3   OH254942   3.596   0.172  10.750  0.3019  0.4822 -0.1185
11176TIP3    H154943   3.590   0.082  10.782  1.8254  0.4686  0.2208
11176TIP3    H254944   3.600   0.225  10.829 -1.2069  0.9269 -0.3133
11177TIP3   OH254945   2.771   2.331   4.879  0.0603 -0.3424 -0.2989
11177TIP3    H154946   2.811   2.258   4.832 -0.7758 -0.1605 -1.3285
11177TIP3    H254947   2.777   2.405   4.819  0.7198  0.4068  0.6562
11178TIP3   OH254948   1.863   0.631  12.263  0.2207 -0.5899  0.7413
11178TIP3    H154949   1.948   0.597  12.291  0.7265 -0.2468 -0.3347
11178TIP3    H254950   1.828   0.673  12.341  1.8288  0.8096  0.7778
11179TIP3   OH254951   5.301   0.175  12.640  0.2031  0.1561  0.2213
11179TIP3    H154952   5.274   0.192  12.731  0.3877 -1.7335  0.6649
11179TIP3    H254953   5.219   0.172  12.591  0.1237  1.5668  0.2289
11180TIP3   OH254954   3.641   3.521  16.436 -0.6629 -0.2504 -0.0384
11180TIP3    H154955   3.688   3.533  16.519 -0.9942  0.2042  0.0842
11180TIP3    H254956   3.688   3.576  16.374 -0.2120 -0.8492 -0.2326
11181TIP3   OH254957   0.158   5.897   0.551 -0.0150  0.2804  0.1306
11181TIP3    H154958   0.083   5.939   0.593  0.5800 -1.7019  3.6133
11181TIP3    H254959   0.232   5.921   0.607  1.6233  0.4978 -2.0184
11182TIP3   OH254960   3.463   0.611   4.278  0.2818  0.4512 -0.4738
11182TIP3    H154961   3.517   0.564   4.342  1.0189 -1.9593 -2.7072
11182TIP3    H254962   3.389   0.643   4.329 -0.1758 -3.0211  1.3693
11183TIP3   OH254963   4.747   2.691  11.639  0.1677  0.2954  0.1451
11183TIP3    H154964   4.760   2.600  11.611  0.1099 -0.8723  3.4091
11183TIP3    H254965   4.668   2.720  11.593 -2.4325 -2.8982  2.1553
11184TIP3   OH254966   4.490   1.067  17.208  0.6214 -0.0957 -0.0586
11184TIP3    H154967   4.552   1.125  17.163 -0.0421  0.7968  0.1309
11184TIP3    H254968   4.510   1.079  17.301  1.2020 -1.0201 -0.0587
11185TIP3   OH254969   0.380   1.944  11.395 -0.5900  0.4963 -0.1567
11185TIP3    H154970   0.418   1.986  11.318 -1.4753  0.2881 -0.7288
11185TIP3    H254971   0.325   2.012  11.435  1.8305  1.4239  1.7925
11186TIP3   OH254972   6.211   0.950  13.164  0.1768  0.0778 -0.2335
11186TIP3    H154973   6.145   0.967  13.097 -2.6125  1.2511  2.5774
11186TIP3    H254974   6.177   0.876  13.215  0.3779  1.3661  1.9191
11187TIP3   OH254975   1.876   3.404   6.671 -0.1455 -0.7176 -0.4697
11187TIP3    H154976   1.861   3.496   6.694 -2.4977 -1.4708  1.4274
11187TIP3    H254977   1.819   3.389   6.595 -0.0526 -0.7054 -0.5419
11188TIP3   OH254978   3.401   5.493  12.229 -0.0371 -0.2326  0.3380
11188TIP3    H154979   3.447   5.565  12.185 -1.1784  0.0628 -0.4204
11188TIP3    H254980   3.425   5.415  12.178 -0.9633  0.0367 -0.5518
11189TIP3   OH254981   0.508   6.162   5.801 -0.6953  0.0208 -0.7282
11189TIP3    H154982   0.545   6.250   5.808 -0.9679  0.3169 -2.4211
11189TIP3    H254983   0.417   6.172   5.829 -0.2762 -0.0964  0.7077
11190TIP3   OH254984   0.902   3.674   4.961  0.0600  0.2093 -0.0748
11190TIP3    H154985   0.891   3.579   4.966  0.6513  0.0755 -1.0936
11190TIP3    H254986   0.957   3.695   5.037 -1.7367  0.0405  1.3412
11191TIP3   OH254987   4.811   5.053   3.808  0.2836 -0.2600 -0.3435
11191TIP3    H154988   4.798   4.969   3.853 -0.4655 -0.2091 -0.4393
11191TIP3    H254989   4.854   5.029   3.725  1.1746 -0.4084  0.1525
11192TIP3   OH254990   4.833   3.805   0.772  0.6134  0.2065 -0.3363
11192TIP3    H154991   4.857   3.854   0.693  0.3685  0.4954 -0.2369
11192TIP3    H254992   4.793   3.871   0.829 -2.2075 -0.5588 -1.2676
11193TIP3   OH254993   1.099   5.056   3.355  0.7123 -0.0635  0.0148
11193TIP3    H154994   1.066   4.982   3.406  0.5627  0.0218  0.0427
11193TIP3    H254995   1.191   5.034   3.338  0.5851 -0.4053 -0.2501
11194TIP3   OH254996   4.795   6.239  15.953 -0.7742 -0.2972  0.4119
11194TIP3    H154997   4.824   6.157  15.994  0.1226 -0.4576 -0.4950
11194TIP3    H254998   4.857   6.305  15.986  0.0857 -0.4638 -0.7908
11195TIP3   OH254999   4.442   6.718   6.222 -0.1903  0.2079 -0.4364
11195TIP3    H155000   4.378   6.751   6.285  0.2573 -0.0023  0.1421
11195TIP3    H255001   4.422   6.624   6.214 -0.2726  0.2426 -0.6409
11196TIP3   OH255002   0.956   5.546  13.651  0.2275 -0.2898 -0.4082
11196TIP3    H155003   0.879   5.601  13.661  0.9158  0.8800 -1.3610
11196TIP3    H255004   1.021   5.587  13.708  0.7577 -0.0648 -1.1617
11197TIP3   OH255005   6.381   2.719  14.916  0.5689 -1.0882  0.0175
11197TIP3    H155006   6.285   2.717  14.909  0.4136 -1.7219  1.7744
11197TIP3    H255007   6.412   2.686  14.832 -0.7677 -1.1948 -0.4572
11198TIP3   OH255008   4.458   4.467   5.644  0.3838  0.2579 -0.1157
11198TIP3    H155009   4.544   4.490   5.679  0.2502  1.9181 -0.7969
11198TIP3    H255010   4.444   4.529   5.573 -1.5434  0.2543  0.2208
11199TIP3   OH255011   6.674   0.378  15.999 -0.3566 -0.8046 -0.2291
11199TIP3    H155012   6.585   0.411  16.012  1.1345  2.4720  3.9353
11199TIP3    H255013   6.692   0.326  16.078  1.8755 -0.0790 -0.2047
11200TIP3   OH255014   3.781   0.886  13.786  0.3837  0.1213 -0.0424
11200TIP3    H155015   3.853   0.920  13.733  0.3693 -0.0894 -0.2004
11200TIP3    H255016   3.811   0.895  13.876 -0.2214  1.9498  0.0135
11201TIP3   OH255017   1.152   1.350   4.576  0.2719  0.5433 -0.3134
11201TIP3    H155018   1.097   1.378   4.649 -1.4352 -1.5462 -0.6710
11201TIP3    H255019   1.103   1.377   4.498  0.4826 -0.0192 -0.6433
11202TIP3   OH255020   4.596   4.433   4.482  0.0526  0.0869 -0.5904
11202TIP3    H155021   4.546   4.467   4.556  0.7299 -2.6721  1.2634
11202TIP3    H255022   4.683   4.471   4.492 -0.0642  0.3244 -0.4549
11203TIP3   OH255023   5.354   5.398  14.849  0.1086 -0.8086  0.0412
11203TIP3    H155024   5.304   5.336  14.902 -0.1969 -0.3572  0.2991
11203TIP3    H255025   5.334   5.484  14.889  0.1309 -0.4993 -0.6007
11204TIP3   OH255026   0.639   0.970   0.376  0.9565  0.2554 -0.7022
11204TIP3    H155027   0.649   0.964   0.281 -2.0668  0.7596 -1.1661
11204TIP3    H255028   0.676   1.055   0.400  0.5123  0.7390 -1.6767
11205TIP3   OH255029   2.041   5.649  13.853 -0.0900 -0.5381 -0.3990
11205TIP3    H155030   2.115   5.593  13.877 -0.6417 -1.0848  0.0880
11205TIP3    H255031   2.079   5.736  13.839  0.4987 -0.5698  0.8766
11206TIP3   OH255032   0.936   0.393   3.646  0.4735 -0.0099 -1.0238
11206TIP3    H155033   0.920   0.325   3.712  1.2407 -1.4388 -2.2308
11206TIP3    H255034   0.939   0.475   3.696 -0.9122 -0.7924  0.4352
11207TIP3   OH255035   2.368   4.975   6.863 -0.2111 -0.3223 -0.2210
11207TIP3    H155036   2.409   5.015   6.786 -0.7491 -0.5539 -0.6347
11207TIP3    H255037   2.349   5.048   6.921  1.6310 -0.2921  0.3988
11208TIP3   OH255038   1.222   2.023   0.391 -0.1844 -0.0576  0.3675
11208TIP3    H155039   1.257   2.090   0.333  0.8148  0.8053  1.9067
11208TIP3    H255040   1.239   2.056   0.480 -2.6356 -0.8086  1.1919
11209TIP3   OH255041   1.833   0.099   2.019  0.1638 -0.0165 -0.4355
11209TIP3    H155042   1.901   0.108   1.952  0.8227  0.0402  0.2389
11209TIP3    H255043   1.865   0.151   2.093  0.0975 -1.1882  0.4412
11210TIP3   OH255044   0.020   1.474  12.390  0.2133 -0.1992  0.0274
11210TIP3    H155045  -0.057   1.488  12.445 -0.2034 -1.8450 -0.0967
11210TIP3    H255046   0.083   1.431  12.448  0.7345  0.3572 -0.1102
11211TIP3   OH255047   0.092   2.751  11.768 -0.3044  0.0268 -0.1252
11211TIP3    H155048   0.061   2.661  11.781  1.1860 -0.6601 -1.0181
11211TIP3    H255049   0.182   2.750  11.801 -0.3005  1.2372 -0.0563
11212TIP3   OH255050   1.186   3.265  14.375 -0.2419  0.3160 -0.4903
11212TIP3    H155051   1.097   3.291  14.354 -0.4662 -1.6462 -2.3374
11212TIP3    H255052   1.229   3.256  14.289  0.8179 -1.7221  0.1867
11213TIP3   OH255053   4.876   1.932  15.371 -0.0024  0.0441  0.1480
11213TIP3    H155054   4.955   1.952  15.421 -0.2040  1.4310 -0.0335
11213TIP3    H255055   4.805   1.968  15.425 -0.2378  1.4385 -1.0167
11214TIP3   OH255056   3.769   5.040   1.958 -0.0539 -0.5432 -0.4331
11214TIP3    H155057   3.736   5.020   2.046 -0.8936  1.1908 -0.3241
11214TIP3    H255058   3.857   5.075   1.973  0.1592 -1.0910 -0.3721
11215TIP3   OH255059   0.593   3.272  14.657  0.1678  0.0433  0.2833
11215TIP3    H155060   0.674   3.301  14.701  0.3311  0.7406 -0.4502
11215TIP3    H255061   0.537   3.350  14.657 -0.2954 -0.2862  0.2975
11216TIP3   OH255062   6.383   2.645   2.015 -0.2452 -0.4103  0.2771
11216TIP3    H155063   6.439   2.718   1.986 -1.8052 -0.3930 -3.1317
11216TIP3    H255064   6.306   2.688   2.051  0.2663 -0.4339  1.4388
11217TIP3   OH255065   4.606   4.903   0.882  0.0798 -0.1986 -0.4669
11217TIP3    H155066   4.645   4.914   0.969  0.7817 -0.3452 -0.7558
11217TIP3    H255067   4.672   4.937   0.821 -0.6923  0.5517 -0.9099
11218TIP3   OH255068   4.077   5.943   2.582 -0.4219  0.6157  0.3329
11218TIP3    H155069   3.988   5.929   2.550 -0.4310  0.7686  0.2885
11218TIP3    H255070   4.090   5.876   2.649 -0.6283  0.7011  0.4575
11219TIP3   OH255071   5.396   1.790   1.461  0.4701  0.2076 -0.1256
11219TIP3    H155072   5.441   1.868   1.429 -1.3245  0.6232 -1.8360
11219TIP3    H255073   5.338   1.822   1.529 -0.4217  0.4325 -0.9741
11220TIP3   OH255074   5.189   6.319   5.193  0.1851 -0.2724  0.2104
11220TIP3    H155075   5.146   6.270   5.263 -0.4676 -0.1366 -0.0812
11220TIP3    H255076   5.238   6.253   5.144  0.1749 -0.4612  0.4519
11221TIP3   OH255077   3.597   4.102  12.311 -0.3590 -0.0834  0.0469
11221TIP3    H155078   3.610   4.122  12.404 -2.0343  3.2840 -0.2729
11221TIP3    H255079   3.674   4.137  12.267 -1.0349  1.3547 -0.0559
11222TIP3   OH255080   0.539   4.493   5.340 -0.0810 -0.4913 -0.4817
11222TIP3    H155081   0.492   4.463   5.263 -1.4339  0.3901 -0.0441
11222TIP3    H255082   0.590   4.568   5.310 -1.3432  0.4515 -0.3674
11223TIP3   OH255083   2.247   5.594   2.830  0.5646  0.2308  0.6587
11223TIP3    H155084   2.302   5.519   2.853 -0.5225 -0.1484  2.2175
11223TIP3    H255085   2.165   5.555   2.801  0.3317  0.8206  0.5269
11224TIP3   OH255086   5.946   0.899   1.458 -0.4405 -0.5058  0.1929
11224TIP3    H155087   5.859   0.926   1.428 -1.6973 -3.3237  0.9602
11224TIP3    H255088   5.975   0.835   1.393  0.4718 -0.6071  0.6791
11225TIP3   OH255089   1.189   1.611   4.334 -0.4732  0.4634  0.6611
11225TIP3    H155090   1.126   1.545   4.363 -1.3629  1.0723  0.1721
11225TIP3    H255091   1.184   1.608   4.238  2.6097 -1.7035  0.4252
11226TIP3   OH255092   3.565   0.582  12.355 -0.1451 -0.3048 -0.0080
11226TIP3    H155093   3.502   0.553  12.420  0.7185 -1.1727  0.4614
11226TIP3    H255094   3.584   0.504  12.303 -0.3401  0.2246 -0.9079
11227TIP3   OH255095   0.020   6.269   6.077  0.0767 -0.6592  0.0669
11227TIP3    H155096  -0.037   6.293   6.150 -0.7351  0.1357 -0.7987
11227TIP3    H255097  -0.012   6.183   6.049  0.7042 -1.1914  0.9289
11228TIP3   OH255098   6.282   0.569  14.342 -0.2767 -0.2407  0.0919
11228TIP3    H155099   6.187   0.554  14.347 -0.1303 -1.1225  0.4128
11228TIP3    H255100   6.295   0.608  14.255 -1.0088  0.5363  0.3166
11229TIP3   OH255101   6.611   3.281  15.305 -0.7527  0.0217  0.5337
11229TIP3    H155102   6.554   3.222  15.256 -1.0630  0.4240  0.4133
11229TIP3    H255103   6.689   3.228  15.325 -0.7190 -0.2058 -0.1986
11230TIP3   OH255104   2.039   2.080  12.397 -0.2822 -0.0876  0.0315
11230TIP3    H155105   1.994   2.134  12.332 -0.7825 -2.1952 -1.4560
11230TIP3    H255106   1.969   2.029  12.438  0.3653 -0.7970  0.2685
11231TIP3   OH255107   4.860   6.737   5.874 -0.0336 -0.0932  0.0556
11231TIP3    H155108   4.840   6.816   5.823  0.4899  0.3346  0.4940
11231TIP3    H255109   4.780   6.719   5.922 -0.0223  0.4248  0.2773
11232TIP3   OH255110   3.877   0.966   0.746 -0.5997  0.0996 -0.0914
11232TIP3    H155111   3.904   0.875   0.762  0.5787  0.4620  0.0895
11232TIP3    H255112   3.805   0.959   0.684 -0.7619 -0.9821  0.1945
11233TIP3   OH255113   4.949   4.546   4.793  0.3232  0.2069  0.3642
11233TIP3    H155114   4.863   4.567   4.829 -0.6381  0.0101 -1.6608
11233TIP3    H255115   4.974   4.464   4.836 -0.9301 -0.2065  0.3477
11234TIP3   OH255116   1.022   1.885  16.664 -0.4390 -0.2916  0.4558
11234TIP3    H155117   1.045   1.792  16.657 -0.5320 -0.4366  1.6793
11234TIP3    H255118   1.088   1.921  16.724 -1.1796  0.1253  1.0316
11235TIP3   OH255119   6.369   4.668   0.869 -0.0368 -0.2425  0.2165
11235TIP3    H155120   6.349   4.703   0.955 -0.2843  1.0582 -0.3576
11235TIP3    H255121   6.361   4.573   0.880 -1.0771 -0.0487  1.3587
11236TIP3   OH255122   6.323   3.248   4.961  0.4182 -0.3920  0.0751
11236TIP3    H155123   6.231   3.232   4.942  0.3500 -0.6074  0.5818
11236TIP3    H255124   6.368   3.169   4.929  0.0658 -1.7656  2.7132
11237TIP3   OH255125   2.969   0.058   4.295 -0.3597 -0.0184 -0.5160
11237TIP3    H155126   2.948   0.034   4.386 -0.8350  2.8057  0.2000
11237TIP3    H255127   3.005  -0.023   4.258  1.1423 -0.9505  2.5651
11238TIP3   OH255128   6.427   3.955   3.390  0.0947 -0.3192 -0.6879
11238TIP3    H155129   6.454   4.045   3.408  1.7272 -0.9132  0.1197
11238TIP3    H255130   6.396   3.956   3.300  3.7832  0.3485 -2.1171
11239TIP3   OH255131   6.374   5.281  11.755 -0.1507  0.2879 -0.1218
11239TIP3    H155132   6.467   5.274  11.776 -0.5809  0.0666  1.8708
11239TIP3    H255133   6.372   5.289  11.659  1.8620 -0.4457 -0.2745
11240TIP3   OH255134   3.597   0.258   3.281 -0.2330  0.0599  0.5281
11240TIP3    H155135   3.608   0.208   3.362  0.5365 -0.2063  0.2667
11240TIP3    H255136   3.667   0.227   3.224 -0.8642  0.1329 -0.3051
11241TIP3   OH255137   3.371   6.275  12.466  0.0899  0.0130 -0.0515
11241TIP3    H155138   3.393   6.364  12.438 -0.1492 -0.1896 -0.9115
11241TIP3    H255139   3.455   6.235  12.489  0.2759  0.2308 -0.3514
11242TIP3   OH255140   1.808   6.001   1.676 -0.3683  0.7709 -0.1375
11242TIP3    H155141   1.897   5.969   1.691 -1.1789 -1.7576 -0.3763
11242TIP3    H255142   1.769   6.006   1.763 -0.2587  1.0866 -0.1052
11243TIP3   OH255143   0.527   1.528   0.731 -0.0606 -0.1425  0.7218
11243TIP3    H155144   0.601   1.467   0.731 -0.9426 -1.2343 -0.0096
11243TIP3    H255145   0.563   1.607   0.771  1.3835 -0.7916  0.7985
11244TIP3   OH255146   6.266   3.355   0.715  0.1563  0.6664  0.3823
11244TIP3    H155147   6.298   3.425   0.772  0.5162  0.2012  0.7616
11244TIP3    H255148   6.218   3.400   0.645  0.0557  1.2638  0.8348
11245TIP3   OH255149   0.673   0.650  15.310 -0.1358  0.1966 -0.5903
11245TIP3    H155150   0.590   0.604  15.293  0.0788 -0.4799  0.1671
11245TIP3    H255151   0.646   0.739  15.333 -0.6063  0.1977 -1.1225
11246TIP3   OH255152   6.390   5.983  11.192 -0.3644 -0.6962  0.2711
11246TIP3    H155153   6.355   5.894  11.195  0.7967 -1.1989 -0.5809
11246TIP3    H255154   6.396   6.010  11.284 -0.0245 -1.7818  0.5719
11247TIP3   OH255155   5.873   2.568   5.356  0.4691 -0.1657  0.4199
11247TIP3    H155156   5.968   2.577   5.357  0.5183 -0.7780  1.1790
11247TIP3    H255157   5.848   2.553   5.447 -0.2916 -0.6941  0.1344
11248TIP3   OH255158   6.360   1.244   0.309  0.0583  0.0603 -0.1320
11248TIP3    H155159   6.385   1.213   0.222  1.2930 -1.3349  0.6693
11248TIP3    H255160   6.354   1.339   0.299 -2.1586 -0.1984 -2.2726
11249TIP3   OH255161   3.202   2.268  12.599 -0.2049  0.1521 -0.0790
11249TIP3    H155162   3.153   2.321  12.662 -2.0771 -2.9720  1.3486
11249TIP3    H255163   3.158   2.282  12.516 -2.4172 -1.0961  0.8075
11250TIP3   OH255164   3.253   3.605  10.495  0.6390  0.5113  0.3284
11250TIP3    H155165   3.177   3.647  10.455  0.6632  0.8030  0.5836
11250TIP3    H255166   3.316   3.675  10.507  1.0260  0.2351 -0.0571
11251TIP3   OH255167   4.495   0.857   0.922  0.1386 -0.5585  0.4664
11251TIP3    H155168   4.412   0.898   0.947  0.4426  0.1476  0.3225
11251TIP3    H255169   4.544   0.851   1.004 -0.5517 -2.1914  0.8109
11252TIP3   OH255170   5.538   2.474   3.973  0.1015 -0.3125  0.2761
11252TIP3    H155171   5.559   2.527   3.895  0.9418  1.6073  1.7170
11252TIP3    H255172   5.493   2.397   3.938  0.8085  0.2668 -2.1388
11253TIP3   OH255173   3.297   3.346   2.316 -0.1486 -0.3052  0.1662
11253TIP3    H155174   3.341   3.315   2.394  1.2910 -0.0907 -0.5377
11253TIP3    H255175   3.326   3.288   2.246 -0.1136  0.5120 -0.5195
11254TIP3   OH255176   1.592   2.264  11.865  0.0459 -0.4100 -0.0843
11254TIP3    H155177   1.560   2.347  11.900  0.4066 -1.0070  1.8250
11254TIP3    H255178   1.561   2.262  11.775 -0.2238  1.6497 -0.0977
11255TIP3   OH255179   2.943   4.693  15.706  0.2808 -0.0158  0.1654
11255TIP3    H155180   2.896   4.775  15.722  0.5389  0.3045 -0.6621
11255TIP3    H255181   2.952   4.653  15.793  1.4753  1.5413  0.8027
11256TIP3   OH255182   3.948   4.758   4.150  0.5964  0.4099 -0.4403
11256TIP3    H155183   3.921   4.823   4.215  0.0243  0.7722 -1.0352
11256TIP3    H255184   3.873   4.700   4.141  0.8851  0.0171 -0.3601
11257TIP3   OH255185   5.209   5.177  14.944  0.4290  0.7542 -0.0468
11257TIP3    H155186   5.160   5.185  15.026  0.1759  1.8928 -0.2947
11257TIP3    H255187   5.181   5.092  14.908 -0.5593  0.8998  0.3371
11258TIP3   OH255188   6.070   5.060   4.488  0.2940  0.2110  0.1034
11258TIP3    H155189   6.074   5.145   4.444 -0.2484  0.6207  0.8338
11258TIP3    H255190   5.976   5.040   4.493  0.4426 -0.8774 -0.8833
11259TIP3   OH255191   3.726   1.796  13.706  0.1552 -0.5580 -0.0794
11259TIP3    H155192   3.696   1.752  13.626 -0.8842  0.0714 -0.0455
11259TIP3    H255193   3.753   1.883  13.677  1.8822 -1.0398 -0.0830
11260TIP3   OH255194   3.096   1.752  11.862 -0.8058  0.0762 -0.9429
11260TIP3    H155195   3.100   1.835  11.910  0.3019 -1.9319  2.8385
11260TIP3    H255196   3.005   1.723  11.870 -0.9243  0.3586 -1.2471
11261TIP3   OH255197   4.335   3.412   1.008 -0.5661  0.0317  0.0762
11261TIP3    H155198   4.375   3.391   1.092 -0.8356  0.4006  0.3016
11261TIP3    H255199   4.309   3.504   1.016 -0.3573  0.1449 -0.5028
11262TIP3   OH255200   5.242   1.888  13.899  0.4592 -0.5589  0.3665
11262TIP3    H155201   5.300   1.929  13.963 -0.6975 -0.6746  1.5232
11262TIP3    H255202   5.188   1.961  13.867  0.1702 -0.7225  0.4810
11263TIP3   OH255203   3.594   0.524  15.398  0.1753  0.7788 -0.5301
11263TIP3    H155204   3.682   0.539  15.432 -0.0516 -0.3066  0.6270
11263TIP3    H255205   3.546   0.605  15.418  0.2023  0.3808  1.3175
11264TIP3   OH255206   5.203   1.532   5.063  0.2592 -0.3539 -0.0318
11264TIP3    H155207   5.144   1.485   5.122 -1.4686  3.0972  1.2490
11264TIP3    H255208   5.279   1.555   5.118  0.1253  0.1186 -0.0388
11265TIP3   OH255209   6.221   2.290   1.022  0.6233 -0.1638  0.2159
11265TIP3    H155210   6.232   2.304   0.928  1.0378  0.6333  0.3695
11265TIP3    H255211   6.131   2.320   1.040  0.2963 -0.9752 -0.0355
11266TIP3   OH255212   0.228   4.859   5.310 -0.1130  0.3939 -0.4723
11266TIP3    H155213   0.195   4.777   5.275  1.7116 -1.0089  0.8857
11266TIP3    H255214   0.233   4.844   5.405 -1.6661  2.8232  0.0771
11267TIP3   OH255215   2.736   3.126  16.902 -0.5269 -0.2430  0.1125
11267TIP3    H155216   2.646   3.152  16.919 -0.5056  0.8206 -1.2670
11267TIP3    H255217   2.780   3.206  16.873  0.7724 -0.8168  0.4023
11268TIP3   OH255218   4.549   3.658   5.088  0.4968 -0.6103 -0.4000
11268TIP3    H155219   4.484   3.728   5.085 -0.6034 -1.4420  1.7743
11268TIP3    H255220   4.526   3.600   5.016 -0.5888 -0.3961 -0.2370
11269TIP3   OH255221   0.564   1.935  15.558  0.2030  0.5610 -0.0395
11269TIP3    H155222   0.581   2.020  15.599  1.1556  0.6856 -0.6672
11269TIP3    H255223   0.469   1.928  15.557  0.1281  1.0472  1.1637
11270TIP3   OH255224   1.711   5.579   4.687 -0.5372  0.2515  0.8226
11270TIP3    H155225   1.668   5.516   4.630  2.1019 -0.8851 -0.0980
11270TIP3    H255226   1.689   5.552   4.776 -1.1341 -0.6812  0.4019
11271TIP3   OH255227   1.070   4.211   5.454 -0.0674 -0.1559  0.2136
11271TIP3    H155228   1.032   4.299   5.456  1.2097  0.5678 -2.4054
11271TIP3    H255229   0.994   4.153   5.444 -1.0025  0.4838  2.8701
11272TIP3   OH255230   4.053   0.299  16.128  0.2003 -0.0038 -0.5322
11272TIP3    H155231   3.967   0.300  16.169 -0.1153 -0.2239 -1.1656
11272TIP3    H255232   4.114   0.314  16.199 -0.3630  0.1413 -0.0732
11273TIP3   OH255233   0.062   5.740   5.461  0.3332 -0.5330  0.5236
11273TIP3    H155234   0.010   5.688   5.522  2.0863 -1.8300  0.9658
11273TIP3    H255235  -0.002   5.772   5.397 -1.1498 -1.2366  1.5970
11274TIP3   OH255236   5.145   4.834  14.617  0.3704  0.3138 -0.6443
11274TIP3    H155237   5.098   4.864  14.540  1.9412  0.8371 -1.4513
11274TIP3    H255238   5.175   4.746  14.594  0.3312  0.2376 -0.4017
11275TIP3   OH255239   3.577   2.304   2.015  0.0989 -0.0683  0.3107
11275TIP3    H155240   3.624   2.221   2.022  1.4554  0.6766  0.4355
11275TIP3    H255241   3.601   2.352   2.095  0.7546  1.1104 -0.5556
11276TIP3   OH255242   4.613   1.761   4.852 -0.3347  0.2339  0.1125
11276TIP3    H155243   4.547   1.691   4.851  1.6003 -1.7108 -0.5109
11276TIP3    H255244   4.591   1.816   4.777 -0.9222 -0.7226 -0.4400
11277TIP3   OH255245   6.356   2.185  14.870  0.2668 -0.2351 -0.2223
11277TIP3    H155246   6.279   2.242  14.881  1.0094  0.6864  0.3938
11277TIP3    H255247   6.430   2.243  14.888  1.1516 -0.9282 -1.5128
11278TIP3   OH255248   5.356   5.572  17.324 -0.0975  0.3634  0.6266
11278TIP3    H155249   5.286   5.634  17.306 -2.1494 -2.4360 -2.2487
11278TIP3    H255250   5.417   5.582  17.250  0.1809 -0.2041  0.7667
11279TIP3   OH255251   5.886   5.390  14.348  0.3604 -0.6860 -0.0930
11279TIP3    H155252   5.798   5.356  14.364 -0.0439  0.7886  1.1147
11279TIP3    H255253   5.937   5.364  14.425  1.0104 -1.5764 -0.8095
11280TIP3   OH255254   1.745   4.265  13.574 -0.3276  0.0342  0.8113
11280TIP3    H155255   1.810   4.201  13.547  0.4613  0.9219  0.5547
11280TIP3    H255256   1.704   4.294  13.493 -1.2997 -0.7705  1.0002
11281TIP3   OH255257   2.046   4.057   2.365  0.4472  0.4840  0.1135
11281TIP3    H155258   1.951   4.062   2.355  0.3591  2.3529  1.3991
11281TIP3    H255259   2.060   4.062   2.459  1.8092 -0.3693 -0.0240
11282TIP3   OH255260   0.567   5.170   4.867  0.0296  0.6375 -0.0828
11282TIP3    H155261   0.551   5.257   4.903 -1.4645  0.3386  0.0605
11282TIP3    H255262   0.661   5.157   4.876  0.1498  1.8806  0.7082
11283TIP3   OH255263   0.667   5.170   1.165  0.2178  0.4411 -0.3471
11283TIP3    H155264   0.659   5.202   1.075  1.4189  0.2550 -0.5338
11283TIP3    H255265   0.761   5.173   1.184  0.4554 -2.8936 -0.3653
11284TIP3   OH255266   4.722   4.017  10.834 -0.3782 -0.0266 -0.3928
11284TIP3    H155267   4.814   4.013  10.859 -0.0609  1.9534 -1.0772
11284TIP3    H255268   4.720   3.978  10.746 -0.2179 -0.2117 -0.3154
11285TIP3   OH255269   1.017   3.277   1.240  0.0534 -0.3846 -0.7181
11285TIP3    H155270   0.925   3.299   1.224  0.9029  2.3504 -2.5108
11285TIP3    H255271   1.028   3.290   1.334 -1.4419 -1.2302 -0.3816
11286TIP3   OH255272   3.324   3.604   1.935  0.3308  0.0220  0.1836
11286TIP3    H155273   3.402   3.582   1.987  1.3868  0.4230 -1.1877
11286TIP3    H255274   3.313   3.698   1.948 -0.0163 -0.0516  0.4611
11287TIP3   OH255275   4.345   2.278   6.488 -0.1757  0.3139  0.2956
11287TIP3    H155276   4.329   2.372   6.483  0.2957  0.3535 -0.6440
11287TIP3    H255277   4.264   2.241   6.523 -0.4943  1.0283  0.3173
11288TIP3   OH255278   5.800   2.736   3.748 -0.0756  0.7053 -0.2113
11288TIP3    H155279   5.835   2.812   3.702 -0.8931  0.4383 -1.3025
11288TIP3    H255280   5.877   2.690   3.780  0.4379  1.8418  0.2348
11289TIP3   OH255281   5.971   2.895   0.209 -0.2988  0.5914 -0.1362
11289TIP3    H155282   5.952   2.918   0.301  3.0234  0.9395  0.5987
11289TIP3    H255283   6.067   2.900   0.203 -0.1109 -2.8764 -2.7319
11290TIP3   OH255284   4.398   5.324  11.234  0.0836  0.2195 -0.0562
11290TIP3    H155285   4.451   5.245  11.227 -0.3687 -0.0983  0.0799
11290TIP3    H255286   4.308   5.295  11.216 -0.5088  0.1656  2.5666
11291TIP3   OH255287   1.319   1.107   1.891  0.4584 -0.0089  0.1596
11291TIP3    H155288   1.294   1.161   1.816  1.5021 -0.5579 -0.6122
11291TIP3    H255289   1.405   1.070   1.867 -0.2683 -2.1333  0.5560
11292TIP3   OH255290   1.594   2.926   1.220  0.2767  0.4028  0.3043
11292TIP3    H155291   1.585   2.924   1.125 -0.3102 -0.3477  0.3632
11292TIP3    H255292   1.681   2.963   1.235  1.6596 -2.1963 -0.6314
11293TIP3   OH255293   6.197   1.357  10.688  0.7406 -0.2871  0.2338
11293TIP3    H155294   6.257   1.341  10.761 -0.7086  1.1240  1.7994
11293TIP3    H255295   6.169   1.270  10.661  2.4107 -0.9063  0.3632
11294TIP3   OH255296   0.203   5.944   5.821  0.6229  0.1146  0.1484
11294TIP3    H155297   0.251   5.896   5.888  0.4847  1.1548  1.0324
11294TIP3    H255298   0.111   5.931   5.844  0.5767  0.5665  0.2319
11295TIP3   OH255299   4.776   1.403  11.966 -0.2403 -0.0496  0.2698
11295TIP3    H155300   4.765   1.448  11.882 -0.5992  0.0121  0.3464
11295TIP3    H255301   4.863   1.364  11.962  0.1254  0.7374  0.2356
11296TIP3   OH255302   1.275   0.789   6.421  0.7645 -0.6523 -0.1210
11296TIP3    H155303   1.345   0.758   6.479  0.9871 -0.3592 -0.2317
11296TIP3    H255304   1.227   0.710   6.397 -1.1187 -0.5249  2.7531
11297TIP3   OH255305   2.885   1.366   2.090  0.8200  0.2331 -0.1893
11297TIP3    H155306   2.907   1.272   2.093  0.3729  0.0586 -1.5700
11297TIP3    H255307   2.955   1.408   2.140  2.0585 -0.6842 -1.0728
11298TIP3   OH255308   1.525   5.564   2.014  0.7111 -0.4996  0.1687
11298TIP3    H155309   1.444   5.544   2.061  1.0616 -2.8788 -0.1487
11298TIP3    H255310   1.497   5.619   1.940 -0.2008  0.9868  1.5371
11299TIP3   OH255311   2.512   5.700   5.925 -0.0810 -0.0562  0.4305
11299TIP3    H155312   2.589   5.756   5.916 -0.4224  0.4963  0.8364
11299TIP3    H255313   2.465   5.710   5.842  0.1584 -0.2068  0.2749
11300TIP3   OH255314   2.412   4.558  14.927 -0.2011  0.6048  0.4643
11300TIP3    H155315   2.436   4.589  14.839 -0.3219  0.7290  0.4740
11300TIP3    H255316   2.393   4.465  14.915 -3.6318  1.2648 -0.3661
11301TIP3   OH255317   0.451   2.838   3.467  0.1290  0.1404  0.0635
11301TIP3    H155318   0.509   2.845   3.391 -0.5812  1.3371 -0.3936
11301TIP3    H255319   0.423   2.747   3.466  1.6883 -0.3758  0.0795
11302TIP3   OH255320   2.537   0.235  13.976 -0.4911 -0.2537  0.1816
11302TIP3    H155321   2.464   0.190  14.018 -0.5093 -1.7074 -1.3159
11302TIP3    H255322   2.584   0.166  13.929 -0.1855  1.1907 -1.7536
11303TIP3   OH255323   3.217   2.031   4.694 -0.3803  0.8499  0.5215
11303TIP3    H155324   3.166   1.978   4.755  1.8059  0.7243  2.3553
11303TIP3    H255325   3.170   2.114   4.687 -2.5504 -0.3873 -0.4986
11304TIP3   OH255326   0.429   5.577  12.540 -0.8014  0.3555  0.3104
11304TIP3    H155327   0.472   5.648  12.492 -0.2092  0.3801  0.8509
11304TIP3    H255328   0.398   5.517  12.472  2.4056 -1.0169 -0.1171
11305TIP3   OH255329   2.751   2.980   5.503 -0.0550 -0.3046  0.6813
11305TIP3    H155330   2.726   2.926   5.428  1.6168 -0.4536  0.2102
11305TIP3    H255331   2.740   3.070   5.472  1.6717 -0.3481 -0.1521
11306TIP3   OH255332   1.008   2.464   4.175  0.4775 -0.2924 -0.0401
11306TIP3    H155333   1.008   2.408   4.097 -2.5542 -1.2106  0.4873
11306TIP3    H255334   1.016   2.403   4.248 -0.2651  0.1973  0.4640
11307TIP3   OH255335   4.657   4.227   4.923  0.1819  0.2115  0.3526
11307TIP3    H155336   4.573   4.203   4.884 -0.5780  2.2178  0.6244
11307TIP3    H255337   4.661   4.174   5.003 -0.6596 -0.1604  0.1677
11308TIP3   OH255338   0.144   3.377   6.432  0.0103  0.1184  0.3320
11308TIP3    H155339   0.071   3.350   6.487  0.1918 -1.5600 -0.1829
11308TIP3    H255340   0.105   3.401   6.349 -0.0857  0.7630  0.5584
11309TIP3   OH255341   4.356   2.335   0.366 -0.3703  0.4912 -0.5141
11309TIP3    H155342   4.359   2.333   0.461 -0.0708 -0.1762 -0.5339
11309TIP3    H255343   4.438   2.294   0.338  0.9563  3.2339 -1.0754
11310TIP3   OH255344   1.296   0.401   2.382  0.3827  0.1865 -0.5477
11310TIP3    H155345   1.343   0.449   2.315  2.2768 -1.2567 -0.3196
11310TIP3    H255346   1.242   0.468   2.426  2.0278  1.8700 -0.9804
11311TIP3   OH255347   5.445   2.965  16.643 -0.1193 -0.1200 -0.0681
11311TIP3    H155348   5.476   2.874  16.641  1.8319  0.4721  0.2192
11311TIP3    H255349   5.524   3.016  16.663 -1.2620  1.6005  0.2627
11312TIP3   OH255350   4.472   3.671  11.606  0.8484  0.3337 -0.3193
11312TIP3    H155351   4.465   3.576  11.599 -0.9340  0.4255 -0.2295
11312TIP3    H255352   4.481   3.687  11.700  2.1027  0.2237 -0.4091
11313TIP3   OH255353   4.633   3.445   3.750  0.4364 -0.1788  0.6723
11313TIP3    H155354   4.643   3.519   3.690  1.3518 -0.8897 -0.0872
11313TIP3    H255355   4.653   3.482   3.836 -0.1379  0.6802  0.4505
11314TIP3   OH255356   1.717   6.674   3.526  0.7301 -0.0296 -0.5622
11314TIP3    H155357   1.693   6.694   3.436  0.4658  0.1809 -0.4464
11314TIP3    H255358   1.659   6.728   3.579  1.6730  0.7285 -0.2793
11315TIP3   OH255359   2.707   0.893   0.651  0.2153 -0.0241 -0.0976
11315TIP3    H155360   2.692   0.892   0.745 -0.3837 -0.1598 -0.1920
11315TIP3    H255361   2.798   0.864   0.641 -0.1003 -1.2356  0.3655
11316TIP3   OH255362   0.115   2.044  13.837 -0.3762  0.3818  0.0401
11316TIP3    H155363   0.144   2.003  13.756 -0.6167 -1.3723  0.8047
11316TIP3    H255364   0.172   2.007  13.905  0.2720  2.3199  0.6363
11317TIP3   OH255365   0.383   6.020  14.579 -0.5351  0.1340  0.1249
11317TIP3    H155366   0.347   5.960  14.514 -1.3833  0.3890  0.3466
11317TIP3    H255367   0.395   5.966  14.658 -2.3361  0.4645  0.6674
11318TIP3   OH255368   5.248   1.467  16.683  0.2536  0.5447  0.2682
11318TIP3    H155369   5.214   1.520  16.756  1.6100  1.6292  0.1444
11318TIP3    H255370   5.305   1.403  16.725  0.1691  0.4507  0.2413
11319TIP3   OH255371   4.387   2.833  13.856  0.7334  0.0619 -0.2358
11319TIP3    H155372   4.353   2.757  13.903  0.7460  1.0005  1.4096
11319TIP3    H255373   4.364   2.819  13.765 -0.7613 -1.1046  0.2890
11320TIP3   OH255374   0.397   1.759  10.632 -0.2489 -0.1382  0.1527
11320TIP3    H155375   0.475   1.705  10.625  0.1307  0.3172  0.7311
11320TIP3    H255376   0.423   1.845  10.598 -0.5130 -0.0014  0.2838
11321TIP3   OH255377   2.153   6.679   4.715 -0.3225 -0.3252 -0.3241
11321TIP3    H155378   2.201   6.690   4.633 -0.0738  0.6943 -0.0525
11321TIP3    H255379   2.122   6.766   4.737  1.0167 -0.2603  1.5051
11322TIP3   OH255380   3.246   6.066  14.178  0.8255  0.1297 -0.0179
11322TIP3    H155381   3.324   6.033  14.132 -0.5074 -3.4859  0.0475
11322TIP3    H255382   3.182   5.995  14.171 -2.8619  3.2055 -0.7998
11323TIP3   OH255383   4.553   0.048   3.865 -0.2715  0.2254 -0.1966
11323TIP3    H155384   4.565   0.105   3.941  0.7655  2.6404 -2.0390
11323TIP3    H255385   4.599   0.093   3.794 -1.0213 -2.0193 -2.2258
11324TIP3   OH255386   2.629   6.561  14.398 -0.3150 -0.0895  0.1119
11324TIP3    H155387   2.659   6.518  14.478  0.2193 -0.5990 -0.3480
11324TIP3    H255388   2.639   6.495  14.330  0.6431  0.7878 -0.6408
11325TIP3   OH255389   0.185   3.190  16.706 -0.1663 -0.5027 -0.6261
11325TIP3    H155390   0.115   3.223  16.650 -1.0487  0.1992  0.8249
11325TIP3    H255391   0.171   3.234  16.790  0.9068 -1.7599  0.2479
11326TIP3   OH255392   5.383   6.125   4.190 -0.2734 -0.4705  1.0101
11326TIP3    H155393   5.378   6.186   4.264 -0.4703  1.8539 -0.7797
11326TIP3    H255394   5.296   6.131   4.149  1.0552  1.7333 -1.8334
11327TIP3   OH255395   4.468   3.837   2.734 -0.1289  0.1811  0.1594
11327TIP3    H155396   4.548   3.785   2.741  0.2144  0.5821 -0.6512
11327TIP3    H255397   4.497   3.927   2.745 -0.9621  0.1669  3.3709
11328TIP3   OH255398   4.176   1.063   6.608  0.4778  0.8472 -1.0691
11328TIP3    H155399   4.234   0.989   6.590  0.5553  0.7690 -0.5134
11328TIP3    H255400   4.235   1.135   6.630  0.3452  0.4810  0.5642
11329TIP3   OH255401   4.457   2.976   3.358  0.2197 -0.5454  0.1130
11329TIP3    H155402   4.400   2.977   3.435  0.8201 -1.0953  0.5808
11329TIP3    H255403   4.505   2.894   3.366  2.1911  0.5954  0.5681
11330TIP3   OH255404   4.903   5.969  17.099 -0.4761  0.2244  0.6851
11330TIP3    H155405   4.937   5.885  17.068  2.8186  0.6751  2.6450
11330TIP3    H255406   4.926   6.031  17.030 -1.4242 -0.1610 -0.0039
11331TIP3   OH255407   2.135   6.591  11.716 -0.3817  0.0232  0.0092
11331TIP3    H155408   2.098   6.678  11.699 -0.4500  0.2272  1.1024
11331TIP3    H255409   2.076   6.553  11.781  0.6568 -0.1271  0.8791
11332TIP3   OH255410   2.349   2.645  10.877 -0.5944 -0.2449 -0.1555
11332TIP3    H155411   2.285   2.699  10.923 -0.3959 -0.8407  0.8594
11332TIP3    H255412   2.370   2.694  10.798 -0.9166  0.8413  0.4114
11333TIP3   OH255413   4.065   6.494  13.821 -0.0796  0.3866 -0.7247
11333TIP3    H155414   4.111   6.447  13.751 -0.4168 -0.1024 -0.6168
11333TIP3    H255415   4.058   6.584  13.788  0.3275  0.3050 -1.0468
11334TIP3   OH255416   0.091   0.489  11.543  0.3327  0.3097  0.7330
11334TIP3    H155417   0.141   0.407  11.540 -0.1358  0.0372 -0.5371
11334TIP3    H255418   0.007   0.464  11.582  0.0253  0.0576 -0.0483
11335TIP3   OH255419   3.855   1.928   1.805  0.5298 -0.6321  0.1045
11335TIP3    H155420   3.918   1.985   1.760 -0.7616 -0.1517 -1.1755
11335TIP3    H255421   3.875   1.940   1.898  0.4795  1.7999 -0.1106
11336TIP3   OH255422   0.836   2.664   1.397 -0.3050 -0.0084 -0.1935
11336TIP3    H155423   0.837   2.605   1.471 -0.2559 -0.0747 -0.2474
11336TIP3    H255424   0.814   2.609   1.322 -2.1027  0.3557  0.0362
11337TIP3   OH255425   5.053   3.802   6.628  0.0323 -0.1903 -0.1552
11337TIP3    H155426   5.051   3.834   6.538  2.4895 -0.5301 -0.4101
11337TIP3    H255427   5.053   3.882   6.681  2.6636  0.2330 -0.6633
11338TIP3   OH255428   1.187   0.877   2.103 -0.0564 -0.9142 -0.0705
11338TIP3    H155429   1.229   0.959   2.127 -0.6991 -0.8790  1.0154
11338TIP3    H255430   1.148   0.893   2.017 -0.6250  0.1028  0.3630
11339TIP3   OH255431   4.398   6.442  16.619 -0.2654  0.2317  0.0938
11339TIP3    H155432   4.461   6.471  16.685  1.2454 -0.7549 -0.8396
11339TIP3    H255433   4.335   6.514  16.612 -1.2195 -0.1154  3.4427
11340TIP3   OH255434   4.053   5.541   1.455 -0.0362  0.4719  0.2229
11340TIP3    H155435   4.072   5.473   1.390 -2.1584  0.7025 -0.7260
11340TIP3    H255436   4.021   5.615   1.404 -0.0201  1.3419  1.4173
11341TIP3   OH255437   0.186   2.248  13.067  0.1302 -0.3041 -0.5008
11341TIP3    H155438   0.141   2.202  12.996 -0.2066  0.0742 -0.5342
11341TIP3    H255439   0.218   2.329  13.027 -0.8014  0.3189 -0.0283
11342TIP3   OH255440   3.289   1.302  17.137 -0.1370 -0.1027  0.2025
11342TIP3    H155441   3.351   1.368  17.167  0.2854  0.8693 -2.5442
11342TIP3    H255442   3.344   1.226  17.115 -0.2372 -0.1730  0.1949
11343TIP3   OH255443   5.223   0.604   3.888 -0.5703 -0.1069  0.0870
11343TIP3    H155444   5.139   0.644   3.908  0.0887  0.7132  1.3851
11343TIP3    H255445   5.202   0.531   3.830 -2.2568 -0.3587  0.9506
11344TIP3   OH255446   1.619   4.075  16.532  0.0638 -0.3600 -0.0877
11344TIP3    H155447   1.610   4.109  16.621  0.0139 -0.7629  0.0619
11344TIP3    H255448   1.571   4.138  16.478 -1.9938 -1.3689  0.4549
11345TIP3   OH255449   6.060   3.331   5.220  0.4269  0.0674 -0.1642
11345TIP3    H155450   6.017   3.249   5.246  0.8142 -0.3817 -0.9199
11345TIP3    H255451   6.009   3.363   5.147 -1.4387  2.0064  1.8443
11346TIP3   OH255452   2.942   1.952   6.722 -0.5574  0.6026 -0.2690
11346TIP3    H155453   2.894   2.034   6.719 -0.7217  0.5834  1.1206
11346TIP3    H255454   2.986   1.953   6.807  0.1998 -0.3298 -0.6239
11347TIP3   OH255455   5.433   3.684   0.102  0.2544 -0.4220  0.4520
11347TIP3    H155456   5.512   3.642   0.070  1.3227  1.9543 -0.2140
11347TIP3    H255457   5.366   3.664   0.036  1.0308 -0.1250 -0.4369
11348TIP3   OH255458   3.916   1.655  14.336 -0.0436  0.9076 -0.4803
11348TIP3    H155459   3.885   1.697  14.256  1.5506 -0.8437 -2.1218
11348TIP3    H255460   4.001   1.696  14.354  0.0747  0.5818 -0.2883
11349TIP3   OH255461   4.436   5.893   5.310 -0.0820  0.0640  0.3789
11349TIP3    H155462   4.516   5.944   5.320 -0.5129  0.6519  0.9111
11349TIP3    H255463   4.463   5.802   5.325  0.1726  0.4293  2.4760
11350TIP3   OH255464   5.521   3.035  12.563 -0.0088 -0.3283 -0.6755
11350TIP3    H155465   5.505   2.977  12.489 -0.7491 -0.8550 -0.1183
11350TIP3    H255466   5.609   3.012  12.593  0.6202  0.4257 -1.8425
11351TIP3   OH255467   3.111   2.858   1.365 -0.4429 -0.0360 -0.1304
11351TIP3    H155468   3.193   2.811   1.352  0.5594  0.9638  2.0326
11351TIP3    H255469   3.114   2.931   1.303 -0.5863 -1.0292 -1.3369
11352TIP3   OH255470   4.452   2.167   2.385 -0.2778  0.7237 -0.4158
11352TIP3    H155471   4.424   2.115   2.310  1.5998  2.0264 -2.1334
11352TIP3    H255472   4.456   2.257   2.352  0.5102  1.3545  1.2774
11353TIP3   OH255473   6.393   6.516  16.367 -0.3296  0.5665 -0.1174
11353TIP3    H155474   6.422   6.577  16.435 -0.1414  0.1637  0.1650
11353TIP3    H255475   6.298   6.529  16.362 -0.3644  0.4835  0.3312
11354TIP3   OH255476   3.766   6.477   1.710 -0.3436  0.0806 -0.0286
11354TIP3    H155477   3.804   6.505   1.793  3.1011 -0.5571 -1.1969
11354TIP3    H255478   3.796   6.542   1.646 -0.8366 -0.7502 -1.1506
11355TIP3   OH255479   2.894   4.485   4.452 -0.1452 -1.1151 -0.0920
11355TIP3    H155480   2.975   4.497   4.501  0.4538  0.5153 -1.3610
11355TIP3    H255481   2.825   4.518   4.510  0.3212 -0.9590  0.3783
11356TIP3   OH255482   3.133   4.918   5.586 -0.3936  0.2423 -0.3272
11356TIP3    H155483   3.133   5.010   5.559 -2.7863 -0.1488 -1.8770
11356TIP3    H255484   3.224   4.891   5.574 -0.1075  1.7654 -2.2601
11357TIP3   OH255485   5.424   5.835   1.056 -0.6423 -0.1313  0.3354
11357TIP3    H155486   5.433   5.759   1.113  1.1870 -1.6965 -1.9064
11357TIP3    H255487   5.357   5.810   0.993  0.9938 -0.5434 -1.3088
11358TIP3   OH255488   1.929   2.197  16.448  0.2382  0.3091 -0.0734
11358TIP3    H155489   1.847   2.246  16.453 -0.6561 -1.1186 -0.1667
11358TIP3    H255490   1.921   2.130  16.516  1.2750  0.0584 -0.1803
11359TIP3   OH255491   4.511   2.091  15.938  0.3832  0.3713  0.6723
11359TIP3    H155492   4.574   2.021  15.920 -1.0761 -0.7062 -0.4884
11359TIP3    H255493   4.536   2.124  16.024  1.0215 -1.6711  1.3320
11360TIP3   OH255494   0.572   5.417  11.362  0.1125 -0.5826 -0.2142
11360TIP3    H155495   0.581   5.326  11.390  2.2280 -0.4003 -0.1516
11360TIP3    H255496   0.477   5.432  11.358 -0.3128 -3.0717 -1.1904
11361TIP3   OH255497   2.796   0.206  13.742  0.1544 -0.1762 -0.1223
11361TIP3    H155498   2.755   0.142  13.801 -0.0864 -1.7357 -1.8894
11361TIP3    H255499   2.836   0.270  13.800 -1.4282 -0.7603  1.7194
11362TIP3   OH255500   5.368   5.694   5.264 -0.1036 -0.1516 -0.1860
11362TIP3    H155501   5.450   5.742   5.249  0.9826 -2.1990 -1.2186
11362TIP3    H255502   5.307   5.730   5.200  0.1095  1.0338  0.2416
11363TIP3   OH255503   3.584   5.391   5.777  0.0974  0.2751 -0.2238
11363TIP3    H155504   3.581   5.372   5.871  0.3211  0.5331 -0.1599
11363TIP3    H255505   3.674   5.370   5.751  0.7175  2.2603  0.0937
11364TIP3   OH255506   1.005   5.226   0.151  0.4357  0.6527  0.0621
11364TIP3    H155507   0.952   5.305   0.165  0.1396  0.4991 -0.1614
11364TIP3    H255508   1.041   5.237   0.063 -0.0308  0.2981 -0.1755
11365TIP3   OH255509   5.092   1.659  13.036 -0.1374  0.4402 -0.3107
11365TIP3    H155510   5.035   1.736  13.037 -0.0273  0.5556 -1.4363
11365TIP3    H255511   5.102   1.638  12.943  2.2898  0.9051 -0.2196
11366TIP3   OH255512   2.046   2.772  14.301  0.2297  1.0429 -0.8997
11366TIP3    H155513   1.988   2.736  14.368  1.6893  1.0686  0.4697
11366TIP3    H255514   2.065   2.698  14.243 -0.2382  0.7391 -0.6684
11367TIP3   OH255515   2.408   2.713  14.375 -0.2331  0.8705 -0.5845
11367TIP3    H155516   2.480   2.765  14.409  1.2836 -2.2606  1.4580
11367TIP3    H255517   2.348   2.703  14.449 -0.9033  0.3810 -1.1707
11368TIP3   OH255518   1.394   3.961   2.020 -0.4527  0.0561  0.6327
11368TIP3    H155519   1.483   3.947   1.987 -0.9296 -1.2800 -0.2012
11368TIP3    H255520   1.352   4.014   1.953 -0.6530 -0.4107  0.3860
11369TIP3   OH255521   2.615   2.168  14.889 -0.0562 -0.9889  0.0111
11369TIP3    H155522   2.702   2.130  14.902 -0.3652 -1.2025  1.5345
11369TIP3    H255523   2.558   2.092  14.876 -0.1107 -0.8652 -0.5140
11370TIP3   OH255524   0.080   6.343  13.178  0.0141  0.0590  0.6457
11370TIP3    H155525   0.096   6.375  13.090  0.2088  1.4979  1.1744
11370TIP3    H255526   0.165   6.349  13.221 -0.5461  1.6624  1.6117
11371TIP3   OH255527   4.884   2.298   2.208  0.2603  0.5143 -0.1428
11371TIP3    H155528   4.889   2.361   2.279 -0.0003 -0.7917  1.0742
11371TIP3    H255529   4.838   2.345   2.138 -2.4858  0.8375  1.7052
11372TIP3   OH255530   3.812   5.498   0.915  0.1893 -0.6016 -0.0230
11372TIP3    H155531   3.813   5.428   0.850 -1.1726  0.9452 -1.8497
11372TIP3    H255532   3.735   5.550   0.892  2.5021  2.9632 -0.4617
11373TIP3   OH255533   6.160   5.355  12.384  0.1800  0.6485  0.6915
11373TIP3    H155534   6.194   5.269  12.408  0.4524  0.5117 -0.1500
11373TIP3    H255535   6.071   5.338  12.353 -0.1876  0.8298  1.6170
11374TIP3   OH255536   4.752   2.161  14.492  0.4268 -0.5291  0.8369
11374TIP3    H155537   4.836   2.162  14.540  0.0341 -1.0695  1.5470
11374TIP3    H255538   4.727   2.253  14.487  1.3994 -0.2892  0.0048
11375TIP3   OH255539   5.805   1.794  14.873 -0.0402 -0.6414 -0.3018
11375TIP3    H155540   5.856   1.844  14.936 -0.2027  0.8002 -1.2574
11375TIP3    H255541   5.787   1.711  14.916  1.0876 -0.2522  0.9612
11376TIP3   OH255542   5.911   4.129   2.566 -0.0193 -0.5892 -0.1600
11376TIP3    H155543   5.819   4.142   2.588  0.0164 -0.9303  0.2059
11376TIP3    H255544   5.936   4.049   2.613  0.1191 -1.2337 -1.2989
11377TIP3   OH255545   6.144   6.431  14.177 -0.1066 -0.1641 -0.7246
11377TIP3    H155546   6.200   6.507  14.165 -1.8538  1.2304 -0.3927
11377TIP3    H255547   6.205   6.358  14.187  1.6737  1.3689  0.3248
11378TIP3   OH255548   3.521   2.355  16.389 -0.0624  0.0008 -0.1236
11378TIP3    H155549   3.522   2.314  16.302  1.4767  0.0776 -0.1672
11378TIP3    H255550   3.595   2.316  16.435 -1.3456 -0.6427  1.4676
11379TIP3   OH255551   0.581   5.749   5.651  0.4709 -0.1676  0.1202
11379TIP3    H155552   0.617   5.833   5.679  0.4385  0.1817 -0.8520
11379TIP3    H255553   0.503   5.772   5.600 -0.9439 -0.8861  1.8265
11380TIP3   OH255554   2.273   6.112  15.074 -0.3120  0.1848  0.0259
11380TIP3    H155555   2.197   6.156  15.112  0.4498  0.9402  0.7113
11380TIP3    H255556   2.242   6.077  14.991 -1.4725  0.2624  0.4148
11381TIP3   OH255557   3.309   3.884  13.161 -0.3150 -0.0896  0.5886
11381TIP3    H155558   3.213   3.893  13.161 -0.1702  1.6270  0.5511
11381TIP3    H255559   3.340   3.953  13.103  0.9066 -1.6004 -0.6603
11382TIP3   OH255560   0.051   3.593   1.991  0.0805 -0.7239  0.1867
11382TIP3    H155561  -0.044   3.605   1.997 -0.3675 -2.6182 -1.7259
11382TIP3    H255562   0.086   3.643   2.064 -2.4501 -0.5973  1.4416
11383TIP3   OH255563   4.702   3.518   5.924 -0.4828 -0.1949  0.1030
11383TIP3    H155564   4.719   3.448   5.987  0.2500  0.8146  1.0663
11383TIP3    H255565   4.647   3.477   5.857  1.3242 -2.1609 -0.2809
11384TIP3   OH255566   0.450   4.948   5.156 -0.2402 -0.0468  0.2607
11384TIP3    H155567   0.394   4.915   5.226  0.8039 -0.4742  0.9164
11384TIP3    H255568   0.447   4.880   5.089 -1.2982  0.3941 -0.1517
11385TIP3   OH255569   4.098   3.993   2.975  0.3549  0.0503 -0.0041
11385TIP3    H155570   4.191   4.012   2.986  0.4657 -1.0266  1.1729
11385TIP3    H255571   4.095   3.937   2.897  0.6530  0.4085 -0.2735
11386TIP3   OH255572   4.830   4.586   1.060  0.0825 -0.3735 -0.3131
11386TIP3    H155573   4.810   4.600   0.968  2.6313  0.0321 -0.8517
11386TIP3    H255574   4.825   4.491   1.072 -0.7992 -0.3886 -0.6886
11387TIP3   OH255575   1.712   0.057  15.844  0.0499 -0.1527  0.2974
11387TIP3    H155576   1.646  -0.012  15.854 -1.6623  1.2892 -0.4259
11387TIP3    H255577   1.661   0.135  15.824  1.9935  1.1330  0.1533
11388TIP3   OH255578   3.331   4.543   3.406 -0.5235  0.2760 -0.0693
11388TIP3    H155579   3.421   4.552   3.438 -0.2186 -1.5447 -0.3164
11388TIP3    H255580   3.318   4.448   3.398 -1.1692  0.5295 -3.6844
11389TIP3   OH255581   5.620   3.839   3.250 -0.6187  0.2228  0.2139
11389TIP3    H155582   5.542   3.838   3.195 -0.1218 -1.2288 -0.5255
11389TIP3    H255583   5.597   3.783   3.325 -0.6521  0.6647  0.5351
11390TIP3   OH255584   0.229   1.753   1.461 -0.1706  0.0093  0.1353
11390TIP3    H155585   0.310   1.785   1.499 -0.9868  1.6030  0.6238
11390TIP3    H255586   0.161   1.809   1.499 -1.3335 -0.2695 -1.4319
11391TIP3   OH255587   4.964   5.732  15.350 -0.1187  0.2224  0.4072
11391TIP3    H155588   5.036   5.724  15.288 -1.7881 -0.0159 -1.6082
11391TIP3    H255589   4.985   5.671  15.421  1.1097 -0.6630 -0.6936
11392TIP3   OH255590   2.864   5.842  12.452 -0.0118 -0.4841  0.4269
11392TIP3    H155591   2.939   5.827  12.509  1.2446  0.6213 -0.8539
11392TIP3    H255592   2.847   5.757  12.412  1.6203 -0.4291 -0.4683
11393TIP3   OH255593   3.105   2.160   3.475 -0.4465 -0.0930  0.2883
11393TIP3    H155594   3.135   2.075   3.443 -1.1471 -0.0912 -0.4215
11393TIP3    H255595   3.013   2.164   3.448 -0.1572  1.2968 -0.5627
11394TIP3   OH255596   1.970   4.831   5.732  0.2484 -0.0125 -0.3415
11394TIP3    H155597   2.040   4.780   5.692 -0.7374 -0.0840 -2.0557
11394TIP3    H255598   1.995   4.923   5.716  0.5529  0.0005  0.1641
11395TIP3   OH255599   4.191   2.694  11.045  0.1372 -0.4122 -0.2461
11395TIP3    H155600   4.275   2.729  11.016 -0.3349  1.4385  0.4632
11395TIP3    H255601   4.173   2.739  11.127 -2.7717  1.3175 -1.6536
11396TIP3   OH255602   1.464   5.190  16.128  0.3458  0.0207  0.6200
11396TIP3    H155603   1.549   5.152  16.105  1.2803  1.8198  0.9328
11396TIP3    H255604   1.443   5.154  16.214  1.1307  0.0533  0.8332
11397TIP3   OH255605   6.595   3.017   3.823 -0.9865  0.1230  0.3674
11397TIP3    H155606   6.516   3.070   3.814  0.2095  1.9866  0.2718
11397TIP3    H255607   6.581   2.967   3.903 -1.3962  2.0932  1.6158
11398TIP3   OH255608   3.731   2.228  16.563  0.4213 -0.6372 -0.3081
11398TIP3    H155609   3.701   2.176  16.637  0.8666 -2.1748 -1.1500
11398TIP3    H255610   3.804   2.177  16.526 -0.0775 -0.1685 -2.0528
11399TIP3   OH255611   3.671   2.923   1.532 -0.0844  0.0758 -0.6195
11399TIP3    H155612   3.585   2.960   1.511 -0.2561  0.1654  0.1975
11399TIP3    H255613   3.727   2.948   1.458 -0.0961  2.2975  0.0574
11400TIP3   OH255614   2.690   6.755   1.594  0.5140 -0.6097  0.3751
11400TIP3    H155615   2.776   6.752   1.552  0.1609 -0.7434 -0.3510
11400TIP3    H255616   2.694   6.831   1.652  0.5651  0.4174 -0.9257
11401TIP3   OH255617   6.009   4.723  11.412  0.2953  0.1270  0.1551
11401TIP3    H155618   6.071   4.653  11.431 -0.2184 -0.1827  0.7353
11401TIP3    H255619   5.933   4.704  11.468 -0.1621  0.7159 -0.2456
11402TIP3   OH255620   3.322   3.094   5.017 -0.3113  0.3779  0.2094
11402TIP3    H155621   3.391   3.110   4.952  0.5329 -1.4769  0.5817
11402TIP3    H255622   3.370   3.078   5.099 -1.0067 -2.6764  0.1352
11403TIP3   OH255623   3.673   5.739   4.866 -0.1633 -0.3256 -0.3885
11403TIP3    H155624   3.614   5.671   4.898  0.3926 -0.4560  0.3981
11403TIP3    H255625   3.746   5.691   4.827  1.1014 -0.2740  1.7324
11404TIP3   OH255626   2.764   2.989  15.105  0.0600  0.0232 -0.3560
11404TIP3    H155627   2.850   3.031  15.109 -0.4563  1.0352  0.6472
11404TIP3    H255628   2.732   3.007  15.017  1.1457 -0.9275 -0.9566
11405TIP3   OH255629   3.100   0.236   5.805 -0.0435  0.3033  0.3467
11405TIP3    H155630   3.181   0.237   5.855  0.4731 -2.5537 -0.2682
11405TIP3    H255631   3.125   0.203   5.719 -1.5256  1.5606 -0.6165
11406TIP3   OH255632   0.337   3.099   2.333  0.4871  0.4193  0.4003
11406TIP3    H155633   0.253   3.142   2.348 -0.4498 -0.8493 -0.9708
11406TIP3    H255634   0.334   3.019   2.386 -0.7744 -1.5033 -2.3207
11407TIP3   OH255635   1.416   0.242  15.278 -0.4971  0.2244  0.0892
11407TIP3    H155636   1.447   0.310  15.338  1.3702 -0.0309 -0.5309
11407TIP3    H255637   1.475   0.168  15.293  1.4284  0.8275 -3.4250
11408TIP3   OH255638   2.050   1.430   3.758  0.2193 -0.2842 -0.1348
11408TIP3    H155639   2.019   1.413   3.846  0.0955 -1.1503 -0.3353
11408TIP3    H255640   2.116   1.363   3.742  1.0304  0.5336 -0.3102
11409TIP3   OH255641   0.392   5.030   3.275  0.1610  0.1784 -0.0229
11409TIP3    H155642   0.458   5.045   3.342  0.7802  1.2648 -0.8477
11409TIP3    H255643   0.379   5.116   3.235 -0.2708 -0.4293 -1.2151
11410TIP3   OH255644   5.350   2.340  15.297 -0.2755 -0.5775 -0.2694
11410TIP3    H155645   5.427   2.353  15.242 -0.3232 -2.0509 -0.7147
11410TIP3    H255646   5.293   2.282  15.247 -1.4375  0.0162  0.2970
11411TIP3   OH255647   6.042   5.241  11.261  0.0574  0.2076 -0.8686
11411TIP3    H155648   6.077   5.191  11.188 -3.0223 -2.5949 -0.6356
11411TIP3    H255649   5.989   5.179  11.311 -2.3560  3.2085  0.7075
11412TIP3   OH255650   2.764   5.876   5.184 -0.0004  0.4150 -0.1620
11412TIP3    H155651   2.849   5.844   5.157  0.1604  1.3246 -0.7670
11412TIP3    H255652   2.770   5.881   5.280  0.4589  0.0306 -0.1674
11413TIP3   OH255653   3.205   2.630   6.254  0.4367 -0.2603  0.2617
11413TIP3    H155654   3.154   2.552   6.278  0.6876 -1.1749 -1.8756
11413TIP3    H255655   3.266   2.642   6.326 -0.8750 -0.8955  1.5239
11414TIP3   OH255656   5.119   0.946  14.355  0.0595 -0.0494  0.4433
11414TIP3    H155657   5.062   0.908  14.421 -1.4765  0.9760 -0.2207
11414TIP3    H255658   5.084   0.914  14.272 -1.0542  2.3699 -0.1176
11415TIP3   OH255659   0.704   0.757  16.287 -0.0837 -0.3704  0.2681
11415TIP3    H155660   0.695   0.680  16.231 -0.1697  0.9091 -1.5772
11415TIP3    H255661   0.792   0.749  16.324  0.8201 -0.2443 -1.7277
11416TIP3   OH255662   5.717   0.450  13.312 -0.3438 -0.3351  0.6823
11416TIP3    H155663   5.775   0.396  13.365 -0.8553 -2.1014 -0.5047
11416TIP3    H255664   5.776   0.506  13.261  0.2205 -0.4463  1.1995
11417TIP3   OH255665   6.325   5.799   2.036  0.2022  0.1668 -0.1033
11417TIP3    H155666   6.280   5.716   2.024  1.2593 -0.4211 -0.1552
11417TIP3    H255667   6.277   5.861   1.982 -0.3038 -0.5180 -0.4522
11418TIP3   OH255668   4.166   4.790  10.812  0.9570  0.8801 -0.3056
11418TIP3    H155669   4.246   4.739  10.828  1.4433  1.3547 -1.1564
11418TIP3    H255670   4.198   4.876  10.787  0.1876  0.8273 -1.5145
11419TIP3   OH255671   5.190   0.811  16.547 -0.3914 -0.1871  0.3585
11419TIP3    H155672   5.229   0.884  16.594 -0.6998  0.2656 -0.0746
11419TIP3    H255673   5.260   0.779  16.490 -1.1579  1.9742 -1.9968
11420TIP3   OH255674   4.441   1.299   0.401 -0.1864 -0.3243 -0.4014
11420TIP3    H155675   4.363   1.324   0.352  0.6580  0.3542 -1.4400
11420TIP3    H255676   4.454   1.207   0.381 -1.2932 -0.7139  0.6015
11421TIP3   OH255677   5.008   2.569  12.567  0.1178 -0.4156  0.0618
11421TIP3    H155678   5.019   2.511  12.492 -1.5814  1.0882 -1.4518
11421TIP3    H255679   4.995   2.510  12.641  1.2219 -1.9486 -0.9149
11422TIP3   OH255680   1.778   1.923   0.533  0.3020  0.0777 -0.4137
11422TIP3    H155681   1.770   2.002   0.586  2.5424  0.8164 -1.0390
11422TIP3    H255682   1.716   1.937   0.461 -1.0803  0.1170  0.7492
11423TIP3   OH255683   3.151   2.057   2.579 -0.3984  0.2094 -0.1047
11423TIP3    H155684   3.079   2.113   2.551 -0.4370  0.3846  0.3236
11423TIP3    H255685   3.228   2.092   2.535 -0.6194 -0.1677 -0.8045
11424TIP3   OH255686   1.208   4.044   3.457 -0.3678  0.4222 -0.3614
11424TIP3    H155687   1.119   4.026   3.486 -0.9236  1.1468 -1.5527
11424TIP3    H255688   1.233   4.123   3.504  0.2256 -0.5898  1.0957
11425TIP3   OH255689   2.311   2.717   1.435 -0.1207 -0.9380 -0.6615
11425TIP3    H155690   2.377   2.767   1.388 -0.9970 -0.5407 -1.5130
11425TIP3    H255691   2.332   2.729   1.527  0.2844  0.1794 -0.8817
11426TIP3   OH255692   4.365   1.801   1.223 -0.0946  0.4306  0.9010
11426TIP3    H155693   4.353   1.719   1.272 -2.7434  0.6842  0.8293
11426TIP3    H255694   4.312   1.865   1.271 -2.1437  0.8781 -1.7378
11427TIP3   OH255695   0.467   6.414  16.120 -0.0042  0.1287  0.0455
11427TIP3    H155696   0.464   6.338  16.179  1.1008  0.3461  0.3912
11427TIP3    H255697   0.521   6.478  16.165  1.3952  0.0705 -1.4618
11428TIP3   OH255698   0.750   0.085   0.503 -0.4316 -0.0672  0.3654
11428TIP3    H155699   0.806   0.048   0.435 -0.7517 -0.3023  0.2250
11428TIP3    H255700   0.724   0.171   0.470  0.7689  0.5319  0.9418
11429TIP3   OH255701   6.275   1.625   4.243 -0.5498  0.3447 -0.5066
11429TIP3    H155702   6.348   1.564   4.227  1.3530  2.7274 -1.5741
11429TIP3    H255703   6.298   1.667   4.326 -1.0110  0.7282 -0.5754
11430TIP3   OH255704   4.767   4.805  16.043 -0.3672 -0.2039  0.1574
11430TIP3    H155705   4.825   4.744  15.997 -0.5799  0.0275 -0.4135
11430TIP3    H255706   4.825   4.847  16.107  0.8580  2.1194 -2.2856
11431TIP3   OH255707   4.509   3.617  13.507  0.2585 -0.4522 -0.1659
11431TIP3    H155708   4.492   3.523  13.502  0.1839 -0.4234 -0.4924
11431TIP3    H255709   4.429   3.657  13.474 -0.4015 -0.2219  1.6260
11432TIP3   OH255710   3.455   4.452   3.756 -0.4287 -0.3691 -0.3173
11432TIP3    H155711   3.410   4.532   3.781  0.7960 -0.4357  2.3815
11432TIP3    H255712   3.414   4.384   3.810 -0.6652 -1.4072 -1.7377
11433TIP3   OH255713   5.916   2.015   0.863  0.5524 -0.5542  0.0616
11433TIP3    H155714   5.990   2.066   0.897 -1.5386  2.6873  0.1795
11433TIP3    H255715   5.898   1.950   0.931  1.6731  0.3091  1.2385
11434TIP3   OH255716   5.817   5.715  14.363 -0.1934  0.1950  0.8955
11434TIP3    H155717   5.764   5.776  14.311  0.0640  0.3462  0.8054
11434TIP3    H255718   5.906   5.727  14.329 -0.0539  0.1555  1.2436
11435TIP3   OH255719   2.801   0.608   5.302 -0.3293  0.0122  0.2538
11435TIP3    H155720   2.760   0.684   5.262 -1.8490  0.2297  2.0856
11435TIP3    H255721   2.869   0.645   5.358  0.0749 -0.1159 -0.1453
11436TIP3   OH255722   5.130   0.358   3.714 -0.3355  0.0062 -0.1002
11436TIP3    H155723   5.120   0.406   3.632 -0.8592  1.9952  1.0377
11436TIP3    H255724   5.042   0.358   3.752  0.2236  0.7761  1.2769
11437TIP3   OH255725   2.111   0.090  15.165  0.0010 -0.3381 -0.8699
11437TIP3    H155726   2.144   0.149  15.096  0.6297  1.5924  0.9751
11437TIP3    H255727   2.191   0.050  15.201 -0.1944 -0.2121 -0.2997
11438TIP3   OH255728   4.842   0.652  15.199  0.1746 -0.7139  0.2351
11438TIP3    H155729   4.763   0.678  15.246  0.8139 -1.0190  1.5256
11438TIP3    H255730   4.860   0.563  15.229  0.9470 -0.6913 -0.1265
11439TIP3   OH255731   1.376   2.080  14.593  0.6187  0.2950  0.2027
11439TIP3    H155732   1.398   1.987  14.601 -1.9887 -0.3242  1.1752
11439TIP3    H255733   1.373   2.096  14.499  0.1939 -0.8427  0.0137
11440TIP3   OH255734   0.323   3.498   0.444 -0.2658 -0.2893  0.1442
11440TIP3    H155735   0.388   3.565   0.466 -1.3512  0.7954  0.1238
11440TIP3    H255736   0.249   3.516   0.503 -2.0562  0.8273 -2.3044
11441TIP3   OH255737   5.423   1.471  12.845 -0.8299  1.0684 -0.0639
11441TIP3    H155738   5.342   1.431  12.813 -0.7084  0.0200  0.8672
11441TIP3    H255739   5.424   1.450  12.939  0.8710  0.4412 -0.1915
11442TIP3   OH255740   3.998   5.275   4.629 -0.2551  0.0179  0.1626
11442TIP3    H155741   3.971   5.286   4.720  0.8511  1.6775  0.3494
11442TIP3    H255742   4.088   5.309   4.627  0.2322 -1.2461 -1.2846
11443TIP3   OH255743   4.073   3.833   2.757  0.2519  0.2577 -0.1558
11443TIP3    H155744   4.047   3.781   2.681 -0.0147  1.2746 -0.7723
11443TIP3    H255745   4.163   3.804   2.775  0.4265  0.1964 -1.0427
11444TIP3   OH255746   5.003   2.192   0.980 -0.5738  0.1519  0.2333
11444TIP3    H155747   5.091   2.155   0.977 -0.5212  0.2653  0.3490
11444TIP3    H255748   4.957   2.140   1.045 -0.7841 -0.3171 -0.2894
11445TIP3   OH255749   3.510   2.811   2.103  0.1932 -0.4755  0.4309
11445TIP3    H155750   3.584   2.760   2.069 -0.2055 -1.4913  1.0421
11445TIP3    H255751   3.445   2.745   2.126  0.0712  0.2371  2.2302
11446TIP3   OH255752   3.736   4.157   1.282  0.0654  0.3281  0.1555
11446TIP3    H155753   3.718   4.072   1.242  0.1311 -0.0550  0.9140
11446TIP3    H255754   3.657   4.208   1.266 -0.5494 -0.3555  0.8958
11447TIP3   OH255755   2.787   1.420   5.575  0.1008 -0.3947  0.2043
11447TIP3    H155756   2.707   1.461   5.608 -0.7407 -1.3861 -0.5261
11447TIP3    H255757   2.809   1.469   5.496 -1.2323 -1.6094 -0.9967
11448TIP3   OH255758   0.186   3.382  13.462  0.6851  0.2599 -0.0041
11448TIP3    H155759   0.130   3.320  13.414  0.8862  0.8523 -1.0375
11448TIP3    H255760   0.256   3.403  13.401  2.8954 -1.5351  1.7456
11449TIP3   OH255761   4.687   6.324   2.076  0.2225  0.2014  0.6331
11449TIP3    H155762   4.716   6.415   2.076  1.1681 -0.0818  0.0483
11449TIP3    H255763   4.647   6.311   1.990  1.3746 -0.2972  0.1413
11450TIP3   OH255764   3.643   4.876  12.994  0.5330  0.3812 -0.8210
11450TIP3    H155765   3.734   4.906  12.999  0.9007 -0.8936  1.5677
11450TIP3    H255766   3.602   4.912  13.073 -0.7271 -0.0485 -1.2548
11451TIP3   OH255767   3.817   1.336  11.934 -0.3287 -0.2059 -0.0968
11451TIP3    H155768   3.756   1.391  11.884 -0.6505  1.2479  1.7797
11451TIP3    H255769   3.763   1.263  11.965 -0.9895  0.6774  0.9145
11452TIP3   OH255770   4.283   0.825  14.895  0.1264  0.9284 -0.4499
11452TIP3    H155771   4.210   0.883  14.918 -0.3042  1.5147 -2.9453
11452TIP3    H255772   4.286   0.828  14.799  2.1837 -0.6607 -0.5012
11453TIP3   OH255773   3.243   3.794   2.372 -0.2078  0.5820  0.1808
11453TIP3    H155774   3.312   3.817   2.434  0.5237 -0.0455 -0.3711
11453TIP3    H255775   3.281   3.723   2.320 -1.7996 -0.8283  0.8378
11454TIP3   OH255776   3.784   6.069  14.981  0.7731 -0.4228 -0.3013
11454TIP3    H155777   3.779   6.164  14.984 -0.3419 -0.4340 -0.8615
11454TIP3    H255778   3.711   6.044  14.923  1.8368 -1.5348 -1.2121
11455TIP3   OH255779   3.330   2.420  15.267  0.2164 -0.3300  0.3372
11455TIP3    H155780   3.250   2.367  15.262 -0.1416  0.0945  1.2618
11455TIP3    H255781   3.302   2.507  15.239  0.5572 -0.3754 -0.1560
11456TIP3   OH255782   3.129   5.677  14.562  0.1104 -0.5372  0.3629
11456TIP3    H155783   3.221   5.685  14.535 -0.0757 -1.8062 -0.7752
11456TIP3    H255784   3.080   5.724  14.495 -0.0453  1.0686  1.5439
11457TIP3   OH255785   1.917   5.250   0.874  0.3452  0.0646 -0.2243
11457TIP3    H155786   1.858   5.267   0.801  1.1044  1.6061 -0.5313
11457TIP3    H255787   1.880   5.174   0.919 -1.0392  0.1106 -1.2445
11458TIP3   OH255788   5.205   4.751  16.383 -0.2026 -0.0968  0.1102
11458TIP3    H155789   5.243   4.790  16.461 -0.8343 -0.6416  0.6990
11458TIP3    H255790   5.281   4.720  16.333  0.2145  0.4503  0.3909
11459TIP3   OH255791   3.513   6.159  13.765  0.3488  0.4434 -0.5159
11459TIP3    H155792   3.424   6.141  13.735  1.3275 -0.6222 -3.1174
11459TIP3    H255793   3.560   6.076  13.752  1.8377  1.0809  0.4272
11460TIP3   OH255794   0.419   4.839   4.302  0.0931 -0.7095 -0.5416
11460TIP3    H155795   0.365   4.878   4.371  0.1452  1.5135 -1.6577
11460TIP3    H255796   0.357   4.820   4.231  0.5714  1.3563 -1.6181
11461TIP3   OH255797   0.188   0.288   5.657  0.0508  0.8058 -0.0849
11461TIP3    H155798   0.146   0.374   5.656 -2.1712 -0.1905 -0.7137
11461TIP3    H255799   0.186   0.261   5.749  0.1576  1.1539  0.0191
11462TIP3   OH255800   5.860   6.590   4.952 -0.0597 -0.0830  0.0392
11462TIP3    H155801   5.791   6.625   4.896  0.0893 -0.4458 -0.3785
11462TIP3    H255802   5.937   6.586   4.895  0.3391  0.4352  0.5325
11463TIP3   OH255803   6.429   0.666  14.090 -0.2005  0.2053 -0.0504
11463TIP3    H155804   6.508   0.662  14.037 -0.8031 -1.7546 -0.9126
11463TIP3    H255805   6.361   0.628  14.034 -1.1484 -0.6800  1.6180
11464TIP3   OH255806   3.541   4.821   2.560 -0.0987  0.6213 -0.5578
11464TIP3    H155807   3.543   4.852   2.650 -1.2355  3.0822 -1.3119
11464TIP3    H255808   3.452   4.786   2.549  0.1700 -0.0662 -0.6456
11465TIP3   OH255809   0.232   4.386   2.864 -1.0327 -0.2921 -0.3855
11465TIP3    H155810   0.327   4.386   2.871 -1.1323 -0.4615  1.7120
11465TIP3    H255811   0.214   4.419   2.777  0.9266  1.0266 -0.3439
11466TIP3   OH255812   5.805   4.649   3.927 -0.5057 -0.0935 -0.0878
11466TIP3    H155813   5.797   4.554   3.925  0.5908 -0.1801 -0.8253
11466TIP3    H255814   5.727   4.681   3.880 -1.3437 -0.5765  0.9342
11467TIP3   OH255815   2.716   3.486  13.408 -0.5658 -0.2083  0.0719
11467TIP3    H155816   2.639   3.472  13.353  0.5368  0.7846 -1.8149
11467TIP3    H255817   2.763   3.402  13.405 -0.5314 -0.1704 -0.4821
11468TIP3   OH255818   1.110   5.401   4.308  0.1934  0.4047  0.0649
11468TIP3    H155819   1.016   5.422   4.309  0.3211  1.2198 -1.4091
11468TIP3    H255820   1.151   5.473   4.356  0.3104  1.7880 -1.9911
11469TIP3   OH255821   6.469   5.727   4.001  0.7978 -0.5685 -0.1734
11469TIP3    H155822   6.529   5.665   4.041  0.5902 -0.3825  0.4463
11469TIP3    H255823   6.427   5.771   4.075 -0.6425 -1.2106 -0.5748
11470TIP3   OH255824   0.679   3.396   2.082 -0.1144  0.2202  0.6449
11470TIP3    H155825   0.691   3.315   2.032  2.0673  0.5388  0.5391
11470TIP3    H255826   0.744   3.456   2.045  0.6457  0.9128  2.9356
11471TIP3   OH255827   0.450   0.362  10.878 -0.9210 -0.4490 -0.0085
11471TIP3    H155828   0.478   0.284  10.831  2.3735  0.2667  0.4980
11471TIP3    H255829   0.425   0.424  10.810  0.1775 -0.6888 -0.6578
11472TIP3   OH255830   3.377   2.640   1.011  0.5447 -0.4875 -0.0275
11472TIP3    H155831   3.359   2.636   0.917  1.5534  1.6381 -0.3795
11472TIP3    H255832   3.472   2.641   1.018  0.4950 -1.1930  1.0785
11473TIP3   OH255833   2.518   2.182   1.656  0.4200 -0.1065 -0.1896
11473TIP3    H155834   2.430   2.171   1.690  0.7287  0.3454  0.8009
11473TIP3    H255835   2.559   2.097   1.667 -0.1426 -0.5704 -1.4689
11474TIP3   OH255836   0.880   6.720  14.792 -0.2772  0.3160  0.5410
11474TIP3    H155837   0.908   6.762  14.710 -3.6497 -0.6509 -1.3105
11474TIP3    H255838   0.791   6.751  14.805 -0.3831 -0.8497  3.0126
11475TIP3   OH255839   4.048   5.808  16.613  0.0409 -0.5320 -0.0121
11475TIP3    H155840   4.134   5.784  16.649  0.0186  0.6297  0.8723
11475TIP3    H255841   4.040   5.902  16.630 -0.7222 -0.2927 -1.5563
11476TIP3   OH255842   4.160   0.389   4.505  0.4049  0.7320 -0.2489
11476TIP3    H155843   4.092   0.453   4.523  1.0177  0.8513  1.9793
11476TIP3    H255844   4.240   0.428   4.540  1.7314  0.6938 -3.0008
11477TIP3   OH255845   6.757   2.304  13.660  0.3089 -0.1202 -0.4310
11477TIP3    H155846   6.838   2.296  13.609  0.4857 -0.3444 -0.1208
11477TIP3    H255847   6.722   2.215  13.663  1.0558 -0.3994  1.0498
11478TIP3   OH255848   3.472   0.211   4.151 -0.0219  0.1856 -0.5793
11478TIP3    H155849   3.471   0.138   4.089 -0.1161 -0.0389 -0.3191
11478TIP3    H255850   3.487   0.288   4.098 -0.8584  0.0834 -0.9813
11479TIP3   OH255851   4.581   4.547   1.952  0.1400 -0.4891 -0.0756
11479TIP3    H155852   4.608   4.639   1.943  0.2755 -0.5360 -0.1570
11479TIP3    H255853   4.612   4.523   2.040 -1.9580  0.2294  0.9167
11480TIP3   OH255854   5.543   6.161   3.790  0.3890 -0.4511 -0.6455
11480TIP3    H155855   5.459   6.118   3.777  1.0358 -1.5835 -1.3220
11480TIP3    H255856   5.528   6.252   3.764 -1.0361 -0.1937  0.9056
11481TIP3   OH255857   5.153   1.811  14.926 -0.1757  0.1528  0.0474
11481TIP3    H155858   5.145   1.837  15.018 -0.6453  1.2729 -0.2850
11481TIP3    H255859   5.156   1.716  14.928 -1.2541  0.1152  1.1585
11482TIP3   OH255860   2.868   6.480  15.030 -0.0208  0.0411 -0.1145
11482TIP3    H155861   2.882   6.541  15.103  0.9927 -0.2268 -0.0690
11482TIP3    H255862   2.883   6.394  15.069  1.8832 -0.0387 -0.9161
11483TIP3   OH255863   5.908   5.481  16.960 -0.4762  0.5335  0.0422
11483TIP3    H155864   5.909   5.552  17.025 -3.8174  1.0273 -0.2897
11483TIP3    H255865   5.965   5.414  16.998  0.1654  2.0517  1.9614
11484TIP3   OH255866   4.552   3.923  11.060  0.1042 -0.3208 -0.7680
11484TIP3    H155867   4.610   3.939  10.985  1.2618 -1.3642 -0.1421
11484TIP3    H255868   4.505   3.843  11.038  0.0617 -0.3384 -0.6187
11485TIP3   OH255869   3.526   5.981  12.946 -0.2959  0.0528  0.7236
11485TIP3    H155870   3.536   5.891  12.978 -1.1893 -0.7499 -1.1198
11485TIP3    H255871   3.461   6.021  13.004  1.1467  0.0171  2.4515
11486TIP3   OH255872   6.360   0.255   2.164  0.6150  0.5328 -0.1835
11486TIP3    H155873   6.277   0.216   2.192  0.9567  0.0909  0.2199
11486TIP3    H255874   6.340   0.348   2.155  0.0503  0.4191 -0.1773
11487TIP3   OH255875   6.060   5.944  14.820  0.0247 -0.0995 -0.0115
11487TIP3    H155876   6.001   5.892  14.874 -0.0519 -1.3026 -1.2086
11487TIP3    H255877   6.015   5.951  14.735  0.8914  0.3074 -0.4490
11488TIP3   OH255878   3.194   2.095   0.504  0.1380 -1.5404 -0.1518
11488TIP3    H155879   3.101   2.109   0.490  0.0941  0.2420  1.4756
11488TIP3    H255880   3.233   2.099   0.417 -0.9415  1.2718 -0.6024
11489TIP3   OH255881   3.726   3.477  16.704 -0.0297  0.6210 -0.3141
11489TIP3    H155882   3.672   3.398  16.704  1.3338 -0.3677 -1.5877
11489TIP3    H255883   3.673   3.543  16.749 -2.1423 -0.3779 -1.2286
11490TIP3   OH255884   1.306   3.307  16.460 -0.4968  0.4973 -0.0325
11490TIP3    H155885   1.223   3.340  16.495 -0.1646  0.7194  0.5710
11490TIP3    H255886   1.326   3.364  16.387 -0.8230  0.5062 -0.1162
11491TIP3   OH255887   4.637   3.345   0.504 -0.9717  0.9680 -0.2989
11491TIP3    H155888   4.693   3.267   0.507  0.7848  1.9555 -3.4767
11491TIP3    H255889   4.667   3.399   0.578  1.4581  0.8783 -1.1462
11492TIP3   OH255890   5.114   6.747   4.535  0.0836 -0.3272  0.5193
11492TIP3    H155891   5.196   6.796   4.540 -1.1023  1.7985  0.3871
11492TIP3    H255892   5.133   6.675   4.475  1.6110  0.6535 -0.2531
11493TIP3   OH255893   6.205   3.620   5.594  0.8187  0.2693  0.1264
11493TIP3    H155894   6.265   3.545   5.593  2.7416  1.7300  0.1267
11493TIP3    H255895   6.176   3.628   5.504 -1.3355 -1.8471  0.5147
11494TIP3   OH255896   5.643   2.581   2.160 -0.1183  0.2242 -0.0105
11494TIP3    H155897   5.652   2.499   2.208 -0.4576 -0.5258 -1.1990
11494TIP3    H255898   5.681   2.647   2.219  1.3777 -0.9554  0.4145
11495TIP3   OH255899   2.589   5.016   1.559 -0.2949  0.2036  0.1798
11495TIP3    H155900   2.521   4.948   1.562 -1.3176  1.0522 -1.7089
11495TIP3    H255901   2.541   5.098   1.572  0.8851  0.6421  2.1767
11496TIP3   OH255902   0.233   3.361   5.150  0.0975  0.1755 -0.1317
11496TIP3    H155903   0.140   3.343   5.133  0.3160 -1.1055 -0.0079
11496TIP3    H255904   0.254   3.432   5.089 -1.0789  0.8171  0.1741
11497TIP3   OH255905   2.976   3.730  11.271 -0.3397  0.7367  0.5069
11497TIP3    H155906   2.982   3.815  11.226 -1.0240  2.6329  3.6778
11497TIP3    H255907   2.892   3.694  11.243 -0.6823  1.7823  0.1217
11498TIP3   OH255908   2.214   2.957   1.855 -0.1810 -0.0427  0.4535
11498TIP3    H155909   2.164   2.922   1.929 -1.1933 -0.7849 -0.5470
11498TIP3    H255910   2.284   2.893   1.841  0.5691  0.5625  1.3178
11499TIP3   OH255911   0.885   0.697  10.632  0.1109 -0.4660  0.3251
11499TIP3    H155912   0.864   0.770  10.690 -0.7919  0.6084 -1.2773
11499TIP3    H255913   0.833   0.713  10.553  1.5901 -1.6396 -0.9569
11500TIP3   OH255914   1.689   0.825  14.393  0.2811  0.3637 -0.3149
11500TIP3    H155915   1.730   0.869  14.319 -1.1920  0.3597 -1.1732
11500TIP3    H255916   1.619   0.773  14.354  0.5526 -0.9749  0.9164
11501TIP3   OH255917   6.121   1.017  12.410 -0.2201  0.4112  0.0072
11501TIP3    H155918   6.128   1.032  12.504 -1.1494  0.0043  0.1556
11501TIP3    H255919   6.154   1.097  12.370  1.2373  0.1666  0.6422
11502TIP3   OH255920   2.174   2.910  14.512 -0.4076  0.4990 -0.0859
11502TIP3    H155921   2.221   2.988  14.484 -0.7823 -0.1489 -2.7976
11502TIP3    H255922   2.143   2.870  14.431  2.0698 -3.9734  0.8346
11503TIP3   OH255923   1.296   1.716  10.645  0.0733  0.0437  0.5187
11503TIP3    H155924   1.293   1.650  10.715  0.4266  1.2578  1.7131
11503TIP3    H255925   1.215   1.703  10.597 -0.6699 -0.1485  1.7804
11504TIP3   OH255926   5.535   0.482  17.084  0.0698 -0.1169  0.6582
11504TIP3    H155927   5.613   0.535  17.103 -0.0996  1.0269 -1.4507
11504TIP3    H255928   5.542   0.463  16.990 -2.1445 -0.0501  0.4272
11505TIP3   OH255929   6.668   0.393  13.946  0.0498  0.3029  0.0563
11505TIP3    H155930   6.755   0.356  13.960  0.9020  1.7727 -1.1112
11505TIP3    H255931   6.682   0.487  13.946 -1.8211  0.6340  1.4754
11506TIP3   OH255932   0.488   0.867  12.564 -0.1261 -0.0460  0.0081
11506TIP3    H155933   0.510   0.809  12.491 -0.6298  0.7570 -0.7896
11506TIP3    H255934   0.571   0.879  12.610  0.3630  0.0430 -0.8708
11507TIP3   OH255935   6.230   5.694  16.491 -0.2869 -0.1951 -0.3520
11507TIP3    H155936   6.160   5.630  16.481  0.4986 -1.1404  0.0523
11507TIP3    H255937   6.185   5.776  16.512 -1.2027 -1.1887  1.7970
11508TIP3   OH255938   2.033   6.437  16.847  0.5057  0.4035  0.2640
11508TIP3    H155939   1.952   6.448  16.896  1.9387  0.7964  2.7552
11508TIP3    H255940   2.027   6.501  16.776 -0.1364  2.6505  2.1969
11509TIP3   OH255941   6.581   3.821   2.430  0.0803 -0.4400 -0.7599
11509TIP3    H155942   6.492   3.804   2.402  0.0547  0.3661 -1.1847
11509TIP3    H255943   6.572   3.866   2.514  0.0842 -0.2727 -0.8490
11510TIP3   OH255944   3.992   0.004   6.225  0.0677  0.4961 -0.3377
11510TIP3    H155945   3.953  -0.080   6.201  1.4005 -0.2754  0.0957
11510TIP3    H255946   4.017  -0.007   6.317  0.6031  1.2294 -0.3894
11511TIP3   OH255947   0.475   1.131  11.503 -0.3997 -0.3838 -0.3218
11511TIP3    H155948   0.474   1.113  11.597  1.4355  3.6541  0.6909
11511TIP3    H255949   0.399   1.189  11.489  0.0211  0.0104 -1.0515
11512TIP3   OH255950   0.715   5.613  13.435 -0.4425 -0.5242 -0.2645
11512TIP3    H155951   0.769   5.684  13.399  0.3216 -0.1252  1.5370
11512TIP3    H255952   0.717   5.628  13.530 -1.8817 -1.8417  0.0031
11513TIP3   OH255953   3.168   2.629   1.824  0.3327 -0.0950 -0.3032
11513TIP3    H155954   3.102   2.569   1.859  1.5918 -1.5445 -0.3115
11513TIP3    H255955   3.247   2.575   1.817  1.0200  1.0850 -2.0838
11514TIP3   OH255956   1.484   5.807   5.682 -0.4536 -0.1166  0.0809
11514TIP3    H155957   1.425   5.860   5.736 -0.6194 -1.3591  1.1873
11514TIP3    H255958   1.511   5.865   5.611 -0.9824  1.2795  0.9809
11515TIP3   OH255959   4.012   6.255  12.825  0.4310 -0.0565 -0.2143
11515TIP3    H155960   4.067   6.212  12.759  0.8729  0.4957 -0.2188
11515TIP3    H255961   4.049   6.227  12.908  1.8458  1.6627 -0.2105
11516TIP3   OH255962   3.134   2.187   4.346 -0.3251 -0.0204 -0.2825
11516TIP3    H155963   3.197   2.244   4.303 -0.5104  1.2740  1.0540
11516TIP3    H255964   3.177   2.162   4.429 -0.8829 -0.5329 -0.1405
11517TIP3   OH255965   2.339   2.049   3.821  0.1456  0.5817  0.3382
11517TIP3    H155966   2.358   2.120   3.882  1.4456  1.5756 -1.1469
11517TIP3    H255967   2.274   2.086   3.761  0.4923  0.3688 -0.1757
11518TIP3   OH255968   5.096   0.117   4.219 -0.2412  0.6392 -0.1008
11518TIP3    H155969   5.132   0.030   4.241 -0.6009  0.3167 -0.7836
11518TIP3    H255970   5.005   0.112   4.246 -0.1528  0.9639  0.2700
11519TIP3   OH255971   5.388   0.998  14.356  0.4492  0.2116  0.3214
11519TIP3    H155972   5.398   1.084  14.397  1.2449  0.6937 -0.8197
11519TIP3    H255973   5.299   0.971  14.377  0.8877  0.3153  2.5342
11520TIP3   OH255974   6.424   1.736  15.666  0.1669 -0.0211 -0.4825
11520TIP3    H155975   6.414   1.651  15.624 -1.1635  0.0612 -0.3693
11520TIP3    H255976   6.443   1.716  15.757 -0.7850 -0.2235 -0.3134
11521TIP3   OH255977   0.883   0.129  12.040 -0.2330 -1.0226 -0.4661
11521TIP3    H155978   0.830   0.053  12.016 -0.2024 -1.7774  1.6723
11521TIP3    H255979   0.962   0.092  12.079  0.7158  0.1163 -1.2468
11522TIP3   OH255980   3.934   6.226   1.529  0.5447 -0.2961 -0.0821
11522TIP3    H155981   3.940   6.153   1.591 -0.1900 -0.2355  0.0576
11522TIP3    H255982   3.880   6.291   1.572  1.7271  0.6293  0.0649
11523TIP3   OH255983   1.753   2.633  12.282 -0.1844  0.3973 -0.4668
11523TIP3    H155984   1.804   2.582  12.219  0.4053  0.2364  0.1162
11523TIP3    H255985   1.817   2.695  12.318 -0.2932 -0.0625  0.5565
11524TIP3   OH255986   0.887   0.478  10.796  0.6112 -0.2038 -0.1668
11524TIP3    H155987   0.913   0.424  10.721 -2.0166 -0.2029 -1.1913
11524TIP3    H255988   0.864   0.562  10.758 -0.7214 -0.1897  0.6212
11525TIP3   OH255989   1.291   5.954   4.068  0.4218 -0.0311 -0.4743
11525TIP3    H155990   1.324   6.037   4.103  1.3080 -0.1501 -1.0074
11525TIP3    H255991   1.367   5.913   4.027 -0.1085 -0.9091 -0.6003
11526TIP3   OH255992   3.940   1.749  10.725 -0.1303  0.4786 -0.2410
11526TIP3    H155993   3.877   1.678  10.737 -0.1899  0.5588 -0.0815
11526TIP3    H255994   3.978   1.732  10.638  1.5409 -1.0751  0.7258
11527TIP3   OH255995   0.202   2.106  16.324 -0.5634  0.0732 -0.3261
11527TIP3    H155996   0.159   2.023  16.300 -0.2134  0.4020 -2.2184
11527TIP3    H255997   0.252   2.085  16.403 -2.3471 -0.9016  0.6107
11528TIP3   OH255998   3.117   2.802  14.271 -0.1982 -0.3726  0.1596
11528TIP3    H155999   3.109   2.781  14.178  2.1535  0.8112 -0.3876
11528TIP3    H256000   3.125   2.898  14.272 -3.0566 -0.0272  1.8871
11529TIP3   OH256001   4.734   2.026  13.475 -0.3619  0.4566  0.1706
11529TIP3    H156002   4.703   2.086  13.407  1.3294 -2.1663 -3.2171
11529TIP3    H256003   4.654   1.998  13.521 -1.5617  2.3534 -0.6477
11530TIP3   OH256004   4.008   6.303  14.025  0.3183  0.1331  0.3646
11530TIP3    H156005   4.049   6.382  13.989  1.2727  0.4783  2.1021
11530TIP3    H256006   4.063   6.231  13.995  0.2626  0.2590 -0.0491
11531TIP3   OH256007   5.811   5.410  11.777  0.0924  0.1588  0.0962
11531TIP3    H156008   5.730   5.428  11.825  1.1707  0.3677  1.9498
11531TIP3    H256009   5.880   5.425  11.841  1.5295 -1.9532 -0.8544
11532TIP3   OH256010   6.701   0.172  10.985 -0.1759 -0.1060 -0.2819
11532TIP3    H156011   6.741   0.151  11.070 -4.2084  1.1252  2.1681
11532TIP3    H256012   6.719   0.265  10.972  0.5939 -0.3316 -0.9672
11533TIP3   OH256013   4.188   2.707   0.883 -0.1435  0.0757  0.7930
11533TIP3    H156014   4.274   2.678   0.853  0.1140 -0.1370  1.7059
11533TIP3    H256015   4.159   2.637   0.941 -0.9221  0.1647  0.5145
11534TIP3   OH256016   6.461   3.923  13.955  0.8623  0.4737  0.2270
11534TIP3    H156017   6.399   3.949  13.887  0.9633  0.8091  0.2614
11534TIP3    H256018   6.541   3.900  13.908  0.0676 -2.0464 -0.0082
11535TIP3   OH256019   2.972   3.311   5.894  0.0035 -0.3131 -0.0419
11535TIP3    H156020   2.914   3.301   5.969  1.1717 -0.3183  0.8759
11535TIP3    H256021   2.942   3.245   5.831 -1.5090  0.2456  0.0550
11536TIP3   OH256022   5.568   4.489  16.431  0.4215  0.2672 -0.4668
11536TIP3    H156023   5.558   4.404  16.388  3.2082 -0.2936 -0.1394
11536TIP3    H256024   5.567   4.468  16.524 -4.4775  1.3554  0.0288
11537TIP3   OH256025   0.178   3.107  10.854  0.5046  0.3804 -0.0344
11537TIP3    H156026   0.160   3.197  10.824  0.8781  0.6612  0.5770
11537TIP3    H256027   0.230   3.118  10.933  2.1858 -0.3902 -0.9756
11538TIP3   OH256028   4.783   1.753   0.228  0.3504  0.1857 -0.4953
11538TIP3    H156029   4.807   1.827   0.284  1.1854 -0.1241 -0.4332
11538TIP3    H256030   4.867   1.713   0.203 -0.1075 -1.7520  0.8326
11539TIP3   OH256031   3.743   0.259   1.456  0.5946 -0.2283  0.2607
11539TIP3    H156032   3.670   0.283   1.399  1.0023  2.2504  0.6676
11539TIP3    H256033   3.821   0.288   1.409  1.2446 -1.5943  0.4459
11540TIP3   OH256034   3.738   5.678  16.282 -0.7397  0.0686  0.0040
11540TIP3    H156035   3.758   5.601  16.228  0.9465  0.1523  0.4711
11540TIP3    H256036   3.699   5.641  16.362 -0.0476 -0.3008  0.1765
11541TIP3   OH256037   2.126   0.733   3.684 -0.6495  0.1453  0.0989
11541TIP3    H156038   2.131   0.827   3.701  0.9491  0.0922  0.0142
11541TIP3    H256039   2.143   0.725   3.590  1.0890 -0.3361  0.4197
11542TIP3   OH256040   4.771   2.387   1.172 -0.4444  0.0644 -0.2259
11542TIP3    H156041   4.806   2.316   1.226  1.3779  1.1644  0.1200
11542TIP3    H256042   4.739   2.451   1.235 -0.7544  0.1904 -0.5105
11543TIP3   OH256043   5.112   0.572   0.750 -0.3635  0.1328 -0.2275
11543TIP3    H156044   5.158   0.513   0.810 -1.3744  0.3207  0.7597
11543TIP3    H256045   5.037   0.604   0.800 -1.5490 -0.1171 -1.7645
11544TIP3   OH256046   4.192   4.843  17.244  0.0318 -0.3404 -0.1204
11544TIP3    H156047   4.113   4.794  17.267  0.8714 -1.4544  0.4437
11544TIP3    H256048   4.227   4.799  17.167 -0.4214  0.7672 -0.9885
11545TIP3   OH256049   4.584   5.694   1.006  0.0498 -0.5675  0.3723
11545TIP3    H156050   4.604   5.693   0.912 -0.7201 -0.7433  0.2033
11545TIP3    H256051   4.538   5.777   1.019 -0.7138 -0.9960  0.4059
11546TIP3   OH256052   6.162   6.094   0.968  0.1970  0.3836  0.5858
11546TIP3    H156053   6.163   6.189   0.962  0.4222  0.4791  1.8374
11546TIP3    H256054   6.093   6.066   0.909 -0.7423  1.4141  1.1700
11547TIP3   OH256055   0.526   5.248   4.176 -0.3503  0.5084  0.4573
11547TIP3    H156056   0.530   5.211   4.264 -1.8651  1.3942  0.9424
11547TIP3    H256057   0.491   5.336   4.189  0.0951  0.9219 -0.9712
11548TIP3   OH256058   2.589   2.165  16.614  0.3418 -0.1902 -0.0489
11548TIP3    H156059   2.653   2.120  16.558 -0.7564 -1.4382 -0.3581
11548TIP3    H256060   2.642   2.221  16.671  1.9539 -2.8305  1.2472
11549TIP3   OH256061   0.190   0.961  14.607  0.6763 -0.2299 -0.0078
11549TIP3    H156062   0.263   0.925  14.557  0.3632 -0.7723 -0.0899
11549TIP3    H256063   0.113   0.939  14.555  0.3831 -0.4535  0.5160
11550TIP3   OH256064   1.751   5.773  11.238 -0.0154 -0.2747  0.3669
11550TIP3    H156065   1.837   5.744  11.208  0.6029  0.4516  1.4022
11550TIP3    H256066   1.699   5.779  11.157  1.8586  2.4610 -0.7748
11551TIP3   OH256067   2.902   0.839   2.341  0.6589  0.6685 -0.1190
11551TIP3    H156068   2.878   0.852   2.249  0.5091  1.9797  0.0891
11551TIP3    H256069   2.821   0.811   2.383  0.2821  1.8088 -0.0598
11552TIP3   OH256070   6.343   1.245   5.680  0.6643  0.2271 -0.1649
11552TIP3    H156071   6.349   1.333   5.717  0.1515  0.3869 -0.4568
11552TIP3    H256072   6.383   1.189   5.747 -0.3596  0.4948  0.6989
11553TIP3   OH256073   0.608   0.837  12.275  0.4016 -0.2910  0.0696
11553TIP3    H156074   0.702   0.830  12.295  1.1296  1.1966 -2.3220
11553TIP3    H256075   0.596   0.929  12.249 -1.1278 -1.0133 -2.1115
11554TIP3   OH256076   3.356   5.982  12.679  0.8229  0.1597 -0.0193
11554TIP3    H156077   3.332   6.067  12.715  3.7549  0.8005  0.6903
11554TIP3    H256078   3.424   5.949  12.738 -0.2080 -2.6966 -0.2912
11555TIP3   OH256079   4.395   0.883   5.223  0.1221 -0.0636  0.2346
11555TIP3    H156080   4.321   0.835   5.260  1.0719 -2.0668 -0.3474
11555TIP3    H256081   4.354   0.953   5.171 -1.2730  0.5940  2.0780
11556TIP3   OH256082   1.888   2.025  10.900  0.2790  0.0569 -0.2259
11556TIP3    H156083   1.968   1.988  10.936 -0.0772 -0.5906 -0.0879
11556TIP3    H256084   1.860   1.963  10.833  1.0487  1.3565 -1.8093
11557TIP3   OH256085   0.172   5.075  16.198  0.1703  0.1458 -0.2444
11557TIP3    H156086   0.146   5.039  16.113  3.6137  0.4092 -1.5706
11557TIP3    H256087   0.252   5.029  16.220  0.2880  1.3307  2.0556
11558TIP3   OH256088   3.020   3.370  11.212 -0.0362  0.4226 -0.5662
11558TIP3    H156089   3.037   3.278  11.193  0.9290  0.4868 -0.0194
11558TIP3    H256090   3.025   3.413  11.126  1.5137  0.2692 -0.5768
11559TIP3   OH256091   1.432   6.318   0.136 -0.0776 -0.1530 -0.7782
11559TIP3    H156092   1.367   6.350   0.199 -0.7205  0.0325 -1.5179
11559TIP3    H256093   1.383   6.257   0.081  0.7707 -1.2481 -0.3521
11560TIP3   OH256094   3.309   3.941  15.413 -0.3794  0.3026 -0.1566
11560TIP3    H156095   3.218   3.913  15.403 -0.7508  0.9364  1.2074
11560TIP3    H256096   3.338   3.899  15.493  1.1960 -1.4601 -1.5688
11561TIP3   OH256097   1.495   6.658   6.639  0.2622  0.0430 -0.3113
11561TIP3    H156098   1.445   6.589   6.595  0.1727  0.8257 -1.4792
11561TIP3    H256099   1.434   6.731   6.646  0.7968  0.5062 -0.4165
11562TIP3   OH256100   0.038   5.347  16.769  0.8502  0.2300 -0.1627
11562TIP3    H156101  -0.045   5.394  16.770 -0.5301 -2.0834  0.9484
11562TIP3    H256102   0.021   5.269  16.717  1.5889 -1.4251  1.9451
11563TIP3   OH256103   3.635   1.450   2.412  0.5538 -0.0367 -0.4176
11563TIP3    H156104   3.691   1.500   2.473  0.5867  0.0998 -0.5584
11563TIP3    H256105   3.669   1.472   2.325  1.3402 -1.2344 -0.4329
11564TIP3   OH256106   0.233   1.916  17.277  0.4341  0.4325  0.3984
11564TIP3    H156107   0.237   2.010  17.257 -1.2686  0.7809  1.4989
11564TIP3    H256108   0.317   1.897  17.319  1.6781  0.9406 -1.6825
11565TIP3   OH256109   3.011   3.039  16.043  0.5463 -0.3820 -0.6223
11565TIP3    H156110   2.956   3.108  16.081  2.0352  1.5187 -1.7329
11565TIP3    H256111   3.096   3.049  16.087  0.4779 -2.3719  0.0835
11566TIP3   OH256112   4.906   2.227  16.250 -0.2027 -0.6013 -0.1704
11566TIP3    H156113   4.810   2.229  16.259 -0.3047  2.3248 -0.9476
11566TIP3    H256114   4.936   2.188  16.332 -2.0134  0.8228  1.2872
11567TIP3   OH256115   4.672   0.308  12.218  0.3511 -0.4158  0.2225
11567TIP3    H156116   4.693   0.333  12.307 -2.5711  1.4482  0.5418
11567TIP3    H256117   4.756   0.296  12.175  1.8399  0.2273  2.7946
11568TIP3   OH256118   5.410   3.653  15.866  0.4142 -0.6513  0.2395
11568TIP3    H156119   5.358   3.634  15.945 -0.9645  0.4060 -0.3626
11568TIP3    H256120   5.494   3.684  15.900  0.1952 -1.1294  1.2757
11569TIP3   OH256121   3.219   6.236  13.366  0.4423 -0.3155 -0.2634
11569TIP3    H156122   3.192   6.160  13.314  1.3483 -0.7302 -0.1522
11569TIP3    H256123   3.189   6.311  13.316 -0.4759 -0.7461 -0.3710
11570TIP3   OH256124   5.031   4.043   3.529  0.4446 -0.2462  0.3435
11570TIP3    H156125   5.077   4.126   3.519 -2.3510  1.6297  1.8436
11570TIP3    H256126   5.055   3.993   3.450  4.0153  0.9549  0.4975
11571TIP3   OH256127   6.719   0.301  10.258  0.0193 -0.6870  0.0133
11571TIP3    H156128   6.704   0.365  10.327 -0.0121  1.3202 -1.7400
11571TIP3    H256129   6.633   0.287  10.219  0.3434 -0.1800 -0.9222
11572TIP3   OH256130   0.137   3.175  14.579  0.2208  0.1101  0.0958
11572TIP3    H156131   0.161   3.230  14.504 -1.7538  0.6272 -0.2020
11572TIP3    H256132   0.211   3.115  14.588  2.0545  2.2285 -0.0955
11573TIP3   OH256133   4.121   2.180  14.586  0.0401  0.5149  0.1148
11573TIP3    H156134   4.186   2.164  14.518 -2.2451 -0.5693 -1.9999
11573TIP3    H256135   4.113   2.276  14.589  2.1886  0.7085  0.9832
11574TIP3   OH256136   3.922   2.675   1.500  0.3923  0.8662  0.3171
11574TIP3    H156137   3.879   2.753   1.534 -0.4641  0.6624 -0.2770
11574TIP3    H256138   3.970   2.706   1.423  0.6947  0.9444  0.5326
11575TIP3   OH256139   4.772   0.862   3.113 -0.1427 -0.3521  0.6734
11575TIP3    H156140   4.758   0.955   3.131  0.6224  0.2097 -1.3761
11575TIP3    H256141   4.867   0.852   3.107 -0.2519 -1.0563 -0.0786
11576TIP3   OH256142   4.959   2.258  16.648 -0.2984  0.1349 -0.0804
11576TIP3    H156143   4.953   2.173  16.605 -0.6703 -0.2577  0.7274
11576TIP3    H256144   4.898   2.314  16.601 -1.8518 -0.6988  0.8565
11577TIP3   OH256145   2.281   3.632   4.640  0.8805  0.2128 -0.4363
11577TIP3    H156146   2.356   3.666   4.690  1.7522 -2.3978  0.2037
11577TIP3    H256147   2.315   3.620   4.551  0.7562  0.4609 -0.5174
11578TIP3   OH256148   4.153   2.685   0.018  0.6172  0.0567 -0.3873
11578TIP3    H156149   4.181   2.753   0.079 -1.5015 -0.9327  1.8652
11578TIP3    H256150   4.069   2.715  -0.015  0.6146 -0.5423 -0.9438
11579TIP3   OH256151   4.182   2.127   1.897 -0.1423  0.1147  0.3190
11579TIP3    H156152   4.114   2.137   1.831  0.3762  1.5932 -0.0146
11579TIP3    H256153   4.263   2.152   1.853  0.2540  0.8628  1.4242
11580TIP3   OH256154   4.593   3.977   1.179 -0.1634 -0.0078  0.0680
11580TIP3    H156155   4.594   3.894   1.227 -0.5707  0.7893  1.4817
11580TIP3    H256156   4.673   4.022   1.207 -2.4438  2.3519  3.5337
11581TIP3   OH256157   4.774   5.350   5.179  0.7853 -0.3033  0.1725
11581TIP3    H156158   4.817   5.363   5.264 -1.5505  0.7558  1.2826
11581TIP3    H256159   4.748   5.258   5.179 -1.8782  0.3250  2.0717
11582TIP3   OH256160   1.520   0.890  12.265 -0.2293 -0.3980 -0.0289
11582TIP3    H156161   1.553   0.883  12.175  0.0412 -0.8643  0.1016
11582TIP3    H256162   1.452   0.823  12.271 -0.0217 -0.5917  0.2068
11583TIP3   OH256163   5.338   1.208  14.857 -0.3246 -0.1273 -0.4055
11583TIP3    H156164   5.331   1.275  14.926  0.6114 -2.0888  1.7355
11583TIP3    H256165   5.420   1.228  14.812 -0.6090  0.7883 -0.5419
11584TIP3   OH256166   0.547   0.274   3.712 -0.1245 -0.3184 -0.0851
11584TIP3    H156167   0.598   0.341   3.666 -1.8010  1.8302  0.9835
11584TIP3    H256168   0.585   0.191   3.683  2.2589  1.0620 -1.2683
11585TIP3   OH256169   3.673   2.303  13.530 -0.6222 -0.1926 -0.3592
11585TIP3    H156170   3.721   2.289  13.448 -0.2261 -0.8986 -0.0179
11585TIP3    H256171   3.685   2.396  13.549  0.3528 -0.2854 -0.4482
11586TIP3   OH256172   1.635   6.487   0.057  0.6076  0.9876 -0.5149
11586TIP3    H156173   1.553   6.438   0.065  0.0422  1.8654 -0.7848
11586TIP3    H256174   1.660   6.507   0.148  0.8885  0.1432 -0.4004
11587TIP3   OH256175   2.405   0.884  16.649 -0.1274 -0.0753 -0.1970
11587TIP3    H156176   2.342   0.953  16.669 -1.9111 -1.6050 -0.2696
11587TIP3    H256177   2.415   0.836  16.731  2.2002  1.0430  0.2494
11588TIP3   OH256178   3.801   0.329  12.046 -0.4037  0.1535 -0.2144
11588TIP3    H156179   3.897   0.327  12.048 -0.3759  1.1817  1.1408
11588TIP3    H256180   3.778   0.277  11.969  1.2180 -0.6044 -0.2447
11589TIP3   OH256181   6.408   1.478  12.384 -0.2005  0.6951 -0.5013
11589TIP3    H156182   6.460   1.405  12.418 -2.8054 -2.0135 -1.8761
11589TIP3    H256183   6.363   1.513  12.461 -0.3335 -0.4283 -0.0451
11590TIP3   OH256184   6.397   5.990   5.793 -0.2334  0.3434 -0.3066
11590TIP3    H156185   6.359   6.060   5.847 -0.4059 -0.0972  0.1513
11590TIP3    H256186   6.336   5.916   5.804  1.1721 -0.6660  1.1151
11591TIP3   OH256187   4.799   1.509  15.895 -0.3343  0.0236 -0.4446
11591TIP3    H156188   4.759   1.437  15.943  1.3379 -0.3900  0.4145
11591TIP3    H256189   4.814   1.576  15.961 -0.7506  0.6715 -0.9991
11592TIP3   OH256190   5.106   3.167  15.486  0.3039 -0.7416  0.9731
11592TIP3    H156191   5.188   3.119  15.481 -0.0736 -1.3077 -0.1534
11592TIP3    H256192   5.040   3.108  15.449 -0.4792 -0.0242  1.1657
11593TIP3   OH256193   3.941   0.584  13.487  0.5090 -0.4417  0.3120
11593TIP3    H156194   3.953   0.496  13.451  0.1693  0.1554 -1.3379
11593TIP3    H256195   4.005   0.638  13.440  0.1821  0.3430  0.7520
11594TIP3   OH256196   5.628   0.043   2.490 -0.0251 -0.0523  0.1692
11594TIP3    H156197   5.543   0.080   2.467  0.2686 -0.3266 -1.4545
11594TIP3    H256198   5.610  -0.016   2.563 -0.8820  1.4331  1.1965
11595TIP3   OH256199   4.997   5.496   1.587  0.1631 -0.0080  0.2790
11595TIP3    H156200   5.039   5.498   1.673  1.3265  0.4596 -0.2852
11595TIP3    H256201   5.066   5.471   1.526 -0.4542  0.4259 -0.6298
11596TIP3   OH256202   0.141   2.629   3.322 -0.5940 -0.0023 -0.4948
11596TIP3    H156203   0.216   2.631   3.382  0.8465  1.7200 -2.2477
11596TIP3    H256204   0.077   2.688   3.361 -1.7136 -2.4479  1.6855
11597TIP3   OH256205   1.149   2.794   1.191  0.1889  0.3936  0.1874
11597TIP3    H156206   1.242   2.776   1.196  0.6181  2.5868  1.4355
11597TIP3    H256207   1.143   2.888   1.178 -1.8690  0.0590 -2.0406
11598TIP3   OH256208   1.718   4.783  12.072  0.2707  0.3820  0.0733
11598TIP3    H156209   1.692   4.694  12.049  0.7390  0.3138 -0.2173
11598TIP3    H256210   1.673   4.802  12.154 -1.4238  0.6048 -0.8611
11599TIP3   OH256211   0.802   5.207  11.602 -0.1593  0.3052 -0.0062
11599TIP3    H156212   0.805   5.303  11.598 -0.9324  0.3060 -1.1002
11599TIP3    H256213   0.725   5.189  11.657 -0.5081  0.3267 -0.4771
11600TIP3   OH256214   5.215   2.634  11.952  0.0350 -0.1406  0.4573
11600TIP3    H156215   5.146   2.693  11.920  0.7546  1.2554  1.3624
11600TIP3    H256216   5.254   2.597  11.873 -1.2861 -0.4194 -0.0894
11601TIP3   OH256217   4.002   6.644   5.912 -0.5582  0.0964  0.3630
11601TIP3    H156218   4.083   6.602   5.939 -0.8118  0.4424  1.6997
11601TIP3    H256219   3.945   6.571   5.887 -0.7204 -0.3415  1.9122
11602TIP3   OH256220   2.928   6.439   2.121  0.2812  0.2137 -0.4707
11602TIP3    H156221   2.856   6.489   2.084  0.1912  0.7749  0.4346
11602TIP3    H256222   2.905   6.348   2.105 -0.6898  0.3816 -0.0948
11603TIP3   OH256223   5.592   2.341  13.575  0.1870 -0.2720 -0.3439
11603TIP3    H156224   5.612   2.289  13.497  1.2023 -0.8054  0.2509
11603TIP3    H256225   5.526   2.290  13.622 -1.4185  0.6904 -1.4899
11604TIP3   OH256226   5.318   0.558   4.178 -0.0679 -0.3628 -0.1625
11604TIP3    H156227   5.268   0.561   4.097 -0.0956  0.3539 -0.1220
11604TIP3    H256228   5.408   0.537   4.150  0.3046  1.5972 -0.5704
11605TIP3   OH256229   4.281   0.101   1.317 -0.2200  0.4935  0.2929
11605TIP3    H156230   4.325   0.071   1.238  0.2412  1.1174  0.3082
11605TIP3    H256231   4.275   0.196   1.308 -2.2188  0.3838 -0.0432
11606TIP3   OH256232   1.736   1.610   5.806 -0.3771  0.7818  0.3943
11606TIP3    H156233   1.701   1.563   5.882  0.8719 -2.0383 -0.6313
11606TIP3    H256234   1.826   1.577   5.797 -0.2147  1.6508 -1.8230
11607TIP3   OH256235   1.894   3.562   3.783  0.4777 -0.1942  0.0872
11607TIP3    H156236   1.899   3.639   3.726  0.9377 -0.5912 -0.4175
11607TIP3    H256237   1.801   3.556   3.806  0.2420 -0.1590 -0.8041
11608TIP3   OH256238   5.940   2.309  11.674 -0.1690 -1.2164 -0.2779
11608TIP3    H156239   6.018   2.268  11.635 -0.3286 -2.0597  0.2468
11608TIP3    H256240   5.899   2.238  11.723  0.0656 -0.1803  1.5020
11609TIP3   OH256241   2.603   2.691  16.534 -0.1292 -0.2390  0.0509
11609TIP3    H156242   2.634   2.761  16.591 -0.3020 -1.4655  1.7367
11609TIP3    H256243   2.512   2.714  16.515 -0.1211  0.1027  0.4115
11610TIP3   OH256244   0.158   5.409  11.531  0.1556  0.5728  0.4592
11610TIP3    H156245   0.104   5.396  11.453 -1.4598  1.9469  1.2775
11610TIP3    H256246   0.137   5.334  11.588  0.6926  0.0210 -0.0552
11611TIP3   OH256247   1.959   1.005  10.735 -0.2082  0.2970 -0.0700
11611TIP3    H156248   2.045   0.966  10.752  0.0307  0.6380 -0.4626
11611TIP3    H256249   1.907   0.933  10.701  0.4084  0.4293 -1.3568
11612TIP3   OH256250   4.155   5.760  13.345  0.0980 -0.1868 -0.7322
11612TIP3    H156251   4.189   5.848  13.361  0.2770 -0.1030 -1.5685
11612TIP3    H256252   4.081   5.752  13.405  0.0341  0.5641 -0.7069
11613TIP3   OH256253   5.170   0.742   1.117 -0.2990  0.0234 -0.6376
11613TIP3    H156254   5.163   0.784   1.031  1.2208 -2.4869 -2.1290
11613TIP3    H256255   5.240   0.789   1.161 -0.3370  0.6524 -1.2356
11614TIP3   OH256256   5.327   3.699   4.461 -0.0303 -0.6161  0.1204
11614TIP3    H156257   5.354   3.650   4.538 -0.4835 -0.2437  0.5270
11614TIP3    H256258   5.368   3.654   4.387 -0.0568 -1.3107  0.5289
11615TIP3   OH256259   1.933   4.173  12.754  0.1108 -0.1745  0.0833
11615TIP3    H156260   2.026   4.182  12.732  0.0748 -0.5317 -0.2236
11615TIP3    H256261   1.893   4.138  12.675 -0.1382 -0.8320  0.4912
11616TIP3   OH256262   2.648   5.815  13.044 -0.2289 -0.2329  0.5166
11616TIP3    H156263   2.590   5.856  12.979 -0.5650 -0.8459  0.4233
11616TIP3    H256264   2.606   5.732  13.064  0.1790 -0.3022  1.0955
11617TIP3   OH256265   0.970   0.911   2.289 -0.6536  0.3632  0.3585
11617TIP3    H156266   1.032   0.889   2.219 -0.1200 -0.7345  1.1304
11617TIP3    H256267   0.979   1.006   2.300  0.7291  0.2701  0.2713
11618TIP3   OH256268   4.292   2.804   1.477 -0.0304 -0.1587  0.2670
11618TIP3    H156269   4.256   2.716   1.463 -1.0359  0.1756  0.6351
11618TIP3    H256270   4.215   2.862   1.475  0.6174  0.7188  0.0090
11619TIP3   OH256271   1.130   3.864   2.072  0.6418  0.1028  0.0440
11619TIP3    H156272   1.210   3.912   2.091  0.4637  0.6810 -0.6277
11619TIP3    H256273   1.092   3.909   1.996 -0.4095 -0.0485  0.4575
11620TIP3   OH256274   4.291   1.321  16.930  0.9032  0.2369 -0.5473
11620TIP3    H156275   4.308   1.391  16.867 -0.3311  0.0194 -1.1685
11620TIP3    H256276   4.362   1.259  16.917  0.8112  0.3212 -1.5787
11621TIP3   OH256277   2.608   6.616  13.086 -0.7200 -0.3192  0.1528
11621TIP3    H156278   2.699   6.586  13.080 -0.2007  1.4157 -2.1505
11621TIP3    H256279   2.605   6.667  13.167 -0.2404 -2.1022  1.3403
11622TIP3   OH256280   6.308   0.796  15.705 -0.3182 -0.0885 -0.7928
11622TIP3    H156281   6.320   0.840  15.789 -1.2282 -0.2577 -0.5626
11622TIP3    H256282   6.359   0.715  15.712 -1.3804 -0.7074  0.0821
11623TIP3   OH256283   4.135   1.301   2.664 -0.1289  0.4542  0.2813
11623TIP3    H156284   4.204   1.283   2.729 -0.9652 -0.0932  1.0351
11623TIP3    H256285   4.182   1.342   2.591  0.8589  0.9962  1.1786
11624TIP3   OH256286   4.003   4.186  10.852  0.4426 -0.4094 -0.3109
11624TIP3    H156287   4.018   4.268  10.805  0.0961 -0.1207  0.0741
11624TIP3    H256288   4.088   4.142  10.850  0.1991 -0.8957 -2.1049
11625TIP3   OH256289   0.345   3.587   4.094 -0.5033 -0.1994  0.7290
11625TIP3    H156290   0.359   3.521   4.162 -1.1243  0.0363  1.1010
11625TIP3    H256291   0.430   3.629   4.083 -0.7416  0.9223  2.6185
11626TIP3   OH256292   1.544   1.615  12.631 -0.2922 -0.4916 -0.3365
11626TIP3    H156293   1.490   1.536  12.632  0.8788 -1.3573  1.5654
11626TIP3    H256294   1.482   1.687  12.624 -1.5759 -1.5124  0.1717
11627TIP3   OH256295   3.542   2.535  17.380 -0.4789 -0.5802 -0.4931
11627TIP3    H156296   3.516   2.526  17.288 -0.4595  0.9615 -0.6838
11627TIP3    H256297   3.638   2.545  17.376 -0.5240 -0.0830 -0.3514
11628TIP3   OH256298   5.864   4.473  16.601 -0.1726  0.8240 -0.0532
11628TIP3    H156299   5.897   4.466  16.512 -1.0529  2.2611 -0.5351
11628TIP3    H256300   5.819   4.558  16.603 -0.0651  0.8804  1.7916
11629TIP3   OH256301   5.474   0.418  12.921 -0.0725  0.3067  0.0539
11629TIP3    H156302   5.383   0.415  12.892  0.3990 -0.5415 -1.4513
11629TIP3    H256303   5.503   0.507  12.903 -0.4720  0.4565  0.1469
11630TIP3   OH256304   1.223   5.196  11.204 -0.3724  0.2043 -0.0704
11630TIP3    H156305   1.167   5.119  11.208 -0.2079  0.1364  1.6320
11630TIP3    H256306   1.190   5.246  11.129 -2.0104 -0.3646  0.2263
11631TIP3   OH256307   0.933   6.748  12.664  0.3649  0.1005  0.4782
11631TIP3    H156308   0.959   6.668  12.711 -0.4916  0.1836  1.1008
11631TIP3    H256309   1.016   6.786  12.636  0.7764 -1.3161 -0.3553
11632TIP3   OH256310   6.179   0.661  14.877 -0.3879 -0.1191  0.3560
11632TIP3    H156311   6.150   0.746  14.910  0.2273  0.4449 -0.5162
11632TIP3    H256312   6.170   0.667  14.782  1.2790 -0.3957  0.1456
11633TIP3   OH256313   1.023   6.377   5.079 -0.1769 -0.2976  0.1019
11633TIP3    H156314   1.030   6.286   5.052 -0.5095 -0.3110  0.0652
11633TIP3    H256315   0.929   6.394   5.084 -0.1200  0.1266 -0.1791
11634TIP3   OH256316   1.275   4.835  12.698 -0.0355 -0.4193 -0.4180
11634TIP3    H156317   1.283   4.929  12.684 -0.0440 -0.0853  1.5564
11634TIP3    H256318   1.365   4.806  12.714  0.0592 -0.8897 -1.7347
11635TIP3   OH256319   2.469   4.210   5.335 -0.2242  0.3644 -0.5201
11635TIP3    H156320   2.494   4.118   5.346 -0.9107  0.2504  0.2030
11635TIP3    H256321   2.550   4.254   5.311  0.2959 -0.2941 -0.0163
11636TIP3   OH256322   6.239   0.555   3.818  0.1342  0.3266  0.2891
11636TIP3    H156323   6.246   0.546   3.723  0.5700  1.1296  0.2301
11636TIP3    H256324   6.305   0.496   3.853  1.0991  1.2082  0.0212
11637TIP3   OH256325   2.904   2.396  14.463 -0.4741 -0.3430 -0.2401
11637TIP3    H156326   2.905   2.313  14.511 -0.1130 -1.1948 -1.6617
11637TIP3    H256327   2.993   2.405  14.430 -0.3601  0.9125  0.3532
11638TIP3   OH256328   1.043   2.543  17.214 -0.0206 -0.0151 -0.0364
11638TIP3    H156329   0.973   2.502  17.164 -0.5431  0.7656  0.0501
11638TIP3    H256330   1.123   2.499  17.182 -0.4149 -0.0643 -0.9980
11639TIP3   OH256331   5.797   6.352  17.351  1.0836  0.0182  0.0413
11639TIP3    H156332   5.832   6.322  17.435  2.3007 -0.2843 -0.5450
11639TIP3    H256333   5.855   6.312  17.286 -0.0523 -0.0453 -0.9638
11640TIP3   OH256334   0.165   5.301  16.345 -0.4406 -0.6389  0.3601
11640TIP3    H156335   0.083   5.346  16.326  1.7651  2.9145 -2.0206
11640TIP3    H256336   0.168   5.229  16.282 -1.3134 -0.2043 -0.2006
11641TIP3   OH256337   6.496   4.482   0.047  0.1211 -0.0991  0.8468
11641TIP3    H156338   6.494   4.526   0.132  0.1515 -1.2682  1.4703
11641TIP3    H256339   6.589   4.480   0.024  0.0114  1.5340  0.0391
11642TIP3   OH256340   6.471   0.212  16.757 -0.0769 -0.6697 -0.1674
11642TIP3    H156341   6.534   0.279  16.783  0.6606 -1.7319  0.8832
11642TIP3    H256342   6.385   0.250  16.775  0.3699 -0.6246  2.0638
11643TIP3   OH256343   5.522   3.859   1.511 -0.0125 -0.2753  0.1160
11643TIP3    H156344   5.570   3.781   1.483 -0.5768 -0.5777 -0.0248
11643TIP3    H256345   5.459   3.828   1.576 -1.6026 -0.3069 -1.3536
11644TIP3   OH256346   2.843   2.804   4.188 -0.4004  0.1779  0.3411
11644TIP3    H156347   2.851   2.753   4.269 -0.2542 -0.5542 -0.1173
11644TIP3    H256348   2.764   2.768   4.146 -0.2194  0.2396 -0.0522
11645TIP3   OH256349   1.006   5.830   5.780 -0.2614 -0.5413 -0.3205
11645TIP3    H156350   1.071   5.899   5.766  1.0104 -1.3904  1.1096
11645TIP3    H256351   0.929   5.876   5.813  0.0950  0.3284 -0.6764
11646TIP3   OH256352   5.103   6.201   0.330 -0.1762  0.1816 -0.2409
11646TIP3    H156353   5.076   6.293   0.335  0.2830  0.3410 -0.6595
11646TIP3    H256354   5.198   6.203   0.340 -0.3671 -0.4817  2.4767
11647TIP3   OH256355   6.017   5.537  13.462  0.0977 -0.2506  0.4995
11647TIP3    H156356   6.037   5.605  13.526  2.6940 -0.9989  0.5861
11647TIP3    H256357   6.014   5.456  13.513  0.5934 -0.6536 -0.1043
11648TIP3   OH256358   5.200   3.771   1.961  0.2213  0.1961 -0.2358
11648TIP3    H156359   5.218   3.852   2.010 -1.6601  1.3646 -1.3287
11648TIP3    H256360   5.105   3.764   1.962  0.2201 -0.6519 -2.2406
11649TIP3   OH256361   5.101   1.943  15.176  0.3192 -0.1627 -0.1157
11649TIP3    H156362   5.005   1.939  15.170  0.2965  1.4184 -1.6344
11649TIP3    H256363   5.118   1.984  15.261 -0.4710  1.6668 -0.7884
11650TIP3   OH256364   3.864   4.722  16.292  0.7507  0.0663  0.4011
11650TIP3    H156365   3.900   4.717  16.381  0.7235 -0.3665  0.3918
11650TIP3    H256366   3.863   4.815  16.271  0.6463  0.1783  0.9007
11651TIP3   OH256367   0.888   6.114  17.152  0.0306  0.1692  0.4101
11651TIP3    H156368   0.892   6.176  17.079 -1.7439 -1.0285 -0.7814
11651TIP3    H256369   0.920   6.032  17.114 -3.3503 -1.1461  0.1069
11652TIP3   OH256370   1.339   2.137  14.333 -0.9883 -0.3420  0.4437
11652TIP3    H156371   1.247   2.164  14.325 -1.7444 -2.3350  1.4724
11652TIP3    H256372   1.347   2.063  14.272 -0.4993 -1.0934  1.3852
11653TIP3   OH256373   1.907   4.094  13.450  0.1279 -0.1535  0.0331
11653TIP3    H156374   1.903   4.092  13.354  0.1980 -1.2582  0.0452
11653TIP3    H256375   1.991   4.055  13.472 -0.0102 -0.1692  0.5534
11654TIP3   OH256376   3.957   1.505   0.273 -0.0804  0.0174 -0.7380
11654TIP3    H156377   3.889   1.545   0.327 -1.8883 -0.0877 -2.8126
11654TIP3    H256378   3.950   1.411   0.290  1.3829  0.1640  1.0038
11655TIP3   OH256379   6.254   6.316  12.223 -0.3814  0.3173  0.1933
11655TIP3    H156380   6.279   6.267  12.301 -0.9375  0.0334  0.1979
11655TIP3    H256381   6.246   6.250  12.155 -1.1531  0.3903  0.2049
11656TIP3   OH256382   2.420   4.427   4.337  0.5700  0.1593 -0.3082
11656TIP3    H156383   2.325   4.431   4.325  0.6949 -0.6456 -1.6143
11656TIP3    H256384   2.446   4.343   4.302  1.7670  0.2949  0.2005
11657TIP3   OH256385   2.814   3.987   0.746  0.1711 -0.8451  0.5952
11657TIP3    H156386   2.792   3.914   0.803 -1.6991  0.5931  1.8494
11657TIP3    H256387   2.736   4.042   0.745  0.6650 -0.0306 -2.2131
11658TIP3   OH256388   5.728   1.770  11.528  0.4851 -0.2021  0.2513
11658TIP3    H156389   5.685   1.709  11.468 -0.1665  1.1957 -0.7591
11658TIP3    H256390   5.656   1.814  11.573  0.9575 -1.2798  2.1861
11659TIP3   OH256391   0.143   6.542  14.102 -0.0144  0.5303 -0.4460
11659TIP3    H156392   0.195   6.569  14.177  0.1645  0.0821 -0.4082
11659TIP3    H256393   0.105   6.624  14.069 -0.4864  0.6703  0.4136
11660TIP3   OH256394   1.562   0.033  13.507  0.1133 -0.0407 -0.1194
11660TIP3    H156395   1.543  -0.042  13.451  2.7486 -1.1604  0.3442
11660TIP3    H256396   1.613   0.092  13.451 -2.0652  1.5628 -0.5285
11661TIP3   OH256397   0.557   3.641  16.067  0.1599 -0.4993  0.0358
11661TIP3    H156398   0.636   3.690  16.046  0.6774 -1.6020 -0.6377
11661TIP3    H256399   0.485   3.699  16.040  0.6705  0.9060  1.5016
11662TIP3   OH256400   3.968   5.292   6.194  0.1896 -0.0629 -0.1044
11662TIP3    H156401   3.909   5.248   6.255 -1.4806 -0.8601 -2.1517
11662TIP3    H256402   4.012   5.358   6.247 -1.0491 -0.7802  1.9734
11663TIP3   OH256403   0.852   2.420  13.517  1.0222 -0.6404 -0.2218
11663TIP3    H156404   0.921   2.397  13.578  1.3402  1.3021  0.2135
11663TIP3    H256405   0.886   2.395  13.431  2.4421  0.5834 -0.0485
11664TIP3   OH256406   3.097   3.295   1.704  0.5031 -0.4185 -0.2666
11664TIP3    H156407   3.115   3.369   1.646 -0.8130  0.4192  0.3408
11664TIP3    H256408   3.013   3.260   1.674 -0.1048 -0.0885  0.9843
11665TIP3   OH256409   4.549   6.436  11.469  0.6135  0.2655  0.1660
11665TIP3    H156410   4.574   6.360  11.416 -1.4751 -1.1137  1.0081
11665TIP3    H256411   4.488   6.484  11.414 -1.3116 -0.9987  1.0682
11666TIP3   OH256412   4.875   5.993  14.998  0.2120 -0.0043 -0.4648
11666TIP3    H156413   4.816   6.021  15.068 -0.9775  0.2748 -1.5433
11666TIP3    H256414   4.895   6.073  14.949  0.6435 -0.2682 -0.7273
11667TIP3   OH256415   4.090   6.224   5.864 -0.0747 -0.4883  0.1379
11667TIP3    H156416   4.108   6.240   5.771 -0.1677  0.3912  0.2628
11667TIP3    H256417   4.004   6.181   5.864 -0.7094  0.7045 -0.1344
11668TIP3   OH256418   2.448   4.051  10.820  0.2354  0.5231 -0.4567
11668TIP3    H156419   2.409   3.984  10.764 -0.0496 -1.9828  2.4689
11668TIP3    H256420   2.416   4.134  10.784 -0.8121 -0.9706 -3.2373
11669TIP3   OH256421   4.370   3.390   1.771  0.1930 -0.5834  0.0108
11669TIP3    H156422   4.455   3.356   1.800  0.7620  0.7257 -0.0408
11669TIP3    H256423   4.392   3.468   1.719 -1.0626 -0.0510  0.2397
11670TIP3   OH256424   1.172   4.107  16.651 -0.9539 -0.0018  0.2770
11670TIP3    H156425   1.207   4.170  16.715  0.2763 -1.4653  1.1029
11670TIP3    H256426   1.080   4.097  16.675 -1.0040  0.9865  0.5415
11671TIP3   OH256427   6.118   6.475   0.313  0.2389 -0.1306  0.4339
11671TIP3    H156428   6.169   6.546   0.352 -0.0795 -0.0090  0.6289
11671TIP3    H256429   6.111   6.410   0.384  0.9381 -0.5717  0.1107
11672TIP3   OH256430   4.818   3.081   0.458  0.2763  0.4488 -0.1425
11672TIP3    H156431   4.902   3.071   0.414  0.0823  2.1391 -0.9640
11672TIP3    H256432   4.753   3.057   0.392  0.0670  0.0840  0.1882
11673TIP3   OH256433   4.883   5.298   1.297 -0.2003  0.1647 -0.0353
11673TIP3    H156434   4.824   5.350   1.242 -1.5141 -1.5207 -0.3152
11673TIP3    H256435   4.826   5.257   1.362  0.7186 -1.1271 -0.0002
11674TIP3   OH256436   3.724   2.867  11.187 -0.5451  0.3646 -0.8884
11674TIP3    H156437   3.790   2.815  11.232  0.2359 -0.9079 -3.3383
11674TIP3    H256438   3.653   2.806  11.169 -1.4095  1.1605 -0.2971
11675TIP3   OH256439   5.617   2.188  15.157  0.0054  0.2138  0.0119
11675TIP3    H156440   5.674   2.128  15.206 -1.1060 -2.3991 -1.6841
11675TIP3    H256441   5.653   2.275  15.176  4.3792 -1.1917 -0.6522
11676TIP3   OH256442   2.142   5.873   0.756  0.1543 -0.0845  0.5339
11676TIP3    H156443   2.073   5.937   0.771  0.5511  0.0338  1.9622
11676TIP3    H256444   2.130   5.808   0.825  0.2119 -1.1837 -0.4474
11677TIP3   OH256445   5.781   6.339  12.796 -0.1132  0.3268  0.1608
11677TIP3    H156446   5.862   6.360  12.843  2.1400 -1.2226 -2.7120
11677TIP3    H256447   5.776   6.406  12.728 -0.1896 -0.6615 -0.8207
11678TIP3   OH256448   6.277   0.631   6.395 -0.2459 -0.2195 -0.2502
11678TIP3    H156449   6.244   0.541   6.404 -0.1692 -0.0909  1.6852
11678TIP3    H256450   6.199   0.684   6.381 -0.3574 -0.4919 -0.7034
11679TIP3   OH256451   6.396   5.801   1.732 -0.4124  0.1538 -1.1605
11679TIP3    H156452   6.391   5.896   1.744  1.2566  0.1136  0.1773
11679TIP3    H256453   6.420   5.767   1.818 -0.9387 -1.4980 -1.6341
11680TIP3   OH256454   1.145   2.039  15.333 -0.4403 -0.0708  0.1089
11680TIP3    H156455   1.223   2.021  15.282 -0.9857 -0.7347 -0.5109
11680TIP3    H256456   1.177   2.082  15.413  0.7445 -2.1244  0.8104
11681TIP3   OH256457   4.625   1.568   6.755  0.0088 -0.2328  0.1772
11681TIP3    H156458   4.555   1.517   6.795 -0.9235 -1.0750 -2.3296
11681TIP3    H256459   4.692   1.504   6.733  0.1954  0.0888 -0.2130
11682TIP3   OH256460   4.169   2.699  10.752  0.5334  0.0642 -0.6738
11682TIP3    H156461   4.179   2.765  10.683  2.4701  1.2711  0.6603
11682TIP3    H256462   4.252   2.701  10.799 -0.7127 -0.7479  1.6863
11683TIP3   OH256463   6.257   0.754   0.656 -0.1077 -0.0115  0.7974
11683TIP3    H156464   6.284   0.665   0.675  2.6580  1.0598  2.4716
11683TIP3    H256465   6.162   0.748   0.644  0.1567 -3.3524 -0.7182
11684TIP3   OH256466   6.545   2.241  17.348 -0.7790 -0.4732 -0.3747
11684TIP3    H156467   6.541   2.159  17.397 -1.3898  0.9277  2.0945
11684TIP3    H256468   6.592   2.219  17.268  0.0154 -2.9999  0.6935
11685TIP3   OH256469   0.491   2.322  13.225 -0.3429 -0.0319 -0.5446
11685TIP3    H156470   0.489   2.267  13.304 -1.2491 -0.6120 -0.9533
11685TIP3    H256471   0.428   2.392  13.243  2.4197  2.2864  0.9095
11686TIP3   OH256472   3.350   3.565  16.897 -0.2274  0.3064 -0.1129
11686TIP3    H156473   3.426   3.585  16.843 -0.3119 -0.5126 -0.5538
11686TIP3    H256474   3.275   3.595  16.847 -0.4252 -1.8460 -1.1994
11687TIP3   OH256475   4.032   1.836  11.203 -0.0124  0.0037  0.7739
11687TIP3    H156476   4.047   1.817  11.110 -3.6115 -0.0249  0.0502
11687TIP3    H256477   4.081   1.768  11.249  0.2878 -1.2072 -1.2076
11688TIP3   OH256478   5.469   3.772   6.002  0.0241  0.5095 -0.0694
11688TIP3    H156479   5.549   3.781   5.950  0.5104  0.2626  0.6252
11688TIP3    H256480   5.499   3.735   6.085 -0.5484  2.1568  0.9043
11689TIP3   OH256481   5.258   5.039   0.167 -0.2682  0.2729 -0.8223
11689TIP3    H156482   5.324   5.060   0.232 -2.1208  1.5958  0.7327
11689TIP3    H256483   5.214   4.961   0.201  0.1826 -0.3708 -1.6544
11690TIP3   OH256484   5.711   5.091   2.972  0.0149 -0.0663 -0.1570
11690TIP3    H156485   5.748   5.008   2.942 -0.3520  0.3242 -1.7876
11690TIP3    H256486   5.624   5.095   2.932 -0.1955  0.8560  0.3507
11691TIP3   OH256487   4.617   2.980  15.189 -0.0137  0.1773 -0.7631
11691TIP3    H156488   4.580   3.064  15.213 -0.2322  0.2558 -1.3571
11691TIP3    H256489   4.703   2.978  15.231  0.3704  1.0811 -1.4760
11692TIP3   OH256490   1.526   5.508   0.148  0.5333 -0.2293 -0.0788
11692TIP3    H156491   1.460   5.508   0.218  1.0365  0.8869  0.4142
11692TIP3    H256492   1.569   5.423   0.157 -0.1812 -0.5777  0.2126
11693TIP3   OH256493   1.263   5.011  15.947 -0.3227 -0.2965 -0.8748
11693TIP3    H156494   1.330   5.032  16.012 -0.0927 -1.8836 -0.5641
11693TIP3    H256495   1.232   5.096  15.917 -1.7194  0.6362  2.6245
11694TIP3   OH256496   2.103   2.923   4.094  0.2920  0.9993 -0.1629
11694TIP3    H156497   2.130   2.980   4.166  0.1951  2.1076 -0.9770
11694TIP3    H256498   2.029   2.969   4.053 -0.5205 -0.2499 -0.1772
11695TIP3   OH256499   1.026   5.403  11.268 -0.2712  0.2262 -0.5490
11695TIP3    H156500   1.024   5.315  11.307  0.8797  0.6142  0.4365
11695TIP3    H256501   1.049   5.387  11.177  0.6093 -0.4685 -0.2218
11696TIP3   OH256502   1.878   0.449  13.666  0.0427  0.5229  0.2007
11696TIP3    H156503   1.859   0.471  13.757  1.0510  0.9788  0.3104
11696TIP3    H256504   1.849   0.525  13.616  0.9338  0.9423  0.3047
11697TIP3   OH256505   3.412   2.824   5.655  0.1367 -0.4698 -0.0365
11697TIP3    H156506   3.382   2.902   5.701  0.3397 -0.9953  1.0411
11697TIP3    H256507   3.469   2.780   5.718  1.0857 -0.8166 -1.1023
11698TIP3   OH256508   1.370   4.981  14.019 -0.3144  0.4964 -0.1485
11698TIP3    H156509   1.442   5.008  14.077 -0.1847 -1.7031  0.8155
11698TIP3    H256510   1.314   5.059  14.013  0.8196  1.4704  1.1588
11699TIP3   OH256511   6.240   1.882  16.063 -0.3192 -0.5378  0.0327
11699TIP3    H156512   6.332   1.899  16.043  0.5946 -1.5870  2.8152
11699TIP3    H256513   6.216   1.954  16.122 -1.1888 -0.4661 -0.4035
11700TIP3   OH256514   6.368   3.038  11.598 -0.2122  0.0090 -0.0877
11700TIP3    H156515   6.344   3.110  11.540 -1.2621 -0.3415 -0.1002
11700TIP3    H256516   6.413   2.975  11.541 -0.1403  0.2162 -0.2624
11701TIP3   OH256517   3.014   6.482   5.778  0.5152 -0.2347  0.4487
11701TIP3    H156518   3.011   6.392   5.811 -0.2561  0.2898  1.8712
11701TIP3    H256519   2.924   6.500   5.751  0.6017  0.2128  0.4591
11702TIP3   OH256520   3.778   1.890  11.485 -0.4896  0.5364 -0.1489
11702TIP3    H156521   3.689   1.857  11.495 -0.2817  0.3617  1.3570
11702TIP3    H256522   3.796   1.882  11.391 -2.2338  1.0872 -0.5618
11703TIP3   OH256523   4.447   2.462  16.358 -0.0178 -0.1172  0.4705
11703TIP3    H156524   4.400   2.545  16.353  0.3826  0.0199 -2.0282
11703TIP3    H256525   4.539   2.487  16.349  0.0322 -0.8630 -1.5251
11704TIP3   OH256526   6.415   4.171   1.054  0.4660 -0.4362  0.0445
11704TIP3    H156527   6.468   4.108   1.102  2.2048  0.4647 -0.5981
11704TIP3    H256528   6.418   4.251   1.108  1.2750  0.1556 -0.8395
11705TIP3   OH256529   5.481   5.217  16.684  0.0583 -0.1140  0.6923
11705TIP3    H156530   5.476   5.127  16.715  1.3558 -0.0745  1.0750
11705TIP3    H256531   5.403   5.259  16.721 -1.7254 -1.5464 -1.2275
11706TIP3   OH256532   1.910   2.213  11.631  0.6484 -0.4147  0.6319
11706TIP3    H156533   1.874   2.302  11.626  2.0865  0.1329 -1.0855
11706TIP3    H256534   1.991   2.217  11.579  0.1371 -3.0264 -0.5286
11707TIP3   OH256535   0.583   2.093   3.552  0.4830  0.6361  0.2452
11707TIP3    H156536   0.551   2.003   3.554 -0.4187  0.8833 -1.1284
11707TIP3    H256537   0.628   2.100   3.467 -0.2087  1.6932 -0.0529
11708TIP3   OH256538   2.074   3.538   3.994 -0.3248 -0.5999  0.1351
11708TIP3    H156539   2.009   3.515   3.928 -1.2993 -1.3207  1.2920
11708TIP3    H256540   2.026   3.592   4.057  0.7894  0.7890 -0.1374
11709TIP3   OH256541   3.411   4.794  14.762  0.2496  0.1898  0.1110
11709TIP3    H156542   3.371   4.825  14.681  0.5438  1.0680  0.2926
11709TIP3    H256543   3.491   4.845  14.771  0.8185 -0.7092  0.3697
11710TIP3   OH256544   5.898   5.570   1.103  0.1639  0.2778  0.5909
11710TIP3    H156545   5.840   5.570   1.027  0.9362  0.9882 -0.0109
11710TIP3    H256546   5.868   5.495   1.156 -1.4319  0.7535  0.4118
11711TIP3   OH256547   3.598   2.564   5.779 -0.2148  0.4283  0.1574
11711TIP3    H156548   3.679   2.553   5.728 -0.0687  1.2875  0.1790
11711TIP3    H256549   3.605   2.499   5.849 -0.2697 -0.5532 -0.7241
11712TIP3   OH256550   0.077   2.845  11.528  0.0059 -0.5206 -0.8498
11712TIP3    H156551  -0.016   2.839  11.508 -0.4861  3.2689 -0.4412
11712TIP3    H256552   0.086   2.809  11.616 -1.3509  0.1604 -0.4057
11713TIP3   OH256553   4.114   4.229   5.466  0.4469 -0.0541  0.2713
11713TIP3    H156554   4.042   4.184   5.510  0.1199  0.1437 -0.0518
11713TIP3    H256555   4.081   4.246   5.378  0.8179  0.2106  0.1804
11714TIP3   OH256556   5.891   2.987   1.113 -0.2887 -0.1779 -0.1723
11714TIP3    H156557   5.842   3.052   1.061 -0.6808 -0.0066  0.3939
11714TIP3    H256558   5.962   2.959   1.056 -1.5942 -1.1378 -1.3858
11715TIP3   OH256559   2.329   1.999   5.218  0.1639 -0.3432  0.1709
11715TIP3    H156560   2.337   2.031   5.128  1.6583 -2.0743 -0.3747
11715TIP3    H256561   2.264   1.928   5.213 -0.5684  0.2708  0.6945
11716TIP3   OH256562   4.556   4.288   2.861  0.4519  0.2413 -0.3227
11716TIP3    H156563   4.546   4.382   2.848  1.4572  0.0728 -3.0472
11716TIP3    H256564   4.467   4.254   2.856 -0.0230  1.0625  1.5528
11717TIP3   OH256565   1.139   4.490   4.549  0.6665  0.6803 -0.3295
11717TIP3    H156566   1.169   4.483   4.458 -0.3334  1.7414 -0.7703
11717TIP3    H256567   1.178   4.415   4.593 -2.1654 -2.3949 -2.5713
11718TIP3   OH256568   3.130   1.569  14.539  0.1840  0.0353  0.0050
11718TIP3    H156569   3.101   1.657  14.563 -3.0965 -0.2640 -2.2833
11718TIP3    H256570   3.159   1.576  14.448  0.4476 -1.1351 -0.0262
11719TIP3   OH256571   6.557   2.326  15.480  0.4535 -0.3133  0.4396
11719TIP3    H156572   6.638   2.286  15.511  0.3528 -2.1928 -1.4883
11719TIP3    H256573   6.500   2.327  15.557  2.2925  1.2981  1.9131
11720TIP3   OH256574   3.451   3.794  13.604 -0.0925 -0.3644  0.0836
11720TIP3    H156575   3.454   3.865  13.668  1.2211  1.3436 -1.7493
11720TIP3    H256576   3.367   3.806  13.559 -1.3537 -1.9937  1.7911
11721TIP3   OH256577   2.419   1.534   4.217 -0.1205  0.4417 -0.1072
11721TIP3    H156578   2.359   1.482   4.271 -1.9795  1.2716 -1.2667
11721TIP3    H256579   2.502   1.534   4.266 -0.7275 -1.6366  1.0407
11722TIP3   OH256580   3.194   6.138   5.178  0.3082  0.0917  0.0665
11722TIP3    H156581   3.194   6.058   5.231  0.8746  0.1505  0.1612
11722TIP3    H256582   3.279   6.178   5.196 -0.2799  1.1169  0.6117
11723TIP3   OH256583   1.153   0.556   6.400 -0.0236 -0.0325  0.4565
11723TIP3    H156584   1.225   0.511   6.444 -0.4961 -2.5831 -1.1405
11723TIP3    H256585   1.074   0.525   6.444 -0.3358 -0.5158 -0.4115
11724TIP3   OH256586   0.309   1.980   2.396 -0.3380 -0.3909 -0.3934
11724TIP3    H156587   0.260   1.911   2.351  0.5711  0.0081 -2.0568
11724TIP3    H256588   0.399   1.949   2.398 -0.6612 -1.8568  4.0591
11725TIP3   OH256589   2.865   1.343   0.989  0.0270 -0.1867  0.1468
11725TIP3    H156590   2.957   1.368   0.984 -0.0607  0.2744  0.7465
11725TIP3    H256591   2.847   1.336   1.083 -1.0848  1.8521  0.1470
11726TIP3   OH256592   4.584   1.942  16.380 -0.0862 -0.0502  0.0322
11726TIP3    H156593   4.509   1.898  16.419  0.2405 -1.7307 -1.1344
11726TIP3    H256594   4.656   1.924  16.441 -0.5832  1.6251  1.1908
11727TIP3   OH256595   1.969   3.503   4.834 -0.1405  0.0580 -0.7115
11727TIP3    H156596   2.030   3.445   4.880 -1.1210 -0.1008  0.4344
11727TIP3    H256597   1.932   3.558   4.903 -0.7977  0.6010 -1.4851
11728TIP3   OH256598   0.106   6.572   2.790  0.0042 -0.1713  0.1593
11728TIP3    H156599   0.174   6.529   2.843  1.4393  0.1703 -1.3084
11728TIP3    H256600   0.087   6.509   2.720 -2.3079 -0.8758  1.3260
11729TIP3   OH256601   3.099   0.346   0.174 -0.0418  0.2272  0.3456
11729TIP3    H156602   3.046   0.322   0.098 -1.9118  1.2849  1.2413
11729TIP3    H256603   3.037   0.345   0.247  1.0952  1.8938  1.3932
11730TIP3   OH256604   6.070   5.741  14.248 -0.2906  0.3734 -0.7115
11730TIP3    H156605   6.149   5.699  14.214  0.4434  0.2028  1.1116
11730TIP3    H256606   6.061   5.821  14.197  1.3520  0.6409 -0.6198
11731TIP3   OH256607   1.461   2.370   0.395  0.0286  0.0778 -0.0520
11731TIP3    H156608   1.425   2.336   0.313 -1.4191 -0.7123  0.8609
11731TIP3    H256609   1.384   2.390   0.448  0.9339  0.5262  1.1338
11732TIP3   OH256610   4.432   1.923  14.348  0.2611  0.2896  1.1474
11732TIP3    H156611   4.377   1.997  14.375 -1.8984 -0.5193 -0.7063
11732TIP3    H256612   4.464   1.948  14.261 -2.8854 -1.9486 -0.8744
11733TIP3   OH256613   3.314   4.832  13.365 -0.7149 -0.2236  0.6558
11733TIP3    H156614   3.239   4.848  13.308 -0.0934  2.3560  0.4316
11733TIP3    H256615   3.281   4.774  13.433 -2.3214 -0.8284 -0.5760
11734TIP3   OH256616   3.354   1.295   2.786  0.4074  0.0189 -0.0109
11734TIP3    H156617   3.445   1.279   2.761  0.1172  2.1653 -2.8770
11734TIP3    H256618   3.304   1.283   2.706 -1.6607  0.3848  1.1513
11735TIP3   OH256619   5.150   4.702   4.758 -0.5011 -0.0901  0.0101
11735TIP3    H156620   5.129   4.624   4.809  1.5876  0.1944  1.4484
11735TIP3    H256621   5.094   4.696   4.680 -1.3830 -2.2803  0.7333
11736TIP3   OH256622   2.759   1.593   1.592 -0.4902  0.0052  0.0600
11736TIP3    H156623   2.772   1.588   1.498  0.9232  1.0074  0.1755
11736TIP3    H256624   2.784   1.506   1.624 -1.9809 -0.6837 -0.5596
11737TIP3   OH256625   2.665   1.142  15.701 -0.1815  0.1612 -0.1008
11737TIP3    H156626   2.682   1.139  15.795  0.1100 -1.7237 -0.1813
11737TIP3    H256627   2.682   1.233  15.677  0.8128  0.4338  1.4709
11738TIP3   OH256628   6.307   2.506  11.364 -0.0666 -0.1869  0.0559
11738TIP3    H156629   6.238   2.559  11.403  0.4275 -0.0651  0.8101
11738TIP3    H256630   6.323   2.545  11.279 -2.2102 -1.3595 -0.9636
11739TIP3   OH256631   2.658   5.863   3.343  0.5486  0.5177 -0.3555
11739TIP3    H156632   2.691   5.812   3.269 -1.0017 -0.0165 -0.7265
11739TIP3    H256633   2.587   5.916   3.306 -0.1349  0.3747  0.7021
11740TIP3   OH256634   5.974   0.835  16.034 -0.1519  0.2425  0.6467
11740TIP3    H156635   5.904   0.769  16.034  1.9120 -2.1058 -0.3429
11740TIP3    H256636   5.980   0.862  15.942 -0.8143  1.7041  1.0067
11741TIP3   OH256637   2.361   4.695  14.286  0.7191  0.5597 -0.4263
11741TIP3    H156638   2.394   4.645  14.361 -1.2922 -1.0139 -0.5179
11741TIP3    H256639   2.340   4.781  14.322  1.3791  0.3862  0.4164
11742TIP3   OH256640   0.854   6.412   0.428 -0.0568 -0.1382  0.2241
11742TIP3    H156641   0.759   6.419   0.440  0.0526  1.5517  0.3352
11742TIP3    H256642   0.892   6.461   0.501  0.8025  1.5746 -1.2599
11743TIP3   OH256643   5.668   4.220  17.291  0.3568 -0.3621  0.4568
11743TIP3    H156644   5.648   4.197  17.381  1.3586 -0.4392  0.6703
11743TIP3    H256645   5.732   4.291  17.297 -0.2516  0.2631 -0.1979
11744TIP3   OH256646   0.197   6.218   0.997  0.0357 -0.0850  0.0308
11744TIP3    H156647   0.220   6.198   0.906 -1.5980 -2.6050  0.0855
11744TIP3    H256648   0.128   6.155   1.019 -0.5953  1.3644  2.5984
11745TIP3   OH256649   3.373   5.292  12.734 -0.1903 -0.0296  0.1450
11745TIP3    H156650   3.384   5.325  12.644 -1.6116  1.5554  0.4991
11745TIP3    H256651   3.398   5.366  12.790 -1.1173 -0.3439  1.0074
11746TIP3   OH256652   5.909   1.745   3.640  0.4192 -0.2382  0.1244
11746TIP3    H156653   5.960   1.756   3.720 -2.8272  2.4086  2.0717
11746TIP3    H256654   5.967   1.775   3.570  1.6142  2.6265  2.1830
11747TIP3   OH256655   4.261   5.616   5.272 -0.9004 -0.1510 -0.3744
11747TIP3    H156656   4.216   5.606   5.356 -0.3378  0.8575  0.0707
11747TIP3    H256657   4.334   5.675   5.291 -0.5885 -0.1455 -1.5152
11748TIP3   OH256658   6.006   6.144  16.876 -0.5675 -0.1604 -0.8268
11748TIP3    H156659   6.042   6.177  16.794 -3.7522 -0.9542 -2.7026
11748TIP3    H256660   6.013   6.049  16.870  0.1520 -0.2137  0.3763
11749TIP3   OH256661   3.514   4.681   5.080 -0.0029 -0.7711 -0.3874
11749TIP3    H156662   3.476   4.733   5.150 -0.3288 -1.6669  0.1277
11749TIP3    H256663   3.478   4.717   5.000  0.6890  0.5335 -0.1436
11750TIP3   OH256664   1.170   5.610  13.821 -0.0298  0.5859 -0.4275
11750TIP3    H156665   1.240   5.550  13.844 -0.7126 -0.1657 -0.2960
11750TIP3    H256666   1.195   5.693  13.862  1.4697  0.7160 -1.5125
11751TIP3   OH256667   5.879   0.622   1.900  0.1653 -0.0634  0.0009
11751TIP3    H156668   5.796   0.616   1.854  0.2888  0.5544 -0.3152
11751TIP3    H256669   5.861   0.680   1.974  0.8440  2.0213 -1.3645
11752TIP3   OH256670   3.114   1.878   4.465 -0.1905 -0.5514 -0.0358
11752TIP3    H156671   3.136   1.905   4.555 -0.6956  0.2057 -0.1280
11752TIP3    H256672   3.193   1.836   4.432  0.5438  0.6065  0.2172
11753TIP3   OH256673   4.753   3.271  14.274  0.3647 -0.6142  0.3595
11753TIP3    H156674   4.814   3.340  14.249  0.0068 -0.4472 -0.0803
11753TIP3    H256675   4.796   3.225  14.346  1.5217 -1.2148 -0.6619
11754TIP3   OH256676   0.466   2.185   2.710 -0.2236 -0.1483 -0.0936
11754TIP3    H156677   0.548   2.152   2.748  0.3421  0.6614 -0.5600
11754TIP3    H256678   0.490   2.208   2.620 -0.9119  0.3161 -0.1610
11755TIP3   OH256679   4.356   1.055   0.284  0.2664 -0.2602 -0.1181
11755TIP3    H156680   4.417   1.012   0.344 -0.6235  0.2132  1.1841
11755TIP3    H256681   4.391   1.038   0.197  0.7968 -2.2606  0.4372
11756TIP3   OH256682   4.517   4.743   5.895 -0.5235  0.1676 -0.3670
11756TIP3    H156683   4.578   4.669   5.888 -1.0419 -0.6985  2.6663
11756TIP3    H256684   4.444   4.718   5.838 -0.2005 -1.1743 -0.2414
11757TIP3   OH256685   1.197   6.505   5.770 -0.1329 -0.1059  0.2005
11757TIP3    H156686   1.152   6.421   5.760 -2.1656  0.8201  1.0556
11757TIP3    H256687   1.217   6.533   5.681 -2.0063 -0.1919 -0.2792
11758TIP3   OH256688   0.129   3.614   5.224  0.1448  0.0631  0.7405
11758TIP3    H156689   0.041   3.649   5.213  0.0568 -0.5401 -0.6834
11758TIP3    H256690   0.178   3.650   5.150  0.9281 -0.0953  1.1772
11759TIP3   OH256691   5.601   4.549   2.172 -0.3441  0.2844 -0.0284
11759TIP3    H156692   5.660   4.618   2.142  0.3938  0.4921  1.7685
11759TIP3    H256693   5.544   4.592   2.236 -0.0666 -0.6854  0.9093
11760TIP3   OH256694   2.983   5.292   4.396  0.6346  1.0801 -0.1865
11760TIP3    H156695   2.946   5.221   4.448  0.4862  2.0738  1.1053
11760TIP3    H256696   3.075   5.296   4.422  0.4687  1.8371  0.2998
11761TIP3   OH256697   2.741   6.469   5.748  0.0524  0.4757 -0.0364
11761TIP3    H156698   2.753   6.420   5.667  0.1862  1.0292 -0.3574
11761TIP3    H256699   2.669   6.424   5.792 -1.6686  1.5585 -1.5876
11762TIP3   OH256700   2.075   1.603   1.368  0.0666  0.3158 -0.4059
11762TIP3    H156701   2.070   1.584   1.274  0.9102 -0.9299 -0.2244
11762TIP3    H256702   2.042   1.692   1.376 -0.8214  0.1507 -1.7822
11763TIP3   OH256703   1.844   5.377  11.200 -0.2800 -1.1118 -0.0098
11763TIP3    H156704   1.856   5.423  11.117 -0.2936 -2.2944 -0.6978
11763TIP3    H256705   1.763   5.327  11.189 -0.4239 -1.0840  0.8166
11764TIP3   OH256706   3.478   3.280   1.157 -0.1032  0.8661  0.0581
11764TIP3    H156707   3.520   3.357   1.118 -0.2780  1.4061  0.9184
11764TIP3    H256708   3.499   3.285   1.250  2.7844 -1.9700 -0.2427
11765TIP3   OH256709   6.446   2.991  14.688 -0.0192  0.4274  0.1986
11765TIP3    H156710   6.505   2.926  14.727  0.5370  0.7355 -0.1039
11765TIP3    H256711   6.428   2.957  14.600 -2.5844 -1.1032  1.2019
11766TIP3   OH256712   0.665   1.445  12.018  0.8853 -0.3124 -0.2387
11766TIP3    H156713   0.734   1.509  12.034  0.9691 -0.6755  0.9585
11766TIP3    H256714   0.702   1.383  11.955  1.4763 -0.2351  0.0333
11767TIP3   OH256715   2.734   1.795   2.978  0.2547  0.7466  0.1933
11767TIP3    H156716   2.660   1.857   2.981  0.4189  0.9187  1.4200
11767TIP3    H256717   2.751   1.775   3.070  2.0964  1.1327 -0.0371
11768TIP3   OH256718   2.420   1.273  14.134  0.1583  0.3432 -0.0191
11768TIP3    H156719   2.490   1.335  14.120 -0.2556  0.5821 -1.1877
11768TIP3    H256720   2.371   1.307  14.209  1.8094 -0.3322  1.4081
11769TIP3   OH256721   5.483   0.893  14.079 -0.4667  0.4152 -0.0555
11769TIP3    H156722   5.409   0.843  14.113  0.6302 -1.0107  0.3088
11769TIP3    H256723   5.560   0.841  14.100  0.5704  1.2955 -1.4397
11770TIP3   OH256724   3.151   1.467  16.469  0.4374 -0.4585 -0.1763
11770TIP3    H156725   3.146   1.449  16.563 -0.3385 -0.8404 -0.2853
11770TIP3    H256726   3.061   1.459  16.438  0.5686  0.4577 -0.8154
11771TIP3   OH256727   0.950   6.213   1.216  0.0324  0.0782 -0.2841
11771TIP3    H156728   0.953   6.145   1.283  2.4800  0.2452 -0.1125
11771TIP3    H256729   0.882   6.274   1.247 -1.4567 -1.6888  0.0943
11772TIP3   OH256730   4.224   1.009  14.659  0.5247  0.2280  0.0627
11772TIP3    H156731   4.156   1.073  14.679  0.9341  0.9284 -0.7347
11772TIP3    H256732   4.176   0.929  14.636 -0.0434  0.7365 -0.5706
11773TIP3   OH256733   3.754   1.111   5.254  0.8483  0.4438 -0.0768
11773TIP3    H156734   3.800   1.165   5.189 -1.3606  0.1604 -2.0267
11773TIP3    H256735   3.801   1.027   5.252  2.0409  1.0856  0.2186
11774TIP3   OH256736   0.687   4.251  12.787  0.3676  0.4277 -0.1776
11774TIP3    H156737   0.689   4.314  12.715 -0.4699 -0.3963 -0.9429
11774TIP3    H256738   0.667   4.167  12.746 -0.7114  0.0304  1.0783
11775TIP3   OH256739   1.638   6.296   0.336  0.5068  0.3725 -0.1717
11775TIP3    H156740   1.677   6.224   0.286 -0.6537 -1.5590  1.5154
11775TIP3    H256741   1.549   6.303   0.303  0.3793  0.4866  0.1919
11776TIP3   OH256742   5.699   2.762   2.357  0.0654 -0.4133 -0.1887
11776TIP3    H156743   5.755   2.838   2.345  1.4739 -1.0636  1.7721
11776TIP3    H256744   5.625   2.793   2.409  0.3620 -0.2598  0.1419
11777TIP3   OH256745   2.441   5.236   1.344 -0.4286  0.5059 -0.3878
11777TIP3    H156746   2.348   5.214   1.339 -0.8754  2.5481 -3.5952
11777TIP3    H256747   2.442   5.327   1.374  0.5384  0.5511 -0.5349
11778TIP3   OH256748   2.142   5.872   3.179  0.3700 -0.4080  0.4225
11778TIP3    H156749   2.102   5.786   3.164 -2.2222  0.6205  0.8663
11778TIP3    H256750   2.155   5.909   3.092 -0.3632 -0.4805  0.2778
11779TIP3   OH256751   0.516   3.291  10.986 -0.0410  0.1599  0.2815
11779TIP3    H156752   0.567   3.370  10.971  0.4043 -0.4408 -1.7590
11779TIP3    H256753   0.426   3.323  10.997  0.1979  0.9845 -0.0422
11780TIP3   OH256754   2.795   2.876  13.105 -0.1604 -0.1300  0.2893
11780TIP3    H156755   2.802   2.842  13.015  1.3690 -0.7879  0.6198
11780TIP3    H256756   2.712   2.841  13.137 -1.5382  1.3982 -1.3419
11781TIP3   OH256757   2.902   0.336  12.452 -0.3424 -0.2835  0.0079
11781TIP3    H156758   2.834   0.279  12.490 -2.2136  3.5075  3.1183
11781TIP3    H256759   2.951   0.368  12.528  0.0607  2.7614 -1.3864
11782TIP3   OH256760   6.686   4.216   3.145  0.4347 -0.4704 -1.0890
11782TIP3    H156761   6.721   4.304   3.132  0.5912  0.1530  2.4295
11782TIP3    H256762   6.591   4.226   3.134  0.4515  0.1573 -0.7165
11783TIP3   OH256763   4.393   5.032  16.235 -0.3493 -0.0910 -0.6424
11783TIP3    H156764   4.324   4.966  16.240 -0.3077 -0.1336 -0.6355
11783TIP3    H256765   4.465   4.996  16.287 -1.2367  1.0575  1.4969
11784TIP3   OH256766   2.393   6.573   1.200  0.5492 -0.0962 -0.4846
11784TIP3    H156767   2.382   6.665   1.174  2.5899 -0.1854 -1.8815
11784TIP3    H256768   2.306   6.534   1.190 -0.0455  1.3482 -1.2540
11785TIP3   OH256769   3.400   2.581  12.560 -0.1871  0.0745  0.2125
11785TIP3    H156770   3.334   2.514  12.579 -0.2672  0.4058  1.1652
11785TIP3    H256771   3.380   2.651  12.622  1.4596 -0.1060  0.9911
11786TIP3   OH256772   6.274   4.047   0.844  0.0436 -0.1912  0.4354
11786TIP3    H156773   6.357   4.043   0.796  0.5708 -0.5018  1.3424
11786TIP3    H256774   6.298   4.084   0.929 -0.7691 -0.2033  0.6774
11787TIP3   OH256775   2.496   0.483  13.181  0.1151 -0.2267  0.3241
11787TIP3    H156776   2.424   0.529  13.138 -0.1342 -0.2335  0.7335
11787TIP3    H256777   2.458   0.401  13.211  0.0357  0.1895  1.4069
11788TIP3   OH256778   5.526   3.490  16.801  0.1916 -0.4012 -0.4393
11788TIP3    H156779   5.534   3.558  16.734 -1.5384  0.0075 -0.2909
11788TIP3    H256780   5.585   3.517  16.871  0.1887  0.4842 -0.7667
11789TIP3   OH256781   1.762   2.698  14.983  0.0616 -0.2954  0.0494
11789TIP3    H156782   1.837   2.646  14.955  1.2666 -0.1547  2.7222
11789TIP3    H256783   1.692   2.635  14.995  0.9348 -1.0684  1.3221
11790TIP3   OH256784   0.797   3.087   5.378 -0.7766 -0.0316 -0.0605
11790TIP3    H156785   0.892   3.100   5.379 -0.6319 -0.8686 -1.0828
11790TIP3    H256786   0.766   3.127   5.459  0.4857  0.0145  0.4164
11791TIP3   OH256787   6.131   6.047  12.097 -0.0943 -1.2008  0.2419
11791TIP3    H156788   6.066   5.981  12.074 -0.9309 -0.1921 -0.3394
11791TIP3    H256789   6.156   6.026  12.187 -1.4952 -1.3801  0.6074
11792TIP3   OH256790   5.837   5.432   5.258 -0.5320  0.1416 -0.5579
11792TIP3    H156791   5.932   5.436   5.267 -0.5617  0.9249 -0.4868
11792TIP3    H256792   5.816   5.338   5.258  0.1835 -0.0282 -0.0059
11793TIP3   OH256793   6.044   3.258   1.070 -0.1387 -0.4258  0.3227
11793TIP3    H156794   6.138   3.242   1.065 -0.2513 -0.7695 -0.9221
11793TIP3    H256795   6.010   3.230   0.985 -1.3996 -0.5023  0.8380
11794TIP3   OH256796   1.074   4.741   3.188 -0.1758  0.5652 -0.2181
11794TIP3    H156797   1.026   4.798   3.248  0.8778  0.1624  1.0514
11794TIP3    H256798   1.024   4.659   3.187 -0.2233  0.5898  0.0750
11795TIP3   OH256799   4.257   5.430  14.264 -0.1027 -0.3370 -0.2917
11795TIP3    H156800   4.229   5.438  14.355  0.8842 -0.5944  0.0471
11795TIP3    H256801   4.246   5.337  14.243 -1.0258 -0.1592 -0.6914
11796TIP3   OH256802   0.690   2.196  12.379 -0.5448 -0.5229 -0.5044
11796TIP3    H156803   0.744   2.270  12.409 -0.2019 -1.3919  1.1086
11796TIP3    H256804   0.626   2.236  12.320 -1.8809  1.5008  2.1116
11797TIP3   OH256805   3.154   2.545   2.547 -0.8181  0.0719 -0.2291
11797TIP3    H156806   3.151   2.478   2.479 -0.1632  0.0970 -0.2909
11797TIP3    H256807   3.207   2.506   2.617 -1.4175  0.0738  0.2394
11798TIP3   OH256808   6.316   2.912  12.280  0.1672  0.1768 -0.3641
11798TIP3    H156809   6.241   2.929  12.337 -0.6100 -0.5564 -1.1256
11798TIP3    H256810   6.277   2.895  12.194  1.2744  0.7615 -1.0035
11799TIP3   OH256811   1.944   4.721  11.432 -0.2619 -0.5501  0.0375
11799TIP3    H156812   2.014   4.754  11.488  0.4847  0.2006 -1.2760
11799TIP3    H256813   1.890   4.798  11.414 -1.4797 -1.1241  1.0510
11800TIP3   OH256814   3.168   4.434  16.351  0.1780 -0.8526  0.1260
11800TIP3    H156815   3.119   4.436  16.269 -0.5294 -2.0030  0.5134
11800TIP3    H256816   3.131   4.505  16.403 -0.1508 -0.8552 -0.1037
11801TIP3   OH256817   6.027   3.115   2.752  0.1504 -0.0463  0.1848
11801TIP3    H156818   6.113   3.151   2.729  0.6990 -0.0973  1.9920
11801TIP3    H256819   6.047   3.040   2.808 -1.0611  0.8896  1.9501
11802TIP3   OH256820   6.455   3.538   3.177 -0.2971 -0.1972  0.1656
11802TIP3    H156821   6.532   3.595   3.181 -0.1837 -0.4137  1.2066
11802TIP3    H256822   6.468   3.475   3.248 -0.7706 -1.0848 -0.5132
11803TIP3   OH256823   0.984   5.145  11.389 -0.1717  0.0601 -0.1937
11803TIP3    H156824   1.016   5.063  11.353  0.3158 -0.4696  1.3758
11803TIP3    H256825   0.911   5.121  11.446  0.7110  0.5219  1.2133
11804TIP3   OH256826   2.710   0.111   1.155  0.3235 -0.1412  0.4775
11804TIP3    H156827   2.795   0.075   1.182  0.8426  1.0415  0.4900
11804TIP3    H256828   2.687   0.171   1.225  1.4763  2.6585 -1.3855
11805TIP3   OH256829   6.176   6.668   5.409  0.2554  0.5815  0.1712
11805TIP3    H156830   6.243   6.720   5.453 -0.0725  1.3075 -0.1673
11805TIP3    H256831   6.226   6.605   5.356  0.6492  0.1137  1.0707
11806TIP3   OH256832   1.554   5.959   5.470 -0.1675 -0.8261  0.1286
11806TIP3    H156833   1.470   5.997   5.446 -0.2510 -0.6955  0.6152
11806TIP3    H256834   1.614   5.987   5.401 -0.7624 -1.8635 -0.8383
11807TIP3   OH256835   6.723   5.679   4.886 -0.4264  0.3676  0.5479
11807TIP3    H156836   6.813   5.671   4.920 -0.3874 -2.0269  0.0923
11807TIP3    H256837   6.735   5.703   4.794 -0.1975 -0.6498  0.3009
11808TIP3   OH256838   0.290   0.035  12.469  0.6868  0.0642  0.4050
11808TIP3    H156839   0.317   0.056  12.558  0.6103  0.0978  0.4205
11808TIP3    H256840   0.322  -0.055  12.454 -0.7758 -0.5922  1.0763
11809TIP3   OH256841   6.245   3.374   3.098 -0.1204 -0.2450 -0.3818
11809TIP3    H156842   6.324   3.428   3.105 -0.8820  0.8406  0.1129
11809TIP3    H256843   6.185   3.426   3.043 -0.7623 -0.7152 -0.1429
11810TIP3   OH256844   5.134   2.188  15.768 -0.2230 -0.2529  0.5018
11810TIP3    H156845   5.086   2.242  15.831  0.9562 -0.8804  2.0050
11810TIP3    H256846   5.219   2.174  15.809 -0.1233 -2.3739 -0.3192
11811TIP3   OH256847   5.383   4.744  14.952  0.0988  0.1235  0.5504
11811TIP3    H156848   5.301   4.696  14.939  1.5225 -2.7711  1.3098
11811TIP3    H256849   5.375   4.781  15.040  0.7308 -2.9841  2.0840
11812TIP3   OH256850   2.931   1.672  13.987 -0.3954  0.1668 -0.3687
11812TIP3    H156851   2.942   1.741  14.052  0.3872  0.4599 -0.8016
11812TIP3    H256852   2.958   1.592  14.032  1.0914  0.5034 -0.6040
11813TIP3   OH256853   2.752   4.437  13.638 -0.1156 -0.7045  0.2859
11813TIP3    H156854   2.698   4.411  13.712 -1.9596 -0.6108 -0.9461
11813TIP3    H256855   2.738   4.532  13.629 -0.0942 -0.7471 -0.2977
11814TIP3   OH256856   5.417   4.751   3.342  0.5087  0.2088 -0.0439
11814TIP3    H156857   5.507   4.771   3.366  0.7999  0.4509 -1.2719
11814TIP3    H256858   5.400   4.803   3.264  0.3995 -2.1922 -1.7445
11815TIP3   OH256859   5.107   2.329  13.403 -0.3008  0.1864  0.1668
11815TIP3    H156860   5.058   2.314  13.484  3.4023 -0.5406  2.4997
11815TIP3    H256861   5.106   2.244  13.359  0.8518 -0.5327  1.4499
11816TIP3   OH256862   2.057   2.462   3.282 -0.2633 -0.0689  0.1797
11816TIP3    H156863   2.029   2.381   3.241  1.1277 -1.4144  1.7723
11816TIP3    H256864   1.978   2.516   3.285 -0.6552 -0.2973 -3.1867
11817TIP3   OH256865   6.525   1.263  16.542  0.6590 -0.9221  0.6075
11817TIP3    H156866   6.480   1.332  16.590  0.1580 -0.3350 -0.6600
11817TIP3    H256867   6.499   1.182  16.586  1.8332 -0.3098  2.5801
11818TIP3   OH256868   2.975   2.768   1.979 -0.1262 -0.2255  0.0011
11818TIP3    H156869   2.901   2.707   1.975 -0.4917  0.0124  1.9972
11818TIP3    H256870   3.043   2.727   1.926 -0.9027 -1.5867  0.0165
11819TIP3   OH256871   3.087   0.199   3.036 -0.0994 -0.0904 -0.4142
11819TIP3    H156872   3.055   0.205   2.946 -0.4152 -0.8805 -0.3616
11819TIP3    H256873   3.114   0.289   3.058 -0.8944  0.2984 -0.9723
11820TIP3   OH256874   2.748   6.363  14.813  0.3301  0.0484 -0.1929
11820TIP3    H156875   2.715   6.280  14.847 -2.3138  0.5491 -1.3346
11820TIP3    H256876   2.802   6.397  14.884 -2.1646 -0.5708  2.1806
11821TIP3   OH256877   3.460   3.683   5.738 -0.0031  0.1000  0.2925
11821TIP3    H156878   3.500   3.759   5.694 -0.8867  0.1573 -0.4304
11821TIP3    H256879   3.394   3.652   5.677  0.6651 -1.5591  0.3747
11822TIP3   OH256880   2.309   0.089   1.960 -0.2267 -0.4607 -0.0218
11822TIP3    H156881   2.379   0.136   2.006  0.1832  0.2300 -1.3140
11822TIP3    H256882   2.290   0.014   2.017  1.1861 -0.3720  0.6238
11823TIP3   OH256883   3.736   1.865  15.937  0.0072 -0.0083  0.3984
11823TIP3    H156884   3.711   1.786  15.889 -1.5680  1.0701 -0.6063
11823TIP3    H256885   3.680   1.934  15.902  0.8625  1.4316  1.7477
11824TIP3   OH256886   4.223   3.562   6.139 -0.7535  0.7649 -0.2759
11824TIP3    H156887   4.175   3.480   6.149 -1.1039  1.0577  0.4267
11824TIP3    H256888   4.312   3.541   6.168 -0.3396  0.1332 -1.8962
11825TIP3   OH256889   3.160   3.825   3.329  0.1723  0.8769 -0.3364
11825TIP3    H156890   3.147   3.749   3.385 -1.3561  1.4153  0.1116
11825TIP3    H256891   3.113   3.804   3.248  1.4032  0.5713 -0.9969
11826TIP3   OH256892   0.506   0.127   4.430  0.2871  0.2362 -0.2630
11826TIP3    H156893   0.570   0.164   4.490 -0.3631  0.3914  0.3454
11826TIP3    H256894   0.448   0.200   4.407  1.4873  0.5933 -2.4096
11827TIP3   OH256895   5.827   4.461  12.692 -0.0598  0.2815  0.2735
11827TIP3    H156896   5.802   4.501  12.775  0.7912  0.9571  0.2148
11827TIP3    H256897   5.919   4.437  12.703 -0.9376 -3.3806  0.9675
11828TIP3   OH256898   2.601   1.834   0.029  0.8358 -0.3803  0.2394
11828TIP3    H156899   2.567   1.779  -0.041  0.5107  1.6993 -1.3499
11828TIP3    H256900   2.695   1.841   0.010  0.8747 -0.3921  0.4290
11829TIP3   OH256901   1.714   6.067   5.258 -0.0950 -0.1681 -0.1943
11829TIP3    H156902   1.735   6.152   5.298  1.3572 -0.8570  0.5966
11829TIP3    H256903   1.770   6.062   5.181 -0.4756 -0.2322 -0.4650
11830TIP3   OH256904   1.563   1.851  14.907  0.6027  0.0189  0.2495
11830TIP3    H156905   1.650   1.847  14.869  0.2756  1.8394 -0.8161
11830TIP3    H256906   1.560   1.936  14.952 -0.8783  0.4140 -0.4950
11831TIP3   OH256907   3.855   5.949  15.900  0.5955 -0.3473 -0.0780
11831TIP3    H156908   3.802   6.028  15.903 -0.3279 -0.9367 -0.3168
11831TIP3    H256909   3.913   5.956  15.976  0.7034  0.6669 -0.2445
11832TIP3   OH256910   4.454   0.787  15.387  0.1784 -0.1171 -0.0520
11832TIP3    H156911   4.386   0.849  15.361 -0.3957 -0.3324  0.8876
11832TIP3    H256912   4.436   0.768  15.479  0.8741 -0.9980 -0.0792
11833TIP3   OH256913   6.444   3.356  16.869  0.5388  0.5325 -0.4230
11833TIP3    H156914   6.359   3.386  16.901  0.8970  2.1038 -0.8632
11833TIP3    H256915   6.454   3.397  16.783  1.1547 -0.7437 -0.9877
11834TIP3   OH256916   6.376   2.550  13.609  0.3440 -0.0653 -0.0705
11834TIP3    H156917   6.450   2.512  13.562  0.9634 -0.1318  0.9267
11834TIP3    H256918   6.335   2.476  13.654  1.0203  0.2677  1.1576
11835TIP3   OH256919   6.371   1.407  17.004  0.4257  0.3344  0.0979
11835TIP3    H156920   6.389   1.321  17.042 -1.3519  0.1426  0.5665
11835TIP3    H256921   6.381   1.468  17.077 -0.2985  0.2836  0.2440
11836TIP3   OH256922   0.133   4.786  15.398 -0.0535  0.0457 -0.5524
11836TIP3    H156923   0.179   4.869  15.381  0.9087 -0.3520  0.0534
11836TIP3    H256924   0.072   4.778  15.325  0.5003  0.8300 -1.1283
11837TIP3   OH256925   1.244   6.372   5.259  0.4496  1.1897  0.7911
11837TIP3    H156926   1.159   6.366   5.215  0.1106  2.7893  1.1714
11837TIP3    H256927   1.305   6.326   5.201 -0.3962  1.3138 -0.2251
11838TIP3   OH256928   3.709   0.964   2.557  0.0581  0.2964  0.1609
11838TIP3    H156929   3.784   0.995   2.609  2.0483 -1.3888 -1.5266
11838TIP3    H256930   3.697   1.033   2.490  0.1993  0.5117  0.3545
11839TIP3   OH256931   5.105   0.509   2.098  0.3835 -0.6210 -0.4117
11839TIP3    H156932   5.164   0.584   2.094  0.7161 -0.8610 -0.0753
11839TIP3    H256933   5.122   0.469   2.183 -0.1004 -0.8294 -0.4063
11840TIP3   OH256934   4.869   4.686  16.358 -0.4390 -0.0258 -0.0787
11840TIP3    H156935   4.931   4.614  16.344 -1.2412 -0.6181 -0.6718
11840TIP3    H256936   4.917   4.765  16.333 -0.0554 -0.5234 -0.9580
11841TIP3   OH256937   1.119   4.722   5.447  0.1604  0.0818  0.1276
11841TIP3    H156938   1.088   4.799   5.398  0.5906  0.2804  0.1682
11841TIP3    H256939   1.137   4.657   5.379 -3.5747 -1.2905  0.2065
11842TIP3   OH256940   1.890   2.955   1.973 -0.5730 -0.1885 -0.3765
11842TIP3    H156941   1.908   2.911   1.890  1.3640 -0.3745  0.1030
11842TIP3    H256942   1.802   2.926   1.997 -0.5434 -1.3589 -1.5830
11843TIP3   OH256943   2.510   2.595   3.252 -0.2730  0.1098 -0.4383
11843TIP3    H156944   2.422   2.568   3.227 -0.7941  1.6093 -0.3391
11843TIP3    H256945   2.502   2.689   3.270  1.6232  0.5940 -1.8205
11844TIP3   OH256946   3.621   6.452   4.416 -1.1766 -0.2138  0.2388
11844TIP3    H156947   3.640   6.545   4.407  0.2360 -0.2549  2.1861
11844TIP3    H256948   3.705   6.411   4.435 -1.7346 -1.9481 -0.7202
11845TIP3   OH256949   3.013   5.149  10.763  0.7088 -0.1656 -0.3154
11845TIP3    H156950   3.071   5.079  10.792 -0.3007 -1.0483 -0.3615
11845TIP3    H256951   2.949   5.159  10.834  0.2302 -0.0036 -0.7642
11846TIP3   OH256952   6.574   1.720  12.968 -0.1391  0.2676 -0.4939
11846TIP3    H156953   6.650   1.666  12.949 -0.4660 -0.8319  1.1710
11846TIP3    H256954   6.610   1.799  13.009  0.1018 -0.2872  0.3696
11847TIP3   OH256955   2.692   5.991   2.241 -0.7824  0.1005 -0.1804
11847TIP3    H156956   2.729   6.071   2.203 -2.7391  0.9489 -0.4570
11847TIP3    H256957   2.732   5.920   2.192  1.3465  0.8438  0.3599
11848TIP3   OH256958   3.329   0.322   5.483  0.0589  0.2704  0.0293
11848TIP3    H156959   3.390   0.266   5.436  0.6651  1.6061 -0.8228
11848TIP3    H256960   3.243   0.293   5.453  0.3570 -0.2146 -0.3844
11849TIP3   OH256961   0.873   3.034  15.495 -0.1156 -0.3615 -0.3585
11849TIP3    H156962   0.891   2.972  15.424 -1.9686 -2.4480  0.8676
11849TIP3    H256963   0.813   3.098  15.457 -0.2362 -0.8336 -0.9707
11850TIP3   OH256964   4.360   0.406   3.882  0.6551 -0.7777  0.3004
11850TIP3    H156965   4.320   0.353   3.950 -0.6231 -1.6289 -1.0494
11850TIP3    H256966   4.450   0.373   3.875  1.1415  0.0208  2.2247
11851TIP3   OH256967   6.519   1.225  14.426 -0.0493  0.1304  0.2592
11851TIP3    H156968   6.452   1.168  14.388 -1.5808 -0.6462  3.7155
11851TIP3    H256969   6.575   1.165  14.476  1.1880  1.1830  0.1877
11852TIP3   OH256970   6.139   4.394   3.583 -0.0465 -0.2981  0.1491
11852TIP3    H156971   6.091   4.428   3.658  1.1280  0.1274  0.7198
11852TIP3    H256972   6.111   4.450   3.510  0.4848  0.7308  0.7156
11853TIP3   OH256973   5.735   1.106   6.459 -0.4801  0.3228  0.0815
11853TIP3    H156974   5.750   1.198   6.478 -2.0744  0.3136  1.7392
11853TIP3    H256975   5.728   1.065   6.546 -0.3368 -1.2561 -0.6173
11854TIP3   OH256976   4.022   4.176  14.361 -0.7521  0.6648  0.7143
11854TIP3    H156977   3.973   4.144  14.437 -2.5518  1.2822 -0.1258
11854TIP3    H256978   3.957   4.223  14.309  0.8790  1.9796 -0.2304
11855TIP3   OH256979   3.030   0.678  15.423  0.2103 -0.3453 -0.4843
11855TIP3    H156980   3.084   0.751  15.391  1.5832 -0.8769  0.5271
11855TIP3    H256981   3.018   0.622  15.347  0.0520  0.3808 -1.0138
11856TIP3   OH256982   0.573   1.872   2.383 -0.3727  0.2752 -0.4938
11856TIP3    H156983   0.585   1.789   2.429 -0.9664  0.3150 -0.2541
11856TIP3    H256984   0.575   1.938   2.452  0.6474  0.5193 -0.7451
11857TIP3   OH256985   0.232   2.850   6.114 -0.4931 -0.2123 -0.3499
11857TIP3    H156986   0.312   2.870   6.163  0.4749 -0.4777 -1.7658
11857TIP3    H256987   0.205   2.764   6.145 -0.6275  0.1684  0.6211
11858TIP3   OH256988   6.196   1.737   5.182  0.2034 -0.0453  0.2294
11858TIP3    H156989   6.116   1.756   5.133 -1.1441  0.0221  2.3202
11858TIP3    H256990   6.239   1.668   5.133 -1.4536 -0.5015 -0.6435
11859TIP3   OH256991   1.938   1.980  16.250  0.7221 -0.0927  0.3212
11859TIP3    H156992   2.028   2.007  16.236 -0.2654  4.2037  0.7725
11859TIP3    H256993   1.904   2.041  16.316 -2.2998 -2.0899  0.8614
11860TIP3   OH256994   6.125   5.942   5.591 -0.1672 -0.0174  0.9093
11860TIP3    H156995   6.140   5.908   5.679 -0.9688 -3.0527 -0.0072
11860TIP3    H256996   6.030   5.952   5.585 -0.0553  1.0790  0.6380
11861TIP3   OH256997   2.431   6.454   4.217  0.0741 -0.5511 -0.1050
11861TIP3    H156998   2.432   6.546   4.243  1.9862 -0.6689  0.3868
11861TIP3    H256999   2.408   6.456   4.124  0.3195  0.4417 -0.1544
11862TIP3   OH257000   2.671   1.960  15.388 -0.2191  0.9235  0.1061
11862TIP3    H157001   2.576   1.971  15.397 -0.2414  0.7437  0.0808
11862TIP3    H257002   2.686   1.948  15.295 -0.2381  0.3011  0.1838
11863TIP3   OH257003   0.155   2.241   0.063 -0.3498 -0.1700 -0.4872
11863TIP3    H157004   0.185   2.322   0.104  0.1729  1.7631 -4.2436
11863TIP3    H257005   0.078   2.215   0.113 -0.1387  2.2548  1.2501
11864TIP3   OH257006   4.159   3.263   3.767  0.1678 -0.1621 -0.0306
11864TIP3    H157007   4.180   3.170   3.777  0.9720  0.2362  2.7264
11864TIP3    H257008   4.228   3.297   3.710  0.7801 -0.9682  0.2094
11865TIP3   OH257009   1.728   1.579  12.838  0.3318  0.3378  0.1216
11865TIP3    H157010   1.680   1.578  12.755 -0.1403  0.6710  0.3847
11865TIP3    H257011   1.774   1.495  12.841 -3.3204 -1.8520  1.6116
11866TIP3   OH257012   5.245   2.987   2.611  0.3336 -0.1113  0.1631
11866TIP3    H157013   5.217   3.039   2.536 -1.5184  0.0173  0.8979
11866TIP3    H257014   5.328   2.948   2.583  0.7248  1.5536 -1.1689
11867TIP3   OH257015   5.675   1.370  11.572 -0.2521 -0.0525 -0.5978
11867TIP3    H157016   5.693   1.382  11.479  1.9528 -1.4001 -0.3953
11867TIP3    H257017   5.601   1.430  11.589 -0.3730  0.6266 -3.0528
11868TIP3   OH257018   3.731   0.668  15.166 -0.2415 -0.4896  0.0766
11868TIP3    H157019   3.662   0.664  15.099 -1.6707  0.6389  1.3775
11868TIP3    H257020   3.712   0.594  15.224 -0.8088  0.1951  0.7972
11869TIP3   OH257021   2.287   3.655   2.635 -0.0072  0.0021  0.0612
11869TIP3    H157022   2.221   3.668   2.703  1.2149  1.4844  1.0286
11869TIP3    H257023   2.314   3.564   2.645  0.1540  0.1999  1.5687
11870TIP3   OH257024   1.798   3.597   0.889  0.1438 -0.2611  0.6292
11870TIP3    H157025   1.746   3.563   0.961  0.3846  0.4015  1.1277
11870TIP3    H257026   1.741   3.590   0.812 -0.1550 -0.8608  0.8993
11871TIP3   OH257027   6.321   1.226  12.834 -0.2408 -0.4215 -0.4667
11871TIP3    H157028   6.274   1.299  12.794  0.9255 -0.0048 -1.1347
11871TIP3    H257029   6.408   1.261  12.855  0.6831 -1.8312 -1.6812
11872TIP3   OH257030   4.288   0.951  12.306 -0.3349 -0.1439 -0.5078
11872TIP3    H157031   4.281   0.929  12.399 -1.7295 -0.3954 -0.6505
11872TIP3    H257032   4.339   0.880  12.268  1.0780  0.4523  0.2148
11873TIP3   OH257033   6.075   5.821  15.391  0.3826 -0.0940 -0.1237
11873TIP3    H157034   6.061   5.914  15.372 -0.7273 -0.1977  0.1450
11873TIP3    H257035   6.075   5.779  15.304 -0.9222 -0.0695 -0.1509
11874TIP3   OH257036   5.709   6.219   1.328  0.4315  0.7377  0.3489
11874TIP3    H157037   5.748   6.307   1.321 -0.1067  0.8226 -3.0999
11874TIP3    H257038   5.659   6.208   1.247 -0.3114 -2.4154  1.1071
11875TIP3   OH257039   3.088   5.179  17.015  0.1922  0.3150 -0.2962
11875TIP3    H157040   3.170   5.167  17.064 -0.1821  1.4527  0.6869
11875TIP3    H257041   3.042   5.096  17.024 -0.3391  0.8001  2.3032
11876TIP3   OH257042   3.726   6.150  16.487  0.1388  0.1559 -0.4038
11876TIP3    H157043   3.796   6.201  16.529  1.3763 -1.6204 -0.1622
11876TIP3    H257044   3.762   6.061  16.482 -2.7986 -1.2647  1.3699
11877TIP3   OH257045   5.378   5.371   6.247  0.1624 -0.4773 -0.4339
11877TIP3    H157046   5.283   5.361   6.246  0.0548  0.0150  1.6078
11877TIP3    H257047   5.394   5.453   6.201 -0.2399 -1.3271 -2.1749
11878TIP3   OH257048   5.574   1.669   1.804  0.5779 -0.2335 -0.1914
11878TIP3    H157049   5.584   1.692   1.897  1.5722 -0.9175 -0.1227
11878TIP3    H257050   5.540   1.749   1.764  0.0947  0.0614  0.7632
11879TIP3   OH257051   6.165   3.342  17.223  0.4319  0.4407  0.2710
11879TIP3    H157052   6.177   3.369  17.131 -0.2268  2.6435  0.7576
11879TIP3    H257053   6.240   3.380  17.269  1.3749 -1.6193  0.5253
11880TIP3   OH257054   3.257   0.604  17.133 -0.1778  0.4696 -0.1097
11880TIP3    H157055   3.305   0.678  17.094 -0.3111  1.1348  0.9361
11880TIP3    H257056   3.253   0.539  17.063  0.1798  1.3420 -0.9793
11881TIP3   OH257057   0.317   2.026  14.819 -0.0028 -0.4301  0.3373
11881TIP3    H157058   0.274   2.101  14.861 -0.5058 -1.0757  1.0144
11881TIP3    H257059   0.406   2.056  14.802  0.1172 -0.0095  1.5650
11882TIP3   OH257060   1.812   1.640  17.140 -0.2086  0.3558 -0.0948
11882TIP3    H157061   1.741   1.612  17.198 -0.7958  1.9403  0.0051
11882TIP3    H257062   1.857   1.708  17.189  1.6591 -0.8879 -0.0055
11883TIP3   OH257063   1.432   5.756  12.643  0.1786 -0.7864 -0.2367
11883TIP3    H157064   1.336   5.758  12.644  0.1779 -0.3207 -0.8671
11883TIP3    H257065   1.454   5.672  12.684 -0.5548 -2.0207 -2.1885
11884TIP3   OH257066   1.642   5.820   1.551 -0.5811 -0.0362 -0.1736
11884TIP3    H157067   1.698   5.878   1.602  0.2178 -0.9265 -0.0025
11884TIP3    H257068   1.698   5.789   1.480 -0.9676 -0.6511 -0.2182
11885TIP3   OH257069   6.266   3.218  13.777  0.0128  0.9969  0.2611
11885TIP3    H157070   6.253   3.174  13.693  0.1566 -2.1667  1.7587
11885TIP3    H257071   6.184   3.206  13.823  0.3030  1.7656  1.0024
11886TIP3   OH257072   4.817   6.653   3.352  0.0095  0.8217 -0.2549
11886TIP3    H157073   4.854   6.705   3.280  2.1310 -1.1061 -0.6539
11886TIP3    H257074   4.876   6.669   3.426  0.0744 -0.1928 -0.0833
11887TIP3   OH257075   5.473   3.402  15.728  0.9159 -0.1922 -0.0190
11887TIP3    H157076   5.505   3.437  15.645 -1.2088 -0.5329 -1.0506
11887TIP3    H257077   5.441   3.479  15.776  0.4237 -0.1910 -0.3401
11888TIP3   OH257078   5.169   0.552  16.336 -0.1745 -0.1777 -0.5137
11888TIP3    H157079   5.111   0.600  16.395 -1.2851  1.1216 -2.5653
11888TIP3    H257080   5.137   0.573  16.248  1.5489 -1.8605 -1.6155
11889TIP3   OH257081   2.339   5.824  15.747  0.5764 -0.8673  0.7058
11889TIP3    H157082   2.314   5.822  15.654  1.0244 -2.6226  0.5824
11889TIP3    H257083   2.256   5.837  15.794  0.3238 -0.1345  0.0685
11890TIP3   OH257084   5.832   0.016  12.472  0.2547  0.0476 -0.2378
11890TIP3    H157085   5.882   0.064  12.538 -0.3945 -0.6080  0.7631
11890TIP3    H257086   5.804   0.082  12.409  1.1160  0.6435 -0.0032
11891TIP3   OH257087   0.829   5.600  11.350 -0.8020  0.4418  0.3940
11891TIP3    H157088   0.745   5.576  11.311 -1.1988  0.1123  1.4093
11891TIP3    H257089   0.892   5.537  11.313 -1.4302 -0.7850  1.3435
11892TIP3   OH257090   3.463   0.165  14.985  0.1611  0.5129  0.3738
11892TIP3    H157091   3.460   0.074  14.957 -1.3185 -0.3772  2.9985
11892TIP3    H257092   3.443   0.216  14.907  0.6703 -1.4117 -1.0684
11893TIP3   OH257093   4.091   4.736   6.155 -0.0270  0.5281  0.0282
11893TIP3    H157094   4.164   4.753   6.096 -0.1482 -0.0612 -0.2974
11893TIP3    H257095   4.128   4.684   6.226 -0.2437 -0.2479 -0.4232
11894TIP3   OH257096   6.029   5.441   2.527 -0.2110 -0.2445 -0.4046
11894TIP3    H157097   6.020   5.463   2.434 -2.7253  0.7577 -0.0259
11894TIP3    H257098   6.070   5.519   2.566 -0.9531  0.1655 -0.4140
11895TIP3   OH257099   3.124   4.173  14.200 -0.0366  0.4854 -0.2425
11895TIP3    H157100   3.116   4.235  14.271  1.0321  2.0128 -1.3840
11895TIP3    H257101   3.097   4.222  14.122 -1.0016 -1.0755 -0.9420
11896TIP3   OH257102   0.652   5.024   3.039 -0.0931 -0.3373 -0.0286
11896TIP3    H157103   0.598   5.090   2.994 -2.4993  0.1513  3.1666
11896TIP3    H257104   0.736   5.068   3.054 -0.2447  0.5009 -1.4525
11897TIP3   OH257105   1.135   4.730  17.020 -0.5505 -0.3511 -0.2473
11897TIP3    H157106   1.116   4.817  17.055 -0.7766 -0.7236  0.5893
11897TIP3    H257107   1.221   4.709  17.056 -0.2781 -0.2752 -0.8480
11898TIP3   OH257108   5.971   4.929   3.026  0.5728 -0.2481  0.0234
11898TIP3    H157109   5.992   4.845   3.066  2.9622  1.0248  1.6349
11898TIP3    H257110   6.056   4.965   3.000 -0.4090  1.6043 -0.7868
11899TIP3   OH257111   1.428   0.918   1.278 -0.2822  0.3294  0.2268
11899TIP3    H157112   1.378   0.926   1.197 -0.5801  1.6911  0.5228
11899TIP3    H257113   1.411   0.829   1.307 -0.1049 -0.2217 -1.2417
11900TIP3   OH257114   4.143   4.586   2.170  0.1523  0.2179 -0.1135
11900TIP3    H157115   4.223   4.594   2.222  2.2832 -0.8574 -2.9121
11900TIP3    H257116   4.087   4.528   2.220  0.8132  1.5063  2.2549
11901TIP3   OH257117   6.213   2.777   5.168  0.6432  0.0399 -0.5099
11901TIP3    H157118   6.170   2.729   5.097 -0.8972  0.0620  0.3845
11901TIP3    H257119   6.274   2.714   5.206  1.7894  0.1477 -2.0882
11902TIP3   OH257120   1.599   3.759  14.140 -0.1167  0.0900  0.6875
11902TIP3    H157121   1.527   3.782  14.081  0.2419  0.7933  0.5135
11902TIP3    H257122   1.626   3.672  14.112 -0.3731  0.1561  0.2233
11903TIP3   OH257123   2.850   1.043   0.963  0.2998 -0.4625 -0.2837
11903TIP3    H157124   2.828   1.136   0.951  0.0113 -0.6902 -1.6049
11903TIP3    H257125   2.887   1.039   1.051 -0.6198  0.7402  0.1898
11904TIP3   OH257126   5.401   3.056  14.067  0.4526  0.0791  0.1790
11904TIP3    H157127   5.331   3.045  14.003  0.6681 -0.8267  0.0946
11904TIP3    H257128   5.411   3.151  14.075 -0.3054  0.2075 -0.3284
11905TIP3   OH257129   5.766   2.669  16.074 -0.0211  0.3311 -0.0623
11905TIP3    H157130   5.746   2.708  15.989  1.6165  1.7675  0.1554
11905TIP3    H257131   5.695   2.700  16.131  0.5795  2.0409 -0.1882
11906TIP3   OH257132   0.023   4.202  12.846 -0.5705  0.2754  0.7389
11906TIP3    H157133   0.006   4.203  12.940 -0.1466  0.3715  0.8175
11906TIP3    H257134   0.101   4.257  12.835  0.0246 -0.6014  0.4655
11907TIP3   OH257135   6.128   5.227   6.120  0.5000 -0.2408  0.2283
11907TIP3    H157136   6.054   5.168   6.102  0.6729 -0.9301  1.6667
11907TIP3    H257137   6.160   5.199   6.206  0.6492  1.9098  0.9078
11908TIP3   OH257138   6.045   0.198   0.498  0.2270  1.1516  0.3994
11908TIP3    H157139   6.136   0.175   0.478 -0.0154  1.4424 -1.1799
11908TIP3    H257140   6.049   0.238   0.585  1.3568 -0.3441  1.0882
11909TIP3   OH257141   2.847   5.191  14.180  1.1684  0.3336  0.2742
11909TIP3    H157142   2.867   5.110  14.228 -2.5839 -1.3733 -0.6377
11909TIP3    H257143   2.784   5.237  14.236  0.8443  0.9836 -0.6046
11910TIP3   OH257144   6.547   2.469  11.594 -0.3319  0.0865 -0.3877
11910TIP3    H157145   6.452   2.457  11.598 -0.2968 -0.1473 -0.1649
11910TIP3    H257146   6.564   2.499  11.505 -0.3699 -2.3254 -1.2854
11911TIP3   OH257147   1.762   2.943  12.507  0.3202 -0.0314 -0.2061
11911TIP3    H157148   1.808   2.911  12.584 -0.8475  1.4909  1.2068
11911TIP3    H257149   1.825   2.935  12.436  1.2106 -2.1345  0.7345
11912TIP3   OH257150   5.035   2.740  11.466 -0.0747  0.1484  0.5256
11912TIP3    H157151   5.069   2.697  11.388 -0.2891  0.9067  0.0008
11912TIP3    H257152   5.100   2.723  11.534  0.2145 -0.3358  0.1295
11913TIP3   OH257153   3.431   6.649   3.684  0.2173 -0.3858  0.0573
11913TIP3    H157154   3.493   6.721   3.673  2.3767 -2.1508  0.0513
11913TIP3    H257155   3.392   6.638   3.597  2.9290 -1.7784 -1.1249
11914TIP3   OH257156   5.491   1.951  12.308 -0.1594  0.4961 -0.1371
11914TIP3    H157157   5.436   1.905  12.373 -0.6653 -0.0052 -0.9039
11914TIP3    H257158   5.568   1.979  12.358  1.3420 -3.1966 -0.0557
11915TIP3   OH257159   4.760   4.364   3.111 -0.0075  1.0422 -0.0073
11915TIP3    H157160   4.810   4.399   3.184  0.9537  0.5685 -0.4146
11915TIP3    H257161   4.686   4.319   3.152  1.5421 -0.9060  0.8483
11916TIP3   OH257162   2.857   6.531  12.478  0.3637 -0.4069 -0.4188
11916TIP3    H157163   2.828   6.479  12.553  3.8269 -1.2886  0.4845
11916TIP3    H257164   2.939   6.490  12.451  0.1975  1.0446 -3.5676
11917TIP3   OH257165   1.911   2.104  11.180 -0.4695  0.0038 -0.1965
11917TIP3    H157166   1.876   2.112  11.091 -0.7866  1.8694  0.0521
11917TIP3    H257167   1.910   2.193  11.214  0.1402 -0.6007  1.5099
11918TIP3   OH257168   2.838   1.145   0.322  0.2563 -0.5583  0.4335
11918TIP3    H157169   2.888   1.067   0.347 -0.0625 -0.7974  0.3323
11918TIP3    H257170   2.747   1.118   0.329  0.1056  0.1806  1.6240
11919TIP3   OH257171   4.350   3.703  16.155  0.3301 -0.5157  0.4608
11919TIP3    H157172   4.323   3.615  16.127  0.4155 -0.6722  0.8599
11919TIP3    H257173   4.387   3.742  16.076 -1.9163  0.0765 -0.3625
11920TIP3   OH257174   2.591   0.037   0.911 -0.4378 -0.0328  0.0264
11920TIP3    H157175   2.632   0.071   0.990  2.3357 -0.9305 -0.9229
11920TIP3    H257176   2.512  -0.008   0.942  0.4429 -0.1485  2.2576
11921TIP3   OH257177   5.303   2.581  13.432  0.1713  0.1065  0.1729
11921TIP3    H157178   5.379   2.575  13.374 -2.2048  0.4867 -3.2615
11921TIP3    H257179   5.286   2.490  13.457  1.5745 -0.0040  0.8476
11922TIP3   OH257180   2.492   5.171   4.760  0.2046 -0.4134  0.1718
11922TIP3    H157181   2.559   5.239   4.753  0.9262 -1.2486 -1.6129
11922TIP3    H257182   2.467   5.153   4.669 -2.5012 -0.0951  0.7666
11923TIP3   OH257183   6.134   0.896  15.029  0.1835  0.3991  0.1345
11923TIP3    H157184   6.112   0.861  15.116 -0.0841  0.2483  0.0065
11923TIP3    H257185   6.113   0.989  15.035  1.2953  0.6423  0.6100
11924TIP3   OH257186   3.499   5.429   4.375  0.5445  0.3553 -0.4916
11924TIP3    H157187   3.571   5.381   4.334  0.7220 -0.3536  0.5985
11924TIP3    H257188   3.536   5.465   4.455 -0.4009 -0.3743  0.3049
11925TIP3   OH257189   1.978   3.849  13.687  0.6960  0.2346 -0.2006
11925TIP3    H157190   2.012   3.760  13.699  1.1150  0.3985 -0.1609
11925TIP3    H257191   1.997   3.869  13.595  0.1805  0.1078 -0.3360
11926TIP3   OH257192   4.811   0.068  13.283 -0.3748  0.0137  0.3563
11926TIP3    H157193   4.768   0.047  13.201 -1.0653  0.0105  0.7087
11926TIP3    H257194   4.879   0.132  13.260 -1.1553  0.7055 -0.0846
11927TIP3   OH257195   3.726   3.130  17.267 -0.2720  0.3664  0.2444
11927TIP3    H157196   3.733   3.225  17.262  2.2934  0.4378  2.8704
11927TIP3    H257197   3.780   3.098  17.195  1.7261  0.9735  1.4223
11928TIP3   OH257198   1.907   3.392   3.335  0.2562 -0.9292 -0.0083
11928TIP3    H157199   1.931   3.305   3.303 -1.6310 -1.1918 -0.8483
11928TIP3    H257200   1.906   3.382   3.431 -1.9155 -2.4634 -0.1142
11929TIP3   OH257201   1.091   5.282   2.664 -0.0233  0.5277 -0.2106
11929TIP3    H157202   1.147   5.358   2.678 -0.7351  1.4918 -2.2268
11929TIP3    H257203   1.141   5.225   2.605 -0.0133  0.0184  0.2796
11930TIP3   OH257204   0.897   5.030   4.417 -0.1447 -0.1822 -0.2007
11930TIP3    H157205   0.964   4.989   4.472  0.6432 -1.3429 -1.9346
11930TIP3    H257206   0.815   5.018   4.465  0.5342 -0.9528  0.8090
11931TIP3   OH257207   2.913   5.934  11.702  0.5964  0.5436 -0.2057
11931TIP3    H157208   2.894   6.026  11.686  0.8832  0.7014  0.3303
11931TIP3    H257209   3.004   5.933  11.732  0.3372  0.1823  0.5959
11932TIP3   OH257210   4.930   0.445  14.430 -0.0700  0.1915 -0.2917
11932TIP3    H157211   4.951   0.511  14.496  0.4669  0.5815 -0.8447
11932TIP3    H257212   4.837   0.427  14.444 -0.3082  1.3075 -0.3328
11933TIP3   OH257213   5.300   5.087  17.304 -0.0775 -0.1159 -0.1596
11933TIP3    H157214   5.213   5.064  17.272 -1.1369  1.1675  1.6018
11933TIP3    H257215   5.293   5.079  17.399  1.5870  0.4758  0.0390
11934TIP3   OH257216   2.031   4.636   0.957  0.1255 -0.4448 -0.9848
11934TIP3    H157217   2.081   4.562   0.923 -0.1312 -0.7423 -0.7201
11934TIP3    H257218   1.972   4.660   0.885  1.3894  0.6262 -1.7215
11935TIP3   OH257219   0.109   0.549  11.117 -0.0806  0.6986 -0.3650
11935TIP3    H157220   0.142   0.576  11.031 -0.7618 -0.9005 -1.1730
11935TIP3    H257221   0.015   0.536  11.104  0.0143 -0.8508  0.2518
11936TIP3   OH257222   4.951   2.080  13.786 -0.0027 -0.0726 -0.5906
11936TIP3    H157223   5.032   2.108  13.828  1.1188 -1.2150 -1.8957
11936TIP3    H257224   4.937   2.144  13.716 -0.6910  0.5850  0.1296
11937TIP3   OH257225   1.344   1.200   6.164 -0.1596  0.3524  0.5081
11937TIP3    H157226   1.398   1.211   6.085 -0.3648 -0.7525  0.2034
11937TIP3    H257227   1.290   1.123   6.145 -1.8305  1.4096  0.8162
11938TIP3   OH257228   4.577   0.289   5.819  0.1065  0.0290 -0.2086
11938TIP3    H157229   4.512   0.343   5.863  1.1069  1.3088 -0.2362
11938TIP3    H257230   4.546   0.279   5.730 -0.9498 -0.9276  0.2433
11939TIP3   OH257231   3.494   1.149  10.884 -0.6409  0.1118  0.1459
11939TIP3    H157232   3.541   1.230  10.867  0.2465 -0.2159  0.9550
11939TIP3    H257233   3.438   1.170  10.959 -0.3667 -0.0306  0.3938
11940TIP3   OH257234   6.226   3.605   3.710  0.6248 -0.3431  0.4462
11940TIP3    H157235   6.248   3.680   3.655  0.1755 -0.2999  0.3250
11940TIP3    H257236   6.182   3.544   3.650  0.2582 -0.3550  0.7265
11941TIP3   OH257237   4.987   2.056   1.574  0.2530 -0.0286 -0.2964
11941TIP3    H157238   4.899   2.091   1.589  0.7717  2.4551 -2.3562
11941TIP3    H257239   4.975   1.988   1.508 -0.0808  0.8471 -1.1654
11942TIP3   OH257240   3.053   0.992   4.127 -0.0132 -0.4388 -0.4505
11942TIP3    H157241   3.087   0.939   4.199  0.2702  0.0019 -0.2570
11942TIP3    H257242   3.063   0.936   4.050  0.2876 -0.6658 -0.2509
11943TIP3   OH257243   3.884   4.723  14.552  0.2438  0.2695 -0.3662
11943TIP3    H157244   3.799   4.690  14.584  0.1323  2.5471  1.9989
11943TIP3    H257245   3.863   4.807  14.512  1.1900 -0.0352 -1.5593
11944TIP3   OH257246   2.105   5.378  17.160 -0.4875  0.3837  0.4504
11944TIP3    H157247   2.077   5.401  17.071 -1.2874  0.7765  0.7844
11944TIP3    H257248   2.059   5.441  17.215 -0.0371  0.1078  1.1467
11945TIP3   OH257249   4.148   0.085  13.023 -0.1380  0.1849 -0.1944
11945TIP3    H157250   4.091   0.008  13.022 -1.0140  0.8063 -0.0508
11945TIP3    H257251   4.128   0.128  13.107  1.3773 -0.1724  0.3767
11946TIP3   OH257252   5.954   1.408  13.549 -0.1613 -0.2062  0.1861
11946TIP3    H157253   5.958   1.469  13.623  2.1293  0.0024 -0.0465
11946TIP3    H257254   5.964   1.321  13.589  0.0738 -0.1713  0.2010
11947TIP3   OH257255   2.350   5.351   0.006 -0.4491 -0.6034  0.2480
11947TIP3    H157256   2.270   5.346  -0.046 -1.6303 -0.0417  1.9002
11947TIP3    H257257   2.401   5.275  -0.021 -1.4736 -0.9037 -0.9438
11948TIP3   OH257258   4.041   1.086  17.011 -0.6768 -0.0745  0.3726
11948TIP3    H157259   4.126   1.054  16.979 -0.0165 -0.2672  2.1757
11948TIP3    H257260   4.051   1.181  17.014  0.8146 -0.1690  3.7001
11949TIP3   OH257261   4.464   4.596   4.685  0.8243 -0.5006 -0.3238
11949TIP3    H157262   4.517   4.574   4.761 -1.8052 -3.6836  0.8571
11949TIP3    H257263   4.422   4.679   4.708  1.1547 -0.7021  1.1041
11950TIP3   OH257264   3.551   2.195  14.976 -0.3784  0.2921  0.3687
11950TIP3    H157265   3.475   2.249  14.999 -0.6140  1.3225 -2.4205
11950TIP3    H257266   3.514   2.110  14.955 -0.5468  0.3221  0.5365
11951TIP3   OH257267   0.332   6.381   1.888  0.3348 -0.5461 -0.5145
11951TIP3    H157268   0.333   6.452   1.824  0.2862  0.5124  0.6154
11951TIP3    H257269   0.421   6.346   1.887  1.0074  1.0316  0.4945
11952TIP3   OH257270   5.210   6.320   3.909  0.2553 -0.2818  0.1228
11952TIP3    H157271   5.162   6.263   3.969  1.1141 -1.5463 -0.3584
11952TIP3    H257272   5.226   6.400   3.960 -0.8176 -0.5229  0.8619
11953TIP3   OH257273   1.646   0.372  12.482  0.3808 -0.8075 -0.4523
11953TIP3    H157274   1.706   0.435  12.443  0.7435 -0.0449  1.2659
11953TIP3    H257275   1.701   0.299  12.511  0.4119 -0.3921  0.5588
11954TIP3   OH257276   5.894   3.686   0.523  0.3865 -0.1684  0.1801
11954TIP3    H157277   5.945   3.616   0.564  1.8265  0.6947 -0.0527
11954TIP3    H257278   5.843   3.723   0.595  2.5161  1.0162  1.1745
11955TIP3   OH257279   3.870   6.526   0.174 -0.5067 -0.1572 -0.2101
11955TIP3    H157280   3.918   6.457   0.220  1.3181  1.9224  1.2497
11955TIP3    H257281   3.872   6.500   0.082  2.1223 -0.9899  0.0017
11956TIP3   OH257282   0.425   3.435   5.768 -0.5255 -0.6075 -0.1835
11956TIP3    H157283   0.463   3.371   5.708  0.0485 -0.1660 -0.2942
11956TIP3    H257284   0.369   3.490   5.714 -0.7168 -0.7727 -0.1550
11957TIP3   OH257285   4.641   6.046  16.302 -0.1599 -0.5041 -0.0871
11957TIP3    H157286   4.615   5.978  16.364  1.3183  0.2100  1.3889
11957TIP3    H257287   4.617   6.128  16.345  0.2990 -0.0127 -0.7517
11958TIP3   OH257288   2.397   0.599  12.550 -0.2541  0.2017 -0.1877
11958TIP3    H157289   2.359   0.673  12.503 -0.6512 -0.1174 -0.3703
11958TIP3    H257290   2.398   0.528  12.487 -4.6576 -1.5181  1.3063
11959TIP3   OH257291   0.227   0.473   4.839 -0.3350 -0.2747 -0.0223
11959TIP3    H157292   0.281   0.484   4.917  0.7977  0.8277 -0.9176
11959TIP3    H257293   0.143   0.512   4.862  0.1198  0.3984  0.5175
11960TIP3   OH257294   5.535   6.279  14.302 -0.2507  0.6915  0.5971
11960TIP3    H157295   5.611   6.222  14.292 -0.1968  0.9026 -0.2054
11960TIP3    H257296   5.569   6.358  14.344  0.2094  1.2733 -0.8311
11961TIP3   OH257297   3.827   5.915  16.410  0.3812 -0.0018 -0.1119
11961TIP3    H157298   3.797   5.824  16.405  0.3255  0.0399 -0.5552
11961TIP3    H257299   3.923   5.909  16.404  0.2948  0.1041 -2.3730
11962TIP3   OH257300   2.840   4.401   1.745  0.6567  0.9162  0.2629
11962TIP3    H157301   2.802   4.405   1.657 -1.5852 -1.5407  0.9811
11962TIP3    H257302   2.934   4.397   1.730  0.2990 -1.3597 -2.2367
11963TIP3   OH257303   2.722   3.079  13.793 -0.1490 -0.7903 -0.0375
11963TIP3    H157304   2.795   3.051  13.738 -0.8412 -1.7146 -0.5086
11963TIP3    H257305   2.670   3.000  13.807 -1.7909  0.0961 -0.8213
11964TIP3   OH257306   6.031   3.497   2.941  0.3976  0.2170 -0.7998
11964TIP3    H157307   5.961   3.444   2.979 -1.2619  2.1379 -0.9605
11964TIP3    H257308   6.022   3.485   2.847  1.0312 -0.4123 -0.7812
11965TIP3   OH257309   2.798   4.184   6.333  0.5957 -0.6375  0.0413
11965TIP3    H157310   2.858   4.180   6.408  0.7640 -0.1936 -0.0725
11965TIP3    H257311   2.721   4.134   6.362 -0.3443  1.4942  1.4295
11966TIP3   OH257312   3.367   5.883   2.066  0.5010 -0.5352  0.0960
11966TIP3    H157313   3.305   5.955   2.070  0.9448 -0.1353 -0.1743
11966TIP3    H257314   3.448   5.918   2.104  0.5371 -1.0797  0.5310
11967TIP3   OH257315   5.820   0.509  12.699  0.3537 -0.0689 -0.1219
11967TIP3    H157316   5.752   0.573  12.679  0.0706 -0.1674  0.5137
11967TIP3    H257317   5.882   0.517  12.626 -1.3883 -1.4508 -1.8933
11968TIP3   OH257318   4.269   4.418  10.957 -0.0543 -0.2136 -0.1073
11968TIP3    H157319   4.362   4.423  10.981  0.3793 -2.9109 -0.8706
11968TIP3    H257320   4.261   4.475  10.880  0.6185  1.1134  0.7630
11969TIP3   OH257321   4.237   0.502  14.170  0.6223 -0.2853  0.2403
11969TIP3    H157322   4.242   0.573  14.106 -1.2080  0.3876  0.7596
11969TIP3    H257323   4.221   0.424  14.118 -2.8135  0.5159 -0.1939
11970TIP3   OH257324   0.980   6.301   5.981  0.0617  0.2014 -0.8908
11970TIP3    H157325   1.062   6.277   6.025  1.2650  0.8323 -2.6460
11970TIP3    H257326   0.951   6.381   6.023  0.4992  0.1183 -0.4300
11971TIP3   OH257327   1.743   4.373  12.443  0.6931 -0.8709 -0.0080
11971TIP3    H157328   1.733   4.280  12.459  2.9194 -1.1405  0.1407
11971TIP3    H257329   1.737   4.413  12.529 -0.4930 -0.8158 -0.0965
11972TIP3   OH257330   2.755   1.696   5.487  0.7546 -0.1528  0.5851
11972TIP3    H157331   2.726   1.705   5.578  0.5554 -2.7220  0.8470
11972TIP3    H257332   2.829   1.757   5.479  0.7214  0.1765  2.4300
11973TIP3   OH257333   0.359   6.638   2.121 -0.1939  0.3627  0.7636
11973TIP3    H157334   0.412   6.698   2.174 -1.7061 -1.4989  4.8359
11973TIP3    H257335   0.284   6.690   2.092 -0.7673  0.8847  3.0102
11974TIP3   OH257336   2.391   5.798   2.921 -0.1975  0.5918 -0.1889
11974TIP3    H157337   2.469   5.749   2.946 -0.1451  0.8589  0.1750
11974TIP3    H257338   2.332   5.732   2.884  0.4033  0.4697 -0.9645
11975TIP3   OH257339   5.501   1.430   2.528 -0.2643 -0.1783  0.1921
11975TIP3    H157340   5.595   1.444   2.514  0.0995 -2.9212 -0.6388
11975TIP3    H257341   5.488   1.445   2.622  0.0000  4.6928 -0.3181
11976TIP3   OH257342   0.906   4.192   4.353  0.0505 -0.4532 -0.5466
11976TIP3    H157343   0.850   4.257   4.395  1.6647 -0.4515  1.7817
11976TIP3    H257344   0.848   4.117   4.338 -0.7253 -0.2831  1.3140
11977TIP3   OH257345   5.006   1.207  14.086 -0.2385 -0.6225 -0.3768
11977TIP3    H157346   4.917   1.236  14.067  0.5643  0.8985 -2.1575
11977TIP3    H257347   5.005   1.113  14.066 -1.0007 -0.2514 -2.2979
11978TIP3   OH257348   1.472   1.078   2.488 -0.2874  0.5388  0.3647
11978TIP3    H157349   1.482   0.989   2.456  0.0071 -0.4523  2.9416
11978TIP3    H257350   1.407   1.118   2.430  1.6599 -0.3395 -2.6457
11979TIP3   OH257351   5.485   3.494   4.937  0.0437 -0.0874  0.3680
11979TIP3    H157352   5.507   3.416   4.886  2.0743  0.7295 -0.0941
11979TIP3    H257353   5.508   3.567   4.879 -1.2588  0.8779  1.0178
11980TIP3   OH257354   6.364   2.934  11.341  0.7161 -0.4916 -0.1108
11980TIP3    H157355   6.382   2.943  11.248 -1.6749  2.2571 -0.4540
11980TIP3    H257356   6.268   2.928  11.347  0.6835  0.8257  2.1808
11981TIP3   OH257357   6.006   6.104  16.195 -0.0258  0.1419  0.2038
11981TIP3    H157358   6.005   6.164  16.121  1.2874  2.0344  1.6030
11981TIP3    H257359   6.053   6.027  16.164  1.5883  1.4039 -0.6152
11982TIP3   OH257360   1.822   2.132  13.737  0.1299  0.6633 -0.1636
11982TIP3    H157361   1.770   2.051  13.740  0.5257  0.4401  1.0682
11982TIP3    H257362   1.778   2.186  13.672 -1.6334  0.4688  0.8164
11983TIP3   OH257363   3.855   4.979   4.314  0.5402 -0.2790 -0.2138
11983TIP3    H157364   3.814   5.048   4.366 -0.8183 -0.9524 -0.3639
11983TIP3    H257365   3.824   4.994   4.225 -0.3406 -1.4964 -0.1270
11984TIP3   OH257366   5.033   0.588  15.019 -0.3038 -0.0775  0.4463
11984TIP3    H157367   5.089   0.575  15.096  0.6114 -0.0211 -0.2032
11984TIP3    H257368   4.949   0.617  15.056 -0.7280 -2.5533  1.6014
11985TIP3   OH257369   3.198   3.292   4.425  0.2952 -0.2967 -0.0956
11985TIP3    H157370   3.246   3.217   4.460  1.5065  1.5134  2.4341
11985TIP3    H257371   3.106   3.270   4.437  0.6006 -1.6882 -0.1754
11986TIP3   OH257372   1.181   0.665  10.636  0.8146  0.0172 -0.6396
11986TIP3    H157373   1.233   0.685  10.713  1.9407 -2.2100 -0.7366
11986TIP3    H257374   1.091   0.685  10.663  1.5853  4.3555 -0.6193
11987TIP3   OH257375   2.664   4.347   5.237  0.4586 -0.3265 -0.4559
11987TIP3    H157376   2.706   4.431   5.258  0.4026 -0.4022 -0.0383
11987TIP3    H257377   2.726   4.303   5.179  0.1379  0.3393 -1.3379
11988TIP3   OH257378   4.863   6.320   3.717 -0.1548  0.7776 -0.5556
11988TIP3    H157379   4.807   6.374   3.662  1.0042  1.5944 -0.9756
11988TIP3    H257380   4.874   6.239   3.667 -3.3669 -0.7365  0.8644
11989TIP3   OH257381   4.462   0.587   1.132  0.4189 -0.5227  0.9900
11989TIP3    H157382   4.429   0.677   1.122 -2.0198 -1.1354  2.4352
11989TIP3    H257383   4.521   0.574   1.059 -1.6317  1.2273 -1.1346
11990TIP3   OH257384   4.067   0.960  16.483 -0.0561  0.2224  0.0470
11990TIP3    H157385   4.136   0.893  16.485  0.7969  1.0270 -1.4898
11990TIP3    H257386   4.091   1.021  16.553  0.2518 -0.0286  0.1641
11991TIP3   OH257387   4.491   2.501  16.075  0.4100  0.2241  0.4084
11991TIP3    H157388   4.422   2.461  16.127 -0.0826 -1.6115 -1.4937
11991TIP3    H257389   4.542   2.552  16.137 -0.9543 -0.6977  2.3846
11992TIP3   OH257390   4.457   5.887   5.972 -0.4260  0.3082  0.1831
11992TIP3    H157391   4.503   5.968   5.951  0.0907  0.4352  1.6700
11992TIP3    H257392   4.519   5.818   5.949 -0.9836  0.2863 -1.3759
11993TIP3   OH257393   1.247   6.546   0.851  0.1179  0.1248  0.0367
11993TIP3    H157394   1.218   6.489   0.923 -0.4321 -0.6348 -0.7649
11993TIP3    H257395   1.175   6.608   0.840 -0.2514 -0.3833 -0.4981
11994TIP3   OH257396   1.985   5.683   6.671  0.5095  0.9448  0.0396
11994TIP3    H157397   1.927   5.674   6.747  1.4326  1.8743  0.8819
11994TIP3    H257398   2.073   5.680   6.708  1.0060  0.3345 -1.1374
11995TIP3   OH257399   3.116   2.486  16.570 -0.5052  0.0972 -0.0204
11995TIP3    H157400   3.076   2.460  16.487  0.5287  1.7588 -1.0954
11995TIP3    H257401   3.044   2.526  16.619 -1.0430 -0.5763 -0.2345
11996TIP3   OH257402   3.116   1.997   0.069  0.3289 -0.2553  0.5268
11996TIP3    H157403   3.195   1.954   0.036 -0.2195 -0.3360 -0.7435
11996TIP3    H257404   3.065   1.926   0.109  0.4760 -0.3794  0.4946
11997TIP3   OH257405   0.205   6.153  11.378 -0.3451  0.1354 -0.0639
11997TIP3    H157406   0.160   6.085  11.428  0.3637 -0.5677 -0.3561
11997TIP3    H257407   0.277   6.107  11.334 -1.6118  0.4574 -2.7108
11998TIP3   OH257408   4.311   2.682   3.374  0.1558  0.1260  0.4758
11998TIP3    H157409   4.383   2.728   3.417  0.3143 -0.9454  1.3665
11998TIP3    H257410   4.292   2.607   3.430 -0.8909 -0.2542 -0.3473
11999TIP3   OH257411   2.878   2.041  15.823 -0.0355 -0.1895  0.5028
11999TIP3    H157412   2.951   2.005  15.873  0.7189  1.5628  0.7396
11999TIP3    H257413   2.806   2.047  15.886  0.6644  1.2488  1.2107
12000TIP3   OH257414   0.902   5.791   1.204 -0.5628 -0.1108  0.9272
12000TIP3    H157415   0.879   5.738   1.280 -0.3140  2.4723  2.9465
12000TIP3    H257416   0.819   5.827   1.173 -0.4404  0.5050  1.3075
12001TIP3   OH257417   6.491   3.152   2.587 -0.3221 -0.3040  0.2448
12001TIP3    H157418   6.405   3.190   2.603 -0.8290 -0.8583 -1.0044
12001TIP3    H257419   6.482   3.060   2.610 -0.1599 -0.4370 -0.2133
12002TIP3   OH257420   4.299   0.202   6.620  0.0547  0.3351 -0.4361
12002TIP3    H157421   4.294   0.297   6.629  1.7771  0.3695  0.7067
12002TIP3    H257422   4.283   0.170   6.709 -1.8082 -0.5581 -1.0424
12003TIP3   OH257423   0.570   3.850  17.233 -0.3510  0.2507 -0.3041
12003TIP3    H157424   0.627   3.815  17.164 -0.0328 -1.8271  0.9088
12003TIP3    H257425   0.604   3.937  17.250  0.9892 -0.0507 -1.2335
12004TIP3   OH257426   5.341   1.606   0.412  0.7032  0.5029 -0.0488
12004TIP3    H157427   5.391   1.685   0.431  0.7483  0.4953 -0.1390
12004TIP3    H257428   5.371   1.577   0.326  0.9860  0.1520  0.1655
12005TIP3   OH257429   5.750   3.140   1.888 -0.5224 -0.2270 -0.1235
12005TIP3    H157430   5.776   3.207   1.952 -3.1318  1.2785 -0.5234
12005TIP3    H257431   5.710   3.071   1.940  2.3033 -1.6954  0.3060
12006TIP3   OH257432   3.044   5.376  15.073  0.5164 -0.4679  0.3223
12006TIP3    H157433   3.043   5.281  15.060 -1.2320 -0.5913  1.0700
12006TIP3    H257434   2.996   5.389  15.154  1.1600  1.0497  0.4901
12007TIP3   OH257435   3.258   3.344  15.105 -0.1750 -0.1277 -0.0356
12007TIP3    H157436   3.237   3.332  15.197 -0.0013  1.4671  0.2327
12007TIP3    H257437   3.349   3.376  15.104  0.5255 -2.0012 -0.8914
12008TIP3   OH257438   6.448   6.612  15.492  0.3046 -0.2925  0.1474
12008TIP3    H157439   6.377   6.641  15.548  0.1475 -0.8402  0.2373
12008TIP3    H257440   6.527   6.621  15.546  0.2535 -0.0679  0.1835
12009TIP3   OH257441   6.083   3.670   5.105  0.6048 -0.0547 -0.1727
12009TIP3    H157442   6.167   3.716   5.101 -0.0542  1.2649  0.3713
12009TIP3    H257443   6.065   3.661   5.199 -0.8247  1.6185 -0.2155
12010TIP3   OH257444   1.662   3.164  13.982 -0.3371  0.2767  0.0154
12010TIP3    H157445   1.590   3.227  13.985 -0.6077  0.1104 -1.7149
12010TIP3    H257446   1.668   3.129  14.071 -3.0557 -0.4544 -0.0079
12011TIP3   OH257447   1.253   0.182  14.580  0.0694 -0.5099 -0.4556
12011TIP3    H157448   1.161   0.199  14.602  0.6240  0.5880  1.2511
12011TIP3    H257449   1.293   0.269  14.572  0.6623 -0.9297 -2.8216
12012TIP3   OH257450   1.482   0.327  13.963  0.3140  0.6703 -0.2352
12012TIP3    H157451   1.503   0.248  13.915  1.1481  1.0231 -0.4735
12012TIP3    H257452   1.390   0.317  13.988  0.7232 -0.8963  0.7565
12013TIP3   OH257453   3.473   1.758  15.516  0.3071 -0.0315  0.1724
12013TIP3    H157454   3.442   1.698  15.583  0.9179 -0.2103  0.3011
12013TIP3    H257455   3.406   1.755  15.448 -0.1963 -0.0268  0.6656
12014TIP3   OH257456   4.314   3.697  12.310 -0.0503 -0.3829 -0.3103
12014TIP3    H157457   4.337   3.604  12.311 -3.5938 -1.4093 -0.5459
12014TIP3    H257458   4.340   3.727  12.223  0.4908 -1.3358 -0.4939
12015TIP3   OH257459   6.706   6.574   4.856 -0.1672  0.1846 -0.2791
12015TIP3    H157460   6.724   6.588   4.949 -2.3526  2.0696 -0.0358
12015TIP3    H257461   6.719   6.480   4.843 -1.0140 -0.3734  2.2448
12016TIP3   OH257462   5.471   0.642   4.409 -0.3924  0.5461  0.9413
12016TIP3    H157463   5.458   0.651   4.503 -0.9078 -1.0814  1.0551
12016TIP3    H257464   5.395   0.593   4.379  0.2803  0.1470 -0.1562
12017TIP3   OH257465   5.413   0.015   0.165  0.0671 -0.5253 -0.1680
12017TIP3    H157466   5.388   0.107   0.171 -2.3964 -1.1846  1.6165
12017TIP3    H257467   5.419  -0.014   0.256 -1.8571 -2.7023 -0.6400
12018TIP3   OH257468   0.054   4.763   2.433  0.4035 -0.2785 -0.0556
12018TIP3    H157469   0.080   4.789   2.344  0.5562  0.5080  0.2136
12018TIP3    H257470  -0.005   4.833   2.462 -0.7243 -1.1979 -0.0340
12019TIP3   OH257471   3.603   0.718  10.584  0.0711  0.7354  0.0616
12019TIP3    H157472   3.579   0.629  10.609 -1.0077  0.9907 -0.0102
12019TIP3    H257473   3.665   0.707  10.512 -0.9972  0.0412 -0.7849
12020TIP3   OH257474   4.646   2.929  13.915  0.5975 -0.4953  0.6692
12020TIP3    H157475   4.581   2.858  13.918  0.3918 -0.2840  1.6772
12020TIP3    H257476   4.595   3.008  13.895  0.8731 -0.6618 -0.8031
12021TIP3   OH257477   2.413   0.684   4.416  0.1892  0.2348  0.4310
12021TIP3    H157478   2.448   0.690   4.327 -0.5474 -0.7192  0.0632
12021TIP3    H257479   2.487   0.710   4.472  0.8594  0.2194 -0.4202
12022TIP3   OH257480   5.930   1.892  14.613  0.2054  0.1258 -0.5289
12022TIP3    H157481   5.894   1.849  14.690 -1.4542  0.1679 -1.2334
12022TIP3    H257482   6.001   1.947  14.647  1.4512 -2.0464  0.5518
12023TIP3   OH257483   6.450   2.614   2.583  0.2615 -0.2746 -0.0600
12023TIP3    H157484   6.450   2.679   2.512 -1.1924 -0.9894 -0.7549
12023TIP3    H257485   6.369   2.629   2.630  1.3491  0.3824  1.7025
12024TIP3   OH257486   2.627   3.854  16.652 -0.0398 -0.1946  0.4758
12024TIP3    H157487   2.607   3.941  16.685  0.4815  0.0144  0.2481
12024TIP3    H257488   2.718   3.859  16.625  0.6382 -1.4109  2.3888
12025TIP3   OH257489   6.376   4.436   4.707  0.1063 -0.4002 -0.2362
12025TIP3    H157490   6.285   4.406   4.713 -0.1908  0.6620  1.1207
12025TIP3    H257491   6.403   4.447   4.799  1.7956 -1.1956 -0.5954
12026TIP3   OH257492   6.754   6.529  16.265 -0.4022  0.0649 -0.3305
12026TIP3    H157493   6.747   6.448  16.314 -1.6310  1.6310  2.2985
12026TIP3    H257494   6.713   6.510  16.180 -0.1714 -2.1604  0.0162
12027TIP3   OH257495   0.153   5.535   4.456  0.2055  0.0037  0.1502
12027TIP3    H157496   0.087   5.549   4.524 -2.6387  2.2759 -2.7852
12027TIP3    H257497   0.143   5.443   4.432 -0.2261 -0.2698  1.3108
12028TIP3   OH257498   1.902   4.571   2.233  0.0874 -0.0734  0.0156
12028TIP3    H157499   1.855   4.521   2.167  1.1379 -0.5760 -0.3815
12028TIP3    H257500   1.994   4.558   2.211  0.4097  2.0034 -0.0763
12029TIP3   OH257501   6.406   1.720  13.810 -0.2413 -0.6616  0.2097
12029TIP3    H157502   6.418   1.635  13.852 -0.8597 -1.3072 -0.8825
12029TIP3    H257503   6.448   1.783  13.870  0.6811 -1.7846  0.7773
12030TIP3   OH257504   2.610   6.120  12.106 -0.0713 -0.1880 -0.9804
12030TIP3    H157505   2.647   6.047  12.155 -0.4188  1.1064  1.3985
12030TIP3    H257506   2.541   6.081  12.053  1.1307 -1.8467 -1.4005
12031TIP3   OH257507   3.986   5.113   5.953  0.7969 -0.5004 -0.3255
12031TIP3    H157508   3.925   5.075   6.017  0.2125 -0.9366 -1.1337
12031TIP3    H257509   4.019   5.191   5.997  0.4070 -0.7880  0.5211
12032TIP3   OH257510   3.229   3.459  11.892  0.0776  0.2689  0.5337
12032TIP3    H157511   3.319   3.457  11.924  0.2989  0.9372 -0.0343
12032TIP3    H257512   3.188   3.531  11.940  0.2583  0.9158 -0.2720
12033TIP3   OH257513   3.839   2.967   5.144 -0.1256  0.1195  0.2598
12033TIP3    H157514   3.865   3.041   5.090  1.2898 -0.8051 -0.3958
12033TIP3    H257515   3.841   3.000   5.234 -1.0608  1.2792 -0.1243
12034TIP3   OH257516   3.940   3.189   4.982  0.3271 -0.2483  0.2940
12034TIP3    H157517   3.961   3.135   4.905  2.2861 -0.9600  1.2642
12034TIP3    H257518   3.938   3.279   4.948  2.7749 -0.3811 -0.3578
12035TIP3   OH257519   2.892   5.267   2.710 -0.2914 -0.3960  0.4735
12035TIP3    H157520   2.903   5.191   2.654  1.1321  0.4071 -0.4099
12035TIP3    H257521   2.971   5.320   2.695  0.3383 -0.2821  3.4613
12036TIP3   OH257522   2.806   6.686   5.926  1.0337 -0.2540  0.2441
12036TIP3    H157523   2.796   6.771   5.883 -1.4472 -0.1424  0.8348
12036TIP3    H257524   2.799   6.622   5.856 -0.1775  0.0014  0.1000
12037TIP3   OH257525   3.925   5.560   0.030  0.1050 -0.3028  0.8163
12037TIP3    H157526   3.977   5.618  -0.026 -2.4049  1.9887  0.6434
12037TIP3    H257527   3.974   5.554   0.112  2.3961 -1.3363 -0.5298
12038TIP3   OH257528   2.224   1.310  14.351  0.3127  0.0003 -0.1393
12038TIP3    H157529   2.183   1.396  14.350  0.2817 -0.0146 -0.1768
12038TIP3    H257530   2.191   1.269  14.431  2.0201  0.8243  1.0308
12039TIP3   OH257531   1.746   2.621  15.497 -0.3022 -0.8151 -0.0738
12039TIP3    H157532   1.656   2.655  15.491  0.1711  0.3214 -1.5966
12039TIP3    H257533   1.790   2.680  15.558 -0.3137 -0.6658 -0.2082
12040TIP3   OH257534   5.031   0.439   1.555  0.9836 -0.5655 -0.4621
12040TIP3    H157535   5.111   0.489   1.570  0.4534 -0.0886  1.0317
12040TIP3    H257536   4.960   0.500   1.578  0.2694 -1.5446  0.0156
12041TIP3   OH257537   3.651   0.450   4.742  0.4323  0.2784  0.3573
12041TIP3    H157538   3.614   0.536   4.763  0.6621  0.5469 -0.3099
12041TIP3    H257539   3.722   0.438   4.805  0.0867  0.3573  0.7691
12042TIP3   OH257540   2.234   4.778   0.112 -0.5169 -0.2528  0.4802
12042TIP3    H157541   2.185   4.753   0.035 -0.4078  0.4492  0.1710
12042TIP3    H257542   2.270   4.696   0.146 -0.2136 -0.5242 -0.4563
12043TIP3   OH257543   0.443   3.322   1.554 -0.1039 -0.4936  0.3473
12043TIP3    H157544   0.442   3.226   1.563  0.0102 -0.7200 -1.5408
12043TIP3    H257545   0.530   3.341   1.519  1.0057  0.6790  3.4031
12044TIP3   OH257546   5.388   3.802  16.908  0.1040 -0.2689  0.6243
12044TIP3    H157547   5.470   3.761  16.935 -0.1873 -0.7343  0.8168
12044TIP3    H257548   5.320   3.747  16.946 -0.3044 -0.3010 -0.1304
12045TIP3   OH257549   2.693   0.194   2.015 -0.1598 -0.3878  0.6300
12045TIP3    H157550   2.613   0.236   2.048 -1.7492 -2.0734 -0.8424
12045TIP3    H257551   2.700   0.224   1.925  0.3555 -0.9448  0.4799
12046TIP3   OH257552   0.979   2.506  14.222 -0.6209 -0.1735  0.1625
12046TIP3    H157553   0.912   2.463  14.276  0.8780 -0.5323  1.8469
12046TIP3    H257554   0.963   2.599  14.234 -1.3882 -0.2475 -0.2230
12047TIP3   OH257555   0.701   1.700  11.522  0.2159  0.1464 -0.0231
12047TIP3    H157556   0.683   1.721  11.614 -0.4490  0.4450 -0.2209
12047TIP3    H257557   0.617   1.708  11.478  0.4640 -0.3305 -0.6028
12048TIP3   OH257558   4.959   1.211  16.054 -0.0497  0.2790  0.4811
12048TIP3    H157559   4.889   1.271  16.083  0.6226  0.2723  2.2580
12048TIP3    H257560   4.989   1.170  16.135  0.0718 -1.8850 -0.6013
12049TIP3   OH257561   3.475   1.482   1.365  0.8922  0.0897  0.1866
12049TIP3    H157562   3.568   1.460   1.363  0.9761  0.2677  1.4484
12049TIP3    H257563   3.459   1.512   1.454 -0.0781  1.3967 -0.3818
12050TIP3   OH257564   5.866   3.007  10.381  0.1807  0.4398  0.3345
12050TIP3    H157565   5.944   2.956  10.405 -0.1353 -0.4100 -0.3757
12050TIP3    H257566   5.799   2.941  10.364 -0.2230  1.0905 -0.6975
12051TIP3   OH257567   0.538   3.162  13.218 -0.1839 -0.0591  0.0836
12051TIP3    H157568   0.633   3.156  13.204 -0.1036  0.1903  0.5019
12051TIP3    H257569   0.525   3.124  13.305 -0.1532  2.1317  1.1041
12052TIP3   OH257570   6.418   0.065  16.167 -0.2369  0.1014 -0.3107
12052TIP3    H157571   6.492   0.043  16.224  0.7477  0.7772 -1.2644
12052TIP3    H257572   6.397   0.156  16.188  0.0567  0.3181 -0.9153
12053TIP3   OH257573   5.203   5.988  17.383 -0.2012  0.2186  0.4405
12053TIP3    H157574   5.167   5.915  17.333  0.0980  0.7008 -0.4939
12053TIP3    H257575   5.278   5.950  17.430 -0.0513 -0.0851 -0.0334
12054TIP3   OH257576   3.559   5.119  12.569 -0.0548 -0.3007 -0.5421
12054TIP3    H157577   3.470   5.113  12.536 -0.0772  2.1609 -1.1476
12054TIP3    H257578   3.612   5.141  12.492  1.0303 -1.3053 -0.1177
12055TIP3   OH257579   1.720   3.181   2.019 -0.1118  0.2829  0.7801
12055TIP3    H157580   1.766   3.122   1.958 -1.5098 -2.0055  1.7935
12055TIP3    H257581   1.766   3.169   2.102  0.3685  1.6467  0.7279
12056TIP3   OH257582   0.168   4.036   4.104 -0.3931 -0.5271  0.1904
12056TIP3    H157583   0.087   4.017   4.150  0.0889 -1.6020  0.6230
12056TIP3    H257584   0.162   4.129   4.082 -1.5843 -0.5182  0.5080
12057TIP3   OH257585   0.294   2.407   4.399  0.0291  0.3150 -0.1346
12057TIP3    H157586   0.337   2.335   4.352  1.2933  0.7607  0.2840
12057TIP3    H257587   0.359   2.477   4.398 -1.1282  1.4160 -0.4105
12058TIP3   OH257588   3.665   3.382   2.472  0.8148 -0.6123  0.0922
12058TIP3    H157589   3.727   3.367   2.543  0.1641  3.3186  1.7627
12058TIP3    H257590   3.712   3.442   2.412 -0.4927  0.5234  0.1599
12059TIP3   OH257591   4.674   2.818   5.159 -0.5230  0.5066 -0.1152
12059TIP3    H157592   4.677   2.840   5.066  1.5647  0.7667 -0.0340
12059TIP3    H257593   4.653   2.724   5.161  0.4237  0.2596 -0.9143
12060TIP3   OH257594   3.793   4.415  16.003 -0.4010  0.1399  0.0058
12060TIP3    H157595   3.766   4.471  16.076  3.1882 -0.0951  1.7260
12060TIP3    H257596   3.854   4.352  16.043 -0.4278 -1.8084 -2.7572
12061TIP3   OH257597   0.405   1.301   4.402  0.2803 -0.4634 -0.0174
12061TIP3    H157598   0.413   1.206   4.394  0.3545 -0.3489 -1.6342
12061TIP3    H257599   0.471   1.324   4.467  0.7940 -1.4510 -0.1549
12062TIP3   OH257600   1.747   0.931  12.945  0.4019 -0.3122 -0.6832
12062TIP3    H157601   1.818   0.963  12.889  0.6394 -1.2090 -0.9078
12062TIP3    H257602   1.705   0.862  12.893  0.5275 -1.0453  0.1624
12063TIP3   OH257603   1.599   4.114  12.694 -0.3445  0.4097 -0.0572
12063TIP3    H157604   1.672   4.151  12.643  1.0870 -2.1570 -0.0395
12063TIP3    H257605   1.610   4.020  12.687 -1.1698 -0.1103  3.4488
12064TIP3   OH257606   1.693   1.219   4.386  0.0314  0.2863 -0.2907
12064TIP3    H157607   1.645   1.141   4.414 -1.6228  0.9092 -1.2579
12064TIP3    H257608   1.632   1.266   4.329  0.9912  2.2745  0.2167
12065TIP3   OH257609   4.408   1.407   6.829 -0.1577 -0.1014  0.1314
12065TIP3    H157610   4.432   1.315   6.813  1.1252 -0.1143  1.8967
12065TIP3    H257611   4.315   1.412   6.804 -0.7444 -2.3232  1.5592
12066TIP3   OH257612   3.340   2.245   5.247 -0.0551  0.0931 -0.2068
12066TIP3    H157613   3.392   2.234   5.167 -2.0623 -2.0466 -1.3398
12066TIP3    H257614   3.378   2.183   5.309  1.4867  1.7362  0.5910
12067TIP3   OH257615   5.834   2.043  13.595  0.3076  0.3314  0.5997
12067TIP3    H157616   5.895   2.116  13.582  0.8859 -0.4266 -1.4179
12067TIP3    H257617   5.770   2.053  13.525  0.1489 -0.8419  0.5536
12068TIP3   OH257618   2.598   3.746  11.146  0.3216 -0.2347 -0.4436
12068TIP3    H157619   2.505   3.766  11.135 -0.0345 -2.4384 -1.8785
12068TIP3    H257620   2.607   3.727  11.240 -0.7405 -0.3890 -0.3640
12069TIP3   OH257621   2.591   1.881   5.629  0.1759 -0.3288 -0.9144
12069TIP3    H157622   2.515   1.823   5.633 -0.7788  0.8918 -1.1572
12069TIP3    H257623   2.591   1.915   5.539  0.8252 -0.0604 -0.8209
12070TIP3   OH257624   2.578   2.050   6.605 -0.3497 -0.0259  0.3474
12070TIP3    H157625   2.501   2.094   6.641 -0.0457  1.4626 -0.7447
12070TIP3    H257626   2.650   2.110   6.621 -0.1145  0.4864 -2.2015
12071TIP3   OH257627   1.278   0.682  16.846  0.7125  0.0272  0.4894
12071TIP3    H157628   1.354   0.624  16.838  3.1893  3.1882 -1.7451
12071TIP3    H257629   1.312   0.759  16.893 -1.6135  0.8230  0.9777
12072TIP3   OH257630   3.336   1.037   2.481  0.0825 -0.1655 -0.5355
12072TIP3    H157631   3.296   0.958   2.445  0.3878 -0.0653 -1.0933
12072TIP3    H257632   3.378   1.007   2.562 -0.0703 -0.5088 -0.5819
12073TIP3   OH257633   6.642   3.599  12.196 -0.0295  0.0617 -0.3975
12073TIP3    H157634   6.608   3.685  12.221  1.1334  0.6516 -0.7858
12073TIP3    H257635   6.735   3.614  12.178  0.5378 -1.5695  0.9628
12074TIP3   OH257636   3.915   4.789  14.912 -0.1274  0.4983  1.0406
12074TIP3    H157637   3.923   4.856  14.844  1.1465 -0.1633  0.5087
12074TIP3    H257638   3.854   4.725  14.876  1.6537 -0.5953 -0.1503
12075TIP3   OH257639   4.011   4.202  12.243  0.4024  0.1719 -0.4288
12075TIP3    H157640   4.062   4.122  12.250 -0.7941 -0.6826 -1.0985
12075TIP3    H257641   3.977   4.217  12.332 -0.3510 -0.7485 -0.5519
12076TIP3   OH257642   2.049   0.188   1.551 -1.0225 -0.1884  0.1910
12076TIP3    H157643   2.030   0.119   1.487 -1.6443 -0.9553  1.1781
12076TIP3    H257644   2.141   0.210   1.536  0.1048 -3.3116  1.7594
12077TIP3   OH257645   3.916   1.019  15.662  0.4010  0.6637 -0.5021
12077TIP3    H157646   4.002   1.001  15.624  0.4999 -0.6485  0.2924
12077TIP3    H257647   3.857   1.023  15.586  0.8493 -0.3421 -0.9202
12078TIP3   OH257648   5.316   6.590   5.123  0.1107 -0.3406 -0.1066
12078TIP3    H157649   5.253   6.522   5.146 -0.2129 -0.2106 -0.5844
12078TIP3    H257650   5.355   6.616   5.206 -1.1865  0.2780  0.3294
12079TIP3   OH257651   5.516   1.018   1.845  0.2844  0.0604 -0.2017
12079TIP3    H157652   5.571   1.069   1.785 -0.2685  0.4476 -0.3856
12079TIP3    H257653   5.517   1.067   1.927 -1.5174  1.2548 -0.8291
12080TIP3   OH257654   6.158   5.876   5.847  0.2654  0.4269 -0.1219
12080TIP3    H157655   6.114   5.808   5.898  0.6730  0.4494  0.2622
12080TIP3    H257656   6.132   5.958   5.890  1.1812  0.4028  0.4903
12081TIP3   OH257657   5.923   3.591  12.332  0.0020  0.1954 -0.2621
12081TIP3    H157658   5.981   3.622  12.262  0.2923 -0.9092 -0.5336
12081TIP3    H257659   5.841   3.570  12.288 -0.7097  1.9316  0.1496
12082TIP3   OH257660   0.801   3.415  14.096  0.1326 -0.5320  0.8695
12082TIP3    H157661   0.716   3.380  14.072 -0.5164  1.4764 -0.0257
12082TIP3    H257662   0.845   3.430  14.012  0.5707  0.2736  1.2333
12083TIP3   OH257663   3.422   3.453   5.878 -0.3838 -0.0290 -0.2568
12083TIP3    H157664   3.467   3.456   5.962  1.1696 -1.2515 -1.0031
12083TIP3    H257665   3.458   3.526   5.828 -0.7413  0.2263 -0.1484
12084TIP3   OH257666   5.523   4.238  16.341 -0.2950 -0.2403  0.4368
12084TIP3    H157667   5.491   4.149  16.354 -2.4807  0.3051 -0.7848
12084TIP3    H257668   5.581   4.232  16.264  0.1986 -0.7113  0.8350
12085TIP3   OH257669   0.965   1.004  10.582  0.1258  0.1641  0.4223
12085TIP3    H157670   1.033   1.024  10.646  1.3667 -0.7881 -0.5273
12085TIP3    H257671   1.013   0.968  10.507 -1.4528 -0.7380 -0.2059
12086TIP3   OH257672   0.205   2.784  13.691  0.5956  0.0186 -0.0258
12086TIP3    H157673   0.281   2.829  13.654 -0.0768  1.0197 -0.2146
12086TIP3    H257674   0.225   2.691  13.679  2.1214  0.2398  0.6187
12087TIP3   OH257675   1.139   4.981  15.626 -0.8367 -0.0592 -0.3499
12087TIP3    H157676   1.181   4.904  15.587  0.9080  0.5652  0.2052
12087TIP3    H257677   1.154   5.051  15.563  1.3475  0.7796  0.9798
12088TIP3   OH257678   4.095   3.091  13.426  0.1517  0.5542 -0.4580
12088TIP3    H157679   4.186   3.064  13.433 -0.0807 -0.7000 -1.6312
12088TIP3    H257680   4.058   3.032  13.359 -0.5490  3.5103 -2.8983
12089TIP3   OH257681   5.040   4.442   4.040 -0.3810 -0.0091  0.0720
12089TIP3    H157682   5.054   4.492   3.959  1.8774  0.9896  0.9949
12089TIP3    H257683   5.115   4.463   4.094 -0.7287 -2.3757  1.6079
12090TIP3   OH257684   0.736   6.690  16.504  0.2284 -0.2091 -0.4849
12090TIP3    H157685   0.755   6.645  16.422  1.8671 -1.4018  0.4913
12090TIP3    H257686   0.647   6.662  16.527  0.4196 -1.2537 -0.9725
12091TIP3   OH257687   2.663   5.987   0.340 -0.2166 -0.2408 -0.3893
12091TIP3    H157688   2.592   5.932   0.309 -0.9356  0.9149 -0.8411
12091TIP3    H257689   2.712   6.011   0.261 -0.1628  0.1086 -0.2534
12092TIP3   OH257690   6.399   1.689  13.344  0.7706  0.2937 -0.3407
12092TIP3    H157691   6.410   1.728  13.431  0.7896  0.7568 -0.5446
12092TIP3    H257692   6.355   1.606  13.360 -0.2917  0.9104  0.0083
12093TIP3   OH257693   5.148   0.594  15.258  0.1590 -0.0554 -0.4036
12093TIP3    H157694   5.145   0.513  15.309  0.4745  0.2339  0.0803
12093TIP3    H257695   5.093   0.655  15.307  0.9336  0.4009 -0.0882
12094TIP3   OH257696   5.918   2.517  13.170  0.3279 -0.2818 -0.1475
12094TIP3    H157697   5.843   2.468  13.135  0.8001 -0.6685 -0.6510
12094TIP3    H257698   5.944   2.574  13.098 -0.4117  0.9807  0.5401
12095TIP3   OH257699   4.419   4.060   0.259  0.1436 -0.0206 -0.8194
12095TIP3    H157700   4.395   4.149   0.284  2.5159  1.0557 -2.0075
12095TIP3    H257701   4.336   4.016   0.243 -1.1324  1.5980  0.9445
12096TIP3   OH257702   0.854   0.821  11.382 -0.3591 -0.1419  0.0901
12096TIP3    H157703   0.776   0.774  11.410 -0.6619  1.2294  1.6797
12096TIP3    H257704   0.926   0.779  11.430 -0.2779 -0.5963 -0.4216
12097TIP3   OH257705   4.411   5.928   1.862  0.3199 -0.3049  0.0368
12097TIP3    H157706   4.322   5.897   1.852  0.4548 -0.5266 -0.4881
12097TIP3    H257707   4.465   5.861   1.820  0.6831  0.1585 -0.2480
12098TIP3   OH257708   2.123   6.151  13.542  0.1102 -0.4756  0.2088
12098TIP3    H157709   2.034   6.186  13.541  0.2339 -0.1730 -0.1780
12098TIP3    H257710   2.138   6.119  13.453  0.7162  0.3148  0.0118
12099TIP3   OH257711   6.173   0.747   0.056 -0.6058 -0.0696  0.0745
12099TIP3    H157712   6.246   0.691   0.032 -1.2557 -1.4626  1.1877
12099TIP3    H257713   6.118   0.692   0.112 -0.1244  2.3416  3.2075
12100TIP3   OH257714   2.845   3.859  12.815  0.1321  0.8811  0.2770
12100TIP3    H157715   2.940   3.843  12.810 -0.0579  0.0475 -2.2379
12100TIP3    H257716   2.830   3.932  12.755 -1.0532 -0.5600 -1.2768
12101TIP3   OH257717   3.315   6.258   6.114  0.5366 -0.5248  0.4276
12101TIP3    H157718   3.311   6.353   6.100 -1.6177 -0.2110  2.5815
12101TIP3    H257719   3.396   6.246   6.164  0.3003  0.3278  1.0405
12102TIP3   OH257720   4.510   5.912   3.681 -0.0622  0.0193 -0.4901
12102TIP3    H157721   4.487   5.996   3.721 -1.9879 -1.0664  0.8253
12102TIP3    H257722   4.462   5.847   3.732  3.2950 -2.1851  0.1325
12103TIP3   OH257723   4.486   3.384  11.610  0.0244  0.3215 -0.2607
12103TIP3    H157724   4.531   3.303  11.638  1.0320  1.0657  0.3592
12103TIP3    H257725   4.470   3.371  11.517  2.1407  0.2671 -0.6736
12104TIP3   OH257726   5.114   5.701  12.804  0.5433 -0.6012  0.7804
12104TIP3    H157727   5.035   5.655  12.832  1.1235 -2.0717  0.1636
12104TIP3    H257728   5.125   5.674  12.712  0.5150  1.3997  0.1543
12105TIP3   OH257729   5.951   0.552   1.494  0.3364 -0.6778 -0.2600
12105TIP3    H157730   5.859   0.576   1.508 -1.0836 -4.3446 -1.8440
12105TIP3    H257731   5.966   0.479   1.554  2.4105  0.1430  0.2871
12106TIP3   OH257732   3.761   3.613  13.040  0.1722  0.1401  0.4893
12106TIP3    H157733   3.752   3.547  12.971 -0.9272 -1.5046  2.0958
12106TIP3    H257734   3.798   3.565  13.115 -0.7015  1.2992  1.7205
12107TIP3   OH257735   6.289   2.631  15.737  0.3363  0.5153 -0.0352
12107TIP3    H157736   6.230   2.682  15.792 -0.1987 -0.3149  0.1898
12107TIP3    H257737   6.268   2.657  15.648 -0.4982  0.1119  0.0319
12108TIP3   OH257738   2.252   6.417  17.007  0.4283 -0.3541 -0.3470
12108TIP3    H157739   2.206   6.432  16.925 -1.6126 -1.0642  0.5995
12108TIP3    H257740   2.343   6.405  16.982 -0.1300 -0.4763 -2.4959
12109TIP3   OH257741   2.095   4.148   2.699 -0.2050 -0.1643  0.0093
12109TIP3    H157742   2.190   4.156   2.710 -0.4836  2.9639  1.0964
12109TIP3    H257743   2.065   4.107   2.780  0.1050 -0.1624  0.1264
12110TIP3   OH257744   5.412   3.975  12.705 -1.0795 -0.0529  0.4799
12110TIP3    H157745   5.456   3.891  12.717 -0.3291  0.0715 -1.1852
12110TIP3    H257746   5.483   4.038  12.695 -1.5334  1.2600  3.9592
12111TIP3   OH257747   3.626   4.248   4.503 -0.0956  0.7837  0.2451
12111TIP3    H157748   3.578   4.170   4.533 -0.4145  0.3896 -1.2172
12111TIP3    H257749   3.698   4.257   4.565  0.4806 -1.2189 -0.0600
12112TIP3   OH257750   5.345   2.787  11.593 -0.4390 -0.0719 -0.2247
12112TIP3    H157751   5.437   2.808  11.613  0.1325 -2.1895 -0.3771
12112TIP3    H257752   5.296   2.863  11.623  1.4762  1.7334 -1.3755
12113TIP3   OH257753   1.948   0.554  14.227  0.0159  0.3681  0.0835
12113TIP3    H157754   2.002   0.516  14.158  0.5616  0.3434  0.5161
12113TIP3    H257755   1.919   0.638  14.191 -0.7685 -0.2038 -0.6706
12114TIP3   OH257756   0.068   2.278   5.127  0.2281  0.7127  0.6779
12114TIP3    H157757   0.110   2.203   5.085 -0.8742  0.2804  0.3381
12114TIP3    H257758   0.137   2.345   5.130  0.6873  0.3230 -0.6638
12115TIP3   OH257759   4.156   1.676   1.010 -0.2921  0.0659  0.8051
12115TIP3    H157760   4.236   1.661   1.060 -0.4243 -2.0984  0.4661
12115TIP3    H257761   4.127   1.589   0.984 -1.1465  0.9836 -1.6320
12116TIP3   OH257762   5.326   3.825   5.196  0.0187  0.3148  0.0546
12116TIP3    H157763   5.355   3.736   5.215 -0.7810 -0.3292 -1.5950
12116TIP3    H257764   5.298   3.823   5.105 -2.3571  1.6305  0.6691
12117TIP3   OH257765   3.578   3.610   1.323 -0.3413  0.2734  0.3825
12117TIP3    H157766   3.665   3.643   1.347 -0.3094  1.2117 -0.9399
12117TIP3    H257767   3.590   3.574   1.235 -1.4768  1.2248 -0.1774
12118TIP3   OH257768   4.178   6.596  17.173  0.3203  0.4215  0.1151
12118TIP3    H157769   4.268   6.570  17.152  0.1280 -0.6861  0.6031
12118TIP3    H257770   4.170   6.580  17.267 -0.8051 -0.8564 -0.1712
12119TIP3   OH257771   2.972   5.826  14.357 -0.1570 -0.1191 -0.6028
12119TIP3    H157772   2.947   5.913  14.388 -0.6184  0.0150 -1.3258
12119TIP3    H257773   2.992   5.838  14.264  1.0135 -0.5486 -0.4203
12120TIP3   OH257774   4.159   0.243   4.001 -0.3714  0.0527  0.0109
12120TIP3    H157775   4.095   0.176   3.978  0.0040 -0.2403 -0.2078
12120TIP3    H257776   4.180   0.226   4.093 -0.0437 -0.3352 -0.1305
12121TIP3   OH257777   1.813   4.215   2.870 -0.1002  0.2440  0.2259
12121TIP3    H157778   1.871   4.291   2.871 -0.2278  0.3404  0.8982
12121TIP3    H257779   1.856   4.153   2.811 -0.1242  0.9264 -0.5412
12122TIP3   OH257780   5.911   3.542  14.134 -0.2323  0.1503 -0.3298
12122TIP3    H157781   6.006   3.545  14.133 -0.1689  4.0522 -0.0261
12122TIP3    H257782   5.886   3.535  14.041  0.3193 -1.1430 -0.3877
12123TIP3   OH257783   1.697   5.849  16.486  0.0056 -0.0428  0.0134
12123TIP3    H157784   1.698   5.810  16.574  0.5397  0.5332  0.2725
12123TIP3    H257785   1.614   5.896  16.481 -0.3140 -0.5970 -0.0325
12124TIP3   OH257786   5.036   3.268  11.837 -0.2598  0.1569 -1.1992
12124TIP3    H157787   5.096   3.247  11.766  0.5902  1.7096 -0.9706
12124TIP3    H257788   5.051   3.361  11.855 -0.2530 -0.2493  1.1827
12125TIP3   OH257789   6.661   6.141  13.765 -0.1597 -0.2959  0.0547
12125TIP3    H157790   6.709   6.073  13.717 -0.8716 -0.6780 -0.1305
12125TIP3    H257791   6.723   6.172  13.830 -0.3966 -2.4667  1.4179
12126TIP3   OH257792   6.259   4.238   1.560 -0.1904 -0.4524 -0.2242
12126TIP3    H157793   6.191   4.170   1.560 -2.2635  1.5052  0.9316
12126TIP3    H257794   6.306   4.226   1.643 -0.6206 -0.4008  0.0270
12127TIP3   OH257795   1.123   3.455  11.580 -0.0433  0.3069 -0.4750
12127TIP3    H157796   1.053   3.394  11.606 -0.3177  0.4233 -0.9283
12127TIP3    H257797   1.158   3.488  11.662 -0.2659 -0.0458 -0.2351
12128TIP3   OH257798   0.997   0.405   5.813  0.2751 -0.4979 -0.0644
12128TIP3    H157799   1.045   0.449   5.882 -0.8853  0.2459  0.3086
12128TIP3    H257800   1.017   0.312   5.824  0.0453 -0.3963  1.3251
12129TIP3   OH257801   1.760   3.959  17.254  0.5995 -0.1634  0.2956
12129TIP3    H157802   1.832   3.924  17.307  0.3758  1.2070  1.5595
12129TIP3    H257803   1.689   3.897  17.267  0.8935 -0.4137  0.7175
12130TIP3   OH257804   5.819   3.639   4.136  0.3436 -0.3948  0.2579
12130TIP3    H157805   5.872   3.627   4.057 -0.9009 -0.2328 -0.6269
12130TIP3    H257806   5.863   3.709   4.184  0.1561  0.7291 -1.1691
12131TIP3   OH257807   6.678   2.713  13.494 -0.0069 -0.7730 -0.4860
12131TIP3    H157808   6.657   2.620  13.483 -1.2188 -0.5881  0.0922
12131TIP3    H257809   6.770   2.714  13.521  0.6759 -1.6680 -2.5889
12132TIP3   OH257810   0.038   0.732   2.020 -0.4115 -0.1931 -0.2580
12132TIP3    H157811  -0.046   0.699   1.987 -1.2395  1.3438  0.2299
12132TIP3    H257812   0.077   0.657   2.064 -0.6810 -1.4402 -2.0393
12133TIP3   OH257813   5.786   2.842   2.665  0.1956  0.3015 -0.3021
12133TIP3    H157814   5.880   2.855   2.653  0.3280 -1.0317 -0.8175
12133TIP3    H257815   5.770   2.865   2.757  1.2458 -0.6079  0.1227
12134TIP3   OH257816   4.423   3.002   0.687 -0.6245  0.3223  0.0301
12134TIP3    H157817   4.351   3.063   0.700 -1.6799 -1.0352  0.8762
12134TIP3    H257818   4.461   2.991   0.774  0.5683  0.9433 -0.3903
12135TIP3   OH257819   3.224   4.889  11.769  0.5759 -0.1708 -0.1285
12135TIP3    H157820   3.194   4.963  11.717 -0.8474 -2.1782 -2.3201
12135TIP3    H257821   3.311   4.869  11.735 -0.4287 -1.6001 -1.9874
12136TIP3   OH257822   2.757   3.160  13.054 -0.6248 -0.1763  0.1457
12136TIP3    H157823   2.759   3.066  13.069 -1.3711  0.0465  1.9008
12136TIP3    H257824   2.685   3.174  12.993 -0.8888 -0.6998  0.3361
12137TIP3   OH257825   2.212   1.977  16.525  0.0628 -0.4484  0.5249
12137TIP3    H157826   2.235   1.999  16.435  0.0357 -0.8927  0.4071
12137TIP3    H257827   2.183   1.886  16.521 -1.2869 -0.0467  0.7448
12138TIP3   OH257828   5.697   0.273  14.116  0.1287  0.3498  0.1897
12138TIP3    H157829   5.663   0.281  14.205 -0.3602  3.4809 -0.1648
12138TIP3    H257830   5.685   0.359  14.078  1.6399 -0.4985 -2.4837
12139TIP3   OH257831   1.597   1.717  15.830 -0.1982 -0.6872 -0.9020
12139TIP3    H157832   1.566   1.708  15.920  1.0434 -2.2253 -0.5929
12139TIP3    H257833   1.642   1.635  15.812  2.0339  0.6830 -1.9607
12140TIP3   OH257834   3.901   2.958  12.546  0.2026 -0.1986  0.1948
12140TIP3    H157835   3.950   2.996  12.473  1.4050  0.3621  1.2446
12140TIP3    H257836   3.813   2.994  12.539  1.0165  2.0074  0.5354
12141TIP3   OH257837   2.479   5.285  11.743  0.2194 -0.3294  0.2501
12141TIP3    H157838   2.482   5.362  11.686 -2.1140 -0.5995 -0.3355
12141TIP3    H257839   2.502   5.212  11.685 -1.6953 -0.5445 -0.3112
12142TIP3   OH257840   2.817   4.569  14.467 -0.3700 -0.3479 -0.2049
12142TIP3    H157841   2.757   4.634  14.431 -0.2586  0.4903  1.0443
12142TIP3    H257842   2.803   4.574  14.562  2.2094  0.4568  0.2087
12143TIP3   OH257843   5.427   3.335  13.611 -0.3991  0.3938 -0.4813
12143TIP3    H157844   5.430   3.370  13.522 -2.6569  0.2370 -0.6875
12143TIP3    H257845   5.333   3.327  13.630 -0.0054 -2.2733  0.8350
12144TIP3   OH257846   4.436   4.585  12.693  0.1726  0.0012 -0.4030
12144TIP3    H157847   4.441   4.505  12.641 -0.2478 -0.4112  0.1797
12144TIP3    H257848   4.462   4.558  12.781 -4.3117 -0.5891  0.9790
12145TIP3   OH257849   3.861   3.309   2.669  0.1623 -0.0951  0.0569
12145TIP3    H157850   3.936   3.364   2.646  1.3291 -1.7164 -0.1427
12145TIP3    H257851   3.866   3.234   2.610 -0.9162 -0.8411  0.8597
12146TIP3   OH257852   0.109   0.540  14.110 -0.4061  0.0532  0.5769
12146TIP3    H157853   0.037   0.546  14.174 -0.7043 -0.4601  0.2951
12146TIP3    H257854   0.180   0.591  14.149 -0.7229  0.0716  1.1382
12147TIP3   OH257855   1.345   5.167   3.941  0.1852 -0.4457 -0.1786
12147TIP3    H157856   1.329   5.224   3.866  1.4548 -0.2999 -0.3598
12147TIP3    H257857   1.263   5.120   3.953 -0.3556  0.2402 -1.0432
12148TIP3   OH257858   6.254   3.264  15.874 -0.4466 -0.6766  0.9003
12148TIP3    H157859   6.195   3.330  15.837  1.8182  1.2259  0.4397
12148TIP3    H257860   6.271   3.204  15.801 -1.1386 -0.7751  0.8109
12149TIP3   OH257861   4.814   3.388  14.567  0.4636 -0.2171  0.3685
12149TIP3    H157862   4.843   3.396  14.658  1.5718 -0.0289  0.0200
12149TIP3    H257863   4.839   3.300  14.541 -0.1657 -0.3922  0.3434
12150TIP3   OH257864   1.208   2.203   3.776 -0.2018  0.9238 -0.5112
12150TIP3    H157865   1.236   2.291   3.754  0.5373  0.7421 -0.3102
12150TIP3    H257866   1.144   2.180   3.708 -0.2767  1.5456 -0.6544
12151TIP3   OH257867   5.335   3.723   3.996  0.0447  0.5540  0.1111
12151TIP3    H157868   5.279   3.683   3.929 -0.9579 -0.7006  1.6363
12151TIP3    H257869   5.314   3.817   3.991  1.8011  0.9419 -2.9416
12152TIP3   OH257870   1.476   5.675   1.729 -0.4542 -0.3460 -0.4985
12152TIP3    H157871   1.545   5.721   1.681 -0.5858 -0.0187 -0.3767
12152TIP3    H257872   1.456   5.599   1.674  0.7718 -1.0574 -0.0015
12153TIP3   OH257873   5.445   3.052  13.756 -0.2384 -0.0653  0.4478
12153TIP3    H157874   5.360   3.080  13.789 -0.1244 -0.7043  1.3069
12153TIP3    H257875   5.460   2.966  13.796  0.5324 -0.2335 -0.1765
12154TIP3   OH257876   0.097   1.675  12.159 -0.1852  0.0450  0.3250
12154TIP3    H157877   0.038   1.682  12.084  0.6884  1.4646 -0.2670
12154TIP3    H257878   0.048   1.623  12.222 -2.0980  1.1617 -0.1371
12155TIP3   OH257879   3.922   5.924   1.981  0.4788  0.3907 -0.2591
12155TIP3    H157880   3.926   5.855   1.915  2.2195  1.0342 -0.8835
12155TIP3    H257881   3.881   5.883   2.057  1.2533 -1.2636 -0.7060
12156TIP3   OH257882   3.527   1.138   5.535  0.7675 -0.2363 -0.0237
12156TIP3    H157883   3.601   1.148   5.595 -1.0163 -1.3780  2.5806
12156TIP3    H257884   3.467   1.078   5.581 -3.0021  2.6129 -0.7023
12157TIP3   OH257885   6.273   5.273   3.917  0.3856  0.0512  0.6503
12157TIP3    H157886   6.229   5.243   3.837 -0.7347 -0.1870  1.3370
12157TIP3    H257887   6.245   5.211   3.984 -0.2000  1.3429  1.6396
12158TIP3   OH257888   3.801   0.209   6.224  0.7419  0.5578  0.1430
12158TIP3    H157889   3.815   0.127   6.177  0.1723  0.2067  0.5675
12158TIP3    H257890   3.831   0.190   6.313 -0.9404  0.2587  0.6811
12159TIP3   OH257891   2.407   2.487   0.730  0.3680  0.0490 -0.0042
12159TIP3    H157892   2.371   2.500   0.642 -1.3709 -2.5521  0.2193
12159TIP3    H257893   2.467   2.414   0.721 -0.9147 -1.2062  1.1821
12160TIP3   OH257894   3.850   6.564  13.465 -0.6879 -0.4785 -0.6340
12160TIP3    H157895   3.857   6.504  13.540 -0.1527  0.0490 -0.2467
12160TIP3    H257896   3.941   6.587  13.444 -0.8764  2.5765  1.2131
12161TIP3   OH257897   0.263   1.193   2.171  0.1838  0.7744  0.0879
12161TIP3    H157898   0.354   1.204   2.200  0.8827 -0.5752 -1.4429
12161TIP3    H257899   0.243   1.101   2.191 -0.6060  0.8766 -0.2012
12162TIP3   OH257900   1.520   1.371   4.256 -0.1497 -0.1892  0.2967
12162TIP3    H157901   1.436   1.327   4.269  0.2487 -1.5023 -1.2410
12162TIP3    H257902   1.502   1.436   4.188 -0.4979  1.4177  1.8529
12163TIP3   OH257903   3.266   1.756   2.433 -0.3824 -0.3478  0.3459
12163TIP3    H157904   3.332   1.687   2.438 -0.2946 -0.2082  1.3858
12163TIP3    H257905   3.227   1.757   2.521  0.7889  2.0604  0.9147
12164TIP3   OH257906   6.498   4.220   5.490 -0.0556 -0.3339  0.1622
12164TIP3    H157907   6.515   4.128   5.470  1.1906 -0.0261 -0.3058
12164TIP3    H257908   6.567   4.268   5.444 -0.1618  0.7794  1.1090
12165TIP3   OH257909   4.869   6.283   6.437 -0.2594 -0.4055  0.2369
12165TIP3    H157910   4.917   6.205   6.409  1.5982  0.9001 -0.3130
12165TIP3    H257911   4.803   6.296   6.369 -1.4404 -2.1337  0.9427
12166TIP3   OH257912   0.040   6.636   0.444  0.3445  0.2590  0.4758
12166TIP3    H157913   0.022   6.622   0.351  1.5135 -0.1828  0.3009
12166TIP3    H257914   0.011   6.726   0.460  0.0265  0.3009 -0.2853
12167TIP3   OH257915   2.610   3.081   2.527  0.4003  0.0298  0.7921
12167TIP3    H157916   2.636   3.164   2.567  0.3655 -0.0200  0.9163
12167TIP3    H257917   2.623   3.096   2.433  0.9392 -0.0154  0.8557
12168TIP3   OH257918   2.167   0.704   6.267 -0.3305  0.5956 -0.2373
12168TIP3    H157919   2.157   0.641   6.195  0.0260  0.5504 -0.2511
12168TIP3    H257920   2.143   0.655   6.345 -2.5940  1.1748 -0.5009
12169TIP3   OH257921   0.290   0.904   4.722 -0.1211  0.0424  0.6213
12169TIP3    H157922   0.374   0.942   4.747 -0.4764 -0.3550  2.6292
12169TIP3    H257923   0.312   0.814   4.698  0.0789 -0.0004  0.9403
12170TIP3   OH257924   5.493   4.174  13.589 -0.6302 -0.1308 -0.3373
12170TIP3    H157925   5.551   4.183  13.514 -0.6300  1.2219 -0.2045
12170TIP3    H257926   5.445   4.257  13.593 -2.4398 -1.1306 -0.3195
12171TIP3   OH257927   1.902   1.761   1.518  0.2201  0.2312  0.4056
12171TIP3    H157928   1.952   1.714   1.584 -0.1214 -0.1744  0.3809
12171TIP3    H257929   1.824   1.792   1.564 -1.1479 -1.9751 -0.2758
12172TIP3   OH257930   3.519   0.255  15.621  0.9519 -0.2032  0.0313
12172TIP3    H157931   3.576   0.315  15.573 -1.0476  2.1452  0.3752
12172TIP3    H257932   3.565   0.238  15.703  0.9247  2.2599  0.6405
12173TIP3   OH257933   1.572   1.877   1.098 -0.0030  0.4218  0.5558
12173TIP3    H157934   1.520   1.910   1.171  0.5632  1.6182  0.4387
12173TIP3    H257935   1.652   1.843   1.139  1.2121  2.8766  0.4077
12174TIP3   OH257936   1.776   5.364  16.080 -0.2561  1.1558 -0.4572
12174TIP3    H157937   1.845   5.358  16.013  2.0347 -0.1722  1.8268
12174TIP3    H257938   1.758   5.274  16.104 -1.8920  1.5601 -0.0513
12175TIP3   OH257939   3.285   1.723  14.783  0.5325 -0.0263 -0.0158
12175TIP3    H157940   3.221   1.675  14.836 -0.6229  0.7117 -0.6936
12175TIP3    H257941   3.252   1.715  14.693  1.3626  0.4300 -0.3711
12176TIP3   OH257942   2.417   1.574   0.165  0.5479  0.3369 -0.7631
12176TIP3    H157943   2.427   1.498   0.222 -2.3410 -1.1716 -2.0945
12176TIP3    H257944   2.451   1.647   0.217 -2.3190 -0.8371  3.1903
12177TIP3   OH257945   4.894   5.732   3.582 -0.1926 -0.2722 -0.1083
12177TIP3    H157946   4.974   5.762   3.540  0.2420 -1.1908  0.0481
12177TIP3    H257947   4.824   5.769   3.528  0.3309  0.1877 -0.4890
12178TIP3   OH257948   5.881   6.507   4.286 -0.4527 -0.0422 -0.4862
12178TIP3    H157949   5.920   6.565   4.219  1.9255  1.3478  1.8925
12178TIP3    H257950   5.815   6.561   4.329  0.7158  0.4657  0.7411
12179TIP3   OH257951   1.359   5.210  16.448 -0.0959  0.2361 -0.2205
12179TIP3    H157952   1.296   5.254  16.391 -0.4182  0.0891  0.0270
12179TIP3    H257953   1.326   5.223  16.536  0.4650  0.5554 -0.0527
12180TIP3   OH257954   3.482   2.920   4.732 -0.1872 -0.4812  0.3801
12180TIP3    H157955   3.416   2.895   4.796 -1.2920  1.9590  0.2930
12180TIP3    H257956   3.555   2.953   4.784 -0.4760  0.0977  0.4231
12181TIP3   OH257957   5.109   2.752  14.455 -0.1092 -0.2113  0.1702
12181TIP3    H157958   5.098   2.751  14.360 -0.3864 -0.2310  0.2026
12181TIP3    H257959   5.076   2.668  14.485 -1.2595  0.3135  0.4175
12182TIP3   OH257960   3.731   4.886   4.704  0.3335 -0.2197  0.2008
12182TIP3    H157961   3.695   4.967   4.670  1.2446 -0.3582 -1.1628
12182TIP3    H257962   3.820   4.908   4.731  1.4836 -1.2089 -2.4262
12183TIP3   OH257963   4.764   1.396  17.210  0.5281 -0.0881 -0.4869
12183TIP3    H157964   4.851   1.394  17.251  1.8257 -0.7311 -3.0691
12183TIP3    H257965   4.753   1.309  17.171 -0.6605  0.4459 -1.4147
12184TIP3   OH257966   3.056   5.921  13.785  0.1692 -0.0349  0.1751
12184TIP3    H157967   3.067   5.826  13.783  0.8850  0.0226  0.8739
12184TIP3    H257968   3.145   5.956  13.790 -0.0206  0.4964  4.9368
12185TIP3   OH257969   3.812   5.830   5.193  0.2949 -0.1120  0.6602
12185TIP3    H157970   3.791   5.898   5.257 -1.3012  0.2444 -0.2144
12185TIP3    H257971   3.854   5.876   5.121 -0.4968 -0.0826  0.2089
12186TIP3   OH257972   1.847   0.451  17.324 -0.2091 -0.0722 -0.3632
12186TIP3    H157973   1.818   0.380  17.267  0.9784 -0.9079  0.0461
12186TIP3    H257974   1.813   0.531  17.282 -0.8951 -0.8081 -1.2416
12187TIP3   OH257975   1.896   1.316  13.051 -0.6892 -0.7545 -0.2331
12187TIP3    H157976   1.803   1.294  13.061 -0.6445 -0.6769  0.3844
12187TIP3    H257977   1.907   1.330  12.957 -1.2863 -0.8359 -0.3213
12188TIP3   OH257978   3.400   1.814  12.122  0.5949 -0.0838 -0.3894
12188TIP3    H157979   3.346   1.866  12.064  0.1746  0.5050  0.5027
12188TIP3    H257980   3.361   1.727  12.121 -0.0103  0.1832 -0.2145
12189TIP3   OH257981   2.071   6.389   5.681  0.4850 -0.1510 -0.1652
12189TIP3    H157982   2.007   6.459   5.691 -0.2761 -0.8349 -0.2163
12189TIP3    H257983   2.066   6.339   5.762 -0.9580 -1.7589 -1.1778
12190TIP3   OH257984   5.614   5.579   6.410 -0.4647  0.1898 -0.2662
12190TIP3    H157985   5.644   5.516   6.344  1.7154  0.2020  0.6106
12190TIP3    H257986   5.652   5.547   6.492 -2.1220  0.8282  0.7968
12191TIP3   OH257987   2.970   2.431   2.896 -0.2834  0.6247 -0.3473
12191TIP3    H157988   3.050   2.391   2.862  0.5202  1.3669  0.6214
12191TIP3    H257989   2.900   2.393   2.842  0.6248 -0.6224 -0.7067
12192TIP3   OH257990   4.908   0.324  15.571  0.6859  0.0672 -0.1230
12192TIP3    H157991   4.930   0.272  15.649  1.4485  2.3052  1.2283
12192TIP3    H257992   4.987   0.319  15.517  0.4821 -0.7700 -0.3544
12193TIP3   OH257993   5.083   2.171   4.166  0.3448 -0.2103  0.2986
12193TIP3    H157994   5.023   2.166   4.240 -0.7913 -2.6625 -0.6793
12193TIP3    H257995   5.124   2.084   4.162  2.1142  0.6081 -0.5683
12194TIP3   OH257996   4.363   1.993  15.214  0.7082 -0.1214 -0.1818
12194TIP3    H157997   4.356   2.016  15.121  0.4156 -0.5310 -0.2644
12194TIP3    H257998   4.325   1.905  15.219 -0.3183  0.3520  0.5155
12195TIP3   OH257999   4.209   4.998   1.043  0.6473  0.6187 -0.1497
12195TIP3    H158000   4.250   4.949   0.972  1.7436  1.1934  0.0766
12195TIP3    H258001   4.224   5.090   1.022 -0.0104  0.8283  0.2522
12196TIP3   OH258002   2.649   1.611   3.549 -0.1392 -0.0839 -0.0019
12196TIP3    H158003   2.735   1.635   3.585 -0.0877 -0.3138  0.0261
12196TIP3    H258004   2.586   1.642   3.615 -0.0495 -0.4320  0.2494
12197TIP3   OH258005   0.178   2.880  14.111  0.6642  0.1473  0.0305
12197TIP3    H158006   0.211   2.839  14.032 -1.5954 -1.8092  0.0100
12197TIP3    H258007   0.143   2.965  14.082  3.0167  1.0634 -0.3694
12198TIP3   OH258008   4.343   5.937  16.775 -0.0521 -1.1275 -0.1817
12198TIP3    H158009   4.313   6.010  16.720  2.3212  2.0878  2.3428
12198TIP3    H258010   4.436   5.929  16.754 -0.1834 -3.2191 -0.0846
12199TIP3   OH258011   0.566   2.156  17.281  0.4595 -0.1681 -0.0723
12199TIP3    H158012   0.594   2.169  17.372 -1.7257  3.7621  0.2573
12199TIP3    H258013   0.478   2.118  17.289  0.7564 -0.9957 -0.6411
12200TIP3   OH258014   2.892   1.737  10.813  0.1095  0.2874  0.5635
12200TIP3    H158015   2.801   1.718  10.838  0.0131 -0.7528 -0.5171
12200TIP3    H258016   2.913   1.817  10.861 -1.7027  1.1187  0.0721
12201TIP3   OH258017   6.216   5.522   1.307 -0.5418 -0.3563  0.1825
12201TIP3    H158018   6.224   5.544   1.214 -0.0562 -0.6139  0.1612
12201TIP3    H258019   6.251   5.599   1.353 -0.4288 -0.3839  0.1428
12202TIP3   OH258020   3.453   0.502   0.790 -0.4661 -0.4006 -0.4557
12202TIP3    H158021   3.437   0.545   0.706 -3.0299  2.5058  1.2922
12202TIP3    H258022   3.388   0.432   0.794  0.5302 -1.4124 -1.3574
12203TIP3   OH258023   3.832   1.686  11.706 -0.2691  0.2808 -0.5910
12203TIP3    H158024   3.805   1.721  11.621  0.5489 -1.0022 -1.4347
12203TIP3    H258025   3.926   1.702  11.709  0.0159 -1.1955 -0.7311
12204TIP3   OH258026   1.867   0.179   5.939 -0.2093 -0.4759  0.0377
12204TIP3    H158027   1.912   0.094   5.931  0.4975 -0.0824 -0.2304
12204TIP3    H258028   1.786   0.158   5.985  0.2739 -1.1989  0.5888
12205TIP3   OH258029   6.180   2.519   2.417 -0.1163 -0.5793 -0.0973
12205TIP3    H158030   6.152   2.448   2.475  1.9200 -0.9454  0.5000
12205TIP3    H258031   6.212   2.587   2.477  1.0849 -0.5531 -0.7491
12206TIP3   OH258032   3.844   0.915   0.269  0.2590 -0.3988 -0.3079
12206TIP3    H158033   3.926   0.963   0.281  0.5671 -0.6818 -1.1997
12206TIP3    H258034   3.793   0.969   0.210  0.4431 -0.9694 -0.9959
12207TIP3   OH258035   1.683   2.330  16.374  0.0052 -0.0422  0.2350
12207TIP3    H158036   1.610   2.385  16.346 -1.0505 -0.4052  2.0921
12207TIP3    H258037   1.652   2.241  16.363 -0.0195 -0.1967  1.3885
12208TIP3   OH258038   5.409   4.491  12.611  0.4033  0.2696 -0.0906
12208TIP3    H158039   5.398   4.396  12.612  1.7977  0.0761 -0.3736
12208TIP3    H258040   5.391   4.516  12.520  0.7210  0.1761 -0.1798
12209TIP3   OH258041   5.540   2.665   3.029 -0.5715  0.5935 -0.5917
12209TIP3    H158042   5.473   2.699   2.971 -1.2725  0.2108 -0.0248
12209TIP3    H258043   5.594   2.609   2.973  0.0878  1.9404 -1.3383
12210TIP3   OH258044   1.332   4.783  14.238 -0.0215  0.1463  0.1514
12210TIP3    H158045   1.339   4.828  14.154 -0.9098  3.8103  1.8383
12210TIP3    H258046   1.238   4.765  14.247  0.3093 -2.1930 -0.4544
12211TIP3   OH258047   3.699   2.615  14.030 -0.4027 -0.5884 -0.1967
12211TIP3    H158048   3.735   2.676  13.966  0.8935 -0.5961  0.4850
12211TIP3    H258049   3.631   2.666  14.075  1.1886  0.6754  0.8906
12212TIP3   OH258050   4.599   0.956   4.046 -0.7094 -0.0294  0.1046
12212TIP3    H158051   4.567   0.867   4.028 -1.9169  0.4792 -0.4024
12212TIP3    H258052   4.551   0.983   4.124  0.3148 -0.1296  0.7900
12213TIP3   OH258053   4.721   3.098   3.106 -0.2662 -0.4612  0.1495
12213TIP3    H158054   4.687   3.159   3.171  1.0341  0.3819  0.0700
12213TIP3    H258055   4.816   3.115   3.103  0.1407 -2.4141  0.0666
12214TIP3   OH258056   2.014   2.677  15.419  0.5334  0.1074  0.2830
12214TIP3    H158057   1.925   2.665  15.385  0.7561  0.2476 -0.3697
12214TIP3    H258058   2.004   2.738  15.492  0.0054 -0.4055  0.6474
12215TIP3   OH258059   6.089   4.435   4.428 -0.4901  0.1311 -0.4188
12215TIP3    H158060   6.168   4.463   4.382 -0.5937 -0.0484 -0.7050
12215TIP3    H258061   6.050   4.368   4.372  0.5425 -1.6791  0.9427
12216TIP3   OH258062   3.554   4.571   3.537 -0.4322 -0.1529  0.9024
12216TIP3    H158063   3.582   4.496   3.485 -0.3241  0.3344  0.2416
12216TIP3    H258064   3.550   4.538   3.627 -1.3645 -1.2088  0.4937
12217TIP3   OH258065   5.786   2.183   5.101 -0.4200  0.3700  0.4722
12217TIP3    H158066   5.818   2.136   5.178 -0.2568  0.6079  0.5483
12217TIP3    H258067   5.695   2.154   5.092  0.2951 -1.7337 -0.8193
12218TIP3   OH258068   2.503   5.592  15.762 -0.4293 -0.8183 -0.4754
12218TIP3    H158069   2.467   5.679  15.781  1.0342 -0.4310  0.7007
12218TIP3    H258070   2.543   5.564  15.844  3.8287 -0.2553 -2.0972
12219TIP3   OH258071   5.485   1.518  11.696 -0.3213  0.2241 -0.2318
12219TIP3    H158072   5.405   1.476  11.729 -0.0650 -0.1132 -0.0427
12219TIP3    H258073   5.529   1.551  11.774 -0.3710  0.5828 -0.3543
12220TIP3   OH258074   0.751   5.123  12.661 -0.1526  0.1131  0.1689
12220TIP3    H158075   0.798   5.178  12.724  0.9008  2.2187 -2.2933
12220TIP3    H258076   0.788   5.146  12.576 -0.9723 -3.1451 -1.2280
12221TIP3   OH258077   6.104   0.295   1.153 -0.3528 -0.2609  0.3717
12221TIP3    H158078   6.068   0.260   1.072  0.7742  3.4862 -2.0308
12221TIP3    H258079   6.036   0.352   1.187  0.6988  1.5971 -0.4808
12222TIP3   OH258080   5.833   5.377   3.713 -0.1406 -0.0680 -0.6366
12222TIP3    H158081   5.876   5.393   3.629 -0.8198  0.3556 -0.9128
12222TIP3    H258082   5.740   5.387   3.695 -0.2017  2.9975  0.7563
12223TIP3   OH258083   1.624   4.276   1.811 -0.1037 -0.0483  0.6257
12223TIP3    H158084   1.680   4.303   1.738 -0.3233 -1.4724 -0.1065
12223TIP3    H258085   1.539   4.314   1.790  0.4610  1.9153  1.6176
12224TIP3   OH258086   3.115   3.668  15.940 -0.1358  0.6134 -0.0056
12224TIP3    H158087   3.201   3.709  15.931  0.3612 -0.4092 -0.0240
12224TIP3    H258088   3.117   3.626  16.026 -0.2288 -0.2688 -0.4152
12225TIP3   OH258089   0.770   3.448  12.004 -0.5671 -0.1284 -0.0885
12225TIP3    H158090   0.772   3.495  12.088 -0.3126 -0.7815  0.2719
12225TIP3    H258091   0.711   3.375  12.020  0.7212 -1.1776  0.0128
12226TIP3   OH258092   3.758   1.970  15.441  0.3387  0.1298  0.5272
12226TIP3    H158093   3.821   2.013  15.498  1.2278  2.0209 -1.7236
12226TIP3    H258094   3.678   2.022  15.449  0.2699  0.0345  0.4694
12227TIP3   OH258095   2.677   3.546  14.795 -0.6449  0.3299 -0.0014
12227TIP3    H158096   2.586   3.561  14.819 -0.3231 -0.1848  1.6877
12227TIP3    H258097   2.727   3.599  14.857  0.2305  0.2136 -0.5862
12228TIP3   OH258098   3.532   1.349  17.312 -0.4631  0.3204  0.2644
12228TIP3    H158099   3.524   1.444  17.315  0.7413  0.4966 -1.2352
12228TIP3    H258100   3.626   1.332  17.319 -0.7364 -0.8458  1.7693
12229TIP3   OH258101   1.106   5.991   1.128  0.0669 -0.3486  0.0498
12229TIP3    H158102   1.037   5.925   1.132  0.3149 -0.5400  1.8871
12229TIP3    H258103   1.062   6.074   1.145  0.1924 -0.3962  0.6131
12230TIP3   OH258104   4.245   1.285  13.341 -0.0519  0.1424  0.1106
12230TIP3    H158105   4.184   1.228  13.295  0.3102  0.3525 -0.6529
12230TIP3    H258106   4.258   1.359  13.281 -0.8637  1.2514  1.2687
12231TIP3   OH258107   1.076   2.250   1.381 -0.4759  0.4382 -0.0273
12231TIP3    H158108   1.074   2.276   1.474 -1.6367 -0.3368  0.1797
12231TIP3    H258109   1.135   2.175   1.378  0.6737  1.3226 -0.1655
12232TIP3   OH258110   2.221   1.264  13.949 -0.2637 -0.3769 -0.1658
12232TIP3    H158111   2.178   1.179  13.951  0.4535 -0.7479  1.5908
12232TIP3    H258112   2.278   1.264  14.025 -0.7163  1.9335  0.2675
12233TIP3   OH258113   6.099   2.758   6.511 -0.2432 -0.4058  0.2623
12233TIP3    H158114   6.084   2.822   6.442 -2.4545  1.4867  2.3090
12233TIP3    H258115   6.065   2.676   6.477  1.9075 -0.4418 -2.1205
12234TIP3   OH258116   6.015   1.501  11.923 -0.7601 -0.2537 -0.4637
12234TIP3    H158117   6.067   1.420  11.921  0.4041  0.4817 -1.1032
12234TIP3    H258118   6.011   1.529  11.832 -0.3275  0.9188 -0.1386
12235TIP3   OH258119   4.199   6.041   5.302  0.5458  0.2762  0.5628
12235TIP3    H158120   4.273   5.981   5.309 -0.1516 -0.6668  0.1875
12235TIP3    H258121   4.238   6.128   5.299  1.5123  0.1289  4.1208
12236TIP3   OH258122   2.345   3.928   0.382 -0.7091 -0.1826 -0.1148
12236TIP3    H158123   2.422   3.929   0.324  0.1958  0.0647  1.0487
12236TIP3    H258124   2.272   3.907   0.324  0.4763 -2.3832 -0.9459
12237TIP3   OH258125   6.184   3.983   2.055  0.0848 -0.5383 -0.1088
12237TIP3    H158126   6.273   3.989   2.019  0.2510 -0.0009  0.3780
12237TIP3    H258127   6.175   4.061   2.110 -0.9723 -0.1732 -0.7740
12238TIP3   OH258128   4.300   2.609  17.072 -0.3339 -0.2542 -0.4170
12238TIP3    H158129   4.249   2.689  17.085 -0.1177 -0.0839 -0.5916
12238TIP3    H258130   4.367   2.634  17.008 -0.1042 -0.5060 -0.2756
12239TIP3   OH258131   3.727   2.571   2.942  0.0144  0.3750  0.8951
12239TIP3    H158132   3.737   2.635   2.872  1.3510  0.5798  1.2365
12239TIP3    H258133   3.747   2.487   2.901  2.5325  0.6745  1.3464
12240TIP3   OH258134   5.777   3.758   5.232  0.0525 -0.2346 -0.3734
12240TIP3    H158135   5.763   3.754   5.326 -2.1347  0.7657 -0.5916
12240TIP3    H258136   5.766   3.667   5.203  1.7357 -0.7208  0.4134
12241TIP3   OH258137   0.273   5.764   4.772  0.0501 -0.2773  0.1840
12241TIP3    H158138   0.305   5.675   4.784 -0.2657 -0.3527  0.5048
12241TIP3    H258139   0.267   5.799   4.861  0.0205  0.0110  0.0708
12242TIP3   OH258140   2.515   0.213   5.849 -0.0812  0.1964  0.6906
12242TIP3    H158141   2.527   0.206   5.754 -1.9582 -1.5729  0.5354
12242TIP3    H258142   2.517   0.308   5.866 -0.5331  0.5972 -1.2328
12243TIP3   OH258143   0.844   0.723   4.165  0.3678 -0.5397 -0.0044
12243TIP3    H158144   0.900   0.723   4.243 -0.8713 -0.7833  0.9009
12243TIP3    H258145   0.830   0.816   4.146  0.7802 -0.4790 -0.0294
12244TIP3   OH258146   4.868   1.473   6.148 -0.2075  0.1411 -0.0835
12244TIP3    H158147   4.942   1.528   6.123  0.9220  0.5241  3.4778
12244TIP3    H258148   4.897   1.384   6.130  0.2919  0.3943 -0.5613
12245TIP3   OH258149   6.619   3.200  12.451 -0.6434 -0.0433 -0.0859
12245TIP3    H158150   6.555   3.136  12.482 -0.8493  0.4228  0.4679
12245TIP3    H258151   6.675   3.218  12.527  0.9930 -1.4088 -0.8868
12246TIP3   OH258152   1.158   2.669  16.632  0.3755 -0.5470 -0.1142
12246TIP3    H158153   1.155   2.641  16.723  1.8240  3.0960  1.2550
12246TIP3    H258154   1.066   2.685  16.609  0.0265 -1.0731  0.8427
12247TIP3   OH258155   0.947   6.143  14.958  0.7389 -0.4565 -0.3916
12247TIP3    H158156   0.932   6.234  14.986 -1.3713 -0.0359 -2.5801
12247TIP3    H258157   0.941   6.092  15.039  0.7076  1.1975  0.7141
12248TIP3   OH258158   3.865   2.436  14.650 -0.3269  0.2421 -0.1966
12248TIP3    H158159   3.838   2.444  14.741  0.2249 -0.8720  0.0898
12248TIP3    H258160   3.784   2.443  14.600 -0.4484  2.7863  0.2010
12249TIP3   OH258161   5.644   3.543  11.244 -0.1520 -0.0938  0.4051
12249TIP3    H158162   5.683   3.595  11.314  4.3530 -3.1440  0.5763
12249TIP3    H258163   5.582   3.485  11.288  2.9823 -2.3336  2.2952
12250TIP3   OH258164   5.398   4.637  15.717 -0.8396  0.0084 -0.3660
12250TIP3    H158165   5.391   4.611  15.809 -0.9907 -0.0040 -0.3819
12250TIP3    H258166   5.327   4.591  15.673 -0.1587 -0.7813 -0.6676
12251TIP3   OH258167   4.295   6.500  11.316  0.0272 -0.1141 -0.0080
12251TIP3    H158168   4.369   6.532  11.265 -0.7644  0.0236 -1.1172
12251TIP3    H258169   4.218   6.535  11.271 -0.7811 -1.7962 -0.0225
12252TIP3   OH258170   4.509   5.474   3.564 -0.3466  0.3239 -0.3877
12252TIP3    H158171   4.430   5.462   3.615 -0.5962 -1.2207 -1.0812
12252TIP3    H258172   4.579   5.437   3.617 -0.5346 -0.8552 -0.9406
12253TIP3   OH258173   2.054   1.579   1.730 -0.3541 -0.2203  0.2533
12253TIP3    H158174   2.114   1.584   1.805  0.7554  0.4279 -0.6407
12253TIP3    H258175   2.102   1.527   1.665 -0.3195  1.1227 -0.8466
12254TIP3   OH258176   3.963   1.643  13.526  0.3010  0.2841  0.8184
12254TIP3    H158177   3.985   1.559  13.567 -1.3092  0.0750  1.3530
12254TIP3    H258178   3.875   1.629  13.490  0.0796  1.6847  0.7645
12255TIP3   OH258179   4.994   4.915   0.620 -0.2139  0.4642  0.2776
12255TIP3    H158180   5.067   4.969   0.590  0.1608 -0.7802 -1.1641
12255TIP3    H258181   5.035   4.839   0.661 -0.6618 -0.4317 -0.8820
12256TIP3   OH258182   3.528   5.428   0.594  0.8466 -0.3852 -0.0966
12256TIP3    H158183   3.507   5.501   0.652  1.1217  1.3146 -2.0460
12256TIP3    H258184   3.622   5.415   0.605  0.9717  0.2053 -0.4557
12257TIP3   OH258185   5.572   5.705  11.103 -1.0473 -0.2634  0.1704
12257TIP3    H158186   5.635   5.677  11.168 -0.8003  0.4125  0.2244
12257TIP3    H258187   5.592   5.798  11.087 -1.2684 -0.3465 -0.6661
12258TIP3   OH258188   2.955   1.627  15.307  0.3148  0.1062 -1.0374
12258TIP3    H158189   2.980   1.623  15.215 -1.9895  1.5144 -1.7954
12258TIP3    H258190   2.943   1.720  15.325 -1.1671 -0.2630  0.1060
12259TIP3   OH258191   2.432   2.690  10.627  0.2219 -0.6755 -0.0304
12259TIP3    H158192   2.511   2.646  10.594  0.3068 -0.9496  0.5169
12259TIP3    H258193   2.426   2.771  10.576  0.4317 -1.0144 -0.5995
12260TIP3   OH258194   4.539   1.254  16.770 -0.2723  0.3664 -0.0688
12260TIP3    H158195   4.514   1.245  16.678 -0.9035  3.0900 -0.2574
12260TIP3    H258196   4.633   1.240  16.771 -0.4233 -0.8320 -0.9153
12261TIP3   OH258197   0.193   2.613   4.112  0.0399  0.6387 -0.0433
12261TIP3    H158198   0.131   2.617   4.039 -0.1016  1.4486  0.1165
12261TIP3    H258199   0.279   2.626   4.072  0.2021 -1.0993 -0.3529
12262TIP3   OH258200   0.593   6.578  11.091 -0.9787 -0.3565 -0.1190
12262TIP3    H158201   0.523   6.513  11.099  1.0557 -2.4776  1.9852
12262TIP3    H258202   0.594   6.600  10.998 -4.8262  0.3580 -0.1550
12263TIP3   OH258203   4.086   6.739   0.482  0.5769 -0.4261 -0.1025
12263TIP3    H158204   3.994   6.715   0.475  0.8321 -1.2656 -0.8698
12263TIP3    H258205   4.087   6.834   0.479 -0.2570 -0.4188 -0.2614
12264TIP3   OH258206   5.455   1.540   1.025  0.1857  0.0549  0.2090
12264TIP3    H158207   5.508   1.579   0.955 -1.7944  0.8035 -0.9367
12264TIP3    H258208   5.433   1.453   0.991 -1.9080  0.9062 -0.8110
12265TIP3   OH258209   4.044   4.316   2.913 -0.0370  0.5168  0.4885
12265TIP3    H158210   4.063   4.276   2.998 -2.9964 -0.4620  0.8100
12265TIP3    H258211   4.006   4.401   2.935 -1.1096  0.1247  0.1807
12266TIP3   OH258212   1.608   6.754  11.580 -0.2625 -0.6664  0.2168
12266TIP3    H158213   1.571   6.748  11.668  1.0486 -3.4253  0.7168
12266TIP3    H258214   1.702   6.764  11.594 -0.1502  0.0159 -0.9014
12267TIP3   OH258215   3.336   3.832  15.952 -0.1434  0.4111  0.0950
12267TIP3    H158216   3.409   3.793  15.903 -0.1286 -1.8407  1.7417
12267TIP3    H258217   3.360   3.820  16.044 -2.7575 -0.8599  0.7088
12268TIP3   OH258218   6.067   0.728  10.236  0.3177  0.3583  0.0811
12268TIP3    H158219   6.091   0.820  10.251  0.1559  0.4162 -0.0056
12268TIP3    H258220   6.150   0.681  10.234  0.3106  0.2030  2.0846
12269TIP3   OH258221   2.210   5.288  13.736  0.0354  0.4017 -0.3077
12269TIP3    H158222   2.194   5.262  13.827 -0.1478 -0.0217 -0.4551
12269TIP3    H258223   2.124   5.282  13.695  0.3381 -0.7309 -0.8278
12270TIP3   OH258224   4.469   3.135   1.947 -0.6622  0.0266  0.3004
12270TIP3    H158225   4.470   3.224   1.982 -1.1468  1.0847 -2.1685
12270TIP3    H258226   4.553   3.097   1.974 -0.6887  0.9966  1.8712
12271TIP3   OH258227   4.891   2.980   1.773 -0.2945 -0.2157  0.1470
12271TIP3    H158228   4.973   2.946   1.739 -1.3819 -1.1854 -1.6311
12271TIP3    H258229   4.908   3.073   1.786  0.7265 -0.1410 -1.4136
12272TIP3   OH258230   6.245   2.643  11.969 -0.0619 -0.2372 -0.0251
12272TIP3    H158231   6.246   2.719  12.028 -0.4090  0.4797 -0.9120
12272TIP3    H258232   6.252   2.681  11.882  1.5660 -1.3348 -0.4150
12273TIP3   OH258233   2.453   4.599   0.658 -0.2549 -0.7851 -0.0242
12273TIP3    H158234   2.443   4.503   0.655 -0.2113 -0.8419  1.2520
12273TIP3    H258235   2.365   4.631   0.679 -0.4629 -0.4687 -1.2749
12274TIP3   OH258236   1.078   4.945   5.955 -0.5018 -0.0794  0.2900
12274TIP3    H158237   1.045   4.908   5.874 -0.6852 -1.5645  1.0096
12274TIP3    H258238   1.002   4.946   6.014 -0.1797  0.1887  0.7063
12275TIP3   OH258239   4.195   2.700  13.121  0.1844  0.0807 -0.3987
12275TIP3    H158240   4.200   2.707  13.025  0.8711 -0.7386 -0.4357
12275TIP3    H258241   4.253   2.770  13.153 -1.0677  1.2271 -0.5329
12276TIP3   OH258242   5.013   3.670  11.706 -0.0428  0.3545 -0.1341
12276TIP3    H158243   4.931   3.619  11.704 -0.0311  0.3467 -0.6087
12276TIP3    H258244   5.074   3.614  11.754 -0.6092  0.8186  1.1700
12277TIP3   OH258245   4.647   1.155  11.019 -0.1412 -0.0484  0.6810
12277TIP3    H158246   4.718   1.209  10.986  0.0802 -1.8294 -2.1112
12277TIP3    H258247   4.688   1.093  11.079  0.3813  0.0034  0.3759
12278TIP3   OH258248   1.486   1.229  13.697  0.5459  0.3790  0.2362
12278TIP3    H158249   1.433   1.287  13.643  1.0796 -0.5217 -1.3003
12278TIP3    H258250   1.571   1.227  13.655  0.8505 -0.6887  0.8616
12279TIP3   OH258251   2.692   2.159  12.953 -0.4816 -0.1028  0.1928
12279TIP3    H158252   2.695   2.198  13.040 -0.6061  0.3590 -0.0057
12279TIP3    H258253   2.778   2.119  12.940 -0.6561 -0.6692  0.7507
12280TIP3   OH258254   5.102   1.272   6.749 -0.1107  0.3487  0.4137
12280TIP3    H158255   5.051   1.238   6.822 -1.3664  0.9582 -0.1492
12280TIP3    H258256   5.079   1.217   6.675  0.6869  0.1190  0.3251
12281TIP3   OH258257   3.835   5.304   0.718 -0.3352  0.4963  0.4386
12281TIP3    H158258   3.922   5.297   0.679 -0.3769  0.4435  0.3541
12281TIP3    H258259   3.799   5.216   0.712 -0.7749  0.7213 -0.4169
12282TIP3   OH258260   3.045   6.714  13.950 -0.8527  0.3340 -0.3361
12282TIP3    H158261   3.139   6.694  13.948 -1.0551 -0.6510 -0.5045
12282TIP3    H258262   3.009   6.655  14.015 -1.5317 -0.0785 -1.0683
12283TIP3   OH258263   5.900   5.366   0.822  0.2373 -0.2086  0.5001
12283TIP3    H158264   5.808   5.345   0.831  0.0744  0.8913  1.6348
12283TIP3    H258265   5.942   5.324   0.898  0.3852  0.7913  0.9843
12284TIP3   OH258266   4.154   5.657   5.013 -0.4342 -0.7321 -0.1974
12284TIP3    H158267   4.221   5.620   5.071  0.2969 -0.9376 -1.1499
12284TIP3    H258268   4.187   5.743   4.989 -1.0929 -0.3398  0.2738
12285TIP3   OH258269   1.521   0.011  14.943  0.6432 -0.1781  0.6463
12285TIP3    H158270   1.503   0.105  14.934 -1.1413 -0.3964  1.4325
12285TIP3    H258271   1.500  -0.026  14.857  1.1501  0.0928  0.3986
12286TIP3   OH258272   1.289   1.226  16.483 -0.0963 -0.4870 -0.5416
12286TIP3    H158273   1.371   1.177  16.480  1.5701  2.1921 -1.6452
12286TIP3    H258274   1.271   1.236  16.576  0.8433 -1.0498 -0.2816
12287TIP3   OH258275   2.353   4.096   2.718 -1.1625  0.0239 -0.1954
12287TIP3    H158276   2.411   4.045   2.776 -0.2435  0.4519 -0.7137
12287TIP3    H258277   2.366   4.057   2.632 -3.2300 -1.2236 -0.0121
12288TIP3   OH258278   6.396   4.710   2.876  0.2214 -0.1041 -1.2058
12288TIP3    H158279   6.419   4.802   2.863 -1.7219  0.6369  0.1243
12288TIP3    H258280   6.350   4.685   2.796  1.4141 -0.1618 -1.8858
12289TIP3   OH258281   4.332   6.062   3.953  0.1104 -0.6913 -0.2143
12289TIP3    H158282   4.378   6.100   4.028 -1.1187 -0.2683  0.3454
12289TIP3    H258283   4.376   6.101   3.877  0.3456  0.1045  0.3092
12290TIP3   OH258284   4.787   0.687   3.308 -0.3781 -0.3886 -0.0903
12290TIP3    H158285   4.752   0.736   3.234 -0.4564 -0.8161 -0.3375
12290TIP3    H258286   4.790   0.751   3.380  1.7051  0.6218 -0.9857
12291TIP3   OH258287   0.405   2.256   4.185 -0.5292  0.0743  0.3704
12291TIP3    H158288   0.460   2.318   4.136  1.1736 -1.0127  0.8296
12291TIP3    H258289   0.316   2.278   4.158  0.2304  0.4061 -2.2105
12292TIP3   OH258290   5.390   6.198  14.697 -0.0529  0.1721 -0.4204
12292TIP3    H158291   5.358   6.282  14.666  0.6115 -0.1167 -2.0088
12292TIP3    H258292   5.330   6.134  14.659 -0.8928 -0.0801  1.2376
12293TIP3   OH258293   1.425   3.222   5.413 -0.6295  0.3857 -0.1796
12293TIP3    H158294   1.377   3.139   5.414 -0.9867  0.5887  0.6913
12293TIP3    H258295   1.510   3.201   5.450 -0.7014  0.3958 -0.0078
12294TIP3   OH258296   4.644   1.721   3.509  0.0536 -0.4326  1.0177
12294TIP3    H158297   4.633   1.757   3.421  1.7441  0.3772  1.0789
12294TIP3    H258298   4.716   1.772   3.546  0.5631 -1.9477  2.2240
12295TIP3   OH258299   3.299   4.727  15.172 -0.3043  0.2203  0.6906
12295TIP3    H158300   3.291   4.728  15.076  0.2503  0.7638  0.6447
12295TIP3    H258301   3.222   4.679  15.202 -0.6310  0.2909 -0.0196
12296TIP3   OH258302   1.023   2.700  12.533  0.3727 -0.1227 -0.6504
12296TIP3    H158303   1.056   2.708  12.444 -1.0416  3.5998 -0.9905
12296TIP3    H258304   0.936   2.659  12.523 -0.9502  2.6557 -1.4233
12297TIP3   OH258305   0.165   1.481   0.847  0.1198 -0.5990  0.0382
12297TIP3    H158306   0.141   1.499   0.937  0.3468 -0.9082  0.1635
12297TIP3    H258307   0.150   1.564   0.801  1.6090  0.0644  0.6922
12298TIP3   OH258308   1.016   2.698   5.077 -0.0578  0.2154 -0.7694
12298TIP3    H158309   0.959   2.725   5.149 -0.7445 -1.0263 -0.8101
12298TIP3    H258310   0.956   2.675   5.007  0.5699  0.3929 -1.3713
12299TIP3   OH258311   4.278   1.758   4.349  0.1525 -0.6566 -0.1075
12299TIP3    H158312   4.255   1.819   4.279 -0.6128 -1.0547 -0.2089
12299TIP3    H258313   4.357   1.796   4.388 -0.4235  0.5017 -0.0366
12300TIP3   OH258314   4.706   6.527  15.399 -0.2261  0.4600  0.1979
12300TIP3    H158315   4.703   6.447  15.347 -1.2683  0.2156  0.5995
12300TIP3    H258316   4.707   6.597  15.334  0.1932  0.1348 -0.1542
12301TIP3   OH258317   2.353   4.025  11.248  0.7210 -0.7349 -0.1762
12301TIP3    H158318   2.348   4.102  11.191  0.3874 -0.7210 -0.1277
12301TIP3    H258319   2.320   3.953  11.195  1.7944 -1.0113 -0.4997
12302TIP3   OH258320   5.416   0.546  15.254  0.2165  0.2913  0.4441
12302TIP3    H158321   5.435   0.468  15.202  0.7610  1.5269 -1.3155
12302TIP3    H258322   5.325   0.535  15.281 -0.5100  0.1285 -1.8450
12303TIP3   OH258323   0.905   3.978  15.131 -0.4560 -0.3447  0.3315
12303TIP3    H158324   0.835   4.021  15.181  0.3473  2.0916 -0.4900
12303TIP3    H258325   0.863   3.948  15.051 -0.7793  0.1274  0.3219
12304TIP3   OH258326   1.465   1.573  14.905 -0.0491 -0.0140  0.1171
12304TIP3    H158327   1.429   1.556  14.818 -0.0924 -2.2246  0.5105
12304TIP3    H258328   1.406   1.638  14.943 -0.7579  0.0419 -1.0287
12305TIP3   OH258329   0.005   0.745   0.003 -0.7775  0.2011 -0.3296
12305TIP3    H158330  -0.084   0.736  -0.031 -0.2086 -1.1879 -1.5733
12305TIP3    H258331   0.029   0.656   0.030  0.7017  0.2721 -1.2882
12306TIP3   OH258332   2.216   2.598   2.202  0.0658  0.3628 -0.6171
12306TIP3    H158333   2.174   2.621   2.120 -1.1233 -1.6258 -0.6406
12306TIP3    H258334   2.155   2.538   2.245  1.2425  0.3025  1.1010
12307TIP3   OH258335   4.479   6.300  16.159  0.0760  0.3851  0.0566
12307TIP3    H158336   4.511   6.349  16.083 -1.0302  1.5841  0.3150
12307TIP3    H258337   4.446   6.218  16.122  0.9719  0.2849 -0.5468
12308TIP3   OH258338   6.668   4.353  11.808  0.4016  0.0480  0.6337
12308TIP3    H158339   6.589   4.349  11.755  2.1507  2.1984 -2.4800
12308TIP3    H258340   6.666   4.440  11.848  1.8531  0.8004 -0.8028
12309TIP3   OH258341   1.769   5.246  10.462 -0.2526 -0.3566 -0.3702
12309TIP3    H158342   1.831   5.205  10.402 -0.7060 -2.1765  0.3455
12309TIP3    H258343   1.734   5.174  10.514 -2.4464  0.6884 -0.2652
12310TIP3   OH258344   4.327   3.635  16.647 -0.2194  0.3655 -0.3562
12310TIP3    H158345   4.273   3.713  16.659 -0.7781 -0.0810  0.0562
12310TIP3    H258346   4.389   3.659  16.577 -1.1226  0.7849 -1.0294
12311TIP3   OH258347   0.348   2.573   3.504 -0.0258  0.3652  0.7066
12311TIP3    H158348   0.402   2.494   3.499  0.9963  1.1018 -0.3978
12311TIP3    H258349   0.318   2.576   3.595 -1.2868 -2.0633  0.4589
12312TIP3   OH258350   0.531   3.894   3.753  0.1387  0.1433 -0.1960
12312TIP3    H158351   0.453   3.941   3.726 -1.9473 -2.4880  0.8042
12312TIP3    H258352   0.593   3.907   3.681 -2.6171 -0.7810 -2.9935
12313TIP3   OH258353   1.078   3.832  17.124  0.1430  0.0130 -0.5272
12313TIP3    H158354   1.130   3.798  17.197  0.2573  1.9525  0.3588
12313TIP3    H258355   0.997   3.780  17.125  0.4507 -0.4616  0.5383
12314TIP3   OH258356   4.950   3.955  17.300 -0.7853 -0.2079  0.1549
12314TIP3    H158357   5.014   3.990  17.239 -1.2847  0.2135 -0.1374
12314TIP3    H258358   4.880   4.021  17.302 -1.7580 -1.1859 -0.4273
12315TIP3   OH258359   5.344   4.710   5.003 -0.5427 -0.1403  0.1354
12315TIP3    H158360   5.402   4.741   5.072  1.6104 -0.7147 -1.3365
12315TIP3    H258361   5.323   4.789   4.953  0.9392 -0.2497 -0.7100
12316TIP3   OH258362   0.037   2.873  12.820  0.1087  0.1296 -0.1162
12316TIP3    H158363   0.110   2.934  12.830  1.2047 -1.4801  2.9981
12316TIP3    H258364   0.020   2.872  12.726  1.8797  3.0270 -0.6121
12317TIP3   OH258365   3.189   0.732  13.232 -0.1772 -0.0064 -0.4499
12317TIP3    H158366   3.112   0.741  13.175  0.1340 -2.4186 -1.3668
12317TIP3    H258367   3.262   0.759  13.176 -0.2114  1.0398 -0.0018
12318TIP3   OH258368   4.736   6.576   4.648  0.2771  0.0195 -0.4352
12318TIP3    H158369   4.734   6.558   4.742  3.1137 -0.9615 -0.4556
12318TIP3    H258370   4.696   6.663   4.639  0.3949  0.3552  1.7445
12319TIP3   OH258371   1.526   6.224  16.089 -0.6602 -0.4065  0.4491
12319TIP3    H158372   1.495   6.287  16.023 -0.5896  1.3040  1.9726
12319TIP3    H258373   1.448   6.205  16.141 -0.7003 -1.7085 -0.0415
12320TIP3   OH258374   3.771   3.680   1.723 -0.0581 -0.0550 -0.3579
12320TIP3    H158375   3.698   3.736   1.748  0.3628  0.2764  0.1437
12320TIP3    H258376   3.754   3.597   1.768  0.0193  0.1139 -0.0166
12321TIP3   OH258377   4.888   5.484   3.390  0.1673  0.0947 -0.3012
12321TIP3    H158378   4.873   5.472   3.483 -0.5398  3.0996  0.0916
12321TIP3    H258379   4.801   5.484   3.351 -0.0334  3.4196 -0.1552
12322TIP3   OH258380   3.929   1.938   2.313 -0.6765 -0.0845  0.4423
12322TIP3    H158381   3.867   1.897   2.374 -0.8739 -0.5826 -0.0776
12322TIP3    H258382   4.009   1.887   2.324 -0.1265  1.0116  1.6309
12323TIP3   OH258383   3.690   3.639  14.031 -0.0271 -0.1281 -0.1836
12323TIP3    H158384   3.601   3.645  14.067  0.6575 -1.1583  1.7938
12323TIP3    H258385   3.738   3.710  14.074  0.2753  0.0252 -0.7707
12324TIP3   OH258386   6.111   5.627  12.469  0.1465  0.2490 -0.5446
12324TIP3    H158387   6.043   5.616  12.535  2.0160  1.5429  1.7360
12324TIP3    H258388   6.146   5.539  12.455 -1.4418 -0.3163 -1.2173
12325TIP3   OH258389   2.651   6.395   5.155 -0.1374  0.0655 -0.0439
12325TIP3    H158390   2.702   6.335   5.209  1.3622  1.4848  0.1945
12325TIP3    H258391   2.645   6.352   5.070  1.6865 -0.0593 -0.1486
12326TIP3   OH258392   0.423   4.042  16.368  0.0326  0.4946 -0.0423
12326TIP3    H158393   0.505   4.086  16.345 -0.6072  0.9193 -1.5899
12326TIP3    H258394   0.435   3.952  16.337 -0.1619  0.6112 -0.4587
12327TIP3   OH258395   6.577   3.655  17.212 -0.1955 -0.5957  0.2744
12327TIP3    H158396   6.561   3.714  17.139  1.5229  1.3901  1.3931
12327TIP3    H258397   6.580   3.712  17.289  0.8128 -2.2312  1.5342
12328TIP3   OH258398   4.105   2.526  15.911  0.5329 -0.2233 -0.4504
12328TIP3    H158399   4.086   2.518  15.818  0.6849 -1.3707 -0.4050
12328TIP3    H258400   4.168   2.456  15.928  2.7225  1.7202 -0.0542
12329TIP3   OH258401   2.922   1.413  14.178  0.1455 -0.0125 -0.1452
12329TIP3    H158402   2.947   1.414  14.271  0.0823 -2.4018 -0.0364
12329TIP3    H258403   2.994   1.366  14.135  0.0351  0.8151 -1.2714
12330TIP3   OH258404   2.241   2.032   1.510  0.2239 -0.3067  0.1783
12330TIP3    H158405   2.310   1.974   1.478  0.3977  0.0395 -0.0823
12330TIP3    H258406   2.172   2.026   1.445 -0.5237 -1.5988  1.0525
12331TIP3   OH258407   2.333   2.640   5.370 -0.3018  0.0326  0.6357
12331TIP3    H158408   2.367   2.551   5.366 -0.6590 -0.3907  3.9413
12331TIP3    H258409   2.291   2.645   5.456 -1.3515  3.0443  0.0560
12332TIP3   OH258410   5.498   0.147   0.431 -0.8107 -0.6470 -0.2170
12332TIP3    H158411   5.520   0.240   0.436 -0.9455 -0.5292 -1.4908
12332TIP3    H258412   5.534   0.118   0.347  0.5959 -2.1440  0.8319
12333TIP3   OH258413   5.269   5.937   5.698 -0.1448 -0.3594  0.5677
12333TIP3    H158414   5.326   5.860   5.689 -1.5172 -1.3547 -0.0408
12333TIP3    H258415   5.327   6.006   5.729  1.6170 -1.0200 -1.0340
12334TIP3   OH258416   3.279   0.674   4.768  0.2108 -0.1499 -0.3094
12334TIP3    H158417   3.243   0.760   4.791 -1.4066 -0.7437 -0.4731
12334TIP3    H258418   3.271   0.670   4.673  0.8470 -0.2530 -0.3615
12335TIP3   OH258419   0.087   1.854  15.042  0.3473  0.1730 -0.2858
12335TIP3    H158420   0.152   1.873  14.975 -0.4515  0.2049 -1.0609
12335TIP3    H258421   0.030   1.788  15.003  0.0977 -0.0952  0.5041
12336TIP3   OH258422   0.470   4.885  11.351  0.4777 -0.4119 -0.1738
12336TIP3    H158423   0.554   4.838  11.350 -0.0478 -1.3773 -2.0608
12336TIP3    H258424   0.413   4.834  11.295  0.3459  3.3081 -3.8882
12337TIP3   OH258425   5.200   1.323  12.751  0.4580 -0.2584  0.1670
12337TIP3    H158426   5.116   1.278  12.757 -0.0056  0.6278  0.6178
12337TIP3    H258427   5.246   1.279  12.679 -0.9467  0.1060 -1.0131
12338TIP3   OH258428   4.065   0.483  11.989  0.4726 -0.1308 -0.1148
12338TIP3    H158429   4.009   0.522  11.922  0.2959 -0.0163  0.0994
12338TIP3    H258430   4.108   0.410  11.945 -0.2594 -0.5598 -0.1295
12339TIP3   OH258431   5.368   5.132  11.524 -0.0352  0.1630  0.1637
12339TIP3    H158432   5.403   5.113  11.437  0.1065  0.2640  0.1974
12339TIP3    H258433   5.295   5.071  11.535 -0.0310  0.1270 -0.0111
12340TIP3   OH258434   0.628   6.662   5.942  0.2375  0.7681 -0.8365
12340TIP3    H158435   0.610   6.696   6.030 -0.2175 -1.0703 -0.1592
12340TIP3    H258436   0.557   6.697   5.888 -0.9624 -0.0955  0.1180
12341TIP3   OH258437   1.259   1.822  16.809  0.3239 -0.7656 -0.3654
12341TIP3    H158438   1.270   1.916  16.825 -0.0825 -0.7933  0.0970
12341TIP3    H258439   1.308   1.780  16.880 -1.0527 -0.8915  0.5571
12342TIP3   OH258440   1.135   1.678  16.124  0.5767 -0.5244  0.3573
12342TIP3    H158441   1.136   1.692  16.219  3.6575 -1.3512  0.5379
12342TIP3    H258442   1.138   1.583  16.114 -0.3384 -0.4633 -0.6037
12343TIP3   OH258443   1.180   5.136   5.652  0.6896 -0.5539  0.0382
12343TIP3    H158444   1.254   5.192   5.673 -0.2738  0.5880  0.5490
12343TIP3    H258445   1.140   5.116   5.737 -0.1121 -0.3907 -0.2862
12344TIP3   OH258446   0.700   2.858  12.324  0.1535 -0.2430  0.8357
12344TIP3    H158447   0.752   2.794  12.373 -0.1251 -0.6766  0.5700
12344TIP3    H258448   0.722   2.841  12.232  2.9712  2.4883  0.8340
12345TIP3   OH258449   1.641   0.362   4.656  0.4591  0.1049 -0.6774
12345TIP3    H158450   1.689   0.280   4.673  0.0136 -0.4415 -1.9778
12345TIP3    H258451   1.630   0.401   4.743  0.3055 -1.4221  0.0165
12346TIP3   OH258452   5.891   3.567  13.867  0.1783 -0.0432 -0.0232
12346TIP3    H158453   5.968   3.623  13.861 -0.7876  1.3733  0.2394
12346TIP3    H258454   5.837   3.591  13.791 -0.0017 -1.0390 -0.2265
12347TIP3   OH258455   3.571   2.197  15.467 -0.1299  0.1059  0.0416
12347TIP3    H158456   3.530   2.164  15.387  0.3068 -0.0368 -0.1264
12347TIP3    H258457   3.527   2.151  15.538 -0.4698  0.1803 -0.1229
12348TIP3   OH258458   3.984   4.615  13.755 -0.3128  0.4234 -0.6581
12348TIP3    H158459   4.073   4.612  13.789  0.2824 -0.9645 -2.2243
12348TIP3    H258460   3.994   4.604  13.660 -2.2514 -2.3302 -0.6436
12349TIP3   OH258461   4.713   2.728  14.549 -0.5551 -0.5171 -0.1142
12349TIP3    H158462   4.617   2.729  14.554 -0.5143  0.3450  0.8369
12349TIP3    H258463   4.735   2.796  14.486 -0.5429  0.1179  0.5618
12350TIP3   OH258464   3.846   5.050   0.095 -0.3013  0.2902 -0.0627
12350TIP3    H158465   3.774   5.080   0.041 -0.7856  0.3466  0.5996
12350TIP3    H258466   3.916   5.029   0.033  0.0913  2.8205 -0.5573
12351TIP3   OH258467   3.214   4.296   5.528  0.3623  0.2667 -0.1143
12351TIP3    H158468   3.299   4.268   5.494  0.1123  1.4801 -1.8654
12351TIP3    H258469   3.162   4.216   5.530  1.2218 -0.3024 -0.0465
12352TIP3   OH258470   3.020   2.969   1.802 -0.8126 -0.2166  0.4661
12352TIP3    H158471   2.979   2.944   1.885 -3.3939 -1.5730 -1.0736
12352TIP3    H258472   2.976   3.051   1.778  0.4198  0.5410  0.7233
12353TIP3   OH258473   2.466   3.855   4.494  0.7999  0.1723  0.6860
12353TIP3    H158474   2.541   3.808   4.532  0.3701 -1.7019 -0.6779
12353TIP3    H258475   2.439   3.802   4.420 -1.3844  1.2527  0.6245
12354TIP3   OH258476   4.285   2.684   4.382 -0.4303 -0.0921 -0.3387
12354TIP3    H158477   4.358   2.638   4.340 -0.2731  0.3966 -0.6077
12354TIP3    H258478   4.320   2.771   4.402 -1.4093  0.6956 -1.8845
12355TIP3   OH258479   0.054   5.110   3.694 -0.8872 -0.6547  0.1560
12355TIP3    H158480   0.073   5.176   3.761  1.3806 -0.1563 -0.8861
12355TIP3    H258481   0.084   5.028   3.732 -1.5652 -0.7378  0.5391
12356TIP3   OH258482   1.217   4.267  13.830 -0.6261 -0.0564  0.1500
12356TIP3    H158483   1.243   4.357  13.812  1.4079 -0.9180 -1.6653
12356TIP3    H258484   1.122   4.270  13.835 -0.5637  2.3065  1.0040
12357TIP3   OH258485   6.372   2.280   3.033 -0.4378  0.0107 -0.2133
12357TIP3    H158486   6.428   2.348   2.995  3.0014 -1.1598  2.2804
12357TIP3    H258487   6.429   2.204   3.041 -2.9790 -1.9313  0.8347
12358TIP3   OH258488   3.606   4.698  14.566 -0.2960 -0.2547  0.2328
12358TIP3    H158489   3.563   4.652  14.639 -1.6861  0.9875  0.2325
12358TIP3    H258490   3.545   4.767  14.542  0.6420  0.0467 -1.4106
12359TIP3   OH258491   5.105   5.934   3.517  0.1372 -0.4302 -0.2308
12359TIP3    H158492   5.171   5.940   3.586 -0.3801  0.1176  0.2255
12359TIP3    H258493   5.151   5.893   3.443  0.6039 -1.3706  0.5562
12360TIP3   OH258494   4.741   3.160  12.345 -0.2467 -0.4724 -0.5884
12360TIP3    H158495   4.693   3.111  12.278 -0.8837 -0.5355 -0.0992
12360TIP3    H258496   4.675   3.180  12.412  0.2599  0.0492 -0.2310
12361TIP3   OH258497   5.442   1.576   4.590 -0.2875  0.4122 -0.5503
12361TIP3    H158498   5.359   1.554   4.634 -0.8825 -0.4742 -2.0272
12361TIP3    H258499   5.439   1.525   4.509  1.1846  1.2892 -1.1751
12362TIP3   OH258500   6.212   1.360   4.435 -0.3074 -0.1084 -0.3319
12362TIP3    H158501   6.235   1.392   4.522 -0.7413 -0.0332 -0.2475
12362TIP3    H258502   6.293   1.371   4.384 -0.0130 -0.2823  0.0931
12363TIP3   OH258503   2.317   6.141   3.913 -0.2253  0.7646 -0.0956
12363TIP3    H158504   2.332   6.064   3.967  0.1873  0.6853 -0.3144
12363TIP3    H258505   2.386   6.137   3.847 -0.6695  0.9085 -0.5725
12364TIP3   OH258506   0.293   6.055   4.395 -0.3202  0.4301 -0.4326
12364TIP3    H158507   0.303   5.966   4.430 -0.1967  0.6797  0.1851
12364TIP3    H258508   0.201   6.059   4.367 -0.4669  0.2632  0.0040
12365TIP3   OH258509   4.526   6.132   5.887 -0.7728  0.3081  0.0723
12365TIP3    H158510   4.615   6.160   5.866 -0.9288  0.8618  0.1369
12365TIP3    H258511   4.481   6.213   5.911 -1.0743 -0.0686  0.8224
12366TIP3   OH258512   2.050   4.634   4.427 -1.0836 -0.9941  0.2906
12366TIP3    H158513   2.082   4.715   4.389 -0.6848  0.2767  3.0611
12366TIP3    H258514   2.045   4.573   4.354 -0.6478  1.2783 -1.7592
12367TIP3   OH258515   0.826   4.141   6.174  0.0138  0.2727 -0.1556
12367TIP3    H158516   0.746   4.118   6.127  1.2725  0.1991 -2.4124
12367TIP3    H258517   0.822   4.092   6.255 -1.7962 -0.4348 -0.6399
12368TIP3   OH258518   0.799   3.215   2.243 -0.5687 -0.2869  0.3310
12368TIP3    H158519   0.758   3.293   2.205 -0.2361  0.1554  0.8547
12368TIP3    H258520   0.866   3.250   2.301 -1.5768 -0.9337  1.9324
12369TIP3   OH258521   6.574   5.950  15.393  0.5575 -0.5086 -0.4080
12369TIP3    H158522   6.506   5.974  15.456  1.4580  0.1006  0.3667
12369TIP3    H258523   6.626   5.884  15.438  1.6075  0.4128 -0.2166
12370TIP3   OH258524   5.658   0.395   5.631  0.3174  0.3477 -0.6702
12370TIP3    H158525   5.723   0.346   5.682  1.4437  0.7386 -1.7053
12370TIP3    H258526   5.601   0.435   5.698  0.8135 -0.4160  0.2400
12371TIP3   OH258527   3.739   4.375  16.722  0.5279  0.5563  0.1369
12371TIP3    H158528   3.765   4.461  16.755 -1.6533  0.9713  0.8898
12371TIP3    H258529   3.813   4.347  16.668  1.2114  2.9885 -0.2890
12372TIP3   OH258530   6.334   0.588   5.998 -0.4130 -0.2466  0.8981
12372TIP3    H158531   6.242   0.599   6.021 -0.5150  0.9521  0.0484
12372TIP3    H258532   6.368   0.678   5.992  0.2814 -0.5702 -0.7940
12373TIP3   OH258533   1.604   4.644  11.504 -0.2792 -0.0872  0.3059
12373TIP3    H158534   1.677   4.609  11.555  0.7189  0.4415 -0.7261
12373TIP3    H258535   1.597   4.586  11.428  0.7199  1.2845 -0.8847
12374TIP3   OH258536   3.143   6.121  15.292 -0.2740  0.0587 -0.1649
12374TIP3    H158537   3.174   6.082  15.210  0.5936 -1.2305  0.7425
12374TIP3    H258538   3.218   6.116  15.351 -1.1872  0.0450  1.0290
12375TIP3   OH258539   2.453   5.080   6.607  0.1775 -0.2311 -0.3447
12375TIP3    H158540   2.526   5.137   6.584  0.1708  0.2960  0.8675
12375TIP3    H258541   2.375   5.131   6.586  0.1716  0.1863  0.6483
12376TIP3   OH258542   3.884   0.864  10.600 -0.0621  0.0266  0.2358
12376TIP3    H158543   3.837   0.849  10.682 -2.2964 -1.6671 -1.2629
12376TIP3    H258544   3.890   0.777  10.559  0.8631  0.8545 -1.4934
12377TIP3   OH258545   6.105   3.509  11.911  0.0671  0.3904 -0.0900
12377TIP3    H158546   6.063   3.570  11.972  0.7787 -0.1290  0.9533
12377TIP3    H258547   6.178   3.558  11.875  0.9965  0.0154  1.1911
12378TIP3   OH258548   6.365   3.734  13.371 -0.2509 -0.5619  0.5294
12378TIP3    H158549   6.295   3.686  13.415  0.1907 -0.4018  1.4275
12378TIP3    H258550   6.444   3.685  13.393 -0.2899 -2.3582 -2.6785
12379TIP3   OH258551   6.469   0.182  13.506 -0.1495  0.1646 -0.0035
12379TIP3    H158552   6.514   0.267  13.503 -0.5123  0.3425 -1.7936
12379TIP3    H258553   6.500   0.141  13.586  0.4239  1.7774  0.6472
12380TIP3   OH258554   2.891   1.262  14.786 -0.0228  0.5230  0.2631
12380TIP3    H158555   2.878   1.303  14.872 -2.6058  1.9018 -0.6670
12380TIP3    H258556   2.803   1.232  14.761  1.1441 -2.4130 -0.7370
12381TIP3   OH258557   6.510   4.531  15.129  0.5239 -0.3129  0.4252
12381TIP3    H158558   6.500   4.587  15.206  1.2778 -0.4506  0.6263
12381TIP3    H258559   6.476   4.446  15.157  0.7040 -0.3358  0.5793
12382TIP3   OH258560   3.506   1.940  10.508  0.6513  0.4526 -0.1113
12382TIP3    H158561   3.477   1.849  10.517 -0.6865  0.7970 -0.7437
12382TIP3    H258562   3.554   1.958  10.589  2.1644 -1.2373 -0.5649
12383TIP3   OH258563   2.331   4.785   6.663 -0.4941  0.0953 -0.1180
12383TIP3    H158564   2.309   4.706   6.712  1.1933  0.0715  0.6620
12383TIP3    H258565   2.360   4.847   6.729  0.7820  0.4302 -0.9612
12384TIP3   OH258566   6.537   1.579  14.363  0.2707  0.3050 -0.2370
12384TIP3    H158567   6.553   1.662  14.317  0.6910  0.5079  0.2572
12384TIP3    H258568   6.607   1.521  14.333 -0.7588 -0.3071 -1.5646
12385TIP3   OH258569   3.331   3.952   5.739 -0.3315  0.0055 -0.1454
12385TIP3    H158570   3.381   4.034   5.737 -1.6345  0.8323 -0.0644
12385TIP3    H258571   3.291   3.951   5.826 -2.1230  0.4300 -0.9119
12386TIP3   OH258572   6.629   2.206   2.898  0.2922 -0.0223  0.6452
12386TIP3    H158573   6.641   2.262   2.821  1.2034 -1.4802 -0.3352
12386TIP3    H258574   6.633   2.117   2.863 -1.5983 -0.7355  2.0675
12387TIP3   OH258575   0.524   6.046   1.428  0.4968 -0.2602  0.1683
12387TIP3    H158576   0.560   6.053   1.339 -0.0800 -0.8562 -0.1169
12387TIP3    H258577   0.499   6.136   1.450  2.1706  0.1872  0.3965
12388TIP3   OH258578   4.845   2.301   3.237  0.6260  0.5821 -0.0440
12388TIP3    H158579   4.913   2.250   3.193 -1.4379 -0.7845 -1.9256
12388TIP3    H258580   4.788   2.235   3.277 -0.1239  1.6236  0.6574
12389TIP3   OH258581   3.638   5.351   3.223 -0.0251 -0.2990  0.3444
12389TIP3    H158582   3.674   5.331   3.137 -1.7244  1.4858 -0.8635
12389TIP3    H258583   3.715   5.359   3.280  1.1448 -1.3488 -1.0131
12390TIP3   OH258584   4.252   3.046   2.087 -0.2431  0.2250  0.0539
12390TIP3    H158585   4.203   3.074   2.010  0.3315  0.5294 -0.1987
12390TIP3    H258586   4.343   3.063   2.066 -0.2062  2.2340  1.5798
12391TIP3   OH258587   0.026   0.952  13.094  0.6108  0.1773  0.9519
12391TIP3    H158588  -0.058   0.997  13.102  0.4628  0.7338 -2.4453
12391TIP3    H258589   0.007   0.861  13.118 -1.1832  0.1399 -0.3872
12392TIP3   OH258590   0.177   1.435   1.766  0.1028  0.2082  0.0901
12392TIP3    H158591   0.200   1.365   1.827 -1.8044  0.1620  0.8237
12392TIP3    H258592   0.092   1.409   1.731 -2.1866  3.4336  2.5905
12393TIP3   OH258593   1.090   2.903   4.340  0.2190 -0.3694  0.5860
12393TIP3    H158594   1.084   2.962   4.415  1.0178  1.3683 -0.6330
12393TIP3    H258595   1.184   2.890   4.326  0.0757 -0.9466  0.1008
12394TIP3   OH258596   0.040   2.265  16.160  0.0318  0.1549  0.0325
12394TIP3    H158597   0.079   2.235  16.242  0.9786 -1.4886 -0.9583
12394TIP3    H258598   0.055   2.359  16.159  0.4550  0.1322  1.4975
12395TIP3   OH258599   2.061   2.662  16.465  0.0727 -0.0588 -0.1120
12395TIP3    H158600   1.985   2.645  16.409 -0.3257  1.0429  0.0747
12395TIP3    H258601   2.026   2.708  16.541  0.8785  0.1301  0.1596
12396TIP3   OH258602   6.005   1.829   1.718  0.2795 -0.3467 -0.0654
12396TIP3    H158603   6.028   1.890   1.647  0.7275  0.6108  0.8689
12396TIP3    H258604   5.991   1.745   1.674  1.7034 -0.0481 -1.1668
12397TIP3   OH258605   5.760   3.634  13.231  0.0107  0.0725 -0.2570
12397TIP3    H158606   5.721   3.571  13.292  1.1150 -2.1866 -1.7431
12397TIP3    H258607   5.703   3.632  13.154  1.3920 -1.1282 -1.3196
12398TIP3   OH258608   4.658   6.522  13.022  0.2777  0.4870  0.2040
12398TIP3    H158609   4.654   6.577  13.100  2.4757  0.2714  0.5505
12398TIP3    H258610   4.649   6.584  12.949 -0.9470  0.7957  0.5970
12399TIP3   OH258611   5.185   3.925  13.230  0.1207  0.1255 -0.5898
12399TIP3    H158612   5.094   3.954  13.226 -0.2936 -0.7023  1.5082
12399TIP3    H258613   5.196   3.867  13.155 -1.3437 -0.4575 -0.3722
12400TIP3   OH258614   5.077   0.748   0.434  0.9815  0.2066  0.5321
12400TIP3    H158615   5.017   0.819   0.411 -1.2827 -1.5400  0.7529
12400TIP3    H258616   5.152   0.792   0.474  0.3819  2.5576 -0.7226
12401TIP3   OH258617   5.314   0.374  15.730 -0.9373 -0.2114  0.5783
12401TIP3    H158618   5.250   0.390  15.800 -0.8225  0.7113  0.4840
12401TIP3    H258619   5.326   0.459  15.688 -0.9320 -0.7297 -0.5109
12402TIP3   OH258620   5.168   4.622   1.726  0.0771 -0.5585 -0.3297
12402TIP3    H158621   5.257   4.640   1.695  0.9780 -1.7428  1.3413
12402TIP3    H258622   5.143   4.701   1.774  0.6682 -0.6011  0.0677
12403TIP3   OH258623   3.452   1.439  16.714  0.3728  0.2425 -0.0168
12403TIP3    H158624   3.438   1.448  16.808  0.0604  0.6584 -0.0990
12403TIP3    H258625   3.444   1.345  16.697  2.0354 -0.0354  0.6136
12404TIP3   OH258626   2.321   1.185   3.457  0.3119 -0.6899  1.0497
12404TIP3    H158627   2.407   1.221   3.437  0.7162 -0.1368  3.5108
12404TIP3    H258628   2.262   1.260   3.450 -0.6794 -1.6145 -3.7515
12405TIP3   OH258629   6.173   4.661  15.246 -0.1063 -0.3226 -0.7466
12405TIP3    H158630   6.103   4.724  15.228 -1.7483 -1.5372  0.9733
12405TIP3    H258631   6.195   4.625  15.160  1.6847  3.2416 -1.9806
12406TIP3   OH258632   3.126   2.877   2.432  0.2789  1.0074 -0.0403
12406TIP3    H158633   3.111   2.811   2.364  1.2195  1.6713 -0.9150
12406TIP3    H258634   3.060   2.858   2.499 -1.0563  0.6865 -1.3900
12407TIP3   OH258635   4.052   4.519   4.816  0.2319  0.0321  0.1480
12407TIP3    H158636   4.088   4.546   4.732  1.1151  0.8116  0.7526
12407TIP3    H258637   3.975   4.574   4.830  1.1749  1.2562  0.6977
12408TIP3   OH258638   2.551   2.601   4.518  0.1411 -0.1202 -0.1902
12408TIP3    H158639   2.472   2.607   4.572  0.5099 -0.3593  0.3898
12408TIP3    H258640   2.622   2.592   4.581  0.6249  0.0041 -0.7100
12409TIP3   OH258641   6.512   0.757  17.275  0.0003  0.1757 -0.0112
12409TIP3    H158642   6.474   0.670  17.288 -0.1942  0.1755 -0.5834
12409TIP3    H258643   6.442   0.809  17.236  0.3266  0.4011 -0.3095
12410TIP3   OH258644   2.907   0.609   0.516  0.0664 -0.2603  0.4606
12410TIP3    H158645   2.919   0.538   0.578  1.1847  0.3437  0.9667
12410TIP3    H258646   2.951   0.684   0.556 -0.5053  0.5423 -0.3657
12411TIP3   OH258647   1.111   0.523   2.576 -0.6340  0.1896 -0.6373
12411TIP3    H158648   1.086   0.459   2.643 -0.0017  0.8407  0.2477
12411TIP3    H258649   1.035   0.581   2.568 -2.0630 -1.8250 -2.9662
12412TIP3   OH258650   3.363   1.143  13.436 -0.5716  0.9409  0.5449
12412TIP3    H158651   3.312   1.117  13.512 -1.2669 -0.0291 -0.2354
12412TIP3    H258652   3.326   1.094  13.363  1.4849  0.1665 -0.0712
12413TIP3   OH258653   5.813   5.281  13.494  0.0124 -0.3320  0.2019
12413TIP3    H158654   5.886   5.223  13.516 -0.5760 -1.5250 -0.8574
12413TIP3    H258655   5.782   5.314  13.578  3.2007  2.1055  0.6259
12414TIP3   OH258656   1.541   1.384   1.531  0.2812 -0.0612  0.3744
12414TIP3    H158657   1.452   1.373   1.498  0.0867  1.6463  0.2384
12414TIP3    H258658   1.530   1.437   1.610  1.2511  1.2872 -0.3572
12415TIP3   OH258659   0.205   3.087  12.056 -0.0739  0.2116  0.4665
12415TIP3    H158660   0.197   3.066  12.150  1.4446  0.7275  0.7409
12415TIP3    H258661   0.299   3.092  12.041 -0.3137  0.9043 -0.9374
12416TIP3   OH258662   1.004   2.256   5.120 -0.1088  0.0173  0.2272
12416TIP3    H158663   1.012   2.231   5.027 -1.6972 -1.7808  0.5049
12416TIP3    H258664   1.041   2.344   5.124 -2.0216  1.1169 -2.5719
12417TIP3   OH258665   1.042   3.288   2.361 -0.4015  0.0668 -0.0158
12417TIP3    H158666   1.107   3.313   2.295 -1.2026  0.1015 -0.8084
12417TIP3    H258667   1.047   3.358   2.427  0.3782  0.0513 -0.0541
12418TIP3   OH258668   3.769   5.690   2.986  0.1142  0.1124 -0.3058
12418TIP3    H158669   3.789   5.624   3.053  1.2719  2.0534  1.3871
12418TIP3    H258670   3.687   5.729   3.014  0.2702  0.4943 -0.3673
12419TIP3   OH258671   2.468   3.144   2.969  0.3446 -0.1256 -0.2544
12419TIP3    H158672   2.403   3.102   2.913 -1.7477  2.2396  0.2032
12419TIP3    H258673   2.504   3.215   2.917 -0.9820  1.5443  0.9708
12420TIP3   OH258674   4.597   1.350  12.646  0.3864  0.4924 -0.0016
12420TIP3    H158675   4.692   1.354  12.630  0.2642  0.9527 -0.6357
12420TIP3    H258676   4.586   1.277  12.707  1.1827  0.6063  0.2909
12421TIP3   OH258677   3.057   2.006  12.400  0.4745  0.0857 -0.2401
12421TIP3    H158678   2.977   1.978  12.445  1.4145 -0.1031  1.4134
12421TIP3    H258679   3.110   1.927  12.395  0.6139  0.2361 -1.2119
12422TIP3   OH258680   1.225   2.353   4.578 -0.0997  0.0276 -0.3516
12422TIP3    H158681   1.262   2.319   4.659  0.6088 -0.0575 -0.7032
12422TIP3    H258682   1.249   2.445   4.578 -0.1039  0.0286 -0.4609
12423TIP3   OH258683   5.078   3.923   0.624  0.1508  0.4744  0.3938
12423TIP3    H158684   5.110   3.981   0.692  1.0833  1.1620 -0.6016
12423TIP3    H258685   5.107   3.836   0.651 -0.7134  0.5467  1.5768
12424TIP3   OH258686   6.561   4.151  11.521 -0.4046 -0.4821  0.5112
12424TIP3    H158687   6.574   4.236  11.480  0.2295 -1.4849 -1.5102
12424TIP3    H258688   6.469   4.130  11.503  0.2844 -1.7057 -2.2357
12425TIP3   OH258689   4.811   5.760  12.242  0.1119  0.3021  0.3308
12425TIP3    H158690   4.831   5.740  12.334 -0.1844 -0.3658  0.2562
12425TIP3    H258691   4.896   5.769  12.200  0.2553 -0.7433  0.3840
12426TIP3   OH258692   4.113   2.378  16.394 -0.0224 -0.3789 -0.3528
12426TIP3    H158693   4.125   2.439  16.467 -0.9028  0.0565 -0.5534
12426TIP3    H258694   4.099   2.293  16.436 -0.0295 -0.2172 -0.0211
12427TIP3   OH258695   5.857   3.524   2.171  0.6214  0.5224  0.5627
12427TIP3    H158696   5.880   3.455   2.233  0.2613  0.2052  0.3486
12427TIP3    H258697   5.762   3.536   2.182  0.3136 -0.4293 -0.8081
12428TIP3   OH258698   4.314   5.464   3.771 -0.0593  0.4407 -0.6194
12428TIP3    H158699   4.347   5.437   3.857  0.2875  0.2216 -0.8190
12428TIP3    H258700   4.231   5.417   3.762 -0.3340  0.8371 -0.2014
12429TIP3   OH258701   3.437   5.590  13.884  0.3611 -0.1737 -0.1489
12429TIP3    H158702   3.442   5.580  13.979  0.0426  0.5747 -0.0524
12429TIP3    H258703   3.371   5.527  13.857  0.2578 -0.1989  0.1558
12430TIP3   OH258704   4.030   6.603  11.332 -0.6276 -0.1873  0.0845
12430TIP3    H158705   4.044   6.684  11.283  1.0904 -0.0771  0.6757
12430TIP3    H258706   3.994   6.542  11.269 -1.7328  0.9669 -0.4308
12431TIP3   OH258707   3.594   3.376  12.416  0.4956 -0.2989  0.0874
12431TIP3    H158708   3.514   3.366  12.366  0.2765 -1.5978  0.6723
12431TIP3    H258709   3.568   3.423  12.495  0.5550  0.3799 -0.2899
12432TIP3   OH258710   0.339   2.792  11.380  0.2523 -0.4667 -0.4306
12432TIP3    H158711   0.250   2.821  11.402  0.0768  0.3779 -2.1085
12432TIP3    H258712   0.396   2.845  11.436 -0.2131  0.8295 -1.1373
12433TIP3   OH258713   3.150   6.700  12.729 -0.7217 -0.0310 -0.2567
12433TIP3    H158714   3.060   6.668  12.735 -1.1690  0.9949 -1.1829
12433TIP3    H258715   3.186   6.688  12.817 -1.5511 -1.0264 -0.0361
12434TIP3   OH258716   0.904   5.221  12.221 -0.3848 -0.2846 -0.0947
12434TIP3    H158717   0.904   5.215  12.126 -0.3923 -0.8056 -0.0642
12434TIP3    H258718   0.951   5.302  12.240  1.4253 -1.1772 -0.4919
12435TIP3   OH258719   5.526   2.424  16.083 -0.4579 -0.0298 -0.0139
12435TIP3    H158720   5.604   2.403  16.133  0.4031 -0.3339 -1.4450
12435TIP3    H258721   5.558   2.470  16.006 -1.7729  0.6422 -0.1892
12436TIP3   OH258722   3.209   0.389  13.237  0.5472 -0.1500  0.1624
12436TIP3    H158723   3.203   0.296  13.261 -1.6139 -0.8356 -2.4610
12436TIP3    H258724   3.121   0.411  13.206  1.4249  2.3182 -0.8054
12437TIP3   OH258725   2.627   6.651  10.975 -0.0362  0.7146 -0.4296
12437TIP3    H158726   2.538   6.651  11.010 -0.0307  0.4031 -0.4154
12437TIP3    H258727   2.658   6.561  10.987  0.0295  0.6467 -1.0641
12438TIP3   OH258728   4.983   1.175   3.601  0.1932 -0.1334 -0.1457
12438TIP3    H158729   5.012   1.186   3.510  0.5367 -2.5486 -0.4010
12438TIP3    H258730   5.065   1.165   3.651 -0.0203  0.3954  0.3173
12439TIP3   OH258731   4.098   6.097   0.499  0.2387  0.6817 -0.0819
12439TIP3    H158732   4.184   6.134   0.481  0.4828  0.1515 -0.0494
12439TIP3    H258733   4.117   6.005   0.520 -0.3056  0.6361  0.2104
12440TIP3   OH258734   2.416   3.289   0.028  0.1323  0.0344  0.3780
12440TIP3    H158735   2.463   3.336  -0.041  0.3072  0.8061  1.0231
12440TIP3    H258736   2.467   3.303   0.107 -0.8887  0.4360  0.9865
12441TIP3   OH258737   6.708   6.003  13.217  0.3084  0.1290  0.0655
12441TIP3    H158738   6.784   5.945  13.214 -0.4897 -1.0007  0.6271
12441TIP3    H258739   6.662   5.987  13.135 -0.8684 -1.4529  0.9689
12442TIP3   OH258740   3.554   2.773   5.067  0.4061 -0.1872 -0.4791
12442TIP3    H158741   3.590   2.839   5.007 -3.5166  2.1766 -0.6139
12442TIP3    H258742   3.608   2.780   5.146  2.2450  0.6301 -1.7232
12443TIP3   OH258743   1.570   5.980  11.862  0.1342 -0.0328 -0.1468
12443TIP3    H158744   1.478   5.984  11.890  0.3687 -0.3205  0.6918
12443TIP3    H258745   1.568   5.926  11.782 -0.4059 -0.1776 -0.0433
12444TIP3   OH258746   4.400   5.012  13.050 -0.2357 -0.1304 -0.5016
12444TIP3    H158747   4.354   4.966  12.979 -1.9044 -1.2690  1.2048
12444TIP3    H258748   4.470   4.952  13.076 -1.3028 -0.9718  0.5424
12445TIP3   OH258749   6.326   6.012   0.339 -0.4307  0.3794  0.0080
12445TIP3    H158750   6.316   5.941   0.276  0.4143 -0.6484  0.9884
12445TIP3    H258751   6.420   6.030   0.341 -0.4738  0.5632  0.7996
12446TIP3   OH258752   4.172   1.583   4.947  0.1256  0.2672 -0.4127
12446TIP3    H158753   4.119   1.507   4.922 -0.2126  0.3336  0.0778
12446TIP3    H258754   4.140   1.655   4.893  0.3804  0.0847 -0.8096
12447TIP3   OH258755   4.778   4.874  13.243 -0.2680 -0.3175 -0.0709
12447TIP3    H158756   4.761   4.907  13.154 -1.2917 -1.7646 -0.4547
12447TIP3    H258757   4.864   4.833  13.237  1.9071  3.6159  0.8701
12448TIP3   OH258758   5.667   3.068  12.168  0.4455  0.9925  0.4103
12448TIP3    H158759   5.614   2.999  12.208  0.6231  1.1088  0.8500
12448TIP3    H258760   5.623   3.087  12.085 -0.3836  1.3053  0.9067
12449TIP3   OH258761   5.545   2.501  12.185  0.0558 -0.0839 -0.5105
12449TIP3    H158762   5.569   2.437  12.252 -1.9345 -0.9758 -0.5595
12449TIP3    H258763   5.590   2.471  12.106  0.7389 -0.2615 -0.0535
12450TIP3   OH258764   6.706   3.075   0.845  0.2151  0.8545  0.5087
12450TIP3    H158765   6.637   3.043   0.904  0.6714 -3.5151 -0.9336
12450TIP3    H258766   6.661   3.092   0.762  0.5631 -0.8734 -0.0902
12451TIP3   OH258767   0.175   4.449  12.798 -0.2189  0.5723 -0.4037
12451TIP3    H158768   0.237   4.452  12.872 -1.5618  0.2230  0.7856
12451TIP3    H258769   0.230   4.464  12.721  1.2278  1.0664  0.6586
12452TIP3   OH258770   2.405   0.367   3.962  0.0207  0.5184 -0.6966
12452TIP3    H158771   2.318   0.326   3.966  1.1885 -2.1456 -0.2299
12452TIP3    H258772   2.456   0.320   4.028  1.9301  1.7998 -1.1870
12453TIP3   OH258773   2.168   4.447  16.044  0.1395 -0.5082 -0.2560
12453TIP3    H158774   2.244   4.400  16.078 -0.7110 -1.3893  0.4755
12453TIP3    H258775   2.148   4.512  16.112 -0.0712 -0.6313 -0.1993
12454TIP3   OH258776   2.021   2.350   1.015 -0.0592  0.1726  0.0319
12454TIP3    H158777   1.927   2.366   1.024 -0.3196  1.9715 -3.7132
12454TIP3    H258778   2.026   2.272   0.960  0.3796  1.9150 -2.5874
12455TIP3   OH258779   5.850   3.206  14.136  0.2579  0.1161  0.3574
12455TIP3    H158780   5.763   3.208  14.095  0.7577  0.5369 -0.7064
12455TIP3    H258781   5.869   3.297  14.157  1.2724  0.2948 -1.2244
12456TIP3   OH258782   1.792   2.180  13.998  0.3419  0.4471  0.1664
12456TIP3    H158783   1.712   2.128  13.989  1.2247 -0.7222 -1.3705
12456TIP3    H258784   1.821   2.195  13.908  3.4188 -1.7265  0.6491
12457TIP3   OH258785   2.681   0.235  17.287 -0.3885  0.3742 -0.2552
12457TIP3    H158786   2.669   0.167  17.354 -2.4966  1.2670  0.3672
12457TIP3    H258787   2.665   0.189  17.204  0.3936 -0.3499 -0.0168
12458TIP3   OH258788   2.175   5.693  16.904  0.0414  0.2569 -0.2111
12458TIP3    H158789   2.250   5.752  16.905  0.4653 -0.1687 -2.2110
12458TIP3    H258790   2.153   5.684  16.811 -2.5529  0.4304  0.2995
12459TIP3   OH258791   2.080   1.391  15.571 -0.1042 -0.7154  0.1268
12459TIP3    H158792   2.072   1.436  15.655  1.2552  1.0383 -0.6281
12459TIP3    H258793   2.127   1.310  15.593 -3.8673 -2.7618  1.7425
12460TIP3   OH258794   4.571   5.031  12.807  0.0728  1.1159 -0.3528
12460TIP3    H158795   4.539   4.952  12.851  1.8916  0.3709 -0.2872
12460TIP3    H258796   4.496   5.091  12.808 -0.2807  0.8427  3.0018
12461TIP3   OH258797   5.921   3.621   3.207  0.3204 -0.0177  0.0088
12461TIP3    H158798   5.832   3.606   3.176  0.6175  0.2281 -1.0327
12461TIP3    H258799   5.967   3.539   3.188  0.0213 -0.6370  1.7715
12462TIP3   OH258800   1.295   1.269  17.145 -0.1342 -0.2361  0.2657
12462TIP3    H158801   1.223   1.331  17.152 -0.5556 -0.5770 -0.8635
12462TIP3    H258802   1.255   1.184  17.166 -0.5558 -0.7188 -2.2143
12463TIP3   OH258803   4.224   2.369   4.538  0.8684  0.1100  0.7264
12463TIP3    H158804   4.228   2.276   4.562 -0.1778  0.2200  1.3823
12463TIP3    H258805   4.310   2.387   4.499  0.6529 -1.4321 -0.5733
12464TIP3   OH258806   4.418   2.108   2.646  0.7993 -0.0623  0.0579
12464TIP3    H158807   4.323   2.097   2.642  0.9063 -1.5141  0.7847
12464TIP3    H258808   4.445   2.122   2.555  0.0081 -0.8898 -0.3173
12465TIP3   OH258809   3.782   2.023  17.019 -0.0128 -0.2401 -0.2399
12465TIP3    H158810   3.791   2.090  17.086 -0.9450 -0.2878 -0.0442
12465TIP3    H258811   3.852   2.041  16.957 -0.5168  1.2104 -0.4345
12466TIP3   OH258812   2.994   6.493   1.429  0.1205  0.5124 -0.2288
12466TIP3    H158813   2.978   6.584   1.405 -2.0042  0.2362 -0.0575
12466TIP3    H258814   2.907   6.457   1.448  0.7553 -1.8498 -1.3522
12467TIP3   OH258815   6.553   4.615  15.852 -0.2004  0.1073  0.2733
12467TIP3    H158816   6.595   4.678  15.793 -2.1275  0.3176 -0.9420
12467TIP3    H258817   6.556   4.657  15.938  1.6472  0.2894  0.1516
12468TIP3   OH258818   5.357   6.571  16.715  0.1686  0.4111 -0.6188
12468TIP3    H158819   5.322   6.500  16.769 -0.7724  0.7009 -0.8232
12468TIP3    H258820   5.402   6.527  16.643 -0.1436  0.0195 -0.5771
12469TIP3   OH258821   4.080   5.768   1.162 -0.2241 -0.1429 -0.1427
12469TIP3    H158822   4.092   5.841   1.101 -0.9113  0.2223  0.1401
12469TIP3    H258823   4.064   5.811   1.246 -0.9556 -0.6089 -0.0339
12470TIP3   OH258824   2.664   6.046   1.919  0.9429  0.2864  0.1389
12470TIP3    H158825   2.592   6.100   1.890  0.1343 -0.6302  0.3881
12470TIP3    H258826   2.623   5.971   1.962  2.0089  1.5015  3.6620
12471TIP3   OH258827   0.625   6.023  14.892  0.6102 -0.0415  0.2338
12471TIP3    H158828   0.718   6.033  14.911  0.5471 -0.8079  0.9914
12471TIP3    H258829   0.616   6.049  14.800  1.6966 -0.6640 -0.0616
12472TIP3   OH258830   0.645   4.026  16.905 -0.2309 -1.0903 -0.2374
12472TIP3    H158831   0.653   4.012  16.811  2.2069 -0.0114 -0.2574
12472TIP3    H258832   0.561   4.071  16.915 -0.0591 -0.2756 -2.0228
12473TIP3   OH258833   2.176   0.252   0.988  0.8876 -0.2411  0.4894
12473TIP3    H158834   2.200   0.343   1.004 -0.0787  0.0538  0.3694
12473TIP3    H258835   2.176   0.243   0.892 -2.7616  0.7784  0.2486
12474TIP3   OH258836   6.014   0.996  12.977  0.7704 -0.6128  0.1847
12474TIP3    H158837   6.034   0.920  12.922  1.4364 -0.9446  0.8770
12474TIP3    H258838   5.967   1.055  12.918 -0.4025 -1.8461 -0.1816
12475TIP3   OH258839   1.571   0.484   3.398 -0.1457 -0.0012 -0.3555
12475TIP3    H158840   1.637   0.552   3.385  0.4371 -0.5558 -0.3850
12475TIP3    H258841   1.609   0.406   3.357 -0.0927 -0.7417  1.0503
12476TIP3   OH258842   4.485   1.805  12.995  0.4299  0.6380 -0.7535
12476TIP3    H158843   4.543   1.793  13.069 -0.0652 -1.8631 -0.7109
12476TIP3    H258844   4.523   1.752  12.925 -1.5338 -0.7312 -0.8450
12477TIP3   OH258845   5.696   4.456  15.779 -0.4031 -0.5030  0.4084
12477TIP3    H158846   5.665   4.520  15.715 -0.7337 -0.7757  0.2935
12477TIP3    H258847   5.774   4.497  15.817 -0.0935 -0.4109 -0.3000
12478TIP3   OH258848   0.021   5.059   2.931 -0.0597  0.3497  0.1738
12478TIP3    H158849   0.090   5.119   2.902  0.5087 -1.4031 -2.4830
12478TIP3    H258850   0.051   4.972   2.902 -1.2881 -1.1635  2.9989
12479TIP3   OH258851   3.298   6.598   0.893 -0.2503  0.0800 -0.1613
12479TIP3    H158852   3.215   6.639   0.918 -0.1272 -0.1629  0.6924
12479TIP3    H258853   3.309   6.526   0.956 -0.0938 -0.7992 -1.1571
12480TIP3   OH258854   0.443   1.501   4.985  0.8179  0.3214 -0.2716
12480TIP3    H158855   0.520   1.552   5.009  0.3693  0.2191  1.5411
12480TIP3    H258856   0.392   1.495   5.066 -0.6267 -0.4318 -1.1882
12481TIP3   OH258857   0.957   5.588  17.259 -0.0350  0.3604  0.3952
12481TIP3    H158858   1.026   5.624  17.203  0.2308  0.2225  0.6325
12481TIP3    H258859   0.980   5.618  17.347  0.1617 -0.3301  0.5898
12482TIP3   OH258860   1.845   4.238   5.955 -0.5297 -0.2097 -0.2515
12482TIP3    H158861   1.905   4.229   5.881 -0.5760  0.9968 -0.4545
12482TIP3    H258862   1.898   4.220   6.032  0.0670  0.6712 -0.4427
12483TIP3   OH258863   0.978   0.073  13.461  0.1173 -0.0872 -0.0570
12483TIP3    H158864   1.055   0.077  13.518  0.9081 -2.7242 -0.8111
12483TIP3    H258865   1.001   0.128  13.386 -0.2032  1.9448  1.2681
12484TIP3   OH258866   1.911   1.778   4.044  0.5278  0.0605 -0.4662
12484TIP3    H158867   2.002   1.750   4.046  0.0832 -1.5315 -1.1586
12484TIP3    H258868   1.861   1.698   4.034 -0.9241  0.9548 -0.7026
12485TIP3   OH258869   4.337   4.788   1.267 -0.5109  0.2832 -0.2140
12485TIP3    H158870   4.393   4.735   1.211 -0.7496  0.5686 -0.7312
12485TIP3    H258871   4.394   4.858   1.299 -0.0499 -0.6026  0.9308
12486TIP3   OH258872   0.210   6.088  10.787 -0.8298  0.0157 -0.0117
12486TIP3    H158873   0.234   6.156  10.849  0.5112 -0.5494  0.1235
12486TIP3    H258874   0.267   6.014  10.810  0.9278  0.3253 -2.9131
12487TIP3   OH258875   2.077   4.567  16.663  0.1486 -0.0641  0.3799
12487TIP3    H158876   2.014   4.632  16.632  0.0041 -0.6011 -0.5007
12487TIP3    H258877   2.023   4.494  16.694  0.3284 -0.5170 -0.3614
12488TIP3   OH258878   6.499   5.102  16.666  0.2401  0.8529  0.3490
12488TIP3    H158879   6.500   5.147  16.750 -0.9882  0.3026  0.6886
12488TIP3    H258880   6.406   5.095  16.643  0.3478 -1.5972  0.3969
12489TIP3   OH258881   4.321   3.018  10.908 -0.3929  0.1035  0.0917
12489TIP3    H158882   4.315   3.010  10.812  1.4941 -0.1270 -0.0469
12489TIP3    H258883   4.335   2.929  10.938 -1.0957  0.1635  0.6082
12490TIP3   OH258884   1.693   6.678   3.252 -0.0978  0.6452 -0.0256
12490TIP3    H158885   1.662   6.587   3.249 -1.2587  1.0138  0.1899
12490TIP3    H258886   1.669   6.714   3.166  1.5314  0.4072 -0.6178
12491TIP3   OH258887   3.653   0.154   0.541  0.1358 -0.0765  0.0162
12491TIP3    H158888   3.690   0.074   0.503 -0.2602 -0.3771  0.2483
12491TIP3    H258889   3.572   0.125   0.582  1.4588 -0.1736  2.8237
12492TIP3   OH258890   0.848   3.576   1.994  0.7883 -0.6116  0.3033
12492TIP3    H158891   0.856   3.527   1.912  0.5497 -1.2946  0.6803
12492TIP3    H258892   0.938   3.599   2.017  0.7900  0.4148 -0.6316
12493TIP3   OH258893   1.077   6.018  16.033  0.3591  0.3621 -0.4245
12493TIP3    H158894   1.047   6.091  16.087 -2.9216 -1.7143  0.8600
12493TIP3    H258895   1.105   5.951  16.096 -2.8974 -1.8542 -1.0837
12494TIP3   OH258896   2.328   5.526   3.504  0.5380  0.0625 -1.0394
12494TIP3    H158897   2.363   5.437   3.499 -0.9865 -0.6325  0.0389
12494TIP3    H258898   2.240   5.516   3.539  0.9080  2.1377  0.7043
12495TIP3   OH258899   0.890   4.012   5.040 -0.3719  0.0231 -0.0794
12495TIP3    H158900   0.954   3.960   5.089 -0.8295 -1.3600 -0.8902
12495TIP3    H258901   0.839   3.947   4.991 -1.5545  1.1849 -0.4491
12496TIP3   OH258902   5.201   1.792  11.775 -0.6081  0.0710 -0.0834
12496TIP3    H158903   5.147   1.748  11.842  1.8476  0.3640  2.2744
12496TIP3    H258904   5.138   1.843  11.724 -2.8954 -1.9359  0.5306
12497TIP3   OH258905   4.155   5.258   1.031 -0.1616 -0.1928  0.1078
12497TIP3    H158906   4.137   5.336   0.978  1.2843 -1.2295 -2.0470
12497TIP3    H258907   4.072   5.210   1.031 -0.7297  0.7486  0.4742
12498TIP3   OH258908   2.559   1.555  15.638 -0.3639  0.2830  0.2634
12498TIP3    H158909   2.474   1.532  15.676 -0.1261  0.7340  1.0956
12498TIP3    H258910   2.562   1.650  15.640  1.0909  0.2783  2.4730
12499TIP3   OH258911   4.162   4.761  13.086 -0.5243 -0.0178 -0.0969
12499TIP3    H158912   4.213   4.685  13.114 -1.2858  0.2791  2.2354
12499TIP3    H258913   4.221   4.807  13.026  1.3309 -0.5765  1.2054
12500TIP3   OH258914   2.977   0.140   1.616  0.2664 -0.0709 -0.5912
12500TIP3    H158915   2.893   0.182   1.633  1.1395  1.8190 -0.6684
12500TIP3    H258916   3.035   0.173   1.685  1.2043 -0.5697 -1.1146
12501TIP3   OH258917   2.859   6.755   5.147  0.2562  0.7840  0.2270
12501TIP3    H158918   2.910   6.741   5.227 -2.0720 -1.9245  1.4046
12501TIP3    H258919   2.768   6.739   5.172 -0.6021 -0.0917 -2.9162
12502TIP3   OH258920   0.328   3.758   1.289 -0.4693 -0.1404  0.3104
12502TIP3    H158921   0.323   3.678   1.341  0.2348 -0.4049 -0.0196
12502TIP3    H258922   0.283   3.736   1.207 -1.5274  0.2580  0.7746
12503TIP3   OH258923   1.345   0.298  16.781  0.2721  0.1767  0.4016
12503TIP3    H158924   1.290   0.285  16.704  1.0191 -0.3649 -0.0513
12503TIP3    H258925   1.312   0.235  16.845 -0.9900  1.2852  0.9135
12504TIP3   OH258926   4.802   5.170  17.037 -0.3702  0.6775  0.2453
12504TIP3    H158927   4.868   5.175  17.107 -1.4483 -0.7613  1.4492
12504TIP3    H258928   4.853   5.164  16.957  0.9442  0.9152  1.0278
12505TIP3   OH258929   6.294   1.351   2.345  0.1629  0.3301  0.3285
12505TIP3    H158930   6.313   1.260   2.324  1.1653  0.1878  1.7550
12505TIP3    H258931   6.311   1.398   2.263 -1.2475 -0.8433 -0.6886
12506TIP3   OH258932   4.001   6.128   0.757  0.2015 -0.3276  0.0912
12506TIP3    H158933   4.012   6.116   0.663 -1.1323 -0.4178 -0.0776
12506TIP3    H258934   4.067   6.193   0.781  2.8103 -2.6962 -0.2578
12507TIP3   OH258935   4.507   6.037  13.060  0.0852 -0.0045  0.3712
12507TIP3    H158936   4.571   6.106  13.043  0.3378 -0.4786 -0.7670
12507TIP3    H258937   4.557   5.956  13.053 -0.6964 -0.4050 -0.9924
12508TIP3   OH258938   1.022   2.431   0.079  0.4725 -0.3549 -0.3508
12508TIP3    H158939   0.952   2.388   0.032  0.0235 -0.3826  0.3302
12508TIP3    H258940   1.067   2.483   0.013  0.9010 -1.6930 -1.1365
12509TIP3   OH258941   0.912   2.687   4.312  0.2991  0.0485 -0.6137
12509TIP3    H158942   0.985   2.746   4.327 -0.8751  1.6719 -0.9644
12509TIP3    H258943   0.949   2.615   4.262  1.9220  0.1254  0.3931
12510TIP3   OH258944   1.733   5.079  14.972 -0.2929 -0.5632  0.1845
12510TIP3    H158945   1.800   5.063  14.905 -0.8949 -1.3490 -0.2443
12510TIP3    H258946   1.714   4.993  15.008 -1.8067 -0.5161 -0.4194
12511TIP3   OH258947   1.977   4.769  14.746  0.6675  1.1434 -0.6661
12511TIP3    H158948   2.057   4.718  14.729  1.0950  2.0579 -1.4781
12511TIP3    H258949   1.911   4.728  14.690  0.3602 -0.0482  0.5113
12512TIP3   OH258950   4.679   4.814   1.972  0.2124  0.6817 -0.1233
12512TIP3    H158951   4.686   4.811   2.067  1.0185 -2.3490 -0.1852
12512TIP3    H258952   4.764   4.849   1.943  0.4162  0.4823  0.2297
12513TIP3   OH258953   2.313   3.201  15.596 -0.2163  0.2923 -0.5837
12513TIP3    H158954   2.353   3.277  15.637  0.3648 -0.1532 -0.2966
12513TIP3    H258955   2.222   3.202  15.625  0.5852 -1.0534  2.3485
12514TIP3   OH258956   1.762   5.716  12.249 -0.2891 -0.4417  0.4702
12514TIP3    H158957   1.679   5.685  12.212  0.1337 -0.1829 -0.7466
12514TIP3    H258958   1.755   5.698  12.343 -1.0666 -1.9121  0.1589
12515TIP3   OH258959   5.322   0.326  17.212  0.2608  0.7644  0.2474
12515TIP3    H158960   5.362   0.398  17.164 -0.3594  1.7173  1.1324
12515TIP3    H258961   5.349   0.248  17.164 -0.0693  1.6510 -1.4493
12516TIP3   OH258962   3.564   3.237  14.306 -0.3209  0.4609 -0.5478
12516TIP3    H158963   3.597   3.322  14.335  0.1698  0.4230 -0.9583
12516TIP3    H258964   3.518   3.202  14.381 -1.1961  1.4217 -0.6120
12517TIP3   OH258965   0.415   4.774   3.801 -0.1579 -0.6663 -0.3345
12517TIP3    H158966   0.450   4.687   3.821  2.2695  0.3448  0.2843
12517TIP3    H258967   0.492   4.832   3.806 -1.4067  1.3047 -2.1500
12518TIP3   OH258968   3.502   4.895   1.495  0.2177 -0.3140  0.1458
12518TIP3    H158969   3.437   4.964   1.507  1.2802  0.8218 -0.3217
12518TIP3    H258970   3.493   4.839   1.572 -0.7183  0.3166  0.5073
12519TIP3   OH258971   2.166   6.005  17.140  0.1055 -0.3505  0.1344
12519TIP3    H158972   2.244   6.026  17.087  0.5353 -0.7532  0.6027
12519TIP3    H258973   2.097   6.059  17.102  0.5557 -0.1683 -0.4460
12520TIP3   OH258974   5.324   3.740   2.640 -0.3984 -0.0826  0.0347
12520TIP3    H158975   5.245   3.726   2.588 -1.0786 -2.5967  1.5804
12520TIP3    H258976   5.350   3.652   2.668  1.7466  0.8826  1.3251
12521TIP3   OH258977   0.494   4.306  15.206 -0.3842 -0.4561 -0.2822
12521TIP3    H158978   0.582   4.269  15.210  0.0557  0.5781 -0.2058
12521TIP3    H258979   0.507   4.400  15.203 -1.5160 -0.2148  1.0451
12522TIP3   OH258980   5.244   5.515   3.249  0.5414  0.6250 -0.0207
12522TIP3    H158981   5.207   5.427   3.248  0.4594  0.6580  0.0352
12522TIP3    H258982   5.213   5.555   3.167 -1.1736  1.3056  0.9016
12523TIP3   OH258983   4.415   3.367  15.665  0.4690  0.0463  0.1419
12523TIP3    H158984   4.497   3.320  15.653  0.6865  0.7405 -1.3181
12523TIP3    H258985   4.409   3.382  15.759  1.4622 -0.9728  0.3845
12524TIP3   OH258986   4.291   1.271   1.198 -0.3628  0.1300  0.1639
12524TIP3    H158987   4.273   1.340   1.262 -1.1322  0.8696 -0.8050
12524TIP3    H258988   4.235   1.198   1.223  0.7897 -0.3435  1.4698
12525TIP3   OH258989   3.574   1.776  16.417 -0.2095 -0.1086  0.4354
12525TIP3    H158990   3.530   1.814  16.493 -0.7846  0.7969 -0.3239
12525TIP3    H258991   3.550   1.833  16.344  0.5668 -0.7867 -0.3810
12526TIP3   OH258992   0.173   6.022  12.152  0.2179  1.0987  0.1234
12526TIP3    H158993   0.161   6.035  12.058 -1.6238 -0.4739  0.0777
12526TIP3    H258994   0.258   6.061  12.171  1.7349 -0.5901 -2.6292
12527TIP3   OH258995   3.173   0.990   2.769 -0.8133  0.0245 -0.6574
12527TIP3    H158996   3.108   1.025   2.831 -1.7501 -1.3476 -0.8194
12527TIP3    H258997   3.257   0.999   2.815 -1.5135 -1.1884  0.9761
12528TIP3   OH258998   3.631   2.135  15.895 -0.7253  0.4445 -0.1462
12528TIP3    H158999   3.677   2.203  15.846  0.5527 -0.1843  0.1435
12528TIP3    H259000   3.576   2.091  15.830  0.5015  0.0072 -0.9211
12529TIP3   OH259001   1.777   0.806   4.473 -0.1195  0.4349  0.2847
12529TIP3    H159002   1.805   0.714   4.482  0.9182  0.6645 -0.3858
12529TIP3    H259003   1.814   0.850   4.549  1.6420  0.7785 -0.7032
12530TIP3   OH259004   3.131   2.718  15.045 -0.5807 -0.1657  0.0134
12530TIP3    H159005   3.039   2.698  15.064 -0.5830  0.8135  1.1705
12530TIP3    H259006   3.128   2.775  14.968 -1.0960  1.3808  1.1522
12531TIP3   OH259007   6.760   1.525  13.140  0.2483 -0.1328  0.5957
12531TIP3    H159008   6.754   1.603  13.196 -0.0076  0.1167  0.2250
12531TIP3    H259009   6.813   1.463  13.191 -1.3517 -0.5460  1.8178
12532TIP3   OH259010   2.557   0.099   2.317 -0.3974  0.6711 -0.2553
12532TIP3    H159011   2.607   0.159   2.262  0.1803  0.5014  0.0721
12532TIP3    H259012   2.549   0.019   2.265 -0.4054  0.7284 -0.3419
12533TIP3   OH259013   6.681   5.061  16.355 -0.5846  0.2524 -0.2339
12533TIP3    H159014   6.661   4.968  16.346 -0.6914  0.3788 -1.5851
12533TIP3    H259015   6.764   5.072  16.309 -0.2915  0.7297  0.4043
12534TIP3   OH259016   2.293   5.934  17.380  0.2827  0.7031 -0.3098
12534TIP3    H159017   2.370   5.881  17.360  0.0142  0.1521  0.0925
12534TIP3    H259018   2.258   5.960  17.295 -0.4684 -1.0435 -0.5689
12535TIP3   OH259019   3.662   2.172   6.492  0.4144 -0.2377 -0.1856
12535TIP3    H159020   3.575   2.133   6.492 -0.2306  1.1099 -0.8871
12535TIP3    H259021   3.672   2.211   6.579  0.4035 -0.5664 -0.0366
12536TIP3   OH259022   1.942   3.712   1.606 -0.3351 -0.4716 -0.0603
12536TIP3    H159023   2.037   3.703   1.597 -0.3839  0.5707 -2.0570
12536TIP3    H259024   1.914   3.628   1.642  1.5109 -0.1135  2.4933
12537TIP3   OH259025   0.685   2.539   0.725 -0.3971 -0.0907 -0.7241
12537TIP3    H159026   0.596   2.553   0.755 -0.4777  2.2726 -1.8731
12537TIP3    H259027   0.675   2.511   0.634  0.0254  1.3959 -1.2494
12538TIP3   OH259028   0.799   2.738   2.729  1.0000 -0.2691  0.7432
12538TIP3    H159029   0.878   2.756   2.679  1.9013 -0.8876  1.8813
12538TIP3    H259030   0.824   2.668   2.790 -0.8092 -1.4640  0.2045
12539TIP3   OH259031   6.295   0.893   6.617  0.0066  0.5519  0.0066
12539TIP3    H159032   6.233   0.963   6.640 -0.1403 -0.1136  1.8143
12539TIP3    H259033   6.265   0.818   6.668  1.0018 -0.4163 -0.8127
12540TIP3   OH259034   6.043   3.199   4.499 -0.2814 -0.4697  0.1278
12540TIP3    H159035   6.137   3.201   4.478 -0.8392  1.2735 -2.6982
12540TIP3    H259036   6.005   3.142   4.433 -1.3400 -0.4547  0.7069
12541TIP3   OH259037   4.799   4.934   1.075  0.3007  0.6656  0.2479
12541TIP3    H159038   4.835   4.852   1.108 -0.5861  0.9961  2.1771
12541TIP3    H259039   4.862   5.000   1.102 -0.0963  0.8621  0.7159
12542TIP3   OH259040   3.574   4.367   4.968 -0.3733  0.3044 -0.2172
12542TIP3    H159041   3.515   4.386   4.895  0.6446  3.4691 -0.3810
12542TIP3    H259042   3.522   4.386   5.046 -0.4276  0.2992 -0.2520
12543TIP3   OH259043   0.041   1.617  10.923 -0.0772  0.4518  0.8310
12543TIP3    H159044  -0.006   1.657  10.849  0.3513 -2.0295 -0.9201
12543TIP3    H259045   0.128   1.657  10.921 -0.3565  1.0529  0.5588
12544TIP3   OH259046   1.054   2.450  16.236  0.3239  0.1436  0.0074
12544TIP3    H159047   1.080   2.540  16.258 -0.2609  0.2785  0.1654
12544TIP3    H259048   1.052   2.449  16.140 -1.8115  0.9563 -0.0047
12545TIP3   OH259049   5.961   1.959   2.487  0.4311 -0.2661 -0.4051
12545TIP3    H159050   5.977   1.976   2.580  1.6925  1.6323 -0.9108
12545TIP3    H259051   6.032   1.900   2.462  0.0162 -0.8838 -0.1545
12546TIP3   OH259052   1.195   4.750   3.976  0.0813  0.4169  0.6582
12546TIP3    H159053   1.105   4.718   3.973  0.1884  0.1164  0.6094
12546TIP3    H259054   1.186   4.845   3.985 -0.2401  0.3429  1.1794
12547TIP3   OH259055   4.932   6.456  16.027 -0.8852 -0.1262 -0.1639
12547TIP3    H159056   4.950   6.512  15.952 -0.9630 -1.3036 -1.0717
12547TIP3    H259057   4.915   6.518  16.099 -0.4922  1.0041 -1.0178
12548TIP3   OH259058   2.124   5.684   1.870 -0.7078  0.4881 -0.6613
12548TIP3    H159059   2.143   5.645   1.955  0.8722  2.5241 -0.0188
12548TIP3    H259060   2.179   5.635   1.808 -1.5411 -0.7093 -0.4907
12549TIP3   OH259061   3.204   4.217   0.546  0.0280  0.3780  0.7851
12549TIP3    H159062   3.179   4.199   0.637 -0.4489 -1.3084  0.3532
12549TIP3    H259063   3.125   4.199   0.496 -0.3116  3.1748  0.1669
12550TIP3   OH259064   2.829   4.544  15.521 -0.1933  0.2597 -0.2197
12550TIP3    H159065   2.858   4.593  15.598  0.1078 -0.1552 -0.0653
12550TIP3    H259066   2.735   4.561  15.516  0.1169  1.9794 -0.9806
12551TIP3   OH259067   1.572   5.356  12.047 -0.5359  0.4700 -0.1797
12551TIP3    H159068   1.478   5.373  12.039 -0.0748  2.4268 -2.9245
12551TIP3    H259069   1.580   5.261  12.048 -2.5901  0.1997  2.3986
12552TIP3   OH259070   5.670   5.161  11.746  0.2696  0.4230  0.7042
12552TIP3    H159071   5.599   5.188  11.805  0.3044  0.2625  0.8217
12552TIP3    H259072   5.712   5.243  11.720 -0.7654  0.6202 -0.3920
12553TIP3   OH259073   0.940   6.481  12.314 -0.0827  0.9086 -0.4560
12553TIP3    H159074   0.881   6.409  12.294 -0.3231 -0.0668  3.1004
12553TIP3    H259075   1.025   6.453  12.280 -1.1363  1.5538 -4.0543
12554TIP3   OH259076   3.661   2.629   2.494  0.7187 -0.0218 -0.1068
12554TIP3    H159077   3.721   2.683   2.443  0.4393  0.2402 -0.1627
12554TIP3    H259078   3.575   2.670   2.481  0.7309  0.4263  1.0723
12555TIP3   OH259079   5.695   4.596  12.468  0.0432  0.3429  0.0929
12555TIP3    H159080   5.679   4.678  12.515 -0.5365 -0.1550  0.7885
12555TIP3    H259081   5.740   4.540  12.531  0.2468  0.0460 -0.3101
12556TIP3   OH259082   2.818   6.744   3.634 -0.0090 -0.4263 -0.4295
12556TIP3    H159083   2.737   6.772   3.591  0.5892 -0.7296 -1.8003
12556TIP3    H259084   2.844   6.819   3.688 -0.5650  0.1309 -0.9166
12557TIP3   OH259085   5.112   0.607  13.823 -0.1500  0.4811 -0.0165
12557TIP3    H159086   5.121   0.701  13.840  1.1603  0.5026 -0.6936
12557TIP3    H259087   5.058   0.574  13.895 -0.4906  1.7151  0.3201
12558TIP3   OH259088   4.345   3.287   1.337 -0.6062  0.3827  0.4539
12558TIP3    H159089   4.357   3.368   1.387  0.4514 -0.8907  2.3729
12558TIP3    H259090   4.252   3.265   1.348 -1.2533  2.0012 -1.2509
12559TIP3   OH259091   6.739   3.869   3.690  1.0121  0.0205  0.3938
12559TIP3    H159092   6.799   3.892   3.760  1.1031  0.5310  0.1546
12559TIP3    H259093   6.736   3.947   3.634 -1.3358  0.7413  1.4138
12560TIP3   OH259094   6.011   5.750   1.568 -0.2773  0.0690 -0.8909
12560TIP3    H159095   5.958   5.771   1.491  1.2305 -0.6314 -2.2001
12560TIP3    H259096   5.949   5.713   1.631 -1.6592  1.2400 -1.5073
12561TIP3   OH259097   3.164   1.068  15.948 -0.2481  0.2054 -0.0488
12561TIP3    H159098   3.134   1.090  16.036 -0.2934  0.4527 -0.1239
12561TIP3    H259099   3.258   1.082  15.950 -0.4312  1.6195 -0.4368
12562TIP3   OH259100   3.828   3.962  14.228  0.4363  0.6037  0.0867
12562TIP3    H159101   3.778   4.006  14.296 -2.1018 -3.2209  1.0135
12562TIP3    H259102   3.776   3.972  14.149 -0.2966 -0.7989  0.3613
12563TIP3   OH259103   2.300   5.303   6.467  0.7666 -0.4313 -0.2043
12563TIP3    H159104   2.274   5.292   6.376  1.1218 -0.9997 -0.2429
12563TIP3    H259105   2.222   5.335   6.511  0.7071  0.2473 -0.7843
12564TIP3   OH259106   3.621   1.815  15.152  0.1506 -0.6654 -0.2910
12564TIP3    H159107   3.681   1.802  15.226  0.8417  0.8014 -0.5620
12564TIP3    H259108   3.573   1.732  15.145  0.0297 -0.8209  1.8261
12565TIP3   OH259109   3.308   5.811  11.855 -0.0566 -0.7683 -0.1902
12565TIP3    H159110   3.388   5.796  11.805 -0.5758 -1.2896 -0.8805
12565TIP3    H259111   3.257   5.730  11.844 -0.0072 -1.0707  1.5324
12566TIP3   OH259112   2.540   0.496   5.871  0.1997 -0.3760 -0.2390
12566TIP3    H159113   2.488   0.512   5.792  0.6149 -1.3667 -0.7261
12566TIP3    H259114   2.618   0.551   5.860 -0.7208  1.1709  0.5269
12567TIP3   OH259115   5.591   5.863  12.817 -0.5814 -0.2099 -0.5768
12567TIP3    H159116   5.513   5.813  12.839 -0.3496  0.0322  0.8993
12567TIP3    H259117   5.652   5.798  12.781 -0.9596 -0.6391 -0.4441
12568TIP3   OH259118   5.034   5.803  12.091 -0.0552 -0.1708 -0.4427
12568TIP3    H159119   5.034   5.891  12.052  2.2813 -0.8063 -2.0671
12568TIP3    H259120   5.013   5.745  12.018 -1.1452 -1.0345  0.5233
12569TIP3   OH259121   1.703   5.960  12.116  0.2706  0.4128 -0.0486
12569TIP3    H159122   1.691   5.928  12.026  1.0556  0.1602 -0.0692
12569TIP3    H259123   1.776   5.908  12.150  0.5164  1.0880  0.4594
12570TIP3   OH259124   1.835   6.030  13.960 -0.2958  1.1626  0.0308
12570TIP3    H159125   1.785   5.973  13.902 -0.8827  0.7589  0.8954
12570TIP3    H259126   1.871   6.098  13.903  0.3513 -0.0259 -1.0071
12571TIP3   OH259127   2.548   0.101   0.664  0.2156  0.1244 -0.1832
12571TIP3    H159128   2.583   0.189   0.670 -0.2379  0.2455  1.1090
12571TIP3    H259129   2.574   0.059   0.746  1.5443 -1.3925 -1.3251
12572TIP3   OH259130   2.736   0.452  12.829  0.7240 -0.3837  0.6114
12572TIP3    H159131   2.800   0.380  12.822  1.4312  0.3193 -0.5838
12572TIP3    H259132   2.758   0.509  12.756  0.4649  1.3019  1.8125
12573TIP3   OH259133   5.051   0.216   3.153  0.5105 -0.3995  0.7176
12573TIP3    H159134   5.127   0.274   3.159  1.5995 -1.8989  1.9429
12573TIP3    H259135   4.986   0.268   3.105  1.6807  1.5586  1.1342
12574TIP3   OH259136   3.023   3.164   2.900 -0.1979  0.4971 -0.1461
12574TIP3    H159137   3.047   3.088   2.848 -0.4678  0.3271 -0.0240
12574TIP3    H259138   3.106   3.208   2.918 -0.0292  0.1738 -0.1303
12575TIP3   OH259139   5.922   2.658   3.305 -0.2847  0.3132  0.1242
12575TIP3    H159140   6.012   2.692   3.299 -0.0015  0.0544  2.3681
12575TIP3    H259141   5.930   2.574   3.349 -1.4904 -0.5627 -1.2224
12576TIP3   OH259142   2.754   2.088   0.688 -0.0967  0.4475 -0.7731
12576TIP3    H159143   2.682   2.148   0.669 -1.5260 -0.5339  1.1198
12576TIP3    H259144   2.735   2.056   0.777  1.1929 -1.9311 -1.2700
12577TIP3   OH259145   4.747   0.428   1.935  0.2973 -0.9237  0.2795
12577TIP3    H159146   4.751   0.348   1.987  0.3383 -0.6229  0.7496
12577TIP3    H259147   4.836   0.464   1.938  0.3141 -0.9394 -0.0490
12578TIP3   OH259148   4.582   1.842  12.639 -0.0141 -0.5083  0.3320
12578TIP3    H159149   4.494   1.827  12.605 -0.3425  0.5909  0.6591
12578TIP3    H259150   4.609   1.757  12.674 -0.2666 -1.2924 -1.2643
12579TIP3   OH259151   0.299   5.431  11.209  0.0179  0.6136  0.7661
12579TIP3    H159152   0.221   5.486  11.215 -0.0021  0.7338 -0.3331
12579TIP3    H259153   0.319   5.429  11.115  0.0359 -1.2312  0.7830
12580TIP3   OH259154   0.632   3.318   4.337 -0.1006 -0.9219 -0.0066
12580TIP3    H159155   0.629   3.358   4.250 -0.0415 -2.1822 -0.6215
12580TIP3    H259156   0.657   3.227   4.320  0.2880 -1.0913  1.3749
12581TIP3   OH259157   3.301   3.847  16.737 -0.0418  0.2103 -0.0681
12581TIP3    H159158   3.353   3.919  16.773 -1.0241  0.1843  1.5011
12581TIP3    H259159   3.276   3.877  16.650  0.1859  1.4625  0.2775
12582TIP3   OH259160   5.547   0.369   0.749 -0.1694  0.1375 -0.3493
12582TIP3    H159161   5.466   0.409   0.718 -0.7141 -0.7266 -0.0715
12582TIP3    H259162   5.590   0.337   0.670 -1.0437 -1.1145 -0.3536
12583TIP3   OH259163   0.677   5.709  16.442  0.2587 -0.4466 -0.6259
12583TIP3    H159164   0.610   5.697  16.509 -1.1639  0.4710 -1.8173
12583TIP3    H259165   0.640   5.666  16.364 -0.0699  1.9923 -1.9414
12584TIP3   OH259166   3.980   5.207  15.642 -0.0574 -0.0698 -0.7875
12584TIP3    H159167   3.985   5.246  15.729  0.1122  0.8966 -1.2106
12584TIP3    H259168   3.910   5.255  15.598  0.0741 -0.3281 -1.2872
12585TIP3   OH259169   0.885   3.244   4.516 -0.5123  0.4988 -0.1255
12585TIP3    H159170   0.954   3.305   4.541 -1.9136  2.6625 -1.2576
12585TIP3    H259171   0.890   3.174   4.581  1.4102  1.6180  1.0120
12586TIP3   OH259172   3.904   2.442   1.214  0.5318  0.5564  0.3071
12586TIP3    H159173   3.944   2.383   1.149 -1.5970 -0.0074 -0.5969
12586TIP3    H259174   3.913   2.395   1.297  0.7184 -0.0901 -0.0686
12587TIP3   OH259175   0.417   0.561  14.633 -0.9420  0.0165 -0.8695
12587TIP3    H159176   0.402   0.547  14.726 -0.2021 -1.7300 -0.9802
12587TIP3    H259177   0.345   0.514  14.590 -0.7190 -0.0302 -1.1911
12588TIP3   OH259178   4.445   0.044   1.095  0.1372 -0.4518 -0.2507
12588TIP3    H159179   4.447  -0.052   1.093  0.5112 -0.4596 -2.8524
12588TIP3    H259180   4.518   0.068   1.153 -1.2568 -1.6710  2.1839
12589TIP3   OH259181   4.751   3.472   2.812  0.3381  0.7944 -0.3442
12589TIP3    H159182   4.708   3.432   2.737 -0.8085 -0.5059  0.9485
12589TIP3    H259183   4.844   3.452   2.801  0.2401  1.0069 -1.6215
12590TIP3   OH259184   4.393   2.533  15.757 -0.0935 -0.2886 -0.6813
12590TIP3    H159185   4.429   2.566  15.840 -1.2756  3.4643 -1.4554
12590TIP3    H259186   4.332   2.465  15.782  0.5876 -0.1986  1.4067
12591TIP3   OH259187   1.944   3.956   3.897  0.0429  0.0454 -0.1958
12591TIP3    H159188   1.924   3.922   3.809 -0.2405  0.7530 -0.4145
12591TIP3    H259189   1.956   3.878   3.951  0.1479 -0.3998 -0.8492
12592TIP3   OH259190   4.027   3.016  17.275 -0.5016  0.0475 -0.2307
12592TIP3    H159191   4.021   2.959  17.351 -0.2974  0.0372 -0.2210
12592TIP3    H259192   3.955   2.988  17.218 -0.8927  0.3149  0.1299
12593TIP3   OH259193   6.005   5.480   6.159  0.3134 -0.2843  0.2016
12593TIP3    H159194   6.055   5.399   6.150  0.7154 -0.0065 -0.1394
12593TIP3    H259195   6.070   5.546   6.184  0.1955  0.1622 -0.6344
12594TIP3   OH259196   5.960   6.323  14.586 -0.4167 -0.3880  0.7668
12594TIP3    H159197   5.980   6.401  14.637  2.8795 -0.9187  0.5238
12594TIP3    H259198   5.930   6.357  14.501 -1.3866  0.5197  1.4407
12595TIP3   OH259199   1.067   3.229  12.187  0.6109  0.2945  0.2003
12595TIP3    H159200   1.025   3.294  12.243  1.9547  2.4182 -1.1124
12595TIP3    H259201   1.160   3.238  12.206  0.7969 -1.6109  0.3070
12596TIP3   OH259202   0.127   5.371  12.951  0.1465 -0.2888 -0.0033
12596TIP3    H159203   0.119   5.398  13.043 -0.4822  0.9547 -0.3998
12596TIP3    H259204   0.060   5.422  12.905  1.4172  0.2245 -1.3781
12597TIP3   OH259205   0.749   4.052   2.508 -0.1580  0.1170 -0.0084
12597TIP3    H159206   0.810   4.010   2.569  0.0308 -1.1829 -1.0535
12597TIP3    H259207   0.804   4.087   2.438 -0.5610 -0.6099 -0.6952
12598TIP3   OH259208   4.811   2.966  11.553 -0.4085  0.0116 -0.1706
12598TIP3    H159209   4.880   2.901  11.545 -1.4312 -1.3313  1.4175
12598TIP3    H259210   4.730   2.916  11.546 -1.2360  1.3521 -0.5407
12599TIP3   OH259211   3.895   0.695   0.430  0.4313  0.4673 -0.2007
12599TIP3    H159212   3.894   0.767   0.368  2.6043  0.1215 -0.7375
12599TIP3    H259213   3.952   0.725   0.501 -1.9630  0.8399  1.7056
12600TIP3   OH259214   5.353   5.966  12.515  0.1731  0.0717  0.0693
12600TIP3    H159215   5.324   5.949  12.604  1.3442  0.8697  0.6348
12600TIP3    H259216   5.277   5.947  12.460 -1.0770  1.1217  1.3715
12601TIP3   OH259217   1.288   4.968  16.816 -0.0703  0.3717  0.7785
12601TIP3    H159218   1.311   4.978  16.908  0.1680 -0.4670  0.8221
12601TIP3    H259219   1.253   4.879  16.809  0.8921  0.0414 -0.1330
12602TIP3   OH259220   2.597   1.665   2.429 -0.0371 -0.0455 -0.4340
12602TIP3    H159221   2.641   1.596   2.380 -1.5052 -1.8716  0.6733
12602TIP3    H259222   2.614   1.642   2.521 -2.0267  0.0081 -0.0203
12603TIP3   OH259223   6.739   5.572  12.794 -0.9716  0.4458  0.1227
12603TIP3    H159224   6.686   5.574  12.873  0.5281  0.1258  1.1767
12603TIP3    H259225   6.764   5.664  12.779  1.1012  0.2040  1.7214
12604TIP3   OH259226   2.969   6.715   3.109  0.6452  0.5261 -0.2549
12604TIP3    H159227   2.999   6.798   3.073  1.0300  0.6513  0.3382
12604TIP3    H259228   2.902   6.685   3.048  1.8590  0.3129 -1.5363
12605TIP3   OH259229   1.649   1.011  11.245  0.5532  0.3841  0.2162
12605TIP3    H159230   1.683   1.014  11.156  1.2699 -0.3538  0.4511
12605TIP3    H259231   1.627   1.102  11.265  0.3977  0.5589 -0.7027
12606TIP3   OH259232   4.883   6.699  16.583  0.3435 -0.0145 -0.4370
12606TIP3    H159233   4.794   6.724  16.559 -0.0218 -0.9247 -0.0660
12606TIP3    H259234   4.908   6.633  16.518  0.1285 -0.9563  0.4165
12607TIP3   OH259235   6.357   0.904   3.362  0.1116  0.1968  0.5717
12607TIP3    H159236   6.311   0.878   3.442  1.1031 -1.2207  0.7334
12607TIP3    H259237   6.430   0.842   3.356  2.1925  2.5155  0.5030
12608TIP3   OH259238   0.481   6.126  14.066  0.2056  0.0587 -0.1444
12608TIP3    H159239   0.519   6.145  14.152  1.2722 -0.1208 -0.5686
12608TIP3    H259240   0.493   6.032  14.054 -2.1114 -0.3838  0.5258
12609TIP3   OH259241   2.789   3.849  12.467 -0.3490 -0.7592 -0.5819
12609TIP3    H159242   2.789   3.921  12.531  0.8684 -0.6779 -0.6643
12609TIP3    H259243   2.697   3.823  12.462 -0.7073  0.3151 -0.0122
12610TIP3   OH259244   1.335   4.271  16.836  0.1797 -0.4429 -0.7666
12610TIP3    H159245   1.410   4.222  16.867  0.4824  0.7662  0.5287
12610TIP3    H259246   1.297   4.310  16.915  0.8129  2.5547 -1.8044
12611TIP3   OH259247   4.238   0.522   0.495 -0.1500 -0.0559  0.2800
12611TIP3    H159248   4.281   0.582   0.434 -1.2264  0.0815 -0.3567
12611TIP3    H259249   4.203   0.579   0.563  2.0141 -0.2907  1.6910
12612TIP3   OH259250   2.559   4.832   3.278 -0.9525  0.2103  0.2400
12612TIP3    H159251   2.477   4.861   3.318 -0.7920 -1.6516  2.0921
12612TIP3    H259252   2.532   4.796   3.194 -1.7838  1.1759  0.0652
12613TIP3   OH259253   6.245   0.429  15.937 -0.3624  0.6135  0.6465
12613TIP3    H159254   6.274   0.339  15.920 -2.1671  0.2567 -0.8832
12613TIP3    H259255   6.184   0.421  16.010 -0.0081  0.7132  0.9581
12614TIP3   OH259256   3.329   2.781   5.369 -0.5011  0.0626 -0.2345
12614TIP3    H159257   3.351   2.691   5.345  1.2696  0.2550  0.5014
12614TIP3    H259258   3.354   2.787   5.461 -2.0746  0.8847  0.1797
12615TIP3   OH259259   4.347   0.746  15.616 -0.2823  0.1214  0.0116
12615TIP3    H159260   4.267   0.693  15.608  0.0529 -0.2347 -1.2106
12615TIP3    H259261   4.397   0.703  15.685 -2.1696  1.7474  2.5435
12616TIP3   OH259262   6.286   0.846   3.610 -0.3996 -0.0859 -0.4017
12616TIP3    H159263   6.208   0.840   3.666 -1.1396  2.9575 -0.9319
12616TIP3    H259264   6.357   0.869   3.670 -0.3125 -0.8731 -0.1922
12617TIP3   OH259265   6.214   0.625   1.020 -0.3028 -0.0868 -0.0705
12617TIP3    H159266   6.172   0.545   0.988 -0.6335 -0.1050  0.3978
12617TIP3    H259267   6.209   0.618   1.116  0.0821  0.2752 -0.0218
12618TIP3   OH259268   3.050   6.218  11.271  0.2323 -0.1820 -0.0127
12618TIP3    H159269   3.013   6.252  11.189  2.4452  1.0386 -0.5959
12618TIP3    H259270   3.031   6.125  11.269  0.2968 -0.1963 -1.9690
12619TIP3   OH259271   5.444   1.065  13.462 -0.1426 -0.3104 -0.0177
12619TIP3    H159272   5.515   1.009  13.494  1.7958  1.1491 -1.4526
12619TIP3    H259273   5.481   1.154  13.464 -2.5496  0.7504  0.7020
12620TIP3   OH259274   2.261   2.026  12.026 -0.5515  0.0444 -0.3200
12620TIP3    H159275   2.301   1.960  11.969 -1.4071 -1.0297  0.2686
12620TIP3    H259276   2.192   2.066  11.973 -0.7424 -0.3079 -0.3401
12621TIP3   OH259277   6.264   5.794   4.586  0.0801  0.1338 -0.3639
12621TIP3    H159278   6.206   5.866   4.559  0.8090  0.3425 -1.4652
12621TIP3    H259279   6.209   5.738   4.641 -0.8291  0.9292 -0.4239
12622TIP3   OH259280   4.961   1.506  10.931  0.1624 -0.2559  0.5906
12622TIP3    H159281   4.892   1.449  10.899 -0.3088 -0.2925  1.6371
12622TIP3    H259282   4.980   1.564  10.857 -1.1610 -0.0717  0.3712
12623TIP3   OH259283   4.388   3.245   6.368  0.1936 -0.8483 -0.2417
12623TIP3    H159284   4.305   3.259   6.324 -0.3870 -0.5634  0.9144
12623TIP3    H259285   4.397   3.150   6.372 -1.3348 -0.9766  1.8440
12624TIP3   OH259286   5.002   0.761   2.064  0.5468  0.0992  0.1894
12624TIP3    H159287   4.909   0.768   2.040  0.8656  0.3056 -1.0648
12624TIP3    H259288   5.004   0.694   2.132 -0.3596 -0.9991 -0.8093
12625TIP3   OH259289   1.657   3.511   1.104 -0.1254  0.1949 -0.2655
12625TIP3    H159290   1.691   3.422   1.097 -0.7978 -0.1242  0.3831
12625TIP3    H259291   1.688   3.542   1.189  0.6779  0.8391 -0.7785
12626TIP3   OH259292   6.080   5.642  16.739 -0.3459  0.4001 -0.0524
12626TIP3    H159293   6.017   5.606  16.801 -1.1946  2.9023  0.6396
12626TIP3    H259294   6.035   5.639  16.654  0.0443 -1.1354 -0.2429
12627TIP3   OH259295   3.905   1.982  13.911 -0.4553 -0.4683  0.1746
12627TIP3    H159296   3.852   1.960  13.834 -0.9678 -0.0938  0.4221
12627TIP3    H259297   3.931   2.073  13.897 -0.6977 -0.3433  0.5303
12628TIP3   OH259298   1.500   0.983   3.813 -0.4286 -0.3020 -0.2656
12628TIP3    H159299   1.517   1.025   3.897 -1.3249 -0.8404  0.1944
12628TIP3    H259300   1.407   0.994   3.798 -0.1289  0.6071 -1.6580
12629TIP3   OH259301   2.145   6.268  13.995  0.0860  0.3689 -0.4502
12629TIP3    H159302   2.068   6.255  13.940 -0.5386 -1.2294  0.7084
12629TIP3    H259303   2.136   6.201  14.064  2.6168 -0.0009 -0.4041
12630TIP3   OH259304   1.706   2.741   0.318 -0.0745  0.0785 -0.1411
12630TIP3    H159305   1.653   2.810   0.277 -0.9512 -0.9578 -0.8169
12630TIP3    H259306   1.778   2.727   0.257 -0.5770 -0.4373 -0.6401
12631TIP3   OH259307   5.472   4.577  15.159 -0.3281  0.5395  0.4094
12631TIP3    H159308   5.478   4.565  15.064 -0.6831 -1.1751  0.5746
12631TIP3    H259309   5.400   4.639  15.170 -1.3478 -0.4460 -0.4113
12632TIP3   OH259310   2.877   4.268  14.072 -0.4495  0.4851  0.1775
12632TIP3    H159311   2.788   4.236  14.087  0.1475 -1.1709  0.4119
12632TIP3    H259312   2.889   4.262  13.977 -0.1926 -0.4824  0.2573
12633TIP3   OH259313   2.335   0.941   6.784  0.1882 -0.6962  0.9178
12633TIP3    H159314   2.374   0.998   6.850  0.1196  0.1187  0.2657
12633TIP3    H259315   2.408   0.890   6.751  0.7005  0.6721 -0.1426
12634TIP3   OH259316   2.951   2.550   0.939 -0.6761  0.3550 -1.0996
12634TIP3    H159317   2.928   2.505   0.858  1.2725 -1.5545 -0.6739
12634TIP3    H259318   3.040   2.521   0.958 -1.6398 -0.7157  2.6360
12635TIP3   OH259319   6.342   4.346  14.920  0.0043 -0.5544 -0.2617
12635TIP3    H159320   6.355   4.270  14.976 -1.0114 -1.4885 -1.2370
12635TIP3    H259321   6.404   4.334  14.848  1.3755  0.6895  0.6504
12636TIP3   OH259322   1.820   3.800  11.632  0.2762 -0.1771  0.1729
12636TIP3    H159323   1.800   3.874  11.574  1.9988  0.1356 -0.0722
12636TIP3    H259324   1.874   3.741  11.579  1.0356 -0.3692  1.1255
12637TIP3   OH259325   1.741   0.242  17.184  0.1599  0.3721  0.8234
12637TIP3    H159326   1.686   0.173  17.146  0.3080  0.4879  0.3823
12637TIP3    H259327   1.830   0.216  17.161  0.4031 -0.4545  2.5852
12638TIP3   OH259328   4.487   0.089   2.954 -0.4327 -0.1430 -0.2045
12638TIP3    H159329   4.557   0.125   3.008 -1.5832  0.9141  0.6472
12638TIP3    H259330   4.455   0.165   2.905 -1.5227 -0.4309  0.0458
12639TIP3   OH259331   6.227   3.530  12.296  0.3447  0.5147 -0.4725
12639TIP3    H159332   6.240   3.594  12.366  0.7895  0.2601 -0.3191
12639TIP3    H259333   6.196   3.451  12.341  4.6284 -1.1070  0.0765
12640TIP3   OH259334   3.121   3.582  13.173  0.3036  0.1729  0.0104
12640TIP3    H159335   3.039   3.600  13.219  0.0982  2.9570 -1.2865
12640TIP3    H259336   3.101   3.594  13.080  1.5147 -2.0728 -0.6437
12641TIP3   OH259337   1.813   2.168   4.631  0.1628 -0.0240  0.0623
12641TIP3    H159338   1.900   2.166   4.591  1.0108 -0.9689  1.8241
12641TIP3    H259339   1.826   2.217   4.713 -1.2405  0.8485 -0.2148
12642TIP3   OH259340   6.542   5.033   1.517  0.5266  0.6610 -0.2246
12642TIP3    H159341   6.579   5.113   1.554  1.3629 -0.1468  0.7382
12642TIP3    H259342   6.450   5.036   1.542  0.6119  1.1860  0.0502
12643TIP3   OH259343   6.257   2.649   2.989  0.2523  0.8635  0.2866
12643TIP3    H159344   6.253   2.670   3.083 -0.3160  0.0104  0.4739
12643TIP3    H259345   6.338   2.600   2.979  0.8396  1.8581  0.1278
12644TIP3   OH259346   1.361   0.171   5.865  0.8159  0.3366  0.3143
12644TIP3    H159347   1.425   0.210   5.925  1.6867  0.6291 -0.7858
12644TIP3    H259348   1.413   0.112   5.810 -0.0605 -0.3196  0.1743
12645TIP3   OH259349   1.662   6.387  14.310 -0.1414 -0.2715  0.3960
12645TIP3    H159350   1.665   6.322  14.240 -2.9419 -0.6181  0.4795
12645TIP3    H259351   1.723   6.354  14.375  0.2736 -1.5521 -0.5950
12646TIP3   OH259352   2.310   3.992  15.915  0.0827 -0.5957 -0.1476
12646TIP3    H159353   2.402   4.001  15.892  0.2327 -0.6656  0.4118
12646TIP3    H259354   2.263   4.003  15.832  0.3988  2.5675  0.0028
12647TIP3   OH259355   6.200   5.397   4.638 -0.2269 -0.2268  0.0197
12647TIP3    H159356   6.154   5.385   4.555  0.4719  0.0225 -0.4107
12647TIP3    H259357   6.166   5.480   4.672 -1.6424 -1.0627  0.7492
12648TIP3   OH259358   1.073   4.398  16.001 -0.7278  0.3708 -0.1833
12648TIP3    H159359   1.139   4.401  15.932 -0.4542  2.7142  0.0930
12648TIP3    H259360   1.123   4.402  16.082 -1.1410  2.2584  0.0323
12649TIP3   OH259361   2.518   4.937   3.956 -0.1836  0.0236  0.1098
12649TIP3    H159362   2.430   4.974   3.967  0.4261  1.0917  1.6703
12649TIP3    H259363   2.543   4.907   4.043  1.1673  0.0869 -0.2382
12650TIP3   OH259364   0.327   2.796   1.537 -0.0499 -0.2725  0.2828
12650TIP3    H159365   0.299   2.718   1.584 -1.1414 -0.4455 -0.6250
12650TIP3    H259366   0.256   2.815   1.476  1.3435 -0.0773 -1.3572
12651TIP3   OH259367   5.166   1.538  13.302 -0.2650  0.0048  0.1797
12651TIP3    H159368   5.156   1.590  13.381 -0.0826 -0.2099  0.3433
12651TIP3    H259369   5.153   1.601  13.230  0.2497  0.3381  0.3742
12652TIP3   OH259370   5.955   1.852  12.084 -0.0870  0.8303 -0.6062
12652TIP3    H159371   5.992   1.817  12.165 -0.1869 -0.0138 -0.9104
12652TIP3    H259372   6.017   1.825  12.016 -0.3613  0.9216 -0.8955
12653TIP3   OH259373   1.063   0.786  13.027 -0.2367 -0.4927 -0.7578
12653TIP3    H159374   1.133   0.739  13.072 -1.4927  0.2432  2.2627
12653TIP3    H259375   1.000   0.717  13.004  0.7181 -0.9616 -2.0986
12654TIP3   OH259376   2.279   1.727   0.448 -0.4130  0.2255 -0.3069
12654TIP3    H159377   2.281   1.632   0.465  0.7171  0.2825 -0.0647
12654TIP3    H259378   2.190   1.753   0.473 -0.5484 -0.6623  0.2006
12655TIP3   OH259379   4.461   0.145   2.048 -0.6090 -0.2983  0.5021
12655TIP3    H159380   4.369   0.168   2.037 -0.3603 -0.0848 -1.6964
12655TIP3    H259381   4.463   0.049   2.045 -0.9684 -0.4406  3.0649
12656TIP3   OH259382   5.890   3.336   2.381 -0.2614 -0.3623  0.2995
12656TIP3    H159383   5.877   3.274   2.453  0.5725 -0.0280  0.7526
12656TIP3    H259384   5.853   3.418   2.413  0.1380 -0.2057  0.3622
12657TIP3   OH259385   4.112   0.596   3.562  0.0173 -0.3657 -0.6578
12657TIP3    H159386   4.158   0.551   3.491 -0.2586  0.3290 -1.2815
12657TIP3    H259387   4.023   0.560   3.560  0.0054 -0.3353 -0.6693
12658TIP3   OH259388   1.962   1.957  11.927  0.3330  0.3462 -0.3674
12658TIP3    H159389   1.955   1.911  11.843 -0.5096  0.4721 -0.3767
12658TIP3    H259390   1.899   2.029  11.920 -0.6527 -0.3776  0.8427
12659TIP3   OH259391   5.013   0.835   3.765 -0.1341 -0.3844 -0.4140
12659TIP3    H159392   4.958   0.911   3.783  0.9574 -0.3183  3.7714
12659TIP3    H259393   5.093   0.871   3.729  0.5271  0.6463  1.8792
12660TIP3   OH259394   6.612   3.213  14.602 -0.3836  0.4595  0.3516
12660TIP3    H159395   6.703   3.188  14.588 -0.4286  0.8713 -0.7704
12660TIP3    H259396   6.565   3.130  14.606 -0.1879  0.2734 -0.8211
12661TIP3   OH259397   0.646   0.692   2.508 -0.4410  0.1655  0.4978
12661TIP3    H159398   0.571   0.730   2.554 -0.1417  0.8784  0.4066
12661TIP3    H259399   0.609   0.663   2.424 -0.5426  0.9041  0.2730
12662TIP3   OH259400   5.685   6.705  12.769  0.2078 -0.3234  0.3540
12662TIP3    H159401   5.696   6.801  12.774  2.5756 -0.4635 -0.6553
12662TIP3    H259402   5.657   6.688  12.680  0.9155 -0.6259  0.1815
12663TIP3   OH259403   5.094   3.056   3.532  0.0346  0.0954 -0.2176
12663TIP3    H159404   5.128   3.045   3.443 -0.8235 -1.2963 -0.4074
12663TIP3    H259405   5.123   2.978   3.579  0.2052  0.6610  0.6466
12664TIP3   OH259406   1.923   0.722  16.941  0.2258 -0.4439  0.0560
12664TIP3    H159407   1.938   0.753  17.030  2.8465  1.8401 -1.0311
12664TIP3    H259408   1.915   0.627  16.950 -1.4351 -0.1587  2.8568
12665TIP3   OH259409   5.186   0.065   3.741 -0.1473  0.8857 -0.0228
12665TIP3    H159410   5.131   0.048   3.818 -0.4443 -1.7382 -0.7192
12665TIP3    H259411   5.159   0.153   3.711 -2.1065  0.7487  1.1714
12666TIP3   OH259412   5.205   4.458  12.041 -0.1973  0.5127  0.1761
12666TIP3    H159413   5.251   4.375  12.054 -2.2489 -0.6384  0.5564
12666TIP3    H259414   5.178   4.484  12.129 -2.7338 -0.3959 -0.2580
12667TIP3   OH259415   4.376   3.669  13.226  0.3357  0.5286  0.3293
12667TIP3    H159416   4.314   3.648  13.295 -1.9348  0.5077 -1.6042
12667TIP3    H259417   4.426   3.588  13.214 -0.8262 -0.2238  0.4127
12668TIP3   OH259418   4.914   5.608   0.250  0.4061  0.1811  0.5193
12668TIP3    H159419   4.958   5.692   0.242  2.3357 -0.7798  0.5010
12668TIP3    H259420   4.985   5.544   0.259 -0.8063 -1.8008 -2.3655
12669TIP3   OH259421   5.079   6.484   0.421 -0.2212 -0.0384  0.0095
12669TIP3    H159422   5.003   6.509   0.474 -0.1721 -0.3775  0.2487
12669TIP3    H259423   5.132   6.563   0.414 -0.7133  0.2606 -0.3540
12670TIP3   OH259424   1.369   2.781  11.859  0.4518 -0.3349  0.1649
12670TIP3    H159425   1.287   2.828  11.840  0.4533 -1.2060 -2.3325
12670TIP3    H259426   1.342   2.693  11.884  0.5727  0.0603  1.7816
12671TIP3   OH259427   5.730   1.392   2.815 -0.1473  0.3882  0.5690
12671TIP3    H159428   5.796   1.456   2.786 -0.1044 -0.0004 -0.1958
12671TIP3    H259429   5.766   1.357   2.897  1.4207 -1.0108 -0.6561
12672TIP3   OH259430   3.879   2.872  15.948  0.6163 -0.0563 -1.3589
12672TIP3    H159431   3.928   2.798  15.985  2.4301  1.4429 -0.6351
12672TIP3    H259432   3.809   2.887  16.011  0.5124 -0.8516 -1.2710
12673TIP3   OH259433   5.961   5.604  16.431 -0.1641  0.0368 -0.6418
12673TIP3    H159434   5.869   5.614  16.456 -0.1866 -1.6760  0.1325
12673TIP3    H259435   5.966   5.637  16.342 -1.4481  0.5536 -0.5422
12674TIP3   OH259436   5.894   4.271  14.773 -0.7151  0.1793  0.0666
12674TIP3    H159437   5.946   4.329  14.829  0.0922  0.2242 -0.7016
12674TIP3    H259438   5.827   4.329  14.736  1.0326  1.0663 -1.9315
12675TIP3   OH259439   3.678   4.487  12.021  0.5466  0.0113  0.0523
12675TIP3    H159440   3.767   4.523  12.028  0.8044 -0.7909  1.0515
12675TIP3    H259441   3.629   4.555  11.973  0.7071  2.3290  2.8856
12676TIP3   OH259442   2.637   3.025  15.453  0.3758 -0.0538  0.4533
12676TIP3    H159443   2.675   3.013  15.539 -0.8139 -1.5639  0.8031
12676TIP3    H259444   2.560   2.968  15.452  0.8850 -0.7984 -1.9431
12677TIP3   OH259445   5.375   5.227   0.985  0.4961  0.1441 -0.1411
12677TIP3    H159446   5.330   5.143   0.975 -0.5786  0.4152  1.8726
12677TIP3    H259447   5.449   5.221   0.925  1.4049 -2.9371  1.0383
12678TIP3   OH259448   6.760   5.919  12.521  0.1652  0.2911  0.6526
12678TIP3    H159449   6.828   5.925  12.453  0.0355 -1.5852  0.2975
12678TIP3    H259450   6.713   5.838  12.500  0.3603 -0.5531  3.1802
12679TIP3   OH259451   3.760   2.754  11.576 -0.1016  0.1219 -0.2961
12679TIP3    H159452   3.734   2.693  11.645  1.7882 -0.3910  0.0340
12679TIP3    H259453   3.709   2.726  11.500 -1.2368 -0.1469  0.5345
12680TIP3   OH259454   2.033   2.861   6.426 -0.1378  0.0991  0.3732
12680TIP3    H159455   2.036   2.768   6.451 -1.1090  0.2606  1.1641
12680TIP3    H259456   2.110   2.873   6.371 -0.6275 -1.4557 -0.7391
12681TIP3   OH259457   0.498   0.662   4.253  0.0254 -0.2340 -0.5081
12681TIP3    H159458   0.542   0.658   4.337  1.3468  0.6664 -1.1243
12681TIP3    H259459   0.461   0.750   4.249  0.2342 -0.1673 -1.0022
12682TIP3   OH259460   5.071   4.542  16.728 -0.3065 -0.4236  0.1017
12682TIP3    H159461   4.991   4.512  16.686 -0.4759  0.8668 -0.5387
12682TIP3    H259462   5.139   4.484  16.695 -0.7236 -0.5093 -0.6173
12683TIP3   OH259463   4.076   2.941   0.849 -0.2818  0.4930  0.5672
12683TIP3    H159464   4.098   2.848   0.857 -0.5746  0.3084 -0.5334
12683TIP3    H259465   4.102   2.964   0.760 -0.9134  1.2649  0.5708
12684TIP3   OH259466   5.718   2.654  12.897 -0.1322  0.3729 -0.2517
12684TIP3    H159467   5.641   2.711  12.900 -0.6055 -0.2329 -0.6610
12684TIP3    H259468   5.686   2.568  12.924  0.1927 -0.0940 -1.3021
12685TIP3   OH259469   0.180   2.144  14.525  0.0600 -0.1284  0.1041
12685TIP3    H159470   0.236   2.183  14.592 -1.2183 -0.7255  1.5943
12685TIP3    H259471   0.184   2.050  14.542 -0.3374 -0.2823 -0.6200
12686TIP3   OH259472   1.858   2.177  12.197 -0.4441  0.6116 -0.4975
12686TIP3    H159473   1.791   2.111  12.212  0.0205  0.2486  0.0182
12686TIP3    H259474   1.885   2.164  12.106 -1.1679  0.8600 -0.7533
12687TIP3   OH259475   5.847   4.112   0.406  0.2549  0.1417  0.3965
12687TIP3    H159476   5.884   4.025   0.399 -0.2353  0.0352 -1.2436
12687TIP3    H259477   5.822   4.120   0.498 -0.7195 -1.8780  0.3640
12688TIP3   OH259478   0.604   4.080  13.217  0.1176 -0.0741  0.2542
12688TIP3    H159479   0.653   4.109  13.294 -2.1448  1.2053  1.3005
12688TIP3    H259480   0.557   4.002  13.245 -0.0873 -0.0709 -0.0704
12689TIP3   OH259481   4.788   1.826  11.580 -0.3327 -0.4778 -0.2443
12689TIP3    H159482   4.797   1.911  11.623 -1.4346  0.2158 -1.3264
12689TIP3    H259483   4.860   1.823  11.517  1.0369 -1.3222  1.2705
12690TIP3   OH259484   2.683   2.276  12.603  0.2974 -0.5171  0.5487
12690TIP3    H159485   2.659   2.346  12.663 -0.2144  1.1906 -1.5330
12690TIP3    H259486   2.618   2.208  12.619 -0.6982  0.5030  0.9601
12691TIP3   OH259487   2.783   3.551  16.141  0.2414  0.2295  0.2613
12691TIP3    H159488   2.790   3.468  16.093  1.4576 -0.3244  1.3260
12691TIP3    H259489   2.690   3.573  16.138  0.1754 -0.2008 -1.6243
12692TIP3   OH259490   5.685   6.703   4.747 -0.0523 -0.0501 -0.1501
12692TIP3    H159491   5.693   6.790   4.785 -0.3998 -0.4301  0.8017
12692TIP3    H259492   5.595   6.677   4.765 -0.5029  0.0872 -1.9701
12693TIP3   OH259493   3.990   5.505   5.874  0.2447  0.4050 -0.5199
12693TIP3    H159494   4.080   5.515   5.907 -0.8347  3.1624  1.9078
12693TIP3    H259495   3.971   5.588   5.830 -1.1900 -0.1118 -0.9193
12694TIP3   OH259496   1.137   1.844   6.008  0.3994 -0.0743 -0.4759
12694TIP3    H159497   1.193   1.892   5.946  0.7695 -0.9336 -0.8292
12694TIP3    H259498   1.122   1.906   6.079 -1.4556  1.5758 -2.1696
12695TIP3   OH259499   0.176   3.425  13.167 -0.0145  0.5816  0.2561
12695TIP3    H159500   0.270   3.425  13.186  0.0119 -0.2712  0.1326
12695TIP3    H259501   0.141   3.497  13.220  0.5861  0.4156  0.8920
12696TIP3   OH259502   1.487   2.870  16.957 -0.6610 -0.4094 -0.1236
12696TIP3    H159503   1.459   2.784  16.988  1.6394 -1.2243 -0.1591
12696TIP3    H259504   1.430   2.888  16.882 -0.3190 -2.5463 -0.9869
12697TIP3   OH259505   2.656   6.498  10.674 -0.1415  0.0664 -0.0453
12697TIP3    H159506   2.672   6.462  10.762  1.0300 -1.7059 -0.9107
12697TIP3    H259507   2.567   6.470  10.653  0.2598 -1.2167 -0.1515
12698TIP3   OH259508   6.420   3.568  12.032 -0.4634 -0.5945  0.5976
12698TIP3    H159509   6.365   3.540  12.105  0.3671  0.1554  1.5492
12698TIP3    H259510   6.502   3.596  12.073 -0.1059  0.2013 -0.5892
12699TIP3   OH259511   1.947   5.810  11.934 -0.3485 -0.4155  0.1260
12699TIP3    H159512   1.962   5.857  12.016  0.0964 -1.4362  0.6544
12699TIP3    H259513   1.989   5.725  11.947  1.3258  0.0398 -1.8417
12700TIP3   OH259514   4.442   2.772  17.307  0.1576  0.6090  0.0483
12700TIP3    H159515   4.348   2.773  17.288  0.3127 -1.9582 -1.2890
12700TIP3    H259516   4.478   2.840  17.250 -0.6623  0.0784 -1.1701
12701TIP3   OH259517   2.308   2.354  15.114 -0.0884 -0.6287 -0.6249
12701TIP3    H159518   2.288   2.445  15.132  0.6093 -0.5341 -0.2781
12701TIP3    H259519   2.223   2.310  15.110 -0.3505 -0.3848  1.3834
12702TIP3   OH259520   2.851   0.631  15.653 -0.0895  0.0401 -0.3172
12702TIP3    H159521   2.898   0.633  15.570 -1.1256 -0.0418 -0.9262
12702TIP3    H259522   2.915   0.601  15.717  1.2025  1.7163 -0.7644
12703TIP3   OH259523   5.633   0.188   2.220  0.1177  0.6904 -0.1417
12703TIP3    H159524   5.550   0.185   2.173 -0.1874  0.3950  0.4042
12703TIP3    H259525   5.679   0.108   2.193 -0.3253  0.1931  0.5265
12704TIP3   OH259526   5.775   2.558   2.539 -0.3194 -0.2548 -0.3340
12704TIP3    H159527   5.800   2.520   2.455  3.0781  0.0163  0.4159
12704TIP3    H259528   5.772   2.653   2.521  1.9100 -0.0524  0.0808
12705TIP3   OH259529   1.839   2.215  12.986 -0.6085 -0.4064  0.5462
12705TIP3    H159530   1.791   2.244  12.909  0.9379  0.5482 -0.1296
12705TIP3    H259531   1.817   2.122  12.996 -0.5742 -0.6464 -1.2826
12706TIP3   OH259532   2.022   5.881   2.326 -0.0864 -0.1461  0.6090
12706TIP3    H159533   1.963   5.937   2.276 -0.9935 -0.9287  0.7666
12706TIP3    H259534   2.014   5.795   2.285  1.7006 -0.0853  0.0238
12707TIP3   OH259535   0.371   3.501   3.221  0.1349 -0.0171 -0.7903
12707TIP3    H159536   0.288   3.459   3.200 -1.1444 -0.2509  3.7097
12707TIP3    H259537   0.346   3.580   3.270  2.5936  0.8214 -0.7466
12708TIP3   OH259538   5.557   5.881  13.260 -0.3953 -0.2304  0.5419
12708TIP3    H159539   5.638   5.857  13.215 -1.7634  1.1982 -3.0394
12708TIP3    H259540   5.492   5.820  13.227 -1.2468 -0.0665  1.8219
12709TIP3   OH259541   3.773   4.499   1.400 -0.0718  0.1203 -0.1411
12709TIP3    H159542   3.733   4.428   1.450 -1.1388 -0.5020 -1.7562
12709TIP3    H259543   3.867   4.488   1.413 -0.2605 -1.0107  0.4016
12710TIP3   OH259544   0.917   0.317  12.975 -0.2789 -0.2013 -0.2767
12710TIP3    H159545   0.899   0.380  12.906 -0.3680  0.9996  0.8135
12710TIP3    H259546   0.843   0.326  13.036 -0.2741 -1.3270 -0.0827
12711TIP3   OH259547   3.457   4.899   6.150  0.5671 -0.1943  0.2240
12711TIP3    H159548   3.391   4.925   6.214  1.1191  0.2266  0.6421
12711TIP3    H259549   3.493   4.982   6.117 -0.1085 -0.4002 -1.0673
12712TIP3   OH259550   4.291   0.644   2.710  0.1135  0.4032 -0.3185
12712TIP3    H159551   4.218   0.641   2.648  0.1695 -0.5854 -0.3542
12712TIP3    H259552   4.264   0.708   2.776  0.1692  1.6972 -1.4928
12713TIP3   OH259553   1.203   4.685   3.540 -0.4670 -0.3442 -0.5469
12713TIP3    H159554   1.285   4.670   3.587 -1.7322 -0.2238  1.8490
12713TIP3    H259555   1.183   4.601   3.499  1.3791 -0.0699 -2.1737
12714TIP3   OH259556   4.196   4.562   5.269 -0.0114 -0.2144  0.1251
12714TIP3    H159557   4.202   4.532   5.178 -1.0267  0.3444 -0.1448
12714TIP3    H259558   4.182   4.656   5.262 -2.2103 -0.4432  0.7707
12715TIP3   OH259559   6.194   1.802  12.846 -0.2923  0.0985 -0.5599
12715TIP3    H159560   6.224   1.871  12.905  0.9762 -0.8734 -0.0169
12715TIP3    H259561   6.261   1.798  12.777 -0.2938 -0.6382 -0.5298
12716TIP3   OH259562   5.907   0.446  15.861  0.2421 -0.1432  0.1315
12716TIP3    H159563   5.977   0.476  15.803  0.5685  0.4203  0.8010
12716TIP3    H259564   5.845   0.401  15.803  1.0158 -0.4032 -0.5058
12717TIP3   OH259565   6.711   0.580   6.521  0.3668  0.2784  0.5655
12717TIP3    H159566   6.719   0.615   6.610  3.0185 -0.3669  0.6699
12717TIP3    H259567   6.800   0.578   6.488 -0.4236 -0.5895 -1.7132
12718TIP3   OH259568   1.964   1.202  14.602  0.0857  0.8225  0.0319
12718TIP3    H159569   1.889   1.198  14.543  0.0227 -3.5674  0.1179
12718TIP3    H259570   1.925   1.202  14.690 -0.0359 -2.6040  0.1095
12719TIP3   OH259571   0.803   1.529  15.183  0.2784  0.1876 -0.0733
12719TIP3    H159572   0.853   1.461  15.229  0.9398 -0.4126 -1.6047
12719TIP3    H259573   0.746   1.566  15.250  0.2678 -1.5221  0.9212
12720TIP3   OH259574   0.873   4.552  15.478 -0.7109  0.7130 -0.0395
12720TIP3    H159575   0.936   4.616  15.446  0.1232 -0.1276 -0.0979
12720TIP3    H259576   0.897   4.538  15.570 -1.3578  1.0338  0.1855
12721TIP3   OH259577   0.397   0.604   2.352 -0.2281 -0.1366 -0.2006
12721TIP3    H159578   0.342   0.682   2.356  0.8554  0.6474 -0.3174
12721TIP3    H259579   0.357   0.544   2.415 -0.1889  1.0943  1.0536
12722TIP3   OH259580   1.907   6.252  13.810  0.3002  0.2315 -0.7379
12722TIP3    H159581   1.882   6.240  13.719 -0.5908 -0.0496 -0.4712
12722TIP3    H259582   1.840   6.310  13.846  0.6968  0.4164 -0.2815
12723TIP3   OH259583   5.218   6.207   3.613  0.6880 -0.0938 -0.2334
12723TIP3    H159584   5.207   6.264   3.689  1.9486 -0.1196 -0.0127
12723TIP3    H259585   5.226   6.119   3.650  1.6480 -0.0696 -0.3439
12724TIP3   OH259586   5.430   3.476   4.117 -0.6353  0.3682  0.3467
12724TIP3    H159587   5.347   3.436   4.089 -1.5678  1.3929  1.5140
12724TIP3    H259588   5.417   3.570   4.101  0.6017  0.4763 -0.1330
12725TIP3   OH259589   1.120   0.295   1.533 -0.3903 -0.9853 -0.1112
12725TIP3    H159590   1.124   0.201   1.551  1.4016 -0.8138  0.5561
12725TIP3    H259591   1.089   0.334   1.615  1.1024 -0.8279  0.4192
12726TIP3   OH259592   2.996   6.357   6.265  0.2514  0.4524 -0.6042
12726TIP3    H159593   2.996   6.447   6.231  2.0796  0.2526 -1.2501
12726TIP3    H259594   2.989   6.367   6.359 -0.8880  1.2058 -0.7527
12727TIP3   OH259595   3.219   4.642   3.894  0.2586  0.3361 -0.3522
12727TIP3    H159596   3.269   4.713   3.853 -0.2331  0.5711 -0.5584
12727TIP3    H259597   3.128   4.671   3.888  0.0588 -0.2867 -0.3802
12728TIP3   OH259598   6.054   4.298  15.482  0.5436  0.2755 -0.1181
12728TIP3    H159599   6.043   4.224  15.541 -2.3715 -0.0279 -0.8596
12728TIP3    H259600   5.967   4.338  15.478  1.1129  1.4672 -2.6411
12729TIP3   OH259601   6.742   1.319   5.764  0.1477  0.7634 -0.2052
12729TIP3    H159602   6.769   1.366   5.685  3.2065 -1.5260 -0.7319
12729TIP3    H259603   6.689   1.247   5.732  1.7496 -0.4203 -0.3202
12730TIP3   OH259604   5.239   1.003   2.211 -0.0600  0.4742 -0.6338
12730TIP3    H159605   5.254   1.057   2.288 -1.8656  1.8825 -1.2220
12730TIP3    H259606   5.246   1.063   2.137  0.7267 -0.6727 -1.5407
12731TIP3   OH259607   5.957   3.659  15.286  0.4499  0.2483 -0.1127
12731TIP3    H159608   5.999   3.634  15.204 -0.1338  0.8669 -0.6157
12731TIP3    H259609   5.879   3.707  15.259  0.7722  1.3281  0.8144
12732TIP3   OH259610   6.573   3.426   0.770  0.2482 -0.0227 -0.3356
12732TIP3    H159611   6.592   3.349   0.716  0.3570 -0.2004 -0.0472
12732TIP3    H259612   6.646   3.430   0.832  0.4258  0.5221 -0.5784
12733TIP3   OH259613   6.442   2.514  13.951  0.3207 -0.3028 -0.1008
12733TIP3    H159614   6.465   2.512  14.044  0.6977 -0.1464 -0.1901
12733TIP3    H259615   6.525   2.530  13.906 -0.0401  0.8883 -0.3889
12734TIP3   OH259616   5.319   3.132   5.325 -0.1744 -0.5893 -0.3517
12734TIP3    H159617   5.251   3.164   5.385  0.2611  0.3511 -0.3428
12734TIP3    H259618   5.311   3.187   5.247 -0.7202 -1.7823 -1.1817
12735TIP3   OH259619   5.365   3.886  15.319  0.3916  0.1679 -0.4269
12735TIP3    H159620   5.417   3.914  15.243  2.3525  0.7598  1.0389
12735TIP3    H259621   5.357   3.791  15.309 -1.6769  0.4595 -2.6631
12736TIP3   OH259622   4.838   2.937  13.593 -0.1084 -0.0586  0.0436
12736TIP3    H159623   4.882   2.975  13.669 -0.3292  1.0653 -0.3577
12736TIP3    H259624   4.876   2.850  13.584 -0.1880 -0.2740  1.5184
12737TIP3   OH259625   0.826   5.825  17.062 -0.1805  0.0054 -0.0576
12737TIP3    H159626   0.852   5.733  17.067  0.9324  0.3643  1.1949
12737TIP3    H259627   0.733   5.822  17.039 -1.0446 -1.5397  3.1234
12738TIP3   OH259628   5.808   2.051  11.269  0.5337 -0.4223  0.0555
12738TIP3    H159629   5.749   2.027  11.340 -0.7413 -0.3892 -0.9664
12738TIP3    H259630   5.804   2.146  11.266 -0.9984 -0.4865 -1.3187
12739TIP3   OH259631   3.783   4.869  17.104 -0.1828  0.6082 -0.1295
12739TIP3    H159632   3.746   4.954  17.129 -0.3178  0.1606  1.3154
12739TIP3    H259633   3.849   4.890  17.038 -0.3537  1.8173  0.0619
12740TIP3   OH259634   2.787   4.498  12.985  0.0243 -0.2422 -0.4037
12740TIP3    H159635   2.860   4.439  13.004  0.1493 -0.3846 -1.2785
12740TIP3    H259636   2.824   4.563  12.925 -0.4072  0.0472 -0.3620
12741TIP3   OH259637   6.134   1.572  14.602 -0.5690  0.2487 -0.4108
12741TIP3    H159638   6.130   1.664  14.626  0.6909  0.3193 -0.3697
12741TIP3    H259639   6.089   1.527  14.673 -2.6955  0.9264 -1.2656
12742TIP3   OH259640   5.088   1.047  12.989 -0.1554 -0.5115 -0.4816
12742TIP3    H159641   5.018   1.048  12.924  0.7498  1.1463 -1.5143
12742TIP3    H259642   5.083   1.133  13.031  2.9194  0.8495 -2.5531
12743TIP3   OH259643   5.288   4.386  16.984 -0.2574  0.0891  0.1075
12743TIP3    H159644   5.328   4.473  16.981 -1.6537  0.7218 -1.6550
12743TIP3    H259645   5.302   4.350  16.896  0.1060 -1.3966  0.7414
12744TIP3   OH259646   4.204   4.177  17.346  0.5308 -0.4368 -0.0121
12744TIP3    H159647   4.141   4.201  17.278  0.7842 -0.0189 -0.1028
12744TIP3    H259648   4.150   4.147  17.419  0.2834 -2.2145 -0.8744
12745TIP3   OH259649   6.101   2.312  14.835  0.4448  0.2943 -0.1173
12745TIP3    H159650   6.143   2.331  14.752  0.5170 -0.0323 -0.1604
12745TIP3    H259651   6.071   2.221  14.826 -1.4175  0.9243 -0.5632
12746TIP3   OH259652   4.984   0.163   5.261 -0.2775  0.0002 -0.7430
12746TIP3    H159653   4.958   0.093   5.322 -0.5928  0.8027  0.0729
12746TIP3    H259654   5.077   0.176   5.278 -0.6620  1.2455  0.7033
12747TIP3   OH259655   4.346   5.444  13.906  0.2844 -0.5882 -0.0783
12747TIP3    H159656   4.334   5.466  13.814 -1.2486  0.9767  0.4209
12747TIP3    H259657   4.372   5.527  13.947  0.2710 -1.0931  0.9837
12748TIP3   OH259658   1.385   0.203   3.864  0.3675  0.0937  0.1575
12748TIP3    H159659   1.405   0.111   3.877  0.9139  0.3172  1.0084
12748TIP3    H259660   1.290   0.209   3.866  0.1570 -0.8006 -2.5109
12749TIP3   OH259661   6.431   4.294  13.981 -0.5083 -0.3602 -0.2572
12749TIP3    H159662   6.352   4.253  13.948 -1.7614  1.1472  0.6949
12749TIP3    H259663   6.400   4.369  14.032  1.5307  0.2552  0.2042
12750TIP3   OH259664   0.803   6.395  16.636  0.3023  0.2511  0.5716
12750TIP3    H159665   0.760   6.381  16.552  0.4029 -1.3325  0.7535
12750TIP3    H259666   0.894   6.415  16.614  0.2678  0.1001  0.2952
12751TIP3   OH259667   4.620   2.603   4.329  0.7187 -0.1894 -0.3805
12751TIP3    H159668   4.697   2.659   4.333  0.9262 -0.4784 -0.3282
12751TIP3    H259669   4.586   2.617   4.240 -0.3153  1.4437  0.2229
12752TIP3   OH259670   3.580   2.899  14.845  0.0192 -0.3173 -0.0514
12752TIP3    H159671   3.511   2.959  14.872  0.0651 -0.2460 -0.0916
12752TIP3    H259672   3.595   2.844  14.922 -1.2446 -1.4400 -0.5718
12753TIP3   OH259673   2.008   0.841   4.664 -0.7303 -0.2149  0.2625
12753TIP3    H159674   2.051   0.844   4.579 -1.1263 -1.1145  0.0205
12753TIP3    H259675   1.985   0.749   4.676 -1.5436  0.0595  0.9068
12754TIP3   OH259676   2.589   4.168  13.935  0.5245  0.0627 -0.1202
12754TIP3    H159677   2.593   4.091  13.992  0.1275 -1.1679 -1.6735
12754TIP3    H259678   2.495   4.187  13.927  0.5811  0.2779 -0.3014
12755TIP3   OH259679   6.137   1.085  12.704 -0.2812  0.9544 -0.4382
12755TIP3    H159680   6.222   1.127  12.716  0.5056 -0.5484 -0.6058
12755TIP3    H259681   6.074   1.152  12.731  0.9264  2.1798 -0.5278
12756TIP3   OH259682   6.343   1.480   5.842  0.0174  0.2795  0.1990
12756TIP3    H159683   6.324   1.573   5.850  0.3085  0.2701  1.1949
12756TIP3    H259684   6.409   1.464   5.909 -0.8409 -0.8568  0.8162
12757TIP3   OH259685   5.007   6.084  12.028  0.6389  0.5503 -0.0068
12757TIP3    H159686   4.956   6.127  12.096  2.1219  0.4661  1.1987
12757TIP3    H259687   4.980   6.128  11.947 -1.2709  0.5436  0.5810
12758TIP3   OH259688   3.894   6.237   5.606  0.5697  0.0014 -0.0805
12758TIP3    H159689   3.894   6.165   5.544 -0.2466  1.1318 -1.4484
12758TIP3    H259690   3.813   6.227   5.656  0.3200  0.1245 -0.4604
12759TIP3   OH259691   4.713   4.230  13.465  0.3445  0.3806 -0.1357
12759TIP3    H159692   4.697   4.309  13.413  0.7013  0.2206 -0.4970
12759TIP3    H259693   4.635   4.219  13.518  0.5690  1.3651  0.4197
12760TIP3   OH259694   4.108   5.113  17.328  0.2752  0.1447  0.1788
12760TIP3    H159695   4.184   5.109  17.386 -0.5190 -2.4653  1.1738
12760TIP3    H259696   4.125   5.044  17.263 -0.6883  0.3633 -0.3131
12761TIP3   OH259697   4.674   1.152   6.649  0.2531  0.3539  0.1857
12761TIP3    H159698   4.677   1.100   6.729  2.4313  0.1748  0.0452
12761TIP3    H259699   4.704   1.093   6.580  1.8547  1.4773 -0.1359
12762TIP3   OH259700   6.362   6.213   4.560 -0.3667 -0.2635 -1.0867
12762TIP3    H159701   6.294   6.238   4.622  1.8454  3.6207  0.1069
12762TIP3    H259702   6.406   6.139   4.601 -1.7841 -0.7401 -0.3563
12763TIP3   OH259703   5.253   2.732  17.167  0.1060 -0.1144 -0.0791
12763TIP3    H159704   5.166   2.700  17.190  0.9602 -1.2019  1.8186
12763TIP3    H259705   5.290   2.663  17.112  1.1119 -1.4922  2.1916
12764TIP3   OH259706   4.321   4.520  12.950  0.5271 -0.8886  0.0429
12764TIP3    H159707   4.407   4.477  12.952  1.5706  1.0785  0.1598
12764TIP3    H259708   4.261   4.455  12.986  1.7287 -2.7629 -1.1248
12765TIP3   OH259709   5.789   1.315   1.032  0.4929  0.2448  0.1943
12765TIP3    H159710   5.739   1.330   0.951 -1.0464  1.1398  1.2502
12765TIP3    H259711   5.875   1.352   1.015  0.6787 -0.8621 -1.5062
12766TIP3   OH259712   1.890   0.896   1.791  0.1106 -0.8884  0.3290
12766TIP3    H159713   1.826   0.888   1.721 -0.3449  3.2466  0.0112
12766TIP3    H259714   1.839   0.887   1.872 -0.7820  1.2192  0.0654
12767TIP3   OH259715   1.891   3.657  12.566 -0.0065 -0.3090  0.2329
12767TIP3    H159716   1.926   3.591  12.506 -0.2134  0.7225 -1.0846
12767TIP3    H259717   1.968   3.702  12.601  0.0899 -0.4176  0.1609
12768TIP3   OH259718   4.443   6.107  11.425 -0.0779 -0.5191 -0.0094
12768TIP3    H159719   4.379   6.170  11.459  0.8980 -0.3866  1.7410
12768TIP3    H259720   4.450   6.128  11.332 -1.6040  0.3048  0.0179
12769TIP3   OH259721   6.217   6.261   0.458 -0.0868 -0.3729  0.2869
12769TIP3    H159722   6.287   6.258   0.523  0.8158  0.7686 -0.5819
12769TIP3    H259723   6.221   6.176   0.415  1.8544  0.2020 -0.7963
12770TIP3   OH259724   2.508   1.417   3.407 -0.2337 -0.1703  0.1397
12770TIP3    H159725   2.573   1.388   3.343 -0.5541 -1.4047  0.3399
12770TIP3    H259726   2.552   1.485   3.456  0.5132 -0.1911 -0.4741
12771TIP3   OH259727   3.700   4.925  11.538 -1.4271 -0.8528 -0.0526
12771TIP3    H159728   3.776   4.869  11.532 -1.3086 -0.7434  0.3680
12771TIP3    H259729   3.734   5.014  11.528 -1.0112 -0.5364  3.1861
12772TIP3   OH259730   6.661   0.470  11.870 -0.0813  0.0419 -0.0976
12772TIP3    H159731   6.674   0.550  11.921  1.6811 -1.3632  1.8239
12772TIP3    H259732   6.584   0.488  11.817 -0.6018  2.4809  1.3156
12773TIP3   OH259733   0.465   5.653   1.971  0.7313  0.2054 -0.0161
12773TIP3    H159734   0.551   5.611   1.979  1.0169  0.9294  0.8413
12773TIP3    H259735   0.472   5.732   2.025 -0.7179 -0.1101  0.6559
12774TIP3   OH259736   3.060   1.697   0.138  0.1249 -0.1002 -0.2294
12774TIP3    H159737   3.057   1.727   0.229  0.1853 -1.3587  0.1983
12774TIP3    H259738   3.129   1.632   0.136 -0.9549 -1.2667 -0.8048
12775TIP3   OH259739   2.090   4.600   2.738 -0.1206 -0.1686  0.0255
12775TIP3    H159740   2.026   4.597   2.666 -0.6646 -1.4016  0.5423
12775TIP3    H259741   2.166   4.554   2.704  1.1408  2.5196 -1.1266
12776TIP3   OH259742   4.716   5.787  13.882  0.5676  0.5319  0.2503
12776TIP3    H159743   4.697   5.694  13.897 -1.9785  1.1576  1.5636
12776TIP3    H259744   4.631   5.825  13.860  1.7189  2.4302 -1.1738
12777TIP3   OH259745   5.301   0.306  14.849  0.3063 -0.1563 -0.2284
12777TIP3    H159746   5.303   0.281  14.757 -0.5863 -0.4057 -0.1832
12777TIP3    H259747   5.268   0.396  14.848 -2.4249 -1.0864  0.0105
12778TIP3   OH259748   1.210   1.164   5.775 -0.4924  0.1841 -0.1938
12778TIP3    H159749   1.302   1.145   5.758 -0.1198  0.7331  1.1032
12778TIP3    H259750   1.211   1.241   5.832 -1.8493  1.7440 -2.1343
12779TIP3   OH259751   4.130   0.726  14.627  0.4781 -0.0746  0.3760
12779TIP3    H159752   4.179   0.723  14.545  2.9776 -0.0346  1.7732
12779TIP3    H259753   4.160   0.650  14.676 -2.1601 -0.9952  0.6789
12780TIP3   OH259754   3.764   0.329  14.089 -0.1071 -0.3333 -0.9317
12780TIP3    H159755   3.837   0.385  14.061 -0.8020  1.9251  1.3675
12780TIP3    H259756   3.693   0.391  14.106 -1.5746 -2.1698 -0.1457
12781TIP3   OH259757   3.679   5.498  11.229  0.4748 -0.0520 -0.1456
12781TIP3    H159758   3.608   5.546  11.187  1.0639 -0.8029 -2.1489
12781TIP3    H259759   3.711   5.556  11.298  0.3335  1.9015 -1.6367
12782TIP3   OH259760   4.189   1.703   3.435  0.0698 -0.3603  0.1808
12782TIP3    H159761   4.276   1.667   3.417 -0.1015 -1.2064  0.9664
12782TIP3    H259762   4.169   1.675   3.524 -1.9349 -2.0765 -0.7253
12783TIP3   OH259763   5.893   6.184  17.140 -0.3628 -0.2467 -0.7525
12783TIP3    H159764   5.966   6.188  17.079  0.1028  0.2023 -0.1703
12783TIP3    H259765   5.834   6.118  17.102  0.9627 -1.6192 -0.5453
12784TIP3   OH259766   2.592   0.109  12.795 -0.1347 -0.5497  0.1026
12784TIP3    H159767   2.594   0.045  12.867 -2.4474  1.7779  2.4556
12784TIP3    H259768   2.682   0.140  12.788  0.1680 -0.8965  1.9895
12785TIP3   OH259769   6.255   0.660  10.950  0.4517  0.0816  0.2590
12785TIP3    H159770   6.233   0.567  10.954  0.3361  0.1407  1.1967
12785TIP3    H259771   6.172   0.705  10.963  0.5699  0.3216  0.1926
12786TIP3   OH259772   3.559   1.633   2.728  0.5429 -0.2283  0.2013
12786TIP3    H159773   3.470   1.597   2.733  1.0433 -1.3686  1.6077
12786TIP3    H259774   3.552   1.721   2.764 -0.0185 -0.2890  0.2474
12787TIP3   OH259775   1.282   0.064   3.482 -0.0299 -0.7367  0.0116
12787TIP3    H159776   1.211   0.068   3.547 -1.8411  0.6422 -1.9352
12787TIP3    H259777   1.261  -0.011   3.428 -0.2101 -0.1331 -0.7703
12788TIP3   OH259778   4.510   2.171   0.057 -0.2119 -0.3549 -0.5211
12788TIP3    H159779   4.570   2.246   0.061 -1.5598  0.8072 -1.1431
12788TIP3    H259780   4.519   2.128   0.142  0.6801  0.4448 -0.1997
12789TIP3   OH259781   4.912   5.566  13.931 -0.3425  0.5117 -0.0887
12789TIP3    H159782   4.833   5.562  13.877 -0.0002 -1.7861 -0.5237
12789TIP3    H259783   4.910   5.486  13.983  0.6833  1.4043  1.3949
12790TIP3   OH259784   6.551   6.326   1.963 -0.0440 -0.1509  0.6513
12790TIP3    H159785   6.637   6.334   1.923 -0.0087  1.8002  1.0476
12790TIP3    H259786   6.568   6.315   2.056 -0.2018  1.8446  0.9543
12791TIP3   OH259787   0.273   3.454   4.874 -0.3992  0.2569  1.0488
12791TIP3    H159788   0.280   3.531   4.818  1.0356 -0.3727  0.3038
12791TIP3    H259789   0.353   3.455   4.927  1.4914 -2.4511 -1.3747
12792TIP3   OH259790   5.888   4.933  10.969  0.8632 -0.2401 -0.0492
12792TIP3    H159791   5.899   5.027  10.954  0.9401 -0.2934 -0.3367
12792TIP3    H259792   5.962   4.893  10.923 -0.1877 -0.5626 -1.5588
12793TIP3   OH259793   5.475   2.113  10.928 -0.1529 -0.4223  0.4294
12793TIP3    H159794   5.529   2.175  10.978  0.3172 -0.9383  0.5857
12793TIP3    H259795   5.445   2.050  10.994  0.0863 -0.8411  0.1448
12794TIP3   OH259796   6.586   1.340   4.497 -0.2429 -0.4670 -0.1182
12794TIP3    H159797   6.675   1.377   4.501 -1.1680  2.0285 -0.7008
12794TIP3    H259798   6.594   1.267   4.435  1.3082  0.0258 -0.5574
12795TIP3   OH259799   6.011   4.067   6.155 -0.2702 -0.0980 -0.5445
12795TIP3    H159800   5.963   4.004   6.208  0.3101 -2.3976 -2.5528
12795TIP3    H259801   5.985   4.153   6.189 -1.1866 -1.3777  2.2440
12796TIP3   OH259802   6.580   0.503   6.288 -0.0248  0.1167 -0.0668
12796TIP3    H159803   6.613   0.510   6.378 -1.5693 -0.1672  0.5458
12796TIP3    H259804   6.632   0.432   6.249  1.1325  0.6954  0.3521
12797TIP3   OH259805   5.966   0.145  13.677  0.5675 -0.1681  0.1131
12797TIP3    H159806   5.903   0.194  13.730  0.2391 -0.4888  0.0216
12797TIP3    H259807   6.012   0.088  13.740 -1.2560 -2.0945 -0.1895
12798TIP3   OH259808   5.501   4.264  14.397 -0.2010  0.1777 -0.4526
12798TIP3    H159809   5.457   4.341  14.361 -0.3818  0.5007  0.4331
12798TIP3    H259810   5.595   4.285  14.391 -0.0025 -1.0435 -3.5522
12799TIP3   OH259811   2.521   3.044  16.031 -0.9309 -0.7771 -0.1597
12799TIP3    H159812   2.467   3.007  15.962 -1.0447  0.0028 -0.4996
12799TIP3    H259813   2.576   3.109  15.987 -0.1874 -1.0859  0.2942
12800TIP3   OH259814   1.841   5.759   1.922  0.3613  0.0442  0.1617
12800TIP3    H159815   1.779   5.830   1.901  0.0581  0.1178  1.2483
12800TIP3    H259816   1.829   5.696   1.851  0.1285  0.7578 -0.4486
12801TIP3   OH259817   1.314   3.472   5.487  0.0052  0.4132 -0.2806
12801TIP3    H159818   1.365   3.393   5.469 -1.0163  0.0462 -1.7710
12801TIP3    H259819   1.372   3.544   5.463  1.6465  0.2724  2.8482
12802TIP3   OH259820   0.869   1.018   1.384 -0.1876  0.0821  0.0699
12802TIP3    H159821   0.794   1.030   1.441  0.2940  1.7066  0.3858
12802TIP3    H259822   0.831   0.993   1.300 -1.1501  1.6007  0.0215
12803TIP3   OH259823   3.151   2.522  14.841 -0.1962  0.2158  0.6990
12803TIP3    H159824   3.158   2.613  14.871 -0.0273  0.7159 -0.7787
12803TIP3    H259825   3.236   2.504  14.801 -1.1104  0.3325 -1.4114
12804TIP3   OH259826   1.782   5.682   5.582  0.0172  0.1268 -0.1361
12804TIP3    H159827   1.757   5.757   5.528 -2.7738  0.4780  1.4468
12804TIP3    H259828   1.777   5.714   5.672 -2.1731 -2.0813  0.6475
12805TIP3   OH259829   2.172   4.421  11.964 -0.2358 -0.4061 -0.2541
12805TIP3    H159830   2.175   4.346  11.905 -3.0531 -0.4981 -0.4053
12805TIP3    H259831   2.140   4.386  12.047  5.1731 -0.6053  2.1393
12806TIP3   OH259832   4.577   0.675  13.137 -0.2382  0.1849  0.1777
12806TIP3    H159833   4.517   0.605  13.115 -0.7294 -0.1054  2.2496
12806TIP3    H259834   4.521   0.750  13.159  0.2129  0.5711  0.0556
12807TIP3   OH259835   2.356   4.924  17.200  0.4044 -0.1888  0.7952
12807TIP3    H159836   2.317   4.839  17.178 -0.2950  0.6093 -1.3749
12807TIP3    H259837   2.281   4.981  17.219  0.2739  1.2890 -3.1222
12808TIP3   OH259838   2.555   4.144   6.467 -0.4442  0.1311 -0.8624
12808TIP3    H159839   2.545   4.226   6.516 -0.6684 -0.4778  0.1638
12808TIP3    H259840   2.513   4.078   6.524  0.9659 -0.9245 -0.9988
12809TIP3   OH259841   3.256   0.693  15.272  0.1119 -0.1820 -0.7580
12809TIP3    H159842   3.294   0.631  15.209 -3.1458 -1.1198 -1.9807
12809TIP3    H259843   3.249   0.775  15.223  1.1384  0.2068 -0.2869
12810TIP3   OH259844   4.211   2.861  17.166 -0.1387 -0.1262  0.0002
12810TIP3    H159845   4.256   2.933  17.122  0.2631  0.0923  0.7600
12810TIP3    H259846   4.143   2.904  17.218 -1.0678 -0.4336 -0.9281
12811TIP3   OH259847   2.680   4.562   1.957  0.1743 -0.2667 -0.3635
12811TIP3    H159848   2.627   4.618   1.901 -0.2642 -0.0546  0.2522
12811TIP3    H259849   2.742   4.519   1.897 -0.4579 -0.2490 -1.0398
12812TIP3   OH259850   2.016   1.899  14.616 -0.3687 -0.3503  0.5831
12812TIP3    H159851   1.926   1.907  14.582 -0.5894 -1.9544  0.7260
12812TIP3    H259852   2.016   1.816  14.663  1.4459 -0.7941 -0.1542
12813TIP3   OH259853   3.010   6.580  17.295 -0.6262 -0.3823 -0.3789
12813TIP3    H159854   3.030   6.611  17.383  1.4423 -0.4158 -0.7822
12813TIP3    H259855   2.916   6.561  17.297 -0.9749  1.1936  1.3100
12814TIP3   OH259856   2.551   1.547  11.623  0.4795 -0.2852  0.7236
12814TIP3    H159857   2.489   1.556  11.551  0.5840  1.1354  0.7908
12814TIP3    H259858   2.500   1.506  11.693 -0.6269  1.5448  1.0444
12815TIP3   OH259859   6.194   1.299  15.355 -0.1942 -0.5121 -0.1514
12815TIP3    H159860   6.285   1.322  15.374 -0.7578  1.1167  0.8366
12815TIP3    H259861   6.176   1.222  15.410  0.2199 -0.0396  0.6680
12816TIP3   OH259862   2.200   2.621  17.228  0.5638 -0.4054  0.7896
12816TIP3    H159863   2.162   2.605  17.142  1.7099 -0.9184  0.3603
12816TIP3    H259864   2.184   2.714  17.244  0.8873 -0.1567 -0.2522
12817TIP3   OH259865   5.789   3.302  12.009  0.6703 -0.0659  0.1687
12817TIP3    H159866   5.857   3.316  11.942  0.6223 -2.1272 -0.3896
12817TIP3    H259867   5.728   3.241  11.968 -0.7101  0.5557  1.2314
12818TIP3   OH259868   2.904   0.619  11.976  0.0813 -0.4696  0.8733
12818TIP3    H159869   2.849   0.659  11.908  0.1962  0.4563  1.3101
12818TIP3    H259870   2.860   0.641  12.058  0.4600 -0.7684  1.1614
12819TIP3   OH259871   0.395   0.777  13.813  0.2629  0.7127  0.3502
12819TIP3    H159872   0.413   0.740  13.900 -0.8187 -0.3054  0.1624
12819TIP3    H259873   0.390   0.701  13.755  3.6037  1.4958 -1.1865
12820TIP3   OH259874   4.538   6.057  14.209 -0.0114 -0.7096 -0.3143
12820TIP3    H159875   4.528   6.147  14.238 -4.6094 -0.4617 -1.8713
12820TIP3    H259876   4.622   6.056  14.163  0.7927  2.4037  0.8556
12821TIP3   OH259877   5.346   5.757  15.236  0.6128  0.2937 -0.5429
12821TIP3    H159878   5.302   5.672  15.246 -0.1545  0.8209  0.7730
12821TIP3    H259879   5.438   5.738  15.256  0.5724 -0.3530 -0.9326
12822TIP3   OH259880   5.133   3.793   4.617 -0.8670  0.1669 -0.0932
12822TIP3    H159881   5.204   3.775   4.555 -0.6581  1.9579 -0.4363
12822TIP3    H259882   5.083   3.711   4.620  0.1730 -0.5594 -1.2168
12823TIP3   OH259883   3.779   3.508  13.822  0.3887  0.5715  0.7504
12823TIP3    H159884   3.711   3.540  13.764 -1.0179 -1.9070  0.8965
12823TIP3    H259885   3.755   3.542  13.908 -0.2300  0.3671  0.6654
12824TIP3   OH259886   6.001   6.313  11.482 -0.2629  0.3175  0.1145
12824TIP3    H159887   5.914   6.334  11.515  0.0281  0.8156  0.5796
12824TIP3    H259888   6.028   6.392  11.435 -0.6857 -0.3853 -1.3821
12825TIP3   OH259889   2.952   3.814   1.004  0.1326 -0.6722  0.1433
12825TIP3    H159890   2.870   3.813   1.054  0.0123  0.5304  0.0005
12825TIP3    H259891   3.020   3.832   1.069  0.0003  0.6780 -0.0704
12826TIP3   OH259892   4.404   4.256   4.330  0.1510 -0.4200 -0.8986
12826TIP3    H159893   4.452   4.291   4.405  0.2599 -0.5741 -0.8972
12826TIP3    H259894   4.353   4.331   4.298 -1.5951 -0.8941  0.6426
12827TIP3   OH259895   0.568   1.704  15.898  0.8036  0.1500  0.0738
12827TIP3    H159896   0.540   1.729  15.810  1.8758  0.4506 -0.1979
12827TIP3    H259897   0.541   1.612  15.907  3.3693 -0.8951 -1.7778
12828TIP3   OH259898   0.787   5.650   5.363 -0.0612 -0.2921  0.5882
12828TIP3    H159899   0.809   5.631   5.272  0.4388  0.4042  0.5575
12828TIP3    H259900   0.832   5.582   5.413 -0.2419 -0.6072  0.3235
12829TIP3   OH259901   3.198   0.195   3.353 -0.6801  0.0298  0.0058
12829TIP3    H159902   3.128   0.131   3.347  0.3864 -1.0952 -0.8113
12829TIP3    H259903   3.153   0.280   3.351 -1.9400 -0.6316 -1.6691
12830TIP3   OH259904   3.367   4.407   4.771  0.1262  0.1192 -0.1844
12830TIP3    H159905   3.336   4.322   4.743  0.2905  0.1997 -0.6226
12830TIP3    H259906   3.414   4.442   4.695  2.5522 -0.6072  0.8594
12831TIP3   OH259907   3.810   2.927   4.074 -0.0863 -0.2776 -1.0375
12831TIP3    H159908   3.830   2.900   4.164 -0.9251 -0.6541 -0.9448
12831TIP3    H259909   3.831   3.020   4.071 -1.0052 -0.0144 -0.1363
12832TIP3   OH259910   5.646   3.155  13.553  0.0848  0.3192  0.2992
12832TIP3    H159911   5.590   3.197  13.618  2.5689  2.2355  1.4108
12832TIP3    H259912   5.667   3.070  13.592 -0.2169  0.5393  0.9659
12833TIP3   OH259913   2.108   5.179  15.011 -0.3424  0.3920 -0.3923
12833TIP3    H159914   2.086   5.262  15.052 -1.2867  0.4105 -0.9053
12833TIP3    H259915   2.101   5.196  14.917  1.2845  0.2150 -0.5739
12834TIP3   OH259916   6.026   0.847   2.274  0.2297  0.1158 -0.1977
12834TIP3    H159917   6.007   0.872   2.184  0.2402 -0.4693 -0.3640
12834TIP3    H259918   6.005   0.754   2.278 -0.7617  0.3557  0.6730
12835TIP3   OH259919   3.523   4.745   3.843  0.3334  0.2757  0.5697
12835TIP3    H159920   3.538   4.767   3.935  1.3623 -1.4015  0.8285
12835TIP3    H259921   3.564   4.660   3.831 -2.0233 -0.7593 -0.7945
12836TIP3   OH259922   6.134   0.274   4.037 -0.1568  0.1003 -0.1923
12836TIP3    H159923   6.076   0.342   4.073 -0.4168 -1.3337  2.3220
12836TIP3    H259924   6.091   0.245   3.957 -1.9723  0.3627  0.6532
12837TIP3   OH259925   0.635   3.949  16.643 -0.0856 -0.2363 -0.5350
12837TIP3    H159926   0.586   3.867  16.636 -3.0593  1.5235 -2.0053
12837TIP3    H259927   0.651   3.976  16.553  1.2203  0.6432 -0.0841
12838TIP3   OH259928   4.656   1.255  14.989 -0.0149 -0.1058 -0.0194
12838TIP3    H159929   4.682   1.329  15.042 -0.3305 -0.5726  0.8072
12838TIP3    H259930   4.695   1.272  14.903  0.2716  0.7913  0.2768
12839TIP3   OH259931   0.849   2.270  16.260  0.2361 -0.3795 -0.5518
12839TIP3    H159932   0.883   2.192  16.216  1.1813 -0.8309  0.9191
12839TIP3    H259933   0.909   2.340  16.236 -1.3239  0.2588 -2.9168
12840TIP3   OH259934   1.110   0.183   2.778  0.2493  0.0038  0.2679
12840TIP3    H159935   1.051   0.240   2.827  0.8474  0.5545  0.3619
12840TIP3    H259936   1.144   0.239   2.708  0.6301 -0.3209  0.1932
12841TIP3   OH259937   0.900   0.302  12.664  0.3821  0.2166  0.0275
12841TIP3    H159938   0.891   0.290  12.569 -1.6449 -0.4624  0.2492
12841TIP3    H259939   0.916   0.214  12.698  1.3801  0.4957  0.3086
12842TIP3   OH259940   0.503   5.334   5.900 -0.1334  0.2769 -0.6791
12842TIP3    H159941   0.475   5.276   5.971  0.1042 -0.0717 -0.8659
12842TIP3    H259942   0.541   5.275   5.835  1.6472  0.7816 -0.1500
12843TIP3   OH259943   3.544   2.502  15.963  0.7930 -0.6200 -0.3464
12843TIP3    H159944   3.526   2.590  15.996 -2.8177 -1.5825  0.6204
12843TIP3    H259945   3.537   2.511  15.868 -0.4219  0.0091 -0.2182
12844TIP3   OH259946   0.023   1.768   3.627 -0.0941 -0.6878  0.2643
12844TIP3    H159947  -0.042   1.793   3.561 -0.3157  1.1599  1.1047
12844TIP3    H259948  -0.017   1.694   3.673 -0.6910 -0.8887 -0.5534
12845TIP3   OH259949   4.724   4.204  17.074 -0.1887 -0.1457  0.1726
12845TIP3    H159950   4.737   4.295  17.048  0.8110 -0.6413 -1.2333
12845TIP3    H259951   4.743   4.202  17.167  1.9859  0.7223 -0.1966
12846TIP3   OH259952   5.091   3.727   1.279 -0.0183  0.1459 -0.0896
12846TIP3    H159953   5.027   3.662   1.309 -0.6812  1.0038  0.4451
12846TIP3    H259954   5.175   3.694   1.309 -0.5334  0.4025  1.8368
12847TIP3   OH259955   1.641   5.291  11.718  0.3398 -0.5979 -1.1070
12847TIP3    H159956   1.693   5.216  11.688 -0.1101 -1.8219  0.9312
12847TIP3    H259957   1.551   5.258  11.722 -0.0297  0.3689 -1.1492
12848TIP3   OH259958   1.884   5.991   5.945 -0.4747 -0.1868  0.1908
12848TIP3    H159959   1.940   5.914   5.935  0.2222  0.3224  0.0980
12848TIP3    H259960   1.847   6.005   5.858 -2.5213 -1.8290  0.7304
12849TIP3   OH259961   0.175   4.401   6.025 -0.9295 -0.2373 -0.0399
12849TIP3    H159962   0.122   4.357   6.092  1.5390 -1.3417  1.2913
12849TIP3    H259963   0.209   4.479   6.069 -0.4628 -0.1873 -0.4836
12850TIP3   OH259964   0.448   2.700  16.941  0.6187  0.5093 -0.3434
12850TIP3    H159965   0.454   2.693  16.846  0.7201  3.3386 -0.6516
12850TIP3    H259966   0.526   2.750  16.966  0.8626 -0.6234  1.3248
12851TIP3   OH259967   1.517   3.291   0.891  0.5909  0.1989 -0.0277
12851TIP3    H159968   1.555   3.341   0.963  2.9770  0.7657 -1.5734
12851TIP3    H259969   1.588   3.233   0.861 -1.2805 -2.3031  0.0149
12852TIP3   OH259970   1.466   4.684   1.578 -0.1274 -0.0804  0.0753
12852TIP3    H159971   1.506   4.732   1.505 -2.3869  1.1346 -0.4379
12852TIP3    H259972   1.534   4.682   1.645  1.9492 -1.0164 -1.9155
12853TIP3   OH259973   5.654   4.241  16.106  0.8748  0.7277 -0.5107
12853TIP3    H159974   5.716   4.229  16.034  0.0822 -2.6114 -0.8172
12853TIP3    H259975   5.568   4.231  16.065  0.4118 -1.1582  0.7907
12854TIP3   OH259976   2.990   5.648  16.502 -0.0957  0.6138  0.0651
12854TIP3    H159977   2.991   5.611  16.414 -2.7483 -1.3200  0.7068
12854TIP3    H259978   3.055   5.598  16.551  0.9451  1.2802 -0.6105
12855TIP3   OH259979   4.585   6.202  14.728  0.3504 -0.0926 -0.2477
12855TIP3    H159980   4.611   6.289  14.755  0.4504 -0.6156  1.4446
12855TIP3    H259981   4.530   6.169  14.799 -1.1259 -0.7884 -1.6180
12856TIP3   OH259982   6.370   2.132  13.455  0.1621 -0.7637  0.2696
12856TIP3    H159983   6.355   2.180  13.536  2.7216 -1.5629  1.3325
12856TIP3    H259984   6.377   2.199  13.387  3.6615  0.5417  1.7029
12857TIP3   OH259985   4.971   0.414  12.224  0.2405  0.3635 -0.1443
12857TIP3    H159986   4.926   0.444  12.303 -0.7641  0.5845 -0.7662
12857TIP3    H259987   4.983   0.320  12.236 -1.6442  0.0338 -0.5031
12858TIP3   OH259988   3.795   5.094   3.323  0.1814  0.5325  0.2667
12858TIP3    H159989   3.830   5.053   3.402  0.2986  0.0434 -0.0312
12858TIP3    H259990   3.843   5.177   3.316  0.3785  0.4453  0.5507
12859TIP3   OH259991   5.086   3.600  14.037 -0.2391 -0.4313  0.0613
12859TIP3    H159992   5.026   3.578  13.966  0.3488 -2.1043  0.0378
12859TIP3    H259993   5.169   3.560  14.012  0.8849  1.6684  0.1891
12860TIP3   OH259994   1.713   6.714   2.976  0.2975 -0.5866 -0.4455
12860TIP3    H159995   1.765   6.794   2.985  1.7266 -1.5116 -0.1516
12860TIP3    H259996   1.649   6.734   2.907  0.8838  0.6540 -0.6567
12861TIP3   OH259997   1.876   3.341   3.593  0.1253  0.1205 -0.6305
12861TIP3    H159998   1.891   3.429   3.629  0.6445 -0.1310 -0.2119
12861TIP3    H259999   1.875   3.284   3.670 -1.8758 -0.0486 -0.7442
12862TIP3   OH260000   4.256   0.231   3.112  0.1195  0.2700  0.0432
12862TIP3    H160001   4.312   0.205   3.186 -1.7607  0.7472  1.7526
12862TIP3    H260002   4.193   0.159   3.104  0.8795 -0.2383 -1.7980
12863TIP3   OH260003   5.775   6.014   1.522  0.0470  0.1688  0.7312
12863TIP3    H160004   5.706   6.054   1.470  0.6055  0.5874  0.3095
12863TIP3    H260005   5.857   6.037   1.478  0.4251 -0.9195  0.8110
12864TIP3   OH260006   1.480   3.693   2.345  0.1193  0.8557 -0.5690
12864TIP3    H160007   1.421   3.694   2.420 -0.3068  0.2789 -0.8838
12864TIP3    H260008   1.566   3.671   2.382 -0.2582 -0.3242 -0.3475
12865TIP3   OH260009   3.599   3.378  14.774  0.0491  0.0702  0.1740
12865TIP3    H160010   3.632   3.288  14.777 -0.7317 -0.1992  0.9020
12865TIP3    H260011   3.671   3.431  14.810  0.8470 -0.1380 -1.0476
12866TIP3   OH260012   6.638   3.663  12.495 -0.2818 -0.0827 -0.0892
12866TIP3    H160013   6.636   3.606  12.419 -0.7379  2.6464 -2.2938
12866TIP3    H260014   6.549   3.658  12.531 -0.8615  0.5528 -1.3705
12867TIP3   OH260015   4.615   1.495  16.904  0.3992  0.2258 -0.3025
12867TIP3    H160016   4.576   1.567  16.854 -0.3522 -0.1583 -0.2805
12867TIP3    H260017   4.585   1.416  16.860  3.3261 -0.1061 -1.9430
12868TIP3   OH260018   3.567   4.838   6.464 -0.1304  0.0693 -0.1653
12868TIP3    H160019   3.662   4.834   6.455 -0.0598 -0.4921  0.6811
12868TIP3    H260020   3.547   4.931   6.468  0.4759  0.1809  0.4784
12869TIP3   OH260021   2.516   1.824   0.639 -0.4936 -0.3158  0.2699
12869TIP3    H160022   2.481   1.739   0.611  0.5655 -0.3392 -1.1160
12869TIP3    H260023   2.605   1.825   0.605 -0.5728  1.4542  0.0194
12870TIP3   OH260024   2.181   5.913   3.831  0.6656  0.3847 -0.0112
12870TIP3    H160025   2.161   5.987   3.774  0.3289 -0.2169 -0.6975
12870TIP3    H260026   2.262   5.877   3.795  1.0660  0.6725  0.5863
12871TIP3   OH260027   5.107   0.285  15.948 -0.0725 -0.0596  0.2162
12871TIP3    H160028   5.019   0.266  15.977 -0.2486 -0.3081 -0.4501
12871TIP3    H260029   5.151   0.200  15.944 -0.0066 -0.0159 -0.0759
12872TIP3   OH260030   5.965   5.053  13.333 -0.4159 -0.1418 -0.0009
12872TIP3    H160031   6.040   5.072  13.389 -0.6819 -0.6596  0.5464
12872TIP3    H260032   5.919   4.982  13.378 -0.0130 -1.3778 -1.4429
12873TIP3   OH260033   5.502   0.527   3.187  0.1261 -0.0221  0.0993
12873TIP3    H160034   5.567   0.458   3.176  0.7554  0.6579 -0.5525
12873TIP3    H260035   5.511   0.581   3.109 -0.4293  0.7423  0.5494
12874TIP3   OH260036   1.517   1.513   1.761 -0.7970 -0.8415  0.1817
12874TIP3    H160037   1.547   1.604   1.753 -1.4065 -0.7355 -1.1158
12874TIP3    H260038   1.442   1.518   1.820 -1.4618 -0.3292 -0.6804
12875TIP3   OH260039   2.315   0.019   5.857 -0.0313  0.3234 -0.1524
12875TIP3    H160040   2.392   0.073   5.876 -0.3152  0.3875  0.8786
12875TIP3    H260041   2.306   0.022   5.762  1.7031 -0.3264 -0.3756
12876TIP3   OH260042   2.396   4.533   2.033  0.4007 -0.4267  0.1077
12876TIP3    H160043   2.443   4.599   1.982 -0.5200 -0.0208 -0.2444
12876TIP3    H260044   2.464   4.488   2.083  0.9570  1.6235  1.3573
12877TIP3   OH260045   5.920   3.036  17.360  0.3621 -0.0986 -0.6234
12877TIP3    H160046   5.834   2.994  17.357  0.7068 -1.0212  1.0353
12877TIP3    H260047   5.964   2.994  17.434  2.0138  0.8009 -1.0547
12878TIP3   OH260048   2.660   5.381  15.674 -0.5426  0.4205 -0.4893
12878TIP3    H160049   2.623   5.321  15.609  0.4225 -1.2888  0.4759
12878TIP3    H260050   2.594   5.450  15.683 -2.2065 -1.0439 -0.8798
12879TIP3   OH260051   6.214   6.753  13.118 -0.3664  0.7080  0.1378
12879TIP3    H160052   6.239   6.844  13.105  1.7515  0.1843  0.1737
12879TIP3    H260053   6.225   6.738  13.212  2.5067 -0.3683 -0.2650
12880TIP3   OH260054   5.480   4.086  11.404  0.1070  0.0474  0.2258
12880TIP3    H160055   5.569   4.087  11.439  0.4877  1.6813 -0.6907
12880TIP3    H260056   5.456   4.178  11.398 -1.3998 -0.3486 -0.1625
12881TIP3   OH260057   2.742   1.632   2.024  0.5115 -0.2142 -0.2295
12881TIP3    H160058   2.771   1.554   2.072  1.3160 -0.0593 -0.4458
12881TIP3    H260059   2.665   1.663   2.072  2.8723  1.5779  2.7305
12882TIP3   OH260060   3.327   4.925   1.164 -0.0267 -0.2572  0.7161
12882TIP3    H160061   3.340   5.008   1.210 -0.8964 -0.2974  1.0595
12882TIP3    H260062   3.415   4.888   1.156  0.5793  1.3563 -0.7371
12883TIP3   OH260063   3.895   1.136  15.102  0.0896 -0.0008 -0.4486
12883TIP3    H160064   3.842   1.182  15.037 -1.4119 -2.1638 -0.8641
12883TIP3    H260065   3.904   1.198  15.174 -0.6055  1.4466 -1.5561
12884TIP3   OH260066   0.976   6.238  16.175 -0.0234 -0.1941  0.0699
12884TIP3    H160067   0.987   6.208  16.265 -0.1639  0.1300  0.1961
12884TIP3    H260068   0.931   6.322  16.183 -0.5828 -0.4536 -0.3346
12885TIP3   OH260069   5.398   6.179  17.013  0.5782  0.6830 -0.1567
12885TIP3    H160070   5.326   6.144  16.960 -0.0543  0.5313  0.7734
12885TIP3    H260071   5.373   6.270  17.030  1.6383  1.2748 -1.5723
12886TIP3   OH260072   5.079   1.738   0.155  0.1834  0.8464 -0.5906
12886TIP3    H160073   5.097   1.832   0.160 -0.9185  1.1666 -1.9089
12886TIP3    H260074   5.048   1.724   0.065  0.5681 -0.8324 -0.4972
12887TIP3   OH260075   2.513   3.776  12.555  1.0155  0.1150  0.1284
12887TIP3    H160076   2.566   3.764  12.634  0.2809 -0.6181  0.5257
12887TIP3    H260077   2.434   3.725  12.571  0.5357  0.5469 -0.7874
12888TIP3   OH260078   4.418   6.007  13.322 -0.3631  0.0004  0.0645
12888TIP3    H160079   4.440   6.018  13.229 -2.4112  0.0245 -0.4693
12888TIP3    H260080   4.414   5.912  13.334  1.3480 -0.0334  0.5280
12889TIP3   OH260081   3.497   1.129  14.267  0.3693  0.0283  0.2926
12889TIP3    H160082   3.417   1.174  14.242 -0.4388  0.0200  2.5809
12889TIP3    H260083   3.473   1.036  14.266  0.7629 -0.0689 -0.3330
12890TIP3   OH260084   1.024   2.294   3.957  0.1226  0.1119 -0.0551
12890TIP3    H160085   1.012   2.208   3.998  2.2901  1.2802  3.5987
12890TIP3    H260086   1.102   2.283   3.903  0.6666 -0.1573  0.7591
12891TIP3   OH260087   6.167   1.422  16.399  0.0624 -0.2835 -0.0413
12891TIP3    H160088   6.097   1.481  16.370 -0.5825 -1.4320 -0.8737
12891TIP3    H260089   6.224   1.478  16.453 -0.1999  1.2538 -1.2722
12892TIP3   OH260090   1.095   3.749  15.430 -0.3666  0.0831 -0.4788
12892TIP3    H160091   1.106   3.835  15.471 -1.0244 -0.4768  0.9100
12892TIP3    H260092   1.007   3.720  15.457 -0.0116 -1.1836 -0.6172
12893TIP3   OH260093   1.339   3.204  17.139  0.8457 -0.0182 -0.4490
12893TIP3    H160094   1.250   3.235  17.152  0.7233  0.3100 -1.9186
12893TIP3    H260095   1.341   3.117  17.180  0.0359  0.2167  0.1081
12894TIP3   OH260096   3.024   5.195   5.590 -0.0814 -0.9889 -0.2450
12894TIP3    H160097   3.093   5.169   5.652  0.1729 -1.3918 -0.6943
12894TIP3    H260098   3.053   5.280   5.557  0.8225 -1.6773 -1.3156
12895TIP3   OH260099   1.461   4.821   2.498 -0.5268  0.2524 -0.2167
12895TIP3    H160100   1.484   4.775   2.417 -1.4699 -0.1383 -0.2688
12895TIP3    H260101   1.458   4.914   2.473  0.9697  0.3306 -0.2058
12896TIP3   OH260102   4.460   6.448   0.019  0.4117 -0.1077  0.1537
12896TIP3    H160103   4.530   6.444  -0.045  1.4634 -0.8322  1.2957
12896TIP3    H260104   4.426   6.359   0.024 -0.7196  0.2730 -0.5111
12897TIP3   OH260105   1.519   3.398  14.002  0.2850  0.1493  0.6046
12897TIP3    H160106   1.458   3.402  14.076 -0.7423  0.1371 -0.2116
12897TIP3    H260107   1.601   3.434  14.035 -1.3677  4.5012  0.5545
12898TIP3   OH260108   6.687   4.311   2.380  0.0435  0.4957  0.0427
12898TIP3    H160109   6.708   4.404   2.368  1.2924  0.2752  0.3823
12898TIP3    H260110   6.674   4.302   2.475  3.1553 -0.2552  0.5049
12899TIP3   OH260111   6.221   6.145   0.021 -0.0386 -0.1531 -0.1251
12899TIP3    H160112   6.244   6.052   0.023 -0.0366 -0.1786 -1.1725
12899TIP3    H260113   6.162   6.154  -0.053 -0.9576  0.4863  0.6540
12900TIP3   OH260114   1.266   6.451  12.869  0.0636 -0.0814 -0.2112
12900TIP3    H160115   1.312   6.452  12.953  0.1838 -1.0546 -0.2599
12900TIP3    H260116   1.278   6.540  12.835 -1.6222  0.9623  1.6732
12901TIP3   OH260117   2.393   0.520   3.325  0.1025 -0.6152  0.2416
12901TIP3    H160118   2.344   0.588   3.279  2.0736  0.7924  0.0751
12901TIP3    H260119   2.428   0.465   3.255  1.2416  0.2025  0.1361
12902TIP3   OH260120   2.612   3.876   2.116 -0.1895 -0.4553  0.5890
12902TIP3    H160121   2.544   3.941   2.133 -1.8075 -1.6480 -0.9310
12902TIP3    H260122   2.569   3.792   2.130  1.5374 -1.2517  1.4184
12903TIP3   OH260123   0.768   3.143   4.958 -0.0938  0.0341  0.1683
12903TIP3    H160124   0.739   3.055   4.935 -1.7877  1.0569 -1.8602
12903TIP3    H260125   0.716   3.166   5.035 -0.0495 -0.5005  0.3628
12904TIP3   OH260126   0.553   6.217  14.328 -0.0575  0.4561  0.0330
12904TIP3    H160127   0.534   6.180  14.414  0.6747  1.5287  0.6611
12904TIP3    H260128   0.641   6.252  14.334 -1.0312  3.2069 -0.1996
12905TIP3   OH260129   2.096   6.265   0.989 -0.1238 -0.5713 -0.5291
12905TIP3    H160130   2.167   6.233   1.044  0.8554  1.6165 -0.4324
12905TIP3    H260131   2.104   6.214   0.908  0.4499 -1.5674  0.1384
12906TIP3   OH260132   3.404   1.253   2.061 -0.0538  0.0522  0.5858
12906TIP3    H160133   3.394   1.171   2.111  0.5668 -0.3981 -0.0220
12906TIP3    H260134   3.485   1.242   2.012 -0.4364  0.6622 -0.2099
12907TIP3   OH260135   5.189   4.007  16.809 -0.0796  0.7435 -0.1376
12907TIP3    H160136   5.221   4.054  16.733 -0.9283 -2.3193 -2.6041
12907TIP3    H260137   5.248   3.931  16.817 -1.0276  0.0965  1.2041
12908TIP3   OH260138   1.919   0.428  13.315  0.1320  0.5401 -0.0252
12908TIP3    H160139   1.940   0.515  13.349 -0.2850 -0.2953  2.6528
12908TIP3    H260140   1.975   0.368  13.365  0.2615 -0.7825 -1.6478
12909TIP3   OH260141   2.610   4.244   3.103 -0.1659 -0.3362 -0.2886
12909TIP3    H160142   2.613   4.329   3.146  1.2689  0.1152 -1.2010
12909TIP3    H260143   2.620   4.181   3.174  0.9938  0.3522  0.1922
12910TIP3   OH260144   0.067   2.537   3.674 -0.0434 -0.0314  0.5414
12910TIP3    H160145   0.134   2.491   3.724 -0.7245 -1.3703  0.2752
12910TIP3    H260146   0.039   2.609   3.730  1.1819  0.1791  0.8949
12911TIP3   OH260147   1.395   4.175   4.221 -0.5236  0.5932  0.4799
12911TIP3    H160148   1.408   4.197   4.129  0.3665 -0.9248  0.2028
12911TIP3    H260149   1.301   4.159   4.229 -0.4618 -0.3343 -0.4494
12912TIP3   OH260150   6.061   2.376  12.926 -0.0923 -0.1047  0.3098
12912TIP3    H160151   6.026   2.453  12.883 -0.3468 -0.9769 -1.1021
12912TIP3    H260152   6.151   2.370  12.894 -0.2899 -0.7715 -0.1414
12913TIP3   OH260153   5.527   1.938   2.821 -0.5409  0.6258 -0.0144
12913TIP3    H160154   5.609   1.986   2.808  0.1059 -0.2916  0.5413
12913TIP3    H260155   5.552   1.846   2.815 -1.6734  0.3366 -0.5727
12914TIP3   OH260156   5.976   1.702   5.410 -0.3243 -0.2050 -0.1930
12914TIP3    H160157   5.944   1.688   5.499 -1.9673  1.2909 -0.4963
12914TIP3    H260158   6.071   1.714   5.420 -0.5378  0.3430  1.4021
12915TIP3   OH260159   2.070   4.474  15.800 -0.4292  0.0008  0.6187
12915TIP3    H160160   2.074   4.397  15.743 -1.6610 -0.0643  0.5765
12915TIP3    H260161   2.082   4.439  15.888 -1.5135 -0.3370  0.6479
12916TIP3   OH260162   4.205   6.201   0.163  0.1036  0.2068  0.2625
12916TIP3    H160163   4.178   6.116   0.197  0.2090 -0.1206 -0.4531
12916TIP3    H260164   4.141   6.222   0.096  0.2162  0.5797  0.2676
12917TIP3   OH260165   6.359   2.861   4.934 -0.1082  0.2009  0.2453
12917TIP3    H160166   6.379   2.889   5.023  0.4051  1.9280 -0.3613
12917TIP3    H260167   6.371   2.766   4.935  0.0734  0.2193  1.9597
12918TIP3   OH260168   0.311   6.571   3.957  0.1212  0.2061 -0.0158
12918TIP3    H160169   0.264   6.528   4.029 -1.4485 -0.0945 -1.1542
12918TIP3    H260170   0.317   6.662   3.983  1.8810 -0.3124  1.6226
12919TIP3   OH260171   2.186   2.514   3.812  0.1648 -0.0491  0.2686
12919TIP3    H160172   2.279   2.499   3.830  0.1473  0.9565  1.2588
12919TIP3    H260173   2.147   2.532   3.897 -0.6592  0.9687 -0.2981
12920TIP3   OH260174   5.037   1.072   1.677  0.0192 -0.5606 -0.3839
12920TIP3    H160175   5.007   1.128   1.748 -0.0124 -0.1305 -0.7334
12920TIP3    H260176   5.114   1.027   1.713  0.3837  0.1265 -0.2814
12921TIP3   OH260177   0.089   4.786   2.917 -0.0240  0.8495 -0.1840
12921TIP3    H160178   0.175   4.807   2.953  0.6752 -1.0278 -0.6470
12921TIP3    H260179   0.033   4.778   2.994 -0.2321  3.5710  0.0673
12922TIP3   OH260180   6.669   0.882   0.662 -0.2686 -0.1274 -0.6065
12922TIP3    H160181   6.582   0.918   0.679 -0.1368  0.4926 -1.2092
12922TIP3    H260182   6.686   0.900   0.570  0.9155  0.6998 -0.2612
12923TIP3   OH260183   5.101   3.095   0.398 -0.1619 -0.4190  0.0728
12923TIP3    H160184   5.178   3.080   0.343  0.2278  0.4519  0.3664
12923TIP3    H260185   5.134   3.088   0.487 -0.4347 -0.0976  0.1996
12924TIP3   OH260186   4.182   4.333   3.364 -0.2181  0.0862  0.7326
12924TIP3    H160187   4.177   4.399   3.433  0.2913  0.9678 -0.0540
12924TIP3    H260188   4.236   4.263   3.401  0.7595  0.9265  0.9353
12925TIP3   OH260189   3.126   4.774  11.513  0.3742 -0.1730 -0.0524
12925TIP3    H160190   3.169   4.840  11.459  2.5978 -1.7013 -0.2768
12925TIP3    H260191   3.119   4.697  11.457 -0.3377 -0.7585  0.8052
12926TIP3   OH260192   0.964   3.694  14.250  0.2122 -0.0075  0.3029
12926TIP3    H160193   0.912   3.618  14.275  0.6157 -0.6679 -0.8016
12926TIP3    H260194   0.928   3.722  14.166 -1.7380  2.7472  1.8662
12927TIP3   OH260195   5.335   3.707  15.602 -0.1656 -0.0050  0.1717
12927TIP3    H160196   5.313   3.691  15.694 -0.3648  0.8134  0.2734
12927TIP3    H260197   5.351   3.802  15.597  1.3515 -0.2554 -0.3196
12928TIP3   OH260198   3.332   1.852  16.902  0.7428  0.8744 -0.6364
12928TIP3    H160199   3.271   1.919  16.871 -1.2688  0.3324  1.7957
12928TIP3    H260200   3.289   1.769  16.879  1.1121  0.4700  0.1146
12929TIP3   OH260201   4.418   0.393   3.341  0.4552 -0.0114 -0.6668
12929TIP3    H160202   4.409   0.314   3.288  1.7895 -0.4548 -0.2809
12929TIP3    H260203   4.373   0.372   3.423 -1.3585  0.5721 -1.4617
12930TIP3   OH260204   6.294   1.950  12.037 -0.0450 -0.0940 -0.0879
12930TIP3    H160205   6.389   1.940  12.044  0.2585  1.6971 -1.1908
12930TIP3    H260206   6.263   1.864  12.007  1.2121 -0.6973  0.2814
12931TIP3   OH260207   4.276   1.388   1.638  0.1078 -0.0016 -0.3221
12931TIP3    H160208   4.235   1.472   1.621  0.7136  0.1401 -1.1114
12931TIP3    H260209   4.366   1.409   1.663  1.6182 -0.4911 -4.5341
12932TIP3   OH260210   1.949   1.807   3.043  0.2065 -0.2676  0.3107
12932TIP3    H160211   1.985   1.869   2.980 -3.2654  0.9734 -0.6967
12932TIP3    H260212   1.971   1.721   3.008  1.5383  0.4053 -0.5615
12933TIP3   OH260213   2.331   6.533  11.933  0.7902 -0.0958 -0.6323
12933TIP3    H160214   2.419   6.570  11.930  0.9587 -0.1097  1.7299
12933TIP3    H260215   2.290   6.561  11.851  2.3446  1.5774 -0.9114
12934TIP3   OH260216   6.182   6.119  12.718  0.2947  0.6087  0.0544
12934TIP3    H160217   6.209   6.206  12.687 -1.1326  0.9186 -0.4133
12934TIP3    H260218   6.131   6.136  12.797  0.6056  0.1346  0.3587
12935TIP3   OH260219   6.330   2.740  17.028 -0.0229 -0.3264 -0.9786
12935TIP3    H160220   6.408   2.686  17.039  0.0556 -0.0021  0.1111
12935TIP3    H260221   6.273   2.688  16.971  0.9435 -0.5939 -1.7329
12936TIP3   OH260222   6.471   5.868  13.375 -0.0959  0.8318  0.2465
12936TIP3    H160223   6.547   5.918  13.346  0.2664  0.7860  1.1058
12936TIP3    H260224   6.488   5.847  13.467 -0.2964 -0.7612 -0.0402
12937TIP3   OH260225   0.876   5.562  16.970 -0.8722  0.2028  0.2695
12937TIP3    H160226   0.924   5.508  16.907  1.0086  1.7062  0.3317
12937TIP3    H260227   0.883   5.515  17.052  0.6844  0.4419  0.3093
12938TIP3   OH260228   0.531   5.490   4.468  0.0215 -0.2153 -0.3044
12938TIP3    H160229   0.576   5.442   4.538 -1.6889  0.6962  1.5101
12938TIP3    H260230   0.530   5.581   4.499 -1.6361  0.0413 -1.0233
12939TIP3   OH260231   1.731   1.151  13.556  0.1162  0.0255  0.0285
12939TIP3    H160232   1.799   1.181  13.616 -0.3249  2.3653 -0.5272
12939TIP3    H260233   1.764   1.174  13.469  0.9620 -3.7125 -0.8213
12940TIP3   OH260234   0.606   0.014  14.805  0.0123  0.7121  0.4071
12940TIP3    H160235   0.546   0.078  14.767  0.2968 -0.2435 -1.7610
12940TIP3    H260236   0.557  -0.026  14.877 -2.3434 -0.6928 -1.8589
12941TIP3   OH260237   1.470   3.819   0.718 -0.0381  0.2035  0.0090
12941TIP3    H160238   1.434   3.907   0.713  0.0655  0.2412 -0.0723
12941TIP3    H260239   1.439   3.775   0.639 -2.5063 -0.7533  1.3832
12942TIP3   OH260240   3.862   3.189  13.343  0.3602  0.3319 -0.0020
12942TIP3    H160241   3.929   3.133  13.382 -0.2773 -0.4213  0.0576
12942TIP3    H260242   3.780   3.143  13.361 -0.1961  1.3538  0.1296
12943TIP3   OH260243   3.104   2.127  11.758 -0.7084 -0.1531  0.2192
12943TIP3    H160244   3.193   2.161  11.752 -1.2257  1.8452  2.5664
12943TIP3    H260245   3.058   2.168  11.685  0.1275 -0.8124 -0.7075
12944TIP3   OH260246   0.621   0.587  14.432  0.7264  0.7613 -0.1643
12944TIP3    H160247   0.632   0.572  14.526  2.8213 -0.2485 -0.5165
12944TIP3    H260248   0.564   0.516  14.403  0.2160  0.9741  0.2966
12945TIP3   OH260249   2.355   5.870   1.014 -0.3188 -0.4112  0.6504
12945TIP3    H160250   2.440   5.912   1.009 -0.9771  0.8294 -1.6419
12945TIP3    H260251   2.337   5.862   1.108  1.6048  0.7362  1.1665
12946TIP3   OH260252   1.047   1.222  12.164  0.2118 -0.2393  0.2856
12946TIP3    H160253   1.045   1.246  12.072 -1.0022 -0.5379  0.2156
12946TIP3    H260254   1.108   1.285  12.204 -0.6509  1.0816 -0.4037
12947TIP3   OH260255   1.769   6.597  14.562 -0.2607 -0.5801 -0.1777
12947TIP3    H160256   1.832   6.539  14.518  1.0184  1.4848 -1.2604
12947TIP3    H260257   1.734   6.652  14.491  1.9587  2.9637  1.1952
12948TIP3   OH260258   4.267   4.697   5.763 -0.4519 -0.2345  0.3989
12948TIP3    H160259   4.241   4.779   5.805  0.5609  0.3654 -0.1162
12948TIP3    H260260   4.274   4.718   5.670 -1.3413 -1.2112  0.0882
12949TIP3   OH260261   1.160   5.681  12.250 -0.0365  0.1859 -0.4730
12949TIP3    H160262   1.133   5.717  12.166  0.9380 -0.8184 -1.2636
12949TIP3    H260263   1.250   5.652  12.235 -0.0609 -0.5857  0.7315
12950TIP3   OH260264   3.999   5.969  12.995 -0.6073 -0.3103 -0.2204
12950TIP3    H160265   3.942   5.893  13.008 -0.9817  0.1401  0.8670
12950TIP3    H260266   3.940   6.044  12.994 -0.0289  0.2286  1.5371
12951TIP3   OH260267   2.977   4.993  11.283 -0.1011  0.1848  0.9808
12951TIP3    H160268   3.044   5.061  11.292 -0.6681  0.8055  0.5920
12951TIP3    H260269   3.024   4.919  11.245 -0.0242  1.3081 -1.2929
12952TIP3   OH260270   2.571   2.369  15.060  0.4569  0.0819  0.1950
12952TIP3    H160271   2.566   2.300  14.994  0.8114  0.6795 -0.4786
12952TIP3    H260272   2.492   2.357  15.113 -0.4434  0.2755 -1.0411
12953TIP3   OH260273   2.489   2.261   4.366 -0.0903 -0.4434  0.1320
12953TIP3    H160274   2.476   2.176   4.325  1.3017  0.3844 -2.2527
12953TIP3    H260275   2.584   2.274   4.366 -0.1949  0.7013  1.4144
12954TIP3   OH260276   3.138   3.969  16.238 -0.3206 -0.3767 -0.3486
12954TIP3    H160277   3.137   4.056  16.278  0.0330 -0.3967 -0.2946
12954TIP3    H260278   3.046   3.952  16.218 -0.2401  0.6504 -1.7537
12955TIP3   OH260279   5.895   3.346  11.000 -0.8316  0.3912 -0.0107
12955TIP3    H160280   5.894   3.390  10.915  1.8166  1.2898  0.3523
12955TIP3    H260281   5.919   3.414  11.063 -0.0824 -0.8278  1.0678
12956TIP3   OH260282   3.904   3.384   3.030  0.7406  0.0186 -0.0117
12956TIP3    H160283   3.930   3.475   3.045 -1.6531  0.8354 -0.3793
12956TIP3    H260284   3.811   3.388   3.011  0.8653 -2.3675 -1.6332
12957TIP3   OH260285   1.730   0.357   5.205  0.5514 -0.2757 -0.1759
12957TIP3    H160286   1.756   0.343   5.114 -0.5556  2.2089 -0.9537
12957TIP3    H260287   1.802   0.406   5.244  0.4730 -0.2496 -0.0611
12958TIP3   OH260288   6.288   5.355  15.184 -0.1984  0.2315  0.1810
12958TIP3    H160289   6.201   5.352  15.223 -0.8709  1.3900 -1.1347
12958TIP3    H260290   6.348   5.363  15.258 -1.3180  0.8502  1.0376
12959TIP3   OH260291   6.370   2.983  11.079 -0.0435  0.1831  0.0075
12959TIP3    H160292   6.436   2.957  11.016 -2.4193 -0.9860 -2.2043
12959TIP3    H260293   6.333   3.064  11.044  0.2399  0.8733  1.2449
12960TIP3   OH260294   1.724   3.837  14.764  0.0319 -0.3387 -0.6925
12960TIP3    H160295   1.798   3.824  14.823 -1.0717 -0.0461  0.8147
12960TIP3    H260296   1.670   3.758  14.775  0.7835 -1.2255 -2.8596
12961TIP3   OH260297   6.364   1.801  16.957  0.1949 -0.1570 -0.4856
12961TIP3    H160298   6.292   1.749  16.920 -0.7045  1.6008 -1.3388
12961TIP3    H260299   6.434   1.794  16.892  0.9101 -2.0135  0.4276
12962TIP3   OH260300   1.424   2.267   2.016  0.1496 -0.2898 -0.2166
12962TIP3    H160301   1.350   2.301   1.966  0.4033 -1.8230 -1.7184
12962TIP3    H260302   1.472   2.213   1.953  3.0326  1.2933  0.4555
12963TIP3   OH260303   5.349   0.731  15.046 -0.4141 -0.5175  0.2658
12963TIP3    H160304   5.408   0.707  15.117  0.5331  1.9659  0.4164
12963TIP3    H260305   5.275   0.774  15.089  0.0524  0.7929 -0.2038
12964TIP3   OH260306   6.597   6.397  14.312 -0.3896  0.3134  0.7727
12964TIP3    H160307   6.636   6.325  14.362 -0.2305 -1.4026 -1.6445
12964TIP3    H260308   6.503   6.380  14.315 -0.3030 -0.5206 -0.4511
12965TIP3   OH260309   2.475   6.623  13.860  0.0130 -0.4649  0.1865
12965TIP3    H160310   2.410   6.555  13.876  0.0335 -0.4319  0.4237
12965TIP3    H260311   2.558   6.576  13.851  0.1696 -0.4157  1.2312
12966TIP3   OH260312   2.135   0.208  14.003 -0.4695 -0.1198 -0.2597
12966TIP3    H160313   2.199   0.146  14.037  0.2656  0.9551  0.3855
12966TIP3    H260314   2.052   0.160  14.004  0.5813 -2.2403 -3.0110
12967TIP3   OH260315   6.615   1.756  17.340 -0.3711 -0.1240 -0.1197
12967TIP3    H160316   6.599   1.830  17.283 -1.9182 -0.5158 -0.2260
12967TIP3    H260317   6.682   1.787  17.402  1.1160  0.3953 -1.9040
12968TIP3   OH260318   0.734   0.177  11.725  0.5108 -0.0386 -0.0170
12968TIP3    H160319   0.760   0.090  11.755 -0.8720 -0.5419 -0.2276
12968TIP3    H260320   0.639   0.172  11.716  0.3779  1.5855  0.2381
12969TIP3   OH260321   1.958   3.479   0.606 -0.4435 -0.2871  0.5803
12969TIP3    H160322   1.969   3.421   0.531 -1.0008  1.1306 -0.6487
12969TIP3    H260323   2.022   3.548   0.592 -3.5619  2.5219 -1.1842
12970TIP3   OH260324   3.386   5.483  16.515 -0.1055 -0.3385  0.4709
12970TIP3    H160325   3.314   5.545  16.507 -0.2726 -0.5635  0.2128
12970TIP3    H260326   3.390   5.461  16.608  0.7928  1.0611  0.7865
12971TIP3   OH260327   3.554   5.278  15.062 -0.3842  0.3458 -0.0435
12971TIP3    H160328   3.482   5.241  15.012 -0.5601  0.4536  0.1296
12971TIP3    H260329   3.598   5.202  15.100 -0.6969  0.3075  0.2480
12972TIP3   OH260330   1.049   4.693   2.582 -0.0427  0.0982 -0.1420
12972TIP3    H160331   0.965   4.715   2.624 -0.2383 -0.2639 -0.3414
12972TIP3    H260332   1.044   4.599   2.566 -0.4168  0.4065 -1.9622
12973TIP3   OH260333   5.205   3.133  11.428  0.3139  0.0101 -0.1343
12973TIP3    H160334   5.199   3.059  11.367  2.2228  1.1991 -1.8961
12973TIP3    H260335   5.287   3.177  11.405  0.6589  1.0890  2.7390
12974TIP3   OH260336   4.914   2.984  15.344  0.4253 -0.3142 -0.2878
12974TIP3    H160337   4.944   3.043  15.275  0.2684 -1.3494 -1.2506
12974TIP3    H260338   4.920   2.897  15.306 -1.6563 -0.7417  0.2732
12975TIP3   OH260339   6.454   5.630  13.005  0.5035 -0.6938 -0.3997
12975TIP3    H160340   6.373   5.636  13.057  1.0515 -2.2365  0.7095
12975TIP3    H260341   6.424   5.634  12.914 -0.6955 -0.0995 -0.0079
12976TIP3   OH260342   4.636   0.163   4.697  0.1315 -0.4293 -0.1937
12976TIP3    H160343   4.607   0.249   4.669  0.1355  0.6448  2.7364
12976TIP3    H260344   4.724   0.154   4.659  0.3089  1.0612 -0.2040
12977TIP3   OH260345   2.672   5.435   1.135 -0.1086  0.2225  0.3372
12977TIP3    H160346   2.725   5.410   1.059  1.0827  1.9751  0.5380
12977TIP3    H260347   2.673   5.357   1.191 -0.3919 -0.8477 -1.0844
12978TIP3   OH260348   4.298   6.115   2.201 -0.0710  0.5792  0.1614
12978TIP3    H160349   4.252   6.108   2.117  1.1591 -2.7067 -0.3867
12978TIP3    H260350   4.228   6.112   2.267 -0.8810 -0.0020 -0.6972
12979TIP3   OH260351   6.037   3.229  15.521 -0.8246 -0.2248  0.0075
12979TIP3    H160352   6.038   3.159  15.455  0.8077 -0.7791  0.5557
12979TIP3    H260353   6.130   3.245  15.540 -1.2265  0.6611  1.4088
12980TIP3   OH260354   5.485   1.695  12.437  0.1080 -0.5575 -0.3702
12980TIP3    H160355   5.396   1.669  12.414  0.0542 -1.5419  0.8563
12980TIP3    H260356   5.489   1.688  12.533  1.6076 -0.9167 -0.4262
12981TIP3   OH260357   6.474   5.385  14.032 -0.4889  0.1207 -0.5594
12981TIP3    H160358   6.384   5.373  14.062 -0.8689  2.3380 -0.6342
12981TIP3    H260359   6.526   5.392  14.113 -0.9134  2.0435 -0.3977
12982TIP3   OH260360   0.755   6.549  11.320  0.3865  0.5904  0.5636
12982TIP3    H160361   0.705   6.518  11.245  1.5885  0.1177 -0.0683
12982TIP3    H260362   0.715   6.632  11.344  0.4664  1.1285 -1.0880
12983TIP3   OH260363   0.559   0.295   4.854 -0.2099  0.2352  0.1721
12983TIP3    H160364   0.510   0.376   4.843  0.5122  0.6061 -0.4353
12983TIP3    H260365   0.585   0.271   4.765  0.7020  0.0479  0.4835
12984TIP3   OH260366   2.058   6.023   3.395  0.6112 -0.1944 -0.1965
12984TIP3    H160367   2.117   5.984   3.331  2.0268 -0.6801  1.3247
12984TIP3    H260368   2.015   5.949   3.438  1.8416 -0.0758  1.3490
12985TIP3   OH260369   2.196   6.246  11.702  0.3121 -0.2921  1.0074
12985TIP3    H160370   2.108   6.284  11.710  0.3292 -0.1190  0.4556
12985TIP3    H260371   2.190   6.161  11.745 -0.2584 -0.4822  0.5678
12986TIP3   OH260372   0.906   0.422  15.578 -0.3003  0.3802 -0.3409
12986TIP3    H160373   0.842   0.463  15.636 -0.3617  1.8944 -1.4206
12986TIP3    H260374   0.912   0.481  15.503  0.8936 -0.7504 -1.1846
12987TIP3   OH260375   0.401   5.180  13.459  0.0492  0.2929  0.1243
12987TIP3    H160376   0.480   5.196  13.406 -0.0906 -0.6876 -0.3956
12987TIP3    H260377   0.434   5.165  13.548  0.3700  0.7863  0.0948
12988TIP3   OH260378   3.360   5.057   4.026  0.1666  0.6290 -0.3645
12988TIP3    H160379   3.326   5.014   3.947  0.2523  0.0399 -0.0883
12988TIP3    H260380   3.297   5.126   4.046 -0.2715  0.2691 -0.4963
12989TIP3   OH260381   0.522   1.556  17.129 -0.5714 -0.0556 -0.0858
12989TIP3    H160382   0.439   1.534  17.088 -1.0241 -0.8854  1.1912
12989TIP3    H260383   0.557   1.472  17.159  0.9417  0.2329 -0.9611
12990TIP3   OH260384   0.979   1.586   2.625 -0.2849 -0.4455 -0.1212
12990TIP3    H160385   0.935   1.504   2.604  0.0547 -0.7753  0.4097
12990TIP3    H260386   0.912   1.639   2.669 -1.1891  0.5071 -2.4778
12991TIP3   OH260387   0.119   0.700   6.282  0.4186 -0.5375 -0.0891
12991TIP3    H160388   0.132   0.795   6.286 -0.7482 -0.4026  1.5459
12991TIP3    H260389   0.040   0.689   6.230  0.8814 -0.6749 -0.7815
12992TIP3   OH260390   4.008   4.941  15.991  0.3335  0.1306 -0.6998
12992TIP3    H160391   4.017   4.997  16.068  0.6696 -0.0188 -0.6280
12992TIP3    H260392   4.090   4.891  15.988  1.0438  1.3042 -2.0837
12993TIP3   OH260393   3.379   1.107  13.997 -0.1600  0.2913  0.4942
12993TIP3    H160394   3.362   1.031  14.054  0.5238 -1.1828 -1.1750
12993TIP3    H260395   3.294   1.126  13.957  0.4664 -2.8237 -2.7853
12994TIP3   OH260396   2.371   4.936  12.459 -0.1012 -0.4179  0.2735
12994TIP3    H160397   2.296   4.996  12.455  1.6572  1.9498  0.5242
12994TIP3    H260398   2.368   4.901  12.548  0.7709  2.1485  1.4296
12995TIP3   OH260399   6.342   6.046  11.899  0.4607  0.2125 -0.0154
12995TIP3    H160400   6.281   6.094  11.955 -1.0372 -1.2064 -0.3157
12995TIP3    H260401   6.336   5.955  11.931  1.2043 -0.2326 -1.0924
12996TIP3   OH260402   6.620   1.149   2.234  0.2119  0.3931  0.1794
12996TIP3    H160403   6.557   1.205   2.189  0.0433  0.4620  0.4978
12996TIP3    H260404   6.566   1.089   2.285  0.3846 -0.2344 -0.3585
12997TIP3   OH260405   4.509   0.658   5.115 -0.3419 -0.1278  0.4482
12997TIP3    H160406   4.454   0.661   5.036 -1.7174 -1.3070  1.3144
12997TIP3    H260407   4.475   0.728   5.171 -0.1365 -0.0540  0.4815
12998TIP3   OH260408   1.357   1.793  13.959 -0.0271  0.4930 -0.1422
12998TIP3    H160409   1.452   1.790  13.955 -0.0516  0.9680 -1.4136
12998TIP3    H260410   1.328   1.754  13.876 -0.9975 -1.5367  1.0508
12999TIP3   OH260411   5.235   0.120   5.402  0.1411 -0.6343  0.0079
12999TIP3    H160412   5.249   0.027   5.385  1.9645 -0.4220  0.1717
12999TIP3    H260413   5.266   0.133   5.492  1.4801  0.4079 -0.5642
13000TIP3   OH260414   5.176   5.565  14.216 -0.4985 -0.0723  0.0327
13000TIP3    H160415   5.122   5.491  14.246  0.7662 -1.0884 -0.1146
13000TIP3    H260416   5.203   5.609  14.297  0.5349 -1.0974  0.2803
13001TIP3   OH260417   3.062   5.412  16.620  0.2303  1.0174  0.3776
13001TIP3    H160418   3.078   5.388  16.711  0.3691  1.2983  0.4299
13001TIP3    H260419   3.082   5.333  16.569 -2.8954 -0.2070  0.8326
13002TIP3   OH260420   5.556   4.250   4.874 -0.2377  0.1672  0.3519
13002TIP3    H160421   5.537   4.260   4.967  0.2913 -0.2648  0.5147
13002TIP3    H260422   5.470   4.249   4.832 -0.4684  0.6742  0.8006
13003TIP3   OH260423   5.110   6.536  17.237  0.3161 -0.2265 -0.3656
13003TIP3    H160424   5.028   6.554  17.283  0.5370 -1.2062  0.4298
13003TIP3    H260425   5.178   6.562  17.298  0.6330  0.8957 -1.1510
13004TIP3   OH260426   5.892   6.710  14.553  0.3156  0.9669  0.0959
13004TIP3    H160427   5.956   6.656  14.598 -0.7548 -0.9955 -0.5820
13004TIP3    H260428   5.807   6.683  14.590 -0.5221 -0.1542 -2.3951
13005TIP3   OH260429   2.052   1.355  16.547 -0.4142 -0.4279 -0.0923
13005TIP3    H160430   1.995   1.332  16.620  0.4987 -1.2850  0.3797
13005TIP3    H260431   2.014   1.310  16.471 -0.2567 -1.1686  0.2615
13006TIP3   OH260432   4.289   2.055   2.160  0.4813 -0.6350 -0.3978
13006TIP3    H160433   4.342   1.981   2.129  2.0166  0.7592 -1.2340
13006TIP3    H260434   4.234   2.078   2.085  0.2726 -0.6868 -0.2619
13007TIP3   OH260435   3.676   1.299   6.460  0.8560 -0.2819  0.2912
13007TIP3    H160436   3.732   1.278   6.386  0.8674 -2.6023  0.8697
13007TIP3    H260437   3.683   1.223   6.518 -2.2914 -0.3652  0.7612
13008TIP3   OH260438   2.637   4.000  11.009  0.5726 -0.1594 -0.0492
13008TIP3    H160439   2.575   4.016  10.938 -0.4946  0.4506  0.9806
13008TIP3    H260440   2.622   3.909  11.035 -0.3753  0.1736  0.6195
13009TIP3   OH260441   3.241   3.156   4.021  0.3345 -0.1959  0.5010
13009TIP3    H160442   3.191   3.094   4.074 -0.4763 -0.4976 -0.5789
13009TIP3    H260443   3.177   3.223   3.996  0.9610  0.5163  0.7954
13010TIP3   OH260444   3.675   5.370  16.207  0.0806 -0.8033  0.7661
13010TIP3    H160445   3.608   5.314  16.245  0.9372 -1.8579  0.7939
13010TIP3    H260446   3.687   5.336  16.118  0.1401 -0.2276  0.5497
13011TIP3   OH260447   5.460   2.897   3.720  0.4405  0.3678 -0.4222
13011TIP3    H160448   5.527   2.895   3.788 -0.8392  0.7372  0.8935
13011TIP3    H260449   5.440   2.990   3.709  2.0662  0.5346 -2.8298
13012TIP3   OH260450   0.670   2.862  17.025 -0.0846  0.0503  0.6263
13012TIP3    H160451   0.741   2.904  17.074 -0.6069  0.6895  0.8406
13012TIP3    H260452   0.607   2.932  17.010 -0.6310 -0.4976  0.3532
13013TIP3   OH260453   4.442   2.537  15.099  0.4693  0.1865  0.6234
13013TIP3    H160454   4.485   2.578  15.025  1.7911 -0.3854  1.0570
13013TIP3    H260455   4.462   2.594  15.174 -0.8186  0.7388  0.5715
13014TIP3   OH260456   5.298   2.429   0.657 -0.3843  0.0951 -0.3165
13014TIP3    H160457   5.361   2.486   0.613  0.9100 -1.1275 -0.1230
13014TIP3    H260458   5.239   2.399   0.588 -1.1013  1.6375 -0.4151
13015TIP3   OH260459   6.592   1.475   0.376  0.2158  0.8623  0.2896
13015TIP3    H160460   6.676   1.466   0.332 -0.6105 -1.5208 -0.9837
13015TIP3    H260461   6.613   1.469   0.469  1.5214  1.0168  0.0205
13016TIP3   OH260462   2.427   3.336   5.024 -0.1915  0.2100 -0.9313
13016TIP3    H160463   2.430   3.274   4.951  1.7509 -1.9286  0.8365
13016TIP3    H260464   2.501   3.395   5.008  0.0875 -0.1088 -0.8231
13017TIP3   OH260465   6.593   1.966   5.757  0.3666  0.0046  0.1445
13017TIP3    H160466   6.522   2.024   5.729  1.9725  1.9989 -0.1111
13017TIP3    H260467   6.615   1.916   5.679  0.0580  0.2879 -0.1307
13018TIP3   OH260468   4.774   3.458   5.040  0.5447  0.1007  0.0369
13018TIP3    H160469   4.689   3.418   5.026 -0.9558  2.5956  1.4082
13018TIP3    H260470   4.788   3.452   5.135  1.7498  0.0648 -0.1198
13019TIP3   OH260471   5.011   3.627  15.412 -0.0153 -0.5928 -0.1350
13019TIP3    H160472   5.047   3.690  15.474  1.7719  1.0628 -2.6554
13019TIP3    H260473   4.942   3.674  15.367 -0.4552 -1.3564 -0.2812
13020TIP3   OH260474   3.183   0.677  12.608  0.0885  0.4209  0.4312
13020TIP3    H160475   3.272   0.701  12.581  0.6809 -2.1679 -0.2056
13020TIP3    H260476   3.137   0.660  12.526 -0.3431 -0.3156  0.8187
13021TIP3   OH260477   1.410   6.073  17.349  0.3918 -0.3308  0.0993
13021TIP3    H160478   1.344   6.019  17.393  0.7506  1.4499  3.0914
13021TIP3    H260479   1.494   6.034  17.374  0.5910 -0.7578 -1.1480
13022TIP3   OH260480   4.319   4.524   1.439 -0.6987 -0.2281 -0.2963
13022TIP3    H160481   4.262   4.543   1.364  0.3752  0.5927 -0.9298
13022TIP3    H260482   4.407   4.549   1.410 -0.4703  1.7999  1.8258
13023TIP3   OH260483   6.060   2.611  14.140  0.0034  0.1094  0.2252
13023TIP3    H160484   6.001   2.632  14.213  1.8170  0.4516  1.6631
13023TIP3    H260485   6.075   2.695  14.097  0.1377  0.1797  0.4081
13024TIP3   OH260486   0.364   3.428   4.313  0.2222 -0.0020 -0.6348
13024TIP3    H160487   0.456   3.400   4.313  0.9739  2.1276  1.5155
13024TIP3    H260488   0.331   3.399   4.398 -0.7246  0.3674 -0.8715
13025TIP3   OH260489   5.600   1.176   1.599 -0.3432 -0.4184  0.0515
13025TIP3    H160490   5.590   1.222   1.516 -0.9781  2.6790  1.7047
13025TIP3    H260491   5.599   1.245   1.665 -0.2357 -2.7740  2.6968
13026TIP3   OH260492   6.008   0.642  16.845 -0.4155  0.0369  0.7741
13026TIP3    H160493   5.948   0.714  16.825 -0.9480 -0.4156  0.7191
13026TIP3    H260494   5.997   0.627  16.939  0.1953  0.4726  0.9188
13027TIP3   OH260495   2.424   2.780   2.200 -0.0172 -1.0318  0.2452
13027TIP3    H160496   2.357   2.712   2.199  0.2454 -1.2941  0.2200
13027TIP3    H260497   2.497   2.740   2.248 -0.0618 -0.5742  0.7043
13028TIP3   OH260498   4.166   0.882   4.847 -0.4600 -0.0424  0.5593
13028TIP3    H160499   4.249   0.836   4.857 -0.3190  0.2280  0.6471
13028TIP3    H260500   4.162   0.942   4.921 -1.1701 -0.7137  1.0799
13029TIP3   OH260501   3.722   4.219  13.187 -0.2968 -0.1296  0.6109
13029TIP3    H160502   3.652   4.244  13.247 -0.4965  0.5286  0.1222
13029TIP3    H260503   3.743   4.129  13.210 -2.5042 -0.9532 -0.3598
13030TIP3   OH260504   0.536   4.031  14.313  0.3977 -0.3800 -0.2125
13030TIP3    H160505   0.570   4.002  14.398 -0.7356 -1.0548  0.0273
13030TIP3    H260506   0.442   4.017  14.319  0.2960 -0.3840 -1.5635
13031TIP3   OH260507   6.055   4.976  14.334 -0.2598  0.0260  0.0839
13031TIP3    H160508   6.132   4.933  14.371 -1.3031 -1.9617  0.1050
13031TIP3    H260509   6.006   5.009  14.410 -0.6755 -0.9723  0.2594
13032TIP3   OH260510   1.337   1.748   1.232 -0.2728 -0.0836  0.4243
13032TIP3    H160511   1.362   1.750   1.139 -0.1760  0.6209  0.4547
13032TIP3    H260512   1.258   1.694   1.235 -0.3960  0.0584 -0.1006
13033TIP3   OH260513   6.310   1.787  14.821  0.0178  0.1700 -0.4865
13033TIP3    H160514   6.251   1.720  14.854 -0.8319  1.1028 -0.0832
13033TIP3    H260515   6.357   1.744  14.749  0.6671 -1.3426  0.7975
13034TIP3   OH260516   0.282   5.740   5.268 -0.5399  0.3245 -0.1190
13034TIP3    H160517   0.356   5.681   5.266 -0.1378  0.7954  0.4673
13034TIP3    H260518   0.231   5.713   5.345 -0.8312  0.1689 -0.3673
13035TIP3   OH260519   1.438   6.076  12.513 -0.4680  0.4500  0.2830
13035TIP3    H160520   1.368   6.010  12.512 -0.1749  0.1311 -1.4565
13035TIP3    H260521   1.391   6.160  12.515 -0.8564  0.2254  1.2206
13036TIP3   OH260522   3.342   5.776  16.569 -0.0101 -0.3860  0.1542
13036TIP3    H160523   3.366   5.755  16.479 -0.6381  1.0145 -0.3768
13036TIP3    H260524   3.412   5.833  16.599 -0.4055  0.1262  0.1220
13037TIP3   OH260525   3.153   2.049  14.687  0.1225 -0.3738 -0.4328
13037TIP3    H160526   3.248   2.037  14.693  0.4711  1.8132 -0.7103
13037TIP3    H260527   3.127   2.077  14.775  0.1288  1.1178 -0.8699
13038TIP3   OH260528   1.266   5.847   1.761  0.2863 -0.0461  0.4727
13038TIP3    H160529   1.352   5.807   1.772  0.4887  0.0722 -0.6313
13038TIP3    H260530   1.206   5.773   1.751  0.7196 -0.1361 -2.0268
13039TIP3   OH260531   4.489   4.793  14.291  0.0587 -0.3797 -0.0724
13039TIP3    H160532   4.550   4.814  14.362 -0.5689  1.9649 -0.1663
13039TIP3    H260533   4.467   4.877  14.252 -2.7762 -1.1710 -0.4163
13040TIP3   OH260534   1.877   2.323   2.359  0.2997  0.7477 -0.0622
13040TIP3    H160535   1.882   2.323   2.454  1.1120 -1.3457 -0.0511
13040TIP3    H260536   1.784   2.330   2.339 -0.3784 -3.0131  1.0587
13041TIP3   OH260537   1.759   2.605   4.483 -0.4709  0.0997 -0.1369
13041TIP3    H160538   1.730   2.558   4.404 -0.7565  0.5988 -0.3321
13041TIP3    H260539   1.731   2.549   4.555 -0.1292 -0.4063 -0.3880
13042TIP3   OH260540   5.591   4.908  14.240 -0.1551 -0.2480 -0.0005
13042TIP3    H160541   5.501   4.924  14.212 -0.3167  0.6413  0.9559
13042TIP3    H260542   5.606   4.972  14.309  1.0596 -0.7064  0.1831
13043TIP3   OH260543   6.754   5.209  10.693 -0.4362 -0.9142  0.4757
13043TIP3    H160544   6.701   5.214  10.613  1.0344 -0.0594 -0.4890
13043TIP3    H260545   6.690   5.217  10.764 -1.8646 -2.3356 -0.5666
13044TIP3   OH260546   4.098   1.421  13.918 -0.6093 -0.2328  0.5839
13044TIP3    H160547   4.019   1.454  13.876 -0.1278  0.5666  0.3095
13044TIP3    H260548   4.162   1.491  13.909 -0.0134 -0.6802  1.2415
13045TIP3   OH260549   2.824   0.147  14.371  0.0937  0.5217  0.1137
13045TIP3    H160550   2.860   0.151  14.460 -1.0669  1.3743  0.5745
13045TIP3    H260551   2.757   0.215  14.370 -1.1989 -0.7140 -0.8341
13046TIP3   OH260552   0.127   0.619  14.509 -0.0011 -0.6143 -0.0731
13046TIP3    H160553   0.120   0.653  14.598 -0.4121 -0.2063 -0.2560
13046TIP3    H260554   0.039   0.626  14.473  0.5406  1.1679 -1.2028
13047TIP3   OH260555   6.484   2.527   1.425  0.4291  0.0317  0.2362
13047TIP3    H160556   6.488   2.585   1.349 -0.8663 -0.9634 -0.6265
13047TIP3    H260557   6.506   2.584   1.499 -2.4298  2.1440 -0.3374
13048TIP3   OH260558   3.772   6.337  12.952  0.1585  0.3569  0.6795
13048TIP3    H160559   3.837   6.295  12.896 -1.7567 -0.8471 -0.7692
13048TIP3    H260560   3.763   6.278  13.027  0.0361  0.0206  0.4031
13049TIP3   OH260561   4.715   2.669   2.066 -0.5056 -0.5763  0.0769
13049TIP3    H160562   4.687   2.710   2.147  0.1438 -0.2547  0.1407
13049TIP3    H260563   4.809   2.686   2.061 -0.9406  1.8418 -2.0856
13050TIP3   OH260564   6.424   1.644  16.251  0.0945  0.0163 -0.3276
13050TIP3    H160565   6.452   1.556  16.276  1.2263  0.7246  1.0602
13050TIP3    H260566   6.460   1.656  16.163 -1.0642 -1.3121 -1.0109
13051TIP3   OH260567   5.793   1.900   5.271 -0.0636  0.0853  0.0137
13051TIP3    H160568   5.827   1.841   5.204  0.7265  0.5673 -0.0292
13051TIP3    H260569   5.813   1.857   5.354  0.4835  0.2695 -0.0177
13052TIP3   OH260570   2.127   4.006  11.014  0.3220 -0.0060  0.1632
13052TIP3    H160571   2.196   3.952  10.977 -0.8646 -0.5088 -1.4559
13052TIP3    H260572   2.094   4.057  10.940 -3.4175 -2.4102 -0.1505
13053TIP3   OH260573   1.843   2.732  14.073  0.2745 -0.5791  0.1631
13053TIP3    H160574   1.783   2.686  14.131  0.1583 -1.5421 -0.6814
13053TIP3    H260575   1.925   2.683  14.081  0.6129  0.0168  0.4192
13054TIP3   OH260576   3.424   1.904  16.613 -0.3684  0.1999 -0.4377
13054TIP3    H160577   3.346   1.954  16.636  0.6156  1.6964 -0.1938
13054TIP3    H260578   3.392   1.815  16.598 -1.8260  0.3309  1.5094
13055TIP3   OH260579   1.132   0.604  16.189  0.3275 -0.5022 -0.1918
13055TIP3    H160580   1.131   0.516  16.227 -1.7324  0.0563  1.2306
13055TIP3    H260581   1.051   0.609  16.138 -0.2159  0.9377  0.7443
13056TIP3   OH260582   1.969   4.886   0.228 -0.2400 -0.0057 -0.2552
13056TIP3    H160583   2.003   4.975   0.232 -1.9608  0.6601  1.0933
13056TIP3    H260584   2.027   4.841   0.167  1.8080  1.5123  0.4461
13057TIP3   OH260585   6.110   3.032   1.571  0.0850  0.7165 -0.7223
13057TIP3    H160586   6.067   3.072   1.495  1.6104  0.9512 -1.5095
13057TIP3    H260587   6.180   2.980   1.533 -0.1810 -0.5448  0.4557
13058TIP3   OH260588   3.000   1.487   3.714 -0.4449 -0.0539 -0.5725
13058TIP3    H160589   3.047   1.407   3.694 -1.0874 -0.6052  0.0410
13058TIP3    H260590   2.942   1.463   3.787 -1.8950  0.4988 -1.4902
13059TIP3   OH260591   6.168   0.295   1.415  0.3264 -0.1817 -0.1941
13059TIP3    H160592   6.096   0.297   1.479 -0.3655  1.0016 -0.9626
13059TIP3    H260593   6.126   0.314   1.331  1.6972  2.0237 -0.4648
13060TIP3   OH260594   6.690   0.284   6.193 -0.0067 -0.1970  0.0192
13060TIP3    H160595   6.654   0.195   6.196  0.2192 -0.3108 -0.4771
13060TIP3    H260596   6.785   0.271   6.201  0.0066  0.0176  0.2026
13061TIP3   OH260597   4.573   6.432   5.250 -0.5051 -0.7387 -0.1644
13061TIP3    H160598   4.598   6.496   5.184  0.2284 -0.5990  0.2311
13061TIP3    H260599   4.519   6.481   5.312  3.6530  0.8625  2.6571
13062TIP3   OH260600   0.971   4.423   2.489 -0.1647  0.6634  0.4906
13062TIP3    H160601   0.879   4.398   2.480  0.6087 -1.9648 -1.1062
13062TIP3    H260602   1.019   4.354   2.444  2.4889  3.1532 -0.8190
13063TIP3   OH260603   1.579   6.406   3.259  0.5389  0.0942  0.0973
13063TIP3    H160604   1.673   6.402   3.279  0.5868  0.5707 -0.0137
13063TIP3    H260605   1.556   6.317   3.233  1.2522  0.2643 -1.1905
13064TIP3   OH260606   1.147   4.552  10.829  0.0859  0.1910 -0.1639
13064TIP3    H160607   1.242   4.555  10.838 -0.0217  0.9584  0.8371
13064TIP3    H260608   1.132   4.494  10.754  1.2811 -1.0497  0.5269
13065TIP3   OH260609   5.872   0.912  17.127 -0.3556  0.2327  0.6169
13065TIP3    H160610   5.873   0.914  17.223  0.9445 -0.7579  0.6574
13065TIP3    H260611   5.928   0.985  17.101  1.6823 -1.2244  0.7183
13066TIP3   OH260612   5.278   4.187  14.545  0.0929  0.1660  0.0982
13066TIP3    H160613   5.370   4.207  14.528  0.7653 -1.2286  1.7890
13066TIP3    H260614   5.269   4.094  14.523 -1.2205  0.5223 -1.0624
13067TIP3   OH260615   2.100   6.036  14.870  0.4167  0.0608 -0.0958
13067TIP3    H160616   2.114   6.099  14.799 -0.6372  0.3104 -0.0927
13067TIP3    H260617   2.022   6.068  14.915  0.0720 -1.0616  0.1133
13068TIP3   OH260618   6.755   5.164   1.307 -0.0410  0.6328  0.5535
13068TIP3    H160619   6.770   5.075   1.338  0.9560  0.1791 -1.0857
13068TIP3    H260620   6.832   5.213   1.338  0.1724  0.5476  0.1701
13069TIP3   OH260621   0.918   6.521   6.382  0.0080 -0.4739 -0.8044
13069TIP3    H160622   0.851   6.585   6.358  0.9971  0.6462 -0.6812
13069TIP3    H260623   1.001   6.561   6.353  0.5214 -2.4008 -2.1645
13070TIP3   OH260624   2.876   2.472  12.822 -0.5253 -0.1161  1.0849
13070TIP3    H160625   2.889   2.403  12.887 -0.9277 -1.2053  0.0264
13070TIP3    H260626   2.794   2.451  12.779  0.5099 -0.3406 -0.8887
13071TIP3   OH260627   1.214   3.165   4.455  0.1157  0.3313 -0.2664
13071TIP3    H160628   1.152   3.227   4.493  1.2545 -0.5604  3.4540
13071TIP3    H260629   1.281   3.220   4.413  0.5018  1.6657  1.9475
13072TIP3   OH260630   0.560   5.478   4.882  0.5293 -0.3645 -0.0615
13072TIP3    H160631   0.481   5.501   4.833 -0.1292 -1.6814  0.3329
13072TIP3    H260632   0.574   5.552   4.941 -0.5750 -0.2437  0.0689
13073TIP3   OH260633   1.250   0.069  16.995 -0.2835  0.3189  0.3993
13073TIP3    H160634   1.243   0.131  17.068 -0.6052 -0.9500  1.4902
13073TIP3    H260635   1.166   0.077  16.949  0.1846  1.6191 -0.2655
13074TIP3   OH260636   0.304   5.061  15.772  0.3473  0.2776  0.4771
13074TIP3    H160637   0.314   5.138  15.716  1.0627  2.3592  3.2701
13074TIP3    H260638   0.362   4.995  15.732  0.0590  1.2727 -1.7342
13075TIP3   OH260639   2.966   2.821  17.092  0.4314 -0.0243 -0.2950
13075TIP3    H160640   2.988   2.742  17.041  1.2974  0.9775 -1.5471
13075TIP3    H260641   3.024   2.817  17.168 -0.3925 -1.2022  0.2927
13076TIP3   OH260642   3.986   3.687   1.186 -0.1677  0.3117  0.2553
13076TIP3    H160643   3.960   3.776   1.165  0.9366  0.5550 -0.1776
13076TIP3    H260644   4.033   3.695   1.270  0.0183  0.1615  0.1672
13077TIP3   OH260645   0.762   4.246   4.989 -0.1487 -0.5297 -0.3766
13077TIP3    H160646   0.811   4.165   4.976 -1.2400 -1.3596  0.4408
13077TIP3    H260647   0.686   4.219   5.041  0.0579  1.2173  0.9041
13078TIP3   OH260648   5.848   0.576  11.748 -0.3409 -0.3190 -0.5023
13078TIP3    H160649   5.756   0.595  11.766 -0.4538 -1.5576  0.3676
13078TIP3    H260650   5.849   0.542  11.659 -0.8922 -1.2014 -0.1891
13079TIP3   OH260651   6.698   1.446  11.812 -0.8566  0.0682 -0.3575
13079TIP3    H160652   6.761   1.470  11.744 -0.7508 -0.9192 -0.6123
13079TIP3    H260653   6.751   1.406  11.880 -0.9408  1.1825  0.3975
13080TIP3   OH260654   0.037   1.614   1.111  0.0489  0.6063  0.4953
13080TIP3    H160655   0.106   1.627   1.176  0.2143  1.7993  0.0951
13080TIP3    H260656  -0.031   1.677   1.135 -0.3763  0.2789  0.1644
13081TIP3   OH260657   0.849   4.257  16.045  0.1016  0.2201  0.0293
13081TIP3    H160658   0.922   4.313  16.021  0.6509 -0.9356 -1.1575
13081TIP3    H260659   0.887   4.189  16.100 -0.6376  1.1857  1.8365
13082TIP3   OH260660   5.041   0.277  11.576  0.5968 -0.3285  0.0320
13082TIP3    H160661   5.035   0.373  11.579 -1.5698 -0.3165 -1.9596
13082TIP3    H260662   5.117   0.260  11.521 -0.3751  0.3565 -1.6014
13083TIP3   OH260663   6.406   0.754   1.404  0.1105  0.7082 -0.1607
13083TIP3    H160664   6.461   0.797   1.338  1.8620 -1.2464 -0.0888
13083TIP3    H260665   6.468   0.713   1.464 -1.3036 -2.3713 -0.5677
13084TIP3   OH260666   4.637   1.605  16.546  0.1096 -0.2066  0.1943
13084TIP3    H160667   4.721   1.591  16.502 -0.5721 -0.6205 -1.0260
13084TIP3    H260668   4.583   1.531  16.518 -0.4660 -0.2984  1.4858
13085TIP3   OH260669   4.835   0.096  17.241 -0.3947  0.1068  0.2777
13085TIP3    H160670   4.895   0.145  17.297 -1.0825  0.5893  0.6010
13085TIP3    H260671   4.748   0.121  17.271 -0.7799  0.5083 -1.1213
13086TIP3   OH260672   4.458   0.368  13.577  0.3230  0.2381  0.4442
13086TIP3    H160673   4.551   0.393  13.578 -0.0822  2.0506 -0.8953
13086TIP3    H260674   4.412   0.451  13.574 -1.4510 -0.5784  2.8398
13087TIP3   OH260675   1.251   3.715  14.223 -0.3272  0.8014  0.4405
13087TIP3    H160676   1.156   3.705  14.221 -0.1735 -2.4107  2.0785
13087TIP3    H260677   1.277   3.718  14.131 -1.9315  0.4667 -0.0533
13088TIP3   OH260678   3.768   1.310  16.035 -0.3722 -0.4508  0.1884
13088TIP3    H160679   3.755   1.217  16.017  0.3281 -0.3192 -1.1281
13088TIP3    H260680   3.683   1.342  16.065 -0.7520 -1.3907  0.1245
13089TIP3   OH260681   1.829   4.900  11.666  0.0654 -0.6767  0.0955
13089TIP3    H160682   1.816   4.940  11.581  1.8325 -0.8353 -0.3015
13089TIP3    H260683   1.923   4.909  11.683 -0.3467  0.0276  2.3822
13090TIP3   OH260684   1.588   3.531   1.634 -0.3702  0.8111  0.3349
13090TIP3    H160685   1.562   3.565   1.719 -0.3606  0.3343  0.5342
13090TIP3    H260686   1.519   3.468   1.611 -1.2291  2.1113 -0.7630
13091TIP3   OH260687   6.060   5.666  15.158 -0.1576 -0.7417 -0.2574
13091TIP3    H160688   6.150   5.635  15.147  0.3326  0.6210 -0.2698
13091TIP3    H260689   6.007   5.587  15.157  1.1065 -1.6315  0.4662
13092TIP3   OH260690   5.926   4.826   1.565 -0.2673  0.6007  0.0840
13092TIP3    H160691   6.016   4.817   1.594  0.0443 -2.0920 -1.3760
13092TIP3    H260692   5.918   4.918   1.538  2.0860  0.8598  0.1183
13093TIP3   OH260693   1.321   0.776  13.970 -0.2322  0.0624  0.2446
13093TIP3    H160694   1.407   0.736  13.988  0.5428  1.2946 -0.5609
13093TIP3    H260695   1.289   0.730  13.893 -0.5914 -0.8012  0.8850
13094TIP3   OH260696   5.718   4.091  13.723  0.4588  0.2882  0.2073
13094TIP3    H160697   5.742   4.019  13.665 -0.4907  0.7544 -0.7952
13094TIP3    H260698   5.624   4.102  13.710  0.9875  3.6044 -1.9509
13095TIP3   OH260699   2.210   3.385  13.451  0.2467  0.0746 -0.6951
13095TIP3    H160700   2.241   3.330  13.380  0.5876 -0.5083 -0.1076
13095TIP3    H260701   2.212   3.329  13.528  0.7021  0.9246 -0.0590
13096TIP3   OH260702   0.548   3.114  13.699  0.7287  0.0176  0.2499
13096TIP3    H160703   0.465   3.134  13.656  0.1857  1.4947  1.8734
13096TIP3    H260704   0.562   3.021  13.681 -1.2836 -0.2761 -0.0451
13097TIP3   OH260705   4.137   6.569   1.967 -0.0274  0.4680 -0.0644
13097TIP3    H160706   4.127   6.537   2.057 -0.8262  0.3223 -0.2034
13097TIP3    H260707   4.193   6.504   1.925  1.3162  1.1313  0.6338
13098TIP3   OH260708   4.924   5.999   2.533 -0.2205  0.3680 -0.4359
13098TIP3    H160709   4.848   5.941   2.529 -1.2457  1.4741  1.5358
13098TIP3    H260710   4.900   6.074   2.478  0.7554 -0.5984 -2.2842
13099TIP3   OH260711   1.044   1.782   4.608  0.0084 -0.0349  0.3259
13099TIP3    H160712   1.118   1.842   4.597  1.3257 -1.9804 -2.9395
13099TIP3    H260713   1.083   1.695   4.605 -2.3200 -1.1365 -1.2344
13100TIP3   OH260714   2.620   6.100  14.561  0.0815 -0.2453 -0.2161
13100TIP3    H160715   2.603   6.007  14.575 -0.2926 -0.3520 -1.2875
13100TIP3    H260716   2.540   6.133  14.522 -0.0045  0.6651  0.6991
13101TIP3   OH260717   5.667   1.776   2.516 -0.1108  0.0218 -0.6589
13101TIP3    H160718   5.695   1.684   2.509  2.0398  0.4690  1.0395
13101TIP3    H260719   5.661   1.806   2.426  1.7752 -1.1047 -1.2202
13102TIP3   OH260720   6.164   1.137  11.138  0.2008 -0.0567  0.3851
13102TIP3    H160721   6.079   1.169  11.168 -0.0035 -0.6962  0.5001
13102TIP3    H260722   6.225   1.163  11.206  0.0600  0.2067  0.4115
13103TIP3   OH260723   1.408   5.091   5.310  0.4791  0.3388  0.0176
13103TIP3    H160724   1.503   5.097   5.300  0.5314 -0.4203  0.0167
13103TIP3    H260725   1.378   5.052   5.228  0.3412 -0.9031  0.6371
13104TIP3   OH260726   2.335   2.154   2.642 -0.2042 -0.2471  0.0884
13104TIP3    H160727   2.364   2.087   2.580 -2.1120 -1.5993  0.5592
13104TIP3    H260728   2.358   2.237   2.600  0.6028 -1.1536 -1.3547
13105TIP3   OH260729   4.208   0.838   1.392 -0.0480  0.7594  0.1225
13105TIP3    H160730   4.269   0.822   1.463 -0.3483 -0.3925  0.1525
13105TIP3    H260731   4.124   0.805   1.424 -0.5570  1.7561 -0.1450
13106TIP3   OH260732   4.313   1.649  12.079 -0.4314 -0.0015  0.1644
13106TIP3    H160733   4.366   1.575  12.050  0.0864  1.0059 -1.6210
13106TIP3    H260734   4.224   1.628  12.050 -0.3665 -0.0943  0.0363
13107TIP3   OH260735   5.000   4.400  13.455  0.5808  0.1109  0.4528
13107TIP3    H160736   4.971   4.323  13.407  0.0131  0.2069  0.6373
13107TIP3    H260737   4.940   4.469  13.429 -0.0156  0.0578  1.6324
13108TIP3   OH260738   1.112   1.662  12.184  0.4766  0.8184 -0.3507
13108TIP3    H160739   1.159   1.629  12.261 -0.0364 -0.2151 -0.4597
13108TIP3    H260740   1.073   1.744  12.213  3.3789  2.4390 -0.6265
13109TIP3   OH260741   1.951   4.321   5.495  0.1607  0.6263 -0.0482
13109TIP3    H160742   1.953   4.243   5.551 -1.1701  0.3419 -0.3762
13109TIP3    H260743   1.952   4.395   5.557  0.6704  0.3518  0.2833
13110TIP3   OH260744   6.558   0.960  13.655 -0.5349 -0.4117 -0.2828
13110TIP3    H160745   6.592   1.017  13.724 -0.2529 -0.3662 -0.4581
13110TIP3    H260746   6.477   1.003  13.626  0.4953  0.7638 -1.5209
13111TIP3   OH260747   2.900   1.001  14.237 -0.1491  0.1340 -0.5873
13111TIP3    H160748   2.954   1.079  14.254 -0.5437 -0.0598  2.1407
13111TIP3    H260749   2.848   1.024  14.160 -0.1399  2.5398  0.0290
13112TIP3   OH260750   6.427   4.429   2.873  0.2377 -0.0082  0.2233
13112TIP3    H160751   6.520   4.448   2.865  0.1003  0.3945 -0.5440
13112TIP3    H260752   6.386   4.515   2.884 -0.3326  0.2184 -2.6545
13113TIP3   OH260753   3.694   4.647   0.231  0.1845 -0.2212 -0.1620
13113TIP3    H160754   3.622   4.616   0.285  0.6666 -0.5520  0.3002
13113TIP3    H260755   3.711   4.736   0.262  0.1592 -0.2458 -0.0769
13114TIP3   OH260756   6.543   4.199  15.906  0.4222 -0.2530  0.1616
13114TIP3    H160757   6.461   4.155  15.886  0.7727 -1.1347  0.6494
13114TIP3    H260758   6.579   4.222  15.820 -0.7838  1.0184 -0.0386
13115TIP3   OH260759   6.378   6.484  15.262 -0.6376 -0.2160  0.0382
13115TIP3    H160760   6.464   6.479  15.220 -0.6447 -2.5026  0.1887
13115TIP3    H260761   6.397   6.489  15.355 -0.6663 -0.3380  0.0506
13116TIP3   OH260762   0.977   5.404  13.067  0.0805  0.2569 -0.4512
13116TIP3    H160763   0.978   5.422  13.161 -0.7996  1.5936 -0.6683
13116TIP3    H260764   1.068   5.412  13.039  0.2368  0.6083  0.1516
13117TIP3   OH260765   4.742   5.330  16.273 -0.1533 -0.4143 -0.1929
13117TIP3    H160766   4.786   5.270  16.335  0.9443  1.6850  1.1704
13117TIP3    H260767   4.801   5.333  16.198  0.1022 -0.5788 -0.0067
13118TIP3   OH260768   0.990   2.926  15.226  0.1321 -0.4601  0.1814
13118TIP3    H160769   0.999   3.021  15.216 -0.7879 -0.5410 -1.8998
13118TIP3    H260770   1.073   2.898  15.264  0.7194  1.0771  0.1031
13119TIP3   OH260771   1.475   4.843   3.923 -0.0343 -0.0482  0.0454
13119TIP3    H160772   1.427   4.873   4.000 -1.0872 -0.1106 -0.5645
13119TIP3    H260773   1.554   4.897   3.922  0.7396 -1.0265  1.9610
13120TIP3   OH260774   2.755   4.952  14.937  0.3195  0.0401  0.9237
13120TIP3    H160775   2.741   5.034  14.984  0.2721 -0.5575  1.9696
13120TIP3    H260776   2.841   4.922  14.965  0.2215 -0.4071  0.7609
13121TIP3   OH260777   5.032   2.278   4.445  0.1903  0.0259  0.0429
13121TIP3    H160778   5.043   2.281   4.540  2.4178 -1.5505 -0.0686
13121TIP3    H260779   5.115   2.309   4.410 -0.4615  0.2295 -1.3974
13122TIP3   OH260780   6.633   6.092  11.942 -0.4817 -0.2353  0.2490
13122TIP3    H160781   6.541   6.110  11.921 -0.1083 -1.3458 -2.8062
13122TIP3    H260782   6.637   5.996  11.950  0.5202 -0.2402 -0.2683
13123TIP3   OH260783   1.921   1.916  15.474  0.1282 -0.3948  0.6708
13123TIP3    H160784   1.977   1.962  15.536  1.3967 -0.0162 -0.6913
13123TIP3    H260785   1.975   1.844  15.442 -1.8170 -3.0197  2.8006
13124TIP3   OH260786   1.267   3.119   5.911 -0.8377  0.4332  0.6661
13124TIP3    H160787   1.212   3.079   5.978  1.0065 -1.5131  1.1252
13124TIP3    H260788   1.345   3.148   5.959 -0.2411  0.5618 -0.3598
13125TIP3   OH260789   6.548   4.038   4.495 -0.1244  0.0475 -0.2003
13125TIP3    H160790   6.592   3.954   4.484  0.5330  0.1359  1.3919
13125TIP3    H260791   6.455   4.015   4.506 -0.0142 -0.4372 -0.2444
13126TIP3   OH260792   3.209   5.328   5.065  0.1151  0.2781 -0.1921
13126TIP3    H160793   3.114   5.339   5.057  0.0799 -0.3380 -0.6568
13126TIP3    H260794   3.241   5.416   5.085 -0.7358  0.1813  1.9458
13127TIP3   OH260795   1.390   3.200   0.622  0.5993  0.1282 -0.2690
13127TIP3    H160796   1.483   3.200   0.642  0.4463 -1.3023  0.5855
13127TIP3    H260797   1.364   3.108   0.628 -0.7798  0.4415 -0.9283
13128TIP3   OH260798   3.465   2.646   3.863  0.1199 -0.1544  0.1675
13128TIP3    H160799   3.509   2.727   3.890 -0.8687  0.3319  0.3916
13128TIP3    H260800   3.393   2.638   3.925 -1.7040  0.5035 -1.7448
13129TIP3   OH260801   2.309   1.843  12.745 -0.1760  0.2586  0.1827
13129TIP3    H160802   2.351   1.913  12.795 -0.7179  1.6536 -1.2461
13129TIP3    H260803   2.229   1.882  12.711 -0.1597 -0.8490 -1.2089
13130TIP3   OH260804   6.693   0.995  17.201  0.0420  0.2144 -0.2122
13130TIP3    H160805   6.644   0.916  17.223 -1.9065  1.3130 -0.4157
13130TIP3    H260806   6.699   1.043  17.284  0.2449  0.3831 -0.3241
13131TIP3   OH260807   2.119   0.679   5.156 -0.2658 -0.3729  0.1821
13131TIP3    H160808   2.059   0.608   5.178 -0.7152  0.0140  0.2363
13131TIP3    H260809   2.067   0.759   5.169 -0.4214 -0.0947 -1.8065
13132TIP3   OH260810   5.310   0.896  16.956  0.0238  0.3116 -0.1507
13132TIP3    H160811   5.227   0.868  16.918 -0.3905  0.7009  0.4643
13132TIP3    H260812   5.376   0.865  16.894 -0.4599 -1.4361  0.1533
13133TIP3   OH260813   2.972   2.654   5.755  0.3343  0.2681 -0.2717
13133TIP3    H160814   3.014   2.618   5.833  0.1036  1.3898  0.3951
13133TIP3    H260815   2.884   2.679   5.784 -0.9172 -2.2089 -1.6987
13134TIP3   OH260816   5.692   0.502  13.946 -0.2688 -0.5532  0.5402
13134TIP3    H160817   5.608   0.480  13.906 -0.4171  0.6845  0.1292
13134TIP3    H260818   5.720   0.582  13.901  1.2733 -1.0981  0.4643
13135TIP3   OH260819   5.766   3.803   2.411  0.2446 -0.9574  0.2654
13135TIP3    H160820   5.758   3.882   2.464  0.5325 -1.1267  0.5625
13135TIP3    H260821   5.820   3.829   2.337 -3.2626  0.3899 -2.1072
13136TIP3   OH260822   0.259   4.064  16.620  0.3495  0.4347  0.0970
13136TIP3    H160823   0.174   4.099  16.594 -0.5059 -1.3656  0.3497
13136TIP3    H260824   0.314   4.073  16.542 -0.7057 -0.3109 -0.7528
13137TIP3   OH260825   3.343   1.840   5.347  0.0783 -0.2759  0.0573
13137TIP3    H160826   3.432   1.805   5.340 -0.1141 -0.7730  0.0550
13137TIP3    H260827   3.354   1.930   5.379  0.4504 -1.2136  2.8334
13138TIP3   OH260828   2.158   4.803   3.161  0.2945  0.2965 -0.3680
13138TIP3    H160829   2.217   4.729   3.169  0.5396  0.4876 -0.3864
13138TIP3    H260830   2.144   4.812   3.067  2.4432  1.9522 -0.6126
13139TIP3   OH260831   0.479   4.854  15.226 -0.0537  0.3496  0.4858
13139TIP3    H160832   0.571   4.847  15.253 -0.6716 -1.7372  2.3040
13139TIP3    H260833   0.456   4.945  15.245  1.6808  0.9874 -0.2390
13140TIP3   OH260834   5.397   4.743   0.805  0.1541 -0.2635  0.1557
13140TIP3    H160835   5.305   4.761   0.784 -0.0442 -1.2528  0.1124
13140TIP3    H260836   5.438   4.727   0.720  0.0324 -1.2535  0.2719
13141TIP3   OH260837   5.709   6.158   6.628  0.4423  0.3397  0.3392
13141TIP3    H160838   5.780   6.132   6.569  0.1635  1.7344 -0.6611
13141TIP3    H260839   5.725   6.251   6.644 -1.7136  0.9408 -0.7208
13142TIP3   OH260840   3.009   3.985   5.091  0.3136 -0.4771 -0.0918
13142TIP3    H160841   2.980   3.970   5.002  1.6510  0.2749 -0.6830
13142TIP3    H260842   3.063   4.063   5.086  1.3210 -1.0501  1.1825
13143TIP3   OH260843   0.953   1.490   1.643 -0.2734  0.0552  0.0240
13143TIP3    H160844   0.941   1.402   1.607 -0.6814 -0.0924  0.5169
13143TIP3    H260845   0.906   1.547   1.583 -0.4675 -0.1247  0.0019
13144TIP3   OH260846   2.993   5.102   5.299 -0.2806  0.0164 -0.2949
13144TIP3    H160847   2.946   5.186   5.298  1.0200  0.8139  0.9816
13144TIP3    H260848   2.958   5.056   5.375 -0.9158 -0.5929 -0.9331
13145TIP3   OH260849   5.055   1.409   5.932  0.6217 -0.1904  0.0548
13145TIP3    H160850   5.142   1.415   5.893  1.4011  0.1382  1.7610
13145TIP3    H260851   5.042   1.493   5.976  0.5886 -1.1558  2.0194
13146TIP3   OH260852   5.318   5.359   1.719  0.5201  0.1366 -0.4423
13146TIP3    H160853   5.331   5.330   1.629  1.5227 -0.0569 -0.2535
13146TIP3    H260854   5.388   5.317   1.769  1.0218  1.5519  0.1268
13147TIP3   OH260855   3.276   5.139  13.952 -0.1821  0.3416  0.0858
13147TIP3    H160856   3.266   5.182  14.037  1.5853  2.9978 -0.8917
13147TIP3    H260857   3.199   5.082  13.944 -0.2873 -0.1996  3.4946
13148TIP3   OH260858   2.099   3.801   1.258  0.7099  0.6602 -0.1247
13148TIP3    H160859   2.146   3.764   1.332  0.3291 -0.6741 -0.5259
13148TIP3    H260860   2.035   3.860   1.297 -0.4236 -1.0546  0.7327
13149TIP3   OH260861   2.534   5.144  17.191 -0.2119 -0.3980  0.0216
13149TIP3    H160862   2.626   5.126  17.170 -0.1457 -1.2732  0.9741
13149TIP3    H260863   2.487   5.068  17.156 -0.5687 -0.0027 -0.3695
13150TIP3   OH260864   0.963   6.524   0.652  0.2739 -0.0244  0.4347
13150TIP3    H160865   1.015   6.598   0.683  1.3762  0.3329 -1.9961
13150TIP3    H260866   0.873   6.547   0.674  0.8157  0.9451  1.7654
13151TIP3   OH260867   0.049   1.941   1.671  0.1516  0.0927 -0.0367
13151TIP3    H160868  -0.035   1.897   1.661  0.5727 -0.2918 -2.6493
13151TIP3    H260869   0.108   1.875   1.707 -0.0617 -0.4479 -0.6651
13152TIP3   OH260870   6.732   3.521   0.113 -0.1633  0.2540  0.4605
13152TIP3    H160871   6.826   3.530   0.132 -0.5220  0.5406  2.2271
13152TIP3    H260872   6.723   3.553   0.023  1.7180 -1.5739 -0.4706
13153TIP3   OH260873   2.191   6.697   2.191 -0.3482  0.1960 -0.4244
13153TIP3    H160874   2.133   6.621   2.186 -1.4066  0.7527  1.8898
13153TIP3    H260875   2.136   6.766   2.228  1.7234  0.7457  1.9037
13154TIP3   OH260876   3.964   4.599   1.035 -0.0619 -0.2681  0.0999
13154TIP3    H160877   4.000   4.651   1.107  1.4263  0.6063 -1.2213
13154TIP3    H260878   3.960   4.509   1.070  0.7138  0.1086  1.2260
13155TIP3   OH260879   5.938   1.091  11.290  0.3127  0.4537 -0.2753
13155TIP3    H160880   5.844   1.103  11.304 -0.1100  0.1897 -2.4395
13155TIP3    H260881   5.978   1.169  11.327 -0.5291 -0.2583  2.3345
13156TIP3   OH260882   4.601   3.899   3.201 -0.5343  0.3611  0.2509
13156TIP3    H160883   4.576   3.989   3.224  0.1945  0.8654 -0.8294
13156TIP3    H260884   4.580   3.891   3.108 -1.0355 -0.7608  0.4495
13157TIP3   OH260885   6.063   2.570   4.412 -0.0441  0.0838  0.5597
13157TIP3    H160886   5.975   2.532   4.403  0.0491 -0.3289  1.3190
13157TIP3    H260887   6.058   2.624   4.491  0.0610  1.0170 -0.0499
13158TIP3   OH260888   3.559   5.821  11.682  0.3492 -0.2756 -0.4452
13158TIP3    H160889   3.643   5.824  11.726  1.9641  0.6507 -3.3457
13158TIP3    H260890   3.546   5.909  11.648 -1.8269 -0.4087 -0.1126
13159TIP3   OH260891   4.007   6.288   4.815  0.0009 -0.7142 -0.2113
13159TIP3    H160892   3.989   6.219   4.751  1.1123 -0.0378 -1.2962
13159TIP3    H260893   4.067   6.248   4.878 -1.7308 -1.6368  0.9381
13160TIP3   OH260894   4.802   5.884  11.272 -0.3958 -0.0631  0.1023
13160TIP3    H160895   4.780   5.974  11.296  0.4238 -0.1197  1.0632
13160TIP3    H260896   4.790   5.882  11.177 -1.7457  0.6804  0.2233
13161TIP3   OH260897   2.161   2.620   1.903  0.3122  0.1201 -0.0511
13161TIP3    H160898   2.112   2.615   1.821  0.1960  0.2689  0.0086
13161TIP3    H260899   2.234   2.559   1.892  0.5283  0.4388 -0.4211
13162TIP3   OH260900   1.795   2.000  14.396 -0.4992 -0.2591 -0.5228
13162TIP3    H160901   1.717   1.975  14.346 -0.1185  1.3470 -2.0290
13162TIP3    H260902   1.776   2.090  14.425  0.6718  0.0609 -0.7197
13163TIP3   OH260903   3.808   1.997  16.429 -0.2701  0.6039  0.6182
13163TIP3    H160904   3.789   1.961  16.343 -0.7703  1.7946  0.2026
13163TIP3    H260905   3.801   1.923  16.489 -0.4670 -0.1271 -0.2954
13164TIP3   OH260906   3.828   1.330  13.664  0.5835 -0.0835  0.0898
13164TIP3    H160907   3.789   1.371  13.586  0.7248 -2.7438 -1.4990
13164TIP3    H260908   3.766   1.349  13.734 -1.2775 -0.3425 -1.3896
13165TIP3   OH260909   2.802   4.464   1.476  0.0161 -0.7795 -0.0297
13165TIP3    H160910   2.750   4.510   1.410  1.1385  0.2151 -0.2534
13165TIP3    H260911   2.893   4.479   1.449  0.4873 -0.6156  1.5562
13166TIP3   OH260912   5.979   3.783   5.663  0.0201 -0.1472  0.4694
13166TIP3    H160913   6.052   3.748   5.612 -0.1398  0.3280 -0.0941
13166TIP3    H260914   6.004   3.874   5.680 -0.3641 -0.0339  0.4311
13167TIP3   OH260915   0.621   4.652  13.505  0.9772  0.2346 -0.0995
13167TIP3    H160916   0.560   4.723  13.529 -0.2778 -0.5278 -0.9147
13167TIP3    H260917   0.706   4.695  13.498  0.4821  1.4140  0.7092
13168TIP3   OH260918   6.457   2.871   0.652 -0.1379  0.4519  0.1386
13168TIP3    H160919   6.483   2.962   0.663  0.8331  0.4872 -2.0320
13168TIP3    H260920   6.362   2.875   0.638 -0.4901  0.8632  2.2830
13169TIP3   OH260921   4.119   5.788   2.816  0.0598  0.4649 -0.4996
13169TIP3    H160922   4.063   5.808   2.891 -0.1630  2.0934 -1.0545
13169TIP3    H260923   4.103   5.696   2.798 -1.0371  0.4338  0.5099
13170TIP3   OH260924   1.059   2.083  13.107 -0.6306 -0.5660  0.0165
13170TIP3    H160925   1.113   2.018  13.063 -0.0367  0.4182 -0.7740
13170TIP3    H260926   1.120   2.154  13.129 -1.5922  0.6611 -1.0830
13171TIP3   OH260927   6.268   5.877   2.545  0.2117 -0.7716  0.0486
13171TIP3    H160928   6.270   5.888   2.450 -1.3086  1.3167  0.1763
13171TIP3    H260929   6.288   5.963   2.580  1.3820 -1.6534  1.6702
13172TIP3   OH260930   6.368   4.613  10.881 -0.2996 -0.0140  0.0905
13172TIP3    H160931   6.425   4.664  10.940 -1.0221  0.8584  0.0559
13172TIP3    H260932   6.394   4.522  10.896 -1.4306  0.0287  2.8700
13173TIP3   OH260933   2.300   4.814  14.815  0.3088 -0.4494 -0.2633
13173TIP3    H160934   2.310   4.908  14.798 -2.5291  0.1156  0.6095
13173TIP3    H260935   2.269   4.810  14.906 -0.0648 -2.1905 -0.4446
13174TIP3   OH260936   2.088   2.357  12.787  0.9394  0.3373 -0.3659
13174TIP3    H160937   2.002   2.365  12.747  0.9333 -0.6320 -0.5690
13174TIP3    H260938   2.146   2.412  12.733  0.5937  0.4249 -0.6461
13175TIP3   OH260939   1.872   0.801  14.159  0.4405  0.2317 -0.3727
13175TIP3    H160940   1.870   0.859  14.082  1.6899  0.1175 -0.5188
13175TIP3    H260941   1.936   0.842  14.218  0.0200 -0.0631  0.2961
13176TIP3   OH260942   5.214   3.039  13.033 -0.2767  0.1123 -0.1028
13176TIP3    H160943   5.165   3.113  13.069  0.6383  1.1914 -0.9643
13176TIP3    H260944   5.208   2.971  13.099 -1.6174  0.7606  0.4782
13177TIP3   OH260945   0.152   2.600   6.225  0.5488  0.1209 -0.6582
13177TIP3    H160946   0.062   2.584   6.250  1.3171 -0.4921  2.0423
13177TIP3    H260947   0.165   2.549   6.146 -0.9066 -1.4760  0.0886
13178TIP3   OH260948   5.016   1.685  11.938  0.1529  0.3289 -0.5961
13178TIP3    H160949   5.024   1.620  12.008  1.9452  1.2197  0.0608
13178TIP3    H260950   4.938   1.657  11.890 -1.5191 -0.0011  2.0597
13179TIP3   OH260951   0.840   2.972   3.693 -0.1396 -0.3671  0.3080
13179TIP3    H160952   0.867   3.012   3.776 -1.9915  0.1605  0.7114
13179TIP3    H260953   0.752   3.007   3.678  0.3692  0.0154 -2.1882
13180TIP3   OH260954   4.793   6.701  11.720 -0.0991  0.0323  0.5196
13180TIP3    H160955   4.706   6.670  11.744  0.3982 -2.7380 -0.8673
13180TIP3    H260956   4.792   6.704  11.625  1.5542 -0.9884  0.4251
13181TIP3   OH260957   2.768   6.205  13.394  0.5012  0.8626 -0.0009
13181TIP3    H160958   2.736   6.255  13.469  0.8176  2.0043 -0.5976
13181TIP3    H260959   2.839   6.151  13.430 -0.8259 -0.3075  0.9471
13182TIP3   OH260960   0.453   5.287   3.185  0.0739 -0.0392  1.1372
13182TIP3    H160961   0.483   5.292   3.095  1.8916 -2.1522  1.5523
13182TIP3    H260962   0.497   5.361   3.229 -0.8077  0.9846  0.3554
13183TIP3   OH260963   6.548   5.849  16.015  0.0398 -0.1926  0.0079
13183TIP3    H160964   6.601   5.869  15.938  1.0411 -1.0183  0.4710
13183TIP3    H260965   6.511   5.934  16.041  1.6097  0.5090  0.0323
13184TIP3   OH260966   5.292   0.144   2.880  0.1199 -0.4960  0.3603
13184TIP3    H160967   5.290   0.062   2.832  0.5863 -0.6695  0.6274
13184TIP3    H260968   5.211   0.188   2.857  0.4116 -0.5051 -0.7081
13185TIP3   OH260969   4.730   5.599  13.471 -0.2103  0.6502  0.2196
13185TIP3    H160970   4.648   5.627  13.430 -0.4074  0.4880  0.5003
13185TIP3    H260971   4.763   5.677  13.516 -0.9723  0.3281  1.3546
13186TIP3   OH260972   5.632   3.496   6.122  0.1209  0.0122 -0.5802
13186TIP3    H160973   5.576   3.551   6.176 -0.0517  0.0755 -0.8195
13186TIP3    H260974   5.710   3.548   6.105  1.2728 -0.8886  1.6080
13187TIP3   OH260975   2.928   1.172   2.783  0.4087 -0.2361  0.1999
13187TIP3    H160976   2.944   1.130   2.698  2.4000 -0.3774  0.5888
13187TIP3    H260977   2.834   1.190   2.784 -0.1545 -2.6798 -0.9088
13188TIP3   OH260978   3.310   2.730  15.766 -0.0388  0.7044 -0.0579
13188TIP3    H160979   3.297   2.740  15.672 -2.3062  2.1389  0.3086
13188TIP3    H260980   3.395   2.770  15.784 -0.6921  2.7263 -1.2001
13189TIP3   OH260981   4.473   1.476   6.370  0.2610  0.4829  0.0932
13189TIP3    H160982   4.536   1.536   6.408 -0.7184  1.3923  0.3494
13189TIP3    H260983   4.438   1.522   6.294 -1.3399  0.7778  0.9491
13190TIP3   OH260984   4.123   3.128  13.792 -0.0180  0.5890  0.3126
13190TIP3    H160985   4.086   3.105  13.707 -2.1012  2.6060  0.5804
13190TIP3    H260986   4.127   3.223  13.791  2.7746  0.5603  1.3812
13191TIP3   OH260987   5.343   3.826   1.707  0.0956 -0.1184  0.1935
13191TIP3    H160988   5.296   3.789   1.782  0.0021 -1.2542 -0.4014
13191TIP3    H260989   5.351   3.919   1.727 -2.3133  0.1114  0.3609
13192TIP3   OH260990   2.028   3.735   2.757  0.1338 -0.6348 -0.1742
13192TIP3    H160991   1.958   3.698   2.810  0.4337 -0.0352  0.6564
13192TIP3    H260992   1.996   3.729   2.667 -0.2195 -2.0152  0.0289
13193TIP3   OH260993   5.668   3.168  10.516 -0.1405 -0.0948  0.3169
13193TIP3    H160994   5.602   3.162  10.447  0.6296  2.0855 -0.7065
13193TIP3    H260995   5.751   3.147  10.472  0.3457  1.1840  0.5913
13194TIP3   OH260996   5.012   0.341  14.192 -0.3426  0.1186  0.4046
13194TIP3    H160997   4.985   0.372  14.278  1.5492  0.3415  0.9593
13194TIP3    H260998   5.011   0.420  14.137 -0.0298  0.2719  0.6210
13195TIP3   OH260999   6.182   1.010   4.575 -0.1368  0.0766 -0.0327
13195TIP3    H161000   6.209   1.047   4.659 -1.3837  0.7535  0.0903
13195TIP3    H261001   6.099   1.053   4.555 -1.2580 -2.0440 -0.2806
13196TIP3   OH261002   4.432   2.993   1.706 -0.1559 -0.5907  0.5111
13196TIP3    H161003   4.458   2.915   1.755 -1.0820 -1.0009  0.3499
13196TIP3    H261004   4.425   3.062   1.773 -0.2623 -0.8684  0.7862
13197TIP3   OH261005   6.173   1.440  12.737 -0.2622  0.0690 -0.6471
13197TIP3    H161006   6.136   1.480  12.815 -0.0237  0.1258 -0.5618
13197TIP3    H261007   6.247   1.497  12.714 -0.2987  0.0239 -0.8825
13198TIP3   OH261008   2.482   5.454  12.340 -0.0042  0.5839  0.2626
13198TIP3    H161009   2.548   5.501  12.289  0.0931  1.3818  1.0931
13198TIP3    H261010   2.527   5.432  12.422 -0.7341  1.0781  0.8098
13199TIP3   OH261011   0.862   5.852   3.031 -0.2524  0.6630 -0.2256
13199TIP3    H161012   0.949   5.883   3.058 -0.3010 -0.2440  1.0545
13199TIP3    H261013   0.803   5.885   3.098 -0.9645  1.4838 -1.2224
13200TIP3   OH261014   0.913   0.078  14.547 -0.2655 -1.2133 -0.1194
13200TIP3    H161015   0.959   0.048  14.469 -1.5999 -2.1622 -0.5782
13200TIP3    H261016   0.821   0.067  14.526 -0.8530  2.0111  0.1940
13201TIP3   OH261017   4.342   0.767  14.075 -0.2940 -0.0345 -0.5030
13201TIP3    H161018   4.345   0.861  14.095  0.4062 -0.0277 -0.6034
13201TIP3    H261019   4.423   0.751  14.027  0.7152 -1.1309  1.4403
13202TIP3   OH261020   5.180   5.123   1.579 -0.0455 -0.7034 -0.6549
13202TIP3    H161021   5.207   5.071   1.655  2.6856  0.4097 -0.7616
13202TIP3    H261022   5.135   5.061   1.522  0.2406 -2.1735  0.6590
13203TIP3   OH261023   1.171   6.662  11.738 -0.3876  0.1156 -0.0545
13203TIP3    H161024   1.149   6.582  11.690  0.1084  0.3284 -0.6402
13203TIP3    H261025   1.267   6.664  11.738 -0.3985  0.9879 -0.5140
13204TIP3   OH261026   3.476   4.675  15.385 -0.4513 -0.0315  0.5867
13204TIP3    H161027   3.439   4.706  15.302  0.2024 -1.1364 -0.1515
13204TIP3    H261028   3.402   4.635  15.430 -0.6778 -0.0222  0.2280
13205TIP3   OH261029   0.236   2.266  14.945  0.0945 -0.3227 -0.3656
13205TIP3    H161030   0.146   2.274  14.979  1.3211  1.5823  2.9799
13205TIP3    H261031   0.254   2.352  14.907  0.8788 -0.2581  0.1386
13206TIP3   OH261032   0.564   3.757   5.625 -0.6318 -0.5573  0.3586
13206TIP3    H161033   0.523   3.793   5.704 -0.8497 -0.6327  0.2803
13206TIP3    H261034   0.497   3.702   5.586 -0.0438 -1.6687  0.8832
13207TIP3   OH261035   3.456   1.587   1.634  0.4554  0.3792 -0.3815
13207TIP3    H161036   3.526   1.613   1.694  1.7560 -1.0682 -1.1868
13207TIP3    H261037   3.406   1.521   1.683  1.5667 -0.8653 -0.8543
13208TIP3   OH261038   4.478   0.634  13.684  0.3030 -0.1321  0.6087
13208TIP3    H161039   4.493   0.725  13.711  0.3652 -0.2789  1.0814
13208TIP3    H261040   4.473   0.638  13.589 -1.1218  0.5855  0.6840
13209TIP3   OH261041   2.991   0.719  16.939 -0.3745  0.6481 -0.6070
13209TIP3    H161042   2.947   0.774  16.875  0.2016  1.5312 -0.2612
13209TIP3    H261043   3.019   0.642  16.889 -1.6328  0.4141 -0.9852
13210TIP3   OH261044   0.121   3.716   1.057 -0.0941  0.3496  0.7801
13210TIP3    H161045   0.060   3.747   1.124 -0.3807 -1.8294  1.6220
13210TIP3    H261046   0.128   3.789   0.996 -3.5529  0.7505  0.6424
13211TIP3   OH261047   2.991   0.582   1.617  0.1293 -0.1852 -0.6086
13211TIP3    H161048   2.925   0.637   1.574  0.7270  0.6007 -0.5393
13211TIP3    H261049   2.943   0.504   1.643 -1.0578  0.8553  0.4735
13212TIP3   OH261050   0.609   6.293   3.475 -0.3155 -0.2061  0.2982
13212TIP3    H161051   0.522   6.261   3.500 -0.3188 -0.7081 -0.3176
13212TIP3    H261052   0.604   6.388   3.486 -1.8129  0.0931 -2.2330
13213TIP3   OH261053   0.986   2.875   4.046 -0.0582  0.1016 -0.2134
13213TIP3    H161054   0.988   2.882   4.141  0.5575 -0.5150 -0.1773
13213TIP3    H261055   0.915   2.813   4.028 -0.7988  0.9277 -0.2094
13214TIP3   OH261056   2.931   6.091   2.578  0.3800 -0.6130 -0.1438
13214TIP3    H161057   2.950   6.131   2.493  0.2056 -0.7432 -0.2450
13214TIP3    H261058   2.843   6.055   2.568  0.5015 -0.9481 -0.0253
13215TIP3   OH261059   5.261   2.049  14.313  0.3246 -0.3570  0.0882
13215TIP3    H161060   5.167   2.059  14.297  0.2930 -1.8748 -0.8667
13215TIP3    H261061   5.267   1.991  14.388  0.4556 -1.6903 -0.9059
13216TIP3   OH261062   0.416   1.343   0.537 -0.1289 -0.1588 -0.1937
13216TIP3    H161063   0.457   1.396   0.469  1.1469  0.7999  1.2613
13216TIP3    H261064   0.442   1.385   0.619 -2.0727 -0.9413  0.8897
13217TIP3   OH261065   1.680   6.408  16.683  0.0442  0.0118  0.7578
13217TIP3    H161066   1.761   6.441  16.722  0.3817  0.2209 -0.1065
13217TIP3    H261067   1.611   6.459  16.724  0.3701  0.0499  1.2694
13218TIP3   OH261068   3.055   6.183   2.333 -0.1094 -0.1826 -0.5782
13218TIP3    H161069   3.030   6.107   2.280  0.2946 -1.0449  0.4070
13218TIP3    H261070   3.149   6.175   2.344 -0.2787 -0.4927  0.9081
13219TIP3   OH261071   3.821   1.550   3.936  0.0086  0.6234 -0.2000
13219TIP3    H161072   3.739   1.576   3.978 -0.9205  0.6682 -1.9383
13219TIP3    H261073   3.887   1.607   3.975 -0.5783 -0.0503  1.9163
13220TIP3   OH261074   0.327   1.989   0.523  0.0028  0.3789 -0.2947
13220TIP3    H161075   0.324   1.902   0.563 -1.4947  1.0756  1.2479
13220TIP3    H261076   0.237   2.021   0.530  1.1317  3.4358  2.4975
13221TIP3   OH261077   4.609   4.942  16.398  0.5284 -0.2461  0.0667
13221TIP3    H161078   4.695   4.952  16.357  0.5452  3.9961  0.7200
13221TIP3    H261079   4.624   4.958  16.491 -0.9726  0.7110  0.1767
13222TIP3   OH261080   4.705   6.164  11.326  0.1244 -0.1582 -0.0098
13222TIP3    H161081   4.616   6.146  11.294  0.3858 -0.9634 -0.3248
13222TIP3    H261082   4.736   6.237  11.273  0.6778 -1.6808 -1.9142
13223TIP3   OH261083   6.308   3.030  13.538  0.3202 -0.2799 -0.4308
13223TIP3    H161084   6.304   2.961  13.605  1.3810  1.5259  1.6099
13223TIP3    H261085   6.363   2.993  13.469 -1.3921 -2.4686 -0.7360
13224TIP3   OH261086   5.613   0.417   0.461  0.1532 -0.3585  0.1020
13224TIP3    H161087   5.543   0.481   0.447  0.0180 -0.7989 -1.3601
13224TIP3    H261088   5.694   0.466   0.442  0.1067 -0.3994 -0.1994
13225TIP3   OH261089   5.009   4.439  13.154 -0.9838  0.4781  0.0009
13225TIP3    H161090   4.958   4.478  13.224 -0.4292 -1.6602  1.6956
13225TIP3    H261091   5.066   4.375  13.198  0.2807 -0.0632 -2.2522
13226TIP3   OH261092   5.592   0.617   4.102 -0.7128  0.6596 -0.6887
13226TIP3    H161093   5.628   0.691   4.053 -0.3125  0.1047 -1.2510
13226TIP3    H261094   5.622   0.630   4.192  2.5620 -0.7346 -1.4116
13227TIP3   OH261095   2.249   2.047  16.918 -0.3802  0.1048 -0.4980
13227TIP3    H161096   2.216   2.112  16.856 -0.4911  0.0075 -0.5409
13227TIP3    H261097   2.334   2.020  16.883 -0.5370 -0.1032 -0.7155
13228TIP3   OH261098   2.831   6.744   1.918  0.0251 -0.6190  0.0070
13228TIP3    H161099   2.776   6.819   1.943 -0.3807 -0.7473 -0.4662
13228TIP3    H261100   2.796   6.671   1.969  1.1143 -0.2727  1.2744
13229TIP3   OH261101   4.497   3.165  13.607  0.1544 -0.2426 -0.0616
13229TIP3    H161102   4.438   3.237  13.585  0.1197  0.1054  1.0794
13229TIP3    H261103   4.560   3.203  13.669 -0.4792 -1.4063  1.3764
13230TIP3   OH261104   2.627   6.295   3.396 -0.3865 -0.0066  0.3766
13230TIP3    H161105   2.606   6.232   3.327 -0.3114 -0.6670  0.9545
13230TIP3    H261106   2.720   6.313   3.384  0.0111 -1.3166  1.2520
13231TIP3   OH261107   1.413   1.845  11.660 -0.1167  0.6300  0.1831
13231TIP3    H161108   1.470   1.834  11.736  0.6325  0.8841 -0.3177
13231TIP3    H261109   1.379   1.758  11.643 -1.2192  0.7757  1.4903
13232TIP3   OH261110   4.644   3.696   5.503 -0.0195  0.0376 -0.3318
13232TIP3    H161111   4.692   3.744   5.436  1.1973 -1.1822 -0.3973
13232TIP3    H261112   4.580   3.645   5.455 -1.1068  1.3136 -0.2867
13233TIP3   OH261113   4.319   1.359  12.274  0.5023 -0.8185 -0.4901
13233TIP3    H161114   4.307   1.308  12.194 -0.1273 -0.7004 -0.4735
13233TIP3    H261115   4.304   1.297  12.345 -0.5850 -0.5465 -0.4698
13234TIP3   OH261116   3.685   0.832   4.615  0.4912 -0.3272  0.3448
13234TIP3    H161117   3.762   0.826   4.672  0.1966 -1.3933  0.6491
13234TIP3    H261118   3.612   0.846   4.675  0.4775  1.0864  0.0288
13235TIP3   OH261119   4.617   1.128   0.811  0.1050 -0.3281  0.2883
13235TIP3    H161120   4.637   1.183   0.887  1.1344  0.2810 -0.3903
13235TIP3    H261121   4.586   1.046   0.849  0.7786 -0.1112  1.3841
13236TIP3   OH261122   5.336   5.741   1.459 -0.3833  0.1365 -0.0003
13236TIP3    H161123   5.396   5.811   1.435 -0.3306 -0.0811 -0.5099
13236TIP3    H261124   5.267   5.744   1.393 -0.5291 -0.1073  0.1377
13237TIP3   OH261125   2.033   5.451   2.791  0.0887 -0.5900  0.0676
13237TIP3    H161126   2.075   5.377   2.746 -0.6178 -2.8142  2.7833
13237TIP3    H261127   1.957   5.471   2.737  0.1300 -2.0579 -0.5976
13238TIP3   OH261128   4.511   0.655  14.484  0.4467 -0.2552 -0.1879
13238TIP3    H161129   4.535   0.600  14.409  1.1490 -0.5957  0.2788
13238TIP3    H261130   4.425   0.690  14.461 -0.4680 -2.2872 -0.1055
13239TIP3   OH261131   6.029   0.721   2.785  0.3823 -0.1893 -0.2465
13239TIP3    H161132   6.110   0.705   2.834  0.6402  0.5055 -0.4360
13239TIP3    H261133   6.058   0.760   2.702 -0.1154 -0.3842 -0.5154
13240TIP3   OH261134   6.387   3.729  16.781 -0.4107 -0.4509  0.3466
13240TIP3    H161135   6.458   3.755  16.840  1.0868 -1.5129 -0.9030
13240TIP3    H261136   6.404   3.779  16.700 -2.0684  0.5190  0.5627
13241TIP3   OH261137   3.448   2.425  13.669 -0.3183 -0.3176 -0.1476
13241TIP3    H161138   3.511   2.484  13.626 -0.0922 -0.5075 -0.0792
13241TIP3    H261139   3.502   2.353  13.702 -0.6205 -0.6688 -0.4173
13242TIP3   OH261140   1.959   5.437  11.786 -0.1574 -0.0951  0.0570
13242TIP3    H161141   2.038   5.404  11.827 -0.0250  0.3826  0.1875
13242TIP3    H261142   1.989   5.502  11.723 -0.3110 -1.1994 -1.2079
13243TIP3   OH261143   0.097   4.019  13.959 -0.9638  0.7311 -0.3858
13243TIP3    H161144   0.049   4.018  13.876  1.3393  1.5922 -1.8159
13243TIP3    H261145   0.109   4.112  13.979  1.0766  0.5905 -0.7230
13244TIP3   OH261146   4.400   3.780   4.076 -0.4370 -0.1321 -0.0090
13244TIP3    H161147   4.445   3.831   4.143 -0.3154 -0.2919  0.0309
13244TIP3    H261148   4.321   3.830   4.057  1.1345  1.6787 -2.2031
13245TIP3   OH261149   3.425   1.839  15.913 -0.5406  0.3653 -0.3569
13245TIP3    H161150   3.335   1.807  15.924 -0.1374 -0.9289 -0.6335
13245TIP3    H261151   3.460   1.787  15.841  1.0067 -0.4230  0.9142
13246TIP3   OH261152   1.685   3.621  11.810  0.4558  0.1262  0.2235
13246TIP3    H161153   1.718   3.668  11.733  0.7817 -1.6657 -0.7692
13246TIP3    H261154   1.763   3.600  11.861  0.6832 -1.9316 -0.8748
13247TIP3   OH261155   0.349   0.541  15.601 -0.1268  0.1695 -0.5660
13247TIP3    H161156   0.425   0.559  15.656  0.3575  0.0301 -1.1775
13247TIP3    H261157   0.303   0.625  15.594  0.0788  0.2983 -0.3608
13248TIP3   OH261158   3.335   1.881   2.706 -0.0979  0.1095  0.4402
13248TIP3    H161159   3.283   1.955   2.674  1.2425  0.4995 -0.9819
13248TIP3    H261160   3.270   1.815   2.729 -1.2779  0.0605 -2.5480
13249TIP3   OH261161   3.435   0.105  16.214  0.5754 -0.2558 -0.0866
13249TIP3    H161162   3.495   0.114  16.288 -0.4821  0.4621  0.7035
13249TIP3    H261163   3.412   0.012  16.214  0.2091 -0.1736  0.7949
13250TIP3   OH261164   6.116   0.632  12.638  0.3560 -0.5890 -0.1875
13250TIP3    H161165   6.151   0.546  12.616  1.0373 -0.1210 -0.9796
13250TIP3    H261166   6.131   0.685  12.560  0.3607  0.3752  0.4525
13251TIP3   OH261167   1.871   6.726  15.644  0.1346  0.2512  0.2012
13251TIP3    H161168   1.845   6.636  15.622  1.7128 -0.0214 -0.6462
13251TIP3    H261169   1.820   6.747  15.722 -1.5910 -0.7304 -0.5989
13252TIP3   OH261170   3.842   2.695   4.564 -0.7463 -0.0244 -0.1260
13252TIP3    H161171   3.929   2.662   4.542 -0.2828  0.1540  1.3502
13252TIP3    H261172   3.794   2.617   4.593 -0.6995  0.0707  0.2056
13253TIP3   OH261173   2.355   0.625  17.306  0.4494  0.2653 -0.2855
13253TIP3    H161174   2.437   0.579  17.293 -0.1326 -1.6104  1.9793
13253TIP3    H261175   2.291   0.557  17.326 -0.7248  1.8816  2.0609
13254TIP3   OH261176   6.543   5.565  13.357 -0.7462  0.1157 -0.0885
13254TIP3    H161177   6.580   5.543  13.272  1.5820 -3.8816  1.6329
13254TIP3    H261178   6.607   5.625  13.396  0.4313 -1.2545  0.2210
13255TIP3   OH261179   4.690   2.588  16.248 -0.7298 -0.6275  0.1872
13255TIP3    H161180   4.679   2.683  16.246  0.3529 -0.4306 -3.2060
13255TIP3    H261181   4.771   2.574  16.297  0.0301  0.4196 -0.7086
13256TIP3   OH261182   5.939   1.676  14.122 -0.0699 -0.1398 -0.1189
13256TIP3    H161183   6.033   1.693  14.111  0.2350 -0.7053  1.3103
13256TIP3    H261184   5.916   1.720  14.204 -0.5407 -1.7582  0.6766
13257TIP3   OH261185   4.179   5.444  14.523 -0.2037 -0.2098  0.6020
13257TIP3    H161186   4.122   5.513  14.558  0.7915  0.4785  0.9362
13257TIP3    H261187   4.220   5.406  14.600 -0.8083 -1.2516  0.4184
13258TIP3   OH261188   2.170   1.767  16.945 -0.5518 -0.2600  0.5805
13258TIP3    H161189   2.205   1.855  16.936 -1.1547  0.0445  1.1083
13258TIP3    H261190   2.184   1.745  17.037 -0.9172 -0.4924  0.5823
13259TIP3   OH261191   5.532   5.452  11.851  0.7980 -0.3346  0.0642
13259TIP3    H161192   5.446   5.444  11.811 -0.3968  0.6982  2.2669
13259TIP3    H261193   5.562   5.540  11.828  0.2690  0.1235  1.0498
13260TIP3   OH261194   5.769   2.052   4.458  0.0071  0.5376  0.2375
13260TIP3    H161195   5.788   1.959   4.446  1.3586  1.0054 -2.0721
13260TIP3    H261196   5.853   2.090   4.485 -0.1951  1.2364 -0.0849
13261TIP3   OH261197   2.787   0.935   2.632  0.4144 -0.0108  0.2376
13261TIP3    H161198   2.756   0.850   2.603 -1.3791  0.4450  0.6845
13261TIP3    H261199   2.875   0.942   2.597  0.1726 -1.5676 -0.7615
13262TIP3   OH261200   5.126   0.867   3.431  0.0435  0.0969 -0.0332
13262TIP3    H161201   5.161   0.784   3.399 -2.1165 -1.1555  0.6912
13262TIP3    H261202   5.184   0.891   3.504  0.6723 -0.7747 -0.2325
13263TIP3   OH261203   4.661   4.828  14.508 -0.0698  0.3498 -0.4835
13263TIP3    H161204   4.611   4.838  14.589  0.5777  0.5460 -0.0972
13263TIP3    H261205   4.709   4.910  14.499  0.8776 -0.1695 -0.3564
13264TIP3   OH261206   0.778   6.219  11.412  0.0662 -0.2931 -0.0094
13264TIP3    H161207   0.858   6.181  11.449 -0.0079 -1.0889 -0.6425
13264TIP3    H261208   0.756   6.290  11.472 -0.2028 -1.6793  1.6314
13265TIP3   OH261209   2.953   5.582  16.011  0.3734 -0.0474  0.1793
13265TIP3    H161210   2.994   5.550  16.091  0.0487  1.3419  0.9420
13265TIP3    H261211   3.022   5.578  15.945  0.2468 -2.6083  0.1001
13266TIP3   OH261212   3.775   5.831  12.466  0.4021  0.4746 -0.3281
13266TIP3    H161213   3.867   5.813  12.480  0.2831  1.1577  1.6500
13266TIP3    H261214   3.745   5.871  12.548 -1.3470  1.4496 -1.3653
13267TIP3   OH261215   0.070   3.287  14.844  0.4992  0.4921  0.4030
13267TIP3    H161216   0.140   3.253  14.900 -0.1337 -1.6143  0.0152
13267TIP3    H261217   0.092   3.255  14.756 -1.2627 -0.8528  0.3889
13268TIP3   OH261218   4.886   0.137  12.104 -0.7270 -0.0282  0.7082
13268TIP3    H161219   4.827   0.153  12.031  2.6961  2.7027 -1.7933
13268TIP3    H261220   4.939   0.063  12.076  0.0430  0.4878  0.7655
13269TIP3   OH261221   4.043   3.817   4.897  0.6823  0.0021  0.3371
13269TIP3    H161222   3.987   3.856   4.830  0.7523  0.4569  0.5393
13269TIP3    H261223   4.000   3.838   4.980  0.8680 -0.1133  0.4644
13270TIP3   OH261224   2.760   2.584  16.723 -0.0602 -0.3243 -0.0097
13270TIP3    H161225   2.785   2.673  16.749  2.1802 -0.1155 -2.4086
13270TIP3    H261226   2.710   2.596  16.642  1.3271 -1.2038 -1.0552
13271TIP3   OH261227   4.139   0.808   5.347  0.4926  0.4009  0.2895
13271TIP3    H161228   4.166   0.727   5.303  2.1726  0.6855  0.7096
13271TIP3    H261229   4.048   0.821   5.320  0.2073 -1.5692  0.1386
13272TIP3   OH261230   4.994   1.364  16.541  0.0385  0.5986  0.6756
13272TIP3    H161231   5.050   1.421  16.594 -0.0441  1.4109 -0.1021
13272TIP3    H261232   5.011   1.389  16.451 -1.0891  0.4079  0.3849
13273TIP3   OH261233   0.706   0.878  13.746  0.1810  0.1635  0.4814
13273TIP3    H161234   0.616   0.911  13.745  0.3813  0.8065  1.5083
13273TIP3    H261235   0.757   0.950  13.784  1.3478  0.2866 -1.2057
13274TIP3   OH261236   3.667   5.082  13.972  0.0935  0.0548  0.0574
13274TIP3    H161237   3.614   5.099  13.894 -0.5858  1.4543  0.7807
13274TIP3    H261238   3.757   5.097  13.944 -0.1098  0.1157 -0.5694
13275TIP3   OH261239   3.499   3.323  16.931 -0.6761  0.0166  0.1391
13275TIP3    H161240   3.434   3.384  16.966 -1.1964 -0.8431  0.7029
13275TIP3    H261241   3.474   3.238  16.967 -0.0872 -0.5728 -0.7958
13276TIP3   OH261242   4.744   3.503  12.950  0.4403 -0.5234 -0.2845
13276TIP3    H161243   4.767   3.482  12.859  1.4611  1.4080 -0.5176
13276TIP3    H261244   4.798   3.579  12.972  0.5015 -1.1666  2.0876
13277TIP3   OH261245   2.282   3.474  11.625 -0.6542  1.0645 -0.0990
13277TIP3    H161246   2.338   3.532  11.572  0.1261  0.6988  0.3102
13277TIP3    H261247   2.223   3.434  11.561  0.1030  0.8323 -0.6678
13278TIP3   OH261248   5.811   0.632  15.525  0.7738 -0.2896  0.0806
13278TIP3    H161249   5.760   0.617  15.446  3.0353 -1.8694 -1.1833
13278TIP3    H261250   5.858   0.550  15.540  1.2239  0.3152  2.4915
13279TIP3   OH261251   0.953   2.589  15.837 -0.1379 -0.5792 -0.0075
13279TIP3    H161252   1.041   2.628  15.842 -0.3325  0.2642 -1.9347
13279TIP3    H261253   0.917   2.600  15.925  1.0422  0.6830  0.3669
13280TIP3   OH261254   4.542   0.283   5.560 -0.1177  0.0206 -0.0961
13280TIP3    H161255   4.624   0.302   5.515 -0.5012  0.9823 -0.4100
13280TIP3    H261256   4.489   0.236   5.496  0.0139 -0.2116 -0.0374
13281TIP3   OH261257   5.327   3.526   1.980  0.5474  0.4906 -0.6684
13281TIP3    H161258   5.320   3.530   1.885  0.0794 -2.0359 -0.8013
13281TIP3    H261259   5.278   3.602   2.011  1.7969  2.1171 -2.4103
13282TIP3   OH261260   2.619   2.773   0.091  0.4116  0.1212 -0.0504
13282TIP3    H161261   2.710   2.754   0.115  0.1064 -0.3538  0.7456
13282TIP3    H261262   2.567   2.736   0.162 -0.3653  1.3452  0.0442
13283TIP3   OH261263   4.422   0.316  15.598  0.4342  0.4631  0.0214
13283TIP3    H161264   4.410   0.232  15.644  0.3986  1.0860  1.1772
13283TIP3    H261265   4.426   0.291  15.506 -1.1260 -0.6672  0.2072
13284TIP3   OH261266   0.933   5.999   1.403  0.1685  0.1175  0.2276
13284TIP3    H161267   0.952   5.925   1.346  1.8969  1.7341 -1.4541
13284TIP3    H261268   0.990   5.987   1.478 -1.2926 -1.4371  1.1483
13285TIP3   OH261269   2.596   6.264   2.656 -0.2350  0.5119  0.4833
13285TIP3    H161270   2.678   6.298   2.691  0.4524 -0.2340 -0.3699
13285TIP3    H261271   2.622   6.195   2.595 -1.5085  0.0043  0.4800
13286TIP3   OH261272   0.455   6.720  15.479  0.4202  0.2578 -0.0703
13286TIP3    H161273   0.484   6.811  15.474 -2.6714  1.2919 -1.1284
13286TIP3    H261274   0.405   6.715  15.560 -0.0293 -0.2951 -0.3771
13287TIP3   OH261275   6.739   2.918  13.787 -0.1944  0.2233 -0.0882
13287TIP3    H161276   6.698   2.832  13.780  0.2578  0.0869 -1.1427
13287TIP3    H261277   6.821   2.910  13.740  0.5034  0.8460  0.9659
13288TIP3   OH261278   0.846   0.515   4.900  0.1076  0.6190  0.3637
13288TIP3    H161279   0.793   0.581   4.855  1.0704  2.2983  1.6033
13288TIP3    H261280   0.807   0.506   4.986  0.0843 -0.3560  0.2711
13289TIP3   OH261281   4.874   0.766   1.687  0.4118 -0.0747  0.4083
13289TIP3    H161282   4.822   0.833   1.732  1.1819  0.1278  1.0116
13289TIP3    H261283   4.937   0.815   1.634  1.7139 -0.2970  1.7078
13290TIP3   OH261284   6.724   3.362   1.634  0.3930  0.2616 -0.5213
13290TIP3    H161285   6.664   3.336   1.704  1.3138  0.9352  0.5633
13290TIP3    H261286   6.802   3.393   1.680  0.4955  2.0792 -1.8048
13291TIP3   OH261287   4.447   0.317   0.488 -0.3712 -0.0578 -0.0869
13291TIP3    H161288   4.508   0.355   0.552 -0.2306 -1.7549  0.8596
13291TIP3    H261289   4.375   0.380   0.483  0.7028  1.2224 -0.0217
13292TIP3   OH261290   1.190   3.499  13.599  0.8735 -0.2196  0.2227
13292TIP3    H161291   1.161   3.422  13.648  0.7671 -0.0800  0.3837
13292TIP3    H261292   1.259   3.537  13.654 -0.1602  0.6972  0.9499
13293TIP3   OH261293   2.502   3.616  11.369  0.8065  0.4122  0.0053
13293TIP3    H161294   2.423   3.665  11.390 -1.9529 -3.2203 -0.8936
13293TIP3    H261295   2.552   3.613  11.451 -0.8126  1.4088  1.0734
13294TIP3   OH261296   6.301   0.062   1.601 -0.0429 -0.2211 -0.4190
13294TIP3    H161297   6.213   0.026   1.613  0.1002 -0.1224  1.1851
13294TIP3    H261298   6.286   0.147   1.559 -0.8272  0.2859  0.8296
13295TIP3   OH261299   3.561   0.553   2.286 -0.4266  0.2265 -0.2614
13295TIP3    H161300   3.568   0.493   2.361  0.3232 -0.1189 -0.5991
13295TIP3    H261301   3.610   0.630   2.313 -0.7235  0.3725 -0.1364
13296TIP3   OH261302   2.597   5.731  16.429 -0.1389 -0.6083  0.1379
13296TIP3    H161303   2.560   5.649  16.398 -0.0165 -0.7433  0.3431
13296TIP3    H261304   2.530   5.797  16.411 -0.2082 -0.7414 -0.0912
13297TIP3   OH261305   6.542   1.647   3.274  0.0156 -0.3803  0.3590
13297TIP3    H161306   6.553   1.564   3.320 -2.3514 -0.7196  0.4462
13297TIP3    H261307   6.530   1.711   3.345 -1.6513 -0.5848  0.3096
13298TIP3   OH261308   2.015   1.759  12.506  0.0222  0.0046  0.5278
13298TIP3    H161309   2.087   1.698  12.493 -0.5094 -0.3494 -0.9930
13298TIP3    H261310   2.044   1.817  12.576  2.1870  0.4796 -0.6857
13299TIP3   OH261311   2.866   0.852  12.547  0.7237  0.0228 -0.2010
13299TIP3    H161312   2.830   0.918  12.489  0.9984 -0.3221 -0.7679
13299TIP3    H261313   2.960   0.854  12.531  0.7574 -0.3490 -0.0610
13300TIP3   OH261314   2.919   4.264  15.907  0.0864  0.4934 -0.6257
13300TIP3    H161315   2.909   4.230  15.818  0.6925  1.5711 -1.1201
13300TIP3    H261316   3.006   4.234  15.934 -0.7238 -1.2162  0.2511
13301TIP3   OH261317   5.020   1.440  15.432  0.0102  0.2189 -0.2694
13301TIP3    H161318   5.048   1.383  15.503  1.6021  2.1168  0.7390
13301TIP3    H261319   4.977   1.514  15.476 -1.1647  0.2749 -1.4572
13302TIP3   OH261320   3.407   4.967  16.884  0.2134  0.6911 -0.6872
13302TIP3    H161321   3.417   4.964  16.979  1.1624 -0.8760 -0.7901
13302TIP3    H261322   3.418   4.876  16.857  0.5662  1.2090 -2.3642
13303TIP3   OH261323   5.357   2.663  14.303 -0.1094  0.0348  0.1793
13303TIP3    H161324   5.325   2.618  14.381  1.5902  1.2873  1.6693
13303TIP3    H261325   5.350   2.756  14.323 -0.2359  0.4154 -1.4406
13304TIP3   OH261326   1.900   3.225   4.967 -0.1695 -0.0781  0.3921
13304TIP3    H161327   1.818   3.230   4.917  0.0249 -0.0496  0.0783
13304TIP3    H261328   1.915   3.131   4.977  0.6166 -0.1182 -0.9614
13305TIP3   OH261329   1.927   3.437  11.362 -0.4411  0.1838 -0.1823
13305TIP3    H161330   2.019   3.430  11.337  0.1844  0.2957  1.8637
13305TIP3    H261331   1.881   3.458  11.281  1.1711 -1.0281 -1.4641
13306TIP3   OH261332   5.621   6.135  16.156 -0.1380  0.1975 -0.7131
13306TIP3    H161333   5.558   6.164  16.090 -1.2460 -3.2541 -1.3448
13306TIP3    H261334   5.691   6.094  16.105  0.6929  0.5084  0.1551
13307TIP3   OH261335   1.838   5.168   6.255  0.6920 -0.2603  0.5050
13307TIP3    H161336   1.763   5.185   6.198  1.4843 -2.1216 -1.2112
13307TIP3    H261337   1.802   5.170   6.344 -0.9494  0.9465 -0.1435
13308TIP3   OH261338   2.701   5.430   2.788 -0.2912 -0.7613 -0.3958
13308TIP3    H161339   2.740   5.496   2.844 -0.3673 -0.9330 -0.1395
13308TIP3    H261340   2.771   5.367   2.771  0.4152  0.4446 -2.3522
13309TIP3   OH261341   6.630   5.682   3.258  0.4331  0.2278  0.0060
13309TIP3    H161342   6.593   5.631   3.186 -1.2736 -0.4241  1.2892
13309TIP3    H261343   6.580   5.655   3.335  2.0267  1.0985  1.4055
13310TIP3   OH261344   0.021   0.458  13.658  0.0865 -0.2077 -0.3180
13310TIP3    H161345   0.061   0.528  13.606 -1.0425  0.0725 -0.8426
13310TIP3    H261346  -0.045   0.421  13.600 -1.6139  0.4912  1.0904
13311TIP3   OH261347   4.952   5.220  17.277  0.0612 -0.0783  0.3377
13311TIP3    H161348   4.967   5.129  17.305 -0.3515 -0.0592  0.6413
13311TIP3    H261349   4.880   5.250  17.333  0.8683  0.7735  0.9582
13312TIP3   OH261350   2.378   4.680   2.829  0.2488  0.2576  0.3511
13312TIP3    H161351   2.407   4.761   2.787  0.0428  0.3140  0.3198
13312TIP3    H261352   2.288   4.697   2.857 -0.6495 -0.7258 -1.7136
13313TIP3   OH261353   6.723   6.556  13.789 -0.0951 -0.1764 -0.0326
13313TIP3    H161354   6.706   6.539  13.696  0.8977 -1.1142 -0.0605
13313TIP3    H261355   6.792   6.493  13.813 -0.1224  0.2583  1.2614
13314TIP3   OH261356   3.903   6.589   1.124  0.0837 -0.1994 -0.6294
13314TIP3    H161357   3.948   6.584   1.039 -0.4043 -0.2146 -0.8941
13314TIP3    H261358   3.817   6.625   1.103  0.4342  1.0916  0.0580
13315TIP3   OH261359   6.690   2.109  12.425 -0.0670  0.1254  0.7642
13315TIP3    H161360   6.768   2.088  12.476 -1.1535  0.7040  2.7522
13315TIP3    H261361   6.689   2.044  12.355  1.3883 -0.8273  1.5864
13316TIP3   OH261362   3.656   3.247   2.839  0.9607  0.0151  0.7488
13316TIP3    H161363   3.637   3.159   2.807 -0.8159  0.8763 -0.7624
13316TIP3    H261364   3.721   3.281   2.778 -0.3778  0.6697 -0.3737
13317TIP3   OH261365   6.050   5.777  13.569  0.1009  0.1271  0.1287
13317TIP3    H161366   6.135   5.765  13.611  1.1366  3.0639 -0.8140
13317TIP3    H261367   5.996   5.821  13.634 -0.6905 -1.5651  0.6611
13318TIP3   OH261368   2.664   4.730   2.698 -0.2447 -0.0502  0.6382
13318TIP3    H161369   2.638   4.821   2.711  0.6778  0.7751 -2.5070
13318TIP3    H261370   2.759   4.731   2.702 -0.1557 -0.5713 -0.9410
13319TIP3   OH261371   3.694   6.416  13.300 -0.5722  0.5364  0.3206
13319TIP3    H161372   3.756   6.379  13.236 -0.3891  2.6558 -0.8298
13319TIP3    H261373   3.749   6.472  13.356 -0.9565 -0.2293  1.4962
13320TIP3   OH261374   3.651   6.181   5.396 -0.1547 -0.4169 -0.1495
13320TIP3    H161375   3.690   6.247   5.340 -0.5392 -0.2761 -0.2550
13320TIP3    H261376   3.629   6.109   5.336  0.1411 -0.5851 -0.0570
13321TIP3   OH261377   3.161   5.273   4.104 -0.5637  0.2043  0.3709
13321TIP3    H161378   3.143   5.223   4.184 -1.3122 -1.2327 -0.6531
13321TIP3    H261379   3.113   5.355   4.117 -1.9455 -0.6266  0.7871
13322TIP3   OH261380   0.085   2.168  12.015  0.3672 -0.2057 -0.2409
13322TIP3    H161381   0.125   2.182  12.101  1.3485  1.2223 -0.8930
13322TIP3    H261382   0.013   2.230  12.011  0.6642  0.1178 -0.6534
13323TIP3   OH261383   4.625   1.273   5.190  0.1441 -0.2669  0.2927
13323TIP3    H161384   4.598   1.333   5.120  0.8181  0.6617  0.8102
13323TIP3    H261385   4.562   1.288   5.260  0.0817 -0.4468  0.2754
13324TIP3   OH261386   1.787   3.066  13.453 -0.2871 -0.0248 -0.6408
13324TIP3    H161387   1.851   3.079  13.524  0.2750 -2.0686 -0.7004
13324TIP3    H261388   1.713   3.024  13.496 -0.7392  0.4382 -0.9589
13325TIP3   OH261389   3.777   3.219  15.611  0.0937 -0.1599  0.5064
13325TIP3    H161390   3.752   3.177  15.694  0.9124 -1.3453  0.1797
13325TIP3    H261391   3.707   3.194  15.550  0.1198 -0.3124  0.5383
13326TIP3   OH261392   0.593   5.871   5.228 -0.7052 -0.5645  0.1709
13326TIP3    H161393   0.531   5.933   5.265 -0.0550  0.3112 -0.1538
13326TIP3    H261394   0.657   5.856   5.298  0.9299  1.6518 -0.7399
13327TIP3   OH261395   6.105   3.490   1.402  0.1536 -0.0850  0.0549
13327TIP3    H161396   6.145   3.405   1.384  1.6812  1.2146 -3.9167
13327TIP3    H261397   6.017   3.484   1.365 -0.3739 -0.3935  1.3087
13328TIP3   OH261398   6.230   3.992   0.539  0.6974 -0.4531 -0.1319
13328TIP3    H161399   6.160   3.951   0.487  0.0978 -1.4586  1.3677
13328TIP3    H261400   6.185   4.059   0.590  1.2000  0.2154 -0.5514
13329TIP3   OH261401   5.079   4.436   0.734  0.1042 -0.6650  0.1440
13329TIP3    H161402   5.061   4.345   0.709 -0.6416 -0.5508  0.2357
13329TIP3    H261403   5.168   4.434   0.769  0.9543 -0.9580 -1.8826
13330TIP3   OH261404   3.481   5.639  12.484 -0.2281 -0.4781  0.7045
13330TIP3    H161405   3.446   5.727  12.475 -1.6168 -1.0089  0.6972
13330TIP3    H261406   3.442   5.589  12.412  1.7572 -0.7633 -0.2534
13331TIP3   OH261407   3.873   3.960   0.285  0.3638  0.2717  0.0910
13331TIP3    H161408   3.882   4.048   0.247 -0.9999 -0.0587 -1.0716
13331TIP3    H261409   3.786   3.961   0.325  0.8842 -0.1332  1.2577
13332TIP3   OH261410   1.952   1.823   4.338 -0.0565  0.4901  0.3386
13332TIP3    H161411   1.873   1.788   4.379 -1.0621 -0.8679 -2.4964
13332TIP3    H261412   1.936   1.816   4.244  2.2004  3.1483 -0.3877
13333TIP3   OH261413   1.695   5.710  17.382 -0.0926  0.0672  0.1251
13333TIP3    H161414   1.638   5.650  17.432 -0.3897  0.1224 -0.1410
13333TIP3    H261415   1.766   5.654  17.351  0.7785  0.2747  1.6507
13334TIP3   OH261416   4.032   5.069  16.722  0.4389  0.0278 -0.3307
13334TIP3    H161417   3.952   5.101  16.763 -0.3094 -0.6057 -1.2407
13334TIP3    H261418   4.093   5.143  16.726  0.5035 -0.0996  2.1104
13335TIP3   OH261419   0.987   5.719   0.123  0.4430  0.0194 -0.0589
13335TIP3    H161420   0.924   5.791   0.112 -1.0997 -0.8490  2.3185
13335TIP3    H261421   1.035   5.742   0.203  1.1713 -0.7297 -0.2722
13336TIP3   OH261422   4.184   5.305   2.348  0.4149  0.1509  0.3214
13336TIP3    H161423   4.265   5.299   2.299  0.2680  0.6740  0.0046
13336TIP3    H261424   4.162   5.398   2.347 -1.5948 -0.2241 -1.9374
13337TIP3   OH261425   1.968   4.914  12.100 -0.1356  0.3917 -0.1027
13337TIP3    H161426   2.023   4.840  12.073 -0.5447 -0.1255  0.4596
13337TIP3    H261427   1.879   4.887  12.077 -0.3441  0.4881  0.5654
13338TIP3   OH261428   6.636   5.364  12.241  0.2758 -0.3880  0.7532
13338TIP3    H161429   6.582   5.318  12.305 -0.6629 -1.8411 -0.9961
13338TIP3    H261430   6.663   5.297  12.179  0.0170  1.1604 -1.1549
13339TIP3   OH261431   1.697   5.011   6.460 -0.3234 -0.2356 -0.6596
13339TIP3    H161432   1.677   4.925   6.498  2.5716 -0.5029  0.4656
13339TIP3    H261433   1.665   5.074   6.524 -0.1101 -0.5412 -0.2521
13340TIP3   OH261434   2.534   4.744   4.464  0.5190 -0.3170 -0.1244
13340TIP3    H161435   2.598   4.814   4.477  0.9446 -0.6624 -0.3477
13340TIP3    H261436   2.579   4.679   4.409 -0.6783  0.3272 -1.9526
13341TIP3   OH261437   3.716   3.288   5.146 -0.3652 -0.4900 -0.1750
13341TIP3    H161438   3.690   3.233   5.219 -2.5336 -0.7946 -1.0961
13341TIP3    H261439   3.793   3.245   5.109  0.4121 -0.6405  1.5119
13342TIP3   OH261440   4.600   1.640  14.163  0.3151  0.9162  0.5330
13342TIP3    H161441   4.582   1.570  14.226  0.3306  1.1123  0.7577
13342TIP3    H261442   4.514   1.659  14.124  0.8961 -2.6401 -3.2204
13343TIP3   OH261443   5.476   1.752  14.992 -0.6816 -0.1166  0.2726
13343TIP3    H161444   5.534   1.821  14.958  0.9052 -0.9604  1.1361
13343TIP3    H261445   5.435   1.715  14.914 -0.8573  1.1840 -0.2788
13344TIP3   OH261446   0.348   6.632   3.522 -0.1600  0.2748 -0.6431
13344TIP3    H161447   0.254   6.626   3.537 -0.0841 -1.2549 -0.6323
13344TIP3    H261448   0.383   6.668   3.603 -0.5688 -0.6812 -0.0294
13345TIP3   OH261449   0.664   0.431  13.635 -0.3995  0.5170  0.5434
13345TIP3    H161450   0.673   0.520  13.602  0.8215  0.4799  0.7113
13345TIP3    H261451   0.686   0.375  13.560  0.1258  0.3896  0.7874
13346TIP3   OH261452   2.385   5.334  11.179  0.1358  0.5296 -0.5305
13346TIP3    H161453   2.452   5.402  11.172  0.4630  0.2373 -0.2806
13346TIP3    H261454   2.302   5.382  11.180  0.2169  0.7885 -2.8022
13347TIP3   OH261455   1.088   3.638   2.284  0.4732  0.1524 -0.1031
13347TIP3    H161456   1.156   3.605   2.342 -0.3638 -0.3886  0.6010
13347TIP3    H261457   1.134   3.697   2.224  1.4294  0.4307  0.8652
13348TIP3   OH261458   1.551   0.381   2.099  0.4028 -0.3028 -0.5130
13348TIP3    H161459   1.483   0.442   2.126 -0.0834 -0.8431 -0.5088
13348TIP3    H261460   1.580   0.413   2.014  0.3817  0.1223 -0.3603
13349TIP3   OH261461   5.522   5.626  12.565  0.0555  0.1522 -0.5322
13349TIP3    H161462   5.448   5.589  12.613  1.3795 -3.6464 -1.0585
13349TIP3    H261463   5.482   5.672  12.491 -1.8147  0.1475  0.4216
13350TIP3   OH261464   4.555   5.024  14.155 -0.4660  0.2793 -0.1692
13350TIP3    H161465   4.548   5.117  14.173 -1.1950  0.1608  0.2326
13350TIP3    H261466   4.645   5.001  14.180  0.1155  1.0922 -1.4290
13351TIP3   OH261467   5.496   3.312   5.881 -0.1356 -0.4603 -0.6859
13351TIP3    H161468   5.547   3.392   5.897 -2.5340  1.1475 -0.5755
13351TIP3    H261469   5.497   3.267   5.965  0.2841  0.0282 -0.4174
13352TIP3   OH261470   5.166   2.155   6.081 -0.4531 -0.1016 -0.4244
13352TIP3    H161471   5.138   2.065   6.067 -1.3521  0.1316 -0.1640
13352TIP3    H261472   5.092   2.208   6.053  0.0711  0.5642 -0.5907
13353TIP3   OH261473   1.260   2.645  13.900 -0.0658  0.0042  0.0583
13353TIP3    H161474   1.237   2.556  13.924  0.1713 -0.0184  0.2151
13353TIP3    H261475   1.281   2.687  13.984  0.5252 -0.0006 -0.0821
13354TIP3   OH261476   0.122   3.738   4.436  0.2337 -0.2490 -0.0122
13354TIP3    H161477   0.139   3.697   4.521  0.0412 -0.7449 -0.2041
13354TIP3    H261478   0.036   3.777   4.445  0.8391  1.0087  0.4967
13355TIP3   OH261479   6.025   2.901   2.540  0.2839  0.0321 -0.1641
13355TIP3    H161480   6.026   2.996   2.553 -0.6434  0.0855 -0.3680
13355TIP3    H261481   6.009   2.889   2.447 -3.4377 -0.2456  0.3490
13356TIP3   OH261482   1.274   2.749  14.139  0.0149 -0.2283  0.1427
13356TIP3    H161483   1.259   2.829  14.188 -1.4378  0.2465 -1.0120
13356TIP3    H261484   1.224   2.682  14.186 -0.5065  0.0016 -0.0782
13357TIP3   OH261485   5.490   4.633  11.959 -0.2093  0.2317  0.2912
13357TIP3    H161486   5.494   4.606  12.051 -1.0118 -1.0085 -0.0153
13357TIP3    H261487   5.399   4.619  11.934 -0.0296  0.6818 -0.6692
13358TIP3   OH261488   5.381   0.769   2.601  0.7659  0.2283  0.0506
13358TIP3    H161489   5.427   0.783   2.519 -0.0800  1.4532 -0.2379
13358TIP3    H261490   5.293   0.740   2.576  1.0447 -1.1432  0.5727
13359TIP3   OH261491   2.951   1.927  16.077 -0.1758  0.2266 -0.0631
13359TIP3    H161492   2.933   1.833  16.078 -0.0908  0.1541 -1.8312
13359TIP3    H261493   3.040   1.934  16.041  0.1599  0.9539  0.8697
13360TIP3   OH261494   0.902   4.435   4.188  0.0343  0.0493 -0.2364
13360TIP3    H161495   0.996   4.420   4.205  0.5032  1.3619 -1.5001
13360TIP3    H261496   0.866   4.459   4.274  0.8172 -0.5896  0.2883
13361TIP3   OH261497   0.748   2.448  12.268 -0.3842  0.2632  0.0258
13361TIP3    H161498   0.654   2.456  12.252 -0.3367 -1.7220 -1.7175
13361TIP3    H261499   0.781   2.401  12.191  2.2003  1.6715  0.1688
13362TIP3   OH261500   2.669   2.374   3.386  0.0565 -0.4191 -0.0365
13362TIP3    H161501   2.632   2.460   3.366  0.4509 -0.3622 -0.5253
13362TIP3    H261502   2.600   2.330   3.436  0.9355  1.2683  2.9436
13363TIP3   OH261503   4.572   3.108   5.367  0.1443 -0.1435  0.6239
13363TIP3    H161504   4.526   3.103   5.283  0.5218 -2.0945  0.4956
13363TIP3    H261505   4.517   3.165   5.421 -0.6249  0.3211 -0.6119
13364TIP3   OH261506   1.714   1.763  16.889  0.5924 -0.2648 -0.1396
13364TIP3    H161507   1.733   1.857  16.894  4.2389 -0.8377 -0.4854
13364TIP3    H261508   1.751   1.727  16.970  1.5871 -1.6915 -1.1954
13365TIP3   OH261509   3.208   1.301   6.100  0.1284  0.1403 -0.3800
13365TIP3    H161510   3.123   1.258   6.108  0.7903 -1.2204 -0.4267
13365TIP3    H261511   3.257   1.248   6.037  0.5723  1.6548 -1.3794
13366TIP3   OH261512   1.804   2.701   0.823 -0.3296 -0.1514 -0.0255
13366TIP3    H161513   1.710   2.682   0.831  0.1716 -3.8275 -1.1491
13366TIP3    H261514   1.824   2.687   0.730  1.4499 -0.0799  0.3084
13367TIP3   OH261515   4.667   1.011   2.608  0.5034  0.7384 -0.2371
13367TIP3    H161516   4.660   1.105   2.618 -0.5111  0.5942  0.5440
13367TIP3    H261517   4.615   0.992   2.529 -0.5499  0.6791  0.4550
13368TIP3   OH261518   2.135   4.455   5.963  0.9364 -0.1797 -0.2204
13368TIP3    H161519   2.130   4.544   5.999 -0.9956 -0.4551  0.2951
13368TIP3    H261520   2.184   4.405   6.028  1.4116  0.3406 -0.1696
13369TIP3   OH261521   4.626   1.746  13.414 -0.2871  0.1045  0.1226
13369TIP3    H161522   4.700   1.691  13.439 -1.7332 -2.5545 -1.1188
13369TIP3    H261523   4.661   1.804  13.346  0.9465 -0.2160  0.4603
13370TIP3   OH261524   5.403   0.375   0.114  0.3568  0.3207  0.4576
13370TIP3    H161525   5.379   0.337   0.029  0.5533 -0.5091  0.7608
13370TIP3    H261526   5.320   0.394   0.156  0.2319  2.1479 -0.5038
13371TIP3   OH261527   5.168   4.482  15.597  0.4452  0.4901 -0.1937
13371TIP3    H161528   5.087   4.509  15.640 -0.3475 -2.4777  0.3936
13371TIP3    H261529   5.140   4.452  15.510  0.8950 -0.4340 -0.0358
13372TIP3   OH261530   4.273   4.321  16.034  0.4314 -0.9371 -0.1763
13372TIP3    H161531   4.202   4.384  16.022 -0.1412 -1.6374 -0.5382
13372TIP3    H261532   4.287   4.284  15.947 -0.1190 -2.2302  0.2652
13373TIP3   OH261533   0.661   0.716   3.195  0.1809  0.3560 -0.2649
13373TIP3    H161534   0.668   0.644   3.257  0.9727 -0.3009 -1.0849
13373TIP3    H261535   0.751   0.746   3.183  0.1848 -0.1326 -1.7540
13374TIP3   OH261536   5.180   5.062   2.987 -0.5455  0.3784  0.1532
13374TIP3    H161537   5.132   5.114   2.922  0.6675 -0.0243 -1.1004
13374TIP3    H261538   5.259   5.113   3.006  0.0002 -0.3627 -0.0751
13375TIP3   OH261539   5.518   3.901  13.571  0.6305  0.0911  0.4737
13375TIP3    H161540   5.514   3.989  13.533  2.0361  0.1122  0.3224
13375TIP3    H261541   5.609   3.875  13.561  0.2165 -1.4395  0.4122
13376TIP3   OH261542   0.266   5.119   2.763 -0.0079 -0.2781 -0.2135
13376TIP3    H161543   0.336   5.180   2.788  0.9235 -1.3468 -0.1348
13376TIP3    H261544   0.302   5.033   2.783 -1.7858 -0.8081  0.8803
13377TIP3   OH261545   2.379   2.508   4.962 -0.1017 -0.2166 -0.3671
13377TIP3    H161546   2.419   2.595   4.958 -0.6656  0.0916  0.5623
13377TIP3    H261547   2.422   2.465   5.036 -0.9747 -0.1392  0.1922
13378TIP3   OH261548   4.449   6.084  13.774  0.3683 -0.1045  0.0007
13378TIP3    H161549   4.522   6.129  13.818 -0.3865  1.8816 -0.6403
13378TIP3    H261550   4.438   6.133  13.692  0.7653 -2.7482 -1.7596
13379TIP3   OH261551   0.915   3.248  12.949 -0.0161  0.3195  0.2060
13379TIP3    H161552   0.887   3.338  12.930 -0.8691  0.4230  1.7862
13379TIP3    H261553   0.856   3.194  12.896  1.6878  0.6631 -2.1983
13380TIP3   OH261554   2.212   0.515  14.915  0.2721 -0.7955  0.0300
13380TIP3    H161555   2.166   0.476  14.990 -1.8952  0.4716 -0.5661
13380TIP3    H261556   2.259   0.590  14.952  0.5538 -1.1228  0.3561
13381TIP3   OH261557   4.344   2.806  16.817  0.5172  0.0101 -0.0970
13381TIP3    H161558   4.343   2.875  16.751  1.1565 -0.8310 -1.0311
13381TIP3    H261559   4.436   2.793  16.838  0.5532 -1.4792 -0.9862
13382TIP3   OH261560   5.977   4.258   3.206  0.0462 -0.2464 -0.3464
13382TIP3    H161561   5.910   4.190   3.208  0.1665 -0.5087 -2.8064
13382TIP3    H261562   5.928   4.340   3.210 -0.3855 -0.4449 -1.3188
13383TIP3   OH261563   4.505   5.310   1.509 -0.6522 -0.4119  0.4305
13383TIP3    H161564   4.430   5.250   1.510 -1.5825  0.6862 -0.6370
13383TIP3    H261565   4.579   5.255   1.483 -1.2398 -1.3395  0.6558
13384TIP3   OH261566   4.451   5.081  13.643 -0.3492 -0.0272  0.0779
13384TIP3    H161567   4.389   5.067  13.714 -0.0697 -1.6607  0.0541
13384TIP3    H261568   4.536   5.055  13.680 -0.3283 -1.7401 -1.0575
13385TIP3   OH261569   2.535   4.755  12.314  1.0112  0.2456 -0.1080
13385TIP3    H161570   2.515   4.732  12.224 -0.1765  0.8515 -0.0151
13385TIP3    H261571   2.453   4.791  12.349  1.5056  0.2082  1.1472
13386TIP3   OH261572   2.767   5.297   5.345 -0.3900 -0.1451  0.1543
13386TIP3    H161573   2.826   5.368   5.322  1.3100 -0.6730  2.4346
13386TIP3    H261574   2.717   5.330   5.420 -2.5444  0.0179 -1.2632
13387TIP3   OH261575   2.438   5.136  14.397  0.0224 -0.0924  0.1300
13387TIP3    H161576   2.362   5.187  14.368  0.6243  1.9118  1.8534
13387TIP3    H261577   2.415   5.107  14.486  1.2366  0.5500  0.6799
13388TIP3   OH261578   0.997   3.274   2.046  0.6770 -0.4122 -0.2742
13388TIP3    H161579   0.951   3.222   2.111  0.5016 -1.9461 -1.5823
13388TIP3    H261580   1.037   3.210   1.987  0.2496  0.8963 -2.0834
13389TIP3   OH261581   4.609   0.605   2.222  0.6470  0.3462 -0.5139
13389TIP3    H161582   4.647   0.669   2.162  3.4098  1.0717  1.8115
13389TIP3    H261583   4.569   0.657   2.291 -0.9599 -0.4963 -0.7419
13390TIP3   OH261584   0.795   1.162  15.458 -0.5443 -0.2107  0.5076
13390TIP3    H161585   0.722   1.210  15.421 -0.6839 -0.1979  0.7967
13390TIP3    H261586   0.807   1.087  15.400 -0.7358 -0.1713  0.4174
13391TIP3   OH261587   1.370   3.244  14.573 -0.3819 -0.0767  0.5676
13391TIP3    H161588   1.381   3.160  14.528  1.9900 -0.7244  2.1848
13391TIP3    H261589   1.321   3.298  14.511  0.3361 -1.7837 -1.6307
13392TIP3   OH261590   4.933   4.442  11.199  0.2697 -0.3169  0.0674
13392TIP3    H161591   4.848   4.484  11.206  0.2010 -0.2412 -1.0229
13392TIP3    H261592   4.983   4.499  11.139  1.2185 -0.1497  0.9940
13393TIP3   OH261593   1.563   3.393   1.922  0.3963 -0.3027 -0.1467
13393TIP3    H161594   1.613   3.319   1.958 -0.0056 -1.0757 -1.1263
13393TIP3    H261595   1.519   3.357   1.845  2.7794  1.7344 -2.6778
13394TIP3   OH261596   0.540   4.177   2.108  0.4261 -0.4235 -0.2773
13394TIP3    H161597   0.564   4.085   2.102  2.4708  0.0772 -0.5201
13394TIP3    H261598   0.543   4.208   2.018 -2.5588 -0.5847 -0.5242
13395TIP3   OH261599   5.639   4.899  10.634  0.1804 -0.4937 -0.4529
13395TIP3    H161600   5.555   4.924  10.596 -0.0994 -3.1540 -1.8120
13395TIP3    H261601   5.621   4.818  10.682  1.7238 -0.3823  0.3987
13396TIP3   OH261602   6.489   1.149   4.312 -0.1788  0.1892 -0.4085
13396TIP3    H161603   6.410   1.115   4.354 -0.0014  0.2675 -0.0078
13396TIP3    H261604   6.534   1.072   4.280  1.7374 -0.3492  3.0926
13397TIP3   OH261605   0.926   5.635   6.560 -0.3677 -0.1510  0.1002
13397TIP3    H161606   0.953   5.544   6.563 -0.2790 -0.2295 -1.8595
13397TIP3    H261607   0.944   5.663   6.470 -2.1479  1.2365  0.1080
13398TIP3   OH261608   0.691   4.247   4.130  0.4256  0.1348  0.3600
13398TIP3    H161609   0.733   4.315   4.182  1.1943  0.3873 -0.5613
13398TIP3    H261610   0.613   4.290   4.093 -0.0420 -0.0040  1.1511
13399TIP3   OH261611   1.701   1.571   6.414 -0.3867  0.0803  0.0621
13399TIP3    H161612   1.617   1.604   6.445 -0.2233 -0.5793  1.2540
13399TIP3    H261613   1.727   1.507   6.479  0.6736 -0.3017 -0.7110
13400TIP3   OH261614   0.847   6.161  13.240  0.1550 -0.1872  1.2889
13400TIP3    H161615   0.859   6.098  13.311  0.3233 -1.3523  0.2486
13400TIP3    H261616   0.895   6.124  13.166 -2.1860 -0.3418 -0.2317
13401TIP3   OH261617   6.318   0.181  11.452 -0.0143  0.1979 -0.3042
13401TIP3    H161618   6.383   0.241  11.416 -0.8473  0.2162 -1.8513
13401TIP3    H261619   6.235   0.229  11.449 -0.2997 -0.2049  0.6328
13402TIP3   OH261620   2.526   0.529   1.712  0.3287 -0.2423  0.6175
13402TIP3    H161621   2.605   0.477   1.725  0.2164 -0.2261  1.4250
13402TIP3    H261622   2.467   0.472   1.664  0.8064 -0.2677  0.0397
13403TIP3   OH261623   6.589   6.069  14.072 -0.6676  0.1966 -0.1445
13403TIP3    H161624   6.623   6.158  14.084 -1.0479  0.3971 -0.5530
13403TIP3    H261625   6.561   6.042  14.160 -0.8453  0.5996 -0.0769
13404TIP3   OH261626   2.372   5.406   2.463 -0.1937  0.1376 -0.1918
13404TIP3    H161627   2.388   5.491   2.424 -0.3294  1.1182  1.7791
13404TIP3    H261628   2.457   5.378   2.496 -0.4874  0.3489  0.7559
13405TIP3   OH261629   6.275   3.837   2.330 -0.1539 -0.0232 -0.0885
13405TIP3    H161630   6.303   3.912   2.277 -2.8744  0.2605 -1.2810
13405TIP3    H261631   6.244   3.876   2.412 -0.9306  0.1089 -0.4381
13406TIP3   OH261632   1.741   5.259  14.298  1.1016 -0.3448  0.3345
13406TIP3    H161633   1.817   5.243  14.354  1.9568  1.5532 -0.2202
13406TIP3    H261634   1.700   5.337  14.335  0.4048 -0.3521 -0.4035
13407TIP3   OH261635   2.825   0.566  17.091  0.1660  0.0213  0.0060
13407TIP3    H161636   2.893   0.531  17.149  0.3945  0.6436  0.1297
13407TIP3    H261637   2.865   0.644  17.052  0.2237 -0.7163 -1.4528
13408TIP3   OH261638   6.600   3.319   5.605 -0.1974 -0.0169 -1.0175
13408TIP3    H161639   6.642   3.359   5.681 -1.0022 -0.3278 -0.4002
13408TIP3    H261640   6.659   3.248   5.579 -1.6028 -2.3540  1.6099
13409TIP3   OH261641   5.440   1.282  16.791  0.1974 -0.2821 -0.3181
13409TIP3    H161642   5.447   1.311  16.882  0.1725 -0.1730 -0.3510
13409TIP3    H261643   5.529   1.293  16.756 -0.1891  1.5087 -0.8637
13410TIP3   OH261644   0.687   4.312   4.538 -0.0017 -0.5085  0.5370
13410TIP3    H161645   0.732   4.327   4.621  0.2556 -0.2234  0.3492
13410TIP3    H261646   0.594   4.306   4.562  0.1402 -1.1835  0.9362
13411TIP3   OH261647   2.136   6.310  15.232  0.3389 -0.2267  0.0440
13411TIP3    H161648   2.135   6.355  15.317 -2.5624 -1.0407  0.5503
13411TIP3    H261649   2.137   6.381  15.167  0.9052  0.4301  0.7543
13412TIP3   OH261650   0.379   3.250   5.534 -0.0384 -0.3329 -0.0695
13412TIP3    H161651   0.330   3.289   5.462  0.3778  1.3310  0.5040
13412TIP3    H261652   0.456   3.212   5.493  0.2488  0.6868 -0.5162
13413TIP3   OH261653   3.087   2.191   3.757  0.1361 -0.0800  0.5477
13413TIP3    H161654   3.101   2.194   3.662 -1.9188  1.8675  0.2149
13413TIP3    H261655   3.149   2.254   3.793 -0.6838  0.9662  0.1916
13414TIP3   OH261656   5.202   1.547   2.807  0.0174  0.1884  0.2575
13414TIP3    H161657   5.228   1.632   2.843 -1.7510  0.5951  0.6834
13414TIP3    H261658   5.284   1.507   2.778  0.8221  2.3795 -0.7317
13415TIP3   OH261659   3.392   0.739  11.310  0.0010 -0.4695 -0.2115
13415TIP3    H161660   3.343   0.811  11.270 -0.0799 -0.2600  0.2566
13415TIP3    H261661   3.471   0.780  11.345 -0.4388 -0.4429  0.7978
13416TIP3   OH261662   6.703   2.131   3.160  0.1875 -0.2223 -0.1232
13416TIP3    H161663   6.695   2.155   3.068 -2.6675 -2.2233 -0.5178
13416TIP3    H261664   6.616   2.146   3.197  0.8637 -0.8754  1.8907
13417TIP3   OH261665   6.054   4.757  13.099 -0.3698 -0.3119 -0.3890
13417TIP3    H161666   5.965   4.740  13.129 -0.3464 -2.2227 -1.2494
13417TIP3    H261667   6.100   4.791  13.176 -1.5004 -0.5967  0.4310
13418TIP3   OH261668   3.982   2.896  13.241  0.1670  0.1318  0.2847
13418TIP3    H161669   3.960   2.930  13.154 -2.3605 -0.5019  0.6179
13418TIP3    H261670   4.015   2.808  13.225  0.0594  0.1529 -0.0553
13419TIP3   OH261671   2.790   0.680  12.213  0.1064 -0.0393 -0.4029
13419TIP3    H161672   2.709   0.715  12.250 -0.6246  0.5083 -2.3848
13419TIP3    H261673   2.858   0.740  12.242 -0.5438  0.7544 -0.4750
13420TIP3   OH261674   4.160   3.653  15.919 -0.0575 -0.0747  0.0405
13420TIP3    H161675   4.072   3.650  15.881  0.2491 -0.7086 -0.6306
13420TIP3    H261676   4.145   3.644  16.013 -0.7276 -0.0285 -0.0574
13421TIP3   OH261677   1.294   5.065   6.081 -0.0556  0.3136 -0.7864
13421TIP3    H161678   1.213   5.024   6.051  0.3868 -0.0202 -1.5687
13421TIP3    H261679   1.265   5.137   6.137 -0.8480 -1.1734  0.8128
13422TIP3   OH261680   1.937   4.487   5.717 -0.4841 -0.7788 -0.0269
13422TIP3    H161681   1.945   4.471   5.811  0.1022 -0.7798 -0.0744
13422TIP3    H261682   2.007   4.549   5.697  0.9427 -2.6018 -0.8955
13423TIP3   OH261683   3.516   4.498   4.573  0.2636 -0.0373 -0.5937
13423TIP3    H161684   3.498   4.564   4.506  0.0241  2.1589  1.4784
13423TIP3    H261685   3.550   4.422   4.525 -1.0757  0.9513 -3.2589
13424TIP3   OH261686   2.876   4.033   3.169 -0.0943  0.0818 -0.1484
13424TIP3    H161687   2.802   4.015   3.227 -0.3923  0.4191 -0.4209
13424TIP3    H261688   2.872   4.127   3.154  0.4522  0.1144 -0.0836
13425TIP3   OH261689   5.463   3.517   1.723  0.2336 -0.4998  0.3906
13425TIP3    H161690   5.526   3.446   1.731  1.3998  0.5509  0.9011
13425TIP3    H261691   5.516   3.596   1.716 -1.0202  0.3193 -0.4471
13426TIP3   OH261692   4.286   6.512  15.300  0.6572  0.1933  0.2710
13426TIP3    H161693   4.229   6.466  15.362  0.2810  0.7399  0.3411
13426TIP3    H261694   4.257   6.481  15.214  1.0519 -0.4232  0.3578
13427TIP3   OH261695   2.801   4.153   5.816  0.2153  0.1206 -0.0097
13427TIP3    H161696   2.733   4.189   5.759 -0.1404  0.2240  0.4746
13427TIP3    H261697   2.761   4.150   5.902 -0.9046 -4.2666 -0.4543
13428TIP3   OH261698   4.857   6.017   2.916  0.1735 -0.2897  0.1926
13428TIP3    H161699   4.785   5.957   2.935  0.7569 -1.6974 -1.7771
13428TIP3    H261700   4.815   6.095   2.880 -0.5194  0.1040  1.7756
13429TIP3   OH261701   5.929   4.379   5.564  0.1354  0.3273 -0.0758
13429TIP3    H161702   5.909   4.327   5.642 -0.0838 -0.0274 -0.3646
13429TIP3    H261703   6.021   4.358   5.544  0.1334  0.2682 -0.0255
13430TIP3   OH261704   4.799   3.008  16.489  0.2201 -0.0479  0.5597
13430TIP3    H161705   4.812   2.959  16.570 -0.9761  0.6236  1.1705
13430TIP3    H261706   4.740   3.079  16.512 -1.6171 -0.8775 -1.2871
13431TIP3   OH261707   2.880   4.660  10.668  0.2640  0.4292  0.3685
13431TIP3    H161708   2.939   4.635  10.597  0.9336 -1.4249  1.5015
13431TIP3    H261709   2.932   4.718  10.723  0.4808  0.1292  0.4823
13432TIP3   OH261710   1.881   2.483  12.089  0.4965 -0.0740  0.0635
13432TIP3    H161711   1.953   2.494  12.027 -0.7038 -0.5886 -1.4757
13432TIP3    H261712   1.848   2.395  12.072 -1.0856  0.4874  0.0726
13433TIP3   OH261713   2.000   3.393  15.338  0.5364  0.4815  0.5346
13433TIP3    H161714   1.967   3.341  15.411 -1.8180  0.3895 -0.5104
13433TIP3    H261715   2.068   3.339  15.298  0.5372 -0.2782  1.5283
13434TIP3   OH261716   1.961   6.607  15.177  0.0924  0.1131 -0.2267
13434TIP3    H161717   2.036   6.616  15.119  0.5982 -0.7364  0.2719
13434TIP3    H261718   1.943   6.697  15.207  1.5770  0.2197  0.4540
13435TIP3   OH261719   0.438   6.409  11.359 -0.2444 -0.1964 -0.1525
13435TIP3    H161720   0.434   6.410  11.263  0.0342  0.6020 -0.1634
13435TIP3    H261721   0.440   6.502  11.384  2.0484 -0.3670  0.5292
13436TIP3   OH261722   5.737   2.098  11.558 -0.2450  0.2492 -0.3426
13436TIP3    H161723   5.786   2.179  11.545  0.6735 -0.3465 -0.6499
13436TIP3    H261724   5.779   2.056  11.633 -1.2212  0.4275  0.3206
13437TIP3   OH261725   2.154   6.129   4.984  0.4569 -0.1603 -0.4054
13437TIP3    H161726   2.111   6.198   5.035 -0.9927 -1.3294  0.0396
13437TIP3    H261727   2.245   6.132   5.010  0.4011  1.4965 -0.3140
13438TIP3   OH261728   0.030   1.435  10.522 -0.7311 -0.1841  0.0949
13438TIP3    H161729  -0.013   1.385  10.592  0.2878 -1.1368  0.0697
13438TIP3    H261730  -0.030   1.430  10.448 -0.8360 -1.0313  0.2271
13439TIP3   OH261731   4.432   2.716  15.329 -0.5835  0.6330 -0.3909
13439TIP3    H161732   4.369   2.724  15.400 -0.5200  1.1381 -0.3921
13439TIP3    H261733   4.420   2.795  15.276 -0.4324  0.3988 -0.7817
13440TIP3   OH261734   2.473   0.377   0.557 -0.4644 -0.3173  0.0544
13440TIP3    H161735   2.512   0.440   0.618  0.7228  0.7746 -1.7386
13440TIP3    H261736   2.545   0.348   0.502 -1.7154 -0.1477 -1.7689
13441TIP3   OH261737   1.486   5.175  12.713  0.1489 -0.3965 -0.2000
13441TIP3    H161738   1.573   5.175  12.752 -0.0515  4.4055  0.9247
13441TIP3    H261739   1.491   5.244  12.646 -2.5374 -0.5782 -0.6932
13442TIP3   OH261740   1.495   6.712   1.363  0.3116  0.6992 -0.3608
13442TIP3    H161741   1.423   6.694   1.303 -1.2839  1.0242  1.3706
13442TIP3    H261742   1.533   6.794   1.332 -0.7495  1.0805 -0.6866
13443TIP3   OH261743   6.341   0.490   0.699 -0.3882 -0.1614 -0.6967
13443TIP3    H161744   6.423   0.445   0.681 -0.1483  0.5014 -1.2485
13443TIP3    H261745   6.280   0.419   0.721  0.5619 -0.5945  0.6762
13444TIP3   OH261746   4.100   6.156   4.155  0.0843 -0.5787 -0.7256
13444TIP3    H161747   4.016   6.202   4.157  1.3314  1.8950  0.0832
13444TIP3    H261748   4.165   6.226   4.153  2.2575 -2.1581  3.1020
13445TIP3   OH261749   1.060   4.727  16.763  0.1573  0.3558  0.2676
13445TIP3    H161750   1.077   4.745  16.855 -0.7112  0.1655  0.4806
13445TIP3    H261751   0.964   4.731  16.755  0.0452 -1.7456 -0.1471
13446TIP3   OH261752   2.521   4.132   5.032  0.0720  0.3591 -0.5106
13446TIP3    H161753   2.444   4.084   5.062 -0.2356  1.1343 -0.0078
13446TIP3    H261754   2.566   4.157   5.113  1.3914 -0.9082 -0.8128
13447TIP3   OH261755   2.938   5.100  13.626 -0.1144 -0.1701  0.1523
13447TIP3    H161756   2.857   5.137  13.590 -1.6729 -2.0593  1.5057
13447TIP3    H261757   2.909   5.050  13.703  1.8026 -3.7549 -1.2413
13448TIP3   OH261758   4.889   3.750  12.930 -0.5013 -0.1764  0.1768
13448TIP3    H161759   4.820   3.780  12.989 -1.1250  0.3797 -0.8111
13448TIP3    H261760   4.967   3.743  12.986 -1.2924 -0.6103  1.2638
13449TIP3   OH261761   1.585   5.140   3.663 -0.1514 -0.4570 -0.9303
13449TIP3    H161762   1.516   5.187   3.614 -0.1591  0.2365 -0.2629
13449TIP3    H261763   1.651   5.206   3.680  0.0185 -0.7878 -0.3076
13450TIP3   OH261764   1.110   1.013   4.420  0.1665  0.6218  0.3581
13450TIP3    H161765   1.041   1.062   4.464 -0.2366  0.1733  0.2298
13450TIP3    H261766   1.126   1.061   4.340 -1.7978 -0.6382 -0.8699
13451TIP3   OH261767   1.208   0.063   0.231 -0.1304 -0.8257  0.6743
13451TIP3    H161768   1.251   0.087   0.313 -0.9740 -0.4921  1.0326
13451TIP3    H261769   1.227   0.135   0.171  0.0540 -0.8188  0.7417
13452TIP3   OH261770   0.921   5.164   6.641 -1.1149  0.0784  0.0526
13452TIP3    H161771   0.833   5.127   6.633 -0.0432 -2.4100 -1.1847
13452TIP3    H261772   0.979   5.088   6.649  0.9218  1.6403  1.3594
13453TIP3   OH261773   1.402   6.375  15.631 -0.3311  0.3909  0.3146
13453TIP3    H161774   1.449   6.454  15.603  0.0298 -0.3319 -1.2545
13453TIP3    H261775   1.423   6.310  15.564 -1.2643 -0.8097  1.1416
13454TIP3   OH261776   0.459   3.198  12.096  0.0614 -0.4258  0.1054
13454TIP3    H161777   0.507   3.278  12.119  2.5716 -1.5001 -1.0035
13454TIP3    H261778   0.462   3.145  12.175  1.0445 -0.6142 -0.0489
13455TIP3   OH261779   4.959   3.563  16.554 -0.0145  0.0494  0.4118
13455TIP3    H161780   4.994   3.632  16.498  0.1353  0.5041  1.0473
13455TIP3    H261781   5.036   3.528  16.600  0.1432 -1.5873 -0.9876
13456TIP3   OH261782   6.336   6.134  16.676 -0.9261 -0.5886  0.2450
13456TIP3    H161783   6.325   6.115  16.583  3.3570 -1.2552 -0.3109
13456TIP3    H261784   6.364   6.051  16.715 -0.6136  0.1584  1.7002
13457TIP3   OH261785   2.228   6.542  15.041  0.2458  0.4907 -0.3062
13457TIP3    H161786   2.224   6.604  14.969  3.5239  0.3234 -0.8049
13457TIP3    H261787   2.283   6.585  15.106  0.5349 -0.9041  0.4114
13458TIP3   OH261788   1.770   6.621   2.138 -0.4716 -0.3041  0.3848
13458TIP3    H161789   1.782   6.708   2.099 -0.4918 -0.2204  0.5640
13458TIP3    H261790   1.830   6.564   2.089 -0.0157 -0.0706  0.6620
13459TIP3   OH261791   2.670   0.925   1.776 -0.0825  0.2765  0.3801
13459TIP3    H161792   2.651   0.832   1.764  2.1888 -0.1646 -0.2613
13459TIP3    H261793   2.642   0.944   1.866 -1.8997 -0.6235  0.0478
13460TIP3   OH261794   0.194   2.948   0.669  0.0877  0.4859 -0.5612
13460TIP3    H161795   0.250   2.883   0.712  0.9743 -0.1213 -2.5026
13460TIP3    H261796   0.118   2.955   0.726 -0.3224 -2.7201 -0.5136
13461TIP3   OH261797   6.529   3.343  12.214 -0.3513 -0.1728 -0.1527
13461TIP3    H161798   6.597   3.313  12.275  0.3820  1.8208  0.1020
13461TIP3    H261799   6.547   3.437  12.203 -2.5897  0.2434 -0.7270
13462TIP3   OH261800   6.477   0.695  12.332 -0.2303 -0.0248 -0.3640
13462TIP3    H161801   6.488   0.600  12.337 -0.9806 -0.0837  0.4860
13462TIP3    H261802   6.460   0.722  12.423 -0.0857  0.9116 -0.6024
13463TIP3   OH261803   1.363   0.735   5.811 -0.7936  0.0643  0.1161
13463TIP3    H161804   1.384   0.812   5.864 -1.4239  0.6477 -0.4567
13463TIP3    H261805   1.289   0.762   5.757 -0.5377 -0.6987 -0.6512
13464TIP3   OH261806   2.424   2.677  12.796  0.4789 -0.3102 -0.9960
13464TIP3    H161807   2.346   2.699  12.745 -1.4685 -0.8664  1.5447
13464TIP3    H261808   2.440   2.754  12.851  0.1771 -1.1182  0.2610
13465TIP3   OH261809   0.904   1.976   2.877  0.8466  0.4874  0.0499
13465TIP3    H161810   0.938   2.060   2.847  1.4209  0.3723  0.3622
13465TIP3    H261811   0.810   1.989   2.885  0.5918  0.3667 -2.2606
13466TIP3   OH261812   3.160   4.829   0.066  0.0748 -0.0504  0.3009
13466TIP3    H161813   3.193   4.917   0.049 -0.5957  0.3410  0.9882
13466TIP3    H261814   3.200   4.803   0.148 -1.2451  0.4057  1.1176
13467TIP3   OH261815   6.233   2.245  12.336 -0.3815  0.5044  0.8779
13467TIP3    H161816   6.187   2.329  12.326 -1.0555 -0.0036 -0.8272
13467TIP3    H261817   6.325   2.266  12.319 -0.6013  0.8480  0.0395
13468TIP3   OH261818   6.477   0.237   2.680  1.0755 -0.4157  0.1040
13468TIP3    H161819   6.455   0.151   2.717  0.4435 -0.4323 -0.2906
13468TIP3    H261820   6.393   0.282   2.675  1.3035 -0.0483 -0.3846
13469TIP3   OH261821   2.455   2.168  12.233  0.1666 -0.0139  0.2923
13469TIP3    H161822   2.382   2.136  12.180  0.7447 -0.3679 -0.3018
13469TIP3    H261823   2.413   2.209  12.309 -0.6496 -0.1103 -0.0955
13470TIP3   OH261824   2.307   3.170  14.954  0.1000  0.5816 -0.1410
13470TIP3    H161825   2.389   3.210  14.927  0.4321 -0.5430 -0.8741
13470TIP3    H261826   2.259   3.157  14.872  0.4335 -1.4165 -0.0704
13471TIP3   OH261827   1.022   2.585  14.840  0.0413 -0.3957  0.1807
13471TIP3    H161828   1.013   2.680  14.851 -0.2725  0.0846 -3.2060
13471TIP3    H261829   1.115   2.572  14.825 -0.0711 -0.4225 -0.5388
13472TIP3   OH261830   2.145   6.385  12.568 -0.1487 -0.6901  0.2988
13472TIP3    H161831   2.169   6.385  12.475 -0.9168 -1.2390  0.0856
13472TIP3    H261832   2.050   6.376  12.567 -0.2231 -0.0341  1.1343
13473TIP3   OH261833   2.944   1.014   1.209 -0.0470  0.0771  0.0219
13473TIP3    H161834   2.938   1.097   1.256 -2.1102  0.3419 -0.6107
13473TIP3    H261835   2.937   0.947   1.278 -0.7763  0.4518  0.3220
13474TIP3   OH261836   6.253   5.418  13.397  0.5344 -0.0456 -0.4262
13474TIP3    H161837   6.224   5.341  13.446  1.3928  0.0464  0.2656
13474TIP3    H261838   6.173   5.466  13.376 -0.0742 -1.4510 -1.4510
13475TIP3   OH261839   1.968   5.449  16.329 -0.2648  0.2315 -0.6730
13475TIP3    H161840   2.021   5.377  16.364  0.4740  0.8841 -0.3981
13475TIP3    H261841   1.890   5.407  16.293 -1.1874 -0.4921  1.9332
13476TIP3   OH261842   1.835   6.587  12.857 -0.1080  0.2702 -0.8847
13476TIP3    H161843   1.765   6.542  12.810 -0.2738 -1.1821  0.6336
13476TIP3    H261844   1.895   6.517  12.883 -0.2300  0.9040  1.3464
13477TIP3   OH261845   4.342   3.608   3.745  0.3924  0.5327  0.4298
13477TIP3    H161846   4.415   3.657   3.708  2.5885 -3.1787 -0.6388
13477TIP3    H261847   4.372   3.581   3.832 -0.3771  0.2727  0.6283
13478TIP3   OH261848   0.428   3.424  13.293 -0.5086  0.2440  0.3145
13478TIP3    H161849   0.465   3.337  13.282 -1.0699  0.0782 -0.2915
13478TIP3    H261850   0.504   3.480  13.310 -0.1293 -0.3238  0.5116
13479TIP3   OH261851   5.573   0.428   3.813 -0.1282  0.0780  0.0450
13479TIP3    H161852   5.516   0.430   3.737  1.5873 -2.5534 -1.4864
13479TIP3    H261853   5.528   0.370   3.875 -1.5918  2.3322  1.2003
13480TIP3   OH261854   0.111   1.222  16.997 -0.3278 -0.2292  0.1504
13480TIP3    H161855   0.021   1.221  17.029 -0.8180  0.9465 -1.0920
13480TIP3    H261856   0.129   1.131  16.973 -1.6428 -0.2851 -0.7364
13481TIP3   OH261857   2.827   6.288  13.153  0.0885 -0.2271 -0.1625
13481TIP3    H161858   2.796   6.254  13.237 -0.4832  0.4590 -0.0885
13481TIP3    H261859   2.826   6.211  13.095 -0.6092 -0.4700  0.1587
13482TIP3   OH261860   3.603   0.483   1.998  0.5627 -0.0175 -0.2061
13482TIP3    H161861   3.584   0.473   2.092 -0.2803 -1.8494 -0.5442
13482TIP3    H261862   3.684   0.535   1.996  0.0806  0.8853  1.4999
13483TIP3   OH261863   5.611   5.180   1.416  0.0693  0.2274 -0.5103
13483TIP3    H161864   5.550   5.225   1.358 -0.6489 -0.5363 -0.3669
13483TIP3    H261865   5.631   5.244   1.485 -0.8326  0.3746 -0.3807
13484TIP3   OH261866   6.302   4.656   3.635  0.1902  0.3940  0.6965
13484TIP3    H161867   6.222   4.706   3.650 -2.2704 -2.6266 -1.3424
13484TIP3    H261868   6.300   4.634   3.542  2.3806 -1.4402  0.9977
13485TIP3   OH261869   2.800   3.555  12.776 -0.3849  0.8641  0.0945
13485TIP3    H161870   2.760   3.513  12.700  0.5308  1.8204 -0.9449
13485TIP3    H261871   2.805   3.648  12.754  0.5711  1.0631  1.0083
13486TIP3   OH261872   5.715   3.694   1.658 -0.1103 -0.0737 -0.6226
13486TIP3    H161873   5.731   3.669   1.567  0.8420  0.8002 -0.7191
13486TIP3    H261874   5.750   3.783   1.664 -0.9234  0.1869  0.3904
13487TIP3   OH261875   0.056   5.178  13.636  0.3733  0.0668 -0.1428
13487TIP3    H161876   0.046   5.216  13.723 -0.6285 -3.3505  1.3988
13487TIP3    H261877  -0.024   5.203  13.590  0.8849  1.8567 -0.1576
13488TIP3   OH261878   6.227   1.573   5.486 -0.4164  0.5817 -0.4202
13488TIP3    H161879   6.157   1.529   5.533  1.6387 -1.2048  1.1698
13488TIP3    H261880   6.232   1.527   5.401 -0.3361 -0.1832 -0.0112
13489TIP3   OH261881   5.621   3.007   6.387 -0.1501 -0.7109  0.2734
13489TIP3    H161882   5.527   3.009   6.373 -0.4290  0.6742  2.0967
13489TIP3    H261883   5.651   3.095   6.367  0.6066 -0.8549  0.7279
13490TIP3   OH261884   4.214   4.354  13.524  0.0958  0.0296  0.0512
13490TIP3    H161885   4.142   4.298  13.498  0.0372  0.6986 -1.3087
13490TIP3    H261886   4.173   4.430  13.566  0.0860 -0.1193  0.3152
13491TIP3   OH261887   5.594   4.381   1.962  0.0898 -0.2439  0.4010
13491TIP3    H161888   5.514   4.339   1.994  0.0987 -0.1942  0.4889
13491TIP3    H261889   5.609   4.453   2.024 -0.5864  0.6248 -0.4222
13492TIP3   OH261890   1.036   4.286  16.376 -0.3248 -0.5056 -0.1859
13492TIP3    H161891   1.085   4.293  16.458 -1.2387 -0.5333  0.3791
13492TIP3    H261892   1.080   4.347  16.317 -0.7680  0.9449  0.9138
13493TIP3   OH261893   6.714   2.836   5.351  0.1665  0.5888  0.2410
13493TIP3    H161894   6.675   2.812   5.435 -1.1420  1.7123 -0.0189
13493TIP3    H261895   6.693   2.763   5.293  1.8284 -0.6137  1.0561
13494TIP3   OH261896   2.383   3.221   1.238 -0.4351  0.9199 -0.0517
13494TIP3    H161897   2.452   3.167   1.277 -0.9939  1.6184  2.0281
13494TIP3    H261898   2.422   3.307   1.229 -1.0484  1.3649  1.3078
13495TIP3   OH261899   6.248   6.656  17.031  0.1862 -0.3364  0.5377
13495TIP3    H161900   6.175   6.595  17.041  2.0080 -2.5926  1.0965
13495TIP3    H261901   6.297   6.623  16.956  1.5291  0.0912  1.1870
13496TIP3   OH261902   4.626   0.607  11.018 -0.1451 -0.1318  0.1522
13496TIP3    H161903   4.585   0.690  10.995  2.3186  1.3604  0.6898
13496TIP3    H261904   4.636   0.561  10.934 -1.7668 -0.0248 -0.1161
13497TIP3   OH261905   1.260   1.733  13.715  0.5842  0.5741  0.0716
13497TIP3    H161906   1.198   1.739  13.641 -0.1654 -0.1325  0.6283
13497TIP3    H261907   1.260   1.641  13.739 -0.7618  1.0624  2.2619
13498TIP3   OH261908   5.412   0.197  15.344  0.6394  0.1349 -0.4564
13498TIP3    H161909   5.420   0.102  15.353  0.2181  0.0941 -0.5042
13498TIP3    H261910   5.434   0.214  15.252  2.5526  0.2912 -0.0015
13499TIP3   OH261911   5.829   2.635  11.104  0.3939 -0.2600  0.1117
13499TIP3    H161912   5.734   2.628  11.108  0.4382 -2.7907 -1.1835
13499TIP3    H261913   5.851   2.708  11.162 -2.1709 -0.8246  1.9241
13500TIP3   OH261914   4.329   0.654   2.179  0.1719 -0.5095 -0.0313
13500TIP3    H161915   4.334   0.732   2.234  0.3303  1.4791 -2.6685
13500TIP3    H261916   4.251   0.668   2.124  1.3623 -1.1390 -2.0017
13501TIP3   OH261917   0.647   2.556   3.292 -1.1804  0.0899  0.3652
13501TIP3    H161918   0.674   2.637   3.335 -1.3876 -0.7356  2.1344
13501TIP3    H261919   0.574   2.582   3.236 -0.9006  1.2151  0.5055
13502TIP3   OH261920   6.741   5.091  15.623  0.5992 -0.2481  0.6590
13502TIP3    H161921   6.684   5.167  15.637  0.8855  0.1410 -0.2280
13502TIP3    H261922   6.794   5.086  15.703  1.9431  1.6874 -0.0345
13503TIP3   OH261923   3.616   3.683   4.203 -0.0537 -0.5603  0.2456
13503TIP3    H161924   3.609   3.632   4.122  2.0668 -1.7103  0.6948
13503TIP3    H261925   3.689   3.742   4.188 -0.4656  0.1257  0.8800
13504TIP3   OH261926   5.785   5.718   3.385  0.6728  0.2457  0.0546
13504TIP3    H161927   5.748   5.774   3.317 -0.1057  0.5973  0.7440
13504TIP3    H261928   5.730   5.639   3.385 -0.9233  1.2540  1.8659
13505TIP3   OH261929   0.891   4.499   5.589 -0.5998  1.2776  0.3102
13505TIP3    H161930   0.807   4.537   5.617  0.0842  2.4532  0.8384
13505TIP3    H261931   0.893   4.515   5.495 -2.1377 -1.1607 -0.2253
13506TIP3   OH261932   5.125   2.563   0.896 -0.2817 -0.1418  0.1631
13506TIP3    H161933   5.143   2.531   0.808 -1.0264  0.2062 -0.1217
13506TIP3    H261934   5.035   2.538   0.913  0.3662 -1.7711  1.5315
13507TIP3   OH261935   3.251   5.404   6.183  0.1372 -0.1186 -0.1202
13507TIP3    H161936   3.180   5.346   6.156  0.2067 -1.5003  2.3581
13507TIP3    H261937   3.231   5.425   6.275  2.9033 -0.5631  0.6545
13508TIP3   OH261938   3.323   3.419  13.467 -0.3486  0.2988 -0.1208
13508TIP3    H161939   3.291   3.505  13.495 -1.9703 -0.2354 -0.1911
13508TIP3    H261940   3.288   3.408  13.379  0.8354  0.0367 -0.5764
13509TIP3   OH261941   0.573   6.388   0.396 -0.2698 -0.2416  0.5803
13509TIP3    H161942   0.502   6.451   0.410  3.6094  4.5705  1.7484
13509TIP3    H261943   0.602   6.404   0.306  0.3790 -0.8823  0.6622
13510TIP3   OH261944   3.689   4.634   3.238 -0.1905  0.2362 -0.4449
13510TIP3    H161945   3.614   4.623   3.180 -0.9709 -1.9323  0.8476
13510TIP3    H261946   3.744   4.557   3.222 -0.9589 -1.0246  2.2907
13511TIP3   OH261947   3.516   0.557  13.839 -0.0042  0.2014 -0.7238
13511TIP3    H161948   3.434   0.601  13.818 -1.3242 -1.8588 -0.1760
13511TIP3    H261949   3.581   0.600  13.783 -1.1105  2.9262 -0.0483
13512TIP3   OH261950   0.688   1.382   3.507 -0.0381 -0.2943 -0.0673
13512TIP3    H161951   0.735   1.425   3.579  1.2938 -0.1668 -0.9785
13512TIP3    H261952   0.661   1.454   3.450  1.1721 -0.5342 -0.9945
13513TIP3   OH261953   3.232   3.685   2.867  0.1826 -0.0027  0.0775
13513TIP3    H161954   3.261   3.613   2.811  1.2433  1.1181 -0.8918
13513TIP3    H261955   3.222   3.759   2.806 -1.9305  0.4078  0.8610
13514TIP3   OH261956   5.772   6.522  16.991 -0.0218  0.6648  0.4951
13514TIP3    H161957   5.821   6.603  16.980 -0.3021  0.8925  0.8715
13514TIP3    H261958   5.810   6.480  17.068  0.0529  0.4942  0.3647
13515TIP3   OH261959   3.555   3.503  12.838  0.0921  0.3742 -0.2297
13515TIP3    H161960   3.559   3.495  12.934  0.2395  0.3667 -0.2368
13515TIP3    H261961   3.513   3.421  12.810 -1.2189  0.9617 -0.0711
13516TIP3   OH261962   2.949   1.761  14.833 -0.3627  0.0897 -0.2813
13516TIP3    H161963   2.985   1.762  14.744  0.3844 -1.7375 -0.0402
13516TIP3    H261964   2.864   1.717  14.825 -0.4897  0.3125 -0.1620
13517TIP3   OH261965   1.362   6.019  14.801 -0.4499  0.3414  0.2810
13517TIP3    H161966   1.278   5.979  14.824 -0.2772 -1.2371 -1.5722
13517TIP3    H261967   1.341   6.077  14.727  0.0930 -0.2928 -0.3944
13518TIP3   OH261968   6.511   5.411   5.403  0.5801  0.2508  0.2034
13518TIP3    H161969   6.462   5.492   5.392 -1.9838 -1.0502  1.3269
13518TIP3    H261970   6.545   5.392   5.315 -0.3593  1.5462 -0.4767
13519TIP3   OH261971   2.121   5.389  14.047 -0.1674  0.4649 -0.3446
13519TIP3    H161972   2.123   5.476  14.086 -0.7023  1.6597 -2.8006
13519TIP3    H261973   2.028   5.366  14.043  0.0069 -0.7306  1.1808
13520TIP3   OH261974   3.770   4.792   5.465  0.3756  0.0354 -0.0229
13520TIP3    H161975   3.859   4.789   5.499  0.3277  0.8182  0.1921
13520TIP3    H261976   3.753   4.885   5.451 -0.8847  0.0251  1.2184
13521TIP3   OH261977   2.515   4.644  13.258 -0.3350 -0.3935  0.3967
13521TIP3    H161978   2.482   4.573  13.312 -1.6326 -0.0729  0.0863
13521TIP3    H261979   2.437   4.677  13.213 -0.1406  2.3345  1.8190
13522TIP3   OH261980   0.739   2.228   3.820 -0.3209 -0.3576  0.6950
13522TIP3    H161981   0.716   2.232   3.727  2.3803  1.0915 -0.0185
13522TIP3    H261982   0.791   2.148   3.827  4.0698  2.0937 -0.4120
13523TIP3   OH261983   0.093   6.061  13.460  0.0378  0.5464  0.6243
13523TIP3    H161984   0.087   6.003  13.535 -2.0175  0.6576  0.5865
13523TIP3    H261985   0.158   6.019  13.403 -1.0067 -1.4849  0.8210
13524TIP3   OH261986   0.410   4.155   1.562  0.4399 -0.4663 -0.3101
13524TIP3    H161987   0.393   4.122   1.474 -1.9006  2.2486 -1.0338
13524TIP3    H261988   0.409   4.251   1.552 -0.3036 -0.0697  2.6810
13525TIP3   OH261989   6.624   3.631   5.178 -0.0736  0.3675  0.0727
13525TIP3    H161990   6.605   3.556   5.121 -1.5320  0.7506  0.0207
13525TIP3    H261991   6.606   3.600   5.266  0.7083  0.2325  0.1876
13526TIP3   OH261992   2.086   4.984   0.474 -0.0883  0.3080  0.0181
13526TIP3    H161993   2.125   4.900   0.450 -0.8175  0.4215 -1.7439
13526TIP3    H261994   1.992   4.966   0.478 -0.1226  0.6684  1.3934
13527TIP3   OH261995   3.375   1.605  15.751 -0.2484 -0.0695 -0.5658
13527TIP3    H161996   3.372   1.512  15.772  0.2544  0.4412  2.1369
13527TIP3    H261997   3.312   1.645  15.811  1.9484  1.6597  0.7434
13528TIP3   OH261998   0.303   3.181  15.053 -0.1593 -0.1272 -0.1350
13528TIP3    H161999   0.367   3.116  15.024 -0.3656 -0.1675 -0.5105
13528TIP3    H262000   0.341   3.265  15.028 -0.3460 -0.1633 -0.5452
13529TIP3   OH262001   6.598   6.523  12.785  0.0725 -0.1645  0.0809
13529TIP3    H162002   6.683   6.481  12.772 -0.0855 -0.3770 -0.2579
13529TIP3    H262003   6.617   6.617  12.782  0.2695 -0.2122 -0.1329
13530TIP3   OH262004   2.205   5.542  11.521  0.5253  0.1020  0.3663
13530TIP3    H162005   2.280   5.563  11.466  0.3303  0.7930  0.3604
13530TIP3    H262006   2.157   5.475  11.472 -0.2434  1.4794 -0.8443
13531TIP3   OH262007   1.848   5.204  11.583 -0.4146  0.6457 -0.4951
13531TIP3    H162008   1.883   5.202  11.673  0.5692  0.3211 -0.8665
13531TIP3    H262009   1.918   5.243  11.531 -0.4664 -0.3243 -1.3230
13532TIP3   OH262010   0.095   4.591   0.668  0.2864 -0.6776  0.5487
13532TIP3    H162011   0.091   4.592   0.763  2.1380  0.1280  0.6629
13532TIP3    H262012   0.169   4.648   0.646 -0.1252 -0.8014 -1.3723
13533TIP3   OH262013   0.161   3.804  13.189  0.2511 -0.4045  0.7645
13533TIP3    H162014   0.087   3.750  13.217  0.1582 -1.2181 -0.9168
13533TIP3    H262015   0.151   3.809  13.094  0.2979  2.5305  0.8179
13534TIP3   OH262016   1.635   5.246   1.107  0.9877 -0.2621  0.5523
13534TIP3    H162017   1.689   5.282   1.178  1.9913  0.1588 -0.4054
13534TIP3    H262018   1.682   5.168   1.078  0.2979 -0.7428  0.6909
13535TIP3   OH262019   1.687   3.595  16.607 -0.0137  0.6603 -0.1061
13535TIP3    H162020   1.636   3.535  16.660 -0.4433  0.9787 -0.1519
13535TIP3    H262021   1.743   3.539  16.553 -1.9086  0.1813 -1.7088
13536TIP3   OH262022   3.864   1.082  13.581  0.4724  0.0779 -0.2097
13536TIP3    H162023   3.861   1.169  13.622 -0.6451  0.4337 -0.9956
13536TIP3    H262024   3.791   1.082  13.518 -0.3243 -1.8645  0.6294
13537TIP3   OH262025   1.741   1.507  12.465 -0.2362  0.3602  0.0840
13537TIP3    H162026   1.667   1.525  12.523 -0.5816 -0.8822  0.0594
13537TIP3    H262027   1.778   1.425  12.497  0.2730  0.2485 -0.7478
13538TIP3   OH262028   3.440   0.738   5.069  0.5626 -0.8842  0.0709
13538TIP3    H162029   3.490   0.688   5.134 -0.1561 -1.7376 -0.0182
13538TIP3    H262030   3.350   0.736   5.100  0.8177  2.6655  1.5157
13539TIP3   OH262031   0.360   1.380   1.570  1.2020  0.6490  0.4699
13539TIP3    H162032   0.454   1.396   1.560  1.6712 -0.8371  2.0106
13539TIP3    H262033   0.338   1.419   1.654  0.4408  0.8825  0.1713
13540TIP3   OH262034   1.400   2.848  12.999 -0.1344  0.0060 -0.2374
13540TIP3    H162035   1.402   2.802  12.915  1.6789 -0.6552  0.1414
13540TIP3    H262036   1.488   2.882  13.011 -0.2045 -0.3475  1.6363
13541TIP3   OH262037   0.974   4.257  15.107  0.0711 -0.4641  0.1330
13541TIP3    H162038   0.990   4.232  15.198 -0.0855  0.0584  0.3073
13541TIP3    H262039   0.942   4.177  15.065  2.6646 -1.4776 -0.1303
13542TIP3   OH262040   4.369   0.405   5.305  0.5676 -0.4342 -0.2768
13542TIP3    H162041   4.464   0.413   5.316  0.8896 -1.6337 -1.7870
13542TIP3    H262042   4.359   0.341   5.235 -1.3216  1.5902 -1.9848
13543TIP3   OH262043   4.078   0.894  15.344 -0.4470 -0.4420  0.1114
13543TIP3    H162044   4.140   0.912  15.274  0.4067 -2.3461  0.3086
13543TIP3    H262045   4.116   0.936  15.421 -0.5855  0.3193 -0.2268
13544TIP3   OH262046   1.646   4.301  11.562  0.2390  0.0561 -0.3415
13544TIP3    H162047   1.697   4.376  11.532 -0.4589  0.9790  0.7049
13544TIP3    H262048   1.555   4.322  11.539 -0.4014  1.0319  2.6678
13545TIP3   OH262049   6.087   1.242  13.761  0.1341  0.3158  0.3616
13545TIP3    H162050   6.181   1.235  13.744  0.1564  3.1643 -1.4010
13545TIP3    H262051   6.079   1.307  13.830 -0.5316  1.1472 -0.4634
13546TIP3   OH262052   3.669   2.701  12.216 -0.4300 -0.2388 -0.3655
13546TIP3    H162053   3.731   2.631  12.239 -0.1474 -0.2627 -1.1408
13546TIP3    H262054   3.599   2.694  12.280 -0.0537 -0.7808 -0.0059
13547TIP3   OH262055   3.139   4.456  13.036  0.1582 -0.2190 -0.5685
13547TIP3    H162056   3.220   4.410  13.057  0.6886  1.3234  0.9537
13547TIP3    H262057   3.086   4.391  12.990  1.5935 -1.7576 -0.1432
13548TIP3   OH262058   1.162   5.119   4.515  0.3304 -0.4232  0.4877
13548TIP3    H162059   1.120   5.198   4.482  2.2870  0.2079 -0.6732
13548TIP3    H262060   1.252   5.145   4.533  1.2397 -2.5259 -0.6123
13549TIP3   OH262061   6.021   3.292  10.347 -0.4531  0.0038 -0.3073
13549TIP3    H162062   6.047   3.356  10.414 -0.3969  1.5551 -1.7401
13549TIP3    H262063   6.091   3.227  10.349 -1.3828 -1.0380  2.3837
13550TIP3   OH262064   6.041   4.068  11.438 -0.2841  0.0799  0.2267
13550TIP3    H162065   6.066   3.976  11.443  0.7611  0.3939  1.4395
13550TIP3    H262066   6.001   4.078  11.352  1.6367 -1.0166 -0.8633
13551TIP3   OH262067   6.088   1.184  16.543 -0.4311  0.0863  0.4187
13551TIP3    H162068   6.132   1.251  16.491 -2.7307  1.4745  0.1308
13551TIP3    H262069   6.076   1.225  16.629 -0.5279 -0.5490  0.7111
13552TIP3   OH262070   0.680   2.251   2.956 -0.2597  0.0225 -0.5820
13552TIP3    H162071   0.770   2.268   2.983 -0.7308 -0.3429  1.3491
13552TIP3    H262072   0.649   2.334   2.920 -0.7963  1.9131  3.6904
13553TIP3   OH262073   2.951   6.674  14.807  0.1418 -0.1942 -0.1198
13553TIP3    H162074   2.938   6.598  14.864 -1.1154 -1.2337 -1.6952
13553TIP3    H262075   3.009   6.643  14.738  0.3292  0.5490 -0.3067
13554TIP3   OH262076   3.349   1.365   4.374 -0.1250  0.2564  0.2354
13554TIP3    H162077   3.333   1.454   4.405  2.2535  0.5023  0.9162
13554TIP3    H262078   3.325   1.309   4.448  0.6265  0.4987  0.6674
13555TIP3   OH262079   4.116   2.650  16.830  0.0311 -0.3641 -0.3353
13555TIP3    H162080   4.130   2.589  16.903 -0.4679 -0.7407 -0.5490
13555TIP3    H262081   4.202   2.689  16.815 -0.0279  0.3622  1.0300
13556TIP3   OH262082   6.302   0.601   4.585 -0.0058  0.1719 -0.1902
13556TIP3    H162083   6.271   0.556   4.664 -0.5491  0.8399 -0.0102
13556TIP3    H262084   6.242   0.675   4.575  0.6585  0.6557 -0.6727
13557TIP3   OH262085   0.928   4.619  16.126 -0.2088 -0.3754  0.0864
13557TIP3    H162086   0.906   4.571  16.046 -0.1291  2.9721 -2.2046
13557TIP3    H262087   1.024   4.616  16.129 -0.2716 -2.0253  1.1584
13558TIP3   OH262088   6.229   5.657   0.378  0.5651 -0.2766 -0.1061
13558TIP3    H162089   6.197   5.712   0.451 -0.6960  0.0030 -0.8413
13558TIP3    H262090   6.158   5.595   0.362  0.9808 -0.5643 -0.8680
13559TIP3   OH262091   6.184   4.113  17.002  0.0442  0.2168 -0.0849
13559TIP3    H162092   6.113   4.099  17.065 -0.2892 -0.3508 -0.5656
13559TIP3    H262093   6.256   4.060  17.035 -0.3089 -0.5098 -0.4557
13560TIP3   OH262094   0.217   6.757  12.085 -0.4057  0.1392  0.3873
13560TIP3    H162095   0.183   6.780  11.999  0.6727  0.8225  0.1224
13560TIP3    H262096   0.208   6.662  12.090  0.6507 -0.0637 -1.0003
13561TIP3   OH262097   1.474   5.990   1.326 -0.2554 -0.3583  0.2814
13561TIP3    H162098   1.492   5.970   1.418 -2.1607  0.7388  0.9628
13561TIP3    H262099   1.559   6.013   1.289  0.4211  0.0895  2.0256
13562TIP3   OH262100   2.760   3.990  15.485  0.0809  0.8738  0.6787
13562TIP3    H162101   2.726   4.079  15.487 -0.1012  0.8303 -0.1462
13562TIP3    H262102   2.715   3.946  15.557 -0.4355  1.2420  0.5896
13563TIP3   OH262103   0.591   5.262  16.558 -0.1082  0.2870 -0.3313
13563TIP3    H162104   0.528   5.305  16.500  0.4021  0.3776 -0.8357
13563TIP3    H262105   0.554   5.176  16.575  0.2956 -0.2140 -1.7929
13564TIP3   OH262106   0.868   6.237   3.459  0.0375  0.1834 -0.0755
13564TIP3    H162107   0.902   6.189   3.535  0.6072  0.3844 -0.2027
13564TIP3    H262108   0.777   6.257   3.482 -0.2050 -0.9249 -0.0054
13565TIP3   OH262109   1.926   1.136  11.379 -0.2838  0.4038  0.2323
13565TIP3    H162110   1.899   1.045  11.376 -0.9110  0.5175  1.8382
13565TIP3    H262111   1.918   1.166  11.288 -1.3502 -0.7564 -0.0784
13566TIP3   OH262112   2.605   1.378   0.809 -1.1689  0.1890  0.2681
13566TIP3    H162113   2.606   1.294   0.764 -1.1129  2.2774 -4.1361
13566TIP3    H262114   2.691   1.384   0.851 -0.6012 -1.2977 -0.6210
13567TIP3   OH262115   4.682   4.017  13.831  0.8022 -0.0980  0.2371
13567TIP3    H162116   4.719   4.105  13.822  0.5680 -0.2336 -3.7499
13567TIP3    H262117   4.588   4.029  13.816  0.4766 -0.8456  1.5462
13568TIP3   OH262118   1.741   5.304   6.544 -0.0916  0.0387  0.2716
13568TIP3    H162119   1.752   5.399   6.535  0.2310 -0.0288 -0.0868
13568TIP3    H262120   1.665   5.283   6.489 -0.1698  0.0895  0.3596
13569TIP3   OH262121   0.194   5.841  12.346 -0.3230  0.1116 -0.5015
13569TIP3    H162122   0.278   5.873  12.377  0.1198 -0.3369 -1.2360
13569TIP3    H262123   0.169   5.902  12.277 -0.9487  0.6547  0.1723
13570TIP3   OH262124   0.592   2.422   2.126  0.8575  0.2139  0.3207
13570TIP3    H162125   0.546   2.351   2.081  0.2907 -1.0441  2.7455
13570TIP3    H262126   0.526   2.462   2.183  1.8382  0.8864  1.0312
13571TIP3   OH262127   6.502   5.372   2.071  0.5484  0.1722  0.5533
13571TIP3    H162128   6.509   5.286   2.032 -0.6608 -0.9974  2.7078
13571TIP3    H262129   6.442   5.420   2.014  2.3389  0.1708 -1.4670
13572TIP3   OH262130   3.770   5.789  14.596  0.2103  0.0361 -0.0464
13572TIP3    H162131   3.713   5.716  14.623  0.2858 -0.9783 -2.3486
13572TIP3    H262132   3.859   5.757  14.612  0.2195  0.0019 -0.1631
13573TIP3   OH262133   4.576   5.386   2.608  0.1037 -0.2230  0.2302
13573TIP3    H162134   4.639   5.429   2.665 -0.5080  0.7650  0.1765
13573TIP3    H262135   4.520   5.456   2.576 -0.4815 -0.9653 -0.4199
13574TIP3   OH262136   2.829   1.590  17.165 -0.4769 -0.2393  0.1177
13574TIP3    H162137   2.910   1.587  17.115 -1.6560  1.7590 -2.1354
13574TIP3    H262138   2.817   1.682  17.187 -1.4021 -0.7023  1.7342
13575TIP3   OH262139   4.923   2.016  17.125 -0.0985 -0.0538 -0.2669
13575TIP3    H162140   4.964   2.101  17.139 -1.9797  1.1886 -1.6806
13575TIP3    H262141   4.831   2.037  17.107 -0.1422 -2.1482 -3.1502
13576TIP3   OH262142   4.376   1.508  12.578 -0.4042 -0.3165 -0.2575
13576TIP3    H162143   4.457   1.484  12.623  0.3876  0.8459 -1.0075
13576TIP3    H262144   4.371   1.447  12.505  0.6396  0.5722 -1.1051
13577TIP3   OH262145   6.500   5.634  16.443  0.1364 -0.1218  0.4814
13577TIP3    H162146   6.415   5.673  16.463  0.8498  0.6818  2.1326
13577TIP3    H262147   6.480   5.543  16.420 -1.2393  0.3126 -0.1257
13578TIP3   OH262148   1.954   3.792   5.591 -0.6929 -0.1769 -0.3016
13578TIP3    H162149   1.962   3.819   5.682  0.0865  0.4895 -0.5451
13578TIP3    H262150   1.890   3.721   5.591  1.2684 -2.1038  1.1743
13579TIP3   OH262151   3.215   3.288  15.392 -0.2087 -0.1399  0.1821
13579TIP3    H162152   3.189   3.248  15.475  1.0396 -2.5267 -0.5074
13579TIP3    H262153   3.311   3.287  15.394 -0.1678  0.2720 -1.0531
13580TIP3   OH262154   5.457   1.790  15.272  0.2472 -0.1791  0.5457
13580TIP3    H162155   5.453   1.753  15.184  0.0585  1.9663 -0.4088
13580TIP3    H262156   5.389   1.744  15.320  0.9844 -2.0735 -0.1078
13581TIP3   OH262157   4.979   5.135  13.952  0.2810  0.5371 -0.2435
13581TIP3    H162158   5.062   5.171  13.921  0.8274 -0.2544  0.2830
13581TIP3    H262159   4.970   5.052  13.906 -1.1373  1.4262 -1.7006
13582TIP3   OH262160   1.304   1.383  14.713  0.0209 -0.2137 -0.6042
13582TIP3    H162161   1.253   1.459  14.683 -0.8956 -1.2676 -1.8178
13582TIP3    H262162   1.394   1.402  14.687 -0.0137  0.9191  0.0486
13583TIP3   OH262163   4.666   6.419  11.215 -0.2073  0.2806 -0.0290
13583TIP3    H162164   4.641   6.511  11.210 -2.9631 -0.3715  0.2009
13583TIP3    H262165   4.607   6.374  11.155  0.8606 -1.3943  0.0993
13584TIP3   OH262166   6.110   3.566   4.156 -0.0088 -0.3045  0.4399
13584TIP3    H162167   6.090   3.603   4.070 -0.4991 -0.4063  0.5074
13584TIP3    H262168   6.045   3.496   4.168 -1.0820  0.8499  1.6413
13585TIP3   OH262169   6.072   3.407   6.168 -0.1158  0.7205 -0.4052
13585TIP3    H162170   6.126   3.447   6.237 -1.2115  0.0051  0.9345
13585TIP3    H262171   6.129   3.343   6.127  0.0372 -0.2176  1.1636
13586TIP3   OH262172   4.605   5.848  16.733  0.1655 -0.6131  0.3721
13586TIP3    H162173   4.621   5.834  16.827 -0.6846 -0.9143  0.4781
13586TIP3    H262174   4.653   5.928  16.713 -0.1296 -0.2168  1.2054
13587TIP3   OH262175   6.298   0.250  17.321  0.5974 -0.6618  0.1770
13587TIP3    H162176   6.253   0.194  17.384 -0.7379 -0.4962 -0.5887
13587TIP3    H262177   6.260   0.227  17.236  0.8676  0.5646 -0.3043
13588TIP3   OH262178   5.689   4.163  13.397 -0.1412  0.4703  0.4722
13588TIP3    H162179   5.659   4.102  13.329 -1.7924  2.6273 -0.8760
13588TIP3    H262180   5.783   4.171  13.381 -0.2009 -0.3980 -0.4217
13589TIP3   OH262181   4.569   0.208  17.299  0.5257 -0.3896 -0.1965
13589TIP3    H162182   4.484   0.234  17.263  0.9647 -0.1759 -1.1027
13589TIP3    H262183   4.553   0.200  17.393 -0.6256 -0.8609 -0.4130
13590TIP3   OH262184   1.975   1.266   2.623  0.3240  0.4245  0.0999
13590TIP3    H162185   1.908   1.320   2.665  1.3071  0.5852  1.5668
13590TIP3    H262186   2.041   1.329   2.594  0.3959  0.1900 -0.2448
13591TIP3   OH262187   1.527   4.122  11.824  0.0076 -0.5763 -0.9890
13591TIP3    H162188   1.528   4.167  11.739  0.3111 -1.6100 -1.5436
13591TIP3    H262189   1.619   4.104  11.843  0.2580  2.0796  0.9247
13592TIP3   OH262190   0.719   1.587  13.452 -0.0477  0.4340  0.0338
13592TIP3    H162191   0.683   1.642  13.521  0.1655  1.2457 -0.4815
13592TIP3    H262192   0.653   1.519  13.437 -1.2249  1.6788 -0.6549
13593TIP3   OH262193   4.150   4.833   2.367  0.1057 -0.2954  0.3601
13593TIP3    H162194   4.074   4.783   2.397  0.2535 -0.5872  0.2457
13593TIP3    H262195   4.220   4.769   2.359  1.0580  0.3164  2.7450
13594TIP3   OH262196   2.200   5.843   4.657  0.3427 -0.2705  0.4547
13594TIP3    H162197   2.120   5.888   4.684 -0.0282  0.2049 -1.3270
13594TIP3    H262198   2.197   5.842   4.561  2.6465  0.1140  0.3048
13595TIP3   OH262199   6.443   6.556   5.029 -0.6257  0.7054  0.2651
13595TIP3    H162200   6.447   6.588   5.119  0.7467 -2.6492  1.5530
13595TIP3    H262201   6.503   6.613   4.980  0.9744  0.7522  2.1814
13596TIP3   OH262202   5.377   4.951   2.704  0.4868  0.6383  0.2684
13596TIP3    H162203   5.370   4.866   2.747 -1.8816 -0.1037 -1.3495
13596TIP3    H262204   5.432   4.934   2.627 -0.8068  0.2295 -0.6164
13597TIP3   OH262205   3.956   4.026   5.579  0.3443  0.0962  0.1481
13597TIP3    H162206   3.925   3.979   5.502 -3.3272  1.0731  0.8230
13597TIP3    H262207   3.972   3.958   5.645 -0.7028 -0.4706 -0.1719
13598TIP3   OH262208   1.467   2.093  13.439  0.1475 -0.7613  0.0835
13598TIP3    H162209   1.544   2.150  13.438  0.5022 -1.2254  0.6989
13598TIP3    H262210   1.397   2.147  13.477  0.6690 -0.9563  1.3716
13599TIP3   OH262211   1.490   0.480   1.340  0.2574  0.7045 -0.2684
13599TIP3    H162212   1.533   0.537   1.276  1.0065 -1.4750 -1.8063
13599TIP3    H262213   1.398   0.481   1.315  0.4912  0.1503 -1.1724
13600TIP3   OH262214   0.460   4.185   2.392 -0.0540 -0.3460  0.0259
13600TIP3    H162215   0.372   4.221   2.396  0.0934 -0.1230  1.9273
13600TIP3    H262216   0.482   4.185   2.299 -1.9428 -0.1558 -0.4481
13601TIP3   OH262217   4.836   0.089   4.295  0.1659 -0.4241  0.0320
13601TIP3    H162218   4.804   0.164   4.244 -1.2799 -0.6057  0.6221
13601TIP3    H262219   4.811   0.109   4.385  1.2218 -0.8724  0.4374
13602TIP3   OH262220   4.696   0.591  16.636 -0.2201 -0.1275 -0.1630
13602TIP3    H162221   4.771   0.600  16.576 -1.2448  0.9274 -1.3367
13602TIP3    H262222   4.728   0.625  16.719 -0.1455  2.8466 -1.3049
13603TIP3   OH262223   5.344   5.802   4.792 -0.3497  0.0177  0.0232
13603TIP3    H162224   5.388   5.838   4.715  0.0765 -0.4970  0.0195
13603TIP3    H262225   5.412   5.753   4.838 -0.9064 -0.7830  0.0200
13604TIP3   OH262226   5.632   5.482   3.263  0.4728 -0.1142  0.4166
13604TIP3    H162227   5.682   5.421   3.318  0.2068 -0.6025  0.1208
13604TIP3    H262228   5.614   5.434   3.183 -1.0868 -0.2258  0.7899
13605TIP3   OH262229   1.288   4.328  17.109 -0.6015 -0.1824 -0.2273
13605TIP3    H162230   1.318   4.397  17.168 -1.9554  0.0273  0.2599
13605TIP3    H262231   1.275   4.252  17.166  1.9969 -1.2616 -0.9326
13606TIP3   OH262232   0.084   1.656  13.784 -0.2148 -0.0124  0.3613
13606TIP3    H162233   0.175   1.665  13.809 -0.3225  0.1195  0.7100
13606TIP3    H262234   0.059   1.743  13.750 -0.7148  0.4883  1.9464
13607TIP3   OH262235   2.872   2.458   4.190 -0.6461 -0.4780  0.1443
13607TIP3    H162236   2.883   2.541   4.236  0.6126 -0.8759  0.6180
13607TIP3    H262237   2.945   2.455   4.128 -0.8796 -1.0820 -0.1134
13608TIP3   OH262238   3.371   0.249   0.199  0.2901 -0.1368 -0.0380
13608TIP3    H162239   3.294   0.300   0.174  0.7515  0.3861 -0.4259
13608TIP3    H262240   3.421   0.307   0.257  1.4094  0.3474 -1.4176
13609TIP3   OH262241   2.777   5.039   5.461  0.0817  0.1618 -0.3468
13609TIP3    H162242   2.699   5.036   5.406  0.1832  1.2093 -0.5615
13609TIP3    H262243   2.801   5.131   5.465  1.0482 -0.0896  0.0963
13610TIP3   OH262244   0.892   2.092  12.051 -0.7363 -0.0732  0.4269
13610TIP3    H162245   0.873   2.078  11.958 -0.7554  3.4256 -0.2532
13610TIP3    H262246   0.836   2.166  12.076  2.9286  2.6034  1.6538
13611TIP3   OH262247   0.103   6.708   3.361  0.4488 -0.0398  0.0270
13611TIP3    H162248   0.067   6.678   3.278 -0.2868 -1.0060  0.6700
13611TIP3    H262249   0.198   6.704   3.349  0.4062  2.4596 -1.6579
13612TIP3   OH262250   4.661   2.407   2.062 -0.1958 -0.4186 -0.5746
13612TIP3    H162251   4.573   2.380   2.038 -0.2813 -0.0232 -0.7139
13612TIP3    H262252   4.666   2.499   2.037 -0.0233 -0.2068  0.2047
13613TIP3   OH262253   4.824   0.799  13.850 -0.3111  0.2752  0.3226
13613TIP3    H162254   4.848   0.886  13.820  2.1507 -0.3126  0.4033
13613TIP3    H262255   4.812   0.748  13.770 -0.4611  0.3524  0.2950
13614TIP3   OH262256   4.947   2.711  16.856 -0.2681  0.5309  0.0688
13614TIP3    H162257   4.890   2.770  16.807 -0.0022  0.9355  0.2470
13614TIP3    H262258   5.035   2.732  16.825 -0.1982  0.0160 -0.0912
13615TIP3   OH262259   2.813   3.521   3.029  0.1322  1.0577  0.4967
13615TIP3    H162260   2.843   3.470   2.955  1.3158  0.7917  1.1408
13615TIP3    H262261   2.746   3.579   2.993  1.0815  1.3328 -0.9004
13616TIP3   OH262262   4.131   3.266  15.608  0.8734  0.0481 -0.4727
13616TIP3    H162263   4.193   3.333  15.635 -0.6455  1.0665  0.6719
13616TIP3    H262264   4.090   3.236  15.690  0.8693 -1.6410 -1.0449
13617TIP3   OH262265   2.444   3.668   2.231  0.1927  0.4477  0.0477
13617TIP3    H162266   2.434   3.577   2.262  0.6215  0.6004  0.6516
13617TIP3    H262267   2.390   3.720   2.291 -0.8541  0.4933 -0.9037
13618TIP3   OH262268   6.316   4.642   3.365 -0.3122 -0.5089  0.1079
13618TIP3    H162269   6.374   4.625   3.291 -1.4741  0.9354 -1.2122
13618TIP3    H262270   6.241   4.585   3.350 -1.2572  0.9086 -0.7327
13619TIP3   OH262271   5.511   3.141   2.279  0.0642 -0.4522 -0.2003
13619TIP3    H162272   5.517   3.046   2.268  1.2328 -0.1864 -2.2204
13619TIP3    H262273   5.468   3.172   2.200 -0.5608  0.7029  0.5622
13620TIP3   OH262274   3.470   3.221   0.308  0.1244 -0.4043  0.1945
13620TIP3    H162275   3.472   3.297   0.249  1.1094 -0.1187  0.5902
13620TIP3    H262276   3.406   3.245   0.376 -0.5078 -0.4590 -0.3685
13621TIP3   OH262277   4.295   4.299   0.315  0.5039 -0.2245  0.3818
13621TIP3    H162278   4.327   4.367   0.373 -0.1102  1.9947 -1.6918
13621TIP3    H262279   4.201   4.313   0.311  0.0879 -2.4096  1.2831
13622TIP3   OH262280   0.442   0.032  13.477 -0.2779 -0.6710  0.7477
13622TIP3    H162281   0.459  -0.062  13.482  0.5694 -0.5723  0.0051
13622TIP3    H262282   0.349   0.040  13.458  0.1576 -1.4679 -2.1065
13623TIP3   OH262283   4.333   6.097  16.038 -0.2571  0.6122  0.2008
13623TIP3    H162284   4.335   6.079  15.944  0.3731  2.1717 -0.1167
13623TIP3    H262285   4.386   6.027  16.077  0.6031  0.7134 -0.7582
13624TIP3   OH262286   4.607   4.182  14.840  0.2131 -0.0493 -0.1733
13624TIP3    H162287   4.686   4.210  14.795  0.2608 -0.0421 -0.0858
13624TIP3    H262288   4.638   4.153  14.926  0.0521  0.4717  0.0651
13625TIP3   OH262289   6.399   0.253   6.551 -0.2529  0.6895 -0.0463
13625TIP3    H162290   6.466   0.318   6.571  1.0599 -0.2475 -1.1685
13625TIP3    H262291   6.318   0.303   6.542  0.4653  1.9784  0.3969
13626TIP3   OH262292   4.541   6.293  16.407 -0.3966 -0.3101 -0.3633
13626TIP3    H162293   4.516   6.297  16.315 -1.4030 -1.2025 -0.1538
13626TIP3    H262294   4.483   6.356  16.451  2.0056  2.3025 -0.6709
13627TIP3   OH262295   0.482   5.929  16.512  0.5143 -0.1719 -0.2286
13627TIP3    H162296   0.535   6.004  16.537 -0.3111  0.7404 -1.1599
13627TIP3    H262297   0.544   5.868  16.473  0.9326  0.7705 -1.0744
13628TIP3   OH262298   3.246   1.872  10.654 -0.0371 -0.3432  1.0465
13628TIP3    H162299   3.314   1.811  10.624  0.2647  0.8621 -0.8385
13628TIP3    H262300   3.285   1.915  10.730  0.3662 -1.3222  1.4175
13629TIP3   OH262301   0.859   0.273  16.071  0.0156  0.7059  0.4242
13629TIP3    H162302   0.842   0.268  15.977  2.5877  1.3816 -0.1619
13629TIP3    H262303   0.880   0.183  16.095  3.5466  1.0558 -0.6929
13630TIP3   OH262304   3.058   0.402   4.550  0.0734 -0.3470 -0.0697
13630TIP3    H162305   3.076   0.357   4.632 -0.5364  0.2728  0.4188
13630TIP3    H262306   2.964   0.422   4.554 -0.6488 -2.7456 -2.1441
13631TIP3   OH262307   3.109   4.232   4.996  0.3834 -0.2503  0.0787
13631TIP3    H162308   3.127   4.240   4.903  0.2046  0.5028  0.0974
13631TIP3    H262309   3.151   4.309   5.035  0.1147 -0.3435  0.5628
13632TIP3   OH262310   2.449   3.549   1.448 -0.8619 -0.0081 -0.3903
13632TIP3    H162311   2.479   3.530   1.359 -3.1808  0.6505 -1.3740
13632TIP3    H262312   2.507   3.496   1.504  0.3999 -0.7465 -2.2755
13633TIP3   OH262313   3.876   5.741   0.516  0.1309 -0.3011 -0.1812
13633TIP3    H162314   3.862   5.814   0.456  0.8823 -0.1498 -0.1861
13633TIP3    H262315   3.880   5.782   0.603  0.4579 -0.3483 -0.1734
13634TIP3   OH262316   0.223   3.055  17.058  0.7468  0.1306 -0.5222
13634TIP3    H162317   0.253   2.998  17.128 -1.4817  2.6057  2.7468
13634TIP3    H262318   0.172   2.998  17.000 -2.0435 -1.3072  2.9867
13635TIP3   OH262319   0.022   6.235   3.911 -0.3963 -0.3116  0.3741
13635TIP3    H162320  -0.035   6.310   3.924 -0.7673 -0.1739 -1.7547
13635TIP3    H262321  -0.011   6.169   3.972 -1.2576  0.5872  0.9145
13636TIP3   OH262322   2.207   1.260  13.473  0.4027  0.2442 -0.5759
13636TIP3    H162323   2.298   1.232  13.481  0.7616  0.4072 -3.2356
13636TIP3    H262324   2.157   1.179  13.464  0.4283  0.2051 -0.3767
13637TIP3   OH262325   3.342   2.431   1.457 -0.3240  0.1694  0.3044
13637TIP3    H162326   3.313   2.382   1.380  2.5434 -1.9937  0.4572
13637TIP3    H262327   3.411   2.489   1.424  1.5304 -1.3824  1.2808
13638TIP3   OH262328   4.750   4.491   5.428 -0.2982 -0.1659  0.8390
13638TIP3    H162329   4.785   4.464   5.513 -1.0316  2.5639  2.1184
13638TIP3    H262330   4.655   4.489   5.439 -0.3913  1.8967  0.7265
13639TIP3   OH262331   0.438   2.242  16.268  0.4452 -0.3428 -0.3848
13639TIP3    H162332   0.349   2.207  16.259 -1.0566  1.3102  4.4601
13639TIP3    H262333   0.429   2.335  16.249  1.3974 -0.3513 -0.8878
13640TIP3   OH262334   6.504   0.323   2.404 -0.0565  0.0841 -0.0628
13640TIP3    H162335   6.507   0.265   2.480 -0.5386  0.2386  0.0777
13640TIP3    H262336   6.451   0.277   2.339 -0.3592  0.3170  0.0136
13641TIP3   OH262337   1.267   3.973  16.401  0.1592  0.3139  0.3293
13641TIP3    H162338   1.291   4.061  16.430  0.6978 -0.2239  1.5944
13641TIP3    H262339   1.339   3.947  16.343 -0.0718  0.7445 -0.1627
13642TIP3   OH262340   1.244   6.182   4.431  0.3545 -0.1315  0.1525
13642TIP3    H162341   1.151   6.159   4.423  0.3670 -0.1964  0.1917
13642TIP3    H262342   1.269   6.211   4.343  0.5968 -1.2314 -0.1571
13643TIP3   OH262343   5.849   0.166   1.856 -0.7093 -0.4877 -0.3228
13643TIP3    H162344   5.845   0.105   1.929  0.3713  0.9360  0.9885
13643TIP3    H262345   5.914   0.231   1.882 -1.2772  0.8251 -1.9761
13644TIP3   OH262346   6.241   3.625  13.588 -0.0303 -0.0334  0.1713
13644TIP3    H162347   6.297   3.591  13.657  0.0446  0.7327  0.4957
13644TIP3    H262348   6.159   3.649  13.633 -0.9151 -1.8115 -0.4057
13645TIP3   OH262349   2.873   3.076   3.934  0.1532 -0.5759  0.4772
13645TIP3    H162350   2.842   3.166   3.947  0.7448 -0.4624  1.1058
13645TIP3    H262351   2.820   3.023   3.993 -0.2438 -0.6585  0.0560
13646TIP3   OH262352   5.417   0.247  13.583  0.1209 -0.0890 -0.0971
13646TIP3    H162353   5.456   0.176  13.532 -1.8530 -2.4239  1.4288
13646TIP3    H262354   5.356   0.290  13.524 -1.8563 -2.5087  0.0320
13647TIP3   OH262355   1.798   3.809   6.323  0.2155  0.3743 -0.4071
13647TIP3    H162356   1.815   3.804   6.229  0.4826  0.6292 -0.3757
13647TIP3    H262357   1.717   3.859   6.330 -1.1253 -1.6845 -0.6104
13648TIP3   OH262358   3.671   1.660   4.287  0.3737  0.3260 -0.3749
13648TIP3    H162359   3.644   1.650   4.195 -0.5492 -0.9582  0.0109
13648TIP3    H262360   3.762   1.689   4.282 -0.1081  1.7490 -1.7021
13649TIP3   OH262361   4.674   2.003  11.314  0.3329 -0.0428  0.0147
13649TIP3    H162362   4.664   1.973  11.223 -2.4004 -0.2650  0.3080
13649TIP3    H262363   4.768   2.009  11.326  0.9622 -3.4909 -1.7230
13650TIP3   OH262364   1.580   1.417   3.213 -0.0013 -0.3791 -0.5982
13650TIP3    H162365   1.527   1.342   3.186  0.2179 -0.2461 -1.4378
13650TIP3    H262366   1.520   1.491   3.212  0.1149 -0.2862 -1.2331
13651TIP3   OH262367   5.173   4.464   2.495 -0.0797 -0.5429  0.0398
13651TIP3    H162368   5.112   4.532   2.523 -0.9600 -1.7344  1.1243
13651TIP3    H262369   5.232   4.509   2.435 -1.1833  0.9633  0.0084
13652TIP3   OH262370   0.387   2.117  12.014  0.7213  0.2424  0.2829
13652TIP3    H162371   0.393   2.056  12.088 -0.2082  0.7100  0.7683
13652TIP3    H262372   0.318   2.178  12.040 -0.7504 -0.4970 -1.6381
13653TIP3   OH262373   3.255   2.134  16.195  0.2062  0.2016  0.1127
13653TIP3    H162374   3.326   2.100  16.251  0.1569  0.0104  0.0575
13653TIP3    H262375   3.286   2.220  16.168  0.1216  0.4014  0.6358
13654TIP3   OH262376   2.706   2.620   1.064 -0.2301  0.4847 -0.8589
13654TIP3    H162377   2.658   2.541   1.089  1.2535 -0.0795  0.3969
13654TIP3    H262378   2.777   2.589   1.008 -0.0415  1.0221 -0.9294
13655TIP3   OH262379   5.290   5.004  12.478 -0.0682 -0.2126 -0.3981
13655TIP3    H162380   5.249   5.053  12.406 -0.6685 -0.5435 -0.2889
13655TIP3    H262381   5.250   5.040  12.557 -0.2804 -0.6705 -0.2997
13656TIP3   OH262382   4.938   3.137   4.636  0.0209  0.2519  0.5887
13656TIP3    H162383   4.996   3.148   4.560  0.4310  0.0321  0.8676
13656TIP3    H262384   4.997   3.137   4.711 -0.2489 -0.8832  0.8157
13657TIP3   OH262385   1.538   0.600  13.997 -0.4071 -0.0979 -0.2092
13657TIP3    H162386   1.631   0.596  13.972 -0.1627  0.2646  0.5915
13657TIP3    H262387   1.508   0.509  13.992  0.2621 -0.3724  0.4774
13658TIP3   OH262388   2.993   0.154  16.349  0.1020 -0.6322  0.7699
13658TIP3    H162389   3.042   0.171  16.429  0.1732 -1.1510  0.8343
13658TIP3    H262390   2.905   0.131  16.379 -0.3713  0.8839  0.6403
13659TIP3   OH262391   4.815   4.767  11.167  0.2709 -0.1126 -0.2333
13659TIP3    H162392   4.751   4.817  11.115  0.8936  1.1894  0.2027
13659TIP3    H262393   4.778   4.679  11.173 -1.4745  0.6005 -0.0111
13660TIP3   OH262394   0.058   0.733   1.315  0.3427 -0.4477 -0.5835
13660TIP3    H162395   0.134   0.781   1.346  2.3765 -2.7062 -1.6928
13660TIP3    H262396   0.064   0.737   1.220 -0.9456 -0.6924 -0.6977
13661TIP3   OH262397   3.495   1.353  14.838 -0.2322  0.5793 -0.2694
13661TIP3    H162398   3.431   1.284  14.853 -0.2658  0.2501 -1.7524
13661TIP3    H262399   3.477   1.384  14.750  1.0025  1.1790 -0.3430
13662TIP3   OH262400   5.536   3.256   4.785  0.5893 -0.2997 -0.4253
13662TIP3    H162401   5.502   3.177   4.742  0.3452  0.8224 -2.4314
13662TIP3    H262402   5.569   3.225   4.869  0.9083 -2.6100 -1.3217
13663TIP3   OH262403   3.600   3.221  11.619  0.4623 -0.6374  0.1602
13663TIP3    H162404   3.512   3.191  11.641 -0.1864  0.8734 -0.2463
13663TIP3    H262405   3.657   3.146  11.638 -0.3989 -0.5063  3.9977
13664TIP3   OH262406   3.532   0.497  12.805  0.2488  0.1871  0.1181
13664TIP3    H162407   3.444   0.497  12.842 -0.7468 -1.5729 -1.9900
13664TIP3    H262408   3.570   0.414  12.834 -0.4413 -1.0783 -2.3357
13665TIP3   OH262409   5.856   0.820   3.500  0.4485 -0.5766  0.1203
13665TIP3    H162410   5.811   0.904   3.499  2.1215  0.4230  2.1080
13665TIP3    H262411   5.902   0.815   3.416 -1.5866 -0.6851 -1.0510
13666TIP3   OH262412   1.865   3.551  15.879  0.6320 -0.7486 -0.3120
13666TIP3    H162413   1.869   3.556  15.784  0.2708  0.3012 -0.2863
13666TIP3    H262414   1.957   3.556  15.907  0.6564  0.8327 -0.5535
13667TIP3   OH262415   2.411   5.464  13.744 -0.1159  0.7747  0.0490
13667TIP3    H162416   2.455   5.479  13.828 -0.5602  3.8547 -0.1564
13667TIP3    H262417   2.358   5.385  13.759  1.0616  0.2981  2.1050
13668TIP3   OH262418   4.460   4.559   5.072 -0.0958 -0.6641 -0.5745
13668TIP3    H162419   4.464   4.532   5.164 -0.7080  1.6667  0.2116
13668TIP3    H262420   4.385   4.511   5.037  0.2239 -1.6901  0.0817
13669TIP3   OH262421   4.168   0.747  12.000 -0.5948  0.2851 -0.2133
13669TIP3    H162422   4.197   0.713  12.085 -1.4240  1.6554  0.6626
13669TIP3    H262423   4.123   0.674  11.959 -1.7429  0.0752  1.3224
13670TIP3   OH262424   2.645   5.322   2.129  0.7774  0.6522 -0.3010
13670TIP3    H162425   2.588   5.398   2.145  1.8615  1.2585  0.8872
13670TIP3    H262426   2.605   5.252   2.181  0.0876  0.5450 -0.9548
13671TIP3   OH262427   4.848   0.756   1.275 -0.4739 -0.3709  0.4687
13671TIP3    H162428   4.915   0.771   1.342 -0.6870 -0.1230  0.6301
13671TIP3    H262429   4.892   0.703   1.208  0.0958  0.4124  0.2131
13672TIP3   OH262430   0.777   6.198  16.877 -0.0731  0.4312  0.1267
13672TIP3    H162431   0.686   6.195  16.905 -0.3183  1.1450 -0.5750
13672TIP3    H262432   0.780   6.267  16.811  0.9985  0.4868  0.2172
13673TIP3   OH262433   0.956   1.505   3.299  0.2958  0.1529 -0.4472
13673TIP3    H162434   0.955   1.420   3.344  0.8527  0.5423  0.3256
13673TIP3    H262435   1.034   1.549   3.334 -0.9835  1.7146  0.5712
13674TIP3   OH262436   4.529   0.583   3.021  0.3602  0.0173 -0.1588
13674TIP3    H162437   4.468   0.644   3.062  0.5457  0.4605 -0.5258
13674TIP3    H262438   4.476   0.507   2.999  0.2058 -0.1230  0.6616
13675TIP3   OH262439   5.378   3.267   4.303 -0.7097  0.0029  0.2454
13675TIP3    H162440   5.446   3.200   4.292 -0.7242  0.1427 -0.7605
13675TIP3    H262441   5.407   3.340   4.247 -0.8338  0.7403  1.1124
13676TIP3   OH262442   6.328   4.338  17.145  0.9037 -0.6572  0.1734
13676TIP3    H162443   6.236   4.321  17.162  1.0401 -2.0500 -0.4371
13676TIP3    H262444   6.331   4.431  17.120 -0.3201 -0.6140  0.1552
13677TIP3   OH262445   2.219   3.770  14.298  0.0931  0.0712  0.6223
13677TIP3    H162446   2.231   3.784  14.392 -1.2644 -0.9928  0.9881
13677TIP3    H262447   2.199   3.856  14.263  0.4978  0.4575  1.3324
13678TIP3   OH262448   6.340   3.166  14.342  0.1120  0.3969  0.5320
13678TIP3    H162449   6.305   3.114  14.269 -2.3705  3.0651 -0.3889
13678TIP3    H262450   6.412   3.216  14.303  1.3482 -0.9689  0.9787
13679TIP3   OH262451   5.404   5.438  15.206  0.7223 -0.1737 -0.1534
13679TIP3    H162452   5.433   5.347  15.196  0.9782 -0.1091 -0.0318
13679TIP3    H262453   5.471   5.490  15.160 -1.4066 -0.2442 -3.6730
13680TIP3   OH262454   0.351   0.664   5.886 -0.1147  0.1457 -0.4367
13680TIP3    H162455   0.377   0.756   5.888 -0.5260  0.2839 -1.2278
13680TIP3    H262456   0.365   0.634   5.976  1.3446  0.6115 -0.4773
13681TIP3   OH262457   1.330   3.460  12.829  0.4053  0.1273 -0.5079
13681TIP3    H162458   1.394   3.515  12.874  1.8765 -0.8585 -1.3139
13681TIP3    H262459   1.312   3.389  12.892  2.7704 -1.4755 -1.5054
13682TIP3   OH262460   0.641   2.928   1.760  0.5797  0.1467 -0.5527
13682TIP3    H162461   0.549   2.926   1.787  1.0755  0.8139  1.3057
13682TIP3    H262462   0.639   2.903   1.668 -1.7768  2.9745 -1.4313
13683TIP3   OH262463   1.425   6.683   3.851  0.0646 -0.0604  0.3743
13683TIP3    H162464   1.358   6.656   3.788 -0.9303 -1.1285  1.8276
13683TIP3    H262465   1.483   6.607   3.859  0.9330  0.5270 -0.1802
13684TIP3   OH262466   0.618   3.392   2.381 -0.1650 -1.1404 -0.1994
13684TIP3    H162467   0.657   3.424   2.462 -1.9927 -0.4511  0.4796
13684TIP3    H262468   0.638   3.459   2.316  1.4928 -1.7985 -0.4168
13685TIP3   OH262469   5.222   0.408   3.157  0.1913 -0.3797  0.0082
13685TIP3    H162470   5.307   0.449   3.140  0.8593 -2.4095 -2.0745
13685TIP3    H262471   5.160   0.461   3.106 -0.0219  1.5737  2.1330
13686TIP3   OH262472   2.003   3.451  12.410  0.1493 -0.0225  0.2652
13686TIP3    H162473   2.054   3.396  12.350  3.2039  3.7894 -1.0913
13686TIP3    H262474   2.033   3.425  12.497  4.0067  1.3823 -0.4411
13687TIP3   OH262475   4.349   4.061  12.690 -0.0001 -0.2443 -0.0492
13687TIP3    H162476   4.425   4.089  12.741 -0.5175 -2.4486  2.0935
13687TIP3    H262477   4.372   3.973  12.660 -0.9933 -0.2149 -0.9503
13688TIP3   OH262478   5.164   6.322  14.049  0.1133  0.2693 -0.3931
13688TIP3    H162479   5.165   6.233  14.085  0.8015  0.6209  0.4927
13688TIP3    H262480   5.256   6.343  14.033  0.0828  1.2948  0.6417
13689TIP3   OH262481   1.236   2.380   0.559  0.4191 -0.1978  0.0813
13689TIP3    H162482   1.251   2.316   0.628  0.4359 -0.2704  0.0109
13689TIP3    H262483   1.181   2.334   0.496  0.2232 -0.0596  0.1526
13690TIP3   OH262484   4.016   1.556  16.289 -0.3619 -0.2711 -0.2544
13690TIP3    H162485   4.034   1.580  16.380 -0.3177  1.1313 -0.5995
13690TIP3    H262486   4.102   1.557  16.247 -0.5435  0.6784 -0.6399
13691TIP3   OH262487   4.103   2.100  14.861 -0.6535  0.6004 -0.0780
13691TIP3    H162488   4.008   2.096  14.873 -0.4966 -1.6106  1.0683
13691TIP3    H262489   4.115   2.105  14.766 -1.9306 -0.5417 -0.3373
13692TIP3   OH262490   2.337   3.182  13.316 -0.1375 -0.3314 -0.5670
13692TIP3    H162491   2.310   3.102  13.271  1.2259 -1.0233 -0.2126
13692TIP3    H262492   2.350   3.156  13.407 -2.1423  0.8902  0.1483
13693TIP3   OH262493   1.130   5.233  16.947  0.2107  0.3647  0.4258
13693TIP3    H162494   1.176   5.237  16.863 -0.8440 -0.3348 -0.2143
13693TIP3    H262495   1.170   5.301  17.000  3.3870 -1.4973  0.6362
13694TIP3   OH262496   3.143   0.932  12.462 -0.0694 -0.3323 -0.1973
13694TIP3    H162497   3.090   0.941  12.382 -0.7165 -1.1963  0.1174
13694TIP3    H262498   3.210   0.868  12.439  0.6002  0.4544 -0.4663
13695TIP3   OH262499   4.519   4.087  15.210 -0.0835  0.3322 -0.0281
13695TIP3    H162500   4.545   4.038  15.132 -0.6455  0.9126 -0.5890
13695TIP3    H262501   4.560   4.040  15.283 -2.5553 -2.4881 -0.2399
13696TIP3   OH262502   6.666   0.625   2.712 -0.0116 -0.4538  0.0765
13696TIP3    H162503   6.604   0.589   2.776  0.8968 -0.4980  0.9585
13696TIP3    H262504   6.627   0.605   2.627 -1.9269  0.7818  0.6008
13697TIP3   OH262505   4.160   5.342  12.095 -0.1782 -0.3303  0.1025
13697TIP3    H162506   4.126   5.336  12.184  1.7166 -1.3325  0.8042
13697TIP3    H262507   4.194   5.431  12.088 -1.4393  0.1621 -0.0832
13698TIP3   OH262508   3.006   5.912  15.444  0.2222  0.5796 -0.3976
13698TIP3    H162509   3.050   5.986  15.402  1.6107  0.2395  0.4155
13698TIP3    H262510   3.046   5.835  15.404 -0.3770  0.2620 -0.3867
13699TIP3   OH262511   2.782   4.418   4.122  0.1690  0.0821 -0.7975
13699TIP3    H162512   2.843   4.372   4.180 -0.6280  0.6639  0.5624
13699TIP3    H262513   2.835   4.487   4.081  0.4291  0.6723  0.4733
13700TIP3   OH262514   0.208   4.007  14.842 -0.2600  0.1897  0.0855
13700TIP3    H162515   0.264   4.019  14.766 -0.7100  1.1679 -0.1109
13700TIP3    H262516   0.122   3.983  14.805 -0.0925 -0.9126  0.3645
13701TIP3   OH262517   3.566   3.057   2.302 -0.4123  0.4381 -0.2422
13701TIP3    H162518   3.554   2.970   2.264  0.0862  0.3658 -0.2323
13701TIP3    H262519   3.520   3.053   2.386  2.0233 -0.7667  1.1399
13702TIP3   OH262520   4.501   5.649  15.915  0.0701 -0.6048 -0.2308
13702TIP3    H162521   4.425   5.590  15.909  0.0232 -0.4772 -0.9789
13702TIP3    H262522   4.463   5.736  15.918  0.1798 -0.5554 -0.2855
13703TIP3   OH262523   6.117   4.480  11.494 -0.5732 -0.2439 -0.5039
13703TIP3    H162524   6.037   4.428  11.496  0.0226 -1.1492  0.8351
13703TIP3    H262525   6.128   4.512  11.584  0.8319 -0.5552 -0.5407
13704TIP3   OH262526   1.202   2.675  16.332 -0.6404  0.0401  0.5668
13704TIP3    H162527   1.283   2.646  16.289  0.3140  1.5226  1.2656
13704TIP3    H262528   1.226   2.680  16.425 -1.3400  1.1413  0.6962
13705TIP3   OH262529   5.545   5.039   2.225  0.2525  0.1983  0.2162
13705TIP3    H162530   5.581   4.994   2.149  0.2567 -0.2438  0.4803
13705TIP3    H262531   5.592   5.123   2.227 -0.9079  0.9440 -1.2399
13706TIP3   OH262532   1.171   1.042  17.262 -0.2154 -0.0665  0.3550
13706TIP3    H162533   1.240   1.004  17.317  0.3525  1.8025  1.0083
13706TIP3    H262534   1.090   1.007  17.299  0.2889 -1.0750  0.5551
13707TIP3   OH262535   4.522   2.829  11.574  0.4960 -0.0536 -0.6172
13707TIP3    H162536   4.487   2.761  11.631 -1.2382  0.6211 -0.8300
13707TIP3    H262537   4.509   2.910  11.622  0.5744  0.3499 -1.2704
13708TIP3   OH262538   5.081   3.308  17.068  0.5055  0.6689  0.4557
13708TIP3    H162539   5.035   3.353  17.139 -0.3862  0.7179 -0.1391
13708TIP3    H262540   5.162   3.276  17.108  0.0855  0.8225  1.4534
13709TIP3   OH262541   6.451   0.318   4.757 -0.0619 -0.0156 -0.1144
13709TIP3    H162542   6.357   0.311   4.774  0.1015 -0.7863  0.5109
13709TIP3    H262543   6.488   0.351   4.839  0.3352 -0.7120 -0.0017
13710TIP3   OH262544   4.162   3.566   5.205  0.5635 -0.0341  0.2049
13710TIP3    H162545   4.152   3.603   5.293  1.7289 -0.2191  0.4327
13710TIP3    H262546   4.141   3.473   5.216  0.6615 -0.0477  0.2834
13711TIP3   OH262547   0.223   1.561   5.655  0.1343 -0.3706  0.1084
13711TIP3    H162548   0.250   1.575   5.746 -0.8668 -0.4320  0.4302
13711TIP3    H262549   0.150   1.622   5.643  0.6758  0.1052 -0.8685
13712TIP3   OH262550   2.244   2.727  11.677  0.2716 -0.3134  0.0873
13712TIP3    H162551   2.294   2.722  11.758  0.0609  2.5432  0.5236
13712TIP3    H262552   2.278   2.657  11.622  2.8571 -0.1531  1.3708
13713TIP3   OH262553   4.875   1.341  13.397  0.1816 -0.0332 -0.4637
13713TIP3    H162554   4.821   1.267  13.370  0.9050 -0.5821 -0.4207
13713TIP3    H262555   4.956   1.332  13.346  0.5668  0.3171  0.0762
13714TIP3   OH262556   5.896   2.589  11.565  0.1313 -0.5130 -0.1400
13714TIP3    H162557   5.801   2.588  11.550 -0.0048  2.0374  0.0687
13714TIP3    H262558   5.926   2.504  11.532 -2.0394 -0.8335 -1.5407
13715TIP3   OH262559   3.951   1.385  16.717 -0.2515 -0.6008 -0.2489
13715TIP3    H162560   3.969   1.339  16.800 -1.3868 -1.5296 -0.4837
13715TIP3    H262561   4.035   1.389  16.673  0.4172  0.0973  1.0391
13716TIP3   OH262562   5.476   2.159  11.511 -0.3736  0.7522  1.3540
13716TIP3    H162563   5.418   2.132  11.582 -1.2808 -2.4171 -0.4187
13716TIP3    H262564   5.560   2.119  11.531 -1.3334 -2.6001 -0.5220
13717TIP3   OH262565   5.493   5.670   0.622  0.1903 -0.3620  0.5956
13717TIP3    H162566   5.587   5.654   0.620  0.0668 -1.0966  0.3921
13717TIP3    H262567   5.464   5.629   0.704 -0.3506 -2.5697 -0.6139
13718TIP3   OH262568   3.992   4.889  16.501 -0.5399  0.3929 -0.7744
13718TIP3    H162569   3.897   4.896  16.509 -0.4300 -0.0365  1.2958
13718TIP3    H262570   4.026   4.960  16.556  0.3418 -0.8007  0.2569
13719TIP3   OH262571   5.765   6.473   5.197 -0.5274  0.2355  0.0348
13719TIP3    H162572   5.774   6.488   5.103  1.8094 -1.2322 -0.0562
13719TIP3    H262573   5.810   6.547   5.238  2.2357 -1.1701 -0.1957
13720TIP3   OH262574   4.395   3.303   5.480 -0.2226  0.2101 -0.1781
13720TIP3    H162575   4.305   3.305   5.514  0.1897  1.3159  0.9111
13720TIP3    H262576   4.408   3.391   5.444 -0.3916 -0.6904 -2.6503
13721TIP3   OH262577   1.221   5.586   4.787  0.4055  0.2755  0.2561
13721TIP3    H162578   1.262   5.535   4.856 -1.6212 -0.4082  1.0268
13721TIP3    H262579   1.216   5.675   4.823  1.0900  0.3567  0.1763
13722TIP3   OH262580   5.294   5.041  16.277 -0.3268 -0.2568  0.5426
13722TIP3    H162581   5.343   5.122  16.288 -0.9835  0.1802  0.3382
13722TIP3    H262582   5.353   4.982  16.230  0.3204 -0.0609  1.1021
13723TIP3   OH262583   0.958   4.723  15.665  0.2578 -0.2517 -0.3472
13723TIP3    H162584   0.912   4.787  15.611 -1.7477  0.7414  2.3116
13723TIP3    H262585   1.029   4.773  15.706 -0.3660 -0.0899  0.5553
13724TIP3   OH262586   4.576   1.806   3.247 -0.0382  0.8014  0.6314
13724TIP3    H162587   4.538   1.893   3.236 -0.9138  0.3979  0.3309
13724TIP3    H262588   4.631   1.794   3.170 -2.6642 -0.2569 -1.2138
13725TIP3   OH262589   4.277   2.641   0.514 -0.2277 -0.8312  0.1889
13725TIP3    H162590   4.332   2.699   0.568 -0.6661 -0.2127 -0.0133
13725TIP3    H262591   4.307   2.553   0.535  0.3962 -0.5351  0.5727
13726TIP3   OH262592   3.664   5.635  13.535 -0.5234 -0.3450  0.0215
13726TIP3    H162593   3.598   5.609  13.471  0.5740 -2.6199 -0.3047
13726TIP3    H262594   3.747   5.603  13.498  0.7714  2.1640  0.5276
13727TIP3   OH262595   2.016   4.964   4.716  0.0916 -0.3002  0.7147
13727TIP3    H162596   2.080   5.033   4.732  0.4569 -0.7492  1.2216
13727TIP3    H262597   2.031   4.937   4.625 -2.1657  2.4487 -0.6428
13728TIP3   OH262598   1.072   6.746   2.594 -0.3347 -0.0469  0.4321
13728TIP3    H162599   1.078   6.819   2.656  0.9430  0.1548  0.1068
13728TIP3    H262600   0.979   6.724   2.592 -0.3401 -0.6725  3.1037
13729TIP3   OH262601   0.358   0.712  16.908 -0.1231 -0.1877  0.1629
13729TIP3    H162602   0.348   0.644  16.975 -1.4727  1.0752  1.3219
13729TIP3    H262603   0.303   0.784  16.939 -0.9279  0.3981 -2.4220
13730TIP3   OH262604   5.369   5.793   4.153  0.6327 -0.2822 -0.2891
13730TIP3    H162605   5.459   5.761   4.149  1.6409  2.4123 -1.8309
13730TIP3    H262606   5.368   5.850   4.231  0.3607 -0.0609 -0.4525
13731TIP3   OH262607   1.041   2.250   0.404 -0.4431 -0.2257  0.8311
13731TIP3    H162608   1.062   2.161   0.378 -0.6994 -0.1917  0.4994
13731TIP3    H262609   0.949   2.245   0.433 -0.5809  0.0076  0.4372
13732TIP3   OH262610   2.934   5.792   1.573 -0.4518 -0.1275  0.3815
13732TIP3    H162611   2.902   5.808   1.484  3.7901  2.0530 -0.9862
13732TIP3    H262612   2.970   5.704   1.570 -0.5054 -0.1384  0.0397
13733TIP3   OH262613   0.763   5.063   0.186 -0.6615 -0.0199 -0.2327
13733TIP3    H162614   0.851   5.098   0.196 -0.8029  0.0191  0.9387
13733TIP3    H262615   0.718   5.126   0.129 -0.0576  0.1566 -0.5218
13734TIP3   OH262616   0.976   0.830  15.932 -0.2831 -0.4858  0.5121
13734TIP3    H162617   1.011   0.741  15.937  1.3353  0.0941  0.3579
13734TIP3    H262618   0.884   0.820  15.908 -0.4404 -2.1530  1.6764
13735TIP3   OH262619   1.780   3.830   1.791  0.2859  0.5397  0.1091
13735TIP3    H162620   1.739   3.752   1.827 -1.2767  0.8627 -0.8640
13735TIP3    H262621   1.844   3.797   1.728 -0.4434  0.0208 -0.3797
13736TIP3   OH262622   0.064   3.262  15.598  0.4431  0.6454  0.0546
13736TIP3    H162623   0.061   3.179  15.550  0.0067  0.2102  0.8090
13736TIP3    H262624   0.003   3.250  15.671  1.4280  1.1162  0.9865
13737TIP3   OH262625   2.988   0.918   0.327 -0.4451 -0.1476  0.2892
13737TIP3    H162626   2.920   0.850   0.319 -1.1065  0.6266 -1.0161
13737TIP3    H262627   3.068   0.875   0.297 -1.2476  0.1720 -2.6415
13738TIP3   OH262628   5.336   1.261   3.979  0.3159  0.5663  0.2737
13738TIP3    H162629   5.366   1.201   3.912 -0.0673  1.1281 -0.4116
13738TIP3    H262630   5.298   1.205   4.047 -0.2839  0.0498 -0.4833
13739TIP3   OH262631   1.966   4.070   1.801  0.0148 -0.6402 -0.1569
13739TIP3    H162632   1.893   4.051   1.742  1.6187 -1.2172 -2.0450
13739TIP3    H262633   2.024   3.995   1.793  1.7217  0.6148 -0.1937
13740TIP3   OH262634   4.462   5.002   4.305  0.8560 -0.6354  0.0256
13740TIP3    H162635   4.370   5.006   4.280  1.1961 -1.9300 -1.5751
13740TIP3    H262636   4.469   4.926   4.362  0.8463 -0.2445  0.5492
13741TIP3   OH262637   1.870   1.531   1.096  0.1256 -0.5858 -0.6183
13741TIP3    H162638   1.796   1.540   1.156 -0.5267 -1.1965 -1.3246
13741TIP3    H262639   1.920   1.457   1.131  1.0403  0.5314  0.5080
13742TIP3   OH262640   4.463   6.393   4.951 -0.0005 -0.3004 -0.3109
13742TIP3    H162641   4.508   6.309   4.954  0.6150 -0.0073 -0.8918
13742TIP3    H262642   4.530   6.457   4.976  0.3127  0.2791 -2.3936
13743TIP3   OH262643   6.082   6.099   1.393  0.1286 -0.1704  0.2136
13743TIP3    H162644   6.036   6.065   1.317  1.1102 -0.6854 -0.1635
13743TIP3    H262645   6.173   6.072   1.381  0.4481  0.4043  1.1823
13744TIP3   OH262646   3.328   4.656  17.203  0.2551 -0.2848  0.4183
13744TIP3    H162647   3.395   4.722  17.219 -0.8902  1.3547 -1.2601
13744TIP3    H262648   3.314   4.658  17.108 -0.8053 -1.9637  0.5033
13745TIP3   OH262649   3.617   6.018  12.295 -0.5719 -0.6214 -0.1239
13745TIP3    H162650   3.525   5.999  12.314 -0.0445 -2.8126  0.5683
13745TIP3    H262651   3.663   5.940  12.325  1.4247  0.0342 -1.3507
13746TIP3   OH262652   2.624   1.845  16.937  0.1671  0.2215  0.0984
13746TIP3    H162653   2.555   1.780  16.954 -1.6996  2.5524  2.2527
13746TIP3    H262654   2.591   1.895  16.862 -1.6381  2.5764  2.3064
13747TIP3   OH262655   6.033   2.353  13.687  0.5385 -0.2834  0.5515
13747TIP3    H162656   6.029   2.372  13.594  0.1065 -0.6985  0.4816
13747TIP3    H262657   6.012   2.437  13.729 -0.4221 -0.3684  0.2576
13748TIP3   OH262658   0.996   2.721  12.265  0.5229  0.5455 -0.2368
13748TIP3    H162659   1.013   2.809  12.232 -0.1277  0.6925 -0.2023
13748TIP3    H262660   0.905   2.704  12.241  0.3908  0.1999  0.4701
13749TIP3   OH262661   2.744   5.105  10.709  0.2801  0.1632 -0.4010
13749TIP3    H162662   2.772   5.050  10.635  2.6130  0.3142  0.3109
13749TIP3    H262663   2.738   5.193  10.672  0.1647  0.0405 -0.6823
13750TIP3   OH262664   3.172   3.527  16.185 -0.0267 -0.0566 -0.4659
13750TIP3    H162665   3.252   3.520  16.132  0.8406  1.1994  0.6130
13750TIP3    H262666   3.202   3.566  16.267 -1.9121  1.3228 -0.3856
13751TIP3   OH262667   2.242   2.416  16.129  0.4201  0.1532  0.6117
13751TIP3    H162668   2.222   2.498  16.085 -0.2203  0.2265  1.0137
13751TIP3    H262669   2.173   2.356  16.100  0.0828  0.1579  1.3744
13752TIP3   OH262670   2.840   2.547  15.333  0.1344 -0.8067 -0.7949
13752TIP3    H162671   2.751   2.546  15.367  0.6054  1.8117  0.7988
13752TIP3    H262672   2.888   2.486  15.389 -0.3562 -1.1140 -0.7071
13753TIP3   OH262673   0.810   5.740  16.755  0.2855  0.7268  0.2816
13753TIP3    H162674   0.776   5.687  16.684  2.2384 -1.3701  0.7918
13753TIP3    H262675   0.822   5.679  16.828  3.1737  1.6573  0.7353
13754TIP3   OH262676   0.933   5.755  14.014  0.3102 -0.4723  0.2898
13754TIP3    H162677   0.948   5.706  14.095  1.9422 -0.9627 -0.2725
13754TIP3    H262678   0.923   5.688  13.947 -1.7353 -0.0872  0.1491
13755TIP3   OH262679   6.059   0.918   3.762 -0.0975 -0.1218  0.3496
13755TIP3    H162680   5.976   0.932   3.716  0.0662 -0.9220 -0.2204
13755TIP3    H262681   6.104   1.002   3.757  0.6500 -0.5858 -2.4779
13756TIP3   OH262682   6.304   2.227   4.040  0.3257 -0.3169  0.9918
13756TIP3    H162683   6.355   2.174   3.979  0.5568  1.3835 -0.3984
13756TIP3    H262684   6.215   2.226   4.005  0.2088 -0.2944  1.2897
13757TIP3   OH262685   1.078   3.511  12.737  0.6055  0.2891  0.3865
13757TIP3    H162686   1.066   3.430  12.687  1.8146  0.6333 -0.5307
13757TIP3    H262687   1.163   3.500  12.779  1.7377  1.8221 -1.3311
13758TIP3   OH262688   2.519   4.730   3.052  0.4878 -0.2215  0.9746
13758TIP3    H162689   2.592   4.675   3.024  0.1583 -0.5427  0.7197
13758TIP3    H262690   2.458   4.727   2.978  0.2805  0.1529  1.1288
13759TIP3   OH262691   2.412   0.184   1.706 -0.4359  0.3469 -0.3594
13759TIP3    H162692   2.497   0.218   1.733 -1.0899  1.9323 -0.1906
13759TIP3    H262693   2.382   0.132   1.781  1.2949 -2.1262 -1.2434
13760TIP3   OH262694   3.542   6.507   0.801 -0.1932 -0.6050 -0.2670
13760TIP3    H162695   3.578   6.428   0.761 -2.5447 -0.3735 -3.1874
13760TIP3    H262696   3.448   6.491   0.803 -0.5323  1.3183  1.0133
13761TIP3   OH262697   2.970   1.182  13.169  0.4362  0.5591 -0.0532
13761TIP3    H162698   3.008   1.152  13.251 -0.4431 -3.3545 -0.8652
13761TIP3    H262699   2.899   1.240  13.196  0.4589 -0.2432  1.9398
13762TIP3   OH262700   5.974   5.006   0.242 -0.3977 -0.3695  0.0429
13762TIP3    H162701   5.986   5.083   0.297 -1.8967 -0.5767  0.7190
13762TIP3    H262702   5.943   5.041   0.158  0.4291 -0.1523 -0.1800
13763TIP3   OH262703   3.523   0.927  14.639 -0.2253  0.3593 -0.3272
13763TIP3    H162704   3.435   0.935  14.675 -0.6651 -0.9100 -1.0631
13763TIP3    H262705   3.510   0.912  14.546  0.6427 -2.0970 -0.1224
13764TIP3   OH262706   3.743   2.033   3.611  0.1839  0.5446  0.0820
13764TIP3    H162707   3.835   2.059   3.615  0.1167  1.7582 -3.5284
13764TIP3    H262708   3.701   2.083   3.682  2.0850  0.6907  1.1759
13765TIP3   OH262709   0.491   6.481  14.210 -0.3292  0.1691  0.7720
13765TIP3    H162710   0.535   6.396  14.215  0.8353  0.7103  0.2398
13765TIP3    H262711   0.477   6.495  14.116  0.9643  1.2535  0.7100
13766TIP3   OH262712   3.243   4.910  13.659 -0.2316 -0.0588  0.3785
13766TIP3    H162713   3.242   4.858  13.740  0.1327  0.5615  0.7905
13766TIP3    H262714   3.248   5.001  13.689  0.3976  0.1585 -0.3490
13767TIP3   OH262715   6.376   3.898  11.476  0.3522 -0.1135  0.2326
13767TIP3    H162716   6.327   3.970  11.436  0.7716  0.8421  1.4053
13767TIP3    H262717   6.449   3.882  11.416  1.1499  1.5091  0.7233
13768TIP3   OH262718   3.808   0.222  16.270  0.0145 -0.1637 -0.0365
13768TIP3    H162719   3.837   0.250  16.358  1.3688 -0.1698 -0.4516
13768TIP3    H262720   3.773   0.134  16.283 -0.8948  0.2949  0.6888
13769TIP3   OH262721   2.340   0.895   0.669 -0.3783 -1.0887 -0.1641
13769TIP3    H162722   2.324   0.965   0.733  2.4271 -1.3205  0.9721
13769TIP3    H262723   2.335   0.938   0.584  0.1883  0.2883  0.4662
13770TIP3   OH262724   5.747   1.914   2.291 -0.1992  0.4483  0.0468
13770TIP3    H162725   5.809   1.929   2.362 -1.5918  1.7071  1.0518
13770TIP3    H262726   5.802   1.889   2.216  1.5570  2.0185  0.7382
13771TIP3   OH262727   3.102   5.126  15.604 -0.2961  0.0882 -0.2524
13771TIP3    H162728   3.154   5.164  15.675 -1.5454  0.0873  0.6899
13771TIP3    H262729   3.138   5.164  15.525  1.0099  0.2414  0.3846
13772TIP3   OH262730   6.714   3.016   2.094 -0.2614  0.7382  0.6570
13772TIP3    H162731   6.684   2.967   2.017  0.5301  0.3656  0.5662
13772TIP3    H262732   6.638   3.020   2.151 -0.9736  1.3687 -0.3169
13773TIP3   OH262733   3.534   2.917  11.776 -0.0328 -0.2761  0.1734
13773TIP3    H162734   3.612   2.892  11.826  0.8294  0.9031 -0.5433
13773TIP3    H262735   3.491   2.982  11.831 -0.2861 -0.6089  0.3732
13774TIP3   OH262736   5.558   2.168   0.496 -0.4993  0.7550  0.3510
13774TIP3    H162737   5.602   2.236   0.446 -1.7950  0.4167 -1.3476
13774TIP3    H262738   5.626   2.101   0.511 -0.2624  0.4640 -1.7658
13775TIP3   OH262739   0.773   1.327  17.041  0.0259 -0.8400 -0.3836
13775TIP3    H162740   0.741   1.338  16.951 -0.3946  1.4044 -0.0173
13775TIP3    H262741   0.746   1.239  17.066 -3.0435 -0.2410 -1.2345
13776TIP3   OH262742   3.070   5.938  16.474  0.0063 -0.0479 -0.2635
13776TIP3    H162743   3.125   5.870  16.512 -1.6777 -0.7380  1.0964
13776TIP3    H262744   3.015   5.968  16.547 -0.6123  1.4274 -1.2825
13777TIP3   OH262745   2.113   3.936  13.943  0.2024  0.3249  0.1490
13777TIP3    H162746   2.116   3.892  13.858 -0.3391 -1.0246  0.7916
13777TIP3    H262747   2.044   3.889  13.991 -0.3597  1.8667  0.9014
13778TIP3   OH262748   0.529   3.568   6.000  0.1185  1.2963  0.1847
13778TIP3    H162749   0.615   3.571   6.043  0.6990  2.5006 -0.9473
13778TIP3    H262750   0.543   3.514   5.923 -0.0776  1.6493 -0.1033
13779TIP3   OH262751   5.589   1.183   5.729 -0.1773 -0.2090 -0.0092
13779TIP3    H162752   5.580   1.210   5.821 -1.1957 -1.3693  0.2585
13779TIP3    H262753   5.682   1.165   5.719 -0.0073  0.1873  0.7202
13780TIP3   OH262754   0.449   5.851   2.150 -0.4489  0.1352 -0.1669
13780TIP3    H162755   0.393   5.923   2.179 -0.4371  0.2999 -0.5498
13780TIP3    H262756   0.510   5.837   2.223 -0.1092  0.8624 -0.3093
13781TIP3   OH262757   5.496   3.077   3.975 -0.1025 -0.0356 -0.5157
13781TIP3    H162758   5.574   3.024   3.963 -1.4269 -1.6796 -2.5350
13781TIP3    H262759   5.490   3.090   4.070  2.5206  0.0828 -0.3050
13782TIP3   OH262760   6.642   0.256   1.864  0.0459  0.3931 -0.0679
13782TIP3    H162761   6.650   0.236   1.771 -1.2203  1.6188 -0.4644
13782TIP3    H262762   6.689   0.338   1.876  0.9868 -0.2178  0.5761
13783TIP3   OH262763   1.815   0.310   1.510  0.3589 -0.3882  0.0125
13783TIP3    H162764   1.734   0.260   1.522 -1.1407  1.6013 -1.2637
13783TIP3    H262765   1.884   0.247   1.531 -1.4591 -2.3950  0.4193
13784TIP3   OH262766   5.979   5.970   1.163 -0.2492 -0.2521  0.1550
13784TIP3    H162767   5.917   5.991   1.093 -0.3092 -0.5528  0.1182
13784TIP3    H262768   6.063   6.005   1.131 -0.4527  0.4189  0.3365
13785TIP3   OH262769   1.435   6.491  13.055  0.2895  0.3250 -0.3063
13785TIP3    H162770   1.459   6.550  13.126  0.8829 -0.6404  0.3144
13785TIP3    H262771   1.515   6.481  13.003  0.7400 -1.3019  0.6136
13786TIP3   OH262772   0.830   2.746   3.368 -0.5141 -0.0015  0.2653
13786TIP3    H162773   0.888   2.813   3.403 -0.6726  0.3914 -0.2101
13786TIP3    H262774   0.870   2.663   3.395 -0.0700  0.2759  0.4699
13787TIP3   OH262775   0.835   1.671  12.095 -0.2281 -0.7634  0.4793
13787TIP3    H162776   0.832   1.762  12.124 -0.7636 -0.8675  0.7570
13787TIP3    H262777   0.911   1.634  12.139 -1.6329 -1.2213  2.6494
13788TIP3   OH262778   5.764   5.866  16.109  0.3182  0.0255  0.3856
13788TIP3    H162779   5.717   5.786  16.090 -2.0336  1.6533 -1.1912
13788TIP3    H262780   5.749   5.882  16.202  0.0850 -0.8761  0.5060
13789TIP3   OH262781   5.546   3.611  15.099 -0.5551 -0.0188 -0.4867
13789TIP3    H162782   5.505   3.674  15.041  0.3044  0.4877 -0.5669
13789TIP3    H262783   5.640   3.633  15.096 -0.3571 -0.7203  0.1821
13790TIP3   OH262784   3.901   3.001   5.815  0.2136  0.2495  0.5985
13790TIP3    H162785   3.969   3.063   5.842  1.7735  0.2157 -2.7115
13790TIP3    H262786   3.822   3.054   5.811  0.9528  1.3826  0.4227
13791TIP3   OH262787   1.438   4.787  13.836 -0.1778  0.0760  0.2844
13791TIP3    H162788   1.526   4.782  13.873  0.2580  0.4161 -0.6745
13791TIP3    H262789   1.399   4.863  13.878 -0.1554 -0.2804  0.9789
13792TIP3   OH262790   3.818   4.268  15.350  0.5138  0.2653  0.6003
13792TIP3    H162791   3.816   4.341  15.412  0.2808 -0.6123  1.6631
13792TIP3    H262792   3.843   4.193  15.403  0.5508 -0.4710 -0.4367
13793TIP3   OH262793   6.614   0.908   1.300 -0.0951  0.0285 -0.6442
13793TIP3    H162794   6.688   0.849   1.313  0.8399  1.5056  1.5195
13793TIP3    H262795   6.630   0.950   1.216  0.5378 -0.9743 -1.0375
13794TIP3   OH262796   2.056   3.831  11.895 -0.4226  0.0879  0.2760
13794TIP3    H162797   2.046   3.926  11.905 -2.6799  0.0017 -0.6567
13794TIP3    H262798   2.095   3.820  11.808  0.6911  0.1619  0.7500
13795TIP3   OH262799   1.682   2.762  13.046 -0.4917  0.4717 -0.2026
13795TIP3    H162800   1.681   2.846  13.091  0.5095 -0.4071  1.5191
13795TIP3    H262801   1.693   2.697  13.115 -0.9625 -1.0752 -1.5201
13796TIP3   OH262802   2.555   6.362   4.882 -0.0191 -0.3869 -0.0266
13796TIP3    H162803   2.535   6.454   4.900 -0.9388 -0.9355  2.0408
13796TIP3    H262804   2.486   6.333   4.823  1.0409  0.5526 -1.8087
13797TIP3   OH262805   2.244   4.077  14.777  0.3158 -0.4321  0.0920
13797TIP3    H162806   2.214   4.062  14.687 -1.8570 -1.8564  0.9487
13797TIP3    H262807   2.270   3.990  14.808  1.2550  0.0830  0.7854
13798TIP3   OH262808   5.859   3.711   2.769  0.1226  0.0911  0.0487
13798TIP3    H162809   5.937   3.709   2.714 -0.0062 -1.0814 -0.1220
13798TIP3    H262810   5.892   3.718   2.858  0.4337 -0.4564 -0.0181
13799TIP3   OH262811   0.303   1.777   1.164  0.2274  0.1568 -0.1712
13799TIP3    H162812   0.286   1.746   1.253  0.3225 -0.8690 -0.4990
13799TIP3    H262813   0.335   1.700   1.117 -1.4141  0.2351 -1.5353
13800TIP3   OH262814   1.199   4.246  13.547 -0.6416 -0.0542 -0.7901
13800TIP3    H162815   1.262   4.279  13.611 -1.5729  0.2509 -0.0073
13800TIP3    H262816   1.175   4.160  13.580  0.2001 -0.6552 -1.6995
13801TIP3   OH262817   4.098   5.931  15.382 -0.4014  0.2867  0.4601
13801TIP3    H162818   4.036   5.937  15.455 -0.1381 -0.9184  0.8065
13801TIP3    H262819   4.043   5.928  15.304 -0.7123  0.8513  0.6497
13802TIP3   OH262820   2.205   3.588   0.084  0.4747  0.3711 -0.2948
13802TIP3    H162821   2.199   3.604   0.179  0.7540 -0.8330 -0.0507
13802TIP3    H262822   2.294   3.612   0.061  1.4566 -2.2095  0.4027
13803TIP3   OH262823   5.838   6.691  14.189 -0.0961 -1.2228 -0.5387
13803TIP3    H162824   5.752   6.682  14.232  0.7006 -0.3679  1.3654
13803TIP3    H262825   5.871   6.776  14.219  2.3604 -2.4909  0.6391
13804TIP3   OH262826   5.040   1.349  11.968  0.1554 -0.3366  0.0187
13804TIP3    H162827   5.065   1.356  12.060 -1.4339  1.3608  0.4014
13804TIP3    H262828   5.112   1.389  11.919 -0.0967  1.0749  0.7606
13805TIP3   OH262829   2.309   5.716   6.482  0.5905  0.2571  0.8378
13805TIP3    H162830   2.341   5.663   6.555  1.1489  0.4554  0.7435
13805TIP3    H262831   2.386   5.731   6.427 -0.2184 -1.7080 -0.9593
13806TIP3   OH262832   4.304   6.211   1.073  0.8493 -0.2281  0.4411
13806TIP3    H162833   4.336   6.222   0.984  0.9333 -1.6450  0.2808
13806TIP3    H262834   4.223   6.262   1.076  0.3338 -0.9518 -0.7411
13807TIP3   OH262835   2.044   3.003  16.919  0.1408  0.0340 -0.5334
13807TIP3    H162836   2.014   2.927  16.869 -0.1776 -0.2080  0.0211
13807TIP3    H262837   1.987   3.005  16.996  1.1004 -0.0194  0.1882
13808TIP3   OH262838   2.821   2.628  10.770  0.5830 -0.4608  0.0973
13808TIP3    H162839   2.863   2.550  10.808  1.7295 -0.2655 -0.7512
13808TIP3    H262840   2.777   2.595  10.692  0.5087 -0.3684  0.1007
13809TIP3   OH262841   5.710   4.205   4.390 -0.0567 -0.1742  0.4777
13809TIP3    H162842   5.696   4.299   4.376 -0.2128 -0.0918  1.1307
13809TIP3    H262843   5.655   4.184   4.466  1.8650 -0.2685  1.8992
13810TIP3   OH262844   3.221   0.528   1.450 -0.3957 -0.5031 -0.2358
13810TIP3    H162845   3.149   0.564   1.502  0.0333 -0.1191  0.0987
13810TIP3    H262846   3.268   0.605   1.418 -0.5906 -0.7376 -1.1045
13811TIP3   OH262847   0.917   6.253   6.291 -0.0730 -0.0299  0.0012
13811TIP3    H162848   0.916   6.331   6.346 -0.8712  1.7572 -2.3700
13811TIP3    H262849   0.842   6.202   6.321 -0.2435  0.6740  0.8337
13812TIP3   OH262850   0.821   5.890  16.157  0.7087 -0.1682 -0.0596
13812TIP3    H162851   0.873   5.927  16.228 -0.4621 -1.6091  1.6535
13812TIP3    H262852   0.823   5.956  16.088  2.6111  0.9172  0.9648
13813TIP3   OH262853   4.761   5.592  16.026 -0.0439  0.1365 -0.2685
13813TIP3    H162854   4.770   5.499  16.004 -0.1760  0.1320 -0.3085
13813TIP3    H262855   4.696   5.624  15.963  1.1398  0.6104 -1.2919
13814TIP3   OH262856   1.650   4.457   3.078 -0.7015 -0.1132  0.5382
13814TIP3    H162857   1.668   4.457   2.984 -0.4972  0.0511  0.5761
13814TIP3    H262858   1.560   4.424   3.085 -0.4790 -0.7864  0.3328
13815TIP3   OH262859   1.300   6.560   3.047  0.3709  0.5324 -0.3406
13815TIP3    H162860   1.278   6.653   3.046 -1.3736  0.1787 -2.4390
13815TIP3    H262861   1.342   6.543   2.963  1.5432 -0.4319  0.3958
13816TIP3   OH262862   0.295   0.271  14.162  0.8649  0.1494 -0.3998
13816TIP3    H162863   0.323   0.342  14.105 -0.8687  1.5787  0.4248
13816TIP3    H262864   0.201   0.285  14.173  1.0164 -0.4363  2.2417
13817TIP3   OH262865   3.302   5.104  17.172  0.0867  0.4504  0.0530
13817TIP3    H162866   3.378   5.047  17.184 -0.6133 -0.5094  0.1482
13817TIP3    H262867   3.269   5.119  17.261 -1.2310 -1.1703 -0.1028
13818TIP3   OH262868   5.637   5.194  13.718 -0.0560 -0.8164 -0.2813
13818TIP3    H162869   5.687   5.115  13.700  0.0126 -0.9615  0.5078
13818TIP3    H262870   5.694   5.247  13.773 -0.0625 -0.1652 -0.8810
13819TIP3   OH262871   4.009   2.077  16.882  0.2192  0.6171 -0.1063
13819TIP3    H162872   3.996   2.160  16.837  2.2768  1.2898  0.4546
13819TIP3    H262873   4.061   2.098  16.959 -0.2174 -1.0336  0.7046
13820TIP3   OH262874   1.322   4.689   2.679 -0.5893  0.0739 -0.3610
13820TIP3    H162875   1.386   4.739   2.628  0.5188 -2.1817 -1.3215
13820TIP3    H262876   1.243   4.690   2.626 -1.1599  2.2239  0.4618
13821TIP3   OH262877   1.454   0.477  13.047  0.0540  0.7211 -0.8923
13821TIP3    H162878   1.429   0.480  13.140 -0.2091  0.4259 -0.9506
13821TIP3    H262879   1.545   0.506  13.046  0.7019 -1.0945 -0.2803
13822TIP3   OH262880   1.902   1.072  15.633 -0.4999  0.6471 -0.7332
13822TIP3    H162881   1.888   1.126  15.556  1.0093 -0.0089 -1.5146
13822TIP3    H262882   1.955   0.999  15.602 -1.6717 -0.8075  0.4820
13823TIP3   OH262883   6.496   1.728   1.478  0.0103  0.1207  0.2720
13823TIP3    H162884   6.428   1.687   1.424  0.2041 -0.6303  0.5794
13823TIP3    H262885   6.572   1.670   1.468  0.9750  1.5238 -0.9397
13824TIP3   OH262886   1.634   4.251   5.156  0.1022  0.2262 -0.7506
13824TIP3    H162887   1.559   4.300   5.191  0.8239  1.4622 -0.8708
13824TIP3    H262888   1.675   4.311   5.094  1.1262 -0.4811 -0.7827
13825TIP3   OH262889   5.007   5.171   5.452  0.1205  0.1390 -0.0132
13825TIP3    H162890   5.073   5.149   5.518 -0.1827 -1.7460 -0.2978
13825TIP3    H262891   4.965   5.250   5.486  1.2485  0.3007  1.0903
13826TIP3   OH262892   5.957   6.469  12.971  0.2392 -0.2928  0.0582
13826TIP3    H162893   5.961   6.444  13.063 -1.7842  0.3771  0.3761
13826TIP3    H262894   6.045   6.502  12.952  1.0642 -1.5854  1.3737
13827TIP3   OH262895   6.183   4.267   5.534 -0.8465  0.1976 -0.2160
13827TIP3    H162896   6.278   4.262   5.537 -0.8099  1.1978  0.5990
13827TIP3    H262897   6.158   4.210   5.460  0.3214 -0.6217  0.0080
13828TIP3   OH262898   1.601   1.207   0.953  0.1522  0.2166  0.5792
13828TIP3    H162899   1.598   1.246   1.040 -0.3179 -0.5154  0.9058
13828TIP3    H262900   1.694   1.201   0.932  0.2826  3.7552 -0.5540
13829TIP3   OH262901   1.807   0.539  13.903 -0.3996  0.0312 -0.6358
13829TIP3    H162902   1.867   0.502  13.968 -1.8283  0.0731  0.7570
13829TIP3    H262903   1.837   0.629  13.892 -0.3090  0.1038  0.1745
13830TIP3   OH262904   2.703   1.718  11.154 -0.4686 -0.4031  0.1165
13830TIP3    H162905   2.783   1.666  11.154  0.4628  0.9523 -0.5233
13830TIP3    H262906   2.659   1.696  11.072 -1.4925 -2.1564  1.0730
13831TIP3   OH262907   5.708   4.258  10.822  0.1494 -0.0800 -0.5478
13831TIP3    H162908   5.751   4.200  10.758  1.8241  0.6860 -0.1963
13831TIP3    H262909   5.747   4.234  10.906  0.2991  1.0027 -0.2924
13832TIP3   OH262910   4.740   2.872   2.486 -0.4574  0.2633 -0.2852
13832TIP3    H162911   4.658   2.832   2.458 -0.2698 -0.3091 -0.0206
13832TIP3    H262912   4.786   2.892   2.404 -0.9857  0.8678 -0.4433
13833TIP3   OH262913   6.504   1.839  16.003 -0.2253 -1.0422 -0.5696
13833TIP3    H162914   6.544   1.834  15.916 -2.2541  0.0612 -1.6368
13833TIP3    H262915   6.552   1.909  16.048 -1.5874  1.1136 -2.2666
13834TIP3   OH262916   5.297   0.387  16.552  0.6380 -0.7412  0.0901
13834TIP3    H162917   5.388   0.409  16.533  0.2635  0.5550 -0.3029
13834TIP3    H262918   5.248   0.417  16.474 -0.2184 -0.6536  0.6470
13835TIP3   OH262919   6.606   5.878  14.601 -0.5138  0.0449  0.5454
13835TIP3    H162920   6.617   5.897  14.694 -0.4722 -2.4494  1.1318
13835TIP3    H262921   6.531   5.818  14.598 -0.7006  0.3033 -1.0885
13836TIP3   OH262922   4.822   5.088   0.738 -0.1095 -0.2570 -0.2507
13836TIP3    H162923   4.886   5.025   0.704  0.0390 -0.2580  0.0301
13836TIP3    H262924   4.838   5.167   0.685  2.0831  0.7035  1.6318
13837TIP3   OH262925   1.482   2.733   3.475 -0.7730 -0.9231  0.2063
13837TIP3    H162926   1.529   2.672   3.532  1.9478 -0.8814 -1.7872
13837TIP3    H262927   1.500   2.819   3.512  0.6662 -0.9214 -0.4440
13838TIP3   OH262928   0.297   3.565  13.891  0.4784 -0.2418  0.5316
13838TIP3    H162929   0.277   3.573  13.798  1.2353  2.2030  0.5142
13838TIP3    H262930   0.214   3.584  13.935  0.3836 -0.2981  0.3771
13839TIP3   OH262931   6.730   2.020   1.273  0.1476  0.1556  0.1615
13839TIP3    H162932   6.703   2.076   1.346 -0.8778 -0.1713  0.0463
13839TIP3    H262933   6.795   2.072   1.226  2.5290 -0.4773  2.5420
13840TIP3   OH262934   2.880   2.287  10.725  0.5491  0.5266  0.3472
13840TIP3    H162935   2.825   2.259  10.651  0.1549 -1.4965  1.3183
13840TIP3    H262936   2.970   2.281  10.692  0.3343  0.8346 -0.3166
13841TIP3   OH262937   2.920   4.937   3.788 -0.2240 -0.1263 -0.7700
13841TIP3    H162938   2.825   4.940   3.779 -0.1855 -1.4095 -1.8418
13841TIP3    H262939   2.944   5.027   3.813 -1.6707  0.3218 -0.8957
13842TIP3   OH262940   2.741   3.912   0.360  0.3453 -0.2568  0.1720
13842TIP3    H162941   2.733   3.825   0.398 -1.0367  0.2904  1.2159
13842TIP3    H262942   2.835   3.929   0.359  0.4972 -0.7978  2.2169
13843TIP3   OH262943   1.174   0.622   5.353  0.5759 -0.0814 -0.3055
13843TIP3    H162944   1.266   0.640   5.332  0.5830  1.0499  0.6169
13843TIP3    H262945   1.155   0.679   5.427 -0.8177 -0.4602 -0.3553
13844TIP3   OH262946   2.269   6.326  15.713 -0.0837  0.1135 -0.3619
13844TIP3    H162947   2.252   6.278  15.794  1.2808  1.9211  1.1042
13844TIP3    H262948   2.222   6.409  15.724  0.4299  0.5408 -1.2589
13845TIP3   OH262949   0.563   3.615  14.406  0.0675 -0.3370 -0.4046
13845TIP3    H162950   0.592   3.677  14.473 -0.3637 -0.1691 -0.3710
13845TIP3    H262951   0.595   3.530  14.437  1.8724  0.0158 -1.1375
13846TIP3   OH262952   5.486   4.750  14.505  0.0161 -0.2080  0.6305
13846TIP3    H162953   5.442   4.728  14.587 -2.2453  0.1128 -0.4383
13846TIP3    H262954   5.418   4.786  14.449  1.5901  0.0336 -1.2528
13847TIP3   OH262955   2.635   2.290  12.077  0.4660 -0.0275 -0.4493
13847TIP3    H162956   2.586   2.266  12.155 -0.4300 -0.2672 -1.0707
13847TIP3    H262957   2.712   2.234  12.078 -0.5209 -1.4195 -0.7595
13848TIP3   OH262958   3.430   5.482   1.497 -0.7002  0.1481  0.0952
13848TIP3    H162959   3.421   5.510   1.406 -1.0844 -1.2584 -0.3306
13848TIP3    H262960   3.491   5.409   1.494  0.4080  1.0002  1.1838
13849TIP3   OH262961   0.534   3.552  15.129  0.0847 -0.4050  0.1906
13849TIP3    H162962   0.606   3.529  15.187 -0.5786  0.2392  1.3053
13849TIP3    H262963   0.548   3.644  15.107  1.6138 -1.1956 -2.6260
13850TIP3   OH262964   1.021   0.257   1.193 -0.0619  0.3747  0.5263
13850TIP3    H162965   1.042   0.168   1.223 -1.6810  0.0922  0.9146
13850TIP3    H262966   1.086   0.312   1.236  0.8975 -0.6024  0.3736
13851TIP3   OH262967   2.455   1.540   2.116 -0.7557  0.1164  0.0785
13851TIP3    H162968   2.488   1.486   2.188  1.4642  0.3916 -0.6545
13851TIP3    H262969   2.482   1.629   2.138 -2.5137  0.6686  0.2226
13852TIP3   OH262970   2.108   4.068   3.182  0.1112 -0.1890 -0.1524
13852TIP3    H162971   2.013   4.068   3.170 -0.1024 -0.5486  1.3104
13852TIP3    H262972   2.130   4.159   3.202  0.0910 -0.0934 -0.5558
13853TIP3   OH262973   4.904   5.220  11.495  0.7772 -0.2922 -0.0585
13853TIP3    H162974   4.839   5.284  11.468  2.1897  1.5065  0.6158
13853TIP3    H262975   4.988   5.263  11.479  1.7885 -2.0488  0.2877
13854TIP3   OH262976   1.616   2.439   3.485  0.3163  0.5054  0.2887
13854TIP3    H162977   1.566   2.400   3.557  0.1173  0.1444 -0.0483
13854TIP3    H262978   1.707   2.413   3.502  0.3668  0.9555  0.7607
13855TIP3   OH262979   1.356   1.056  14.364 -0.9782 -0.4259 -0.2128
13855TIP3    H162980   1.413   0.981  14.381 -0.6952 -0.2664 -0.4460
13855TIP3    H262981   1.319   1.078  14.449 -0.6906 -0.5315 -0.0583
13856TIP3   OH262982   0.415   2.605   3.146  0.2579 -0.3595 -0.2846
13856TIP3    H162983   0.426   2.513   3.168  1.4958 -0.6043 -1.7557
13856TIP3    H262984   0.329   2.628   3.182  1.5077 -0.9746  3.5838
13857TIP3   OH262985   4.711   6.377  11.848 -0.1790 -0.1058 -0.6962
13857TIP3    H162986   4.647   6.444  11.825 -1.7122 -1.4891 -0.5690
13857TIP3    H262987   4.751   6.409  11.929  0.6573  1.6464 -1.7232
13858TIP3   OH262988   5.327   0.848   0.684 -0.0676  0.7778  0.2002
13858TIP3    H162989   5.411   0.824   0.723 -0.8234 -0.4604  1.1415
13858TIP3    H262990   5.340   0.936   0.649  1.5910  0.6207  0.3836
13859TIP3   OH262991   1.310   5.978  13.080  0.0997  0.5483  0.6463
13859TIP3    H162992   1.353   6.059  13.109 -0.5140  0.7924  0.9037
13859TIP3    H262993   1.364   5.946  13.008 -1.4513  3.0134 -1.8033
13860TIP3   OH262994   2.636   4.936  14.405 -0.5925 -0.4290  0.6403
13860TIP3    H162995   2.570   5.004  14.418 -0.9962 -0.7718  0.4314
13860TIP3    H262996   2.677   4.925  14.491  1.0484  1.6381  0.2196
13861TIP3   OH262997   6.760   4.173  16.591 -0.3017 -0.4418 -0.4010
13861TIP3    H162998   6.678   4.195  16.636 -0.5568  0.7176 -1.3907
13861TIP3    H262999   6.734   4.155  16.501  0.3734 -1.4311 -0.4117
13862TIP3   OH263000   4.196   3.619   0.695 -0.0471 -0.1457 -0.2215
13862TIP3    H163001   4.287   3.647   0.700 -0.0554  0.0303 -0.9036
13862TIP3    H263002   4.201   3.526   0.671 -0.0489 -0.1297 -0.2833
13863TIP3   OH263003   3.265   4.845   3.496 -0.7292 -0.0989  0.0190
13863TIP3    H163004   3.325   4.783   3.455 -1.0683 -0.5402  0.1892
13863TIP3    H263005   3.247   4.910   3.428  0.0909  0.1424  0.0258
13864TIP3   OH263006   3.418   5.904  15.870  0.2029  0.1148  0.6598
13864TIP3    H163007   3.355   5.952  15.924 -1.0126 -1.6855  0.9400
13864TIP3    H263008   3.481   5.869  15.933  0.5119  0.5194  0.5731
13865TIP3   OH263009   2.720   4.153  13.230  0.1805 -0.2832  0.2267
13865TIP3    H163010   2.780   4.214  13.274  0.2504  1.1615 -1.7548
13865TIP3    H263011   2.764   4.130  13.148 -1.9909  0.9897 -1.3988
13866TIP3   OH263012   5.460   1.086   1.071 -0.7427  0.3816 -0.1271
13866TIP3    H163013   5.486   1.172   1.038 -1.1407  0.4703 -0.2215
13866TIP3    H263014   5.537   1.053   1.118 -0.2710  0.3994 -0.8599
13867TIP3   OH263015   1.820   4.782  12.383 -0.0361 -0.4777  0.4686
13867TIP3    H163016   1.843   4.737  12.464 -2.4248 -0.9295  0.9806
13867TIP3    H263017   1.731   4.814  12.398  0.9192  2.9876 -0.5445
13868TIP3   OH263018   2.305   4.917   1.347  0.1694 -0.1557  0.4947
13868TIP3    H163019   2.381   4.931   1.291 -0.3167  0.3945 -0.0424
13868TIP3    H263020   2.236   4.889   1.287 -0.4210  0.6607  0.7713
13869TIP3   OH263021   1.275   0.130   2.325 -0.2760  0.1704 -0.0747
13869TIP3    H163022   1.294   0.223   2.342 -0.6375  0.0163  1.3713
13869TIP3    H263023   1.180   0.124   2.330 -0.2422 -0.3082  0.0359
13870TIP3   OH263024   0.913   5.224  13.481 -0.2817  0.0956 -0.3196
13870TIP3    H163025   0.986   5.199  13.424 -0.4643 -0.0758 -0.4795
13870TIP3    H263026   0.879   5.142  13.515  0.3084  0.2464  0.6477
13871TIP3   OH263027   3.996   0.896  16.139  0.1407  0.4526 -0.4975
13871TIP3    H163028   3.951   0.957  16.197 -1.3426  0.5617 -1.7157
13871TIP3    H263029   3.997   0.939  16.054 -1.8200 -1.5461 -1.6484
13872TIP3   OH263030   3.534   6.718   2.087  0.0772  0.7242  0.0191
13872TIP3    H163031   3.520   6.726   1.993 -0.0926  0.9761  0.0662
13872TIP3    H263032   3.627   6.734   2.099  0.0463  0.9836 -0.0748
13873TIP3   OH263033   4.464   2.965   1.094  0.3112  0.5125 -0.2224
13873TIP3    H163034   4.493   2.914   1.018 -0.0512 -1.0805  0.6675
13873TIP3    H263035   4.370   2.977   1.081  0.3641  0.8301 -0.3385
13874TIP3   OH263036   3.600   0.355  12.231  0.4841  0.0625  0.0220
13874TIP3    H163037   3.676   0.362  12.172 -0.8827  1.6323 -1.6670
13874TIP3    H263038   3.524   0.356  12.172 -0.8866 -0.6825  1.7105
13875TIP3   OH263039   3.048   3.287   5.285  0.7287  0.5250  0.2032
13875TIP3    H163040   3.066   3.237   5.364 -0.7979  1.0546  0.9312
13875TIP3    H263041   3.037   3.221   5.216 -0.2312 -0.0964  0.9313
13876TIP3   OH263042   4.908   2.499  11.488  0.3836 -0.0305  0.2328
13876TIP3    H163043   4.939   2.478  11.400  2.5435  0.6482  0.7795
13876TIP3    H263044   4.927   2.592  11.498 -0.0519 -0.0497  1.3368
13877TIP3   OH263045   2.317   3.036  16.394 -0.1992 -0.0077  0.0437
13877TIP3    H163046   2.264   3.011  16.470 -1.4899 -1.2658 -1.1931
13877TIP3    H263047   2.292   3.127  16.377  1.1271  0.7567  1.8856
13878TIP3   OH263048   2.128   5.659   4.836 -0.1800  0.8181 -0.1410
13878TIP3    H163049   2.161   5.717   4.767 -0.2691 -0.1646 -1.0378
13878TIP3    H263050   2.181   5.681   4.913  1.6712  0.2513 -1.1821
13879TIP3   OH263051   5.551   3.093  10.746  0.0407 -0.1495  0.3342
13879TIP3    H163052   5.608   3.104  10.669 -0.1284  1.8486  0.4459
13879TIP3    H263053   5.475   3.148  10.727 -1.2515 -1.6908  0.8071
13880TIP3   OH263054   6.556   3.919  14.508  0.3041  0.2155  0.1371
13880TIP3    H163055   6.606   3.941  14.587 -0.3440 -0.6178  0.8067
13880TIP3    H263056   6.470   3.959  14.522  0.5665  1.1405 -0.7420
13881TIP3   OH263057   3.277   2.319   2.372 -0.4279  0.1532  0.1945
13881TIP3    H163058   3.228   2.256   2.318 -0.0421  0.4833 -0.5581
13881TIP3    H263059   3.328   2.369   2.309  1.5040 -0.7086  1.0176
13882TIP3   OH263060   2.034   2.699   0.978  0.4141  0.2293 -0.5676
13882TIP3    H163061   2.095   2.696   0.904  0.5134 -0.0016 -0.4773
13882TIP3    H263062   1.949   2.717   0.938  0.0531 -2.1320 -0.9938
13883TIP3   OH263063   5.676   0.828  14.454  0.1013 -0.3699  0.1859
13883TIP3    H163064   5.587   0.822  14.490  0.2207 -0.1253  0.5270
13883TIP3    H263065   5.665   0.814  14.360 -0.4019  0.4651  0.1180
13884TIP3   OH263066   2.718   0.368   1.365  0.3371 -0.5054 -0.5624
13884TIP3    H163067   2.666   0.448   1.357 -0.1218 -0.7722 -0.2712
13884TIP3    H263068   2.682   0.324   1.442  0.4692 -1.0796 -0.8262
13885TIP3   OH263069   3.338   5.553   1.214 -0.2598  0.4926 -0.0729
13885TIP3    H163070   3.268   5.554   1.148  0.0342  0.4142 -0.3863
13885TIP3    H263071   3.399   5.621   1.185  0.7818 -0.7481 -0.8755
13886TIP3   OH263072   1.757   5.000  11.148  0.3022  0.0927 -0.4897
13886TIP3    H163073   1.702   5.071  11.116  0.1972 -0.1502 -0.8499
13886TIP3    H263074   1.841   5.011  11.103  0.7442  0.7894  0.4677
13887TIP3   OH263075   2.578   5.624  11.784  0.2391 -0.2262  0.4893
13887TIP3    H163076   2.599   5.688  11.716 -2.0091 -0.2907 -0.3495
13887TIP3    H263077   2.639   5.552  11.769  2.6123  1.4965  1.2609
13888TIP3   OH263078   6.531   1.869   1.728  0.3457  0.1876  0.1228
13888TIP3    H163079   6.451   1.875   1.780  0.2673  2.9029 -0.1815
13888TIP3    H263080   6.505   1.817   1.652 -1.6881  2.2869 -0.7632
13889TIP3   OH263081   4.034   6.000  16.108  0.1178 -0.1107 -0.3830
13889TIP3    H163082   4.068   5.926  16.159 -0.5233 -0.4388 -0.4256
13889TIP3    H263083   4.055   6.077  16.161 -1.7127 -0.5458  1.0631
13890TIP3   OH263084   6.275   5.691  13.236  0.2242  0.3748  0.5918
13890TIP3    H163085   6.295   5.624  13.301  0.2730  1.3554  1.6161
13890TIP3    H263086   6.320   5.770  13.267 -0.0405  0.9630 -0.4458
13891TIP3   OH263087   6.669   5.817  12.016  0.7436  0.2218  0.1435
13891TIP3    H163088   6.746   5.829  12.072  0.6207 -0.3714  0.4448
13891TIP3    H263089   6.635   5.731  12.040 -0.9666  1.1188  1.1731
13892TIP3   OH263090   3.111   2.528  12.714 -0.2933  0.5660 -0.0034
13892TIP3    H163091   3.025   2.512  12.755 -0.1798  1.7497  0.7386
13892TIP3    H263092   3.173   2.527  12.787  0.0029  2.0580 -0.2217
13893TIP3   OH263093   6.225   0.364   2.658 -0.1601  0.9481 -0.9790
13893TIP3    H163094   6.219   0.408   2.743 -0.0726 -2.9926  1.3399
13893TIP3    H263095   6.134   0.356   2.629 -0.4509  0.1814  0.0643
13894TIP3   OH263096   0.086   0.877   4.921  0.3582  0.3394  0.0216
13894TIP3    H163097   0.050   0.802   4.874  0.2854  0.2960  0.1480
13894TIP3    H263098   0.169   0.894   4.877 -0.1737  0.9354 -0.7801
13895TIP3   OH263099   0.806   1.445  16.757  0.2447 -0.0997 -0.4503
13895TIP3    H163100   0.771   1.526  16.719  1.2510  0.3078 -0.5587
13895TIP3    H263101   0.742   1.378  16.733 -0.5381  0.6333 -0.4836
13896TIP3   OH263102   5.440   1.395  17.031  0.1820  0.4257 -0.6033
13896TIP3    H163103   5.384   1.369  17.104  0.6478  2.6042  0.6204
13896TIP3    H263104   5.415   1.486  17.013  1.2084  0.4483 -2.0875
13897TIP3   OH263105   6.317   4.486  14.155  0.1050  0.0699  0.1786
13897TIP3    H163106   6.292   4.576  14.176  0.6322 -0.0996  1.6644
13897TIP3    H263107   6.301   4.437  14.236  0.7898 -0.9719 -0.2927
13898TIP3   OH263108   3.242   2.381  11.958  0.8281  0.2613  0.7007
13898TIP3    H163109   3.192   2.414  11.884  1.5510  1.0554  0.5483
13898TIP3    H263110   3.301   2.315  11.921 -1.5506 -2.3372  1.2034
13899TIP3   OH263111   0.577   6.369   0.803 -0.0717  0.6576  0.7593
13899TIP3    H163112   0.672   6.352   0.808 -0.3567 -1.5617 -0.2564
13899TIP3    H263113   0.561   6.386   0.711 -0.5773  1.7908  1.0468
13900TIP3   OH263114   3.626   4.001   4.021 -0.0081 -0.1421 -0.0209
13900TIP3    H163115   3.588   3.920   3.989 -0.7588 -0.0992  0.7296
13900TIP3    H263116   3.554   4.046   4.065  1.0287 -0.3881  2.0878
13901TIP3   OH263117   1.313   4.246   5.348  0.1584 -0.1134  0.1444
13901TIP3    H163118   1.230   4.244   5.396 -0.0549  0.3199 -0.2054
13901TIP3    H263119   1.290   4.224   5.258  0.4141  0.0615  0.0345
13902TIP3   OH263120   3.714   0.027  14.294 -0.3697  0.2168 -0.0328
13902TIP3    H163121   3.780   0.065  14.352 -2.2549  2.7510  0.6228
13902TIP3    H263122   3.706  -0.064  14.322  0.7880  0.6321  1.7778
13903TIP3   OH263123   5.509   2.963   2.888  0.1932  0.0577 -0.1764
13903TIP3    H163124   5.431   3.019   2.887  0.7410  0.8655  0.9485
13903TIP3    H263125   5.474   2.874   2.895 -0.6398  0.3725 -0.2188
13904TIP3   OH263126   3.406   1.375   5.628  0.4245 -0.0230 -0.1210
13904TIP3    H163127   3.422   1.311   5.558 -2.1335 -1.2558  0.2946
13904TIP3    H263128   3.443   1.334   5.706 -0.2317 -0.5160 -0.0594
13905TIP3   OH263129   0.327   2.583   1.725 -0.6085 -0.1057  0.4571
13905TIP3    H163130   0.356   2.517   1.662 -1.3384  1.5589 -1.7377
13905TIP3    H263131   0.400   2.590   1.787 -1.0927 -3.9958  1.7762
13906TIP3   OH263132   4.691   4.029  14.100 -0.0640  0.8255  0.5713
13906TIP3    H163133   4.694   4.028  14.005 -0.8544  0.7512  0.5404
13906TIP3    H263134   4.782   4.035  14.127  0.3020 -0.8565 -0.1689
13907TIP3   OH263135   3.128   4.584   4.578 -0.0745 -0.1768  0.0276
13907TIP3    H163136   3.148   4.569   4.671  1.4785 -1.4469 -0.4523
13907TIP3    H263137   3.138   4.678   4.566  1.1540 -0.1758  0.8681
13908TIP3   OH263138   6.514   2.533  12.067  0.0793  0.0013  0.0875
13908TIP3    H163139   6.563   2.612  12.044  1.4816 -0.7970  0.2061
13908TIP3    H263140   6.422   2.558  12.056  0.3242  2.3596  2.3202
13909TIP3   OH263141   6.143   4.302  15.837  0.1682 -0.5501 -0.8972
13909TIP3    H163142   6.150   4.394  15.813  1.5883  0.0628  1.4904
13909TIP3    H263143   6.229   4.265  15.814  0.0437 -0.9656 -0.7086
13910TIP3   OH263144   1.998   5.968  12.156 -0.7184  0.3658 -0.3347
13910TIP3    H163145   1.983   5.984  12.249  0.7779 -1.3751  0.2605
13910TIP3    H263146   2.090   5.942  12.150 -1.7588 -3.8770 -1.6057
13911TIP3   OH263147   2.103   6.636   3.053 -0.3487 -0.2933  0.9072
13911TIP3    H163148   2.125   6.600   2.967 -2.4962 -0.5395  0.4058
13911TIP3    H263149   2.174   6.607   3.110  2.1219  1.3704 -1.0716
13912TIP3   OH263150   5.242   6.611   3.125 -0.2388 -0.6194  0.2251
13912TIP3    H163151   5.170   6.673   3.109 -0.0982 -0.4718  0.1547
13912TIP3    H263152   5.241   6.553   3.049  1.5391  1.1546 -1.2628
13913TIP3   OH263153   2.535   2.243   1.396 -0.1631  0.5340 -0.4744
13913TIP3    H163154   2.481   2.321   1.387 -1.2815 -0.2390 -0.7485
13913TIP3    H263155   2.533   2.223   1.490 -0.5986  0.3529 -0.5194
13914TIP3   OH263156   5.002   3.226  13.092 -0.1608  0.2325 -0.7586
13914TIP3    H163157   4.987   3.175  13.012  0.2972 -1.6667  0.3000
13914TIP3    H263158   4.915   3.234  13.131  0.0828 -2.8011  0.7475
13915TIP3   OH263159   6.343   5.296  12.710 -0.3934  0.1649  0.2807
13915TIP3    H163160   6.372   5.311  12.621 -2.5639  1.5174 -0.2654
13915TIP3    H263161   6.421   5.306  12.763  0.8692 -0.3162 -1.4061
13916TIP3   OH263162   5.431   1.797   4.422 -0.1402 -0.1619 -0.2532
13916TIP3    H163163   5.345   1.800   4.464  0.1742  0.1058  0.4002
13916TIP3    H263164   5.472   1.717   4.457  0.7662  0.9221  1.3040
13917TIP3   OH263165   4.177   4.377  16.433  0.0322 -0.5104  0.3587
13917TIP3    H163166   4.172   4.468  16.463 -0.0186 -0.2249 -0.4772
13917TIP3    H263167   4.266   4.369  16.398 -0.2917 -0.4789 -0.4882
13918TIP3   OH263168   5.947   2.436  15.703  0.0198  0.0229  0.3716
13918TIP3    H163169   6.012   2.394  15.646  0.2359  0.4527  0.2988
13918TIP3    H263170   5.863   2.415  15.663  0.0855 -0.8631  0.6812
13919TIP3   OH263171   3.098   2.808  12.776  0.4709 -0.6981 -0.0203
13919TIP3    H163172   3.082   2.895  12.813  1.9826  0.0686 -1.0479
13919TIP3    H263173   3.022   2.757  12.802 -0.8647  1.1477 -0.0547
13920TIP3   OH263174   1.755   3.188  14.654 -0.0088 -0.3672  0.5439
13920TIP3    H163175   1.793   3.169  14.568  1.5734 -0.8392  1.3239
13920TIP3    H263176   1.679   3.129  14.659 -1.3298  1.0285 -1.2752
13921TIP3   OH263177   3.655   6.091   2.487  0.5420 -0.6812 -0.3807
13921TIP3    H163178   3.626   6.147   2.415  0.9135 -0.7518 -0.5814
13921TIP3    H263179   3.578   6.085   2.544  0.9358  1.2731  0.4273
13922TIP3   OH263180   6.135   2.133  11.581 -0.4274  0.5466  0.0224
13922TIP3    H163181   6.201   2.112  11.647  0.0172  1.9566  0.0632
13922TIP3    H263182   6.106   2.048  11.549  3.2466 -0.2145 -1.8380
13923TIP3   OH263183   0.114   6.386  11.239  0.3751 -0.4872  0.3593
13923TIP3    H163184   0.155   6.331  11.306  0.9861 -1.1312 -0.5211
13923TIP3    H263185   0.173   6.380  11.164  0.9980  2.1935  0.5400
13924TIP3   OH263186   5.373   1.193   3.220 -0.0310  0.1732  0.7329
13924TIP3    H163187   5.350   1.241   3.139  2.8179  0.5963  0.0901
13924TIP3    H263188   5.369   1.101   3.195 -1.3532  0.1952  0.7809
13925TIP3   OH263189   1.505   3.359  15.567  0.5587  1.0213 -0.0276
13925TIP3    H163190   1.540   3.366  15.656 -0.1335 -0.3961  0.3786
13925TIP3    H263191   1.413   3.384  15.575  0.3055  0.1889 -0.1872
13926TIP3   OH263192   0.627   2.876   3.230  0.1869 -0.4151 -0.3363
13926TIP3    H163193   0.683   2.910   3.161 -0.4336  1.7434  0.1735
13926TIP3    H263194   0.689   2.841   3.295  0.8444 -0.2449 -0.8547
13927TIP3   OH263195   2.092   5.676  14.476  0.0398  0.2618 -0.4983
13927TIP3    H163196   2.143   5.744  14.520 -1.2748  2.0488 -1.5916
13927TIP3    H263197   2.117   5.595  14.520  2.4272  1.2954  0.1878
13928TIP3   OH263198   6.407   4.948   2.757  0.1542  0.8827 -0.6397
13928TIP3    H163199   6.491   4.985   2.730  0.9421  0.0737  0.5488
13928TIP3    H263200   6.364   4.923   2.676  0.7588  1.9420 -1.3038
13929TIP3   OH263201   2.303   2.485  14.812 -0.4874 -0.0139  0.4727
13929TIP3    H163202   2.317   2.442  14.896  1.9675  2.1220  1.2827
13929TIP3    H263203   2.322   2.578  14.828 -3.0222  1.0472 -1.7538
13930TIP3   OH263204   5.112   1.890   4.295 -0.0465 -0.1741  0.6609
13930TIP3    H163205   5.127   1.833   4.370 -0.8029 -2.2098 -0.6410
13930TIP3    H263206   5.180   1.864   4.232 -0.9838 -0.3357 -0.3144
13931TIP3   OH263207   4.884   6.683  13.512 -0.2554  0.2481  0.5585
13931TIP3    H163208   4.841   6.724  13.437 -0.8408  0.9757  1.2716
13931TIP3    H263209   4.968   6.653  13.478 -0.1317  1.3630 -0.1878
13932TIP3   OH263210   0.580   6.516  11.829 -0.0902 -0.2143 -0.0414
13932TIP3    H163211   0.523   6.449  11.868 -0.9361  1.0634  1.0191
13932TIP3    H263212   0.596   6.485  11.740 -0.2991 -1.9060  0.4690
13933TIP3   OH263213   3.392   4.124   3.268  0.0007  0.4709 -0.6814
13933TIP3    H163214   3.303   4.154   3.287  0.0976 -0.7127  2.1601
13933TIP3    H263215   3.384   4.071   3.188 -2.1236 -0.6966  0.2305
13934TIP3   OH263216   4.632   2.856  16.289  0.1405  0.8707 -0.4618
13934TIP3    H163217   4.698   2.918  16.318  1.9006 -0.7728 -0.7120
13934TIP3    H263218   4.605   2.887  16.202 -0.7896  2.5382  0.3859
13935TIP3   OH263219   5.741   4.196  12.242  0.3780  0.0996  0.7186
13935TIP3    H163220   5.660   4.204  12.292 -1.4829  0.4709 -2.1540
13935TIP3    H263221   5.789   4.277  12.262 -0.1735  0.1314  2.0229
13936TIP3   OH263222   0.761   5.789   6.782 -0.3443 -0.4398  0.1829
13936TIP3    H163223   0.825   5.736   6.734  0.6691 -1.4175  2.4481
13936TIP3    H263224   0.738   5.859   6.722  3.2830  0.2677 -0.6052
13937TIP3   OH263225   3.358   4.197  15.247 -0.3285  0.1867  0.2420
13937TIP3    H163226   3.284   4.139  15.263 -0.9056  0.8854  0.1888
13937TIP3    H263227   3.361   4.253  15.325  0.6375 -0.3339  0.6031
13938TIP3   OH263228   1.469   4.112   3.214 -0.2137  0.2026 -0.5768
13938TIP3    H163229   1.503   4.192   3.253  0.9127 -1.1344  1.3888
13938TIP3    H263230   1.495   4.116   3.122  2.5357  0.7385  0.1399
13939TIP3   OH263231   3.878   1.053  11.817  0.0160  0.4996  0.3560
13939TIP3    H163232   3.844   0.977  11.865 -1.6746  1.2019  0.3216
13939TIP3    H263233   3.963   1.070  11.858 -0.0656 -0.7426  1.0964
13940TIP3   OH263234   5.909   3.495  11.684 -0.3254  0.0396  0.1905
13940TIP3    H163235   5.975   3.509  11.752 -0.7632 -1.5970  1.0199
13940TIP3    H263236   5.905   3.578  11.636  0.4773  1.0253  1.7408
13941TIP3   OH263237   6.624   3.280  13.087  0.0606  0.1871 -0.9012
13941TIP3    H163238   6.606   3.346  13.154 -0.4032 -0.5197 -0.3106
13941TIP3    H263239   6.544   3.278  13.034  0.2265  0.3757 -1.1605
13942TIP3   OH263240   1.772   0.313  15.565  0.1638 -0.1167 -0.1776
13942TIP3    H163241   1.779   0.219  15.582 -0.2712 -0.2861 -0.9220
13942TIP3    H263242   1.830   0.329  15.491 -1.1444 -0.1315 -1.2400
13943TIP3   OH263243   3.418   4.240  11.154 -0.1780 -0.6135  0.0347
13943TIP3    H163244   3.393   4.150  11.134  2.4795 -1.4323 -0.0369
13943TIP3    H263245   3.413   4.285  11.069 -0.1976 -1.0467 -0.1964
13944TIP3   OH263246   0.921   6.745   3.134  0.5137  0.2153 -0.3227
13944TIP3    H163247   0.839   6.723   3.177  1.1492  0.5009  1.0669
13944TIP3    H263248   0.916   6.699   3.049 -1.2464  0.5977 -0.4601
13945TIP3   OH263249   0.628   0.817  17.237 -0.2772  0.4921  0.3478
13945TIP3    H163250   0.707   0.868  17.217  1.2201 -0.2475  3.7206
13945TIP3    H263251   0.656   0.726  17.232 -1.8955  0.0295 -1.6744
13946TIP3   OH263252   3.060   3.351  11.489  0.1052 -0.3958  0.4862
13946TIP3    H163253   3.126   3.417  11.508 -0.6883  0.1177  1.5593
13946TIP3    H263254   3.048   3.355  11.394  0.1265  0.9536  0.5206
13947TIP3   OH263255   3.110   5.845  13.409 -0.8160  0.6454 -0.2896
13947TIP3    H163256   3.143   5.770  13.458 -1.1053  0.1943 -0.7823
13947TIP3    H263257   3.048   5.887  13.470 -0.2383  0.8087  0.1903
13948TIP3   OH263258   2.748   0.687   4.418 -0.1240  0.0858 -0.0325
13948TIP3    H163259   2.730   0.719   4.506  1.3362  0.6419  0.0810
13948TIP3    H263260   2.758   0.766   4.365 -2.1586 -0.2287 -0.9868
13949TIP3   OH263261   3.952   6.419  11.637  0.1782 -0.5083  0.4372
13949TIP3    H163262   3.972   6.400  11.545  1.4683  2.5152 -0.0202
13949TIP3    H263263   3.857   6.435  11.638 -0.1865 -2.3954  0.0646
13950TIP3   OH263264   5.175   3.017   3.259 -0.0049  0.5462  0.7943
13950TIP3    H163265   5.254   3.032   3.207 -1.2321  0.0452 -1.3497
13950TIP3    H263266   5.109   3.072   3.217 -0.6838  1.5096  2.9877
13951TIP3   OH263267   3.395   2.501   5.368  0.3060 -0.3777  0.4201
13951TIP3    H163268   3.365   2.413   5.347  1.1679 -0.3715 -0.9314
13951TIP3    H263269   3.491   2.494   5.370  0.3790  0.5111  0.3743
13952TIP3   OH263270   4.342   4.141  13.974 -0.1795  0.1024  0.0451
13952TIP3    H163271   4.404   4.160  14.045  1.6118  0.6748 -1.5801
13952TIP3    H263272   4.359   4.050  13.950  0.8629  0.5804 -1.1295
13953TIP3   OH263273   5.101   2.555   4.328  0.1509 -0.4309  0.7454
13953TIP3    H163274   5.056   2.636   4.307 -0.2527 -0.5886  0.9846
13953TIP3    H263275   5.031   2.494   4.353  0.3905 -1.0400 -0.0359
13954TIP3   OH263276   1.626   6.564   5.966 -0.5118 -0.2516 -0.0390
13954TIP3    H163277   1.567   6.517   6.025 -0.7553 -0.9414 -0.8122
13954TIP3    H263278   1.713   6.541   5.997 -0.6302 -0.9983 -0.2266
13955TIP3   OH263279   2.331   6.462   3.112  0.5805 -0.1973 -0.1995
13955TIP3    H163280   2.407   6.426   3.067  0.4180 -1.8158  0.7329
13955TIP3    H263281   2.270   6.388   3.117 -1.0685  1.0612 -0.9163
13956TIP3   OH263282   2.817   5.634  15.354  0.1649  0.1779  0.4893
13956TIP3    H163283   2.866   5.552  15.350 -0.5189 -0.1718 -1.4176
13956TIP3    H263284   2.849   5.685  15.280 -0.3952  1.0803  0.8584
13957TIP3   OH263285   1.619   4.655  13.109 -0.0306 -0.3653 -0.0031
13957TIP3    H163286   1.684   4.700  13.162  0.6483 -1.2672 -0.0477
13957TIP3    H263287   1.669   4.618  13.036 -0.9864  1.1220 -1.4737
13958TIP3   OH263288   4.530   5.477  12.104 -0.2538 -0.5682  0.1089
13958TIP3    H163289   4.547   5.536  12.177  0.5565  0.1700 -0.6520
13958TIP3    H263290   4.593   5.407  12.115 -0.9086 -1.0782  0.7524
13959TIP3   OH263291   1.060   3.420  16.514 -0.1586 -0.5705 -0.2850
13959TIP3    H163292   1.025   3.503  16.479 -0.7134 -0.3378  0.7899
13959TIP3    H263293   1.044   3.425  16.608 -0.4516 -2.0253 -0.2367
13960TIP3   OH263294   1.846   5.125  10.918 -0.1110 -0.5474 -0.7386
13960TIP3    H163295   1.753   5.140  10.933  0.1886 -1.1253  2.1483
13960TIP3    H263296   1.852   5.032  10.900  0.0737 -0.9463  1.1988
13961TIP3   OH263297   1.892   4.341   3.439 -0.4329 -0.5116  0.1363
13961TIP3    H163298   1.835   4.417   3.451  1.0284  0.2224  3.7568
13961TIP3    H263299   1.844   4.268   3.478  0.0429 -0.3643  1.0553
13962TIP3   OH263300   0.651   5.952  13.482 -0.2017  0.0869 -0.0322
13962TIP3    H163301   0.664   5.964  13.388  1.8118  1.7575  0.3751
13962TIP3    H263302   0.739   5.955  13.519 -1.0054  0.5121  2.0003
13963TIP3   OH263303   4.829   1.261   3.294 -0.0326 -0.6956  0.1733
13963TIP3    H163304   4.794   1.180   3.332 -0.6212 -0.2571  0.5717
13963TIP3    H263305   4.924   1.251   3.302 -0.1270 -0.6738  1.6469
13964TIP3   OH263306   0.738   4.420  12.583  0.2994 -0.0457  0.1217
13964TIP3    H163307   0.729   4.496  12.527  0.6866 -0.0013  0.1153
13964TIP3    H263308   0.792   4.359  12.533  0.0246 -0.3071  0.1429
13965TIP3   OH263309   5.706   0.655  13.717  0.0325 -0.0266  0.2023
13965TIP3    H163310   5.697   0.721  13.648 -0.7728 -0.4160 -0.0890
13965TIP3    H263311   5.664   0.577  13.680 -0.1760 -0.3202  1.0338
13966TIP3   OH263312   2.059   4.733   6.471 -0.0594  0.7922 -0.1945
13966TIP3    H163313   2.088   4.755   6.560 -1.2733 -1.3664  0.8288
13966TIP3    H263314   1.983   4.789   6.455  0.6673  1.7842 -0.2277
13967TIP3   OH263315   4.905   3.200   6.294  0.0481 -0.3842 -0.2294
13967TIP3    H163316   4.903   3.232   6.385 -2.7091  1.0073 -0.6759
13967TIP3    H263317   4.831   3.140   6.288  0.7325 -1.1557 -1.3740
13968TIP3   OH263318   1.644   5.717  15.508  0.2507 -0.2438  0.7469
13968TIP3    H163319   1.645   5.621  15.498 -1.1325 -0.1844 -0.2449
13968TIP3    H263320   1.562   5.744  15.467  1.0129  1.4598  0.2984
13969TIP3   OH263321   6.000   2.371  11.359  0.6520  0.1492 -0.0721
13969TIP3    H163322   5.917   2.332  11.332  0.9887 -1.3589  0.9529
13969TIP3    H263323   6.033   2.414  11.280 -1.2625  1.1232 -0.3944
13970TIP3   OH263324   6.588   2.443  13.466  0.3228  0.1783  0.2893
13970TIP3    H163325   6.636   2.412  13.543  1.3853  1.8684  0.3604
13970TIP3    H263326   6.620   2.388  13.394 -0.6702 -1.4125  1.0025
13971TIP3   OH263327   3.550   2.926   3.070 -0.1961  0.7782 -0.1463
13971TIP3    H163328   3.602   3.003   3.094 -0.9673  1.0324  0.7795
13971TIP3    H263329   3.510   2.898   3.153 -1.5984  0.6592 -0.8366
13972TIP3   OH263330   3.970   1.993  15.623  0.2425 -0.0648  0.0348
13972TIP3    H163331   4.009   2.072  15.661  0.2103  0.4691 -0.9831
13972TIP3    H263332   4.018   1.921  15.663 -1.2085  0.3130  2.6916
13973TIP3   OH263333   3.716   5.505  17.086 -0.0177  0.5951  1.0370
13973TIP3    H163334   3.732   5.447  17.160  0.5328  1.1829  1.3871
13973TIP3    H263335   3.677   5.584  17.124 -0.0023  0.7818  0.6742
13974TIP3   OH263336   2.654   6.051   4.796 -0.4964 -0.1681  0.0193
13974TIP3    H163337   2.584   6.069   4.734  0.2363 -0.7181 -0.9848
13974TIP3    H263338   2.704   6.133   4.801  1.9347 -1.2337 -3.3891
13975TIP3   OH263339   3.820   3.864   5.405 -1.3115  0.3425  0.0774
13975TIP3    H163340   3.737   3.912   5.403 -2.2820 -1.2453 -0.6501
13975TIP3    H263341   3.793   3.772   5.409  0.4608 -0.1579  1.4623
13976TIP3   OH263342   3.641   4.944  14.842 -0.1956 -0.4401 -0.5347
13976TIP3    H163343   3.599   5.018  14.885 -0.6205 -0.3334 -1.1307
13976TIP3    H263344   3.683   4.896  14.914 -1.7861 -0.8513  0.1637
13977TIP3   OH263345   0.971   3.429  15.458  0.2762 -0.1080  0.2887
13977TIP3    H163346   0.967   3.443  15.552 -0.0137 -1.5191  0.5147
13977TIP3    H263347   1.064   3.440  15.436  0.0707  2.1936  0.3637
13978TIP3   OH263348   5.864   1.789   2.753 -0.3354  0.4043  0.4847
13978TIP3    H163349   5.937   1.850   2.745  1.2335 -1.5461 -1.3427
13978TIP3    H263350   5.798   1.822   2.693  0.5674  0.3069 -0.6146
13979TIP3   OH263351   4.513   5.539  14.225 -0.0473 -0.3557  0.1660
13979TIP3    H163352   4.424   5.505  14.235 -0.0658 -0.6915 -1.0033
13979TIP3    H263353   4.502   5.617  14.170  0.6861 -2.2122 -2.7914
13980TIP3   OH263354   4.681   5.211   3.434 -0.0401 -0.0667 -0.2812
13980TIP3    H163355   4.604   5.178   3.387 -1.1158  1.4800  0.2958
13980TIP3    H263356   4.654   5.214   3.525  1.2499 -0.9065  0.1444
13981TIP3   OH263357   0.691   3.565   1.555 -0.2301  0.4517  0.4181
13981TIP3    H163358   0.783   3.590   1.551  0.5057 -2.0063  0.6797
13981TIP3    H263359   0.681   3.497   1.489 -0.4225 -3.2798  3.9051
13982TIP3   OH263360   1.083   1.514   6.614  0.4309 -0.0170  0.5002
13982TIP3    H163361   1.108   1.603   6.640 -0.2816  0.6781 -1.0422
13982TIP3    H263362   1.053   1.473   6.694 -1.2431  1.8517  0.9028
13983TIP3   OH263363   0.948   5.458   6.061 -0.2356 -0.0860 -0.2819
13983TIP3    H163364   0.874   5.492   6.010 -0.0070  0.7541 -0.0598
13983TIP3    H263365   1.010   5.428   5.994 -0.0687  0.7342 -0.5113
13984TIP3   OH263366   6.276   0.620   5.477 -0.2926  0.1445 -0.3641
13984TIP3    H163367   6.363   0.590   5.503  0.2833  1.5763 -0.5901
13984TIP3    H263368   6.218   0.590   5.548  0.8189  1.5556  1.2138
13985TIP3   OH263369   4.198   4.838   5.275  0.0849  0.3431  0.5324
13985TIP3    H163370   4.170   4.912   5.328 -2.4586  0.7139 -1.1703
13985TIP3    H263371   4.221   4.876   5.190 -0.0261 -0.6630  0.0346
13986TIP3   OH263372   2.783   4.579   5.871 -0.3429  0.2916 -0.5170
13986TIP3    H163373   2.762   4.629   5.949  0.7583 -0.9620  0.6297
13986TIP3    H263374   2.736   4.496   5.882  0.8300 -0.3990 -0.5333
13987TIP3   OH263375   0.343   0.836   6.799 -0.0013  0.0216  0.5524
13987TIP3    H163376   0.349   0.927   6.829 -0.8711  0.0396  0.7078
13987TIP3    H263377   0.430   0.800   6.815  0.9897  1.3706 -1.3922
13988TIP3   OH263378   1.256   1.191   2.343  0.8418  0.4369  0.5387
13988TIP3    H163379   1.163   1.175   2.357  0.9064 -1.4516 -0.9133
13988TIP3    H263380   1.272   1.276   2.385 -1.3556  0.4659  1.4298
13989TIP3   OH263381   3.807   4.388   5.095 -0.3530 -1.0748 -0.0354
13989TIP3    H163382   3.749   4.353   5.028  0.3014 -2.2759  0.0060
13989TIP3    H263383   3.799   4.483   5.087 -1.6103 -1.2137 -0.6381
13990TIP3   OH263384   3.465   2.269   5.004  0.4051  0.1002 -0.5642
13990TIP3    H163385   3.494   2.247   4.916  1.6414  0.5317 -0.2901
13990TIP3    H263386   3.519   2.345   5.029  0.9076 -0.7062  0.9701
13991TIP3   OH263387   0.270   6.438   2.965  0.0638  0.3225  0.4673
13991TIP3    H163388   0.301   6.349   2.949  0.1589  0.9146 -3.8220
13991TIP3    H263389   0.195   6.428   3.024 -0.0037 -2.6092 -0.0109
13992TIP3   OH263390   1.902   2.992   4.654 -0.4094 -0.1884  0.3264
13992TIP3    H163391   1.991   2.968   4.679  0.8384  3.6141  0.0900
13992TIP3    H263392   1.859   3.013   4.737 -0.9712 -1.4059  0.3770
13993TIP3   OH263393   2.255   3.990   4.152 -0.0460  0.1440  0.3324
13993TIP3    H163394   2.231   3.911   4.200  0.5428 -0.3299 -0.1296
13993TIP3    H263395   2.345   3.973   4.123 -0.3166  0.5001 -0.7505
13994TIP3   OH263396   2.989   2.301   2.561 -0.0043 -0.0447 -0.4006
13994TIP3    H163397   2.899   2.290   2.593  0.0608 -0.6291 -0.4033
13994TIP3    H263398   2.979   2.310   2.466 -0.0358 -0.4125 -0.4316
13995TIP3   OH263399   2.551   0.169  15.318 -0.1415 -0.3079  0.3356
13995TIP3    H163400   2.614   0.151  15.387  1.4225  3.1819  0.0381
13995TIP3    H263401   2.472   0.199  15.363  0.1872  0.0921  0.6425
13996TIP3   OH263402   4.455   2.578  13.527 -0.0151  0.4514  0.6717
13996TIP3    H163403   4.395   2.562  13.454  0.3130  0.6421  0.3575
13996TIP3    H263404   4.494   2.663  13.508  0.9469 -0.0224  0.4598
13997TIP3   OH263405   5.243   2.007   0.552 -0.2855  0.1380  0.0076
13997TIP3    H163406   5.165   1.970   0.594 -0.9630  0.7929 -0.6603
13997TIP3    H263407   5.210   2.076   0.495  0.6225 -0.6538 -1.5379
13998TIP3   OH263408   0.461   0.036   2.943 -0.1089  0.4503 -0.8175
13998TIP3    H163409   0.419  -0.002   3.020 -1.2942  0.9818 -1.1770
13998TIP3    H263410   0.439  -0.024   2.871 -0.3125  0.7617 -1.0190
13999TIP3   OH263411   5.676   1.271   3.938  0.0752 -0.7739  0.8758
13999TIP3    H163412   5.652   1.209   4.007 -0.7503  0.1507  1.4474
13999TIP3    H263413   5.688   1.354   3.984  0.2225 -0.3023  0.0013
14000TIP3   OH263414   2.118   1.377   3.420 -0.2706 -0.0705  0.7483
14000TIP3    H163415   2.039   1.422   3.389 -1.5071 -0.1604  3.4891
14000TIP3    H263416   2.177   1.448   3.444 -0.8660  0.0770  1.8331
14001TIP3   OH263417   3.682   1.044  13.364 -0.2862  0.6793 -0.1028
14001TIP3    H163418   3.617   0.978  13.389 -1.8732  2.1239 -0.2259
14001TIP3    H263419   3.637   1.099  13.299  1.6800  0.6755 -1.5814
14002TIP3   OH263420   4.067   6.415  13.155 -0.3018  0.0282  0.5168
14002TIP3    H163421   4.124   6.339  13.148  0.4670  0.6057  0.3883
14002TIP3    H263422   4.090   6.455  13.239  0.2786  0.8756 -0.0208
14003TIP3   OH263423   4.789   3.956  16.944 -0.1827 -0.1195 -0.0338
14003TIP3    H163424   4.784   4.043  16.984 -2.0316 -0.0981 -0.1881
14003TIP3    H263425   4.767   3.896  17.015  1.3800 -0.5063  0.1421
14004TIP3   OH263426   4.217   3.381  16.537  0.0828  0.2276 -0.0338
14004TIP3    H163427   4.162   3.456  16.556 -1.1749 -0.7459  0.3391
14004TIP3    H263428   4.285   3.414  16.479 -1.5549  1.2472 -1.4483
14005TIP3   OH263429   6.502   5.664   0.989 -0.4444  0.5386  0.4882
14005TIP3    H163430   6.568   5.733   0.984 -1.2826  1.3150 -0.1559
14005TIP3    H263431   6.419   5.711   1.000 -0.9989 -0.3825  0.3488
14006TIP3   OH263432   0.188   1.772   2.221  0.0410 -0.0984 -0.3227
14006TIP3    H163433   0.190   1.830   2.145 -1.5728 -0.6494 -0.8300
14006TIP3    H263434   0.100   1.734   2.220 -0.2952  0.4153  2.2176
14007TIP3   OH263435   0.601   1.301   5.086 -0.4147 -0.2180 -0.6056
14007TIP3    H163436   0.555   1.361   5.028 -1.5052 -1.2998 -0.9270
14007TIP3    H263437   0.619   1.352   5.165  0.1408  0.9664 -1.4680
14008TIP3   OH263438   3.703   1.748   2.399  0.1163  0.2474  0.4497
14008TIP3    H163439   3.644   1.812   2.440 -0.4000 -0.1527  0.3382
14008TIP3    H263440   3.751   1.710   2.472 -0.7278 -0.3874  0.6935
14009TIP3   OH263441   4.325   2.101  11.847  0.3135 -0.0976  0.0650
14009TIP3    H163442   4.283   2.095  11.761  1.0604 -1.3814 -0.2290
14009TIP3    H263443   4.419   2.107  11.827  0.6772 -2.5349  0.8071
14010TIP3   OH263444   1.289   1.309   1.429 -0.4554 -0.4715  0.8430
14010TIP3    H163445   1.238   1.240   1.472 -1.9997 -1.0039 -1.6155
14010TIP3    H263446   1.312   1.271   1.344  1.4987  0.8969  0.7143
14011TIP3   OH263447   3.779   0.302   4.065 -1.0054  0.0911 -0.3937
14011TIP3    H163448   3.755   0.302   3.973  0.3788  1.4537 -0.8038
14011TIP3    H263449   3.818   0.216   4.081 -2.0667 -0.4780 -0.8345
14012TIP3   OH263450   1.560   6.246   5.799 -0.4801 -0.4445  0.1707
14012TIP3    H163451   1.613   6.225   5.877 -0.4597  0.6565  0.4653
14012TIP3    H263452   1.549   6.162   5.755 -2.1581 -1.4757  2.3820
14013TIP3   OH263453   6.656   4.964   2.601  0.0820 -0.0264 -0.4815
14013TIP3    H163454   6.589   5.014   2.555 -0.8554 -0.3986  0.4494
14013TIP3    H263455   6.708   5.030   2.648  0.5626  0.2851 -1.4322
14014TIP3   OH263456   3.032   2.407  13.327  0.0907  0.0040  0.3985
14014TIP3    H163457   3.051   2.485  13.275  1.1011 -2.1040 -2.7493
14014TIP3    H263458   3.104   2.401  13.389  0.8659  0.7770 -0.3860
14015TIP3   OH263459   0.663   3.875   0.859  0.3545 -0.2362  0.5203
14015TIP3    H163460   0.668   3.798   0.802  1.2510  0.3498 -0.2264
14015TIP3    H263461   0.681   3.949   0.801 -2.5544  0.7878  0.7831
14016TIP3   OH263462   5.458   6.115  11.287 -0.0547 -0.7209  0.2336
14016TIP3    H163463   5.502   6.061  11.222  0.0502 -0.1200 -0.2073
14016TIP3    H263464   5.390   6.161  11.238 -0.4849 -0.8531  0.7026
14017TIP3   OH263465   4.204   3.209   3.390 -0.0834  0.4667  0.3757
14017TIP3    H163466   4.148   3.132   3.399  1.1008 -0.2925  1.7198
14017TIP3    H263467   4.248   3.216   3.475  1.3295  1.4300 -0.3963
14018TIP3   OH263468   6.444   2.582  12.414 -0.5849 -0.1486 -0.1046
14018TIP3    H163469   6.516   2.530  12.378 -1.4978 -1.5322  0.0024
14018TIP3    H263470   6.467   2.672  12.394 -0.0374 -0.7285 -2.3345
14019TIP3   OH263471   4.329   5.928  14.652  0.7445 -0.0761  0.3637
14019TIP3    H163472   4.334   5.996  14.585 -1.2876  0.7481  0.9662
14019TIP3    H263473   4.299   5.850  14.604 -1.0680  0.6020  0.2901
14020TIP3   OH263474   2.838   2.896  10.839  0.1185  0.3577  0.0836
14020TIP3    H163475   2.931   2.918  10.833  0.0727  0.4201 -0.4804
14020TIP3    H263476   2.832   2.809  10.799 -0.2917  1.0049 -1.3457
14021TIP3   OH263477   4.813   5.036  16.234 -0.0313 -0.2717 -0.1684
14021TIP3    H163478   4.885   5.098  16.242 -0.9427  0.8841 -0.6166
14021TIP3    H263479   4.783   5.045  16.143 -0.8454 -0.5990  0.0567
14022TIP3   OH263480   5.789   2.274   2.568  1.1054  0.1449  1.2895
14022TIP3    H163481   5.770   2.367   2.557 -1.1854 -0.3894  0.3364
14022TIP3    H263482   5.758   2.233   2.488  1.1327 -1.5792  2.1166
14023TIP3   OH263483   6.118   2.898  14.348  0.9760 -0.0786  0.3813
14023TIP3    H163484   6.093   2.970  14.291  1.1511  0.3453  0.8311
14023TIP3    H263485   6.210   2.915  14.370  1.0036 -0.4072  0.5272
14024TIP3   OH263486   0.465   0.781   3.491  0.0151  0.1732 -0.1734
14024TIP3    H163487   0.423   0.867   3.504  0.1992  0.5849 -2.0071
14024TIP3    H263488   0.481   0.777   3.397  2.5157 -0.7336  0.2342
14025TIP3   OH263489   0.042   1.704   6.473 -0.4574 -0.0780 -0.3217
14025TIP3    H163490   0.080   1.773   6.527 -0.7342 -0.7110  0.7060
14025TIP3    H263491   0.105   1.632   6.479 -1.8932 -1.2924  1.7214
14026TIP3   OH263492   5.898   5.224  15.210 -0.1851 -0.4850  0.2329
14026TIP3    H163493   5.849   5.158  15.258  1.1369 -0.1643  2.1602
14026TIP3    H263494   5.968   5.251  15.271  2.7474 -1.3514 -2.4987
14027TIP3   OH263495   5.583   5.708  17.187 -0.5230  0.1020 -0.2746
14027TIP3    H163496   5.554   5.756  17.264  1.0225 -0.8546  0.9654
14027TIP3    H263497   5.556   5.762  17.113 -0.1887  2.0964  1.0031
14028TIP3   OH263498   2.596   3.056   0.157 -0.5495 -0.1146 -0.2341
14028TIP3    H163499   2.512   3.043   0.113  0.3675 -1.3266 -1.7468
14028TIP3    H263500   2.634   2.968   0.161  1.3707  0.6185 -1.1298
14029TIP3   OH263501   2.947   0.356  17.272 -0.3667 -0.4070  0.0285
14029TIP3    H163502   2.860   0.316  17.264 -0.5203 -0.1957  0.5939
14029TIP3    H263503   2.995   0.323  17.196 -1.2314  0.2292 -0.8144
14030TIP3   OH263504   0.692   4.447   1.611 -0.5246 -0.1058  0.5446
14030TIP3    H163505   0.787   4.447   1.597 -0.5300 -0.9815  0.4172
14030TIP3    H263506   0.658   4.510   1.549 -0.1842 -1.0813 -0.6685
14031TIP3   OH263507   6.039   4.217  12.083 -0.5673  0.0149  0.4772
14031TIP3    H163508   6.033   4.270  12.163 -0.8753  1.6917 -0.6139
14031TIP3    H263509   6.133   4.214  12.064 -0.6511  1.3163 -0.1817
14032TIP3   OH263510   0.939   3.268   0.899  0.0713 -0.3060 -0.4162
14032TIP3    H163511   0.950   3.215   0.820 -1.3663 -2.8448  0.9596
14032TIP3    H263512   1.028   3.276   0.935  0.3611 -1.5128 -0.8320
14033TIP3   OH263513   5.634   3.180  13.925 -0.1813  0.0548  0.1546
14033TIP3    H163514   5.580   3.137  13.859 -0.2482 -0.5913  0.6232
14033TIP3    H263515   5.571   3.231  13.977 -0.0390  1.1630 -0.7167
14034TIP3   OH263516   6.753   0.610  16.620 -0.1449  0.1842 -0.2894
14034TIP3    H163517   6.749   0.703  16.598 -1.4810  0.1973 -0.0577
14034TIP3    H263518   6.825   0.576  16.567  0.9200  1.4988  0.2433
14035TIP3   OH263519   6.754   0.701  12.073 -0.6636 -0.2960 -0.9878
14035TIP3    H163520   6.687   0.738  12.015 -1.3319 -0.3390 -0.2632
14035TIP3    H263521   6.720   0.717  12.161  0.7505  0.5404 -0.5693
14036TIP3   OH263522   5.401   5.735  15.648 -0.5541  0.0508  0.2077
14036TIP3    H163523   5.415   5.728  15.554 -2.7710 -0.6100 -0.1450
14036TIP3    H263524   5.426   5.825  15.669  2.7570 -0.6125 -0.3891
14037TIP3   OH263525   3.182   1.469  13.564  0.3679 -0.2253  0.0717
14037TIP3    H163526   3.203   1.378  13.584  0.4494 -0.0949  0.5862
14037TIP3    H263527   3.100   1.464  13.515  1.3166 -0.6930 -1.5112
14038TIP3   OH263528   4.380   1.590  14.626  0.2790 -0.4507 -0.1405
14038TIP3    H163529   4.403   1.542  14.705 -0.6225  0.2394  0.5593
14038TIP3    H263530   4.286   1.605  14.633  0.7675  3.4130  0.8617
14039TIP3   OH263531   1.480   5.388  12.533  0.0330 -0.0792  0.2441
14039TIP3    H163532   1.528   5.407  12.452  0.7003 -1.8767  0.1782
14039TIP3    H263533   1.515   5.451  12.597 -0.9831  1.8133 -0.9863
14040TIP3   OH263534   1.012   4.497   3.920  0.4796  0.1561 -0.4840
14040TIP3    H163535   0.948   4.434   3.955  1.0821 -1.1300 -1.5875
14040TIP3    H263536   0.962   4.578   3.908 -0.6978 -0.5260 -0.3882
14041TIP3   OH263537   5.957   3.199   0.788  0.0690 -0.1359  0.1245
14041TIP3    H163538   5.939   3.292   0.778 -0.7141 -0.2739  0.2119
14041TIP3    H263539   5.961   3.166   0.698 -0.1978 -0.1150  0.1034
14042TIP3   OH263540   5.503   5.169  14.817 -0.2156 -0.3584  0.0647
14042TIP3    H163541   5.461   5.129  14.741 -0.2607  0.3662 -0.3002
14042TIP3    H263542   5.448   5.244  14.838  0.6974  0.4136 -0.2173
14043TIP3   OH263543   2.962   5.923   6.867  0.1694  0.5586 -0.1584
14043TIP3    H163544   3.050   5.909   6.901 -0.4359  0.7795  1.6075
14043TIP3    H263545   2.934   5.837   6.837  0.2013 -0.0122  1.3323
14044TIP3   OH263546   1.704   0.977   5.846  0.2691  0.2851  0.2189
14044TIP3    H163547   1.738   0.915   5.911  0.7134  0.2197 -0.0703
14044TIP3    H263548   1.611   0.985   5.867  0.1956 -0.5149  0.2334
14045TIP3   OH263549   5.333   2.462  14.629  0.5026 -0.8181  0.7034
14045TIP3    H163550   5.269   2.428  14.566 -0.0200 -1.5321  1.5827
14045TIP3    H263551   5.298   2.548  14.654  0.5061 -0.7006  0.3109
14046TIP3   OH263552   5.879   4.446  13.699  0.0261  0.5689  0.4268
14046TIP3    H163553   5.886   4.351  13.704  1.8941  0.5394 -1.6366
14046TIP3    H263554   5.786   4.464  13.719 -0.0751 -1.4996  2.2311
14047TIP3   OH263555   1.172   0.539   2.957  0.3191 -0.3722  0.3849
14047TIP3    H163556   1.208   0.624   2.934  1.6545 -1.0981 -0.3402
14047TIP3    H263557   1.236   0.502   3.018 -0.9965 -0.2720  1.8957
14048TIP3   OH263558   2.077   4.666  10.709 -0.2080 -0.2099 -0.4413
14048TIP3    H163559   2.156   4.665  10.655  0.4824 -1.5946  0.5635
14048TIP3    H263560   2.067   4.577  10.741  0.0538  0.7227  2.6247
14049TIP3   OH263561   4.329   6.319   5.336 -0.1824 -0.0629  0.1313
14049TIP3    H163562   4.254   6.317   5.395 -0.9799  2.2906 -0.6885
14049TIP3    H263563   4.404   6.296   5.391 -1.1983 -0.2350  1.4828
14050TIP3   OH263564   1.465   1.214  14.101 -0.1338  0.0872  0.0791
14050TIP3    H163565   1.540   1.177  14.053 -1.0524 -1.6369 -0.1074
14050TIP3    H263566   1.407   1.139  14.115 -1.8319  1.3990  0.2337
14051TIP3   OH263567   2.211   2.513  13.027  0.0712 -0.3347  0.2561
14051TIP3    H163568   2.145   2.443  13.030  0.0258 -0.3588 -0.8971
14051TIP3    H263569   2.171   2.581  12.972  1.5324 -0.9411 -1.6750
14052TIP3   OH263570   6.631   0.964  12.450  0.4953 -0.6798  0.0148
14052TIP3    H163571   6.639   0.995  12.540 -1.6088 -0.9798  0.3732
14052TIP3    H263572   6.679   1.028  12.398  1.0915 -0.0639  1.2758
14053TIP3   OH263573   3.749   4.520   5.930  0.2971  0.5604  0.2574
14053TIP3    H163574   3.708   4.526   6.016 -0.0427  0.4841  0.1046
14053TIP3    H263575   3.773   4.428   5.921 -2.3899 -0.1344 -0.9313
14054TIP3   OH263576   6.724   0.274   5.440 -0.2737  0.9234  0.0651
14054TIP3    H163577   6.697   0.352   5.392 -1.2577  1.5107  1.4997
14054TIP3    H263578   6.671   0.275   5.519  1.7397  0.3654  1.5156
14055TIP3   OH263579   0.701   2.159   4.188 -0.1075 -0.5882  0.4744
14055TIP3    H163580   0.704   2.246   4.148  0.3376 -0.6305  0.4066
14055TIP3    H263581   0.610   2.132   4.181  0.0325 -0.7730 -0.8988
14056TIP3   OH263582   1.715   5.081   3.096  0.0169 -0.5075  0.0093
14056TIP3    H163583   1.658   5.008   3.120  0.3517 -0.5135  0.7918
14056TIP3    H263584   1.721   5.076   3.000 -0.8099 -0.8635 -0.0333
14057TIP3   OH263585   1.875   6.412   3.322 -0.4375 -0.1527  0.3889
14057TIP3    H163586   1.940   6.461   3.371 -0.4546  0.1686  0.0995
14057TIP3    H263587   1.883   6.445   3.232  0.3866 -1.5380 -0.0762
14058TIP3   OH263588   2.234   6.602  12.745 -0.0103 -0.2509 -0.1881
14058TIP3    H163589   2.233   6.684  12.695 -1.1235  0.3142  0.6995
14058TIP3    H263590   2.187   6.540  12.689  0.8641 -0.3091 -0.8791
14059TIP3   OH263591   0.113   3.216  13.657  0.3402 -0.2554  0.3341
14059TIP3    H163592   0.146   3.260  13.579  0.7199 -0.0500  0.6062
14059TIP3    H263593   0.099   3.126  13.630  0.9558 -0.3064  0.1628
14060TIP3   OH263594   3.915   2.387   4.394 -0.2078  0.6989 -0.0383
14060TIP3    H163595   3.987   2.412   4.335  1.4671  0.8906  1.9830
14060TIP3    H263596   3.915   2.454   4.462 -1.1206 -0.3054  0.9991
14061TIP3   OH263597   4.010   1.360  16.972 -0.2592  0.1775 -0.6416
14061TIP3    H163598   4.103   1.371  16.993 -0.5279 -0.5310  1.0626
14061TIP3    H263599   3.965   1.422  17.029 -0.8834  0.1275 -1.0666
14062TIP3   OH263600   2.667   4.761   3.804  0.1137  0.5892  0.1853
14062TIP3    H163601   2.600   4.810   3.853 -0.8928 -0.8002  0.2591
14062TIP3    H263602   2.712   4.709   3.871 -2.1362 -2.3406 -0.3428
14063TIP3   OH263603   4.006   4.551   1.786  0.3111 -0.4122 -0.3536
14063TIP3    H163604   3.954   4.471   1.786  1.5808 -1.2797 -1.0399
14063TIP3    H263605   4.052   4.549   1.702  2.9662 -0.7580  1.0065
14064TIP3   OH263606   2.703   1.474  13.866  0.5567  0.0148  0.0043
14064TIP3    H163607   2.786   1.449  13.826  0.0907 -0.2697 -0.8060
14064TIP3    H263608   2.639   1.413  13.829  0.1289 -0.3636  1.3090
14065TIP3   OH263609   2.629   2.792  16.075 -1.0041 -0.5956  0.6326
14065TIP3    H163610   2.597   2.863  16.019 -2.3729 -1.5654  0.1450
14065TIP3    H263611   2.586   2.807  16.159 -0.8366 -0.5270  0.7079
14066TIP3   OH263612   2.413   4.508   5.261 -0.8121 -0.7265  0.1784
14066TIP3    H163613   2.447   4.427   5.222 -0.0479 -0.3166 -0.0038
14066TIP3    H263614   2.395   4.565   5.186  0.9683  0.1860  0.4105
14067TIP3   OH263615   1.724   3.927  12.315 -0.2317  0.0345  0.1590
14067TIP3    H163616   1.754   3.897  12.229  0.7007  1.1878  0.0554
14067TIP3    H263617   1.632   3.900  12.319  0.4012 -2.3531 -0.0960
14068TIP3   OH263618   1.659   4.636   3.997 -0.3255  0.5099  0.0181
14068TIP3    H163619   1.674   4.653   4.090 -2.8073 -1.1505  0.8370
14068TIP3    H263620   1.587   4.695   3.973 -0.5541  0.0338 -0.4958
14069TIP3   OH263621   1.377   6.360   2.538 -0.4236 -0.2490  0.2189
14069TIP3    H163622   1.375   6.381   2.632 -0.8212  0.5779  0.0320
14069TIP3    H263623   1.342   6.439   2.495  0.7940 -0.1856 -0.6977
14070TIP3   OH263624   4.392   2.874  13.140 -0.0439 -0.6402  0.2822
14070TIP3    H163625   4.447   2.881  13.062 -2.5127  1.7091 -1.4357
14070TIP3    H263626   4.376   2.964  13.167  0.5162 -1.3695  3.4556
14071TIP3   OH263627   4.286   0.946  15.180  0.2322 -0.2616  0.3322
14071TIP3    H163628   4.370   0.985  15.156  1.2127 -2.0106  0.7520
14071TIP3    H263629   4.246   0.920  15.097  0.7736 -0.7186  0.2102
14072TIP3   OH263630   0.121   3.407   3.071 -0.2526  0.4155 -0.5166
14072TIP3    H163631   0.165   3.334   3.027 -1.2087  1.1360 -2.8369
14072TIP3    H263632   0.068   3.448   3.002 -1.2068  2.1615  1.1573
14073TIP3   OH263633   5.652   1.577   6.029  0.0032 -0.1074  0.0201
14073TIP3    H163634   5.635   1.666   6.000 -1.6000 -0.0944  0.8758
14073TIP3    H263635   5.689   1.587   6.117  0.4732 -0.2645 -0.1600
14074TIP3   OH263636   2.567   5.013   2.202  0.4353 -0.7349  0.4087
14074TIP3    H163637   2.598   4.927   2.176 -0.7123 -1.1747  0.4174
14074TIP3    H263638   2.509   4.997   2.276 -0.1412 -0.0162  0.1331
14075TIP3   OH263639   2.494   0.505  15.208  0.2073  0.8628  0.2877
14075TIP3    H163640   2.551   0.436  15.173 -0.5483  0.2796  0.1860
14075TIP3    H263641   2.512   0.581  15.152  0.6578  0.5931  0.0599
14076TIP3   OH263642   2.549   6.252  14.077 -0.3950 -0.1028 -0.2654
14076TIP3    H163643   2.621   6.308  14.105 -0.1492  0.0084 -1.1095
14076TIP3    H263644   2.470   6.299  14.103 -0.2005  0.8205 -1.3157
14077TIP3   OH263645   1.863   1.675  14.874 -0.1240  0.1230  0.1512
14077TIP3    H163646   1.940   1.629  14.906 -0.0488  1.0263  1.3741
14077TIP3    H263647   1.888   1.768  14.876 -1.0539  0.3871  0.0539
14078TIP3   OH263648   2.385   4.319  11.159 -0.0832  0.4329 -0.0202
14078TIP3    H163649   2.448   4.357  11.220  1.2835  0.2055 -1.2404
14078TIP3    H263650   2.423   4.334  11.072 -1.0658 -0.8843 -0.7172
14079TIP3   OH263651   5.173   4.485   2.861  0.4032  0.5258 -0.4670
14079TIP3    H163652   5.077   4.487   2.859  0.2998 -1.3099  0.6957
14079TIP3    H263653   5.197   4.424   2.791  0.7625  1.2082 -0.9547
14080TIP3   OH263654   6.297   3.515   2.564  0.5658  0.2122  0.0766
14080TIP3    H163655   6.364   3.566   2.610  0.4649 -0.8584  1.4721
14080TIP3    H263656   6.303   3.544   2.473  1.5750  1.5523  0.5400
14081TIP3   OH263657   2.894   4.676  12.317 -0.5995 -0.3598  0.3767
14081TIP3    H163658   2.977   4.676  12.269 -1.2315 -2.5179 -0.8561
14081TIP3    H263659   2.919   4.675  12.409  0.6892  0.4746  0.0674
14082TIP3   OH263660   0.432   3.060   1.609  0.0908  0.9799 -0.1561
14082TIP3    H163661   0.400   3.021   1.690 -1.8456  0.4002 -1.1444
14082TIP3    H263662   0.434   2.987   1.547  0.0506  1.7091 -1.0372
14083TIP3   OH263663   5.822   2.583  13.574  0.1587  0.6123 -0.2552
14083TIP3    H163664   5.893   2.551  13.517 -0.5330 -0.6414 -0.4430
14083TIP3    H263665   5.761   2.510  13.579 -0.9734  1.5668  0.1700
14084TIP3   OH263666   4.094   4.384  16.797  0.2622 -0.1425  0.2282
14084TIP3    H163667   4.164   4.377  16.732 -2.1476 -0.3227 -2.5425
14084TIP3    H263668   4.062   4.295  16.808 -1.1017  0.2482 -0.4336
14085TIP3   OH263669   1.003   6.529  11.050  0.2645  0.0267 -0.0912
14085TIP3    H163670   1.070   6.461  11.045  0.1986  0.0393 -1.2731
14085TIP3    H263671   0.924   6.487  11.014  0.1121  0.5855 -0.4159
14086TIP3   OH263672   4.139   1.627  11.694  0.1480 -0.0996 -0.7071
14086TIP3    H163673   4.119   1.538  11.722 -0.5968 -0.6720 -2.8924
14086TIP3    H263674   4.228   1.642  11.726  0.3050 -1.6502 -0.3317
14087TIP3   OH263675   1.090   0.541   4.099 -0.5713 -0.3888 -0.2615
14087TIP3    H163676   1.057   0.563   4.185  0.0372  0.7547 -0.2985
14087TIP3    H263677   1.178   0.505   4.115  0.3327  1.5721 -0.4782
14088TIP3   OH263678   6.426   1.505  13.002  0.5173 -0.1904  0.7171
14088TIP3    H163679   6.465   1.590  13.022 -0.2078  0.3094  0.0860
14088TIP3    H263680   6.340   1.507  13.044  0.2025 -0.3159  0.0944
14089TIP3   OH263681   1.678   1.023   1.313  0.1771  0.5955 -0.2596
14089TIP3    H163682   1.692   1.053   1.403  1.8799 -1.0312  0.0982
14089TIP3    H263683   1.584   1.003   1.309  0.1338  0.3429  1.2783
14090TIP3   OH263684   2.259   2.730  16.133 -0.1838 -0.6727 -0.3564
14090TIP3    H163685   2.304   2.732  16.218 -0.6828 -0.3475 -0.0956
14090TIP3    H263686   2.312   2.671  16.080  0.4772 -0.3960 -0.0131
14091TIP3   OH263687   6.663   2.816   5.815  0.3746 -0.0284 -0.1579
14091TIP3    H163688   6.699   2.738   5.857  0.4634  0.3319  0.4542
14091TIP3    H263689   6.739   2.862   5.780  0.1808 -1.0268 -1.9689
14092TIP3   OH263690   4.290   2.519   1.096  0.3436  0.1165  0.8065
14092TIP3    H163691   4.284   2.423   1.092 -0.7035  0.2002 -1.4112
14092TIP3    H263692   4.380   2.536   1.120  0.7285 -1.4479  0.6172
14093TIP3   OH263693   2.766   1.366   0.189  0.0454  0.0701  0.2199
14093TIP3    H163694   2.789   1.446   0.235  0.3062 -0.6871  1.4480
14093TIP3    H263695   2.819   1.298   0.231  0.0209 -0.7115 -0.9606
14094TIP3   OH263696   5.282   5.949   3.016 -0.4181 -0.0510  0.1446
14094TIP3    H163697   5.361   5.967   3.067 -0.7091 -0.7855  0.8642
14094TIP3    H263698   5.291   6.004   2.938 -0.2018  1.4756  1.1995
14095TIP3   OH263699   2.474   1.223   2.051 -0.8967 -0.0628 -0.1572
14095TIP3    H163700   2.389   1.257   2.081 -1.3018 -1.6791  0.6903
14095TIP3    H263701   2.538   1.267   2.106 -0.9990  2.2702 -1.7771
14096TIP3   OH263702   3.508   4.559   6.509 -0.4178 -0.2752  0.3199
14096TIP3    H163703   3.418   4.551   6.539 -1.0099  1.5138 -0.8331
14096TIP3    H263704   3.519   4.652   6.489  1.2225 -0.6957 -0.9554
14097TIP3   OH263705   3.058   0.226  11.401 -0.7735 -0.3413 -0.6143
14097TIP3    H163706   3.068   0.310  11.447  0.8992 -0.5671 -0.5016
14097TIP3    H263707   3.112   0.235  11.323 -0.9791 -1.1443 -0.8534
14098TIP3   OH263708   2.440   2.463  17.135 -0.6367  0.0554 -0.2704
14098TIP3    H163709   2.518   2.518  17.140 -0.3396 -0.4538  2.2052
14098TIP3    H263710   2.374   2.510  17.186 -0.6212 -1.4155  1.2067
14099TIP3   OH263711   3.326   4.413   4.263 -0.2504  0.0501 -0.0446
14099TIP3    H163712   3.418   4.434   4.278  0.1015 -0.9310 -0.7255
14099TIP3    H263713   3.284   4.497   4.247  1.2056  0.2814 -3.3449
14100TIP3   OH263714   4.816   3.772  15.288 -0.2134  0.0524 -0.3337
14100TIP3    H163715   4.781   3.761  15.200 -0.6099 -1.4391 -0.0217
14100TIP3    H263716   4.785   3.858  15.316 -2.5392 -0.6511 -0.5694
14101TIP3   OH263717   0.131   2.409  16.974 -0.2634 -0.1738 -0.3520
14101TIP3    H163718   0.158   2.461  17.051  0.0388 -0.1612 -0.4665
14101TIP3    H263719   0.132   2.471  16.902  1.7429 -0.7108 -0.8196
14102TIP3   OH263720   3.378   1.455   0.861  0.2357 -0.2437 -0.1971
14102TIP3    H163721   3.445   1.447   0.793 -0.6431  1.8137 -1.4090
14102TIP3    H263722   3.419   1.512   0.927  0.3003 -0.4281 -0.0775
14103TIP3   OH263723   2.385   2.961  11.304 -0.4659  0.8103  0.3957
14103TIP3    H163724   2.312   2.974  11.243  0.2880  0.7346 -0.5552
14103TIP3    H263725   2.345   2.929  11.384 -1.4139  0.0196 -0.3707
14104TIP3   OH263726   1.489   1.529   2.183 -0.3880  0.2898 -0.0338
14104TIP3    H163727   1.559   1.590   2.159  0.4334 -0.5538  0.1774
14104TIP3    H263728   1.515   1.495   2.268 -1.1453  0.0799  0.1229
14105TIP3   OH263729   4.105   3.485   1.976  0.5296 -0.1752 -0.1525
14105TIP3    H163730   4.191   3.445   1.990  1.7160  2.4714  0.6897
14105TIP3    H263731   4.044   3.424   2.017  1.7824 -2.6935 -1.7142
14106TIP3   OH263732   5.422   3.160  14.804 -0.0054  0.5122 -0.1623
14106TIP3    H163733   5.507   3.143  14.764 -0.1460 -2.7430  0.6291
14106TIP3    H263734   5.435   3.140  14.897 -1.4888  0.5986  0.0915
14107TIP3   OH263735   3.623   2.491   5.004  0.5248 -0.4186 -0.5210
14107TIP3    H163736   3.660   2.496   5.092  2.5769  0.0084 -1.3303
14107TIP3    H263737   3.584   2.577   4.989 -0.9438 -0.8881  0.3661
14108TIP3   OH263738   1.146   4.187   3.191 -0.2486  0.4559 -0.1891
14108TIP3    H163739   1.197   4.233   3.124 -2.1306  1.3051 -1.1166
14108TIP3    H263740   1.072   4.245   3.208 -0.9296 -0.7407  1.0997
14109TIP3   OH263741   3.886   2.309  11.208 -0.0752 -0.2891 -0.2349
14109TIP3    H163742   3.824   2.267  11.150 -3.5344  0.3680  2.6386
14109TIP3    H263743   3.935   2.237  11.247 -1.0748 -1.0936 -0.4375
14110TIP3   OH263744   6.339   1.940   2.076 -0.2926  0.5888 -0.8258
14110TIP3    H163745   6.350   1.851   2.110  0.3538  0.4389 -1.4071
14110TIP3    H263746   6.362   1.996   2.150  1.1878  0.2647 -1.0182
14111TIP3   OH263747   1.945   1.349  13.635  0.0429 -0.0693  0.6268
14111TIP3    H163748   1.975   1.414  13.699  1.9276 -1.3506  1.1215
14111TIP3    H263749   2.023   1.328  13.584 -0.7660 -1.2063 -0.1867
14112TIP3   OH263750   3.521   5.330   6.367 -0.1198  1.1678 -0.1523
14112TIP3    H163751   3.492   5.418   6.391  1.6278  1.9540 -0.7848
14112TIP3    H263752   3.463   5.304   6.296 -1.2089  1.4241  0.6066
14113TIP3   OH263753   6.487   3.320  14.937 -0.1359 -0.0714 -0.0468
14113TIP3    H163754   6.493   3.348  14.846  1.9127  0.4468  0.1966
14113TIP3    H263755   6.401   3.351  14.966 -1.2623 -1.1411 -2.0507
14114TIP3   OH263756   2.753   0.197  11.771 -0.0279 -0.4297  0.6124
14114TIP3    H163757   2.834   0.235  11.737  0.3927 -1.0545  0.9103
14114TIP3    H263758   2.729   0.131  11.706 -1.2450  0.9099 -0.3777
14115TIP3   OH263759   0.528   1.696  14.964 -0.2403 -0.4530  0.4845
14115TIP3    H163760   0.592   1.641  14.918 -0.7464 -0.8867  0.2830
14115TIP3    H263761   0.579   1.741  15.031  0.5727  0.4436 -0.7009
14116TIP3   OH263762   4.763   4.224  14.481  0.0683 -0.2068 -0.2712
14116TIP3    H163763   4.805   4.188  14.403  0.4985  1.3040 -0.7689
14116TIP3    H263764   4.834   4.268  14.529 -0.6703  1.2956 -0.4791
14117TIP3   OH263765   6.224   0.308  13.451 -0.8564  0.6397  0.3578
14117TIP3    H163766   6.279   0.270  13.519 -1.5943 -0.3735  0.4015
14117TIP3    H263767   6.192   0.390  13.490  0.3737  1.1144  0.4291
14118TIP3   OH263768   2.775   1.399  15.640  0.1539 -0.5360 -0.0794
14118TIP3    H163769   2.824   1.434  15.715  0.9363 -0.3424 -0.6665
14118TIP3    H263770   2.711   1.467  15.619 -0.1077 -0.6171  0.4501
14119TIP3   OH263771   5.359   1.642  15.721  0.6316 -0.1390  0.0995
14119TIP3    H163772   5.362   1.566  15.778 -2.2672  0.1058  0.7164
14119TIP3    H263773   5.346   1.717  15.779  0.1757  0.4263 -0.6944
14120TIP3   OH263774   5.193   6.624  12.448 -0.2190 -0.2514 -0.0247
14120TIP3    H163775   5.221   6.644  12.359  0.3489 -2.2275 -0.3386
14120TIP3    H263776   5.260   6.663  12.504 -1.8174  3.1380 -0.2355
14121TIP3   OH263777   3.892   6.642   3.599 -0.1417  0.5086  0.0988
14121TIP3    H163778   3.818   6.583   3.583 -0.6521  1.4167 -1.0016
14121TIP3    H263779   3.859   6.729   3.576  0.7027  1.1965  1.3737
14122TIP3   OH263780   3.123   6.499  13.291  0.2279  0.4044  0.1064
14122TIP3    H163781   3.053   6.493  13.356  1.2058  0.0810  1.1864
14122TIP3    H263782   3.094   6.566  13.230 -2.0717 -1.3472 -0.8604
14123TIP3   OH263783   0.156   5.329   4.251  0.2093  0.1234  0.0926
14123TIP3    H163784   0.243   5.296   4.274  0.9363  0.6262 -1.7297
14123TIP3    H263785   0.095   5.268   4.292  1.4509 -1.6664 -0.6002
14124TIP3   OH263786   1.333   6.219  16.303  0.3288 -0.7828 -0.4711
14124TIP3    H163787   1.287   6.291  16.346  0.8692  0.3673 -1.7760
14124TIP3    H263788   1.275   6.143  16.317 -0.6048  0.0364  0.2960
14125TIP3   OH263789   3.090   6.192  16.710 -0.6402  0.4728  0.2691
14125TIP3    H163790   3.009   6.145  16.693 -1.3632  0.9959  2.1089
14125TIP3    H263791   3.118   6.223  16.623 -2.6539  0.7145 -0.3326
14126TIP3   OH263792   1.162   4.997   0.187 -0.0235 -0.5442  0.5397
14126TIP3    H163793   1.156   5.090   0.204  0.3261 -0.1190 -1.3699
14126TIP3    H263794   1.101   4.981   0.115  0.4496 -1.6331  0.3435
14127TIP3   OH263795   5.394   1.817  17.198 -0.0080 -0.0144 -0.0359
14127TIP3    H163796   5.321   1.877  17.214 -0.0368  0.4359 -1.6559
14127TIP3    H263797   5.416   1.782  17.284 -1.4248  0.6627  0.6278
14128TIP3   OH263798   6.385   1.492   1.236 -0.1531  0.0512  0.2157
14128TIP3    H163799   6.348   1.579   1.221  0.3176  0.1513 -0.4214
14128TIP3    H263800   6.309   1.437   1.255 -0.6422  0.2807 -0.9690
14129TIP3   OH263801   1.694   1.723   3.100 -0.0697 -0.1787  0.3580
14129TIP3    H163802   1.782   1.756   3.080  2.0343 -2.0591  4.9841
14129TIP3    H263803   1.692   1.636   3.059  0.8026 -0.6145  1.1795
14130TIP3   OH263804   4.315   2.978   0.440 -0.2378  0.1437 -0.2849
14130TIP3    H163805   4.224   2.977   0.470 -0.6434  0.5172 -1.4408
14130TIP3    H263806   4.367   2.984   0.520 -1.2532  0.6127  0.3570
14131TIP3   OH263807   0.639   4.891   4.144  0.3047  0.4828  0.3206
14131TIP3    H163808   0.692   4.831   4.196 -0.9298  1.1882  2.5406
14131TIP3    H263809   0.549   4.875   4.173 -0.4111  1.1302 -1.4253
14132TIP3   OH263810   6.705   6.254   2.268 -0.5226  0.2828 -0.1347
14132TIP3    H163811   6.719   6.159   2.273  0.5504  0.4006 -0.6139
14132TIP3    H263812   6.786   6.292   2.301 -0.6240  1.0370 -0.7312
14133TIP3   OH263813   1.191   4.315  12.477  0.0900  0.0316 -0.7285
14133TIP3    H163814   1.226   4.294  12.563 -1.9575  1.6594  0.5837
14133TIP3    H263815   1.180   4.410  12.478 -2.5083 -0.1882 -1.7263
14134TIP3   OH263816   0.708   0.467   1.769  0.3781 -0.2170  0.0869
14134TIP3    H163817   0.662   0.402   1.823  0.1348  0.6325  0.9356
14134TIP3    H263818   0.755   0.521   1.833  0.6808  0.3586 -0.6171
14135TIP3   OH263819   1.442   6.656  11.777 -0.3693  0.3719 -0.5796
14135TIP3    H163820   1.470   6.582  11.831 -0.7866 -0.5220 -1.5496
14135TIP3    H263821   1.429   6.728  11.839 -0.8358 -0.6192  0.5078
14136TIP3   OH263822   4.224   6.474  14.658  0.6953  0.1005  0.2003
14136TIP3    H163823   4.173   6.401  14.693  0.5377  0.0374 -0.1556
14136TIP3    H263824   4.315   6.453  14.680  0.4857  0.7803  1.8722
14137TIP3   OH263825   1.879   0.393  11.981 -0.2058 -0.3920 -0.4237
14137TIP3    H163826   1.867   0.412  11.888 -1.4931 -1.9188 -0.6110
14137TIP3    H263827   1.947   0.325  11.983  0.4223  0.2335 -0.1707
14138TIP3   OH263828   2.652   4.912  16.492  0.4249 -0.6424 -0.0195
14138TIP3    H163829   2.697   4.829  16.477 -1.3679 -1.7741  0.4832
14138TIP3    H263830   2.718   4.969  16.529  1.0593 -2.7836  2.4237
14139TIP3   OH263831   1.042   1.329  11.836 -0.0174 -1.1335  0.1499
14139TIP3    H163832   1.128   1.301  11.804 -0.5450  1.2580 -4.0365
14139TIP3    H263833   1.053   1.422  11.857 -1.7674 -0.3406 -1.9856
14140TIP3   OH263834   1.259   1.482  13.785 -0.0895  0.7163 -0.1737
14140TIP3    H163835   1.346   1.461  13.820  0.2221  0.2238 -1.1895
14140TIP3    H263836   1.203   1.411  13.815 -0.1134  0.9488  0.3461
14141TIP3   OH263837   0.500   0.284  12.001 -0.3453  0.1984  0.1931
14141TIP3    H163838   0.574   0.307  11.945  0.4165 -0.7627  0.7809
14141TIP3    H263839   0.465   0.368  12.030 -0.9026  0.7307 -1.8804
14142TIP3   OH263840   5.695   2.374   1.137 -0.3880 -0.3870  0.0311
14142TIP3    H163841   5.679   2.329   1.054 -0.4160 -0.6478  0.1772
14142TIP3    H263842   5.608   2.384   1.177 -0.5187  0.7562 -0.4861
14143TIP3   OH263843   3.807   4.188   4.130 -0.7553 -0.4899  0.2905
14143TIP3    H163844   3.736   4.250   4.145 -0.3564  0.3934 -1.3177
14143TIP3    H263845   3.763   4.108   4.100 -1.2550 -0.9772  2.1999
14144TIP3   OH263846   6.716   5.680   1.395  0.6136  0.0476 -0.3046
14144TIP3    H163847   6.705   5.656   1.487  0.7832  0.2611 -0.2295
14144TIP3    H263848   6.799   5.641   1.369  0.0817 -0.8911 -0.6567
14145TIP3   OH263849   0.139   3.628  12.210 -0.1484 -0.4485  0.6628
14145TIP3    H163850   0.214   3.653  12.263  0.7042 -0.2606 -0.6037
14145TIP3    H263851   0.172   3.562  12.149 -1.3071 -1.2887  0.8919
14146TIP3   OH263852   2.852   2.080   4.748 -0.1351 -0.2080 -0.1907
14146TIP3    H163853   2.815   2.083   4.660  1.2841  0.1448 -0.7921
14146TIP3    H263854   2.843   1.988   4.775 -0.1132 -0.4236 -0.9064
14147TIP3   OH263855   6.569   0.090   0.220 -0.0286  0.6939  0.2658
14147TIP3    H163856   6.492   0.038   0.197 -1.1722  1.2184  2.5804
14147TIP3    H263857   6.643   0.029   0.213 -1.0357 -0.6256  0.7876
14148TIP3   OH263858   1.206   3.895   0.304 -0.5030 -0.2725 -0.0207
14148TIP3    H163859   1.148   3.972   0.310 -2.6673 -1.7502 -0.7078
14148TIP3    H263860   1.211   3.877   0.210 -0.4661 -1.3027  0.1705
14149TIP3   OH263861   6.063   2.672  14.536  0.3068 -0.2639  0.1622
14149TIP3    H163862   5.991   2.618  14.503  1.0764 -1.1932 -0.0584
14149TIP3    H263863   6.063   2.750  14.481  0.5654 -1.0616 -1.0069
14150TIP3   OH263864   5.679   1.885  12.024  0.1168  0.1773  0.0333
14150TIP3    H163865   5.692   1.826  12.098  0.6250  0.3496  0.0832
14150TIP3    H263866   5.767   1.905  11.993 -0.0263  1.2430  0.2761
14151TIP3   OH263867   4.527   4.939  15.060  0.7629 -0.0401  0.3143
14151TIP3    H163868   4.519   5.026  15.099 -0.4872 -0.5942  1.3587
14151TIP3    H263869   4.466   4.884  15.110 -0.6862 -0.8748 -2.1472
14152TIP3   OH263870   6.241   2.061  15.102  1.0601 -0.2632  0.3550
14152TIP3    H163871   6.231   1.970  15.128 -0.6703 -0.1017  0.4069
14152TIP3    H263872   6.305   2.060  15.032  1.6073 -1.4203  0.8622
14153TIP3   OH263873   6.726   1.932  13.483  0.1645 -0.4390  0.4594
14153TIP3    H163874   6.655   1.968  13.536  1.1056  1.1645  0.7224
14153TIP3    H263875   6.804   1.943  13.538  1.3666  2.2215 -1.5255
14154TIP3   OH263876   3.249   5.292   4.434  0.8518 -0.1548  0.0505
14154TIP3    H163877   3.264   5.220   4.496  1.7325 -0.4990 -0.5394
14154TIP3    H263878   3.336   5.323   4.411  0.4797  1.2822  0.4697
14155TIP3   OH263879   1.601   4.481  16.768  0.3471 -0.7680 -0.0570
14155TIP3    H163880   1.534   4.422  16.734  0.7535 -1.2946  0.0617
14155TIP3    H263881   1.684   4.440  16.747  0.6787  0.4157 -1.1745
14156TIP3   OH263882   0.695   3.248  12.793  0.6632  0.2757 -0.2762
14156TIP3    H163883   0.721   3.319  12.852  0.8075 -0.7048  0.8860
14156TIP3    H263884   0.759   3.251  12.722  1.1118  0.8448  0.1411
14157TIP3   OH263885   4.686   2.072  12.773 -0.1817  0.7679 -0.1620
14157TIP3    H163886   4.712   2.128  12.700  1.7126  1.2040  0.7936
14157TIP3    H263887   4.667   1.987  12.732 -1.5941  1.6440 -1.4372
14158TIP3   OH263888   5.359   3.040  15.463 -0.4788  0.0363  0.1293
14158TIP3    H163889   5.400   3.007  15.383 -1.7324 -0.7662 -0.2082
14158TIP3    H263890   5.425   3.026  15.532  0.7175  0.9772 -0.7680
14159TIP3   OH263891   4.289   3.962   1.476 -0.1304 -0.6851 -0.3839
14159TIP3    H163892   4.322   3.974   1.565  0.1342 -0.8796 -0.4545
14159TIP3    H263893   4.297   4.048   1.435  0.3529 -0.7471 -0.4211
14160TIP3   OH263894   6.203   2.424  14.593 -0.4189  0.5610 -0.3438
14160TIP3    H163895   6.211   2.378  14.509  1.0461  1.3361 -0.6642
14160TIP3    H263896   6.166   2.509  14.569 -1.1382  0.3374 -0.0358
14161TIP3   OH263897   4.769   6.182   5.247 -0.9340  0.4632  0.1055
14161TIP3    H163898   4.733   6.095   5.264 -0.8555  0.8743  2.9007
14161TIP3    H263899   4.714   6.241   5.299 -1.1641  2.1786 -1.9387
14162TIP3   OH263900   0.506   6.726   3.744 -0.2839 -0.3144  0.2772
14162TIP3    H163901   0.594   6.737   3.781 -0.6509  1.2033  0.7550
14162TIP3    H263902   0.455   6.688   3.816 -0.2947 -0.1077  0.3797
14163TIP3   OH263903   1.374   0.500   6.063  0.3479  0.1301  0.5614
14163TIP3    H163904   1.417   0.572   6.109  0.3227  0.0374  0.7350
14163TIP3    H263905   1.440   0.468   6.002  0.2745  0.4582  0.3090
14164TIP3   OH263906   3.268   2.449   3.398  0.0189  0.3554  0.6619
14164TIP3    H163907   3.251   2.472   3.489 -1.6315 -0.4495  0.5932
14164TIP3    H263908   3.182   2.430   3.362  0.6498  0.6343 -1.0766
14165TIP3   OH263909   0.758   2.901  16.219  0.2170  0.0514 -0.3726
14165TIP3    H163910   0.749   2.994  16.199 -1.3969 -0.2002 -0.9521
14165TIP3    H263911   0.720   2.891  16.306 -0.7476 -0.2385 -0.8103
14166TIP3   OH263912   2.892   6.440   1.771 -0.7513 -0.2600  0.1118
14166TIP3    H163913   2.823   6.406   1.714 -0.3403 -2.0904  0.6470
14166TIP3    H263914   2.847   6.463   1.852 -0.8287 -0.9734  0.2798
14167TIP3   OH263915   0.586   6.022  11.465 -0.0087 -0.2219 -0.1836
14167TIP3    H163916   0.545   5.993  11.384  0.1769  0.5503 -0.5567
14167TIP3    H263917   0.653   6.085  11.438 -3.4715  4.3629  0.7581
14168TIP3   OH263918   5.834   0.920   2.522  0.0488  0.3850 -0.4841
14168TIP3    H163919   5.787   0.963   2.593  3.0404  0.4963  1.5835
14168TIP3    H263920   5.791   0.834   2.514 -1.4242  1.0241  0.2517
14169TIP3   OH263921   1.804   4.399   0.737 -0.3658  0.2934  0.2700
14169TIP3    H163922   1.851   4.328   0.781  2.4844  0.7206 -1.8246
14169TIP3    H263923   1.816   4.475   0.794 -1.6836 -0.3643  1.4988
14170TIP3   OH263924   3.863   5.273  13.558 -0.0434  0.0039 -0.2419
14170TIP3    H163925   3.803   5.240  13.491 -0.0445 -1.7481  0.5668
14170TIP3    H263926   3.829   5.237  13.640  1.3357  0.0874  0.3896
14171TIP3   OH263927   3.128   6.325   1.640  0.6036  0.0373 -0.1988
14171TIP3    H163928   3.102   6.364   1.556  3.1687  1.5965 -0.4032
14171TIP3    H263929   3.070   6.365   1.704 -0.6863 -0.3516 -1.0959
14172TIP3   OH263930   0.807   1.653   1.019 -0.4876  0.2121  0.1861
14172TIP3    H163931   0.762   1.737   1.025  1.1624  1.1529  0.0297
14172TIP3    H263932   0.801   1.628   0.927 -0.2066  0.6115  0.0593
14173TIP3   OH263933   5.895   6.581  10.504 -0.3157 -0.6851  0.2351
14173TIP3    H163934   5.985   6.579  10.539 -0.3860  1.8555  0.7312
14173TIP3    H263935   5.895   6.653  10.442 -2.0942 -0.4285  0.4850
14174TIP3   OH263936   2.770   4.386  11.092 -0.2394 -0.0713  0.4295
14174TIP3    H163937   2.857   4.370  11.128 -0.7167 -1.7064  0.9286
14174TIP3    H263938   2.761   4.323  11.021 -0.3840  1.2565 -0.7836
14175TIP3   OH263939   4.299   2.207  12.533 -0.1529  0.3633 -0.8687
14175TIP3    H163940   4.351   2.207  12.453  1.1678  3.6974 -0.1843
14175TIP3    H263941   4.363   2.220  12.603 -1.2917 -2.1582  0.8051
14176TIP3   OH263942   2.691   5.839  12.192  0.0668 -0.2811 -0.3318
14176TIP3    H163943   2.773   5.790  12.187  0.1767 -0.0401 -1.0669
14176TIP3    H263944   2.623   5.776  12.171  0.1547 -0.2618 -0.6832
14177TIP3   OH263945   3.901   0.816   3.699  0.6136 -0.5797 -0.2302
14177TIP3    H163946   3.926   0.798   3.608 -1.7726  0.7925 -1.2641
14177TIP3    H263947   3.859   0.736   3.728 -0.3677 -0.3947 -1.0658
14178TIP3   OH263948   4.506   5.895  16.108  0.0237 -0.2297 -0.2615
14178TIP3    H163949   4.577   5.852  16.060 -0.1357  1.1522 -1.8445
14178TIP3    H263950   4.549   5.966  16.156 -0.2860  0.9744 -1.6751
14179TIP3   OH263951   6.592   5.368  11.551  0.5031  0.0042 -0.5865
14179TIP3    H163952   6.586   5.278  11.520 -0.6340 -0.0755 -0.1725
14179TIP3    H263953   6.647   5.363  11.630  1.1934 -0.1814 -1.0741
14180TIP3   OH263954   5.326   2.109  16.613 -0.8166 -0.0704 -0.1379
14180TIP3    H163955   5.392   2.066  16.558 -1.1763 -1.1006  0.2128
14180TIP3    H263956   5.378   2.160  16.676 -0.2549 -1.9636  1.0341
14181TIP3   OH263957   5.212   4.240  13.242  0.0169 -0.4286  0.6329
14181TIP3    H163958   5.207   4.148  13.270 -1.6100 -0.5893 -0.0600
14181TIP3    H263959   5.297   4.247  13.198  0.3744 -1.4619  1.1193
14182TIP3   OH263960   1.476   0.698   5.135  0.3149 -1.2178 -0.3804
14182TIP3    H163961   1.464   0.684   5.229 -1.1731  0.8063 -0.2215
14182TIP3    H263962   1.535   0.773   5.129 -0.5155 -0.5930 -1.0242
14183TIP3   OH263963   0.819   1.828  15.595  0.0046  0.2106  0.6567
14183TIP3    H163964   0.738   1.872  15.571 -0.0237  0.5393  1.3450
14183TIP3    H263965   0.791   1.751  15.645  0.1205  0.3351  0.9127
14184TIP3   OH263966   6.623   4.513  16.195 -0.3098 -0.1022 -0.1991
14184TIP3    H163967   6.658   4.447  16.135 -0.0052  0.4803 -0.6796
14184TIP3    H263968   6.559   4.466  16.248 -2.1708 -0.2147 -2.3979
14185TIP3   OH263969   5.392   3.919  17.200  0.1635 -0.1417  0.0291
14185TIP3    H163970   5.366   3.829  17.220  2.1994 -0.5111  1.2777
14185TIP3    H263971   5.316   3.957  17.155 -0.8286 -2.3873 -0.2974
14186TIP3   OH263972   4.808   6.132   1.475 -0.1629 -0.0800 -0.1976
14186TIP3    H163973   4.815   6.073   1.401  0.1000  1.8573 -1.7931
14186TIP3    H263974   4.855   6.211   1.448  0.9611  0.2978  2.4825
14187TIP3   OH263975   1.182   6.030  17.090 -0.4136 -0.1686  0.6932
14187TIP3    H163976   1.274   6.051  17.073 -0.4576 -1.1315 -0.9232
14187TIP3    H263977   1.183   5.940  17.121 -0.8655 -0.4460 -0.0751
14188TIP3   OH263978   1.883   5.677  16.763 -0.0685 -0.5272 -0.4649
14188TIP3    H163979   1.853   5.750  16.817 -0.8111 -1.1631  0.0030
14188TIP3    H263980   1.960   5.712  16.716 -1.1093  0.9184 -1.1752
14189TIP3   OH263981   6.603   2.629   5.184 -0.5885  0.1143  0.4850
14189TIP3    H163982   6.521   2.610   5.229 -0.8974 -1.6862 -0.7401
14189TIP3    H263983   6.600   2.576   5.105  0.5137  2.1913 -1.0432
14190TIP3   OH263984   1.033   6.076   6.624 -0.2442  0.0784 -0.0399
14190TIP3    H163985   0.967   6.130   6.667 -0.1541  1.4933 -1.5524
14190TIP3    H263986   1.061   6.013   6.691 -2.0618  0.3780  1.0678
14191TIP3   OH263987   6.147   2.950  16.933  0.4441  0.5993 -0.2379
14191TIP3    H163988   6.214   2.889  16.965  0.8636  1.4664  0.5793
14191TIP3    H263989   6.160   3.029  16.984 -0.0848  1.3979 -1.2972
14192TIP3   OH263990   5.417   2.301  12.601  0.2454  0.4805  0.2707
14192TIP3    H163991   5.416   2.395  12.581 -0.9535  0.1804 -1.2838
14192TIP3    H263992   5.386   2.259  12.521  2.1328 -1.3671  0.4270
14193TIP3   OH263993   5.309   1.517   1.249 -0.3819  0.2392 -0.1034
14193TIP3    H163994   5.377   1.528   1.183  0.4082  0.4878  0.7289
14193TIP3    H263995   5.338   1.572   1.322 -1.0543 -0.3037  0.5826
14194TIP3   OH263996   6.002   3.738  13.345 -0.6957  0.0887  0.5595
14194TIP3    H163997   5.924   3.712  13.295 -0.2711  1.5615 -0.9335
14194TIP3    H263998   6.000   3.681  13.422 -3.6323  0.5439  0.9419
14195TIP3   OH263999   3.321   2.556  16.859  0.7711  0.3003 -0.0028
14195TIP3    H164000   3.361   2.591  16.780 -1.4130  1.3071 -0.7244
14195TIP3    H264001   3.376   2.481  16.882  1.6987  0.2281 -2.2305
14196TIP3   OH264002   2.239   4.908   2.596  0.4917 -0.0540 -0.1556
14196TIP3    H164003   2.216   4.829   2.546 -1.9073  1.6002 -1.9207
14196TIP3    H264004   2.155   4.952   2.610  1.8553  2.9166 -0.5924
14197TIP3   OH264005   2.436   5.440  15.119 -0.0703 -0.3010  0.8425
14197TIP3    H164006   2.380   5.384  15.174  0.7173  0.2132  2.2007
14197TIP3    H264007   2.509   5.464  15.175  1.8093 -1.3387 -1.0257
14198TIP3   OH264008   4.152   5.499   2.747  0.0661 -0.2911  0.3513
14198TIP3    H164009   4.133   5.468   2.836  2.9596 -0.4511  1.0294
14198TIP3    H264010   4.085   5.458   2.692 -0.2514 -2.3326  2.1065
14199TIP3   OH264011   6.187   5.536   3.974 -0.2068  0.2782  0.5564
14199TIP3    H164012   6.189   5.582   3.890 -1.5106  0.5760  0.6671
14199TIP3    H264013   6.234   5.454   3.958 -1.3339 -0.1328 -0.7544
14200TIP3   OH264014   4.394   2.634  11.980 -0.0644 -0.1883 -0.3120
14200TIP3    H164015   4.474   2.608  12.025  1.3218  0.1658 -2.4369
14200TIP3    H264016   4.356   2.552  11.949  0.1762 -0.2601 -0.4152
14201TIP3   OH264017   5.152   5.249  11.653 -0.1059  0.1587  0.2621
14201TIP3    H164018   5.103   5.173  11.621  1.3592 -0.8479  0.3330
14201TIP3    H264019   5.238   5.242  11.611  0.3556  1.2851  0.9783
14202TIP3   OH264020   3.396   5.930   4.799 -0.2622  0.2860 -0.2233
14202TIP3    H164021   3.419   5.907   4.889 -2.1615  1.5618  0.6587
14202TIP3    H264022   3.474   5.909   4.748  0.5080 -1.4302  1.5371
14203TIP3   OH264023   2.905   0.531   2.076 -0.1763  0.5883  0.2971
14203TIP3    H164024   2.961   0.480   2.017 -1.2197 -1.5725  1.0393
14203TIP3    H264025   2.830   0.555   2.022  0.0192  0.7790  0.1087
14204TIP3   OH264026   2.504   5.663   5.267  0.2068  0.0602 -0.1328
14204TIP3    H164027   2.446   5.653   5.191  0.9428  0.7726 -0.8171
14204TIP3    H264028   2.584   5.617   5.241  1.1646  1.8791 -0.5954
14205TIP3   OH264029   4.813   1.308   2.136  0.6346 -0.4560 -0.1619
14205TIP3    H164030   4.807   1.387   2.083  1.6469 -1.3260 -1.6430
14205TIP3    H264031   4.907   1.300   2.157  0.7535 -1.9203 -1.1143
14206TIP3   OH264032   6.017   6.706  13.375 -0.4955  0.1045  0.5497
14206TIP3    H164033   5.978   6.777  13.325  1.3434  1.2533  0.6323
14206TIP3    H264034   6.014   6.631  13.316  1.9851  1.5054 -1.6120
14207TIP3   OH264035   0.668   3.340  14.393  0.0982  0.1729  0.3578
14207TIP3    H164036   0.645   3.316  14.483 -2.8026  2.8938  0.5289
14207TIP3    H264037   0.652   3.261  14.341 -0.5086 -0.7427  1.8910
14208TIP3   OH264038   6.136   3.969  15.303  0.2617  0.1692 -0.1557
14208TIP3    H164039   6.177   3.886  15.324 -1.5914 -0.6309  0.5721
14208TIP3    H264040   6.145   3.978  15.208  1.3401 -0.3682 -0.1063
14209TIP3   OH264041   1.750   2.647   1.230  0.7975 -0.6106  0.5576
14209TIP3    H164042   1.833   2.673   1.270  0.5045  1.7170 -0.1755
14209TIP3    H264043   1.692   2.722   1.244 -0.8116 -1.6948 -0.0050
14210TIP3   OH264044   5.690   1.900   4.880 -0.5227  0.5185 -0.1191
14210TIP3    H164045   5.655   1.965   4.941  0.4335  0.7247  0.2406
14210TIP3    H264046   5.634   1.906   4.803  0.0246  2.3723 -0.4328
14211TIP3   OH264047   0.968   1.552  12.888 -0.5544  0.7217 -0.0511
14211TIP3    H164048   1.061   1.531  12.893 -0.6192  0.5695  0.6569
14211TIP3    H264049   0.960   1.612  12.814  0.2266  1.3179  0.3341
14212TIP3   OH264050   2.562   6.564  16.795  0.2345 -1.0164  0.1898
14212TIP3    H164051   2.560   6.494  16.860  0.5611 -1.3564 -0.1587
14212TIP3    H264052   2.655   6.589  16.790  0.5998 -2.4668 -1.6789
14213TIP3   OH264053   3.501   6.727   3.944 -0.0416  0.0745  0.2902
14213TIP3    H164054   3.453   6.689   3.870  1.2322 -0.7911 -0.1235
14213TIP3    H264055   3.515   6.654   4.004  1.8120  0.0086 -0.1723
14214TIP3   OH264056   3.554   2.766   5.963  0.0964 -0.6059 -0.3442
14214TIP3    H164057   3.459   2.780   5.966  0.3155  2.3188 -2.6701
14214TIP3    H264058   3.566   2.697   5.899 -0.4699 -2.4784  1.4692
14215TIP3   OH264059   0.936   1.134   0.254  0.3490 -0.0473 -0.1176
14215TIP3    H164060   0.852   1.165   0.286  0.5039 -0.4674  0.7360
14215TIP3    H264061   0.973   1.085   0.328  0.8348 -0.8376 -0.8577
14216TIP3   OH264062   2.605   0.942   0.062 -0.0364 -0.6287 -0.2894
14216TIP3    H164063   2.509   0.945   0.072  0.0056  0.2889 -0.0408
14216TIP3    H264064   2.629   1.032   0.038  0.9009 -0.5042  1.0281
14217TIP3   OH264065   1.541   5.874   3.051 -0.1817  0.2154  0.4501
14217TIP3    H164066   1.603   5.825   2.998  1.9187  1.4031  1.6573
14217TIP3    H264067   1.502   5.809   3.110 -0.1190 -0.5454 -0.3372
14218TIP3   OH264068   3.607   6.473   2.602 -0.1027 -0.2907 -0.1562
14218TIP3    H164069   3.680   6.428   2.645 -1.9522 -1.5232  1.9023
14218TIP3    H264070   3.648   6.550   2.561  2.8411 -2.5908 -1.9701
14219TIP3   OH264071   0.718   3.865   4.870  0.1900  0.0785 -0.6679
14219TIP3    H164072   0.694   3.826   4.786  2.0180  0.1276 -1.2656
14219TIP3    H264073   0.744   3.791   4.925 -1.6099 -0.0199  0.1242
14220TIP3   OH264074   4.060   5.793  17.304  0.3731 -0.3908  0.3447
14220TIP3    H164075   4.116   5.732  17.257 -0.0999  0.9428 -2.1400
14220TIP3    H264076   4.088   5.879  17.274 -0.8471  0.4695  1.5530
14221TIP3   OH264077   4.301   0.400   2.057 -0.8338 -0.0165 -0.2252
14221TIP3    H164078   4.334   0.446   2.134  2.7277 -1.5086 -0.6871
14221TIP3    H264079   4.361   0.427   1.987 -1.2296 -2.1197 -1.4243
14222TIP3   OH264080   6.642   4.904   5.939  0.2570  0.6667  0.0937
14222TIP3    H164081   6.561   4.931   5.984 -2.0287 -1.3356 -2.4422
14222TIP3    H264082   6.652   4.812   5.962  0.3947  0.2538 -1.5097
14223TIP3   OH264083   5.947   1.953   4.169  0.1374 -0.3452 -0.2523
14223TIP3    H164084   5.972   1.867   4.136  0.5210 -0.2087 -0.3242
14223TIP3    H264085   5.980   1.955   4.259  2.0351  0.5077 -0.9051
14224TIP3   OH264086   5.447   5.959  16.666  0.0635  0.2300 -0.4271
14224TIP3    H164087   5.467   5.990  16.577  1.1972  0.6252 -0.0463
14224TIP3    H264088   5.442   5.864  16.657  0.5012  0.2418 -0.8674
14225TIP3   OH264089   2.440   1.205  13.145 -0.1571 -0.3818 -0.0388
14225TIP3    H164090   2.426   1.300  13.148  2.2599  0.0521 -0.2469
14225TIP3    H264091   2.364   1.171  13.097 -1.8676  1.2205  1.3751
14226TIP3   OH264092   1.910   1.558   0.241  0.0923 -0.2515 -0.0162
14226TIP3    H164093   1.913   1.636   0.296 -0.5800 -0.8743  0.9454
14226TIP3    H264094   1.987   1.507   0.267  0.0408 -0.3198  0.0046
14227TIP3   OH264095   6.007   2.352   0.557  0.0856  0.3743  0.1935
14227TIP3    H164096   5.920   2.369   0.592 -0.6501 -1.8280 -0.3862
14227TIP3    H264097   6.019   2.417   0.488 -0.6516  1.3622  0.9891
14228TIP3   OH264098   5.471   1.909   1.740 -0.7441 -0.0243 -0.2565
14228TIP3    H164099   5.383   1.873   1.735 -1.8090  2.4525 -0.5281
14228TIP3    H264100   5.461   2.002   1.719  1.7335  0.6149  0.9711
14229TIP3   OH264101   2.151   3.449   4.383 -0.2320  0.5294  0.0592
14229TIP3    H164102   2.157   3.364   4.427 -2.1962  0.2024 -0.2037
14229TIP3    H264103   2.100   3.503   4.443 -0.4926  0.9710 -0.5561
14230TIP3   OH264104   3.726   0.757   6.649  0.3013 -0.0512 -1.2625
14230TIP3    H164105   3.673   0.814   6.704  1.5822 -0.5633  0.6054
14230TIP3    H264106   3.804   0.739   6.701  0.1885 -3.0919 -1.9909
14231TIP3   OH264107   1.692   0.485   6.559  0.2779  0.5746 -0.1062
14231TIP3    H164108   1.760   0.460   6.496 -0.4186  3.5321 -2.2379
14231TIP3    H264109   1.635   0.409   6.564  2.2359 -0.9966 -0.3191
14232TIP3   OH264110   0.684   0.608  11.883  0.1423 -0.1551  0.5474
14232TIP3    H164111   0.596   0.600  11.920 -0.5309  1.7844 -0.5083
14232TIP3    H264112   0.721   0.520  11.889 -2.7375 -1.6000 -1.1603
14233TIP3   OH264113   3.126   1.067   5.273  0.2299  0.2890  0.0677
14233TIP3    H164114   3.052   1.058   5.333  0.5272 -0.1408  0.3749
14233TIP3    H264115   3.191   1.004   5.305 -0.2449 -1.1667 -1.6517
14234TIP3   OH264116   1.948   4.637  13.360  0.2586  0.2311 -0.2178
14234TIP3    H164117   2.044   4.640  13.367  0.1895 -0.9603  2.3301
14234TIP3    H264118   1.925   4.719  13.315  2.3115  2.2579  2.0682
14235TIP3   OH264119   1.428   2.700   1.314  0.4376 -0.2701  0.2098
14235TIP3    H164120   1.431   2.678   1.407  2.1078 -1.5361 -0.1056
14235TIP3    H264121   1.477   2.783   1.307 -0.6805  0.4451  0.5822
14236TIP3   OH264122   5.273   3.713  12.101  0.0549 -0.4061 -0.2948
14236TIP3    H164123   5.207   3.773  12.066 -0.7500  0.5352  2.5656
14236TIP3    H264124   5.227   3.663  12.168  1.9448 -0.5795  0.9459
14237TIP3   OH264125   2.278   2.605   4.615  0.2281 -0.2272  0.0091
14237TIP3    H164126   2.278   2.510   4.627 -0.2380 -0.2017  0.2081
14237TIP3    H264127   2.195   2.624   4.571  0.2526  0.1063  0.1046
14238TIP3   OH264128   4.547   2.718   5.762 -0.5952  0.3376 -0.3587
14238TIP3    H164129   4.482   2.776   5.723 -2.4968 -1.0492  0.5701
14238TIP3    H264130   4.607   2.776   5.808 -1.5438  1.6384 -0.7146
14239TIP3   OH264131   2.708   1.227  13.230 -0.2396  0.2539 -0.4674
14239TIP3    H164132   2.723   1.308  13.183 -0.1641 -0.5277 -1.8378
14239TIP3    H264133   2.625   1.194  13.196 -1.1713  0.6024  1.3429
14240TIP3   OH264134   3.086   0.371  14.733 -0.5244 -0.2061  0.0578
14240TIP3    H164135   3.134   0.323  14.666  2.4493 -0.9049  2.4943
14240TIP3    H264136   2.994   0.352  14.715  0.2836 -2.3536 -2.2868
14241TIP3   OH264137   6.072   3.724   1.640 -0.3484 -0.0944 -0.0801
14241TIP3    H164138   6.025   3.780   1.702 -1.1617 -0.3181 -0.4788
14241TIP3    H264139   6.133   3.675   1.695 -1.7390 -1.0112  0.7243
14242TIP3   OH264140   6.573   0.363   0.662 -0.3981  0.5767  0.3487
14242TIP3    H164141   6.617   0.308   0.727 -0.1834  0.2692 -0.0559
14242TIP3    H264142   6.638   0.376   0.593 -0.9667  0.0416 -0.2990
14243TIP3   OH264143   6.022   1.820  12.631  0.0091 -0.2318  0.2756
14243TIP3    H164144   6.050   1.842  12.720 -2.6204  1.3915  0.7942
14243TIP3    H264145   6.036   1.900  12.581  0.8483 -0.9365 -0.6898
14244TIP3   OH264146   5.462   5.342   2.167 -0.3838  0.7965 -0.8123
14244TIP3    H164147   5.379   5.380   2.196 -1.1535 -1.2766 -0.0730
14244TIP3    H264148   5.516   5.342   2.246  0.2218  1.8581 -1.2180
14245TIP3   OH264149   2.154   3.543   1.890  0.1198  0.6040 -0.3689
14245TIP3    H164150   2.069   3.585   1.901 -0.5587 -0.8349  0.0970
14245TIP3    H264151   2.214   3.597   1.942 -0.6481  1.2054 -0.0916
14246TIP3   OH264152   5.136   0.416   2.362  0.0337  0.3565 -0.0196
14246TIP3    H164153   5.090   0.482   2.413  0.1157  0.1108  0.3776
14246TIP3    H264154   5.104   0.332   2.397  1.7439  0.1670  1.1492
14247TIP3   OH264155   5.001   2.178   5.393 -0.3025 -0.0458 -0.0969
14247TIP3    H164156   4.995   2.256   5.449 -0.5062 -0.0823 -0.0677
14247TIP3    H264157   5.094   2.157   5.392 -0.0449  1.0107 -1.2119
14248TIP3   OH264158   6.512   6.463  17.161  0.0648  0.5807  0.1559
14248TIP3    H164159   6.427   6.420  17.171  0.8048 -0.6776  1.3632
14248TIP3    H264160   6.569   6.396  17.123  0.3870  1.6171 -1.2900
14249TIP3   OH264161   5.349   2.350   4.566 -0.2525  0.4251  0.2187
14249TIP3    H164162   5.419   2.290   4.540 -0.1919  1.3931 -2.0630
14249TIP3    H264163   5.271   2.296   4.571 -0.0513  0.0018 -1.0403
14250TIP3   OH264164   0.365   2.491  11.103  0.3856 -0.1032 -0.7193
14250TIP3    H164165   0.445   2.497  11.155  0.4419  0.3225 -0.8501
14250TIP3    H264166   0.374   2.559  11.036 -0.6402  0.8282  0.0446
14251TIP3   OH264167   1.052   1.078  14.299  0.0430  0.0513 -0.2171
14251TIP3    H164168   1.127   1.060  14.243 -0.0823  0.9760 -0.7103
14251TIP3    H264169   1.077   1.156  14.349 -1.1693  1.3641 -1.5616
14252TIP3   OH264170   6.049   1.505   1.903 -0.3738  0.3468  0.0082
14252TIP3    H164171   5.989   1.536   1.835 -1.2453  1.3913  1.2020
14252TIP3    H264172   5.998   1.511   1.984  0.2743 -1.8763  0.6522
14253TIP3   OH264173   0.496   6.313  17.230  0.2905 -0.5141  0.7488
14253TIP3    H164174   0.479   6.230  17.186 -0.3558  0.6445 -1.2846
14253TIP3    H264175   0.584   6.304  17.266  0.6536 -1.6861 -0.3831
14254TIP3   OH264176   0.548   1.888  16.140 -0.4667  0.4661  0.2342
14254TIP3    H164177   0.553   1.966  16.085  2.3155  0.7797  0.7797
14254TIP3    H264178   0.594   1.821  16.090  1.0158  0.4139  1.5937
14255TIP3   OH264179   4.184   5.633  10.658  0.4575  0.1310 -0.0745
14255TIP3    H164180   4.222   5.677  10.734  1.0220  0.0668 -0.3074
14255TIP3    H264181   4.095   5.610  10.684  1.2080 -1.5047  1.2304
14256TIP3   OH264182   6.299   5.216  14.956 -0.4380 -0.0138  0.3218
14256TIP3    H164183   6.294   5.246  15.047  0.1379  0.3011  0.2548
14256TIP3    H264184   6.393   5.215  14.936 -0.6276  1.8073 -0.8947
14257TIP3   OH264185   0.920   1.806  15.291  0.1860 -0.3034  0.4217
14257TIP3    H164186   0.994   1.752  15.264  1.0098  0.9577  0.1193
14257TIP3    H264187   0.876   1.830  15.210  0.5101  0.4439  0.4620
14258TIP3   OH264188   5.454   3.322  14.065 -0.7215  0.1564 -0.3232
14258TIP3    H164189   5.398   3.384  14.018  0.2259  1.2495 -0.0714
14258TIP3    H264190   5.479   3.369  14.145  1.2917  0.0921 -0.8600
14259TIP3   OH264191   5.098   3.599   2.944  0.7424 -0.1332  0.4629
14259TIP3    H164192   5.144   3.598   3.029  0.0133 -0.2830  0.8647
14259TIP3    H264193   5.023   3.657   2.958  0.9231  0.2901 -0.2566
14260TIP3   OH264194   5.183   2.031   1.220 -0.0868 -0.4836 -0.2085
14260TIP3    H164195   5.258   2.027   1.279  0.3721 -0.0999 -0.7499
14260TIP3    H264196   5.215   1.989   1.139 -0.7806 -1.2310 -0.1088
14261TIP3   OH264197   6.744   1.176   0.493  0.1758  0.9172 -0.1963
14261TIP3    H164198   6.822   1.152   0.443  0.3313 -1.3203  0.9928
14261TIP3    H264199   6.767   1.259   0.535  1.3666  0.9943 -0.9514
14262TIP3   OH264200   4.064   3.973  13.199  0.1941 -0.3379  0.7733
14262TIP3    H164201   4.115   4.048  13.229  0.2333 -0.8361  2.0468
14262TIP3    H264202   4.124   3.924  13.143  0.9055 -0.5373  1.6831
14263TIP3   OH264203   5.940   0.903   0.041  0.1603 -0.0645  0.8898
14263TIP3    H164204   5.893   0.829   0.078  0.5860 -0.9740 -0.3175
14263TIP3    H264205   6.032   0.881   0.051  0.3181  0.8348  1.5368
14264TIP3   OH264206   5.592   1.906  13.655  0.3636 -0.4241 -0.1950
14264TIP3    H164207   5.658   1.975  13.660 -0.2205  0.0670  1.5434
14264TIP3    H264208   5.639   1.828  13.626  2.0396 -0.4047  2.1593
14265TIP3   OH264209   1.609   6.697  12.424 -0.2479 -0.0255 -0.5704
14265TIP3    H164210   1.605   6.603  12.404  0.3537 -0.1973  0.0488
14265TIP3    H264211   1.658   6.735  12.351 -2.5894  0.2385 -2.1113
14266TIP3   OH264212   5.718   0.313   1.674 -0.3974  0.0555  0.6125
14266TIP3    H164213   5.627   0.335   1.694 -0.7289 -0.9631  0.3110
14266TIP3    H264214   5.739   0.243   1.735  1.1609  2.1492  2.6598
14267TIP3   OH264215   2.475   3.908   1.278 -0.0128  0.6516  0.3367
14267TIP3    H164216   2.487   3.999   1.306 -0.0913  0.8554 -0.2680
14267TIP3    H264217   2.467   3.858   1.359  0.2473  1.1568  0.6752
14268TIP3   OH264218   2.928   2.021  12.979  0.2683  0.4005  0.1269
14268TIP3    H164219   2.900   1.958  13.044 -0.0707  0.4209 -0.0005
14268TIP3    H264220   2.989   1.972  12.923  0.0961  0.2164  0.0977
14269TIP3   OH264221   6.477   3.367  17.177 -0.5779 -0.3146 -0.4336
14269TIP3    H164222   6.457   3.377  17.083 -0.1409 -0.2493 -0.5189
14269TIP3    H264223   6.508   3.453  17.204 -0.9886 -0.2490 -0.1541
14270TIP3   OH264224   3.833   6.712   0.388  0.1199  0.2350 -0.2602
14270TIP3    H164225   3.781   6.662   0.450  1.9424  1.0279  2.0466
14270TIP3    H264226   3.831   6.660   0.308 -4.2935  0.3284 -0.4720
14271TIP3   OH264227   2.852   1.737   1.806  0.3316 -0.1138  0.3260
14271TIP3    H164228   2.821   1.692   1.884 -0.5158  1.7253  1.1210
14271TIP3    H264229   2.793   1.709   1.736 -0.8667  0.5530  1.0414
14272TIP3   OH264230   3.959   2.835  14.186 -0.4046 -0.0125  0.2321
14272TIP3    H164231   3.946   2.911  14.128 -1.2786 -0.6165 -0.3891
14272TIP3    H264232   3.974   2.874  14.272  0.2789  0.8893 -0.2748
14273TIP3   OH264233   2.147   6.298   1.753 -0.3014 -0.0319 -0.5596
14273TIP3    H164234   2.162   6.263   1.841 -0.8780 -2.4541 -1.3478
14273TIP3    H264235   2.221   6.266   1.701  0.0466  1.3953 -0.9768
14274TIP3   OH264236   4.361   5.298  16.287 -0.2948 -0.3476 -0.5783
14274TIP3    H164237   4.366   5.203  16.270  2.6577 -0.0899 -1.7885
14274TIP3    H264238   4.409   5.310  16.369 -0.8025  0.0834 -0.3440
14275TIP3   OH264239   4.869   1.969   3.240 -0.2878 -0.3270  0.2661
14275TIP3    H164240   4.822   1.991   3.321 -1.0331  1.3589 -0.5759
14275TIP3    H264241   4.821   2.016   3.171  1.1775 -0.5754 -0.9656
14276TIP3   OH264242   0.100   6.010  14.212  0.6115  0.4736 -0.0141
14276TIP3    H164243   0.185   6.050  14.232  0.7604 -0.2687  0.9329
14276TIP3    H264244   0.041   6.084  14.198  1.3652  0.9991 -0.5034
14277TIP3   OH264245   5.398   5.670  12.881 -0.3480  0.7529 -0.6267
14277TIP3    H164246   5.316   5.670  12.832 -0.8945  0.6033  0.2521
14277TIP3    H264247   5.370   5.661  12.973  0.6884 -0.3003 -0.3912
14278TIP3   OH264248   5.999   6.713  12.258 -0.2829 -0.0834  0.1197
14278TIP3    H164249   5.942   6.723  12.334 -0.7440  0.0084 -0.2324
14278TIP3    H264250   5.950   6.754  12.186 -0.4410 -1.3412 -0.5152
14279TIP3   OH264251   0.800   4.542   4.436  0.5403  0.3408  0.1359
14279TIP3    H164252   0.770   4.459   4.473 -2.5769  0.8088 -1.0723
14279TIP3    H264253   0.747   4.608   4.480  1.7265  1.5612 -0.2007
14280TIP3   OH264254   3.653   0.222  15.856  0.0809 -0.3919 -0.0385
14280TIP3    H164255   3.621   0.201  15.943 -1.1127 -1.3758 -0.6795
14280TIP3    H264256   3.713   0.150  15.835 -0.1680 -0.5257 -0.2956
14281TIP3   OH264257   6.605   0.010   4.710  0.4985 -0.0394  0.5450
14281TIP3    H164258   6.629  -0.070   4.757  0.3710  0.1732  0.9811
14281TIP3    H264259   6.687   0.041   4.671  0.4198 -0.7336 -0.1684
14282TIP3   OH264260   2.472   5.794   1.466  0.2636  0.0745 -0.0739
14282TIP3    H164261   2.563   5.766   1.457  1.0196  1.7244  1.7311
14282TIP3    H264262   2.465   5.828   1.555 -1.7948  1.1432 -0.5567
14283TIP3   OH264263   5.710   3.230   1.473  0.3186  0.2137  0.3749
14283TIP3    H164264   5.629   3.241   1.424 -0.6319 -0.8376  1.6350
14283TIP3    H264265   5.700   3.287   1.550  2.1307  2.4822 -0.9486
14284TIP3   OH264266   6.332   3.388   5.662  0.0481  0.1278  0.3989
14284TIP3    H164267   6.270   3.325   5.625 -0.3578  1.0104 -0.4493
14284TIP3    H264268   6.415   3.369   5.619 -0.7351  2.1293 -2.2419
14285TIP3   OH264269   3.627   6.148  14.082 -0.1979 -0.2502  0.5845
14285TIP3    H164270   3.673   6.207  14.022 -0.7442  0.0248  0.4274
14285TIP3    H264271   3.590   6.080  14.026  0.2562 -0.6381  0.7430
14286TIP3   OH264272   4.265   4.015   4.064 -0.4737 -0.3637  0.9923
14286TIP3    H164273   4.219   4.099   4.070 -0.3280 -0.3172  1.5082
14286TIP3    H264274   4.322   4.025   3.988 -1.3811 -0.4635  0.2726
14287TIP3   OH264275   3.869   6.637   3.201  0.5324 -0.6350 -0.0549
14287TIP3    H164276   3.924   6.675   3.133  0.5307  0.5456  0.5815
14287TIP3    H264277   3.930   6.587   3.256  0.7713 -0.3739 -0.0817
14288TIP3   OH264278   6.396   2.777   4.521  0.7558 -0.2642 -0.4223
14288TIP3    H164279   6.399   2.780   4.425  2.4227  1.0454 -0.3749
14288TIP3    H264280   6.429   2.862   4.549  2.2283 -1.3373  1.3360
14289TIP3   OH264281   2.853   3.201  12.504  0.0808  0.2648 -0.1411
14289TIP3    H164282   2.936   3.225  12.464  0.1091  0.2753 -0.0762
14289TIP3    H264283   2.870   3.203  12.598  0.2693 -0.6608 -0.1457
14290TIP3   OH264284   0.207   2.514  17.208 -0.4349  0.1559 -0.3393
14290TIP3    H164285   0.130   2.566  17.231 -0.5434 -0.1897  0.0840
14290TIP3    H264286   0.272   2.536  17.274  0.0834  0.9868 -1.1060
14291TIP3   OH264287   0.587   1.329   4.040  0.4598 -0.3509  0.2444
14291TIP3    H164288   0.591   1.311   3.947  1.7913 -1.0687  0.4245
14291TIP3    H264289   0.577   1.424   4.046 -0.0312 -0.3421 -0.6176
14292TIP3   OH264290   4.380   1.784  16.472 -0.1995  0.0942 -0.1060
14292TIP3    H164291   4.450   1.724  16.496  0.3755  1.5759  2.1787
14292TIP3    H264292   4.311   1.768  16.536 -0.9207  0.4121 -0.7845
14293TIP3   OH264293   1.965   5.622  17.066  0.1195 -0.2150  0.4288
14293TIP3    H164294   2.043   5.636  17.012  0.2817  1.6735  1.0808
14293TIP3    H264295   1.946   5.708  17.104 -0.9706 -1.1334  2.0769
14294TIP3   OH264296   5.872   0.639   0.982 -0.5553  0.3549  0.2125
14294TIP3    H164297   5.872   0.705   0.913  0.2801  0.4253  0.2683
14294TIP3    H264298   5.843   0.559   0.939  1.3598  0.0479 -0.5849
14295TIP3   OH264299   0.680   2.199  15.537  0.5585 -0.1203 -0.6466
14295TIP3    H164300   0.746   2.156  15.483 -0.3747  0.6651 -2.5071
14295TIP3    H264301   0.722   2.279  15.568  0.2332  0.8549 -2.6013
14296TIP3   OH264302   6.682   3.562  15.460  0.4411 -0.1710  0.0442
14296TIP3    H164303   6.777   3.577  15.465  0.5024 -0.4764 -0.2053
14296TIP3    H264304   6.672   3.484  15.405  0.0568 -0.3260  0.3283
14297TIP3   OH264305   1.220   5.463  15.638 -0.3487  0.4921  0.3207
14297TIP3    H164306   1.259   5.512  15.566  0.5037  0.1659  0.5424
14297TIP3    H264307   1.295   5.420  15.681 -0.6740  1.6330  2.1301
14298TIP3   OH264308   6.231   3.270   2.373 -0.2215 -0.2356 -0.4630
14298TIP3    H164309   6.301   3.299   2.314  0.8797  0.4724  1.1140
14298TIP3    H264310   6.157   3.327   2.353 -0.5001 -1.2174 -2.3875
14299TIP3   OH264311   5.078   3.409   3.407 -0.9582  0.1360 -0.4485
14299TIP3    H164312   5.168   3.416   3.375 -0.5861 -0.4825  0.4400
14299TIP3    H264313   5.086   3.402   3.502 -2.1007  3.8766  0.1003
14300TIP3   OH264314   2.604   2.936  11.862 -0.0101  0.5308 -0.3072
14300TIP3    H164315   2.628   2.948  11.954  0.2615  0.4347 -0.3632
14300TIP3    H264316   2.557   2.852  11.860  0.8758  0.0263 -0.4136
14301TIP3   OH264317   1.402   2.383  14.601  0.0360 -0.3746  0.2885
14301TIP3    H164318   1.438   2.416  14.519 -1.0013 -0.6107 -0.2857
14301TIP3    H264319   1.378   2.292  14.582 -0.6661 -0.2888  0.6912
14302TIP3   OH264320   4.200   0.364  16.344  0.1823 -1.0974 -0.1283
14302TIP3    H164321   4.275   0.312  16.372  0.9925 -0.0500 -0.3144
14302TIP3    H264322   4.231   0.454  16.345 -1.7928 -0.3497  2.1581
14303TIP3   OH264323   3.402   3.602  13.168  0.3650  0.1347 -0.4565
14303TIP3    H164324   3.307   3.591  13.162  0.2311  0.8462  0.0944
14303TIP3    H264325   3.414   3.697  13.174  0.9472 -0.0259  1.6902
14304TIP3   OH264326   4.025   0.658  13.740  0.0325  0.3267  0.3170
14304TIP3    H164327   4.104   0.603  13.737 -0.6917 -1.0153  2.6113
14304TIP3    H264328   3.973   0.630  13.666  0.4994 -0.8023  0.3957
14305TIP3   OH264329   2.974   4.560   2.099  0.7224 -0.6825  0.1032
14305TIP3    H164330   2.881   4.551   2.075  0.4190 -2.7115  1.7221
14305TIP3    H264331   3.022   4.521   2.026  0.4120  1.1743 -1.1586
14306TIP3   OH264332   5.619   1.079   4.108 -0.5125  0.6255  0.1914
14306TIP3    H164333   5.654   0.999   4.147  0.9763  1.4134  0.5462
14306TIP3    H264334   5.566   1.119   4.178 -0.8187  0.2318  0.1884
14307TIP3   OH264335   3.203   6.337   0.633 -0.2667  0.1724 -0.1096
14307TIP3    H164336   3.146   6.359   0.707 -0.7689  0.4809 -0.5857
14307TIP3    H264337   3.240   6.421   0.606 -2.3184  0.5439 -2.0435
14308TIP3   OH264338   3.341   3.413   3.492  0.2914 -0.1665 -0.1480
14308TIP3    H164339   3.339   3.506   3.470 -1.5887  0.6135  2.7405
14308TIP3    H264340   3.273   3.374   3.436 -0.1145  0.5549 -0.1736
14309TIP3   OH264341   1.821   0.900   0.743 -0.4974 -0.0467 -0.3910
14309TIP3    H164342   1.772   0.941   0.672 -0.4000 -2.7672 -2.1697
14309TIP3    H264343   1.898   0.861   0.700 -0.1148 -1.2590  1.2885
14310TIP3   OH264344   5.807   4.913  16.972  0.4509  0.3528 -0.0538
14310TIP3    H164345   5.791   4.835  17.025 -0.9133  0.9870  0.5198
14310TIP3    H264346   5.803   4.882  16.881 -1.4323 -0.0233  0.1347
14311TIP3   OH264347   5.728   2.563  14.866  0.3225  0.0982  0.2277
14311TIP3    H164348   5.709   2.640  14.812 -0.9046 -0.2557  0.1310
14311TIP3    H264349   5.751   2.494  14.804 -0.7397 -0.2112  0.1702
14312TIP3   OH264350   3.995   3.252  15.294 -0.6084  0.7051 -0.2281
14312TIP3    H164351   4.066   3.282  15.350 -1.1341  1.4229  0.0588
14312TIP3    H264352   4.039   3.209  15.221  0.0931  0.1976  0.4785
14313TIP3   OH264353   3.726   2.111   3.239  0.4075  0.0377 -0.3727
14313TIP3    H164354   3.644   2.075   3.274 -0.4905  0.9942 -1.4137
14313TIP3    H264355   3.721   2.204   3.260  2.1963 -0.1897  1.3224
14314TIP3   OH264356   3.982   3.653   3.015 -0.2137  0.2757  0.7642
14314TIP3    H164357   3.930   3.724   3.054 -0.4643 -0.0534  1.0412
14314TIP3    H264358   4.067   3.692   2.997 -0.7141  0.9767 -0.1805
14315TIP3   OH264359   6.386   0.361  16.260 -1.1719 -0.3637 -0.3094
14315TIP3    H164360   6.368   0.448  16.223  1.6507  0.9500  1.1122
14315TIP3    H264361   6.377   0.373  16.355  0.0339 -1.3795 -0.0390
14316TIP3   OH264362   5.877   2.999  16.977  0.3732 -0.1484  0.1187
14316TIP3    H164363   5.835   3.037  16.900  0.1286 -0.0712  0.2897
14316TIP3    H264364   5.963   2.971  16.946 -0.1064 -1.0360 -0.4253
14317TIP3   OH264365   1.966   4.123   5.709  0.4211 -0.2309  0.4378
14317TIP3    H164366   2.054   4.130   5.744  0.4514 -0.8054  0.4923
14317TIP3    H264367   1.927   4.049   5.756 -0.0281 -0.0958  0.2879
14318TIP3   OH264368   3.919   3.721   3.853  0.3927  0.7922 -0.4387
14318TIP3    H164369   3.951   3.648   3.800 -0.5606  0.5207 -0.6459
14318TIP3    H264370   3.926   3.797   3.796  1.1025  0.8215 -0.3234
14319TIP3   OH264371   1.582   4.556   5.744  0.2537 -0.1919 -0.1642
14319TIP3    H164372   1.542   4.489   5.799 -0.3989 -1.7264 -2.3741
14319TIP3    H264373   1.508   4.606   5.709  0.6142  0.3285 -0.1923
14320TIP3   OH264374   2.197   0.290  13.713  0.5357 -0.2812  0.1408
14320TIP3    H164375   2.277   0.245  13.688 -0.0881 -1.5939  0.4090
14320TIP3    H264376   2.141   0.221  13.748 -0.9752  0.4755 -0.6804
14321TIP3   OH264377   3.536   3.688  16.713 -0.1858  1.0321 -0.1391
14321TIP3    H164378   3.451   3.727  16.693  0.2710  1.5951 -1.0993
14321TIP3    H264379   3.581   3.685  16.628  0.0917 -0.9057  0.0367
14322TIP3   OH264380   4.064   3.245  16.847  0.2098 -0.0982  0.1638
14322TIP3    H164381   4.004   3.219  16.777  1.0413 -1.4951 -0.0608
14322TIP3    H264382   4.150   3.251  16.805  0.9839 -2.3425  1.2874
14323TIP3   OH264383   3.141   1.008  11.681 -0.2567 -0.0257 -0.0543
14323TIP3    H164384   3.076   1.067  11.643  0.3049 -0.9330 -2.6811
14323TIP3    H264385   3.208   1.066  11.717 -0.7454  0.9395 -0.6485
14324TIP3   OH264386   5.880   0.238   3.249  0.0536 -0.2527  0.6070
14324TIP3    H164387   5.900   0.158   3.199 -1.2443  0.7255 -1.6337
14324TIP3    H264388   5.859   0.206   3.337  1.1857 -2.2099  0.2351
14325TIP3   OH264389   1.304   6.039   5.367 -0.1881  0.1496 -0.1677
14325TIP3    H164390   1.238   6.094   5.407 -0.9289  0.1964 -1.4181
14325TIP3    H264391   1.257   5.959   5.341  0.7081 -0.7711  0.9348
14326TIP3   OH264392   1.382   4.661   3.755  0.0247 -0.6707  0.1241
14326TIP3    H164393   1.368   4.733   3.817 -2.4421  0.4673 -1.6005
14326TIP3    H264394   1.351   4.583   3.803 -0.1443 -0.1084  0.9549
14327TIP3   OH264395   5.490   4.820   0.171 -0.2761  0.2905 -0.4709
14327TIP3    H164396   5.432   4.867   0.111 -0.3212 -2.0805 -2.4582
14327TIP3    H264397   5.459   4.730   0.168  0.6349 -0.1821  2.1103
14328TIP3   OH264398   5.398   3.715  13.712  0.0367  0.7829 -0.3052
14328TIP3    H164399   5.438   3.801  13.698 -0.3667  0.7049 -2.1581
14328TIP3    H264400   5.334   3.706  13.642  0.1694 -1.1090 -0.2498
14329TIP3   OH264401   0.614   4.036  12.670 -0.0904 -0.0375  0.0453
14329TIP3    H164402   0.644   3.961  12.722 -1.7255 -1.5843 -1.1201
14329TIP3    H264403   0.568   3.997  12.596 -1.9227  2.1426 -0.0637
14330TIP3   OH264404   1.632   3.640   5.669  0.0965 -0.0181  0.2141
14330TIP3    H164405   1.644   3.635   5.574 -4.2567  1.1299 -0.6275
14330TIP3    H264406   1.621   3.549   5.697  2.2871 -0.4418 -0.1126
14331TIP3   OH264407   6.061   0.835  11.270 -0.6790  0.0777  0.2761
14331TIP3    H164408   6.105   0.837  11.355 -0.8238 -0.1938  0.3582
14331TIP3    H264409   6.032   0.925  11.256 -2.0940 -0.2016  1.2700
14332TIP3   OH264410   3.356   2.339  16.600  0.9525 -0.1084  0.0098
14332TIP3    H164411   3.284   2.403  16.597  1.2500  0.2563  0.4084
14332TIP3    H264412   3.400   2.349  16.516  1.5024  0.8286  0.3826
14333TIP3   OH264413   3.335   2.880   3.560  0.0446 -0.3022  0.7431
14333TIP3    H164414   3.344   2.945   3.629 -2.3312  2.8962 -1.6310
14333TIP3    H264415   3.241   2.861   3.556  0.4704 -2.6527  0.2014
14334TIP3   OH264416   3.423   2.165   2.559  0.1432  0.3370  0.2322
14334TIP3    H164417   3.353   2.225   2.532 -0.7380 -1.7881 -2.7096
14334TIP3    H264418   3.503   2.217   2.554 -0.7469  1.6717 -0.7564
14335TIP3   OH264419   2.337   1.310   6.148 -0.4675  0.0775 -0.1449
14335TIP3    H164420   2.348   1.396   6.189  3.0210 -0.2869 -0.0019
14335TIP3    H264421   2.424   1.288   6.115 -1.9488 -1.9882 -3.1802
14336TIP3   OH264422   6.435   2.321   2.527 -0.3693  0.2616 -0.0010
14336TIP3    H164423   6.431   2.407   2.569 -1.7756  0.0011  0.4268
14336TIP3    H264424   6.516   2.282   2.561  0.8341  1.7689 -0.9688
14337TIP3   OH264425   3.231   1.073  16.509 -0.2214  0.0444  0.4409
14337TIP3    H164426   3.286   1.116  16.575  1.2619 -0.7019 -0.2573
14337TIP3    H264427   3.239   1.128  16.431 -0.5187 -0.0384  0.3501
14338TIP3   OH264428   1.975   2.884   2.650 -0.0518 -0.3793  0.6588
14338TIP3    H164429   1.988   2.911   2.558  2.5513  0.3719  1.1564
14338TIP3    H264430   2.028   2.805   2.659  0.9636  0.3954  1.8485
14339TIP3   OH264431   0.531   2.183  16.531  0.2462 -0.0419 -0.0455
14339TIP3    H164432   0.511   2.091  16.550 -0.5694  0.0701 -0.3009
14339TIP3    H264433   0.509   2.194  16.439  0.0200  0.4895  0.0637
14340TIP3   OH264434   5.119   0.592   0.195  0.7628 -0.3635  0.2715
14340TIP3    H164435   5.142   0.535   0.269  0.5890 -0.1891  0.4630
14340TIP3    H264436   5.057   0.655   0.232  1.0087 -0.0042  0.0799
14341TIP3   OH264437   1.065   3.822   2.529  0.3894 -0.7414 -0.4468
14341TIP3    H164438   0.993   3.818   2.592  2.5604  0.6856  2.3676
14341TIP3    H264439   1.032   3.878   2.459 -0.7436  1.3424  1.5978
14342TIP3   OH264440   5.972   6.119  13.567  0.7435 -0.1896  0.1803
14342TIP3    H164441   6.013   6.063  13.633  4.1012  0.3051 -1.2654
14342TIP3    H264442   5.987   6.208  13.598  1.7167  0.0263 -0.8445
14343TIP3   OH264443   0.648   0.164  16.263  0.1618  0.1965  0.3523
14343TIP3    H164444   0.639   0.243  16.210  0.2254  0.0296  0.0913
14343TIP3    H264445   0.683   0.195  16.347  1.3528  0.3135 -0.1639
14344TIP3   OH264446   2.897   4.903  12.929  0.2042  0.3393  0.0226
14344TIP3    H164447   2.991   4.891  12.944  0.2977  0.6578 -0.2779
14344TIP3    H264448   2.873   4.830  12.871  0.3799  0.5512 -0.3228
14345TIP3   OH264449   0.477   3.037  14.774  0.2593  0.7132  0.1402
14345TIP3    H164450   0.557   3.088  14.765  0.8772 -0.4124 -1.0458
14345TIP3    H264451   0.491   2.983  14.852  0.4823  0.8004  0.1601
14346TIP3   OH264452   5.489   4.209   3.984 -0.1656  0.3939 -0.1716
14346TIP3    H164453   5.417   4.146   3.994 -0.1963  0.5100  0.3537
14346TIP3    H264454   5.565   4.163   4.020 -0.0883  0.4733 -0.2341
14347TIP3   OH264455   0.072   1.301  13.591 -0.7650 -0.0645 -0.2212
14347TIP3    H164456   0.158   1.314  13.631 -0.9854  0.5377  0.0832
14347TIP3    H264457   0.013   1.354  13.645 -1.6883 -2.0691  0.8422
14348TIP3   OH264458   5.648   1.844   4.061  0.6449  0.1003 -0.7209
14348TIP3    H164459   5.670   1.841   3.968  0.3300  0.7940 -0.8259
14348TIP3    H264460   5.724   1.883   4.103  0.7147 -0.0456 -0.7116
14349TIP3   OH264461   3.685   2.133  11.115  0.3129  0.1853 -0.2638
14349TIP3    H164462   3.648   2.215  11.146  0.2860  0.1855 -0.2973
14349TIP3    H264463   3.612   2.086  11.076  0.1565 -0.1856  0.4448
14350TIP3   OH264464   2.019   4.649   0.439  0.1745 -0.2784  0.4063
14350TIP3    H164465   2.108   4.685   0.435 -0.2065  0.6497 -0.0464
14350TIP3    H264466   2.032   4.555   0.446  1.1899 -0.2493 -0.7761
14351TIP3   OH264467   4.023   0.545  12.995  0.0503  0.4226  0.0465
14351TIP3    H164468   4.089   0.539  13.064  0.2342 -0.0040 -0.1644
14351TIP3    H264469   3.965   0.471  13.011  0.5454 -0.1464 -0.7172
14352TIP3   OH264470   2.897   6.593   3.865 -0.5426 -0.5221  0.1145
14352TIP3    H164471   2.868   6.638   3.785 -1.7956 -0.2171  0.7187
14352TIP3    H264472   2.980   6.553   3.840 -0.5930  0.0917 -1.1605
14353TIP3   OH264473   6.700   6.109  15.083 -0.4827  0.1279  0.5670
14353TIP3    H164474   6.709   6.014  15.084 -0.0037  0.1605  0.2256
14353TIP3    H264475   6.720   6.137  15.172 -1.5348 -0.1574  0.9033
14354TIP3   OH264476   0.559   2.269  12.696 -0.3613 -0.5079 -0.3231
14354TIP3    H164477   0.649   2.239  12.707 -0.2840 -0.5860 -1.1333
14354TIP3    H264478   0.566   2.348  12.642 -0.7684 -0.4231 -0.2577
14355TIP3   OH264479   0.662   5.969  15.754  0.4587 -0.4103 -0.1737
14355TIP3    H164480   0.585   5.930  15.713  0.3879 -0.4328 -0.0198
14355TIP3    H264481   0.666   5.928  15.841  1.0275 -0.9060 -0.4266
14356TIP3   OH264482   0.897   1.705  10.753  0.3372 -0.0577 -0.0625
14356TIP3    H164483   0.960   1.758  10.705 -0.9554  1.9294  0.3182
14356TIP3    H264484   0.951   1.641  10.800  1.7858 -0.5584 -2.2555
14357TIP3   OH264485   6.393   4.919   6.408  0.4839 -0.1840  0.1109
14357TIP3    H164486   6.379   4.861   6.333  0.6502  1.2650 -1.0974
14357TIP3    H264487   6.306   4.953   6.429  0.6684  0.7454 -0.5751
14358TIP3   OH264488   1.822   1.468   4.423 -0.4890 -0.3477 -1.2055
14358TIP3    H164489   1.823   1.432   4.334 -2.8211 -0.7926 -1.1068
14358TIP3    H264490   1.780   1.401   4.476 -0.3558  0.4723 -0.0255
14359TIP3   OH264491   4.377   4.023   3.069  0.1700 -0.5507 -0.3107
14359TIP3    H164492   4.444   3.999   3.005  0.5787  0.4196 -0.2621
14359TIP3    H264493   4.388   4.118   3.082 -0.0658 -0.6754  1.0029
14360TIP3   OH264494   5.136   2.841  15.104  0.9239  0.2402 -0.2442
14360TIP3    H164495   5.203   2.773  15.099 -0.2824 -0.9634 -0.7427
14360TIP3    H264496   5.065   2.802  15.154 -0.0129  0.9442 -0.9782
14361TIP3   OH264497   3.755   1.231   4.668 -0.3653  0.4122 -0.1812
14361TIP3    H164498   3.749   1.164   4.736  1.0142 -0.4585 -0.8625
14361TIP3    H264499   3.787   1.309   4.713  0.1891 -0.0484  0.2453
14362TIP3   OH264500   2.528   2.242   4.782 -0.1780 -0.3635 -0.1792
14362TIP3    H164501   2.591   2.278   4.720 -1.9602  2.8787 -0.3503
14362TIP3    H264502   2.564   2.263   4.868 -0.2429  0.1059 -0.2594
14363TIP3   OH264503   3.042   3.697   3.082  0.1044  0.4093 -0.0222
14363TIP3    H164504   2.966   3.651   3.045 -1.0359  2.1933 -0.0622
14363TIP3    H264505   3.113   3.680   3.021 -0.4279 -0.7940 -0.3303
14364TIP3   OH264506   0.026   0.821  13.690 -0.0146 -0.2603  0.5187
14364TIP3    H164507   0.028   0.741  13.639  0.0130  0.2781 -0.3378
14364TIP3    H264508  -0.060   0.860  13.672 -0.9715 -1.2085  2.7075
14365TIP3   OH264509   4.853   5.645  12.897 -0.1512  0.1472 -0.6216
14365TIP3    H164510   4.884   5.607  12.979  0.5205 -0.2947 -1.0646
14365TIP3    H264511   4.846   5.571  12.836  1.1808  0.6872 -1.4945
14366TIP3   OH264512   5.377   6.476  11.116 -0.1177 -0.0177 -0.5615
14366TIP3    H164513   5.333   6.399  11.153  0.7233 -0.8482 -1.2199
14366TIP3    H264514   5.416   6.444  11.035  0.6640  0.9899 -0.6027
14367TIP3   OH264515   4.212   1.935  13.686 -0.2277  0.3286 -0.4345
14367TIP3    H164516   4.240   2.024  13.706  1.0342 -0.0394 -0.4713
14367TIP3    H264517   4.287   1.896  13.641 -0.2457 -1.1622  0.7357
14368TIP3   OH264518   5.890   0.406   1.252 -0.4865  0.0147  0.1348
14368TIP3    H164519   5.803   0.387   1.220 -0.3572 -0.3486 -0.0034
14368TIP3    H264520   5.876   0.469   1.324 -0.8170  0.3363 -0.2067
14369TIP3   OH264521   5.529   4.215   2.970 -0.1291 -0.0546 -0.6388
14369TIP3    H164522   5.528   4.207   2.874  0.0494 -1.5882 -0.5460
14369TIP3    H264523   5.445   4.179   2.997 -0.2145  0.4588 -0.2092
14370TIP3   OH264524   2.228   0.647   2.355  0.2425 -0.3850 -0.3994
14370TIP3    H164525   2.152   0.693   2.319  0.3794  0.3603  0.2491
14370TIP3    H264526   2.245   0.690   2.438  0.3600 -1.6325  0.2470
14371TIP3   OH264527   0.502   5.452   0.697  0.1138 -0.5323 -0.3181
14371TIP3    H164528   0.563   5.458   0.624 -1.4230  2.6372 -1.5378
14371TIP3    H264529   0.422   5.415   0.659 -0.4477  0.4224 -0.1086
14372TIP3   OH264530   5.003   4.800  15.775  0.2001  0.1678 -0.0733
14372TIP3    H164531   5.052   4.854  15.837  2.3185 -2.2038  0.4692
14372TIP3    H264532   5.046   4.815  15.691  0.4471 -0.2711 -0.0252
14373TIP3   OH264533   2.489   3.501  16.639 -0.3631  0.3260 -0.2290
14373TIP3    H164534   2.440   3.541  16.567 -0.3941  0.4716 -0.1273
14373TIP3    H264535   2.568   3.466  16.597 -0.6660 -0.1218 -0.4292
14374TIP3   OH264536   1.745   3.868   0.777  0.4698  0.0134  0.0778
14374TIP3    H164537   1.752   3.782   0.817 -1.2263  0.6793  1.9966
14374TIP3    H264538   1.661   3.867   0.731  1.1676  0.1569 -1.2546
14375TIP3   OH264539   4.886   4.467  12.886  0.1842 -0.5746 -0.3165
14375TIP3    H164540   4.965   4.516  12.863  0.3888 -0.0420  1.4352
14375TIP3    H264541   4.898   4.443  12.977 -1.5224 -0.8023 -0.1245
14376TIP3   OH264542   6.703   2.260   2.234 -0.2211  0.3916 -0.2551
14376TIP3    H164543   6.755   2.214   2.169  0.5402  0.7961  0.0531
14376TIP3    H264544   6.762   2.270   2.309 -1.3428 -0.8745  0.8697
14377TIP3   OH264545   0.205   4.855   5.915 -0.1673  0.3531  0.8349
14377TIP3    H164546   0.167   4.837   6.001 -1.3245  0.0964  0.2903
14377TIP3    H264547   0.263   4.781   5.898 -1.3340 -0.5651  0.6350
14378TIP3   OH264548   1.632   2.829   6.364 -0.1048  0.1920  0.5034
14378TIP3    H164549   1.555   2.788   6.325 -1.0944  0.8311  1.7123
14378TIP3    H264550   1.661   2.766   6.431  0.6178 -0.1770 -0.1395
14379TIP3   OH264551   4.923   6.388  11.410  0.0639 -0.0959 -0.7531
14379TIP3    H164552   4.943   6.317  11.349 -0.0635 -2.0028  1.2959
14379TIP3    H264553   4.839   6.422  11.381 -1.4036 -2.8838 -0.0608
14380TIP3   OH264554   3.254   2.828  16.053 -0.3412 -0.0531  0.2333
14380TIP3    H164555   3.169   2.871  16.045 -0.1222  0.6278  1.3986
14380TIP3    H264556   3.284   2.819  15.962 -1.9854 -1.0444 -0.2636
14381TIP3   OH264557   3.346   5.645   4.342  0.4435 -0.7282  0.4849
14381TIP3    H164558   3.296   5.688   4.411 -1.1257 -0.8704 -0.5052
14381TIP3    H264559   3.396   5.577   4.387  0.9742  0.4352  1.7148
14382TIP3   OH264560   1.350   0.848  15.671  0.3171  0.1357  0.3406
14382TIP3    H164561   1.355   0.857  15.766 -0.3132  0.0116  0.3868
14382TIP3    H264562   1.310   0.930  15.642 -0.3626 -0.2207  0.2671
14383TIP3   OH264563   1.859   1.437   1.458  0.0982  0.3063  0.5756
14383TIP3    H164564   1.793   1.489   1.411  0.6968 -0.0585 -0.7255
14383TIP3    H264565   1.938   1.491   1.455  0.5462 -0.3524 -0.2059
14384TIP3   OH264566   2.984   5.202   3.132  0.0769  0.2354  0.3941
14384TIP3    H164567   3.024   5.270   3.079 -2.0610  1.6708  0.5379
14384TIP3    H264568   2.941   5.248   3.204 -3.2635 -0.9491 -0.6377
14385TIP3   OH264569   5.738   2.319  11.253 -0.5414 -0.1025  0.5467
14385TIP3    H164570   5.660   2.346  11.300 -1.7459 -1.2635 -0.6963
14385TIP3    H264571   5.715   2.327  11.160  1.1845  0.5204  0.1242
14386TIP3   OH264572   3.231   4.600  13.565  0.3535  0.2278  0.2265
14386TIP3    H164573   3.270   4.639  13.644 -0.7215  0.7744  0.5050
14386TIP3    H264574   3.295   4.535  13.537  1.4326  1.0394  0.7113
14387TIP3   OH264575   0.858   5.287  14.757  0.4114  0.0006 -0.5640
14387TIP3    H164576   0.799   5.356  14.788  0.8786  1.2978 -2.4124
14387TIP3    H264577   0.799   5.219  14.724 -0.0569 -0.5516  1.3126
14388TIP3   OH264578   2.845   6.016  13.058 -0.2899  0.2184 -0.5447
14388TIP3    H164579   2.879   5.997  12.970  0.1044 -0.4598 -0.2531
14388TIP3    H264580   2.792   5.940  13.080  1.7751 -0.9181  0.8674
14389TIP3   OH264581   4.874   5.897   4.621 -0.9881 -0.5191  0.8068
14389TIP3    H164582   4.784   5.864   4.614 -1.8722  1.8805 -0.5064
14389TIP3    H264583   4.908   5.892   4.532 -1.1329  1.8163  0.5641
14390TIP3   OH264584   2.745   1.585  14.839 -0.3092  0.1811 -0.1620
14390TIP3    H164585   2.794   1.521  14.890 -0.8938 -0.5879 -0.5380
14390TIP3    H264586   2.672   1.611  14.896 -0.3944  0.0860 -0.2287
14391TIP3   OH264587   4.069   4.952   6.383 -0.3135  0.1153  0.4536
14391TIP3    H164588   4.115   4.990   6.308 -1.1148 -0.3971 -0.3040
14391TIP3    H264589   4.127   4.882   6.414  0.0318  0.3479  0.3373
14392TIP3   OH264590   4.873   5.833   4.348 -0.0157 -0.1668  0.7648
14392TIP3    H164591   4.915   5.756   4.386 -0.9967 -0.1921  1.8518
14392TIP3    H264592   4.786   5.803   4.322 -0.1918  0.4286  0.6472
14393TIP3   OH264593   1.137   1.831   0.765  0.1107 -0.1839 -0.1478
14393TIP3    H164594   1.231   1.816   0.777  0.0696  0.1644  0.6177
14393TIP3    H264595   1.100   1.828   0.853 -0.5477  0.0482 -0.4076
14394TIP3   OH264596   3.836   3.507   2.249 -0.2976 -0.2650  0.0156
14394TIP3    H164597   3.785   3.576   2.206  0.6854  0.8558  0.5993
14394TIP3    H264598   3.838   3.436   2.184 -0.5399  0.6059 -0.9806
14395TIP3   OH264599   0.532   3.829   3.025  0.6826  0.7495 -0.2338
14395TIP3    H164600   0.459   3.864   3.076 -0.5367 -1.4898 -0.3020
14395TIP3    H264601   0.571   3.763   3.082  1.1173  0.2193 -1.1264
14396TIP3   OH264602   3.187   6.366  15.655  0.3149  0.2601  0.1708
14396TIP3    H164603   3.166   6.387  15.564  0.1595 -1.5308 -0.2572
14396TIP3    H264604   3.134   6.426  15.707 -0.8238  0.2538 -0.9331
14397TIP3   OH264605   2.001   1.602   0.684 -0.2361  0.3269 -0.5970
14397TIP3    H164606   2.028   1.634   0.770  1.3674  2.3396 -1.7755
14397TIP3    H264607   2.082   1.588   0.636 -1.0958 -0.8356 -1.7939
14398TIP3   OH264608   5.785   3.014  12.642  0.0983 -0.1676  0.0029
14398TIP3    H164609   5.826   2.946  12.696  1.6802  0.3591 -0.4794
14398TIP3    H264610   5.815   2.996  12.553 -1.4605 -0.2689 -0.5394
14399TIP3   OH264611   6.099   3.408   5.811  0.4429 -0.4593 -0.0835
14399TIP3    H164612   6.173   3.405   5.749  0.3614  0.6236 -0.2615
14399TIP3    H264613   6.100   3.323   5.854  1.9937 -0.3596  0.1419
14400TIP3   OH264614   1.814   2.947  12.032 -0.1265  0.3910 -0.6860
14400TIP3    H164615   1.741   2.891  12.058  0.0180  0.8952  0.8886
14400TIP3    H264616   1.772   3.024  11.992 -0.4902  0.7377  0.3239
14401TIP3   OH264617   5.172   3.605  14.307 -0.7517 -0.1415  0.2461
14401TIP3    H164618   5.150   3.530  14.253 -1.5907  0.3712 -0.1488
14401TIP3    H264619   5.119   3.677  14.272  1.7428  1.2574 -0.9043
14402TIP3   OH264620   1.865   6.511   0.773 -0.3481  0.3489 -0.3512
14402TIP3    H164621   1.920   6.561   0.832  0.7066  0.6134 -1.5210
14402TIP3    H264622   1.812   6.577   0.728  1.6939  0.5792 -2.5623
14403TIP3   OH264623   5.431   0.188  16.385  0.0843  0.1416  0.1881
14403TIP3    H164624   5.491   0.117  16.362  2.0921  1.7828  0.0435
14403TIP3    H264625   5.344   0.148  16.383  1.0628 -2.0959 -0.6602
14404TIP3   OH264626   3.650   2.908  13.218 -0.2300  0.5508  0.4974
14404TIP3    H164627   3.611   2.992  13.194 -1.4532  0.0004  0.4879
14404TIP3    H264628   3.620   2.847  13.150 -2.5842 -0.7244  2.4930
14405TIP3   OH264629   2.603   3.805  13.603  0.4557 -0.1552  0.1901
14405TIP3    H164630   2.688   3.771  13.631  0.9627  2.1535  1.6328
14405TIP3    H264631   2.616   3.829  13.511  1.1549 -0.3957  0.2227
14406TIP3   OH264632   1.288   1.291   5.354  0.0302 -0.4529 -0.1062
14406TIP3    H164633   1.312   1.291   5.261 -0.5821  1.6095 -0.3135
14406TIP3    H264634   1.348   1.227   5.394  1.6166  0.0029 -1.6031
14407TIP3   OH264635   5.384   5.216   2.730  0.7028 -0.2840  0.1282
14407TIP3    H164636   5.297   5.250   2.749  0.0263 -0.4897 -2.2728
14407TIP3    H264637   5.377   5.121   2.742  1.4469 -0.0793  2.7308
14408TIP3   OH264638   3.781   4.584  15.231  0.2075 -0.4969  0.2458
14408TIP3    H164639   3.769   4.489  15.236 -1.3727 -0.2437  2.3540
14408TIP3    H264640   3.760   4.616  15.318 -1.3730  2.0064 -0.9408
14409TIP3   OH264641   2.597   4.304  12.618 -0.1016  0.2245 -0.1026
14409TIP3    H164642   2.613   4.315  12.524  1.9591  0.7973  0.2530
14409TIP3    H264643   2.526   4.365  12.637 -1.8514 -1.2317 -1.5642
14410TIP3   OH264644   1.888   3.824   3.664 -0.1659 -0.0549 -0.2052
14410TIP3    H164645   1.971   3.853   3.625 -0.5100  0.5878 -0.4731
14410TIP3    H264646   1.823   3.841   3.596 -0.9348  2.0313  0.9984
14411TIP3   OH264647   5.484   6.234   2.966  0.0632  0.1385 -0.4699
14411TIP3    H164648   5.405   6.214   2.917  0.2725 -0.1439 -0.7021
14411TIP3    H264649   5.466   6.202   3.054 -0.1700  0.2944 -0.4607
14412TIP3   OH264650   2.495   3.637  15.917 -0.0855 -0.2252 -0.7174
14412TIP3    H164651   2.432   3.573  15.949 -0.9746  0.2555 -1.4240
14412TIP3    H264652   2.492   3.708  15.982 -0.8622  0.1354 -1.1264
14413TIP3   OH264653   6.696   2.512  15.042 -0.3918 -0.0900 -0.3902
14413TIP3    H164654   6.647   2.557  15.111 -0.3240  1.6068 -1.3879
14413TIP3    H264655   6.629   2.473  14.986 -0.6706  1.8010 -1.4712
14414TIP3   OH264656   0.781   0.879   4.753  0.2116 -0.0188 -0.2571
14414TIP3    H164657   0.738   0.801   4.787  1.0460 -0.4599 -0.1866
14414TIP3    H264658   0.845   0.903   4.821 -0.1564  0.8394 -0.1923
14415TIP3   OH264659   1.543   1.667  16.675 -0.3061 -0.0611  0.2802
14415TIP3    H164660   1.461   1.662  16.724 -0.6300 -0.7190 -0.3001
14415TIP3    H264661   1.612   1.671  16.741 -0.6083 -2.6537  0.8623
14416TIP3   OH264662   3.515   4.548   2.031 -0.1049  0.0421  0.1377
14416TIP3    H164663   3.456   4.479   2.002 -0.6909  1.7806 -3.2829
14416TIP3    H264664   3.463   4.628   2.025  1.8412  1.3210 -0.5696
14417TIP3   OH264665   0.063   2.665  14.297  0.5720  0.1820  0.0255
14417TIP3    H164666   0.086   2.757  14.303 -1.9104  0.9032 -0.1730
14417TIP3    H264667   0.106   2.635  14.217 -0.0930  1.7093 -0.9596
14418TIP3   OH264668   5.945   0.701  11.974 -0.0327  0.5026 -0.2379
14418TIP3    H164669   5.921   0.639  11.904 -1.6670  1.8954 -0.9753
14418TIP3    H264670   6.040   0.690  11.983 -0.2049 -1.9130 -0.4921
14419TIP3   OH264671   2.684   2.844   2.571 -0.1573 -0.0519 -0.5342
14419TIP3    H164672   2.773   2.877   2.582 -0.1822 -0.2537  0.3621
14419TIP3    H264673   2.633   2.922   2.547  0.1285  0.1954 -0.3478
14420TIP3   OH264674   6.687   2.892  10.989  0.3270  0.1640 -0.2548
14420TIP3    H164675   6.618   2.899  10.922 -0.5223  0.6794  0.6517
14420TIP3    H264676   6.752   2.834  10.949 -1.4567 -1.8054 -0.4611
14421TIP3   OH264677   6.652   3.798  13.773  0.1752  0.0419  0.1621
14421TIP3    H164678   6.653   3.707  13.745 -0.3132  0.3360 -0.8685
14421TIP3    H264679   6.663   3.848  13.693 -0.2083  0.9092  0.6348
14422TIP3   OH264680   4.254   4.112  16.510  0.0814 -0.5959  0.0849
14422TIP3    H164681   4.258   4.126  16.416 -1.1905  1.1208  0.2430
14422TIP3    H264682   4.227   4.196  16.546  0.1894 -1.3122  1.9642
14423TIP3   OH264683   3.200   2.811   4.263 -0.3009  0.1236  0.2540
14423TIP3    H164684   3.285   2.846   4.291 -0.2287 -0.3591  0.6464
14423TIP3    H264685   3.163   2.881   4.209  0.1836  0.4908  0.3807
14424TIP3   OH264686   2.773   6.647   2.896  0.1700  1.1101  0.2797
14424TIP3    H164687   2.777   6.729   2.848  0.8280  0.2648 -1.1696
14424TIP3    H264688   2.797   6.580   2.832  0.3292 -0.1510  1.6016
14425TIP3   OH264689   0.763   1.881  11.311 -0.3623  0.2643 -0.4463
14425TIP3    H164690   0.756   1.822  11.387  2.3790 -0.3661 -0.5769
14425TIP3    H264691   0.704   1.843  11.246  0.8037 -2.0401 -0.2724
14426TIP3   OH264692   1.907   1.122  12.015 -0.1063  0.1292 -0.2648
14426TIP3    H164693   1.989   1.073  12.028 -0.3117 -0.2951 -0.5405
14426TIP3    H264694   1.933   1.201  11.967  0.0238 -0.4240 -1.1330
14427TIP3   OH264695   1.331   1.498   6.225  0.3105 -0.3490 -0.2747
14427TIP3    H164696   1.404   1.441   6.247 -0.2389 -1.6552 -1.6492
14427TIP3    H264697   1.254   1.455   6.261 -0.0332 -0.1394 -0.7395
14428TIP3   OH264698   6.635   6.505  15.160 -0.2815  0.2339 -0.1454
14428TIP3    H164699   6.673   6.522  15.074  1.5720 -0.9617  0.3873
14428TIP3    H264700   6.625   6.591  15.200  0.9485  0.6499 -0.6999
14429TIP3   OH264701   1.592   5.829   4.677  0.4433  0.0138 -0.1227
14429TIP3    H164702   1.646   5.751   4.693  1.2899  0.6084  0.0136
14429TIP3    H264703   1.565   5.822   4.586 -1.0830 -1.3930  0.3967
14430TIP3   OH264704   5.998   4.369  14.067  0.8594  0.0253  0.0204
14430TIP3    H164705   5.935   4.368  14.139  2.3036 -0.6980  1.3239
14430TIP3    H264706   6.035   4.457  14.069 -0.8649  0.8393 -1.4865
14431TIP3   OH264707   0.505   2.034   3.073  0.1709  0.4083  0.0244
14431TIP3    H164708   0.426   2.059   3.025  0.6074  0.5316 -0.6420
14431TIP3    H264709   0.577   2.069   3.021  0.6278  1.7259  1.4321
14432TIP3   OH264710   3.784   4.447  13.951  0.0859 -0.2493  0.3362
14432TIP3    H164711   3.763   4.508  13.880 -0.1619 -0.4650  0.2261
14432TIP3    H264712   3.878   4.457  13.963 -0.1572  1.2555  1.3103
14433TIP3   OH264713   3.793   3.776  11.846 -0.6284  0.3217  0.6010
14433TIP3    H164714   3.822   3.779  11.755 -2.1059  0.6408  0.1155
14433TIP3    H264715   3.829   3.855  11.885  1.8663 -0.8637  0.9367
14434TIP3   OH264716   6.051   1.031   4.949 -0.4305  0.6958  0.2641
14434TIP3    H164717   6.121   1.073   4.899  0.6865 -0.5210  0.7340
14434TIP3    H264718   6.044   1.083   5.029 -1.9084  2.3767 -0.8692
14435TIP3   OH264719   4.969   6.031   6.389 -0.1411  0.0773 -0.0044
14435TIP3    H164720   5.065   6.029   6.391 -0.1415 -0.7324 -0.1246
14435TIP3    H264721   4.944   5.941   6.411 -0.8429 -0.1135 -1.4620
14436TIP3   OH264722   2.194   3.494  13.837 -0.0996 -0.3276  0.1068
14436TIP3    H164723   2.209   3.509  13.931  0.2367  0.8248 -0.1145
14436TIP3    H264724   2.273   3.527  13.795  0.5651 -2.5572 -0.4773
14437TIP3   OH264725   6.490   3.460  16.338  0.1249  0.4721 -0.1296
14437TIP3    H164726   6.574   3.458  16.293 -0.3932  0.4921 -1.1391
14437TIP3    H264727   6.458   3.550  16.324 -0.4305  0.2271 -0.4739
14438TIP3   OH264728   1.629   6.165   1.527 -0.4551 -0.3468  0.0558
14438TIP3    H164729   1.698   6.106   1.558 -0.1251 -1.0442 -1.8994
14438TIP3    H264730   1.550   6.135   1.572 -0.0640 -1.5285 -0.0149
14439TIP3   OH264731   1.653   5.472   0.519  0.2034  0.2009  0.1319
14439TIP3    H164732   1.564   5.441   0.534  0.2029  0.5832  0.9489
14439TIP3    H264733   1.651   5.565   0.543  0.3845  0.6837 -1.5770
14440TIP3   OH264734   3.045   1.518   6.032  0.4643  0.2806  0.0413
14440TIP3    H164735   3.100   1.471   6.094 -0.8160 -0.0992  0.9232
14440TIP3    H264736   2.997   1.450   5.985 -0.3473  0.6477  0.3238
14441TIP3   OH264737   5.090   3.630  17.049 -0.1653 -0.2994  0.5450
14441TIP3    H164738   5.068   3.629  16.955  2.6511 -0.9768 -0.2098
14441TIP3    H264739   5.007   3.651  17.092 -1.8415 -1.0654 -2.0019
14442TIP3   OH264740   2.364   4.327  14.807  0.1172 -0.8011  0.4660
14442TIP3    H164741   2.336   4.240  14.779 -0.3121  0.4769 -3.8847
14442TIP3    H264742   2.458   4.329  14.789  0.0308 -0.2374  0.0456
14443TIP3   OH264743   2.719   2.824   5.714  0.7899 -0.3494  0.5186
14443TIP3    H164744   2.726   2.887   5.643  0.7743 -1.4567 -0.4978
14443TIP3    H264745   2.777   2.857   5.782  2.9422 -0.6281 -1.0736
14444TIP3   OH264746   2.844   3.489   5.277 -0.3569  1.4884  0.2290
14444TIP3    H164747   2.878   3.577   5.259 -0.1806  1.1774 -1.0510
14444TIP3    H264748   2.918   3.431   5.256  0.2691  1.1103  3.0860
14445TIP3   OH264749   2.360   2.209  17.229  0.0407  0.2456  0.4639
14445TIP3    H164750   2.402   2.288  17.197  2.2284 -0.0897  2.2131
14445TIP3    H264751   2.328   2.232  17.316 -0.0417 -0.5551  0.6573
14446TIP3   OH264752   4.615   4.626   2.535  0.0318 -0.0331  0.7097
14446TIP3    H164753   4.606   4.693   2.603 -1.2395 -0.0428  0.5697
14446TIP3    H264754   4.704   4.638   2.502  0.1646  0.9342  1.3676
14447TIP3   OH264755   2.605   2.127   3.182  0.0352 -0.0152  0.2127
14447TIP3    H164756   2.604   2.212   3.226  0.7786 -0.3162  0.8374
14447TIP3    H264757   2.602   2.063   3.254  0.2065 -0.5145 -0.2178
14448TIP3   OH264758   2.195   1.315  16.853 -0.4922 -0.1778  0.5308
14448TIP3    H164759   2.160   1.227  16.853 -0.5584 -0.1638  1.4769
14448TIP3    H264760   2.146   1.361  16.921 -0.1725  0.4692  0.3378
14449TIP3   OH264761   5.669   1.041  11.126  0.5136  0.5828  0.2697
14449TIP3    H164762   5.583   1.025  11.165  0.0654  1.4185 -0.3595
14449TIP3    H264763   5.673   1.135  11.113  0.3547  0.3133 -2.2995
14450TIP3   OH264764   4.979   4.132   1.023 -0.2031 -0.0688  0.6495
14450TIP3    H164765   4.895   4.102   0.989 -0.7350 -1.2559  2.8261
14450TIP3    H264766   4.958   4.207   1.079  0.3810  0.4788  0.1627
14451TIP3   OH264767   4.895   3.749   1.969  0.2534 -0.2340 -0.0576
14451TIP3    H164768   4.854   3.748   2.055  0.0596  0.6019 -0.1331
14451TIP3    H264769   4.901   3.657   1.944  2.8591 -0.7732  2.0440
14452TIP3   OH264770   3.239   0.269   4.737  0.2342 -0.0280  0.1401
14452TIP3    H164771   3.243   0.333   4.808 -0.3139 -0.7476  0.8392
14452TIP3    H264772   3.328   0.234   4.731  0.2418 -0.0976  0.6089
14453TIP3   OH264773   5.051   2.259  12.143  0.4135 -0.1326  0.4036
14453TIP3    H164774   5.037   2.165  12.146 -0.0998 -0.1593 -1.7013
14453TIP3    H264775   4.962   2.296  12.140  0.6228  0.3005 -0.8677
14454TIP3   OH264776   4.029   2.761   5.133 -0.2530  0.0488 -0.0969
14454TIP3    H164777   3.958   2.825   5.137 -1.7988 -1.5289 -0.9886
14454TIP3    H264778   4.003   2.700   5.063  1.2634 -1.4158  0.5442
14455TIP3   OH264779   1.080   0.156   5.773 -0.1292  0.2095  0.2073
14455TIP3    H164780   1.165   0.197   5.787 -0.0438 -0.1634  0.8057
14455TIP3    H264781   1.090   0.105   5.693  0.4664 -0.4983  0.7194
14456TIP3   OH264782   3.507   6.371   3.142  0.0961 -0.4765  0.0512
14456TIP3    H164783   3.478   6.462   3.141 -1.1476 -0.8138 -2.2992
14456TIP3    H264784   3.601   6.375   3.125 -0.2938  0.3769 -2.3795
14457TIP3   OH264785   0.128   5.718   3.325 -0.1687 -0.5049 -0.8029
14457TIP3    H164786   0.164   5.705   3.412 -1.1610  1.4661 -0.0261
14457TIP3    H264787   0.036   5.694   3.333 -0.1127 -0.9902 -1.5121
14458TIP3   OH264788   6.631   4.839   0.556  0.6233 -0.1304 -0.3371
14458TIP3    H164789   6.686   4.859   0.631 -0.2168 -0.6376  0.4428
14458TIP3    H264790   6.545   4.818   0.594 -0.1045  0.6141 -1.5094
14459TIP3   OH264791   5.983   3.379  14.395 -0.1853  0.1869  0.4765
14459TIP3    H164792   5.924   3.306  14.374 -0.9347  1.4920 -2.5678
14459TIP3    H264793   6.023   3.401  14.311  1.0505  2.4176  1.5699
14460TIP3   OH264794   3.163   1.202   3.808  0.2631  0.9784  0.1663
14460TIP3    H164795   3.072   1.201   3.779  0.0946 -0.5431  0.6158
14460TIP3    H264796   3.190   1.110   3.805  2.0570  1.4953 -0.7418
14461TIP3   OH264797   2.759   1.987  16.419  0.3148  0.6476  0.4588
14461TIP3    H164798   2.791   1.896  16.423  1.0165  0.8324 -0.6583
14461TIP3    H264799   2.830   2.038  16.458  0.6103  0.8695 -0.3534
14462TIP3   OH264800   3.170   2.438  13.576 -0.6062 -0.1383  0.4592
14462TIP3    H164801   3.172   2.528  13.545 -0.6162 -0.3457 -0.1599
14462TIP3    H264802   3.245   2.431  13.635  1.2857 -0.5234 -1.8085
14463TIP3   OH264803   4.965   2.935   3.058 -0.0687  0.0487  0.1025
14463TIP3    H164804   4.998   2.874   2.992  0.0204  0.3426 -0.1296
14463TIP3    H264805   4.917   2.880   3.120 -1.4451 -0.0629 -1.0143
14464TIP3   OH264806   6.082   5.920  16.523  0.1496  0.1476 -0.1575
14464TIP3    H164807   6.105   5.990  16.461 -1.4779  0.9536  0.0792
14464TIP3    H264808   5.993   5.942  16.551  0.6362 -0.4762  2.0737
14465TIP3   OH264809   2.402   4.330   1.285 -0.0355 -0.1534 -0.0088
14465TIP3    H164810   2.491   4.301   1.304  1.0782  1.0225 -2.8754
14465TIP3    H264811   2.372   4.369   1.367  1.3051 -2.2041  1.5946
14466TIP3   OH264812   1.050   6.738   1.562  0.6513 -0.2032  0.1524
14466TIP3    H164813   1.006   6.692   1.634  1.1698 -1.4593 -0.3108
14466TIP3    H264814   1.135   6.763   1.598 -0.0953  1.5497  0.8028
14467TIP3   OH264815   3.143   3.380  12.371  0.2905  0.7566 -0.2397
14467TIP3    H164816   3.218   3.424  12.332 -0.9138  3.9512  0.7830
14467TIP3    H264817   3.067   3.417  12.326 -0.8778  0.9477  1.8036
14468TIP3   OH264818   5.242   2.903   4.008  0.1161 -0.1105 -0.1414
14468TIP3    H164819   5.303   2.917   3.935  1.6025 -0.2076  1.0368
14468TIP3    H264820   5.262   2.815   4.039  0.2853  0.3426  1.0805
14469TIP3   OH264821   4.412   3.097  13.965 -0.2160  0.2059  0.4236
14469TIP3    H164822   4.360   3.098  14.046  0.3893 -1.4394  0.8642
14469TIP3    H264823   4.386   3.017  13.920  0.2153  0.5779 -0.5181
14470TIP3   OH264824   1.261   1.950   2.934  0.1586 -0.7462 -0.6689
14470TIP3    H164825   1.213   1.883   2.885  0.1692 -1.5550  0.3790
14470TIP3    H264826   1.334   1.974   2.878  0.3777 -1.9179 -0.9096
14471TIP3   OH264827   5.301   0.400  13.392  0.1692  0.3687  0.0646
14471TIP3    H164828   5.355   0.368  13.320 -0.1776  0.5215 -0.2623
14471TIP3    H264829   5.245   0.467  13.353  1.4544  2.0153  0.8894
14472TIP3   OH264830   2.772   3.392   1.316  0.1652  0.2934 -0.3153
14472TIP3    H164831   2.855   3.412   1.359 -0.2912 -1.5456  1.5499
14472TIP3    H264832   2.782   3.302   1.285 -0.5072  0.6714 -1.7311
14473TIP3   OH264833   4.678   1.570   2.429 -0.0546 -0.1242  0.1652
14473TIP3    H164834   4.655   1.557   2.521 -0.7546 -0.4297 -0.0417
14473TIP3    H264835   4.704   1.483   2.398  0.6581  0.0750  0.1986
14474TIP3   OH264836   4.706   6.619   7.109  0.3793  0.2440 -0.0765
14474TIP3    H164837   4.711   6.651   7.019  1.6020  0.3402  0.0175
14474TIP3    H264838   4.633   6.557   7.108 -0.5396  1.2857 -0.7992
14475TIP3   OH264839   4.212   3.888  16.937 -0.1599  0.4280 -0.0251
14475TIP3    H164840   4.231   3.922  17.024  0.5404 -0.8287  0.3423
14475TIP3    H264841   4.296   3.893  16.891 -0.2667  0.0657 -0.2616
14476TIP3   OH264842   0.005   4.666  12.808  0.3317  0.5609  0.0464
14476TIP3    H164843  -0.076   4.640  12.764  0.8027  1.5009 -1.4457
14476TIP3    H264844   0.069   4.601  12.782  0.4598  0.7544 -0.1181
14477TIP3   OH264845   4.854   0.308  16.692 -0.2964 -0.2541 -0.1441
14477TIP3    H164846   4.800   0.286  16.616 -1.8522 -2.4489  1.4510
14477TIP3    H264847   4.942   0.276  16.669 -0.9564 -1.7926 -0.6974
14478TIP3   OH264848   0.487   4.763   4.919  0.2523 -0.4827 -0.3964
14478TIP3    H164849   0.544   4.691   4.948  1.0782  1.1493  2.4797
14478TIP3    H264850   0.399   4.726   4.917  1.0231 -2.4008 -2.4063
14479TIP3   OH264851   0.697   2.621  16.192  0.4021 -0.2271 -0.0408
14479TIP3    H164852   0.722   2.714  16.190 -0.1966 -0.0401  0.6023
14479TIP3    H264853   0.763   2.580  16.248 -1.5128  0.5703  3.0908
14480TIP3   OH264854   6.022   0.204  14.494 -0.0631 -0.0025  0.1607
14480TIP3    H164855   6.048   0.204  14.402 -1.2704  0.3899 -0.2006
14480TIP3    H264856   5.996   0.114  14.512  0.2942 -0.1071  0.1628
14481TIP3   OH264857   1.185   3.989  15.497 -0.1507  0.1409  0.5985
14481TIP3    H164858   1.201   4.015  15.407 -1.0078  2.1577  0.9743
14481TIP3    H264859   1.270   3.994  15.540 -0.2660  2.5004  0.6468
14482TIP3   OH264860   0.659   5.200  11.889  0.2473  0.5478  0.8172
14482TIP3    H164861   0.585   5.259  11.875  0.2880  0.8779  1.9778
14482TIP3    H264862   0.625   5.132  11.947  0.5299  0.0479  0.4099
14483TIP3   OH264863   2.459   4.081  15.357  0.3269  0.1928 -0.6214
14483TIP3    H164864   2.453   4.108  15.449  0.7836 -0.7793 -0.2861
14483TIP3    H264865   2.486   4.160  15.311 -2.9972  1.5688 -0.4509
14484TIP3   OH264866   3.926   4.350   1.145  0.4503 -0.1716 -0.4750
14484TIP3    H164867   3.947   4.346   1.238  2.6165 -0.9995 -0.9451
14484TIP3    H264868   3.875   4.270   1.129 -0.7841  0.4615  0.1546
14485TIP3   OH264869   0.711   4.088   0.702  0.0953 -0.2668  0.0469
14485TIP3    H164870   0.631   4.133   0.674  0.1769 -0.5393 -0.6299
14485TIP3    H264871   0.782   4.144   0.672  0.1675 -0.0816  0.5509
14486TIP3   OH264872   0.475   3.071  11.560  0.3915  0.1618  0.4782
14486TIP3    H164873   0.526   3.143  11.524  0.2199 -0.1401 -0.4036
14486TIP3    H264874   0.384   3.098  11.547  0.3008  0.6019  1.8414
14487TIP3   OH264875   4.561   6.387  13.920  0.4420  0.4828 -0.2753
14487TIP3    H164876   4.597   6.307  13.882  0.4839  0.4381 -0.1434
14487TIP3    H264877   4.601   6.458  13.869 -0.4005  0.3972 -1.0874
14488TIP3   OH264878   5.008   5.299  14.317 -0.2201  0.3990  0.0506
14488TIP3    H164879   5.048   5.255  14.391 -0.6053 -1.4006 -0.7581
14488TIP3    H264880   4.914   5.287  14.329 -0.2900  0.1532 -0.6850
14489TIP3   OH264881   6.437   5.421   4.352 -0.2385 -0.1408  0.1544
14489TIP3    H164882   6.443   5.439   4.258 -1.8395  1.1652  0.2529
14489TIP3    H264883   6.408   5.329   4.357  1.0434 -0.6155 -0.5571
14490TIP3   OH264884   1.855   2.881  17.162 -0.5294  0.6098  0.2755
14490TIP3    H164885   1.943   2.897  17.194 -0.0279  1.2780 -1.3069
14490TIP3    H264886   1.820   2.968  17.142 -1.4519  0.3371  0.6352
14491TIP3   OH264887   2.103   5.448  13.156 -0.0079 -0.2455 -0.4364
14491TIP3    H164888   2.105   5.370  13.102 -0.3115 -0.0595 -0.7206
14491TIP3    H264889   2.195   5.469  13.172  0.0757 -0.5097 -0.5719
14492TIP3   OH264890   1.222   6.273  12.128  0.5681 -0.3370 -0.0242
14492TIP3    H164891   1.174   6.327  12.065  1.3580 -0.7585 -1.0113
14492TIP3    H264892   1.309   6.312  12.131 -0.0468  1.0313  2.5042
14493TIP3   OH264893   5.934   6.011   0.820  0.7571 -0.7096  0.4964
14493TIP3    H164894   5.951   5.981   0.730  0.4930 -1.7408  0.7745
14493TIP3    H264895   5.839   6.022   0.824  0.9193  1.1059  0.1356
14494TIP3   OH264896   4.705   5.861  12.779  0.3281 -0.3670  0.5055
14494TIP3    H164897   4.745   5.787  12.825 -0.5831 -1.1654  0.0503
14494TIP3    H264898   4.614   5.862  12.809 -0.3984 -1.1421 -1.4888
14495TIP3   OH264899   1.234   6.190  15.110  0.2393 -0.1340 -0.3115
14495TIP3    H164900   1.151   6.162  15.072 -0.1182  0.5830 -0.0826
14495TIP3    H264901   1.272   6.249  15.045 -1.3152  2.7076  1.1727
14496TIP3   OH264902   0.021   4.203  14.931 -0.4130 -0.1220 -0.3359
14496TIP3    H164903  -0.008   4.264  14.999  0.2925 -0.2543  0.0869
14496TIP3    H264904   0.109   4.178  14.957  0.5936  1.2140 -2.2436
14497TIP3   OH264905   0.806   5.188   2.026  0.1959  0.3345  0.6770
14497TIP3    H164906   0.762   5.243   1.961 -0.9479  0.8006  1.7971
14497TIP3    H264907   0.835   5.111   1.976  0.5511  1.2712 -0.6303
14498TIP3   OH264908   4.805   2.417   3.001  0.1596  0.4670 -0.7967
14498TIP3    H164909   4.804   2.364   3.080  1.2281  0.9973 -0.4076
14498TIP3    H264910   4.847   2.361   2.935 -2.4477 -0.7209 -1.5933
14499TIP3   OH264911   0.979   1.765   6.659 -0.2333 -0.0617 -0.1105
14499TIP3    H164912   0.925   1.832   6.616 -0.5388 -0.1617  0.1085
14499TIP3    H264913   0.916   1.699   6.688 -0.0460  0.0350  0.5490
14500TIP3   OH264914   1.818   6.067   0.214  0.6982  0.1749 -0.0229
14500TIP3    H164915   1.841   6.117   0.136  1.1717  0.1707  0.1126
14500TIP3    H264916   1.743   6.013   0.187  1.2473 -0.2856 -0.6541
14501TIP3   OH264917   2.672   4.065  12.021  0.5751  0.1965 -0.1728
14501TIP3    H164918   2.752   4.054  12.072  0.5155 -0.2987 -0.1768
14501TIP3    H264919   2.694   4.132  11.956  0.9457  0.1619 -0.0881
14502TIP3   OH264920   4.910   0.839  14.495 -0.0913 -0.1173  0.1690
14502TIP3    H164921   4.873   0.765  14.543  1.2334 -0.2841  0.9703
14502TIP3    H264922   4.885   0.823  14.404 -0.7057 -0.9891  0.4770
14503TIP3   OH264923   5.571   0.497  14.906 -0.1311 -0.1656 -0.3207
14503TIP3    H164924   5.603   0.587  14.920 -1.4529  0.2168  0.4507
14503TIP3    H264925   5.532   0.499  14.819 -2.5827  0.8247  0.7009
14504TIP3   OH264926   6.067   5.214   1.031  0.3972  0.4983  0.2760
14504TIP3    H164927   6.097   5.125   1.011 -0.0924  0.4847 -0.4308
14504TIP3    H264928   6.146   5.268   1.024  0.4023  0.3601 -0.8911
14505TIP3   OH264929   2.554   6.573   6.087 -0.1440 -0.1781 -0.1589
14505TIP3    H164930   2.573   6.625   6.166  0.5635 -1.5689  0.6241
14505TIP3    H264931   2.629   6.589   6.030  1.3194 -2.1720  1.0895
14506TIP3   OH264932   4.782   5.456  16.729 -0.0387  0.1658  0.2881
14506TIP3    H164933   4.857   5.397  16.718  0.8260  0.8401  2.2850
14506TIP3    H264934   4.775   5.469  16.823 -2.6462  0.1939  0.1489
14507TIP3   OH264935   0.137   5.062   0.587 -0.1415  0.0553 -0.2850
14507TIP3    H164936   0.153   4.976   0.547  0.4685  0.2257 -0.4248
14507TIP3    H264937   0.090   5.043   0.667 -0.7058 -0.3554 -0.7034
14508TIP3   OH264938   4.904   5.233   1.707 -0.1338 -0.2872 -0.4789
14508TIP3    H164939   4.891   5.322   1.740 -0.3067 -1.6678  3.6939
14508TIP3    H264940   4.999   5.227   1.693  0.3268 -0.2241  2.1190
14509TIP3   OH264941   1.083   2.958   5.719  0.7531  0.2109  0.0764
14509TIP3    H164942   1.167   2.999   5.740  0.8193  0.4625 -0.6576
14509TIP3    H264943   1.104   2.866   5.707  0.6849  0.0211  1.2446
14510TIP3   OH264944   5.867   3.113  16.148 -0.0391  0.0791 -0.2562
14510TIP3    H164945   5.780   3.098  16.186  0.2796  1.4244  1.0949
14510TIP3    H264946   5.872   3.208  16.138  1.4681  0.0610  0.1548
14511TIP3   OH264947   4.904   3.546  12.482 -0.0925  0.6219  0.5192
14511TIP3    H164948   4.900   3.489  12.559 -0.1978  0.5780  0.4817
14511TIP3    H264949   4.936   3.489  12.412  1.1824  0.9530  0.8018
14512TIP3   OH264950   1.199   6.757  13.980 -0.2601 -0.0349  0.0241
14512TIP3    H164951   1.169   6.766  13.890 -2.4045  1.2815  0.7764
14512TIP3    H264952   1.222   6.664  13.989 -2.8738 -0.8821 -1.1160
14513TIP3   OH264953   5.979   4.514   1.461  0.1543  0.2122  0.1232
14513TIP3    H164954   6.025   4.519   1.545  0.8162 -0.9290 -0.1438
14513TIP3    H264955   5.895   4.473   1.482 -0.6626  2.0445  0.5689
14514TIP3   OH264956   0.418   4.500  14.927  0.1005 -0.3927 -0.0304
14514TIP3    H164957   0.360   4.537  14.861 -0.0945  1.1760  0.9904
14514TIP3    H264958   0.386   4.535  15.010  1.6370 -0.6548  0.6974
14515TIP3   OH264959   4.711   0.700   2.874 -1.1924  0.0194  0.3190
14515TIP3    H164960   4.651   0.650   2.930  0.5028 -1.3844  0.9841
14515TIP3    H264961   4.747   0.767   2.932 -1.3294  0.1824  0.2150
14516TIP3   OH264962   0.102   2.800   2.627  0.0209 -0.4748  0.2218
14516TIP3    H164963   0.132   2.713   2.600  0.5246 -0.8023  1.7348
14516TIP3    H264964   0.059   2.784   2.711 -0.6114  0.6360  0.1222
14517TIP3   OH264965   2.620   6.513  11.601  0.1716  0.1436 -1.0392
14517TIP3    H164966   2.641   6.509  11.694 -1.2164  0.7214 -0.6768
14517TIP3    H264967   2.531   6.478  11.594  0.0450  0.6060 -2.0678
14518TIP3   OH264968   3.770   6.160  16.033  0.5701 -0.4318  0.3172
14518TIP3    H164969   3.800   6.249  16.048 -2.7919  1.2029 -1.5495
14518TIP3    H264970   3.719   6.138  16.111  0.4285 -0.2477  0.2780
14519TIP3   OH264971   0.518   3.157   0.703 -0.2297  0.0784  0.4036
14519TIP3    H164972   0.549   3.225   0.763 -0.8844  0.4045  0.3798
14519TIP3    H264973   0.480   3.090   0.761  0.0652 -0.0881  0.4061
14520TIP3   OH264974   0.956   3.821   0.046 -0.1850 -0.0883  0.0660
14520TIP3    H164975   1.026   3.775  -0.001 -0.4379 -0.8439  0.4104
14520TIP3    H264976   0.898   3.751   0.077 -0.9184  0.5116  0.0646
14521TIP3   OH264977   2.279   4.197   3.410 -0.0103  0.5448 -0.1120
14521TIP3    H164978   2.317   4.268   3.461 -0.7852  0.3919  0.7059
14521TIP3    H264979   2.203   4.235   3.367 -0.1376  0.3332 -0.0772
14522TIP3   OH264980   3.420   2.204  14.692 -0.0216  0.3569 -0.0194
14522TIP3    H164981   3.488   2.164  14.638  3.1793  4.2565  0.7418
14522TIP3    H264982   3.402   2.139  14.760  0.8040 -1.9028 -1.8349
14523TIP3   OH264983   5.070   4.078  15.632 -0.1533 -0.6220  0.4949
14523TIP3    H164984   5.038   4.142  15.695 -0.1056 -1.6008  1.5317
14523TIP3    H264985   5.120   4.130  15.569 -0.8454  0.4641  0.8208
14524TIP3   OH264986   5.108   1.648  12.771 -0.2637 -0.0617  0.4281
14524TIP3    H164987   5.114   1.558  12.739  1.4139  0.1431  0.0796
14524TIP3    H264988   5.102   1.701  12.692  1.9521  0.3176  0.4632
14525TIP3   OH264989   5.473   0.377   1.815 -0.1853  0.1443 -0.2449
14525TIP3    H164990   5.411   0.390   1.743  0.5716  1.8144 -0.6386
14525TIP3    H264991   5.477   0.462   1.859  0.4216 -0.4669  0.9308
14526TIP3   OH264992   1.271   5.807   5.010  0.1221  0.4861 -0.5141
14526TIP3    H164993   1.361   5.836   5.023  0.1072  0.9292 -1.3294
14526TIP3    H264994   1.219   5.865   5.067  0.2028  1.3677 -1.3047
14527TIP3   OH264995   1.488   2.856   0.139 -0.4513 -0.3716  0.5956
14527TIP3    H164996   1.507   2.898   0.056 -1.1514  0.2944  0.7604
14527TIP3    H264997   1.473   2.764   0.117 -1.6071 -0.0200 -0.1606
14528TIP3   OH264998   2.364   6.179   1.619 -0.4833  0.0590  0.0401
14528TIP3    H164999   2.354   6.193   1.525 -0.8207 -0.4867 -0.0130
14528TIP3    H265000   2.372   6.084   1.628  2.7559  0.2561  0.2706
14529TIP3   OH265001   4.516   2.470   2.550  0.1929 -0.6584 -0.1218
14529TIP3    H165002   4.430   2.431   2.568 -0.8775  0.9875 -1.3452
14529TIP3    H265003   4.549   2.422   2.474  0.3596 -1.2650  0.3237
14530TIP3   OH265004   0.424   2.339   0.150  0.5700 -0.5693 -0.2156
14530TIP3    H165005   0.394   2.256   0.113  2.6863 -2.6800  2.3827
14530TIP3    H265006   0.519   2.333   0.148  0.7586  1.5538  0.6029
14531TIP3   OH265007   2.212   4.121  16.864  0.2398 -0.5506  0.0211
14531TIP3    H165008   2.181   4.145  16.777 -0.2011  0.6236  0.4697
14531TIP3    H265009   2.282   4.058  16.849  0.7708  0.2978 -1.2219
14532TIP3   OH265010   3.382   0.157  12.299  0.0094 -0.4185  0.1389
14532TIP3    H165011   3.452   0.160  12.364 -0.4749  1.2070  0.6389
14532TIP3    H265012   3.421   0.113  12.224  0.8020 -1.7212  1.2690
14533TIP3   OH265013   0.943   1.277   3.434  0.0717  0.1893  0.2518
14533TIP3    H165014   0.849   1.271   3.453  0.5470 -2.9315  2.3912
14533TIP3    H265015   0.985   1.275   3.520  2.1590 -1.5381 -0.7257
14534TIP3   OH265016   6.260   6.478  13.457 -0.8719 -1.0096 -0.1489
14534TIP3    H165017   6.280   6.571  13.459  0.5440 -1.3067  0.9141
14534TIP3    H265018   6.260   6.456  13.363  2.0977 -0.5646 -0.3499
14535TIP3   OH265019   2.306   3.119  14.451  0.1745 -1.0758 -0.1922
14535TIP3    H165020   2.267   3.204  14.430 -0.8199 -1.3169  0.5850
14535TIP3    H265021   2.399   3.137  14.459  0.4101 -0.6555 -3.0226
14536TIP3   OH265022   3.137   0.106   4.945  0.3489 -0.2751  0.6218
14536TIP3    H165023   3.169   0.164   4.876  1.1854  0.3131  1.4855
14536TIP3    H265024   3.052   0.143   4.970  0.4798  0.0657  0.5633
14537TIP3   OH265025   5.263   5.841   5.051  0.8509  0.1694  0.0699
14537TIP3    H165026   5.310   5.871   4.973  1.8546  0.4070  0.7578
14537TIP3    H265027   5.178   5.813   5.017  0.5013  2.1514 -0.8512
14538TIP3   OH265028   6.757   5.955   2.317 -0.9037  0.4159  0.0801
14538TIP3    H165029   6.728   5.900   2.244 -2.5419  1.1906  0.1100
14538TIP3    H265030   6.694   5.939   2.387  0.1343  0.3590  1.0431
14539TIP3   OH265031   4.513   4.121  16.137 -0.0397  0.4088  0.1409
14539TIP3    H165032   4.502   4.086  16.048  1.7451  0.6367 -0.2192
14539TIP3    H265033   4.425   4.120  16.174 -1.0722  1.5135 -2.0666
14540TIP3   OH265034   3.372   3.073  14.925  0.5130  0.6908  0.1312
14540TIP3    H165035   3.324   3.100  14.847 -0.5992  2.0717  1.2296
14540TIP3    H265036   3.306   3.071  14.995  1.1607 -2.0128  0.7913
14541TIP3   OH265037   1.265   0.997  14.118 -0.7001 -0.1991  0.0870
14541TIP3    H165038   1.310   0.926  14.073  0.7429  0.1167  0.9401
14541TIP3    H265039   1.296   0.991  14.209 -2.6533 -0.1364  0.8153
14542TIP3   OH265040   0.967   4.790   5.731 -0.5027 -0.0959  0.3942
14542TIP3    H165041   1.013   4.783   5.647 -1.0240  0.7621  0.0247
14542TIP3    H265042   0.913   4.711   5.735 -0.4733 -0.1419 -0.0752
14543TIP3   OH265043   0.224   4.476   1.641 -0.2130  0.0303 -0.1647
14543TIP3    H165044   0.313   4.503   1.663 -0.7915  1.2371  0.7871
14543TIP3    H265045   0.218   4.385   1.671 -0.1357  0.7876  2.3183
14544TIP3   OH265046   0.486   3.946   5.851  0.6980 -0.1479  0.2294
14544TIP3    H165047   0.398   3.982   5.836  0.6323 -0.0366  0.8581
14544TIP3    H265048   0.502   3.960   5.944  1.5569  0.2051  0.0318
14545TIP3   OH265049   2.211   0.907  14.585  0.3109  0.2408  0.1315
14545TIP3    H165050   2.260   0.952  14.517  0.1238 -1.6359 -1.3168
14545TIP3    H265051   2.129   0.881  14.543 -0.4889  0.3806  1.5349
14546TIP3   OH265052   2.746   3.027  14.837 -0.1529 -0.0660  0.4893
14546TIP3    H165053   2.839   3.005  14.834  0.4246  2.1651 -0.5892
14546TIP3    H265054   2.703   2.957  14.789  0.8079 -1.6637  1.8634
14547TIP3   OH265055   2.671   2.176   5.458 -0.4576 -0.5161  0.9353
14547TIP3    H165056   2.644   2.095   5.415  1.8099 -0.3490 -0.9985
14547TIP3    H265057   2.727   2.149   5.530 -1.3251 -0.6953  1.5548
14548TIP3   OH265058   0.808   4.933   5.064  0.0960  0.3533 -0.9014
14548TIP3    H165059   0.881   4.899   5.012 -0.9597 -3.8627  0.0453
14548TIP3    H265060   0.736   4.942   5.001  0.1958  0.1797 -1.0405
14549TIP3   OH265061   2.530   3.639  12.290  0.6637  0.1818  0.0197
14549TIP3    H165062   2.522   3.723  12.245 -1.0172 -0.3670 -0.8276
14549TIP3    H265063   2.543   3.662  12.382  0.2719  1.3815 -0.2019
14550TIP3   OH265064   4.119   2.534   1.731 -0.1892 -0.1152  0.1305
14550TIP3    H165065   4.214   2.525   1.738 -0.1683  0.5434  0.7790
14550TIP3    H265066   4.103   2.551   1.638  0.2306 -1.2543 -0.1661
14551TIP3   OH265067   0.838   1.699  17.039 -0.3965 -0.5984 -0.0242
14551TIP3    H165068   0.829   1.706  16.944 -0.4094 -1.3559 -0.0794
14551TIP3    H265069   0.766   1.752  17.074 -0.0408  0.1729 -0.4246
14552TIP3   OH265070   3.823   1.727  16.538  0.2237 -0.0326  0.3246
14552TIP3    H165071   3.789   1.734  16.628 -3.3253  0.9555 -0.9270
14552TIP3    H265072   3.776   1.652  16.501 -0.0005  0.8733 -1.3032
14553TIP3   OH265073   1.794   3.118  17.065  0.7408 -0.4738  0.2228
14553TIP3    H165074   1.725   3.153  17.121  1.3177  0.3917  0.4119
14553TIP3    H265075   1.752   3.107  16.979 -0.1760 -1.9212  0.8281
14554TIP3   OH265076   4.256   5.605   5.572 -0.2378  0.2723 -0.0002
14554TIP3    H165077   4.215   5.620   5.658 -1.2219  3.3056 -0.8605
14554TIP3    H265078   4.347   5.633   5.584 -0.0786 -0.3663  0.3151
14555TIP3   OH265079   5.084   2.484  15.252 -0.3460  0.1058 -0.0849
14555TIP3    H165080   5.171   2.524  15.253 -1.0268  1.7798  2.6152
14555TIP3    H265081   5.101   2.390  15.240  1.6339  0.6117 -1.7457
14556TIP3   OH265082   1.961   3.101  13.666 -0.6102  0.1213 -0.1173
14556TIP3    H165083   1.937   3.045  13.740  2.2378 -1.5696 -0.3361
14556TIP3    H265084   2.050   3.130  13.685 -0.6495  1.5713 -1.8361
14557TIP3   OH265085   3.307   1.787   1.329  0.2071  0.0091  0.5210
14557TIP3    H165086   3.303   1.844   1.252  0.6204  0.7427  1.0363
14557TIP3    H265087   3.261   1.707   1.302 -0.7605  0.7429 -0.0596
14558TIP3   OH265088   5.684   6.024   1.099 -0.0834  0.5869  0.4713
14558TIP3    H165089   5.626   6.049   1.026  0.3998  0.5527  0.0688
14558TIP3    H265090   5.624   5.991   1.166 -0.4111 -2.3213 -1.0549
14559TIP3   OH265091   6.635   4.875   4.233 -0.7244  0.1456 -0.0827
14559TIP3    H165092   6.694   4.800   4.236 -0.4940  0.3202 -0.2023
14559TIP3    H265093   6.583   4.861   4.154 -1.2070 -0.2815  0.3125
14560TIP3   OH265094   3.896   6.709  11.735 -0.2646  0.9436 -0.5220
14560TIP3    H165095   3.876   6.620  11.762  0.5741  1.5469  2.5115
14560TIP3    H265096   3.952   6.699  11.658 -1.2765 -1.0545 -1.0580
14561TIP3   OH265097   4.615   0.618   5.890 -0.2749  0.5268 -0.0914
14561TIP3    H165098   4.583   0.709   5.890 -1.3921  0.1928 -1.6298
14561TIP3    H265099   4.628   0.598   5.797  0.7347 -0.6483  0.2725
14562TIP3   OH265100   1.827   3.221  16.524 -0.3557  0.1377  0.2771
14562TIP3    H165101   1.815   3.129  16.499  1.8715 -0.1943  0.2004
14562TIP3    H265102   1.854   3.218  16.615  0.6899  0.6084  0.0036
14563TIP3   OH265103   4.566   5.768   4.841 -0.2815  0.1349 -0.4012
14563TIP3    H165104   4.584   5.765   4.747 -0.8743  0.8480 -0.5483
14563TIP3    H265105   4.645   5.808   4.879  0.0808 -0.4207 -0.5488
14564TIP3   OH265106   1.839   6.203   2.002  0.3312  0.2819 -0.3039
14564TIP3    H165107   1.809   6.222   2.091  1.4021 -0.4491  0.2332
14564TIP3    H265108   1.841   6.289   1.959  0.5437  0.7546  0.6146
14565TIP3   OH265109   5.889   1.204  12.159  0.5481  0.3257  1.0129
14565TIP3    H165110   5.969   1.207  12.108  0.7211  0.3371  1.2812
14565TIP3    H265111   5.875   1.294  12.187 -1.1492  0.9049 -1.4436
14566TIP3   OH265112   1.225   6.094   4.714 -0.0378 -0.5153  0.1651
14566TIP3    H165113   1.241   6.127   4.625  0.5076  1.2846  0.8849
14566TIP3    H265114   1.308   6.057   4.741  0.2267  0.2566  0.4378
14567TIP3   OH265115   3.275   5.550  13.044 -0.7878 -0.1721 -0.1919
14567TIP3    H165116   3.358   5.565  12.999 -0.6810  0.4562  0.2085
14567TIP3    H265117   3.252   5.635  13.082 -0.4507 -0.8792  1.6835
14568TIP3   OH265118   0.256   3.516   1.441 -0.6051  0.1373 -0.0535
14568TIP3    H165119   0.318   3.447   1.464 -0.2607  0.3191 -0.4239
14568TIP3    H265120   0.219   3.543   1.525 -0.3679 -0.1483  0.1455
14569TIP3   OH265121   1.011   0.339  14.638  0.3459  0.1420  0.0109
14569TIP3    H165122   0.968   0.254  14.651 -0.6693  0.2260 -2.2790
14569TIP3    H265123   0.947   0.403  14.670 -0.3502  0.1578 -1.3345
14570TIP3   OH265124   0.055   2.393   0.274  0.1123 -0.4431 -0.2597
14570TIP3    H165125   0.096   2.479   0.282  1.3391 -1.0876  0.7391
14570TIP3    H265126  -0.036   2.412   0.250  0.2063  1.1603  0.5055
14571TIP3   OH265127   1.570   0.221   1.309 -0.3891 -0.2317 -0.2880
14571TIP3    H165128   1.575   0.195   1.401 -1.0604 -0.8727 -0.4234
14571TIP3    H265129   1.580   0.316   1.311  0.3211 -0.3077  0.3774
14572TIP3   OH265130   3.794   2.620   4.022 -0.1782  0.3261 -0.0862
14572TIP3    H165131   3.887   2.642   4.014  0.5944 -2.7531 -0.6362
14572TIP3    H265132   3.751   2.705   4.035  2.6413  1.8826 -0.0680
14573TIP3   OH265133   5.984   4.056   0.026 -0.0186  0.2103 -0.2902
14573TIP3    H165134   5.953   3.965   0.029 -0.6494  0.3891 -1.0171
14573TIP3    H265135   6.001   4.078   0.117  0.3651 -0.7120 -0.1223
14574TIP3   OH265136   1.365   5.450  11.496  0.0297 -0.1032 -0.3444
14574TIP3    H165137   1.454   5.447  11.531  0.3505  0.3915 -1.1183
14574TIP3    H265138   1.348   5.360  11.467  0.1601 -0.2683  0.0788
14575TIP3   OH265139   1.897   5.351  10.738  0.5340 -0.8540  0.6014
14575TIP3    H165140   1.975   5.337  10.685  0.6421 -1.3319  0.8845
14575TIP3    H265141   1.876   5.265  10.774 -1.2390 -1.1862 -1.0095
14576TIP3   OH265142   3.177   2.545  17.141 -0.2296 -0.1634  0.0366
14576TIP3    H165143   3.182   2.565  17.048 -0.5068 -0.6953 -0.0937
14576TIP3    H265144   3.120   2.469  17.147 -1.8485  1.0391  0.8081
14577TIP3   OH265145   3.503   6.585  16.222  0.4830 -0.6483 -0.2113
14577TIP3    H165146   3.445   6.536  16.163  0.3367 -2.0514  1.0457
14577TIP3    H265147   3.511   6.529  16.299  2.4514  0.1324  0.2009
14578TIP3   OH265148   0.936   0.011   0.308  0.4349  0.4765  0.5384
14578TIP3    H165149   0.936   0.106   0.299  1.6993  0.4148 -0.3527
14578TIP3    H265150   1.029  -0.012   0.313  0.1201 -0.6047  2.1261
14579TIP3   OH265151   0.433   5.784   1.443 -0.6524 -0.1658 -0.2136
14579TIP3    H165152   0.391   5.761   1.526 -0.2593 -2.1367 -0.5108
14579TIP3    H265153   0.453   5.877   1.451 -0.1316 -0.4197  2.1347
14580TIP3   OH265154   3.396   2.374  13.244  0.0334  0.2404  0.1214
14580TIP3    H165155   3.460   2.417  13.301 -0.9558  0.3106  1.2131
14580TIP3    H265156   3.351   2.445  13.200  0.5438  0.1961 -0.4929
14581TIP3   OH265157   3.251   4.582  15.513  0.1640  0.2574 -0.1126
14581TIP3    H165158   3.248   4.623  15.599  2.1809  0.5963 -0.1718
14581TIP3    H265159   3.180   4.624  15.464 -0.6397  0.4623  1.1744
14582TIP3   OH265160   0.334   4.096   2.677  0.6954  0.7838  0.8310
14582TIP3    H165161   0.253   4.074   2.722 -0.5377 -0.6073 -1.8037
14582TIP3    H265162   0.306   4.138   2.596  2.6259  0.8786  0.1487
14583TIP3   OH265163   0.074   0.119   4.549  0.1908  0.5612 -0.2592
14583TIP3    H165164   0.079   0.213   4.531  0.8937  0.3482 -1.2364
14583TIP3    H265165   0.148   0.102   4.607 -0.2541  0.6932  0.3616
14584TIP3   OH265166   1.612   2.094  16.237  0.6441  0.0852  0.1257
14584TIP3    H165167   1.614   1.998  16.234 -3.7649 -0.1944  0.7497
14584TIP3    H265168   1.620   2.120  16.145  0.5773 -0.9488 -0.1913
14585TIP3   OH265169   4.454   2.808   5.381  0.0746 -0.0255 -0.3620
14585TIP3    H165170   4.401   2.802   5.302  0.0021 -1.5053 -0.2280
14585TIP3    H265171   4.431   2.731   5.432 -0.6969  1.4263  1.6553
14586TIP3   OH265172   2.931   4.670  14.774 -0.1128  0.0787 -0.1349
14586TIP3    H165173   2.989   4.692  14.847 -1.7748 -0.2577  1.3906
14586TIP3    H265174   2.846   4.707  14.800 -1.3373 -2.1514 -0.7261
14587TIP3   OH265175   6.172   3.058  17.250 -0.3137 -0.3359 -0.1829
14587TIP3    H165176   6.082   3.029  17.265  0.4993 -1.2718  4.6744
14587TIP3    H265177   6.165   3.152  17.235 -2.1246 -0.0137  2.1320
14588TIP3   OH265178   5.359   6.618   3.581 -0.2891 -0.3121  0.1474
14588TIP3    H165179   5.340   6.642   3.671  0.2187 -0.6135  0.3414
14588TIP3    H265180   5.276   6.583   3.547 -0.9995  1.5337 -0.1064
14589TIP3   OH265181   2.322   0.264  15.423 -0.2043  0.1192 -0.4864
14589TIP3    H165182   2.336   0.343  15.475 -0.6831  0.9030 -1.5133
14589TIP3    H265183   2.248   0.220  15.465 -1.0037  1.0723 -0.8697
14590TIP3   OH265184   1.851   2.208  11.919  0.3796 -0.1681 -0.1502
14590TIP3    H165185   1.877   2.237  11.831  2.5454 -3.3460 -0.7346
14590TIP3    H265186   1.755   2.216  11.920  0.0610 -1.7452 -3.5957
14591TIP3   OH265187   3.033   3.324   3.928 -0.3403 -0.6191  0.6955
14591TIP3    H165188   3.059   3.371   3.849  1.9393 -0.3723  1.5277
14591TIP3    H265189   2.980   3.387   3.978 -1.1132 -0.5160 -0.2281
14592TIP3   OH265190   4.646   4.329  16.825 -0.7510 -0.1785 -0.4567
14592TIP3    H165191   4.607   4.404  16.871  0.1835  0.8117 -1.2216
14592TIP3    H265192   4.631   4.255  16.883  0.5919  1.0622  1.5964
14593TIP3   OH265193   3.176   0.802  12.856  0.3735 -0.2821  0.2640
14593TIP3    H165194   3.262   0.838  12.876  0.2301  0.2033  0.0207
14593TIP3    H265195   3.189   0.749  12.778 -0.1101  2.3133 -1.7323
14594TIP3   OH265196   6.177   1.295  12.445  0.1702  0.5905 -0.1038
14594TIP3    H165197   6.192   1.373  12.391 -0.4990  1.0307  0.3245
14594TIP3    H265198   6.177   1.329  12.535  3.5734 -0.4427  0.4069
14595TIP3   OH265199   4.691   6.094  15.208 -0.2685 -0.2835 -0.5587
14595TIP3    H165200   4.633   6.157  15.251  0.7680  1.4238 -1.5072
14595TIP3    H265201   4.741   6.054  15.280 -1.7180 -0.8767  0.1533
14596TIP3   OH265202   4.247   3.673  11.818 -0.4382 -0.1360  0.2836
14596TIP3    H165203   4.213   3.760  11.834 -1.6360 -0.6005  0.3341
14596TIP3    H265204   4.233   3.658  11.724 -1.6142 -0.8371  0.5596
14597TIP3   OH265205   0.875   2.743   2.175  0.0286 -0.5484  0.2554
14597TIP3    H165206   0.851   2.745   2.082  0.1557  0.4402  0.2292
14597TIP3    H265207   0.966   2.774   2.176  0.0913 -0.7507  0.6925
14598TIP3   OH265208   6.101   2.567   1.223 -0.5364  0.5457 -0.3498
14598TIP3    H165209   6.077   2.511   1.150 -0.3157  1.1175 -0.8672
14598TIP3    H265210   6.056   2.529   1.299 -1.1453  0.2290 -0.8661
14599TIP3   OH265211   1.993   2.832  11.572 -0.1412 -0.4361  0.0627
14599TIP3    H165212   2.084   2.813  11.592 -0.1227 -0.2860  0.1212
14599TIP3    H265213   1.959   2.875  11.650 -0.0061  0.3617 -0.3161
14600TIP3   OH265214   1.344   3.471  17.329  0.1030  0.2691  0.1083
14600TIP3    H165215   1.388   3.475  17.414 -0.7886 -0.6302  0.6248
14600TIP3    H265216   1.275   3.406  17.340  0.6452 -0.6815 -1.6122
14601TIP3   OH265217   1.585   3.790   3.635  0.2494  0.1251  0.3768
14601TIP3    H165218   1.600   3.710   3.585  0.1544  0.2204  0.1965
14601TIP3    H265219   1.593   3.861   3.571  0.8803  0.2985  0.6428
14602TIP3   OH265220   1.733   5.571   6.805  0.2981 -0.0112  0.3504
14602TIP3    H165221   1.657   5.622   6.831 -1.1253 -2.2397  0.8720
14602TIP3    H265222   1.713   5.481   6.832  2.7112 -0.8665 -0.3563
14603TIP3   OH265223   4.715   2.176   1.742  0.0888 -0.3882  0.3300
14603TIP3    H165224   4.712   2.233   1.819 -1.2820 -0.1033  0.0910
14603TIP3    H265225   4.665   2.223   1.675  1.4089 -0.5419 -0.8129
14604TIP3   OH265226   3.715   1.059   0.005  0.4046  0.2605  0.4776
14604TIP3    H165227   3.766   1.140   0.006  1.1943 -0.2216  1.3391
14604TIP3    H265228   3.710   1.034  -0.087  0.2551  1.2170  0.2180
14605TIP3   OH265229   1.876   3.674   5.037 -0.4594 -0.3946 -0.1605
14605TIP3    H165230   1.833   3.715   5.112 -0.7295  0.9707 -1.0336
14605TIP3    H265231   1.961   3.717   5.031 -1.5511  1.6593 -2.3485
14606TIP3   OH265232   3.193   1.536   1.259  0.2346 -0.3138 -0.3427
14606TIP3    H165233   3.110   1.487   1.261  0.0349  0.0378  0.1774
14606TIP3    H265234   3.256   1.477   1.300 -0.4232  0.5940  2.1159
14607TIP3   OH265235   2.287   1.489  16.621  0.2689 -0.1068 -0.1852
14607TIP3    H165236   2.258   1.471  16.711  0.2341 -1.0094 -0.3679
14607TIP3    H265237   2.226   1.439  16.566  2.3986 -2.5125 -0.5771
14608TIP3   OH265238   5.323   0.887  12.743 -0.3967  0.3063  0.3051
14608TIP3    H165239   5.228   0.899  12.748 -0.6659 -1.1330 -0.5747
14608TIP3    H265240   5.337   0.840  12.660  1.0714  0.3508  0.4940
14609TIP3   OH265241   4.020   2.470  15.681 -0.7028 -0.3272  0.2644
14609TIP3    H165242   4.022   2.380  15.648 -0.0576 -0.4730  0.6994
14609TIP3    H265243   4.032   2.524  15.602 -0.6855 -0.6300  0.0567
14610TIP3   OH265244   1.999   2.000   1.714  0.4708  0.6378  0.4536
14610TIP3    H165245   2.051   1.959   1.645 -1.2581 -2.4234  0.8035
14610TIP3    H265246   1.922   2.034   1.669  1.1299  2.1870  0.4137
14611TIP3   OH265247   5.107   2.266   2.990 -0.0835  0.6083  0.2659
14611TIP3    H165248   5.109   2.360   2.972  0.7363  0.9498  1.9676
14611TIP3    H265249   5.187   2.232   2.950 -0.7165  0.4858 -0.9476
14612TIP3   OH265250   4.191   4.416  12.129 -0.2581 -0.8958  0.1624
14612TIP3    H165251   4.152   4.367  12.202 -2.3290 -0.3499 -0.4965
14612TIP3    H265252   4.284   4.422  12.151 -0.9615  0.3210  3.3952
14613TIP3   OH265253   5.457   5.628  12.055  0.3143  0.0730  0.0049
14613TIP3    H165254   5.473   5.535  12.035  0.8688  0.4482 -1.3917
14613TIP3    H265255   5.405   5.660  11.982 -1.8499  0.3550  1.5904
14614TIP3   OH265256   3.174   4.809   1.692 -0.2504 -0.0940  0.2713
14614TIP3    H165257   3.193   4.843   1.604 -0.0878  0.6290  0.5816
14614TIP3    H265258   3.192   4.715   1.686  0.1148  0.0115 -0.3672
14615TIP3   OH265259   0.172   4.581   3.921  0.3947  0.0599 -0.3548
14615TIP3    H165260   0.146   4.492   3.947  1.2853  0.2128  1.1641
14615TIP3    H265261   0.171   4.579   3.825 -0.6486 -1.2612 -0.3551
14616TIP3   OH265262   2.167   4.361  14.259  0.5215 -0.2108  0.5791
14616TIP3    H165263   2.143   4.268  14.261 -0.0217 -0.1578 -1.2780
14616TIP3    H265264   2.177   4.385  14.351  0.3044 -2.0065  1.1204
14617TIP3   OH265265   0.860   2.335  17.085 -0.2277  0.2917  0.3399
14617TIP3    H165266   0.791   2.276  17.055 -0.4878  0.4702  0.5758
14617TIP3    H265267   0.911   2.355  17.007  0.1500 -0.6142  0.3438
14618TIP3   OH265268   6.193   2.198  16.543  0.6020 -0.4087 -0.0929
14618TIP3    H165269   6.287   2.204  16.526  0.8889 -1.1440  1.1291
14618TIP3    H265270   6.170   2.109  16.516  0.8147 -1.1545  2.0233
14619TIP3   OH265271   4.148   0.448   1.082  0.5620  0.2935 -0.5927
14619TIP3    H165272   4.213   0.402   1.136 -0.6491 -0.0925  0.5744
14619TIP3    H265273   4.103   0.378   1.035  0.2173  0.4613 -0.5128
14620TIP3   OH265274   0.864   1.472   1.216  0.7040  0.0264  0.1547
14620TIP3    H165275   0.875   1.400   1.154 -0.1651  0.7550 -0.8954
14620TIP3    H265276   0.821   1.541   1.165  0.7540  0.9818  1.3488
14621TIP3   OH265277   6.347   2.949   4.269  0.0255  0.0608  0.1974
14621TIP3    H165278   6.439   2.926   4.281  0.3077  1.3623  0.6805
14621TIP3    H265279   6.341   2.981   4.179 -0.1904 -1.0279 -0.1883
14622TIP3   OH265280   4.042   2.248   1.057 -0.2304  0.0500 -0.3877
14622TIP3    H165281   4.117   2.240   1.115 -0.1424  0.9902 -0.3418
14622TIP3    H265282   4.002   2.161   1.055  0.4536 -0.2811  0.1365
14623TIP3   OH265283   2.322   1.871  14.023  0.0079  0.4216  0.2660
14623TIP3    H165284   2.344   1.786  13.985  0.1204  0.1201  0.9860
14623TIP3    H265285   2.287   1.850  14.110  1.8157  1.2038  1.2486
14624TIP3   OH265286   2.442   0.615   5.637 -0.0043 -0.2872 -0.0347
14624TIP3    H165287   2.351   0.635   5.657 -0.2363 -2.0311  0.9192
14624TIP3    H265288   2.459   0.658   5.553 -1.9558 -0.5593 -0.6185
14625TIP3   OH265289   5.820   5.771   4.383  0.0869 -0.0739 -0.3096
14625TIP3    H165290   5.834   5.704   4.450  0.8319 -0.2826 -0.6647
14625TIP3    H265291   5.801   5.850   4.433 -2.6197 -0.8968  0.1052
14626TIP3   OH265292   1.835   2.264   2.068  0.6433 -0.3409 -0.1437
14626TIP3    H165293   1.810   2.177   2.036 -0.9897  0.1177 -0.2036
14626TIP3    H265294   1.855   2.251   2.160 -0.8638 -0.5888  0.1773
14627TIP3   OH265295   0.496   4.165   2.903 -0.1058  0.5009 -0.5557
14627TIP3    H165296   0.554   4.219   2.849 -1.7755  1.9739 -0.9828
14627TIP3    H265297   0.425   4.140   2.843 -0.4157 -0.4199  0.1818
14628TIP3   OH265298   2.468   1.174  16.438 -0.2641  0.5151  0.0485
14628TIP3    H165299   2.413   1.228  16.381 -0.7923 -0.9873 -0.9307
14628TIP3    H265300   2.537   1.141  16.381 -0.5853 -0.7180  0.3411
14629TIP3   OH265301   5.058   5.242   0.215  0.0998  0.1087  0.1795
14629TIP3    H165302   5.114   5.164   0.217 -1.5773 -1.1775 -0.1324
14629TIP3    H265303   5.114   5.311   0.180  2.0927 -0.5405  1.9173
14630TIP3   OH265304   2.419   3.972   0.995  0.2041  0.1060  0.1828
14630TIP3    H165305   2.454   3.946   1.081  2.4810  0.7062 -0.5012
14630TIP3    H265306   2.458   4.058   0.978  2.3239 -1.2751 -2.7360
14631TIP3   OH265307   2.216   0.664  17.083 -1.0914 -0.3817 -0.4521
14631TIP3    H165308   2.259   0.623  17.158 -0.3561 -1.2313 -1.3120
14631TIP3    H265309   2.148   0.719  17.122 -0.1870 -0.1403  0.8842
14632TIP3   OH265310   2.407   6.050  11.937  0.0432  0.1229 -0.2779
14632TIP3    H165311   2.421   6.087  11.850  0.5496 -0.3970 -0.4205
14632TIP3    H265312   2.341   6.107  11.977 -0.3252  0.2558 -1.0631
14633TIP3   OH265313   1.671   5.735   5.264 -0.1527  0.0975  0.2148
14633TIP3    H165314   1.581   5.746   5.296  0.5141  1.4353  1.8248
14633TIP3    H265315   1.671   5.650   5.220 -2.4601  0.5601 -0.8303
14634TIP3   OH265316   0.709   1.560   3.209 -1.0742 -0.9052 -0.3937
14634TIP3    H165317   0.781   1.532   3.266 -2.4999  1.6367  3.0384
14634TIP3    H265318   0.732   1.527   3.122  2.2318 -3.5036  1.2520
14635TIP3   OH265319   5.846   0.097   3.469 -0.2540 -0.2303  0.3442
14635TIP3    H165320   5.827   0.150   3.547  0.8439 -1.0295  1.1813
14635TIP3    H265321   5.898   0.024   3.502  2.0495  0.5065 -1.4438
14636TIP3   OH265322   1.732   0.893   2.410  0.4539  0.1874 -0.7439
14636TIP3    H165323   1.773   0.977   2.391  0.9859  0.1905  0.3409
14636TIP3    H265324   1.765   0.869   2.497 -1.1593 -0.2309 -0.2117
14637TIP3   OH265325   6.406   6.071  16.057 -0.8095  0.1132 -0.3886
14637TIP3    H165326   6.414   6.139  16.123  1.0360 -0.9907  0.5928
14637TIP3    H265327   6.465   6.098  15.986  0.5946 -0.8056  0.3743
14638TIP3   OH265328   3.603   0.409  13.318 -0.5297 -0.0587  0.2212
14638TIP3    H165329   3.655   0.389  13.396  0.3300  0.3038 -0.2495
14638TIP3    H265330   3.599   0.327  13.269 -0.0809  0.0046  0.0758
14639TIP3   OH265331   5.805   2.954   2.950  0.1877  0.0809  0.0843
14639TIP3    H165332   5.831   2.979   3.039  1.7173  0.1437 -0.3508
14639TIP3    H265333   5.713   2.978   2.944  0.7734  2.8108  0.7241
14640TIP3   OH265334   0.087   1.482  11.576  0.5848  0.3624 -0.1984
14640TIP3    H165335   0.178   1.509  11.584  0.7591 -0.2387 -0.0773
14640TIP3    H265336   0.080   1.444  11.489  1.0284 -1.6290  0.5756
14641TIP3   OH265337   5.246   4.129  11.834  0.2843 -0.5474 -0.1342
14641TIP3    H165338   5.226   4.198  11.771  0.5253 -1.3880 -1.1484
14641TIP3    H265339   5.325   4.087  11.799  0.9355 -0.4834  1.1855
14642TIP3   OH265340   2.934   4.453   0.442 -0.1597 -0.2749  0.6362
14642TIP3    H165341   2.932   4.548   0.436  0.0646 -0.1467  2.1041
14642TIP3    H265342   2.906   4.422   0.356  2.8293  1.0858 -0.9877
14643TIP3   OH265343   1.669   4.486  14.889 -0.5070 -0.2053  0.2608
14643TIP3    H165344   1.756   4.453  14.868 -0.5357  0.2849 -0.6689
14643TIP3    H265345   1.610   4.413  14.870 -0.2567 -0.7915  1.5874
14644TIP3   OH265346   5.120   6.109   1.743  0.3394  0.3414 -0.3791
14644TIP3    H165347   5.027   6.109   1.720 -0.0899  0.0919  1.2407
14644TIP3    H265348   5.126   6.162   1.822  1.3700 -0.6679  0.2607
14645TIP3   OH265349   2.049   0.605   0.835  0.0944  0.1084 -0.5849
14645TIP3    H165350   2.055   0.671   0.766 -1.6978 -0.7945 -1.6552
14645TIP3    H265351   2.140   0.583   0.854  0.7587  2.6974 -0.3346
14646TIP3   OH265352   0.264   6.563   1.702  0.5406 -0.5631 -0.7786
14646TIP3    H165353   0.303   6.635   1.654 -0.2674  1.6879  1.6770
14646TIP3    H265354   0.180   6.548   1.658  0.8507 -0.2464 -1.5011
14647TIP3   OH265355   5.759   6.314   2.883 -0.0422 -0.3092 -0.0378
14647TIP3    H165356   5.793   6.398   2.852 -0.4395 -0.5200 -1.0669
14647TIP3    H265357   5.664   6.320   2.870  0.1252 -1.7783 -2.3202
14648TIP3   OH265358   4.856   5.562   5.792 -0.2627  0.3724  0.0948
14648TIP3    H165359   4.921   5.534   5.727 -0.3888 -0.2611  0.2344
14648TIP3    H265360   4.872   5.506   5.867  1.1158  2.3070  1.3566
14649TIP3   OH265361   1.353   3.427   0.459 -0.4870 -0.1756 -0.3729
14649TIP3    H165362   1.350   3.340   0.500 -0.1755 -0.3788 -0.7676
14649TIP3    H265363   1.386   3.485   0.528 -0.8816 -0.3303 -0.0480
14650TIP3   OH265364   5.233   1.200   5.341 -0.2933  0.1209  0.1823
14650TIP3    H165365   5.313   1.150   5.329 -0.9948 -1.2101  0.7973
14650TIP3    H265366   5.163   1.137   5.326 -1.2865  1.5620 -1.7506
14651TIP3   OH265367   5.189   3.162   4.502 -0.2690 -0.3781 -0.0624
14651TIP3    H165368   5.257   3.206   4.452  0.6647 -2.5570 -0.7977
14651TIP3    H265369   5.235   3.114   4.571 -1.1647 -0.8465  0.2417
14652TIP3   OH265370   3.795   6.081   5.087 -0.1701 -0.6362 -0.0553
14652TIP3    H165371   3.727   6.149   5.080 -0.9873 -1.1469  2.1502
14652TIP3    H265372   3.821   6.064   4.996 -0.2098  2.3229 -0.7184
14653TIP3   OH265373   3.247   4.163   6.036 -0.1105  0.1574  0.2429
14653TIP3    H165374   3.167   4.201   6.072  0.8020  1.3174  1.1265
14653TIP3    H265375   3.219   4.081   5.996 -2.0425  1.3806 -1.0835
14654TIP3   OH265376   6.457   1.848  11.411  0.0976  0.1537  0.0847
14654TIP3    H165377   6.508   1.916  11.456  0.9595 -0.2509 -0.2637
14654TIP3    H265378   6.411   1.895  11.342  1.2628  0.2955 -0.6293
14655TIP3   OH265379   2.039   6.476  16.043 -0.0309  0.1262  0.3205
14655TIP3    H165380   2.065   6.538  15.974  2.9077  1.1289  2.1531
14655TIP3    H265381   2.030   6.529  16.122 -2.4676 -1.1285  1.0088
14656TIP3   OH265382   5.652   2.095  13.403  0.4887 -0.3974  0.7206
14656TIP3    H165383   5.672   2.132  13.317 -0.7910  1.0642  1.0049
14656TIP3    H265384   5.581   2.033  13.387 -1.4570  1.6417  0.9676
14657TIP3   OH265385   1.693   2.685   2.669  0.0449  0.0874 -0.2864
14657TIP3    H165386   1.664   2.659   2.756  1.2832 -1.2877 -0.2474
14657TIP3    H265387   1.783   2.715   2.682 -0.0335  0.6553 -0.9804
14658TIP3   OH265388   1.423   1.096  16.085 -0.6591  0.6058 -0.2222
14658TIP3    H165389   1.331   1.069  16.076 -0.0864 -1.3025 -0.8903
14658TIP3    H265390   1.440   1.093  16.179 -1.4159  1.5043 -0.0470
14659TIP3   OH265391   3.415   3.799  10.602 -0.2057  0.4201 -0.1075
14659TIP3    H165392   3.466   3.739  10.655 -0.5793 -0.3903 -0.6375
14659TIP3    H265393   3.343   3.826  10.659  0.4214  1.0228  0.4063
14660TIP3   OH265394   4.303   4.421   0.030  0.0596 -0.8448  0.4334
14660TIP3    H165395   4.275   4.330   0.022 -0.4034 -0.6774  0.1443
14660TIP3    H265396   4.310   4.435   0.125  1.4798 -1.5829  0.4574
14661TIP3   OH265397   5.194   2.060  14.622  0.8734  0.0719 -0.4253
14661TIP3    H165398   5.288   2.044  14.623  1.0353  0.9239 -0.8503
14661TIP3    H265399   5.184   2.149  14.656  0.2990  0.2974 -1.1382
14662TIP3   OH265400   1.252   4.664  15.184 -0.0733 -0.3246  0.2945
14662TIP3    H165401   1.302   4.719  15.125  1.0629 -0.3179  1.2438
14662TIP3    H265402   1.191   4.617  15.127 -0.0658  0.8264 -0.6853
14663TIP3   OH265403   0.636   3.752  13.525 -0.1608  0.7161  0.6447
14663TIP3    H165404   0.660   3.844  13.512 -1.3224  1.0241  0.6253
14663TIP3    H265405   0.553   3.755  13.572 -0.8864 -0.2917 -0.5120
14664TIP3   OH265406   5.886   2.614   3.013 -0.1965 -0.1575  0.0414
14664TIP3    H165407   5.940   2.554   3.064 -0.3231 -0.0228  0.3383
14664TIP3    H265408   5.861   2.682   3.076 -0.5199 -0.0999 -0.1504
14665TIP3   OH265409   0.437   0.737   2.674 -0.0518  0.0371  0.0137
14665TIP3    H165410   0.378   0.695   2.737 -1.7270  2.4906  0.2111
14665TIP3    H265411   0.491   0.796   2.726  1.9719 -1.4348 -0.3100
14666TIP3   OH265412   6.602   5.885   1.265 -0.3388 -0.4478  0.3432
14666TIP3    H165413   6.669   5.828   1.304 -0.5619 -0.3090  0.9347
14666TIP3    H265414   6.525   5.829   1.256  0.1376 -0.8834 -1.2524
14667TIP3   OH265415   2.185   6.345  12.102  0.2111  0.1654  0.0474
14667TIP3    H165416   2.241   6.349  12.180  1.8739 -0.6586 -1.0321
14667TIP3    H265417   2.211   6.422  12.050 -0.3412  0.2954 -0.0366
14668TIP3   OH265418   1.550   6.257  15.123  0.4977 -0.2436  0.2894
14668TIP3    H165419   1.493   6.283  15.196  1.6606  0.1454  1.0873
14668TIP3    H265420   1.637   6.284  15.151  1.2459 -1.8162 -0.4330
14669TIP3   OH265421   5.846   1.914   1.098  0.2791  0.0969 -0.5746
14669TIP3    H165422   5.795   1.986   1.061  1.4220  1.2510  0.0059
14669TIP3    H265423   5.788   1.875   1.164  0.0289  1.2071 -0.1166
14670TIP3   OH265424   2.237   0.441   3.590 -0.6680  0.4444 -0.4562
14670TIP3    H165425   2.186   0.515   3.557  0.6843  0.9747 -1.4376
14670TIP3    H265426   2.309   0.432   3.528 -0.5564 -1.4266 -0.1076
14671TIP3   OH265427   6.123   6.393  12.687  0.1675 -0.2057  0.5004
14671TIP3    H165428   6.208   6.386  12.645  0.3399  1.9077  0.4185
14671TIP3    H265429   6.138   6.449  12.764 -1.5598  2.4755 -0.9437
14672TIP3   OH265430   1.574   1.457  14.191  0.0064 -0.2472 -0.1889
14672TIP3    H165431   1.518   1.383  14.168  0.3353 -0.6702  0.3477
14672TIP3    H265432   1.663   1.421  14.187  0.2511  0.4221 -1.0689
14673TIP3   OH265433   1.875   3.399   4.270  0.1567  0.5887  0.2998
14673TIP3    H165434   1.933   3.464   4.310  1.1055 -0.5178  0.7845
14673TIP3    H265435   1.889   3.319   4.322 -0.4199 -0.2131 -0.7374
14674TIP3   OH265436   6.634   2.619   1.894 -0.5741 -0.5961 -0.7913
14674TIP3    H165437   6.727   2.602   1.909 -0.8825 -1.0425  0.8286
14674TIP3    H265438   6.591   2.535   1.911 -1.2413 -0.5187 -2.0000
14675TIP3   OH265439   0.651   5.301  12.419 -0.1496 -0.3693  0.1443
14675TIP3    H165440   0.606   5.217  12.412  0.1255 -0.5181  0.1266
14675TIP3    H265441   0.712   5.301  12.345  0.9712 -0.8416  1.0407
14676TIP3   OH265442   3.414   4.657  12.615  0.4526  0.6932  0.2660
14676TIP3    H165443   3.489   4.605  12.585  1.1829  1.3822  0.8613
14676TIP3    H265444   3.346   4.592  12.633  0.6213  0.1183 -1.0550
14677TIP3   OH265445   3.624   4.428   1.748 -0.7960  0.0025  0.3248
14677TIP3    H165446   3.617   4.336   1.720  0.3987  0.6292 -2.3672
14677TIP3    H265447   3.716   4.439   1.770 -0.0798  1.3185 -2.8308
14678TIP3   OH265448   1.603   3.592  14.464 -0.3232 -0.0153  0.5656
14678TIP3    H165449   1.605   3.675  14.416  1.9326 -0.1738  0.3069
14678TIP3    H265450   1.593   3.617  14.556 -0.8825  0.4650  0.3778
14679TIP3   OH265451   1.725   5.399  12.847  0.2024 -0.1702 -0.3428
14679TIP3    H165452   1.803   5.446  12.876  0.8072 -1.3219 -0.0609
14679TIP3    H265453   1.754   5.352  12.769 -0.4570  0.0796 -0.7443
14680TIP3   OH265454   4.746   6.553  12.062  0.2308  0.6976  0.0773
14680TIP3    H165455   4.751   6.507  12.146  2.4005 -0.5633 -0.6774
14680TIP3    H265456   4.714   6.641  12.085 -2.3294 -0.5539  1.7672
14681TIP3   OH265457   5.553   1.700  12.707 -0.1346  0.7757  0.1737
14681TIP3    H165458   5.545   1.775  12.765 -1.4108  0.4733  0.4266
14681TIP3    H265459   5.522   1.626  12.760  0.3792  0.2014 -0.3166
14682TIP3   OH265460   4.917   1.800  17.302 -0.0969  0.4552  0.7271
14682TIP3    H165461   4.835   1.842  17.327 -1.2914 -1.3156 -0.0101
14682TIP3    H265462   4.922   1.812  17.207 -0.8329 -1.5503  0.3822
14683TIP3   OH265463   2.600   1.794  11.864  0.0680 -0.0465 -0.3149
14683TIP3    H165464   2.565   1.824  11.948 -1.6950 -0.9713 -0.6708
14683TIP3    H265465   2.690   1.767  11.883 -0.9470 -2.3042  1.8263
14684TIP3   OH265466   6.563   4.005   6.174 -0.6158  0.0512  0.4369
14684TIP3    H165467   6.520   3.991   6.259  1.5616 -0.3553  1.5420
14684TIP3    H265468   6.575   4.100   6.169 -1.8987  0.2090 -0.0537
14685TIP3   OH265469   2.486   4.382  15.585 -0.2728 -0.3432 -0.5934
14685TIP3    H165470   2.483   4.477  15.573 -2.9596 -0.3517 -0.6431
14685TIP3    H265471   2.475   4.369  15.679  1.9299 -0.6155 -0.3332
14686TIP3   OH265472   0.941   4.304   1.382 -0.3547  0.3306  0.0798
14686TIP3    H165473   1.015   4.280   1.327  0.2898  3.0601 -0.3541
14686TIP3    H265474   0.979   4.359   1.451 -1.2083 -2.4890  3.0550
14687TIP3   OH265475   2.742   0.767   0.243  0.2858  0.0009  0.8358
14687TIP3    H165476   2.783   0.701   0.187 -0.8299  1.9024 -2.5426
14687TIP3    H265477   2.679   0.811   0.186 -3.0666  0.3941  4.4296
14688TIP3   OH265478   5.179   3.003   2.276 -0.3942 -0.6815  0.6527
14688TIP3    H165479   5.137   3.040   2.198 -0.5932 -1.2670  0.4744
14688TIP3    H265480   5.242   3.069   2.303 -0.4899 -0.3694  0.1303
14689TIP3   OH265481   1.021   0.855   5.434  0.4233 -0.1373  0.8684
14689TIP3    H165482   0.970   0.847   5.354  0.4558 -1.4225  0.9679
14689TIP3    H265483   0.986   0.934   5.476 -0.2761 -0.0182  0.0857
14690TIP3   OH265484   3.582   3.030   6.049 -0.2666  0.3875 -0.3018
14690TIP3    H165485   3.676   3.047   6.053 -0.0655  1.3951 -4.5306
14690TIP3    H265486   3.575   2.935   6.041  0.3093  0.2541  0.6458
14691TIP3   OH265487   1.164   1.239  13.965 -0.3682 -0.1955 -0.3092
14691TIP3    H165488   1.228   1.173  13.992  1.1895  0.6055 -1.8213
14691TIP3    H265489   1.141   1.214  13.876  1.1818  1.8762 -1.3783
14692TIP3   OH265490   0.529   5.922  16.199 -0.3096 -0.0440 -0.2082
14692TIP3    H165491   0.532   5.827  16.210 -0.5358 -0.0328 -0.0418
14692TIP3    H265492   0.621   5.950  16.203 -0.2956 -0.1697  0.5235
14693TIP3   OH265493   4.877   3.746   1.641  0.4174 -0.7032 -0.1875
14693TIP3    H165494   4.932   3.694   1.700 -0.0383 -0.6855  0.2625
14693TIP3    H265495   4.933   3.764   1.566  0.7369 -1.4495 -0.1409
14694TIP3   OH265496   2.324   3.670   4.301  0.0770 -0.6854  0.0810
14694TIP3    H165497   2.359   3.671   4.212 -0.9233 -0.2440 -0.3209
14694TIP3    H265498   2.272   3.590   4.306 -0.0703 -0.5851  0.1832
14695TIP3   OH265499   5.901   3.047   5.272  0.7077  0.3317  0.0371
14695TIP3    H165500   5.993   3.050   5.299  1.2659 -0.3789 -1.6835
14695TIP3    H265501   5.902   3.006   5.186 -1.1767  0.8625 -0.2850
14696TIP3   OH265502   5.154   6.391  13.050 -0.3909 -0.5590 -0.1634
14696TIP3    H165503   5.217   6.333  13.008 -0.2496  0.6276 -1.7040
14696TIP3    H265504   5.202   6.431  13.123 -0.3123 -1.8858  0.5264
14697TIP3   OH265505   2.863   4.484   4.887 -0.0559  0.1621 -0.4099
14697TIP3    H165506   2.959   4.492   4.893  0.2625 -1.9206 -1.8937
14697TIP3    H265507   2.842   4.407   4.941 -0.5591 -0.9126 -2.0744
14698TIP3   OH265508   5.978   6.327  13.936  0.1036 -0.5017  0.4301
14698TIP3    H165509   6.003   6.285  14.018  0.0260  0.5989  1.0328
14698TIP3    H265510   5.907   6.272  13.902  1.5832 -2.2379 -0.0505
14699TIP3   OH265511   3.248   0.705  14.365  0.1870 -0.1441  0.3087
14699TIP3    H165512   3.166   0.696  14.318  0.2909 -0.7476  0.2348
14699TIP3    H265513   3.260   0.621  14.410  0.1636  0.3545  1.2904
14700TIP3   OH265514   1.167   1.688   5.629 -0.6105 -0.6228 -0.3124
14700TIP3    H165515   1.162   1.597   5.601  0.0303 -0.6286 -0.4187
14700TIP3    H265516   1.078   1.709   5.658 -1.2636 -0.6849 -2.1416
14701TIP3   OH265517   5.913   2.301   5.788  0.0998 -0.3653  0.3431
14701TIP3    H165518   5.955   2.368   5.843 -1.1931 -0.5800  1.6768
14701TIP3    H265519   5.947   2.218   5.822  0.7493 -0.4508 -0.4850
14702TIP3   OH265520   0.813   6.747   1.156  0.6861 -1.2640  0.1380
14702TIP3    H165521   0.766   6.759   1.239 -0.0268  0.8718 -0.4958
14702TIP3    H265522   0.746   6.715   1.096  0.4873 -0.1404 -0.2666
14703TIP3   OH265523   6.729   3.293  16.546  0.1094  0.3198 -0.2765
14703TIP3    H165524   6.681   3.230  16.493 -0.5338 -0.9372  1.7032
14703TIP3    H265525   6.665   3.362  16.566  0.8398  1.7874 -2.5288
14704TIP3   OH265526   3.492   5.884   5.034  0.0062  0.0168 -0.4898
14704TIP3    H165527   3.512   5.909   5.124 -1.8019 -0.4440  0.0824
14704TIP3    H265528   3.573   5.845   5.001  0.5758 -0.1737  1.0690
14705TIP3   OH265529   5.276   6.588  11.781  0.0642  0.1880  0.2789
14705TIP3    H165530   5.213   6.545  11.837 -1.6143  0.5225 -1.2538
14705TIP3    H265531   5.361   6.551  11.807 -0.6927 -0.1151  2.5340
14706TIP3   OH265532   1.236   2.492  11.975  0.0810 -0.2022 -0.5638
14706TIP3    H165533   1.220   2.401  12.000 -2.1988 -0.5154 -2.6952
14706TIP3    H265534   1.322   2.512  12.010  0.4970 -3.0505  0.3199
14707TIP3   OH265535   0.513   6.635   4.948  0.0123  0.4991  0.2197
14707TIP3    H165536   0.529   6.584   4.868  0.1614 -2.5277  2.0312
14707TIP3    H265537   0.438   6.592   4.989  1.5052  0.3035  2.9469
14708TIP3   OH265538   3.781   4.046   2.078 -0.2090 -0.6498 -0.2126
14708TIP3    H165539   3.827   4.026   1.997  0.6790 -2.2223  0.6262
14708TIP3    H265540   3.715   4.110   2.053  3.7522  3.6545 -1.1229
14709TIP3   OH265541   4.816   5.108  12.664  0.2828 -0.0352 -0.2783
14709TIP3    H165542   4.753   5.112  12.737 -0.9371  2.6130 -1.3513
14709TIP3    H265543   4.774   5.157  12.593  3.1128  0.9720 -1.4126
14710TIP3   OH265544   1.226   0.271  13.547 -0.2749  0.1227  0.3059
14710TIP3    H165545   1.186   0.355  13.521 -1.9720 -0.9756 -0.8206
14710TIP3    H265546   1.319   0.290  13.551 -0.6433  2.1972  0.5758
14711TIP3   OH265547   5.039   1.198   4.436  0.0944  1.1344 -0.1584
14711TIP3    H165548   4.989   1.122   4.466  0.5759  0.8929  0.0488
14711TIP3    H265549   4.994   1.227   4.357  0.7919 -0.3185 -1.1357
14712TIP3   OH265550   3.829   6.229   4.190 -0.2430  0.1902 -0.1081
14712TIP3    H165551   3.763   6.163   4.210 -0.4652  0.4258 -0.0529
14712TIP3    H265552   3.825   6.290   4.264  1.0134 -0.5427  0.5920
14713TIP3   OH265553   5.521   2.266  14.623  0.1118  0.6269  1.0132
14713TIP3    H165554   5.454   2.334  14.618  0.2072  0.6387 -0.3122
14713TIP3    H265555   5.530   2.248  14.717 -1.4334  0.9246  1.2399
14714TIP3   OH265556   2.739   2.309  16.798  0.0918 -0.3987 -0.2992
14714TIP3    H165557   2.735   2.404  16.785  1.9701 -0.2329  0.0048
14714TIP3    H265558   2.738   2.298  16.893 -1.0756 -0.7544 -0.3473
14715TIP3   OH265559   5.471   5.394  12.894 -0.1307  0.1712  1.2678
14715TIP3    H165560   5.538   5.462  12.904 -0.0285  0.4135 -0.6315
14715TIP3    H265561   5.412   5.428  12.826 -0.5892 -1.2461  0.9123
14716TIP3   OH265562   3.867   1.697   3.545 -0.1531  0.3440  0.0880
14716TIP3    H165563   3.877   1.770   3.605 -2.0877  0.5908  0.1927
14716TIP3    H265564   3.875   1.736   3.458 -3.3781  1.2406  0.0452
14717TIP3   OH265565   3.523   0.232   1.088  0.2902  0.4811 -0.2765
14717TIP3    H165566   3.443   0.250   1.137  0.5880  1.4659 -0.1391
14717TIP3    H265567   3.493   0.214   0.999 -0.0420  1.4398 -0.3636
14718TIP3   OH265568   0.055   5.407  10.381  0.2062 -0.1539 -0.7575
14718TIP3    H165569  -0.006   5.478  10.404  1.3844 -0.1497  3.0416
14718TIP3    H265570   0.131   5.452  10.345 -0.2531  0.2027 -1.3113
14719TIP3   OH265571   2.267   1.800   0.837  0.4557  0.2558 -0.0894
14719TIP3    H165572   2.304   1.829   0.920 -2.1998  1.0675  0.9190
14719TIP3    H265573   2.257   1.705   0.847 -0.8920  0.4900  1.0163
14720TIP3   OH265574   0.785   4.798  16.697 -0.2195  0.0866  0.1139
14720TIP3    H165575   0.726   4.827  16.765 -0.3412 -1.5639  0.7619
14720TIP3    H265576   0.732   4.741  16.641 -0.2052  1.6353 -1.5674
14721TIP3   OH265577   0.659   6.331   1.289 -0.5052 -0.2672  0.1060
14721TIP3    H165578   0.629   6.418   1.266 -2.3880 -0.7182  0.6937
14721TIP3    H265579   0.641   6.323   1.383  0.2163 -1.0683  0.1940
14722TIP3   OH265580   5.503   1.634   4.157 -0.2944  0.0342 -0.0461
14722TIP3    H165581   5.537   1.722   4.139 -0.9364  0.3661  0.2913
14722TIP3    H265582   5.474   1.638   4.248  1.3608 -1.1049  0.5753
14723TIP3   OH265583   0.211   3.023  16.301  0.1106 -0.0341 -0.0352
14723TIP3    H165584   0.120   2.993  16.294 -0.9160  2.4760  1.3869
14723TIP3    H265585   0.260   2.944  16.326 -1.9352 -1.1326  0.7808
14724TIP3   OH265586   2.384   5.649   0.842 -0.5170  0.1093 -0.3624
14724TIP3    H165587   2.289   5.635   0.842 -0.3434 -1.2876  0.3845
14724TIP3    H265588   2.397   5.725   0.899 -1.1836  0.2910 -0.4381
14725TIP3   OH265589   0.809   5.048  16.929  0.8619 -0.8511  0.0439
14725TIP3    H165590   0.749   5.122  16.938  1.4901 -0.4473  0.9894
14725TIP3    H265591   0.858   5.066  16.849  0.5729 -0.5743 -0.0719
14726TIP3   OH265592   6.123   2.567   2.134  0.1229 -0.2774 -0.4045
14726TIP3    H165593   6.117   2.537   2.224 -1.2144  0.9136 -0.0714
14726TIP3    H265594   6.114   2.662   2.139  1.3051 -0.0491 -1.6902
14727TIP3   OH265595   0.404   6.614  14.407  0.3720 -0.8302 -0.7408
14727TIP3    H165596   0.387   6.691  14.351  1.6335 -0.2240 -0.3189
14727TIP3    H265597   0.427   6.545  14.345 -1.0009 -0.9679 -1.1429
14728TIP3   OH265598   1.959   3.547   5.785 -0.0770 -0.5391  0.1492
14728TIP3    H165599   1.864   3.554   5.797  0.0643 -0.5915  1.3911
14728TIP3    H265600   1.974   3.455   5.764 -0.1719 -0.8181  1.2828
14729TIP3   OH265601   1.314   1.689  11.200  0.4721 -0.0775  0.1368
14729TIP3    H165602   1.233   1.639  11.189  0.6132 -0.2452 -0.1517
14729TIP3    H265603   1.340   1.673  11.291  0.7271 -0.8561 -0.0624
14730TIP3   OH265604   6.279   1.785   5.783 -0.6872 -0.2957 -0.0608
14730TIP3    H165605   6.283   1.824   5.870 -2.2865 -3.1659  1.4763
14730TIP3    H265606   6.370   1.768   5.759 -0.1059  2.1708  0.1449
14731TIP3   OH265607   5.644   5.901  14.200 -0.7917  0.5020 -0.1000
14731TIP3    H165608   5.598   5.851  14.131 -0.3726 -1.0353  0.6919
14731TIP3    H265609   5.664   5.985  14.159 -1.2038 -0.1014 -1.6214
14732TIP3   OH265610   3.379   5.684  15.199  0.3760  0.9915 -0.4127
14732TIP3    H165611   3.363   5.712  15.289 -0.4505 -1.8842  0.4497
14732TIP3    H265612   3.427   5.602  15.208  1.0993  1.1163 -2.6514
14733TIP3   OH265613   3.628   0.339  11.178 -0.3129 -1.1616 -0.8479
14733TIP3    H165614   3.564   0.332  11.107  0.6482  0.6182 -1.9768
14733TIP3    H265615   3.699   0.391  11.140 -0.9824  2.3951  2.2003
14734TIP3   OH265616   2.968   0.501  13.088 -0.0836 -0.0978  0.3915
14734TIP3    H165617   2.878   0.485  13.114  0.2410  0.3716  1.9332
14734TIP3    H265618   2.971   0.596  13.071  0.6867  0.4443  3.0594
14735TIP3   OH265619   3.372   4.772  14.420  0.4609  0.3323 -0.2649
14735TIP3    H165620   3.448   4.740  14.372 -0.0226  0.7282 -1.3284
14735TIP3    H265621   3.315   4.808  14.352 -2.2116 -2.9057  0.0073
14736TIP3   OH265622   0.150   3.441  14.394 -0.4971 -0.0056 -0.0272
14736TIP3    H165623   0.200   3.498  14.335 -1.2193  0.4147 -0.2643
14736TIP3    H265624   0.106   3.380  14.335  1.0763 -1.5119  0.2921
14737TIP3   OH265625   2.139   1.993  15.671 -0.6268  0.2881  0.2763
14737TIP3    H165626   2.082   2.069  15.681 -0.2643  0.3360  2.5401
14737TIP3    H265627   2.223   2.020  15.708 -0.2280 -0.9254  0.3217
14738TIP3   OH265628   6.552   2.715   1.652  0.2178 -0.3256 -0.0632
14738TIP3    H165629   6.574   2.670   1.734  0.2999 -1.0143 -0.4650
14738TIP3    H265630   6.626   2.774   1.637 -0.7596  1.3944  1.4779
14739TIP3   OH265631   3.506   0.851  14.377  0.1601  0.0436  0.2905
14739TIP3    H165632   3.417   0.827  14.353  0.2882  0.2560 -0.4385
14739TIP3    H265633   3.555   0.769  14.374 -0.2690 -0.3090  2.0073
14740TIP3   OH265634   3.426   4.069  12.079  0.0704 -0.1921 -0.5033
14740TIP3    H165635   3.491   4.103  12.140  1.8671 -0.0902 -2.3417
14740TIP3    H265636   3.408   4.142  12.019 -0.4676 -0.7246 -1.0083
14741TIP3   OH265637   0.423   2.259   1.081 -0.1703  0.2679 -0.0379
14741TIP3    H165638   0.380   2.307   1.011  0.9428 -0.0415 -0.9655
14741TIP3    H265639   0.517   2.267   1.062  0.1357 -0.2260  1.1478
14742TIP3   OH265640   2.037   1.480   3.120 -0.6867 -0.5614 -0.3234
14742TIP3    H165641   2.043   1.511   3.029 -1.4129  1.6324  0.2989
14742TIP3    H265642   2.128   1.477   3.150 -0.5643  3.0921  0.1254
14743TIP3   OH265643   2.167   1.258  13.132  0.0007 -0.5825  0.5002
14743TIP3    H165644   2.099   1.325  13.143  1.0143  0.7173 -0.8025
14743TIP3    H265645   2.120   1.175  13.139 -1.8684  0.2789 -1.0359
14744TIP3   OH265646   4.118   2.022   3.902  0.1373 -0.0726 -0.6218
14744TIP3    H165647   4.067   2.057   3.829  0.3217  0.6155 -0.4248
14744TIP3    H265648   4.182   2.090   3.922  0.7039 -0.6461 -0.4289
14745TIP3   OH265649   5.430   0.117   3.133 -0.3255  0.1873  0.3170
14745TIP3    H165650   5.361   0.134   3.069  1.3761  1.9033 -1.1863
14745TIP3    H265651   5.447   0.202   3.174 -0.2557 -0.5628  1.9553
14746TIP3   OH265652   6.634   0.112   5.855  0.0957 -0.3057  0.0484
14746TIP3    H165653   6.690   0.183   5.886  2.1475 -2.1261  0.7638
14746TIP3    H265654   6.556   0.156   5.821  0.7543  2.1800  1.5262
14747TIP3   OH265655   5.078   6.712   1.957 -0.3302 -0.2930 -0.0872
14747TIP3    H165656   4.986   6.716   1.933 -0.8635 -4.8733  0.4037
14747TIP3    H265657   5.078   6.718   2.053 -0.1759 -0.7972 -0.0543
14748TIP3   OH265658   6.226   5.544  12.150 -0.1069 -0.1527 -0.0640
14748TIP3    H165659   6.182   5.493  12.218  2.2649 -1.6923  0.4275
14748TIP3    H265660   6.222   5.488  12.072  0.2854  0.0336 -0.2182
14749TIP3   OH265661   2.337   5.194   2.271  0.7042 -0.7489 -0.1210
14749TIP3    H165662   2.331   5.267   2.333  1.8045 -1.8679  1.3752
14749TIP3    H265663   2.391   5.129   2.316 -0.3513 -2.5615 -1.3528
14750TIP3   OH265664   0.127   0.306  11.811  0.4245 -0.0503  0.2214
14750TIP3    H165665   0.042   0.346  11.794  0.3366 -0.0681  0.6006
14750TIP3    H265666   0.122   0.219  11.771  1.0064  0.7121 -1.5609
14751TIP3   OH265667   2.590   2.385   4.107 -0.8395  0.5718  0.2819
14751TIP3    H165668   2.679   2.373   4.142 -0.8773  1.4703  0.7411
14751TIP3    H265669   2.534   2.383   4.184 -1.4476 -1.7008 -0.1597
14752TIP3   OH265670   0.497   0.724  12.916  0.0439 -0.0653  0.3420
14752TIP3    H165671   0.530   0.738  13.005  0.2304  1.3193  0.0773
14752TIP3    H265672   0.402   0.725  12.925  0.0595 -1.0278  0.6753
14753TIP3   OH265673   4.876   5.220  14.979  0.0733  0.4272  0.1551
14753TIP3    H165674   4.861   5.314  14.983  0.4909  0.4582  2.9330
14753TIP3    H265675   4.971   5.211  14.975  0.0597  0.1207  0.4954
14754TIP3   OH265676   3.551   0.350  16.098  0.1733 -0.1409  0.7085
14754TIP3    H165677   3.478   0.294  16.123 -0.3421 -0.9938 -2.3542
14754TIP3    H265678   3.616   0.336  16.168 -1.9419 -0.5051  2.7087
14755TIP3   OH265679   1.091   3.920  11.968  0.0137 -0.0375  0.0480
14755TIP3    H165680   1.054   3.987  12.026  1.3407  0.5950  0.2215
14755TIP3    H265681   1.186   3.933  11.975  0.3031 -1.8542 -0.0368
14756TIP3   OH265682   0.531   4.953  16.438 -0.2654  0.3912 -0.4958
14756TIP3    H165683   0.461   4.895  16.468 -0.4291  0.2599 -1.1132
14756TIP3    H265684   0.609   4.897  16.434  0.5609  1.1207  2.7852
14757TIP3   OH265685   0.175   4.209   2.451  0.2952  0.0184 -0.8501
14757TIP3    H165686   0.101   4.196   2.391 -1.9529 -1.4778  2.0137
14757TIP3    H265687   0.157   4.294   2.492  0.6536  0.0488 -0.7553
14758TIP3   OH265688   0.352   4.607   3.160  0.4849  0.3805 -0.0637
14758TIP3    H165689   0.442   4.633   3.140  0.5012 -0.0978 -0.6396
14758TIP3    H265690   0.299   4.682   3.134  0.9072  1.9611  3.0619
14759TIP3   OH265691   3.281   4.692  13.834 -0.7647  0.2992 -0.0711
14759TIP3    H165692   3.310   4.742  13.910 -1.9565  0.3401  0.3731
14759TIP3    H265693   3.299   4.601  13.857 -1.5896  0.2657  0.4990
14760TIP3   OH265694   1.073   1.394  12.479 -0.1079 -1.1738 -0.3277
14760TIP3    H165695   1.120   1.325  12.433 -0.2489 -1.1955 -0.4381
14760TIP3    H265696   1.114   1.475  12.448  0.3963 -1.2300  0.1813
14761TIP3   OH265697   5.379   0.758  16.320 -0.0340  0.2693 -0.4451
14761TIP3    H165698   5.310   0.697  16.294  2.0551 -1.7899 -1.6198
14761TIP3    H265699   5.460   0.709  16.304  1.7314  2.8996 -0.0798
14762TIP3   OH265700   0.150   4.806  15.999  0.3542 -0.2838 -0.3983
14762TIP3    H165701   0.105   4.751  16.064 -1.8971  1.0941 -0.6782
14762TIP3    H265702   0.079   4.838  15.943  1.7749  1.7186 -1.1248
14763TIP3   OH265703   0.238   2.677  13.356  0.3146 -0.2102  0.1225
14763TIP3    H165704   0.313   2.728  13.326 -0.3819  1.2555  0.7559
14763TIP3    H265705   0.163   2.717  13.312 -0.4357  0.3886  1.8734
14764TIP3   OH265706   5.834   1.604   2.042 -0.1734  1.0107 -0.0668
14764TIP3    H165707   5.875   1.670   1.986 -0.3057  1.4663  0.3620
14764TIP3    H265708   5.758   1.649   2.080  0.2212  0.8964  0.9021
14765TIP3   OH265709   3.708   1.659   2.131  0.7145  0.3187 -0.4639
14765TIP3    H165710   3.725   1.708   2.211 -0.0412 -0.4724  0.2019
14765TIP3    H265711   3.617   1.631   2.138  1.2836 -1.7530 -0.4653
14766TIP3   OH265712   1.967   6.373   4.357  0.7169  0.2010 -0.4795
14766TIP3    H165713   1.974   6.388   4.263  0.8020  0.7217 -0.3948
14766TIP3    H265714   2.043   6.418   4.394 -0.7196  2.3574  0.0800
14767TIP3   OH265715   6.536   3.358   3.633  0.3597  0.2872  0.3814
14767TIP3    H165716   6.563   3.435   3.684 -0.1878 -0.0335  1.1780
14767TIP3    H265717   6.540   3.285   3.695  0.9088 -0.3428 -0.3761
14768TIP3   OH265718   6.088   6.311  11.060  0.4584 -0.5267 -0.0277
14768TIP3    H165719   6.178   6.284  11.078  1.0939  1.0457 -0.7279
14768TIP3    H265720   6.088   6.406  11.071 -1.4394 -0.6055  1.2352
14769TIP3   OH265721   3.976   4.813   5.652  0.4283  0.0547  0.6174
14769TIP3    H165722   3.953   4.767   5.733  2.1286  0.6615  1.4778
14769TIP3    H265723   4.044   4.759   5.613 -0.3225 -0.1862 -0.3922
14770TIP3   OH265724   5.139   1.705  13.553 -0.5141  0.0324 -0.3889
14770TIP3    H165725   5.082   1.780  13.539 -0.4946 -0.0277 -0.7880
14770TIP3    H265726   5.103   1.661  13.631  0.5587  1.4862  0.9866
14771TIP3   OH265727   1.692   4.757   1.998 -0.0873 -0.1408 -0.0833
14771TIP3    H165728   1.761   4.694   2.019 -0.4579 -1.1691 -1.7206
14771TIP3    H265729   1.661   4.730   1.912 -3.3652 -0.4968  1.0623
14772TIP3   OH265730   6.678   3.536  14.929 -0.6234  0.4293  0.2844
14772TIP3    H165731   6.622   3.465  14.958  2.2758 -1.6647  1.3031
14772TIP3    H265732   6.717   3.503  14.847  1.7787  0.1112  1.4622
14773TIP3   OH265733   6.489   5.946  11.469  0.0227  1.1807  0.0892
14773TIP3    H165734   6.495   6.018  11.532  1.4027  1.0807  0.1058
14773TIP3    H265735   6.436   5.880  11.513  0.4760  1.3542  0.9156
14774TIP3   OH265736   4.922   2.139   4.883  0.0893 -0.1323 -0.4221
14774TIP3    H165737   4.918   2.106   4.973  2.2407 -0.2061 -0.3138
14774TIP3    H265738   4.878   2.223   4.887  0.6885  0.1470  0.8615
14775TIP3   OH265739   4.792   3.424   1.581 -0.2382 -0.1316 -0.8886
14775TIP3    H165740   4.824   3.485   1.515 -2.1072  2.5021  0.4514
14775TIP3    H265741   4.720   3.378   1.538 -1.3151  1.4220 -0.8246
14776TIP3   OH265742   6.138   0.695   1.975  0.0667  0.1551 -0.1775
14776TIP3    H165743   6.045   0.678   1.963  0.1445 -1.3766  1.0708
14776TIP3    H265744   6.143   0.788   1.999 -0.9981  0.5455 -1.3727
14777TIP3   OH265745   2.255   4.904  13.187  0.6825  0.2253 -0.2886
14777TIP3    H165746   2.171   4.891  13.142  0.3402 -1.5554  0.7761
14777TIP3    H265747   2.231   4.942  13.272  1.2979  3.2332 -1.3117
14778TIP3   OH265748   4.479   1.444   0.616 -0.5388 -0.1811 -0.2853
14778TIP3    H165749   4.485   1.385   0.541 -1.3998 -1.1809  0.4010
14778TIP3    H265750   4.456   1.529   0.579  0.5589 -0.3067 -1.2803
14779TIP3   OH265751   1.940   4.858   2.564 -0.1873  0.0213 -0.3444
14779TIP3    H165752   1.901   4.945   2.557 -0.9591 -0.3551 -0.9834
14779TIP3    H265753   2.012   4.859   2.501 -0.5235  0.0422 -0.7396
14780TIP3   OH265754   5.381   2.185   2.878 -0.2210  0.4394 -0.3931
14780TIP3    H165755   5.413   2.097   2.859 -0.5184  0.4818 -1.1405
14780TIP3    H265756   5.371   2.225   2.791  0.3648  1.3654 -0.0424
14781TIP3   OH265757   0.054   2.786   1.395  0.9297 -0.3827 -0.2186
14781TIP3    H165758   0.023   2.794   1.485 -1.4859 -1.4030 -0.8715
14781TIP3    H265759   0.073   2.876   1.368  2.7308 -0.1470  1.5661
14782TIP3   OH265760   4.058   4.301  17.168 -0.5444 -0.3210  0.1279
14782TIP3    H165761   3.973   4.263  17.149 -0.4931 -0.1713 -0.4098
14782TIP3    H265762   4.060   4.382  17.117 -0.0933 -0.3040  0.1697
14783TIP3   OH265763   6.104   2.005  16.361 -0.3933  0.3779 -0.6608
14783TIP3    H165764   6.144   1.921  16.338 -0.8182 -0.3405  1.0823
14783TIP3    H265765   6.027   2.012  16.304 -1.3224 -1.2557  0.3402
14784TIP3   OH265766   4.794   1.583   1.306  0.1749 -0.3056  0.6470
14784TIP3    H165767   4.858   1.527   1.262  1.0410 -1.1177  2.7874
14784TIP3    H265768   4.712   1.534   1.300 -0.8205  1.5052 -3.5899
14785TIP3   OH265769   6.698   1.159   0.826  0.5650 -0.3919 -0.0577
14785TIP3    H165770   6.775   1.157   0.769  1.5991  0.6119  1.2468
14785TIP3    H265771   6.628   1.194   0.771  1.1306 -0.9624 -1.1614
14786TIP3   OH265772   5.600   2.998  15.552 -0.2806  0.3616 -0.0175
14786TIP3    H165773   5.647   2.915  15.561 -1.3732 -0.3406 -0.4646
14786TIP3    H265774   5.639   3.040  15.476 -0.1543 -0.0556 -0.1892
14787TIP3   OH265775   0.399   2.227  13.750 -0.4207 -0.0341 -0.2204
14787TIP3    H165776   0.477   2.275  13.724 -0.7949  2.0522  2.1375
14787TIP3    H265777   0.327   2.272  13.706 -0.6227  0.5013  0.6460
14788TIP3   OH265778   1.297   6.486  16.396  0.1699  0.0913  0.1258
14788TIP3    H165779   1.387   6.488  16.365 -0.1465  1.5783 -0.8017
14788TIP3    H265780   1.245   6.513  16.321 -1.0530 -0.6886  0.6683
14789TIP3   OH265781   2.170   2.020  11.267  0.1362  0.1484  0.1614
14789TIP3    H165782   2.097   2.050  11.214  0.3361 -0.6943 -0.6203
14789TIP3    H265783   2.149   2.048  11.356 -0.7637  0.5764 -0.1788
14790TIP3   OH265784   4.350   3.020   4.656  0.0644  0.4190 -0.1370
14790TIP3    H165785   4.378   2.974   4.576  0.1335 -0.3339  0.3131
14790TIP3    H265786   4.353   3.113   4.632 -1.7071  0.1707 -1.6103
14791TIP3   OH265787   1.332   4.680   3.175  0.0325 -0.0076 -0.0265
14791TIP3    H165788   1.333   4.668   3.080  1.3125  0.2724 -0.0744
14791TIP3    H265789   1.243   4.709   3.194 -0.5768 -1.1435 -0.9807
14792TIP3   OH265790   3.695   1.481  16.375 -0.3933 -0.1919  0.3920
14792TIP3    H165791   3.601   1.467  16.379 -0.3113 -0.8520  0.1577
14792TIP3    H265792   3.706   1.553  16.313 -0.8286  0.9190  1.5753
14793TIP3   OH265793   3.393   2.675  16.622 -0.9934  0.4358  0.3150
14793TIP3    H165794   3.464   2.690  16.560 -0.9675  0.2837  0.3070
14793TIP3    H265795   3.313   2.691  16.571 -0.9554  0.9641  0.4229
14794TIP3   OH265796   4.802   5.630  15.709  0.2851 -0.1531 -0.3367
14794TIP3    H165797   4.801   5.697  15.777 -1.0883  0.0674 -0.5519
14794TIP3    H265798   4.895   5.619  15.688  0.6018  0.9984  0.3602
14795TIP3   OH265799   1.166   1.412   0.501 -0.1673  0.3192  0.0652
14795TIP3    H165800   1.177   1.494   0.550 -2.2005  0.6617  0.0298
14795TIP3    H265801   1.072   1.397   0.502  0.0487 -1.2662 -1.1970
14796TIP3   OH265802   6.195   0.554   3.548 -0.3687 -0.0490  0.1464
14796TIP3    H165803   6.200   0.649   3.556  1.5748 -0.2779  3.3182
14796TIP3    H265804   6.106   0.537   3.518 -0.5156  2.7377 -1.3990
14797TIP3   OH265805   2.423   1.979  16.718  0.4045  0.3082  0.1422
14797TIP3    H165806   2.359   1.980  16.646  0.4638 -2.1579 -0.0088
14797TIP3    H265807   2.494   2.036  16.687 -0.0337  0.1108 -1.3182
14798TIP3   OH265808   5.764   1.117  16.716  0.7074  0.4309 -0.2343
14798TIP3    H165809   5.743   1.209  16.706  0.3251  0.4017  0.2480
14798TIP3    H265810   5.709   1.073  16.652 -0.0221  0.4395  0.3700
14799TIP3   OH265811   1.947   3.322  14.968  0.2251 -0.4504  0.3345
14799TIP3    H165812   2.032   3.366  14.967 -0.0845  0.1727  0.5012
14799TIP3    H265813   1.965   3.234  14.936  1.0842 -0.6114  1.2231
14800TIP3   OH265814   1.715   5.141   5.065  0.4607  0.0043  0.4055
14800TIP3    H165815   1.779   5.077   5.033  0.8824 -0.0483  1.3194
14800TIP3    H265816   1.732   5.148   5.159 -0.4312  0.5046  0.5485
14801TIP3   OH265817   6.457   1.478  14.009  0.7059  0.4779  0.3059
14801TIP3    H165818   6.459   1.522  14.094  0.1468  1.7474 -0.3228
14801TIP3    H265819   6.384   1.415  14.017 -0.3866  1.6954  0.2534
14802TIP3   OH265820   0.022   4.019   1.438  0.7510 -0.1329  0.3041
14802TIP3    H165821   0.001   4.050   1.526 -2.1132  0.7836 -0.5859
14802TIP3    H265822   0.045   4.099   1.390  2.3092 -0.6306  0.1623
14803TIP3   OH265823   6.063   1.126  13.370  0.0598  0.2507  0.0441
14803TIP3    H165824   6.091   1.217  13.367  1.4288 -0.1530 -0.4191
14803TIP3    H265825   5.986   1.121  13.313  0.3717  0.9871 -0.4432
14804TIP3   OH265826   0.905   4.134   0.471  0.1558  0.0884  0.4800
14804TIP3    H165827   0.901   4.102   0.381  1.5166  0.7499  0.1455
14804TIP3    H265828   0.958   4.069   0.517 -1.5055 -0.8634  1.1235
14805TIP3   OH265829   3.256   3.805   4.806 -0.1155 -0.5799 -0.2152
14805TIP3    H165830   3.185   3.809   4.870 -0.6452  2.5928 -0.8579
14805TIP3    H265831   3.325   3.755   4.850 -2.0963 -2.4153  1.0123
14806TIP3   OH265832   1.057   2.203   5.807 -0.4805  0.2118 -0.2768
14806TIP3    H165833   0.982   2.144   5.808 -0.5382  0.2721 -0.7288
14806TIP3    H265834   1.131   2.148   5.780  0.3104 -0.5923  3.0778
14807TIP3   OH265835   3.612   1.914   6.179 -0.1037 -0.4188 -0.6802
14807TIP3    H165836   3.701   1.890   6.204 -0.4282 -1.4003 -0.4387
14807TIP3    H265837   3.556   1.855   6.229 -0.9089  0.4003 -0.5895
14808TIP3   OH265838   6.715   3.649   5.562  0.2905  0.2223  0.1790
14808TIP3    H165839   6.651   3.643   5.490  0.2482  0.1348  0.2243
14808TIP3    H265840   6.763   3.730   5.544 -1.4050  1.5778  1.4295
14809TIP3   OH265841   4.425   5.809  13.763  0.2024  0.2859 -0.3534
14809TIP3    H165842   4.386   5.777  13.682  0.5657 -0.9564 -0.0601
14809TIP3    H265843   4.421   5.904  13.756 -2.1809  0.2094 -0.6603
14810TIP3   OH265844   1.031   1.213   5.404  0.1234 -0.4905 -0.7168
14810TIP3    H165845   1.098   1.255   5.459  1.2148 -3.4687  0.4608
14810TIP3    H265846   1.080   1.174   5.332 -0.4858 -1.5875 -0.5670
14811TIP3   OH265847   3.110   3.545   2.639  0.3036  0.2451 -0.0247
14811TIP3    H165848   3.088   3.543   2.546 -0.3604  0.1935  0.1296
14811TIP3    H265849   3.205   3.529   2.642  0.0919 -1.3660 -0.6035
14812TIP3   OH265850   0.777   0.459   2.510 -0.0988  0.0271 -0.2148
14812TIP3    H165851   0.743   0.541   2.475 -0.5216 -0.1019 -0.1109
14812TIP3    H265852   0.802   0.480   2.600  1.1334  0.3987 -0.6134
14813TIP3   OH265853   1.087   0.778  16.642 -0.5644 -0.5705  0.4528
14813TIP3    H165854   1.049   0.823  16.718  0.8718  2.5449 -0.5179
14813TIP3    H265855   1.173   0.749  16.671 -1.2513 -2.3089  0.8897
14814TIP3   OH265856   2.508   0.597  14.889  0.2166 -0.4655  0.1400
14814TIP3    H165857   2.591   0.639  14.867 -0.3048 -0.7979 -2.8273
14814TIP3    H265858   2.447   0.627  14.821 -2.2125 -0.0358  2.3383
14815TIP3   OH265859   4.836   1.441  14.279 -0.1796  0.7865 -0.3676
14815TIP3    H165860   4.780   1.513  14.308 -1.0156 -0.2842  0.7898
14815TIP3    H265861   4.786   1.398  14.210 -1.1643 -0.5937  1.1435
14816TIP3   OH265862   5.719   1.356  13.987  0.0782 -0.2409  0.3306
14816TIP3    H165863   5.666   1.291  14.033 -1.0353  0.0200 -0.5260
14816TIP3    H265864   5.661   1.432  13.979  0.1662 -0.3163 -1.5694
14817TIP3   OH265865   6.384   1.157  17.167  0.2884  0.3897  0.1666
14817TIP3    H165866   6.355   1.068  17.146 -0.4602  0.5299  0.5700
14817TIP3    H265867   6.462   1.145  17.221 -0.0822 -0.0284  0.6145
14818TIP3   OH265868   3.305   6.734   4.226  0.2298 -0.2121 -0.0918
14818TIP3    H165869   3.356   6.793   4.169  1.6547 -0.9544  0.3716
14818TIP3    H265870   3.299   6.780   4.309  0.9177 -0.5007  0.1208
14819TIP3   OH265871   1.690   2.108   5.445  0.2062 -0.6905 -1.0662
14819TIP3    H165872   1.767   2.088   5.497  0.0496 -1.1767 -1.0136
14819TIP3    H265873   1.680   2.203   5.452 -0.5260 -0.8488  0.8317
14820TIP3   OH265874   0.669   4.240   5.814  0.2274  0.1759  0.1966
14820TIP3    H165875   0.600   4.187   5.774  1.3735 -0.1983 -1.4057
14820TIP3    H265876   0.632   4.268   5.898 -1.0955 -1.6457  0.2949
14821TIP3   OH265877   3.900   1.332  15.299 -0.3282 -0.2910  0.3688
14821TIP3    H165878   3.847   1.265  15.343 -1.3439  0.0898 -0.2480
14821TIP3    H265879   3.904   1.404  15.363  2.3397 -1.5792  1.8197
14822TIP3   OH265880   0.453   2.348   3.228  0.3077  0.0148  0.2998
14822TIP3    H165881   0.392   2.275   3.238 -0.4941  0.4240 -1.2659
14822TIP3    H265882   0.538   2.312   3.254 -0.1808 -1.2674  0.1887
14823TIP3   OH265883   2.530   1.648   2.796  0.6910 -0.4891  0.2334
14823TIP3    H165884   2.510   1.661   2.889  0.9879 -1.2191  0.4066
14823TIP3    H265885   2.619   1.683   2.786  0.0516  1.1207 -0.1524
14824TIP3   OH265886   4.464   3.035  15.708 -0.1475  0.0940 -0.1754
14824TIP3    H165887   4.532   2.973  15.736  0.4880  1.4740  1.5033
14824TIP3    H265888   4.401   3.036  15.779  0.1758  1.8106  0.1212
14825TIP3   OH265889   0.850   3.100  11.403  0.5453 -0.0216 -0.1176
14825TIP3    H165890   0.918   3.082  11.468 -1.2080 -0.2223  1.7403
14825TIP3    H265891   0.778   3.137  11.453  0.3058  2.9916 -2.4104
14826TIP3   OH265892   3.140   4.704  12.194  0.3719 -0.3675 -0.3121
14826TIP3    H165893   3.118   4.721  12.102  0.0474 -1.8071 -0.5281
14826TIP3    H265894   3.232   4.730  12.202  0.6815 -1.0812 -1.3023
14827TIP3   OH265895   3.031   1.783  12.826 -0.1970  0.5015  0.6809
14827TIP3    H165896   3.090   1.708  12.834  1.3981  1.3310 -1.7547
14827TIP3    H265897   3.090   1.857  12.810 -1.8440  1.5868 -0.6951
14828TIP3   OH265898   2.533   1.723  16.332 -0.4469  0.0488  0.6482
14828TIP3    H165899   2.593   1.761  16.396 -0.1562  0.5340  0.0958
14828TIP3    H265900   2.585   1.713  16.253 -1.4655  1.9519 -0.3392
14829TIP3   OH265901   6.597   3.129  17.309 -0.2182 -0.4348 -0.2030
14829TIP3    H165902   6.575   3.197  17.246  0.1462 -0.5480 -0.4537
14829TIP3    H265903   6.691   3.138  17.323  0.2207 -2.1213 -1.7187
14830TIP3   OH265904   4.866   0.042  14.254  0.2878 -0.3417 -0.4072
14830TIP3    H165905   4.914  -0.041  14.263 -0.0067 -0.5746 -0.9641
14830TIP3    H265906   4.910   0.086  14.181 -2.3060 -1.9725 -3.1841
14831TIP3   OH265907   6.514   2.541   0.490  0.4556  0.1882  0.2244
14831TIP3    H165908   6.513   2.469   0.427 -0.9526 -0.0872  0.5252
14831TIP3    H265909   6.571   2.511   0.560 -1.8762 -1.6763  1.4644
14832TIP3   OH265910   1.472   0.816   2.344  0.3832 -0.2784 -0.0648
14832TIP3    H165911   1.566   0.828   2.360  0.4430 -0.3745 -0.3309
14832TIP3    H265912   1.453   0.872   2.269  0.7525 -2.0488 -1.5729
14833TIP3   OH265913   1.083   2.129   3.047 -0.2372 -0.0055 -0.2746
14833TIP3    H165914   1.157   2.071   3.024 -0.4534 -0.0051 -0.9822
14833TIP3    H265915   1.006   2.074   3.036 -0.4188  0.3106 -0.6080
14834TIP3   OH265916   2.539   5.719   0.153 -0.4951 -0.0047  0.5942
14834TIP3    H165917   2.518   5.708   0.245 -1.3226  1.9575  0.6979
14834TIP3    H265918   2.483   5.657   0.107  0.2436 -1.3057  1.4117
14835TIP3   OH265919   1.012   6.120   1.989 -0.7938  0.5517 -0.1474
14835TIP3    H165920   0.933   6.136   1.938 -0.2320 -0.2249 -1.3120
14835TIP3    H265921   1.083   6.154   1.934 -0.1090 -0.9451 -0.2197
14836TIP3   OH265922   0.553   2.811   4.606  0.3844 -0.3878  0.3239
14836TIP3    H165923   0.561   2.898   4.565 -0.2243 -0.8910 -0.9138
14836TIP3    H265924   0.464   2.783   4.584 -1.0216  0.3883  4.2289
14837TIP3   OH265925   4.776   3.381  16.914  0.7456  0.1756 -0.3397
14837TIP3    H165926   4.860   3.412  16.882 -0.1174  0.8916 -2.0165
14837TIP3    H265927   4.713   3.448  16.886 -0.3482 -0.1380  1.2148
14838TIP3   OH265928   5.721   3.940   2.678  0.1381  0.0907 -0.4478
14838TIP3    H165929   5.783   3.972   2.744 -1.7127  1.5102  0.7127
14838TIP3    H265930   5.713   3.847   2.696 -0.7846  0.5510  1.8153
14839TIP3   OH265931   0.165   3.836   0.052  0.1186 -0.1381  0.6014
14839TIP3    H165932   0.183   3.863   0.142 -1.0305  1.0911  0.4950
14839TIP3    H265933   0.125   3.912   0.011  1.0056 -0.5283 -1.1004
14840TIP3   OH265934   3.978   1.575  13.193 -0.1432  0.4953  0.1892
14840TIP3    H165935   3.921   1.521  13.247 -0.2379 -0.3302 -0.7139
14840TIP3    H265936   3.970   1.539  13.104  0.9803  1.0073 -0.1507
14841TIP3   OH265937   0.713   3.713  12.553 -0.3231  0.0134 -0.1239
14841TIP3    H165938   0.782   3.729  12.488 -1.2568  1.0555 -0.9034
14841TIP3    H265939   0.740   3.762  12.630 -0.5860  1.1535 -0.7272
14842TIP3   OH265940   5.499   1.269  12.186  0.1177 -0.5860 -0.6683
14842TIP3    H165941   5.496   1.333  12.115 -0.3640 -0.3980 -0.4815
14842TIP3    H265942   5.508   1.322  12.266 -0.2313 -0.7516 -0.5179
14843TIP3   OH265943   0.350   0.533  17.148 -0.2284  0.0915 -0.2500
14843TIP3    H165944   0.425   0.517  17.205 -1.0469  0.2146  0.9093
14843TIP3    H265945   0.275   0.497  17.197 -1.0514  0.8013 -0.9565
14844TIP3   OH265946   1.918   1.716  13.926 -0.4801  0.2941 -0.1840
14844TIP3    H165947   1.968   1.641  13.893 -2.2667  0.2683 -3.2747
14844TIP3    H265948   1.972   1.792  13.905 -0.5013  0.0936 -1.0192
14845TIP3   OH265949   4.765   2.326  12.299 -0.0600 -0.4381  0.5005
14845TIP3    H165950   4.717   2.404  12.325 -0.6607 -0.4410 -0.5391
14845TIP3    H265951   4.815   2.301  12.376  1.1820  1.7341  0.4702
14846TIP3   OH265952   0.378   1.962  12.231  0.0934  0.8838 -0.3157
14846TIP3    H165953   0.354   1.870  12.225 -0.3926  0.9975 -0.1894
14846TIP3    H265954   0.349   1.989  12.318  1.2880  0.8660  0.1039
14847TIP3   OH265955   4.240   1.226   2.025 -0.1885 -0.2326  0.1742
14847TIP3    H165956   4.321   1.277   2.029 -0.8685  1.0431 -1.2993
14847TIP3    H265957   4.216   1.227   1.932  0.0153 -3.7287 -0.0616
14848TIP3   OH265958   4.714   3.824  16.726 -0.2391 -0.3887 -0.4978
14848TIP3    H165959   4.754   3.865  16.802 -3.2502 -0.0240  1.0221
14848TIP3    H265960   4.680   3.898  16.674  2.1045 -0.5985 -2.5220
14849TIP3   OH265961   5.036   3.783   4.021 -0.0303 -0.0903  0.2813
14849TIP3    H165962   4.971   3.820   4.080  1.8803  1.4607  1.5187
14849TIP3    H265963   4.993   3.782   3.936 -2.0955 -0.3349  1.2613
14850TIP3   OH265964   2.195   0.105  14.584  0.1530  0.4783 -0.9592
14850TIP3    H165965   2.209   0.087  14.491  1.4977  1.9464 -1.0970
14850TIP3    H265966   2.124   0.169  14.585 -0.2621  0.0171 -0.9335
14851TIP3   OH265967   1.782   4.791   0.042  0.4024 -0.6061  0.2576
14851TIP3    H165968   1.835   4.815   0.118 -1.6003  3.2380  0.7275
14851TIP3    H265969   1.729   4.717   0.072  0.0467  0.4673  2.5147
14852TIP3   OH265970   0.393   0.080   5.962  0.6612 -0.8830 -0.3606
14852TIP3    H165971   0.446   0.069   6.040  1.6545  0.6557 -0.7758
14852TIP3    H265972   0.304   0.056   5.989  1.2667 -1.8904  0.7856
14853TIP3   OH265973   6.389   6.190   2.413 -0.1209  0.6311  0.0532
14853TIP3    H165974   6.359   6.259   2.354  0.7455  0.0854 -1.0614
14853TIP3    H265975   6.359   6.109   2.372  0.8405  0.2176  0.1470
14854TIP3   OH265976   5.040   4.054  12.018  0.4754  0.5297  0.0732
14854TIP3    H165977   5.114   4.097  11.973  1.6802 -1.5592 -0.0581
14854TIP3    H265978   4.991   4.011  11.948 -0.3866  1.1493  0.2708
14855TIP3   OH265979   0.300   3.947   1.712 -0.0922  0.3855  0.0962
14855TIP3    H165980   0.219   3.924   1.666 -0.6476 -0.3763  1.4220
14855TIP3    H265981   0.353   3.991   1.645 -0.6716 -1.1063 -1.4248
14856TIP3   OH265982   3.473   1.298   6.072  0.0898  0.2760 -0.2379
14856TIP3    H165983   3.388   1.336   6.091  0.2232  1.0726 -1.1896
14856TIP3    H265984   3.535   1.355   6.118  0.1306 -0.1599  0.2524
14857TIP3   OH265985   5.405   4.302  16.000  0.3096  0.6441  0.1366
14857TIP3    H165986   5.330   4.248  16.025 -0.6827  0.9054 -2.0180
14857TIP3    H265987   5.444   4.254  15.926  0.4439  1.9989 -0.6930
14858TIP3   OH265988   5.012   1.363  17.369 -0.0205 -0.0427 -0.0637
14858TIP3    H165989   5.010   1.270  17.346  0.4440  0.2910 -1.6324
14858TIP3    H265990   5.103   1.389  17.354 -0.1134  0.6324  0.5070
14859TIP3   OH265991   4.018   1.739   2.868 -0.0077  0.0448 -0.9532
14859TIP3    H165992   3.982   1.660   2.907 -0.7732  0.2906 -1.1614
14859TIP3    H265993   4.024   1.720   2.775 -1.2163  0.6073 -1.1635
14860TIP3   OH265994   1.905   2.822   3.155  0.4619 -0.0842  0.0865
14860TIP3    H165995   1.936   2.794   3.241  0.5090  0.8060  0.3686
14860TIP3    H265996   1.855   2.747   3.122 -0.8374  0.1095  1.5339
14861TIP3   OH265997   2.116   1.604   2.363  0.1737 -0.0194  0.3423
14861TIP3    H165998   2.053   1.659   2.409  0.9049 -0.4508  1.9173
14861TIP3    H265999   2.189   1.663   2.343  0.2916 -0.0597  0.6496
14862TIP3   OH266000   4.807   4.296  15.985 -0.0934 -0.5874 -0.3786
14862TIP3    H166001   4.833   4.261  16.071  0.5806 -0.5048 -0.5370
14862TIP3    H266002   4.738   4.359  16.004  1.0615  0.5486  0.2811
14863TIP3   OH266003   3.044   1.121  16.856 -0.1849 -0.3900  0.3399
14863TIP3    H166004   3.119   1.071  16.889 -0.6111 -2.6533 -1.8093
14863TIP3    H266005   2.971   1.092  16.910 -0.2339 -1.3477 -0.2235
14864TIP3   OH266006   3.123   0.191  13.521 -0.0500  0.7085 -0.2744
14864TIP3    H166007   3.060   0.155  13.459  0.8257  0.9387 -1.3249
14864TIP3    H266008   3.188   0.121  13.533  0.4883  1.1312 -0.6527
14865TIP3   OH266009   0.115   6.250  16.213  0.4826 -0.1452  0.1813
14865TIP3    H166010   0.061   6.176  16.239 -0.7486 -0.0533 -1.9416
14865TIP3    H266011   0.152   6.225  16.129  1.9228  0.7385  0.5115
14866TIP3   OH266012   0.677   3.564  13.300  0.2665 -0.3013  0.3261
14866TIP3    H166013   0.678   3.626  13.373 -0.3885  2.5109 -1.8628
14866TIP3    H266014   0.734   3.603  13.235 -0.6893 -1.6824 -1.4260
14867TIP3   OH266015   6.022   2.064   5.338  0.3111 -0.3230 -0.4386
14867TIP3    H166016   6.076   1.991   5.369 -0.0117 -0.9400 -1.2925
14867TIP3    H266017   5.933   2.041   5.363  0.2639 -0.0051 -0.3113
14868TIP3   OH266018   6.096   5.969   1.722 -0.1123 -0.1062 -0.3244
14868TIP3    H166019   6.060   5.931   1.642 -1.5925 -0.7612  0.6154
14868TIP3    H266020   6.122   5.893   1.774  1.3554  0.3242 -0.3739
14869TIP3   OH266021   5.120   4.823   1.905  0.1917  0.0328  0.1799
14869TIP3    H166022   5.029   4.854   1.902  0.1980  0.0720  0.3749
14869TIP3    H266023   5.151   4.851   1.991  0.5109  0.3697 -0.0409
14870TIP3   OH266024   4.587   2.422   3.677  0.3661 -0.5357  0.5641
14870TIP3    H166025   4.520   2.486   3.701 -0.5573 -1.1339 -0.3193
14870TIP3    H266026   4.662   2.474   3.650  0.0935  0.1544  1.0987
14871TIP3   OH266027   6.530   0.036  11.873  0.0836  0.2418 -0.1916
14871TIP3    H166028   6.534   0.096  11.948  0.5890  1.0609 -0.8521
14871TIP3    H266029   6.530   0.093  11.796 -2.9993 -0.4613 -0.8383
14872TIP3   OH266030   1.885   1.399  17.318 -0.2094 -0.1845  0.0732
14872TIP3    H166031   1.913   1.457  17.247 -1.1772  2.2889  1.5707
14872TIP3    H266032   1.846   1.458  17.383 -0.8022 -2.5019  1.9640
14873TIP3   OH266033   6.594   5.999   0.233 -0.2616 -0.1378 -0.5286
14873TIP3    H166034   6.674   5.968   0.275 -0.0089  1.4249  0.2085
14873TIP3    H266035   6.614   5.997   0.139  1.6559  2.6317 -0.3104
14874TIP3   OH266036   5.662   5.695  11.828  0.2418 -0.1927  0.0472
14874TIP3    H166037   5.717   5.718  11.753 -1.7862  0.3071 -1.3712
14874TIP3    H266038   5.614   5.775  11.847  0.3309 -0.4724  1.5840
14875TIP3   OH266039   4.773   6.042  14.054  0.2401  0.6435 -0.3715
14875TIP3    H166040   4.788   5.958  14.010 -1.5557  0.8546 -1.4853
14875TIP3    H266041   4.839   6.044  14.124  2.4240 -0.2583 -2.2475
14876TIP3   OH266042   3.626   1.919   2.610  0.2759  0.1742 -0.1946
14876TIP3    H166043   3.638   1.958   2.696  0.6546 -0.5912  0.1092
14876TIP3    H266044   3.545   1.959   2.576  0.2700  0.6736  0.3991
14877TIP3   OH266045   2.166   3.362   4.979  0.6502 -0.0741 -0.4545
14877TIP3    H166046   2.259   3.372   5.002  0.4670  0.5612  0.0240
14877TIP3    H266047   2.158   3.270   4.955  1.3237 -0.2276 -0.1273
14878TIP3   OH266048   1.322   3.044  12.746  0.0324 -0.3271 -0.1549
14878TIP3    H166049   1.348   2.970  12.691  1.9954  0.3522 -0.2237
14878TIP3    H266050   1.403   3.093  12.761 -0.3166 -0.5846  3.5170
14879TIP3   OH266051   2.228   6.703   5.333 -0.2282  0.1567  0.5757
14879TIP3    H166052   2.173   6.717   5.256 -0.7284 -0.3762  0.8331
14879TIP3    H266053   2.301   6.650   5.300  0.3046  1.0980  0.1741
14880TIP3   OH266054   4.815   3.543  14.141 -0.4004 -0.1970  0.2405
14880TIP3    H166055   4.784   3.569  14.227 -1.0265  1.4593 -0.4417
14880TIP3    H266056   4.910   3.559  14.143 -0.4841  0.2702  0.4774
14881TIP3   OH266057   6.670   5.099   3.475  0.0827  0.3595 -0.0413
14881TIP3    H166058   6.706   5.110   3.563  0.3241  0.1202 -0.1112
14881TIP3    H266059   6.732   5.144   3.418  0.1793  0.1018 -0.1413
14882TIP3   OH266060   4.974   2.482  11.771 -0.5540 -0.4201  0.2571
14882TIP3    H166061   4.974   2.466  11.677  0.7051 -0.3597  0.2299
14882TIP3    H266062   4.991   2.576  11.778 -0.8837 -0.3819  0.5425
14883TIP3   OH266063   0.228   4.458  14.573  0.0630 -0.0719  0.5247
14883TIP3    H166064   0.266   4.410  14.499  0.0113  0.8468 -0.1084
14883TIP3    H266065   0.255   4.408  14.650  2.5279  0.5171  0.1205
14884TIP3   OH266066   0.586   2.483   2.535  0.1829  0.3160  0.3702
14884TIP3    H166067   0.509   2.507   2.587 -0.0726 -0.0456  0.1662
14884TIP3    H266068   0.609   2.563   2.488 -1.9217 -0.2859 -1.9112
14885TIP3   OH266069   6.161   5.584  15.495  0.8053  0.0982 -0.3143
14885TIP3    H166070   6.129   5.666  15.457  1.9410  0.2244 -1.0630
14885TIP3    H266071   6.254   5.582  15.472  1.2831 -0.4062  1.4646
14886TIP3   OH266072   2.682   4.805   5.089 -0.0115  0.8229  0.5425
14886TIP3    H166073   2.655   4.848   5.170 -0.0529 -0.1030  1.0333
14886TIP3    H266074   2.749   4.862   5.053  0.0113  1.2440  1.2284
14887TIP3   OH266075   1.610   5.936   0.125 -0.1141  0.8443 -0.1496
14887TIP3    H166076   1.623   5.861   0.066  0.3520  1.1044 -0.3834
14887TIP3    H266077   1.545   5.905   0.188 -0.7778  0.6376 -0.9252
14888TIP3   OH266078   3.782   5.251   3.015  0.1368 -0.2269 -0.0323
14888TIP3    H166079   3.732   5.213   2.943 -0.1186 -0.9629  0.5134
14888TIP3    H266080   3.845   5.182   3.039 -0.2919 -0.2963  0.9364
14889TIP3   OH266081   5.365   3.671   5.561  0.5403  0.1400  0.1845
14889TIP3    H166082   5.333   3.618   5.634  1.8439  0.2466  0.8602
14889TIP3    H266083   5.403   3.748   5.603 -0.5694  1.2377 -0.7340
14890TIP3   OH266084   2.458   0.733  12.782  0.0183  0.9796  0.3806
14890TIP3    H166085   2.439   0.660  12.723 -1.8063  2.1579 -0.5855
14890TIP3    H266086   2.542   0.767  12.752  0.0476  0.3417 -0.2850
14891TIP3   OH266087   1.628   2.830   5.735  0.7291 -0.4211 -0.3635
14891TIP3    H166088   1.562   2.842   5.804  1.1745  0.5695 -0.0931
14891TIP3    H266089   1.623   2.737   5.713  1.1763 -0.9549  1.6135
14892TIP3   OH266090   5.493   2.455  14.979  0.2905  0.0990 -0.5452
14892TIP3    H166091   5.578   2.493  14.956  0.1026 -0.8077 -3.0636
14892TIP3    H266092   5.502   2.362  14.958 -0.9932 -0.2341  0.2402
14893TIP3   OH266093   2.541   5.869  12.785 -0.8541  0.3586  0.0070
14893TIP3    H166094   2.560   5.778  12.763 -3.1195  0.3134 -2.1726
14893TIP3    H266095   2.603   5.920  12.733 -1.5555  0.0993 -1.0981
14894TIP3   OH266096   1.504   4.109   0.292 -0.0669 -0.1816 -0.2827
14894TIP3    H166097   1.457   4.159   0.225 -0.9333 -0.1398  0.3386
14894TIP3    H266098   1.508   4.167   0.367 -1.0208 -0.9994  0.4207
14895TIP3   OH266099   6.260   1.796  15.191  0.1470  0.5065  0.2617
14895TIP3    H166100   6.353   1.802  15.167 -0.0399  0.0084 -0.6608
14895TIP3    H266101   6.234   1.708  15.162 -0.2480  0.0671  1.8639
14896TIP3   OH266102   0.294   0.109  14.858 -0.4130 -0.0402  0.4876
14896TIP3    H166103   0.361   0.154  14.807  1.1432 -0.9835  1.6054
14896TIP3    H266104   0.264   0.037  14.803 -1.6994  1.3061 -0.6422
14897TIP3   OH266105   2.609   6.451   1.323  0.3826  0.1356 -0.3056
14897TIP3    H166106   2.594   6.365   1.284  0.6231  0.2610 -0.6779
14897TIP3    H266107   2.554   6.511   1.271  1.0932  0.3816 -0.7890
14898TIP3   OH266108   0.578   3.514   3.842  0.4407  0.2388 -0.0300
14898TIP3    H166109   0.566   3.432   3.890 -1.8835  0.4143 -0.2122
14898TIP3    H266110   0.579   3.581   3.910  3.7150  0.0608  0.2516
14899TIP3   OH266111   1.744   1.803   5.606  0.6555  0.9040 -0.4236
14899TIP3    H166112   1.731   1.715   5.641 -1.3882  1.0194 -0.8026
14899TIP3    H266113   1.823   1.795   5.552 -1.2199 -1.5853 -3.0847
14900TIP3   OH266114   5.521   4.650  12.788 -0.6279 -0.3207 -0.1272
14900TIP3    H166115   5.465   4.603  12.726 -1.1167  0.0378  0.0424
14900TIP3    H266116   5.539   4.734  12.745 -0.2264 -0.4335 -0.1803
14901TIP3   OH266117   2.855   3.328  14.191 -0.1305 -0.3136  0.2055
14901TIP3    H166118   2.869   3.260  14.258  1.6453 -1.0864 -0.8688
14901TIP3    H266119   2.880   3.410  14.234  1.1504 -0.8204  0.4828
14902TIP3   OH266120   4.662   4.812   3.502  0.0248  0.4893  0.4362
14902TIP3    H166121   4.568   4.820   3.517  0.1480  0.3023  1.3345
14902TIP3    H266122   4.681   4.877   3.434 -1.0614 -0.7247 -1.0983
14903TIP3   OH266123   0.752   2.324  12.033 -0.6640  0.3917 -0.1548
14903TIP3    H166124   0.751   2.282  11.946  0.6698  1.7350 -0.8656
14903TIP3    H266125   0.716   2.411  12.018 -1.9398  0.0957  1.0003
14904TIP3   OH266126   3.898   2.037   6.752  0.4175 -0.7433 -0.3431
14904TIP3    H166127   3.887   1.977   6.826 -0.4317 -1.9268 -1.3991
14904TIP3    H266128   3.846   1.998   6.682 -1.3126  1.9029 -0.6812
14905TIP3   OH266129   4.158   0.934  10.727  0.3389  0.2337  0.7051
14905TIP3    H166130   4.138   0.867  10.792 -0.5162  0.6740  0.9024
14905TIP3    H266131   4.247   0.912  10.697 -0.0069 -1.1023  0.6008
14906TIP3   OH266132   3.506   5.391   2.936 -0.3936  0.4625 -0.0725
14906TIP3    H166133   3.527   5.463   2.996 -1.9139  1.0121 -0.1747
14906TIP3    H266134   3.494   5.315   2.994  2.1949 -0.0102 -0.0330
14907TIP3   OH266135   5.030   3.124   2.886  0.3377  0.4184 -1.2523
14907TIP3    H166136   5.022   3.088   2.975 -0.4259  0.7770 -1.1564
14907TIP3    H266137   4.973   3.069   2.833  1.0927 -0.0268 -1.5961
14908TIP3   OH266138   0.608   3.769  11.348  0.4699 -0.3495 -0.4362
14908TIP3    H166139   0.551   3.744  11.421 -0.9714  1.6470 -0.8048
14908TIP3    H266140   0.548   3.787  11.276  1.6334  1.0062 -1.1067
14909TIP3   OH266141   2.281   3.234  17.006  0.0786  0.2372  0.9738
14909TIP3    H166142   2.201   3.286  17.003  0.1473  0.3140  0.5002
14909TIP3    H266143   2.333   3.265  16.932  0.2964 -0.2193  0.9329
14910TIP3   OH266144   0.189   2.467  12.439 -0.0176  0.6123  0.5810
14910TIP3    H166145   0.221   2.524  12.368  1.2963 -0.0344  0.6217
14910TIP3    H266146   0.233   2.500  12.517  1.3179 -0.8420  0.4951
14911TIP3   OH266147   0.057   6.277   5.784 -0.8447  0.6560 -0.7028
14911TIP3    H166148  -0.025   6.233   5.761 -1.3601  1.1649  0.1269
14911TIP3    H266149   0.048   6.299   5.876  1.4129 -1.8817  0.2541
14912TIP3   OH266150   2.647   6.230  11.854 -0.1496 -0.0429  0.1694
14912TIP3    H166151   2.634   6.195  11.942 -3.1172  3.3920  1.3029
14912TIP3    H266152   2.581   6.187  11.801  0.5881 -0.9372 -0.0464
14913TIP3   OH266153   5.954   3.780   0.035 -0.1025 -0.4652  0.4221
14913TIP3    H166154   5.888   3.727  -0.009  1.0583 -1.7801  0.2177
14913TIP3    H266155   6.028   3.721   0.049  2.1136  1.5813 -1.7506
14914TIP3   OH266156   1.929   0.759   6.486 -0.5480 -0.2601 -0.1515
14914TIP3    H166157   1.990   0.685   6.482 -0.5313 -0.2705  0.2684
14914TIP3    H266158   1.958   0.810   6.561 -1.2413 -0.4324  0.2437
14915TIP3   OH266159   6.526   3.347  14.311  0.2765  0.0761  0.7597
14915TIP3    H166160   6.577   3.344  14.392  0.2575  0.9448  0.8169
14915TIP3    H266161   6.585   3.390  14.248  0.4141 -0.8816  0.2130
14916TIP3   OH266162   0.472   0.400  11.139 -0.0070 -0.0787 -0.2047
14916TIP3    H166163   0.448   0.395  11.047 -0.5080  1.3518 -0.1867
14916TIP3    H266164   0.496   0.311  11.163  0.1216 -0.4776 -1.7086
14917TIP3   OH266165   3.823   0.595  11.188 -0.1882 -0.0143  0.5016
14917TIP3    H166166   3.852   0.621  11.276  0.1005 -1.7609  0.9644
14917TIP3    H266167   3.903   0.589  11.137  0.0028 -1.9742  0.9774
14918TIP3   OH266168   0.861   3.605  14.677  0.3389  0.1499  0.1505
14918TIP3    H166169   0.935   3.571  14.626  0.8213 -0.6917  1.3599
14918TIP3    H266170   0.799   3.636  14.611  2.7901  3.2582 -0.9414
14919TIP3   OH266171   2.931   6.073  14.510  0.1828  0.4649  0.2947
14919TIP3    H166172   2.933   6.047  14.602 -1.2166  0.1733  0.2663
14919TIP3    H266173   2.838   6.087  14.492 -0.1550 -3.6100 -2.2055
14920TIP3   OH266174   1.471   3.346  15.293  0.1900 -0.0521 -0.5194
14920TIP3    H166175   1.492   3.268  15.243 -2.7507 -0.1992 -1.7826
14920TIP3    H266176   1.472   3.318  15.384 -0.5281 -1.5160 -0.9335
14921TIP3   OH266177   6.178   3.365  13.094  0.6749 -0.6491 -0.4302
14921TIP3    H166178   6.094   3.386  13.055  0.6757  0.2833  0.0425
14921TIP3    H266179   6.177   3.408  13.180  1.3349 -1.2516 -0.1038
14922TIP3   OH266180   3.082   3.023   4.563 -0.4399 -0.4753 -0.5987
14922TIP3    H166181   3.053   2.953   4.621  2.3231 -0.2083  1.2901
14922TIP3    H266182   3.149   2.982   4.507 -0.8737 -0.0006 -1.4877
14923TIP3   OH266183   5.871   2.897  12.383 -0.5282  0.7654 -0.1619
14923TIP3    H166184   5.952   2.847  12.392 -1.6008 -1.4496 -1.8329
14923TIP3    H266185   5.882   2.946  12.302 -1.0798 -0.0341 -0.7308
14924TIP3   OH266186   0.332   2.496   3.785 -0.2812 -0.0911 -0.3841
14924TIP3    H166187   0.400   2.431   3.772 -0.6837 -0.8511  1.0936
14924TIP3    H266188   0.369   2.559   3.847 -0.7043 -0.2051 -0.0041
14925TIP3   OH266189   4.352   4.297  17.016  0.1517  0.1061  0.9083
14925TIP3    H166190   4.407   4.311  17.093  0.4942  2.0377  0.3450
14925TIP3    H266191   4.267   4.271  17.052  1.1685 -2.3130  1.8044
14926TIP3   OH266192   1.666   3.988  15.238 -0.2712 -0.1906  0.1354
14926TIP3    H166193   1.619   3.967  15.157 -0.1070 -1.3614  0.3214
14926TIP3    H266194   1.756   3.957  15.222  0.9126  3.2745 -0.7624
14927TIP3   OH266195   1.779   0.915   4.770  0.3855  0.0019  0.3978
14927TIP3    H166196   1.865   0.900   4.730 -0.0018  0.1064 -0.4936
14927TIP3    H266197   1.785   1.002   4.809  0.5363  0.2177 -0.0924
14928TIP3   OH266198   3.317   4.535  10.595 -0.7385 -0.2424  0.6617
14928TIP3    H166199   3.271   4.616  10.618 -3.0789 -1.5771  1.0058
14928TIP3    H266200   3.396   4.537  10.649 -0.5650  1.9173  0.4401
14929TIP3   OH266201   2.791   3.435  15.070  0.5776  0.2679 -0.0762
14929TIP3    H166202   2.779   3.529  15.057  1.4582  0.0408 -3.3055
14929TIP3    H266203   2.847   3.429  15.148 -0.2773  2.3156  0.7735
14930TIP3   OH266204   5.683   4.340  12.998  0.6600  0.3921 -0.1400
14930TIP3    H166205   5.755   4.285  12.966  0.0790 -0.5689  0.1736
14930TIP3    H266206   5.720   4.428  13.000  2.7796 -0.3975  2.6398
14931TIP3   OH266207   3.053   3.483  10.952 -0.3060  0.0947  0.4948
14931TIP3    H166208   3.101   3.563  10.927 -0.8820  0.6991  1.2749
14931TIP3    H266209   3.090   3.415  10.896 -0.9635  1.2169 -1.3870
14932TIP3   OH266210   1.472   6.419   1.854 -0.4176  0.1613  0.7171
14932TIP3    H166211   1.465   6.413   1.758 -0.2024  0.2820  0.6924
14932TIP3    H266212   1.557   6.462   1.869 -0.3774 -0.0036  0.9657
14933TIP3   OH266213   1.178   4.448   4.206 -0.2322 -0.1978 -0.4007
14933TIP3    H166214   1.198   4.489   4.123  1.0124 -3.0289 -1.6526
14933TIP3    H266215   1.263   4.443   4.251 -0.4859 -0.6870  0.0327
14934TIP3   OH266216   5.796   4.712   2.069  0.4532 -0.1202  0.0198
14934TIP3    H166217   5.840   4.763   2.137 -0.8542  1.6207 -0.3742
14934TIP3    H266218   5.824   4.753   1.987 -0.6553  0.0081 -0.3015
14935TIP3   OH266219   5.082   2.081   2.648 -0.1173  0.3480 -0.3636
14935TIP3    H166220   5.155   2.020   2.649  0.1526  0.6126 -1.7833
14935TIP3    H266221   5.070   2.103   2.555 -1.3709  1.0510 -0.0611
14936TIP3   OH266222   0.465   3.762  13.975  0.1431  0.7425  0.4800
14936TIP3    H166223   0.403   3.703  13.933  0.0292  0.7121  0.6889
14936TIP3    H266224   0.497   3.713  14.051  1.7181  0.0700 -0.5590
14937TIP3   OH266225   3.681   1.221   1.527  0.6686 -0.2773 -0.0026
14937TIP3    H166226   3.718   1.293   1.476  0.4423 -0.5678 -0.5837
14937TIP3    H266227   3.597   1.255   1.559  1.4902  0.4459  1.4672
14938TIP3   OH266228   4.284   1.920   4.099 -0.5633  0.0726  0.3956
14938TIP3    H166229   4.233   1.919   4.018 -0.6351  0.8051  0.4219
14938TIP3    H266230   4.361   1.867   4.079  0.6315  2.1799 -1.0088
14939TIP3   OH266231   0.726   1.850   4.232 -1.1676  0.4180 -0.4887
14939TIP3    H166232   0.730   1.887   4.144  1.5366  0.6626 -0.3674
14939TIP3    H266233   0.746   1.924   4.290  1.1288 -0.4652 -0.0287
14940TIP3   OH266234   4.768   1.953  16.016 -0.0872  0.0049 -0.3260
14940TIP3    H166235   4.821   1.978  15.940 -0.8791 -1.0114 -1.2321
14940TIP3    H266236   4.832   1.930  16.083  0.6249  0.3721 -0.8663
14941TIP3   OH266237   2.588   2.874  10.902  0.0452  0.2573  0.4026
14941TIP3    H166238   2.674   2.905  10.874  0.4886 -0.8556  0.4878
14941TIP3    H266239   2.590   2.779  10.888 -1.3650  0.2744 -0.1204
14942TIP3   OH266240   6.556   5.247  10.875  0.8975  0.1503  0.1244
14942TIP3    H166241   6.521   5.172  10.923  0.6894  0.8482  1.0922
14942TIP3    H266242   6.556   5.318  10.939  1.9919  0.7321 -0.5009
14943TIP3   OH266243   2.163   0.649   5.729  0.0538 -0.4941  0.0024
14943TIP3    H166244   2.171   0.732   5.776  0.4071 -0.5242 -0.0051
14943TIP3    H266245   2.068   0.636   5.720 -0.0033 -0.0403 -0.0891
14944TIP3   OH266246   2.936   5.927   6.094  0.0026 -0.0779 -0.0346
14944TIP3    H166247   3.003   5.988   6.126  0.1279 -0.5674  0.6728
14944TIP3    H266248   2.980   5.877   6.025 -0.8149  2.2400 -2.3645
14945TIP3   OH266249   4.648   3.891   3.934  0.4853 -0.1943 -0.3515
14945TIP3    H166250   4.577   3.841   3.973 -0.6484  1.7681  0.2184
14945TIP3    H266251   4.645   3.869   3.841 -0.5442 -0.5302 -0.2521
14946TIP3   OH266252   1.960   6.025  16.460  0.4894  0.4460  0.5132
14946TIP3    H166253   2.028   6.070  16.410 -0.2696  1.1929  0.1457
14946TIP3    H266254   1.945   6.082  16.536  1.3569 -0.4868  1.4208
14947TIP3   OH266255   4.775   0.348   1.407  0.1796 -0.0153  0.4073
14947TIP3    H166256   4.689   0.338   1.365 -0.1753  0.0688  1.0933
14947TIP3    H266257   4.820   0.413   1.353 -0.4302  0.4121  0.4029
14948TIP3   OH266258   5.791   5.573   5.016 -0.0211 -0.0093 -0.0696
14948TIP3    H166259   5.801   5.544   5.107  2.0203  0.8999  0.0600
14948TIP3    H266260   5.828   5.501   4.964 -1.6345 -0.7467 -0.2606
14949TIP3   OH266261   0.639   5.778   6.139 -0.3038 -0.1839  0.6345
14949TIP3    H166262   0.713   5.729   6.174 -0.0352 -0.3931 -0.2263
14949TIP3    H266263   0.583   5.713   6.098 -0.1289  0.1717 -0.1871
14950TIP3   OH266264   4.533   0.957  12.136 -0.2319  0.3868  0.0734
14950TIP3    H166265   4.540   0.879  12.192 -0.0828  0.2588 -0.1233
14950TIP3    H266266   4.584   0.936  12.058  1.3676  1.3757  0.8041
14951TIP3   OH266267   5.843   0.437  16.504 -0.2110 -0.0793 -0.2827
14951TIP3    H166268   5.918   0.495  16.516 -0.7580  0.4499  0.6932
14951TIP3    H266269   5.879   0.359  16.463  0.4772  1.1009 -2.0603
14952TIP3   OH266270   2.281   1.543  12.808  0.1695 -0.4588  0.1661
14952TIP3    H166271   2.272   1.638  12.801  2.3424 -0.0725  1.5709
14952TIP3    H266272   2.276   1.512  12.718 -2.3347  0.7295 -0.2001
14953TIP3   OH266273   4.461   0.488  12.114 -0.2179 -0.1547 -0.3458
14953TIP3    H166274   4.524   0.496  12.042  0.1893 -0.7547 -0.0645
14953TIP3    H266275   4.468   0.397  12.142  1.4596  0.6244  2.1054
14954TIP3   OH266276   4.661   5.094   2.044 -0.1074  0.0560 -0.3402
14954TIP3    H166277   4.613   5.027   1.996 -0.1723  1.9003 -3.0874
14954TIP3    H266278   4.592   5.149   2.082 -0.1666  1.0001 -1.7652
14955TIP3   OH266279   1.226   5.787   4.494  0.2117 -0.3256 -0.0545
14955TIP3    H166280   1.177   5.708   4.470  0.3934 -0.8789  1.2830
14955TIP3    H266281   1.166   5.836   4.550 -0.0518  0.7211 -1.2038
14956TIP3   OH266282   2.479   6.380   6.466 -0.1123  0.2163 -0.2682
14956TIP3    H166283   2.565   6.367   6.426  0.6812  0.2661  1.3471
14956TIP3    H266284   2.498   6.416   6.552 -1.6462 -1.4897  0.8625
14957TIP3   OH266285   1.537   4.598   3.351  0.7452  0.1142 -0.4059
14957TIP3    H166286   1.478   4.649   3.407  1.1655  0.0325  0.1219
14957TIP3    H266287   1.492   4.593   3.267 -1.5128 -2.5104  0.7955
14958TIP3   OH266288   3.227   2.940  16.673  0.5581  0.2056  0.1101
14958TIP3    H166289   3.147   2.889  16.661  0.5915 -0.2410  1.6342
14958TIP3    H266290   3.246   2.974  16.586 -1.8335  1.1560 -0.1169
14959TIP3   OH266291   3.299   5.069   1.587 -0.6459 -0.6356 -0.1606
14959TIP3    H166292   3.273   5.083   1.678 -3.1478 -0.0878 -0.8873
14959TIP3    H266293   3.250   5.135   1.537 -0.9116 -2.2139 -2.1111
14960TIP3   OH266294   1.410   6.264   4.205 -0.0387  0.1994  0.7126
14960TIP3    H166295   1.394   6.291   4.115  0.8081  0.0080  0.4926
14960TIP3    H266296   1.405   6.344   4.256 -1.1349  0.2202  0.5936
14961TIP3   OH266297   5.244   3.602   3.160  0.1554 -0.7878 -0.2121
14961TIP3    H166298   5.281   3.560   3.237  2.2511 -1.1755 -1.3489
14961TIP3    H266299   5.274   3.693   3.166 -1.4597 -0.2536  0.4578
14962TIP3   OH266300   2.440   5.327   5.711  0.4493 -0.6741 -0.2581
14962TIP3    H166301   2.473   5.294   5.794  0.9626 -1.8761 -0.9120
14962TIP3    H266302   2.348   5.350   5.729  1.1692  1.3659  1.2085
14963TIP3   OH266303   0.447   2.797  16.162 -0.4934  0.0326 -0.7222
14963TIP3    H166304   0.481   2.850  16.090  2.3421  0.3141  0.6764
14963TIP3    H266305   0.440   2.709  16.125 -3.5605  0.9042 -2.5632
14964TIP3   OH266306   0.502   1.446   6.616 -0.6831 -0.6943  0.3223
14964TIP3    H166307   0.496   1.427   6.522  1.3243 -0.3469  0.0626
14964TIP3    H266308   0.429   1.504   6.634 -0.3035  0.4046 -1.3756
14965TIP3   OH266309   2.592   3.033  11.474 -0.3401  0.7231  0.0320
14965TIP3    H166310   2.593   3.070  11.385 -0.3243 -2.1344 -1.2608
14965TIP3    H266311   2.504   2.997  11.483  0.3883 -1.0840  0.2094
14966TIP3   OH266312   3.547   2.553  14.493 -0.6657 -0.1727  0.1423
14966TIP3    H166313   3.501   2.562  14.410 -0.2484 -0.0646 -0.0803
14966TIP3    H266314   3.576   2.641  14.514 -1.9331  0.0406  1.0883
14967TIP3   OH266315   4.817   0.708  14.262 -0.1703  0.1859 -0.1380
14967TIP3    H166316   4.773   0.775  14.209  1.3290  0.0623 -1.6400
14967TIP3    H266317   4.763   0.630  14.251  0.0629  0.1828 -1.4875
14968TIP3   OH266318   5.453   1.909  11.376  0.3946  0.4833 -0.0542
14968TIP3    H166319   5.429   1.839  11.437  1.1952 -0.2145 -0.5123
14968TIP3    H266320   5.472   1.984  11.431 -0.7326  0.4241  0.4368
14969TIP3   OH266321   3.670   1.593  16.101  0.1957 -0.5491  0.0164
14969TIP3    H166322   3.660   1.577  16.007  1.0474  1.7583 -0.5373
14969TIP3    H266323   3.586   1.568  16.139 -0.5814 -0.4507 -1.5424
14970TIP3   OH266324   3.144   3.434  14.869  0.4033 -0.1987  0.3420
14970TIP3    H166325   3.109   3.524  14.871 -0.2973 -0.4766  1.1986
14970TIP3    H266326   3.152   3.410  14.961  0.5780 -1.0282  0.1121
14971TIP3   OH266327   2.966   2.660  13.781 -0.3911  0.2403 -0.0644
14971TIP3    H166328   2.975   2.588  13.843  0.3157 -0.6124 -1.1184
14971TIP3    H266329   3.015   2.732  13.821  0.5744 -0.4829  0.0848
14972TIP3   OH266330   5.667   0.959  15.431  1.1502  0.4142 -0.2269
14972TIP3    H166331   5.584   0.968  15.386  1.0399 -1.4047 -0.4892
14972TIP3    H266332   5.726   0.922  15.365  1.8260  0.5734  0.2776
14973TIP3   OH266333   0.436   2.360   0.526 -0.2120 -0.2161 -0.5465
14973TIP3    H166334   0.525   2.359   0.562  0.4674 -1.0405 -2.1285
14973TIP3    H266335   0.444   2.315   0.442 -1.8077  1.0967 -1.4663
14974TIP3   OH266336   5.020   5.602   2.716 -0.1166 -0.6665  0.0010
14974TIP3    H166337   5.100   5.654   2.705  0.9034 -1.4796  2.5928
14974TIP3    H266338   5.048   5.527   2.769 -2.5346 -1.1732  0.6871
14975TIP3   OH266339   0.712   0.745  15.938 -0.1864  0.3397  0.5030
14975TIP3    H166340   0.709   0.658  15.977 -1.6282  0.9099  1.8208
14975TIP3    H266341   0.690   0.804  16.011  0.9808  1.8236 -0.2974
14976TIP3   OH266342   5.297   1.043  11.887 -0.4568  0.2778 -0.2775
14976TIP3    H166343   5.303   1.048  11.982 -0.6857 -2.0897 -0.0863
14976TIP3    H266344   5.388   1.053  11.857 -0.5675  2.8527 -0.0106
14977TIP3   OH266345   3.001   3.476   1.418 -0.4784  0.2158 -0.3000
14977TIP3    H166346   3.042   3.563   1.423 -1.3987  0.6315  0.5630
14977TIP3    H266347   3.066   3.421   1.375  0.8701  0.9064  0.7693
14978TIP3   OH266348   6.584   4.104   0.310  0.6318 -0.4205 -0.1282
14978TIP3    H166349   6.587   4.013   0.338 -0.2123 -1.0620 -1.9897
14978TIP3    H266350   6.490   4.123   0.302  0.8011  0.5478  0.0304
14979TIP3   OH266351   3.419   0.220   1.852 -0.2059  0.3876  0.6897
14979TIP3    H166352   3.434   0.145   1.910  0.1768  0.1939  0.3479
14979TIP3    H266353   3.370   0.184   1.778  1.8140 -0.0088 -0.5232
14980TIP3   OH266354   5.946   3.073  16.680 -0.2751 -0.3877 -0.6425
14980TIP3    H166355   6.029   3.110  16.711 -0.0924 -1.5880  0.3932
14980TIP3    H266356   5.889   3.149  16.669 -0.1026  0.2376  1.9610
14981TIP3   OH266357   0.264   5.850   5.019 -0.2922  0.0552  0.4140
14981TIP3    H166358   0.291   5.941   5.005 -0.6260  0.1935  0.6388
14981TIP3    H266359   0.281   5.835   5.112 -4.2491  1.3176  1.5366
14982TIP3   OH266360   1.587   3.146  14.266  0.3970  0.6015 -0.2247
14982TIP3    H166361   1.545   3.118  14.347 -0.2066  0.3431 -0.6205
14982TIP3    H266362   1.679   3.122  14.277 -0.0752 -1.5790 -0.5545
14983TIP3   OH266363   5.064   0.906   4.725 -0.1720  0.3096  0.0532
14983TIP3    H166364   5.066   0.882   4.817 -0.0647 -0.7744 -0.2210
14983TIP3    H266365   4.994   0.971   4.718  0.9876  1.7472  1.1952
14984TIP3   OH266366   6.190   0.346  14.666 -0.6082  0.1008 -0.4241
14984TIP3    H166367   6.257   0.278  14.667  1.7067  2.2366 -0.6209
14984TIP3    H266368   6.133   0.323  14.593  0.3617 -1.3564 -0.7616
14985TIP3   OH266369   6.090   3.751   2.602  0.0131 -0.4459  0.0455
14985TIP3    H166370   6.151   3.824   2.604 -1.8056  1.1460  0.1612
14985TIP3    H266371   6.117   3.699   2.526  0.4595  1.1688 -0.9426
14986TIP3   OH266372   5.896   4.093  15.388  0.3292 -0.2040 -0.2321
14986TIP3    H166373   5.963   4.030  15.360  0.1208 -0.2140 -0.7218
14986TIP3    H266374   5.932   4.179  15.363  0.9392 -0.0602  1.0943
14987TIP3   OH266375   3.236   6.450   6.455  0.0248  0.8479  0.0218
14987TIP3    H166376   3.313   6.397   6.475 -1.2286 -1.0453  0.0391
14987TIP3    H266377   3.181   6.444   6.533 -0.5268  1.4884 -0.3036
14988TIP3   OH266378   2.410   6.137   5.041 -0.1447  0.2212  0.4464
14988TIP3    H166379   2.427   6.045   5.058 -0.0402  0.3358  0.9799
14988TIP3    H266380   2.493   6.170   5.005  0.6341  0.6399  2.4801
14989TIP3   OH266381   4.411   0.735  13.439 -0.7014  0.1811 -0.2137
14989TIP3    H166382   4.359   0.687  13.375 -0.7532  0.7601 -0.6081
14989TIP3    H266383   4.349   0.794  13.481 -0.1900  1.6643 -1.4457
14990TIP3   OH266384   3.388   3.605   4.966 -0.0813  0.1075 -0.5506
14990TIP3    H166385   3.325   3.534   4.956  1.7384 -1.5898 -0.4937
14990TIP3    H266386   3.452   3.591   4.895 -0.2072  2.3263 -1.2002
14991TIP3   OH266387   2.162   6.097  12.678 -0.4960 -0.2256 -0.7338
14991TIP3    H166388   2.170   6.172  12.619 -1.4099  1.9119  1.6579
14991TIP3    H266389   2.238   6.104  12.736 -0.0389 -1.8140 -1.0751
14992TIP3   OH266390   5.390   2.665   2.397  0.0785 -0.5671 -0.0641
14992TIP3    H166391   5.423   2.609   2.466  1.0578  0.8605  0.6688
14992TIP3    H266392   5.295   2.666   2.410  0.3659  1.1373  2.4811
14993TIP3   OH266393   5.276   2.650   5.663 -0.3077  0.1214 -0.3562
14993TIP3    H166394   5.293   2.679   5.573  0.2540  1.4214  0.1514
14993TIP3    H266395   5.255   2.730   5.710  0.7558 -0.3530  0.9794
14994TIP3   OH266396   3.755   6.722  12.672 -0.1187  0.7059  0.2190
14994TIP3    H166397   3.803   6.646  12.706 -0.5942 -0.1335 -0.9229
14994TIP3    H266398   3.670   6.687  12.647 -0.9688  1.9719  1.2263
14995TIP3   OH266399   4.006   4.426   0.763 -0.7146 -0.5252  0.1720
14995TIP3    H166400   3.988   4.518   0.785 -2.7199 -0.5622 -1.1247
14995TIP3    H266401   4.086   4.406   0.812  0.2139  2.1148 -0.0718
14996TIP3   OH266402   5.824   6.314   0.637 -0.3922 -0.4553 -0.2263
14996TIP3    H166403   5.795   6.376   0.570 -0.3569 -0.9360 -0.6948
14996TIP3    H266404   5.873   6.247   0.588  0.0159 -0.5761  0.3336
14997TIP3   OH266405   2.649   2.059  15.960 -0.0531  0.4359  0.1025
14997TIP3    H166406   2.651   2.076  16.054  2.3169 -1.4408  0.5026
14997TIP3    H266407   2.657   1.964  15.953 -0.1026  0.5370 -2.0246
14998TIP3   OH266408   4.768   6.241  14.985 -0.2742  0.1469 -0.9194
14998TIP3    H166409   4.727   6.217  15.069  0.5197 -0.8689 -0.7953
14998TIP3    H266410   4.718   6.316  14.954  0.7181  1.9108  1.4789
14999TIP3   OH266411   4.396   1.614  13.258  0.4012  0.1503 -0.0859
14999TIP3    H166412   4.467   1.666  13.294 -1.4732  1.7803  1.5394
14999TIP3    H266413   4.316   1.662  13.283 -1.2324  0.3855 -4.7376
15000TIP3   OH266414   4.658   4.005  12.559  0.1054 -0.0337 -0.8983
15000TIP3    H166415   4.690   4.043  12.641 -0.9353 -0.7699 -0.1205
15000TIP3    H266416   4.661   3.910  12.573  1.1928 -0.2251 -2.2297
15001TIP3   OH266417   3.942   1.603  12.340  0.2559  0.1614  0.3677
15001TIP3    H166418   3.863   1.648  12.369  0.5377  0.1217  1.2196
15001TIP3    H266419   3.934   1.514  12.375  1.1510  0.4444  1.3536
15002TIP3   OH266420   4.357   6.619  12.782  0.4098 -0.0323  0.4525
15002TIP3    H166421   4.367   6.525  12.765 -0.1169 -0.0547  0.2546
15002TIP3    H266422   4.338   6.624  12.876  0.9461 -0.0825  0.5672
15003TIP3   OH266423   6.579   2.501  14.180 -0.2744 -0.2099 -0.0339
15003TIP3    H166424   6.643   2.430  14.170  1.2771  1.1006  0.0260
15003TIP3    H266425   6.512   2.466  14.238  0.0957 -1.8400 -0.5549
15004TIP3   OH266426   5.507   0.737   3.884 -0.0737 -0.1591  0.4738
15004TIP3    H166427   5.587   0.684   3.883 -0.3384 -0.7110  2.8287
15004TIP3    H266428   5.438   0.676   3.908 -0.8063  0.7795  0.7984
15005TIP3   OH266429   3.334   2.408   1.931  0.4784 -0.0006  0.0332
15005TIP3    H166430   3.420   2.385   1.966  0.3933  1.4255  1.2546
15005TIP3    H266431   3.303   2.327   1.889  1.9247 -0.8583  0.5457
15006TIP3   OH266432   0.166   4.834   3.710  0.4650 -0.2982 -0.0535
15006TIP3    H166433   0.165   4.798   3.621  0.8413 -1.6249  0.4424
15006TIP3    H266434   0.255   4.816   3.742  0.5259  0.7108  0.3890
15007TIP3   OH266435   5.782   0.581  14.513  1.0273 -0.5863 -0.3055
15007TIP3    H166436   5.781   0.674  14.488  1.0470 -0.2315  0.9270
15007TIP3    H266437   5.720   0.576  14.586  1.4923 -1.4200  0.0437
15008TIP3   OH266438   2.121   3.557  11.003  0.7184 -0.2045 -0.1731
15008TIP3    H166439   2.115   3.462  10.991  1.9326 -0.3531  0.3051
15008TIP3    H266440   2.164   3.589  10.924  0.8654 -0.1268 -0.0611
15009TIP3   OH266441   3.201   4.484   1.914 -0.0694  0.1187  0.3805
15009TIP3    H166442   3.245   4.567   1.895  0.7816 -0.4183 -0.0847
15009TIP3    H266443   3.266   4.433   1.962 -0.4824 -0.3866  0.4138
15010TIP3   OH266444   3.831   2.651   3.659  0.6043 -0.2357  0.0118
15010TIP3    H166445   3.915   2.694   3.666  0.6300 -0.4274  0.9961
15010TIP3    H266446   3.772   2.718   3.625  0.9465  0.1707  0.2138
15011TIP3   OH266447   3.279   3.716  12.333 -0.5416  0.0302  0.7532
15011TIP3    H166448   3.271   3.642  12.273  0.2438  0.4523  0.1139
15011TIP3    H266449   3.368   3.749  12.319 -1.0742  1.4561  0.5957
15012TIP3   OH266450   5.232   3.449  11.597 -0.1011 -0.4355  0.1301
15012TIP3    H166451   5.161   3.431  11.535  0.1444 -1.2961  0.0860
15012TIP3    H266452   5.300   3.490  11.543  0.3535 -1.7220 -0.3319
15013TIP3   OH266453   6.606   6.261  16.479 -0.3119  0.4452 -0.0956
15013TIP3    H166454   6.524   6.287  16.438 -0.4402  1.2684  0.6422
15013TIP3    H266455   6.634   6.183  16.431 -1.6339  0.0158 -0.1997
15014TIP3   OH266456   1.584   3.251  17.214  0.4805  0.1486  0.0412
15014TIP3    H166457   1.495   3.231  17.183  0.4056  0.4390  0.0662
15014TIP3    H266458   1.579   3.342  17.244 -0.0089 -0.7389  2.9445
15015TIP3   OH266459   1.281   4.288   0.435 -0.4536  0.2560  0.0159
15015TIP3    H166460   1.211   4.350   0.415 -0.1242  0.2826 -1.1315
15015TIP3    H266461   1.267   4.216   0.373 -0.6499 -0.6884  1.1201
15016TIP3   OH266462   2.327   4.810   4.279  0.4634 -0.2976  0.0470
15016TIP3    H166463   2.392   4.794   4.348 -0.0672 -3.3528 -0.0007
15016TIP3    H266464   2.334   4.734   4.221 -2.2357 -0.1041 -0.6930
15017TIP3   OH266465   5.360   2.933  12.302 -0.6230  0.3303  0.2465
15017TIP3    H166466   5.440   2.888  12.327  0.3492  3.7545  4.5795
15017TIP3    H266467   5.290   2.882  12.342 -0.2600 -0.7362 -0.4524
15018TIP3   OH266468   4.988   2.827  10.408  0.5082 -0.0292 -0.4966
15018TIP3    H166469   4.905   2.813  10.454  0.4848  0.1729 -0.4725
15018TIP3    H266470   5.054   2.826  10.477  0.1945  3.2892  0.0382
15019TIP3   OH266471   4.445   3.833  14.573 -0.4848  0.4561 -0.3988
15019TIP3    H166472   4.369   3.788  14.608  0.5441 -1.0201  0.0450
15019TIP3    H266473   4.473   3.780  14.499  0.5875  0.4787 -0.0362
15020TIP3   OH266474   3.079   1.897   1.872 -0.3253  0.2698  0.4844
15020TIP3    H166475   3.065   1.991   1.864 -1.3247  0.1498  0.6442
15020TIP3    H266476   3.016   1.858   1.811 -2.1161 -0.3724  2.6128
15021TIP3   OH266477   3.468   4.146   2.806  1.2040 -0.0241  0.4536
15021TIP3    H166478   3.436   4.236   2.808  0.1817 -0.3649  0.1338
15021TIP3    H266479   3.539   4.147   2.742  1.0111  0.4994  0.2469
15022TIP3   OH266480   0.039   5.282   5.003  0.5314  0.2738 -0.4438
15022TIP3    H166481  -0.025   5.328   4.949  0.1692 -0.9403 -1.0815
15022TIP3    H266482   0.050   5.338   5.080  0.0338  1.3615 -1.1352
15023TIP3   OH266483   2.299   4.326   6.150 -0.0438 -0.1806  0.1356
15023TIP3    H166484   2.260   4.391   6.207 -1.0159 -0.0831 -0.6022
15023TIP3    H266485   2.311   4.249   6.205  3.0985  1.1914  1.5896
15024TIP3   OH266486   2.220   6.117  13.253  0.0827  0.8271 -0.0278
15024TIP3    H166487   2.134   6.141  13.219 -0.3108 -2.4357 -1.7105
15024TIP3    H266488   2.219   6.021  13.255  3.1753  0.7115  1.3537
15025TIP3   OH266489   1.179   3.130   5.226  0.3544  0.4982  1.0429
15025TIP3    H166490   1.173   3.097   5.137  2.3491  1.2940  0.5575
15025TIP3    H266491   1.207   3.054   5.278 -0.1238  0.2060  0.8785
15026TIP3   OH266492   4.477   4.557   2.796 -0.2757  0.0653 -0.1908
15026TIP3    H166493   4.419   4.542   2.722  1.0167 -1.0247 -1.0463
15026TIP3    H266494   4.543   4.619   2.763  1.0763 -1.4419 -0.4455
15027TIP3   OH266495   6.039   3.889  17.182 -0.7214 -0.0746  0.1298
15027TIP3    H166496   6.033   3.904  17.276  0.3400  1.8663 -0.0481
15027TIP3    H266497   6.122   3.842  17.170 -0.1537  0.9097  0.0813
15028TIP3   OH266498   5.319   4.343  13.901  0.1953  0.1585 -0.0170
15028TIP3    H166499   5.281   4.381  13.822  1.7631  2.3631  0.1915
15028TIP3    H266500   5.260   4.369  13.971  0.1034  0.3040 -0.1492
15029TIP3   OH266501   2.489   5.491   4.937  0.0389  0.0402  0.4015
15029TIP3    H166502   2.407   5.443   4.927 -0.1265  0.3194  0.3809
15029TIP3    H266503   2.469   5.580   4.906  0.9569 -0.4452 -1.7337
15030TIP3   OH266504   2.729   5.177  15.845  0.3832  0.6516 -0.0573
15030TIP3    H166505   2.768   5.221  15.920  0.0473  1.7142 -0.4937
15030TIP3    H266506   2.706   5.248  15.785 -0.4655 -0.0989 -0.6347
15031TIP3   OH266507   5.318   3.202  17.158  0.0613  0.2145 -0.5573
15031TIP3    H166508   5.298   3.138  17.090  2.9061 -1.0408 -0.3849
15031TIP3    H266509   5.334   3.150  17.237  0.8867  1.2554  0.0049
15032TIP3   OH266510   1.868   6.050  12.406 -0.5811  0.6969 -0.4648
15032TIP3    H166511   1.798   6.002  12.451 -0.5887  0.7989 -0.3681
15032TIP3    H266512   1.946   5.995  12.416 -0.1002  1.6388  1.4169
15033TIP3   OH266513   4.460   3.290   4.613 -0.1716  0.3543 -1.0339
15033TIP3    H166514   4.555   3.283   4.601  0.0277  1.6031 -0.3078
15033TIP3    H266515   4.428   3.320   4.528 -0.0416 -0.8817 -1.5469
15034TIP3   OH266516   2.317   1.789   2.414 -0.3336 -0.0174 -0.0459
15034TIP3    H166517   2.337   1.872   2.370  0.8600  2.0167  3.8059
15034TIP3    H266518   2.403   1.751   2.433 -0.6597  0.1453  1.9554
15035TIP3   OH266519   2.531   2.073   2.069 -0.1453  0.2092  0.3806
15035TIP3    H166520   2.621   2.092   2.096  0.0279 -0.2590  0.1435
15035TIP3    H266521   2.486   2.158   2.076  0.5303  0.6458 -0.3374
15036TIP3   OH266522   1.272   2.613   3.298  1.0940 -0.3336  0.2218
15036TIP3    H166523   1.342   2.667   3.335  2.6206 -2.1701  0.1746
15036TIP3    H266524   1.311   2.572   3.221  0.5441 -2.6378  1.0777
15037TIP3   OH266525   0.262   3.811   4.980 -0.0862 -0.1654 -0.1219
15037TIP3    H166526   0.337   3.798   4.921 -0.3958 -3.2346  0.0071
15037TIP3    H266527   0.193   3.847   4.924  0.4001 -0.6661 -1.0734
15038TIP3   OH266528   0.573   1.786   1.329  0.0334  0.3912  0.1147
15038TIP3    H166529   0.597   1.754   1.242 -0.3975  2.8038 -0.9432
15038TIP3    H266530   0.545   1.876   1.316 -0.2339  0.7806  2.7432
15039TIP3   OH266531   1.059   1.044  16.533 -0.2211  0.4681  0.6236
15039TIP3    H166532   1.109   0.974  16.491 -1.2786 -0.2500  0.5217
15039TIP3    H266533   1.110   1.123  16.515  0.1246 -0.0293 -0.7392
15040TIP3   OH266534   3.266   1.237  12.061  0.7851 -0.2181  0.1005
15040TIP3    H166535   3.181   1.249  12.017 -0.0260  0.3612  1.7310
15040TIP3    H266536   3.329   1.280  12.003 -0.3713  1.3067 -0.0893
15041TIP3   OH266537   5.656   2.443   3.400 -0.4677  0.2166 -0.2001
15041TIP3    H166538   5.713   2.410   3.470 -1.2911  0.6535  0.7129
15041TIP3    H266539   5.707   2.433   3.320  0.8211  0.4393  0.5694
15042TIP3   OH266540   0.245   0.592   3.594 -0.4689  0.5360 -0.1411
15042TIP3    H166541   0.265   0.674   3.548 -1.1386 -0.4613 -2.3565
15042TIP3    H266542   0.228   0.619   3.684 -0.2555  2.7758 -0.7065
15043TIP3   OH266543   6.170   0.941  13.551  0.2879  0.0566 -0.3235
15043TIP3    H166544   6.123   0.995  13.487  0.2307  0.2807 -0.0940
15043TIP3    H266545   6.231   1.002  13.593 -0.5185  0.2093  0.6964
15044TIP3   OH266546   0.621   1.059  13.961 -0.0521  0.0657  0.2560
15044TIP3    H166547   0.665   1.119  14.021  0.1625 -1.3871  1.6089
15044TIP3    H266548   0.577   1.116  13.898  1.9982  1.5844  0.1255
15045TIP3   OH266549   2.091   4.192  16.637  0.3888  0.7865  0.1060
15045TIP3    H166550   2.023   4.226  16.695  0.0033  1.8206 -0.9259
15045TIP3    H266551   2.118   4.267  16.585  0.9246 -0.0580 -0.8584
15046TIP3   OH266552   1.721   6.482  12.307  0.5006 -0.3489  0.0175
15046TIP3    H166553   1.727   6.389  12.329 -1.9473 -1.2051 -2.4346
15046TIP3    H266554   1.775   6.491  12.228  0.9821  0.4298  0.4188
15047TIP3   OH266555   1.903   5.420  15.254  0.0111  0.4311  0.1103
15047TIP3    H166556   1.889   5.373  15.172 -0.7106 -1.3819  1.2274
15047TIP3    H266557   1.918   5.511  15.226 -2.5471  0.3581 -1.9015
15048TIP3   OH266558   4.365   3.328   5.997  0.0887 -0.8480 -0.1116
15048TIP3    H166559   4.380   3.270   6.071  0.6343 -2.0871 -1.1464
15048TIP3    H266560   4.439   3.389   5.998 -0.2779 -0.3998  0.7478
15049TIP3   OH266561   6.500   2.597   3.295 -0.5885 -0.0064  0.4664
15049TIP3    H166562   6.557   2.550   3.234  0.0363  0.5517  0.6082
15049TIP3    H266563   6.525   2.689   3.285 -1.4459  0.2412  0.5622
15050TIP3   OH266564   5.319   6.521   6.298 -0.1661 -0.4058  0.2801
15050TIP3    H166565   5.364   6.470   6.230 -0.1803 -0.4617  0.3132
15050TIP3    H266566   5.226   6.502   6.285 -0.3924  1.4840 -1.2769
15051TIP3   OH266567   6.275   4.012  11.265  0.0460  0.3312  0.3283
15051TIP3    H166568   6.234   3.941  11.216 -0.3888  0.6640  0.2063
15051TIP3    H266569   6.352   4.036  11.213  0.5577 -0.4788  0.6991
15052TIP3   OH266570   0.360   4.900  12.681 -0.2849  0.2610  0.9637
15052TIP3    H166571   0.411   4.955  12.742  0.1836  2.2292 -1.0576
15052TIP3    H266572   0.270   4.927  12.695  0.0796  3.3733 -1.4574
15053TIP3   OH266573   3.794   1.272  14.002 -0.2943  0.3803 -0.2312
15053TIP3    H166574   3.821   1.361  14.026 -0.8265  0.0354  1.8960
15053TIP3    H266575   3.856   1.215  14.047 -1.1951 -0.3382  0.1390
15054TIP3   OH266576   4.288   4.116   0.781  0.3942  0.1187 -0.1451
15054TIP3    H166577   4.302   4.036   0.833  2.8412 -0.2295 -1.2150
15054TIP3    H266578   4.217   4.093   0.721 -0.3180 -0.5249  0.8976
15055TIP3   OH266579   1.535   5.083  14.214 -0.5933 -0.0356  0.3784
15055TIP3    H166580   1.604   5.129  14.263 -0.1932  0.4825 -0.6395
15055TIP3    H266581   1.454   5.127  14.239 -0.6166 -0.8270  1.7975
15056TIP3   OH266582   2.778   1.718  16.526 -0.3723  0.1077  0.4501
15056TIP3    H166583   2.793   1.761  16.610 -1.3464 -0.1742  0.7818
15056TIP3    H266584   2.835   1.641  16.527 -0.7041 -0.1404  1.0559
15057TIP3   OH266585   5.174   3.026  16.502 -0.4140  0.2777 -0.7938
15057TIP3    H166586   5.205   3.033  16.592 -1.4924 -1.5720 -0.2184
15057TIP3    H266587   5.109   3.096  16.493 -0.7704  0.0680  0.0825
15058TIP3   OH266588   3.179   3.346   1.275 -0.5074  0.3923  0.3716
15058TIP3    H166589   3.158   3.269   1.222 -0.4785  0.8937 -0.3776
15058TIP3    H266590   3.247   3.315   1.336  0.4194  0.1380 -0.7546
15059TIP3   OH266591   5.122   4.687  12.267  0.0677 -0.1961  0.4584
15059TIP3    H166592   5.138   4.755  12.202 -0.3183  0.1792  0.7540
15059TIP3    H266593   5.197   4.690  12.326  0.9634 -1.2597 -0.5719
15060TIP3   OH266594   4.862   1.478   3.533  0.4093 -0.4111  0.3291
15060TIP3    H166595   4.802   1.514   3.468  0.7637  0.9915  0.7257
15060TIP3    H266596   4.947   1.477   3.489  0.8026  1.2972  0.9833
15061TIP3   OH266597   2.991   6.001  12.822  0.3387  0.5417  0.3133
15061TIP3    H166598   3.072   6.052  12.820  0.0096  1.0513 -0.8232
15061TIP3    H266599   3.005   5.931  12.758  0.4371 -0.2618  1.1994
15062TIP3   OH266600   0.568   0.996  15.850 -0.1314  0.3689 -0.3582
15062TIP3    H166601   0.609   0.988  15.936 -0.3240  1.1924 -0.1735
15062TIP3    H266602   0.598   1.081  15.818 -1.1379  0.6777 -0.5110
15063TIP3   OH266603   4.170   4.255  11.635  1.3649 -0.6227  0.3247
15063TIP3    H166604   4.235   4.315  11.599  1.4901 -0.9667 -0.0241
15063TIP3    H266605   4.192   4.248  11.727  0.0163  1.6172  0.8776
15064TIP3   OH266606   1.013   1.922  12.267  0.5507 -0.4310 -0.5508
15064TIP3    H166607   0.992   1.970  12.347  2.8683 -0.1705 -0.0317
15064TIP3    H266608   0.959   1.964  12.200 -0.5744  0.1050  0.6367
15065TIP3   OH266609   0.697   6.670  12.018 -0.0710 -0.5311 -0.2438
15065TIP3    H166610   0.647   6.740  12.060  2.6130  1.3638  0.1065
15065TIP3    H266611   0.644   6.644  11.942 -1.9212  0.7162  0.5549
15066TIP3   OH266612   6.581   3.245   5.081 -0.3649  0.0628 -0.3122
15066TIP3    H166613   6.598   3.188   5.156  0.4273  1.2491  0.4556
15066TIP3    H266614   6.544   3.187   5.014  1.4015 -1.5761  0.0268
15067TIP3   OH266615   4.486   5.355  16.793 -0.0348 -0.3187  1.0286
15067TIP3    H166616   4.554   5.301  16.752 -0.2765  0.3562 -0.3222
15067TIP3    H266617   4.512   5.445  16.774 -0.3364  0.0102  2.1134
15068TIP3   OH266618   1.911   2.148  15.710 -0.3346 -0.2016  0.2818
15068TIP3    H166619   1.873   2.133  15.796 -0.0480  0.9811  0.6251
15068TIP3    H266620   1.838   2.181  15.657 -0.7047 -1.6794 -0.1729
15069TIP3   OH266621   5.229   2.189  15.082 -0.6826 -0.8083  0.2751
15069TIP3    H166622   5.179   2.107  15.074  0.2998 -1.3274 -0.9965
15069TIP3    H266623   5.241   2.219  14.992  0.2939 -0.0874  0.6217
15070TIP3   OH266624   4.055   0.122   0.024  0.3211  0.2133  0.0004
15070TIP3    H166625   3.965   0.108   0.054  0.1739 -2.2323 -1.3275
15070TIP3    H266626   4.097   0.168   0.096 -1.7142  0.5228  1.0797
15071TIP3   OH266627   5.297   1.244   4.525  0.5005  0.3844  0.2117
15071TIP3    H166628   5.218   1.205   4.486  1.2227  1.3825 -2.5242
15071TIP3    H266629   5.267   1.327   4.561  0.4784  1.6649 -2.4937
15072TIP3   OH266630   6.550   5.476   1.280 -0.0998  0.0708 -0.7011
15072TIP3    H166631   6.589   5.559   1.309 -0.2172 -0.6098  1.5629
15072TIP3    H266632   6.515   5.437   1.360 -5.7497  0.7332 -2.3896
15073TIP3   OH266633   2.752   1.987   6.287 -0.2034 -0.5797 -0.1935
15073TIP3    H166634   2.812   2.055   6.317 -1.4374  0.3646  0.1922
15073TIP3    H266635   2.731   1.936   6.365 -0.4421 -0.4906 -0.2005
15074TIP3   OH266636   2.556   1.209  14.660  0.6802 -0.3962 -0.4569
15074TIP3    H166637   2.471   1.185  14.697  1.7550 -2.0713  1.1162
15074TIP3    H266638   2.607   1.128  14.666  3.1885  1.1743  1.0478
15075TIP3   OH266639   4.726   3.470   4.747 -0.5034  0.5921  0.2110
15075TIP3    H166640   4.721   3.474   4.843  2.0224  2.3128  0.3828
15075TIP3    H266641   4.636   3.479   4.718 -1.2829  0.6012  2.4117
15076TIP3   OH266642   2.480   3.799   3.550 -0.3064  0.2158 -0.8353
15076TIP3    H166643   2.424   3.845   3.488 -0.3049  1.3883  0.0063
15076TIP3    H266644   2.472   3.707   3.525 -2.8463  0.2832 -0.6142
15077TIP3   OH266645   6.738   6.105   5.027  0.2464 -0.1003  0.0862
15077TIP3    H166646   6.719   6.177   4.967 -0.5464  0.3289  0.8328
15077TIP3    H266647   6.750   6.029   4.970  2.4318  0.8368 -0.8225
15078TIP3   OH266648   1.230   1.627   1.689  0.0264  0.1092 -0.4203
15078TIP3    H166649   1.209   1.718   1.708 -0.2691  0.3610 -1.8573
15078TIP3    H266650   1.146   1.587   1.666  0.2092 -0.4305 -0.1641
15079TIP3   OH266651   5.365   2.558   5.035 -0.7539 -0.5690  0.0949
15079TIP3    H166652   5.411   2.638   5.008  0.9635 -0.6900  2.3414
15079TIP3    H266653   5.413   2.487   4.993 -0.6947 -0.5263  0.0891
15080TIP3   OH266654   5.596   0.870  12.464  0.0045 -0.3062  0.0043
15080TIP3    H166655   5.659   0.915  12.408 -2.1305 -1.0150 -3.2379
15080TIP3    H266656   5.540   0.940  12.499 -0.2101 -0.0254 -0.8838
15081TIP3   OH266657   0.048   2.420  15.379  0.2443  0.1790 -0.0245
15081TIP3    H166658  -0.037   2.401  15.419 -0.2277 -0.6027 -1.3545
15081TIP3    H266659   0.075   2.503  15.419 -0.9199  0.2147  0.7437
15082TIP3   OH266660   1.019   3.403  15.724  0.2683  0.4963  0.1398
15082TIP3    H166661   1.108   3.415  15.755  0.5935 -1.9787  0.3666
15082TIP3    H266662   0.964   3.436  15.795  1.0148 -0.0741  1.0089
15083TIP3   OH266663   6.547   6.416   2.998  0.0990 -0.1547 -0.4742
15083TIP3    H166664   6.524   6.508   3.013  0.2196 -0.3045  0.6936
15083TIP3    H266665   6.614   6.419   2.929  1.5038  0.7952  0.8633
15084TIP3   OH266666   2.152   2.743   5.880 -0.6629  0.0052 -0.1829
15084TIP3    H166667   2.112   2.771   5.962 -0.7144  0.7190 -0.4363
15084TIP3    H266668   2.245   2.764   5.890 -0.2926 -1.8370  0.4827
15085TIP3   OH266669   5.598   5.785   4.615 -0.2997 -0.4109 -0.2079
15085TIP3    H166670   5.532   5.846   4.582  2.6072  1.5347 -2.9844
15085TIP3    H266671   5.653   5.838   4.673 -1.6536 -2.3101  3.1631
15086TIP3   OH266672   2.001   4.850   1.761  0.2621  0.1696  0.3613
15086TIP3    H166673   1.937   4.905   1.716  0.8011 -0.6110 -1.4833
15086TIP3    H266674   1.949   4.784   1.807 -0.3185  1.1548  1.1634
15087TIP3   OH266675   3.782   5.148   3.729  0.3602  0.8292 -0.7637
15087TIP3    H166676   3.701   5.097   3.738  0.5870  0.6547  0.4566
15087TIP3    H266677   3.753   5.239   3.732  0.1502  0.7687 -0.9215
15088TIP3   OH266678   0.932   0.530  14.412 -0.0535 -1.0703  0.1327
15088TIP3    H166679   0.999   0.592  14.441 -1.8567  0.9254  0.2649
15088TIP3    H266680   0.873   0.522  14.486 -1.1762 -1.0239 -0.7327
15089TIP3   OH266681   6.707   0.249  12.990 -0.0882  0.1732 -0.6362
15089TIP3    H166682   6.640   0.289  13.045 -1.6679  0.5367 -2.7122
15089TIP3    H266683   6.779   0.228  13.050 -0.8764  2.3876  1.1983
15090TIP3   OH266684   0.734   4.137  10.877 -0.7171  0.2892  0.0814
15090TIP3    H166685   0.727   4.112  10.785  0.5322 -0.1396  0.0779
15090TIP3    H266686   0.686   4.069  10.925  2.0396 -1.8736  0.0170
15091TIP3   OH266687   1.635   3.800  11.300 -0.1123  0.1658 -0.2141
15091TIP3    H166688   1.647   3.727  11.239 -0.7230  0.9250 -1.2680
15091TIP3    H266689   1.704   3.862  11.278 -0.8616  0.8324 -0.7283
15092TIP3   OH266690   6.321   6.682  12.157 -0.0737  0.0210 -0.1920
15092TIP3    H166691   6.293   6.749  12.094 -1.1151 -0.3225 -0.1185
15092TIP3    H266692   6.375   6.622  12.106 -2.0746 -1.0536 -1.1565
15093TIP3   OH266693   0.351   4.404   2.162 -0.6364 -0.5412 -0.3214
15093TIP3    H166694   0.416   4.342   2.130 -0.4292 -0.5216  0.0618
15093TIP3    H266695   0.397   4.487   2.170 -0.5436 -0.6686  0.5450
15094TIP3   OH266696   5.658   4.671  15.602  0.0457 -0.1808  0.3966
15094TIP3    H166697   5.572   4.684  15.562  0.7376 -1.0378 -1.4909
15094TIP3    H266698   5.701   4.757  15.594  0.5105 -0.5351 -1.6954
15095TIP3   OH266699   6.438   0.363   5.370  0.2693 -0.8010 -0.3941
15095TIP3    H166700   6.403   0.277   5.346 -1.3390 -0.7638  1.5027
15095TIP3    H266701   6.495   0.387   5.297 -1.1455 -2.3834 -2.1414
15096TIP3   OH266702   5.869   0.782  16.636  0.5597 -0.3774 -0.3387
15096TIP3    H166703   5.913   0.742  16.561  1.1984  0.0880 -0.2225
15096TIP3    H266704   5.776   0.781  16.613  0.8323  0.6094 -1.5447
15097TIP3   OH266705   3.693   0.981  16.868  0.5600 -0.1033  0.0926
15097TIP3    H166706   3.713   1.066  16.907  0.2012  0.1670 -0.3112
15097TIP3    H266707   3.743   0.979  16.787  0.8362 -0.4188  0.2714
15098TIP3   OH266708   2.035   1.457  15.861  0.2756  0.4862  0.6587
15098TIP3    H166709   2.032   1.476  15.954  0.0884 -0.0110  0.7551
15098TIP3    H266710   2.033   1.544  15.819  1.0673  0.7470  1.1240
15099TIP3   OH266711   2.384   6.177  16.202  0.5525  0.0276  0.9194
15099TIP3    H166712   2.386   6.271  16.221  0.3534 -0.0901  1.5504
15099TIP3    H266713   2.469   6.158  16.163  1.2748  0.1606  2.3540
15100TIP3   OH266714   5.871   3.915   1.725 -0.4134  0.2931  0.1989
15100TIP3    H166715   5.836   3.976   1.660 -2.3270  1.7126  2.3927
15100TIP3    H266716   5.851   3.956   1.809  0.5772 -2.1787  1.7499
15101TIP3   OH266717   3.907   5.819  15.566  0.5076 -0.0014  0.0690
15101TIP3    H166718   3.858   5.870  15.631  1.3709  0.8809  0.0627
15101TIP3    H266719   3.843   5.759  15.529 -0.4321  0.7317  0.4581
15102TIP3   OH266720   3.284   6.146   4.620  0.2980 -0.1800 -0.0088
15102TIP3    H166721   3.345   6.082   4.656 -0.1162 -0.3058  0.4697
15102TIP3    H266722   3.294   6.138   4.525  0.3541 -0.8414  0.0545
15103TIP3   OH266723   5.983   4.466   5.273 -0.4029  0.0016 -0.1068
15103TIP3    H166724   5.978   4.557   5.301  0.3233  0.7940 -2.3811
15103TIP3    H266725   6.076   4.443   5.282 -0.3445 -0.0646 -0.8433
15104TIP3   OH266726   5.250   5.366  16.559 -0.4845  0.4536 -0.4522
15104TIP3    H166727   5.169   5.329  16.596 -2.1257  3.9108 -0.2214
15104TIP3    H266728   5.260   5.450  16.603  2.9258  0.4736 -1.0111
15105TIP3   OH266729   0.932   5.875  16.417 -0.2993  0.2765  0.2753
15105TIP3    H166730   0.937   5.899  16.510  1.0614  0.6300  0.1337
15105TIP3    H266731   0.863   5.810  16.413 -0.0304 -0.1280  1.6320
15106TIP3   OH266732   0.860   0.112   5.976 -0.3473 -0.5819  0.4045
15106TIP3    H166733   0.911   0.120   5.895  1.6277 -2.5307  1.3441
15106TIP3    H266734   0.811   0.030   5.966 -3.6673  1.3266 -0.5481
15107TIP3   OH266735   3.061   3.970   2.960  0.0922 -0.2522 -0.0914
15107TIP3    H166736   3.005   3.998   3.032  0.1983 -1.9103  0.6806
15107TIP3    H266737   3.080   3.878   2.978  2.4829  0.0438 -0.6854
15108TIP3   OH266738   3.636   4.482  11.412  0.7098  0.6661  0.0466
15108TIP3    H166739   3.661   4.521  11.328  1.2068  0.5040  0.1184
15108TIP3    H266740   3.636   4.555  11.474  0.9070  0.6843  0.0254
15109TIP3   OH266741   6.757   0.663  16.021 -0.8716 -0.0269 -0.7139
15109TIP3    H166742   6.758   0.690  15.929 -3.3348  3.3221  0.0428
15109TIP3    H266743   6.670   0.628  16.036 -0.6510 -0.1304  0.4407
15110TIP3   OH266744   2.047   3.727   6.128  0.0790  0.1808 -0.8529
15110TIP3    H166745   2.019   3.818   6.129  1.1784  0.5804 -2.4595
15110TIP3    H266746   2.119   3.723   6.191  0.0926  0.4436 -0.8531
15111TIP3   OH266747   3.406   3.657  14.075 -0.1677 -0.1070  0.2505
15111TIP3    H166748   3.376   3.573  14.110  2.3900 -1.1393  0.1612
15111TIP3    H266749   3.391   3.650  13.981 -0.2448 -0.3439  0.2788
15112TIP3   OH266750   0.842   4.009  11.254 -0.3647  0.3542 -0.3487
15112TIP3    H166751   0.768   3.996  11.194 -0.6604 -0.2994  0.1465
15112TIP3    H266752   0.807   3.989  11.341  0.3241  0.2890 -0.0767
15113TIP3   OH266753   4.913   5.152   2.131 -0.8117  0.0002 -0.0555
15113TIP3    H166754   4.827   5.117   2.107 -1.3920  1.1148  0.3248
15113TIP3    H266755   4.946   5.090   2.196 -1.9847  0.3178  0.8871
15114TIP3   OH266756   2.928   1.972   2.830 -0.3702 -0.0044 -0.5993
15114TIP3    H166757   2.939   2.067   2.835 -0.9046  0.0429 -0.3731
15114TIP3    H266758   3.015   1.940   2.803  0.5547  0.3185  1.7886
15115TIP3   OH266759   3.345   3.320  14.707 -0.0883 -0.2833  0.6061
15115TIP3    H166760   3.300   3.318  14.792 -1.9128 -2.3088 -0.3133
15115TIP3    H266761   3.421   3.376  14.722 -0.5843 -0.2054  3.4524
15116TIP3   OH266762   0.409   5.637  10.424  0.1519  0.5793 -0.3229
15116TIP3    H166763   0.462   5.708  10.390 -0.5622  0.3533 -2.0079
15116TIP3    H266764   0.355   5.677  10.492  2.2062  0.8705  1.2383
15117TIP3   OH266765   3.321   4.223   3.889 -0.3142 -0.5299 -0.3138
15117TIP3    H166766   3.320   4.174   3.807  1.3640  0.7542 -1.1542
15117TIP3    H266767   3.229   4.223   3.917 -0.5167 -3.3750 -0.6679
15118TIP3   OH266768   0.744   5.672  14.749  0.3593 -0.0251 -0.6116
15118TIP3    H166769   0.788   5.752  14.720  1.5715 -0.8610 -1.1406
15118TIP3    H266770   0.756   5.672  14.844  0.4544  0.3623 -0.6203
15119TIP3   OH266771   4.739   5.054  15.890 -0.1500 -0.0546  0.4124
15119TIP3    H166772   4.697   4.975  15.924  1.5253 -1.4475 -0.5925
15119TIP3    H266773   4.743   5.040  15.796  0.6591  1.0070  0.2754
15120TIP3   OH266774   3.755   6.215   3.395  0.4304 -0.0227 -0.1293
15120TIP3    H166775   3.766   6.271   3.471 -0.3045 -0.3930  0.2634
15120TIP3    H266776   3.660   6.213   3.380  0.3865 -1.5206  0.1519
15121TIP3   OH266777   0.831   4.622  11.615  0.7049 -0.4438  0.3722
15121TIP3    H166778   0.921   4.601  11.637  0.8597 -0.4508 -0.2497
15121TIP3    H266779   0.812   4.568  11.537  0.6699  0.7059 -0.4383
15122TIP3   OH266780   3.637   4.436  12.395 -0.3800  0.0189 -0.1825
15122TIP3    H166781   3.676   4.484  12.322 -0.4569 -0.9875 -0.9025
15122TIP3    H266782   3.674   4.477  12.473  0.1126  0.7642 -0.7938
15123TIP3   OH266783   0.048   5.530  13.289  0.5649  0.0717 -0.0680
15123TIP3    H166784   0.127   5.479  13.274  1.8014  1.3079  1.7802
15123TIP3    H266785   0.035   5.526  13.384  0.0365  2.1543 -0.0042
15124TIP3   OH266786   0.263   1.791  15.891 -0.0484 -0.0681  0.3868
15124TIP3    H166787   0.288   1.882  15.880  1.3314 -0.2418  1.8236
15124TIP3    H266788   0.321   1.743  15.832 -2.6153  0.0723 -2.5764
15125TIP3   OH266789   4.209   2.486  15.267  0.3369 -0.1969  0.2891
15125TIP3    H166790   4.210   2.398  15.228  1.1948  0.5615 -1.5285
15125TIP3    H266791   4.287   2.528  15.231 -0.9181  1.8507 -0.1903
15126TIP3   OH266792   3.476   6.421  15.660  0.2302 -0.5127  0.3163
15126TIP3    H166793   3.381   6.422  15.676  0.1291  1.9208 -0.1149
15126TIP3    H266794   3.484   6.393  15.569 -0.0542 -0.9282  0.4155
15127TIP3   OH266795   1.332   1.454  16.164  0.3398 -0.0255  0.6007
15127TIP3    H166796   1.381   1.444  16.246  1.8691  0.1428 -0.2587
15127TIP3    H266797   1.253   1.400  16.176  1.4133 -1.4515  1.4911
15128TIP3   OH266798   6.127   4.104  14.080  0.5552  0.2589 -0.1822
15128TIP3    H166799   6.071   4.176  14.109  1.2242 -0.0241  1.9455
15128TIP3    H266800   6.069   4.047  14.029 -0.4020  1.3713 -0.3826
15129TIP3   OH266801   0.787   6.110  15.993  0.3055 -0.6196  0.1609
15129TIP3    H166802   0.707   6.149  15.956 -0.1334 -1.1504  0.5402
15129TIP3    H266803   0.840   6.186  16.020 -0.2718 -0.2665  0.3207
15130TIP3   OH266804   5.508   1.733  16.028 -0.2231 -0.1674 -0.4295
15130TIP3    H166805   5.586   1.736  15.972  0.2760 -0.7319  0.2063
15130TIP3    H266806   5.506   1.643  16.061 -1.2045 -0.1817 -0.5154
15131TIP3   OH266807   3.437   0.412  12.031  0.3702 -0.0078  0.5280
15131TIP3    H166808   3.468   0.400  11.941 -3.5074 -0.6917 -0.9534
15131TIP3    H266809   3.433   0.507  12.042 -0.7737  0.1421 -0.8007
15132TIP3   OH266810   0.548   5.085   4.394 -0.5504  0.1208 -0.2282
15132TIP3    H166811   0.557   5.003   4.346 -0.3778 -0.0356  0.0707
15132TIP3    H266812   0.466   5.076   4.443  0.4139 -0.6778  1.3350
15133TIP3   OH266813   1.127   4.831   2.342  0.3939  0.4020 -0.2110
15133TIP3    H166814   1.102   4.797   2.428  2.8542  0.6459  0.6638
15133TIP3    H266815   1.083   4.916   2.337 -0.8998 -0.2126  0.1668
15134TIP3   OH266816   2.652   4.184   0.351  0.3428 -0.7765 -0.1941
15134TIP3    H166817   2.679   4.096   0.377  0.2326 -0.1956  2.0549
15134TIP3    H266818   2.620   4.224   0.431 -1.7907  0.5514 -1.6229
15135TIP3   OH266819   0.172   4.494   5.475 -0.3364 -1.0772 -0.1910
15135TIP3    H166820   0.224   4.454   5.545 -0.6053 -1.4619 -0.2047
15135TIP3    H266821   0.093   4.439   5.470 -0.2066 -1.1982 -0.9580
15136TIP3   OH266822   4.419   3.926   0.954 -0.3243  0.0003  0.6242
15136TIP3    H166823   4.454   3.976   1.028 -1.8320  2.9933 -0.5021
15136TIP3    H266824   4.359   3.863   0.993  1.4181 -0.8365  2.1048
15137TIP3   OH266825   5.725   6.291  14.856 -0.4459  0.0022 -0.0919
15137TIP3    H166826   5.736   6.232  14.781  0.4211 -0.6555  0.5284
15137TIP3    H266827   5.641   6.266  14.894  0.3225 -1.4735  0.6932
15138TIP3   OH266828   3.450   4.875  14.008  0.0321 -0.1038  0.9131
15138TIP3    H166829   3.516   4.940  13.984 -1.0890  0.2677 -1.3900
15138TIP3    H266830   3.486   4.833  14.086  1.8405  1.7158  1.1476
15139TIP3   OH266831   3.983   6.552   4.192  0.0899 -0.5539  0.4651
15139TIP3    H166832   4.035   6.616   4.241  0.6678 -1.6946  1.3879
15139TIP3    H266833   4.045   6.511   4.132 -0.2471 -0.3769 -0.0176
15140TIP3   OH266834   2.174   2.914   4.612 -0.2714  0.3989 -0.2632
15140TIP3    H166835   2.242   2.928   4.546  1.2295 -0.2199  1.0786
15140TIP3    H266836   2.118   2.846   4.575  1.0382 -0.5474 -0.5890
15141TIP3   OH266837   6.299   3.930   1.314  0.3409  0.4424  0.9005
15141TIP3    H166838   6.376   3.967   1.271  1.1942 -1.4735  0.6799
15141TIP3    H266839   6.298   3.969   1.401  0.9030  1.3328  0.5179
15142TIP3   OH266840   0.131   4.845  16.965 -0.0085 -0.4182  0.0483
15142TIP3    H166841   0.184   4.769  16.943  1.9030  0.6769  0.6625
15142TIP3    H266842   0.121   4.892  16.882  2.8348  1.0402  0.4107
15143TIP3   OH266843   0.833   0.967   3.054 -0.0926 -0.3028 -0.5177
15143TIP3    H166844   0.888   0.888   3.052 -0.0880 -0.2998 -0.5112
15143TIP3    H266845   0.861   1.018   2.977 -0.4471 -0.5434 -0.8090
15144TIP3   OH266846   0.470   5.062  16.214  0.7201 -0.4340  0.5330
15144TIP3    H166847   0.494   5.040  16.304  0.2023 -3.1084  0.0992
15144TIP3    H266848   0.540   5.025  16.160  1.2246  1.4706 -0.1979
15145TIP3   OH266849   5.565   5.342   5.468 -0.3610  0.2918 -0.7203
15145TIP3    H166850   5.630   5.407   5.492 -1.0067  1.0161 -0.8795
15145TIP3    H266851   5.605   5.258   5.489 -0.5550  0.8081  2.1024
15146TIP3   OH266852   4.807   3.342  15.120 -0.4681 -0.0422 -0.0896
15146TIP3    H166853   4.795   3.435  15.101  1.0391  0.2430  0.2187
15146TIP3    H266854   4.815   3.338  15.215  0.1716 -0.3927 -0.1558
15147TIP3   OH266855   5.392   0.875   5.030  0.2278  0.1363 -0.8596
15147TIP3    H166856   5.443   0.902   5.106  0.4111 -0.6001 -0.7145
15147TIP3    H266857   5.453   0.884   4.956 -0.0056  1.0249 -0.9534
15148TIP3   OH266858   2.992   1.262   4.328  0.4559 -0.0356  0.9391
15148TIP3    H166859   3.001   1.286   4.236 -3.7658  1.0453  0.5905
15148TIP3    H266860   3.023   1.339   4.376 -0.1562  0.6405  0.2741
15149TIP3   OH266861   4.698   4.544   3.644 -0.6324  0.2334  0.2816
15149TIP3    H166862   4.761   4.477   3.617 -0.6236 -0.3418  1.6243
15149TIP3    H266863   4.686   4.599   3.567  2.6884  1.3084  0.3929
15150TIP3   OH266864   6.267   5.120   4.173 -0.0339  0.3908  0.2658
15150TIP3    H166865   6.328   5.150   4.240  1.6366 -2.0571 -0.0301
15150TIP3    H266866   6.233   5.037   4.207 -0.3339 -0.1208 -1.2028
15151TIP3   OH266867   0.671   6.013   4.623 -0.2426 -0.0456 -0.3348
15151TIP3    H166868   0.689   6.060   4.704  1.6152 -2.8227  1.0262
15151TIP3    H266869   0.755   6.006   4.579 -0.5466 -1.5663 -0.7374
15152TIP3   OH266870   3.913   3.896   5.932 -1.1265  0.3324  0.2514
15152TIP3    H166871   3.937   3.934   6.017 -1.4694  1.1268  0.0014
15152TIP3    H266872   3.825   3.862   5.945 -1.0639  0.1858  0.2955
15153TIP3   OH266873   6.498   3.652   4.633 -0.1514 -0.7732 -0.1562
15153TIP3    H166874   6.517   3.654   4.539  1.6649  1.5822  0.1736
15153TIP3    H266875   6.501   3.559   4.656 -0.6744 -1.4023 -2.4064
15154TIP3   OH266876   0.999   6.316   5.409 -0.3187 -0.1994 -0.0077
15154TIP3    H166877   0.999   6.272   5.495  1.0566 -1.3549 -0.5616
15154TIP3    H266878   0.974   6.247   5.347 -0.3174  0.3754 -0.6568
15155TIP3   OH266879   1.601   2.969   0.955 -0.1261  0.4437 -0.1717
15155TIP3    H166880   1.582   3.051   0.911  2.6966  0.9644 -0.5916
15155TIP3    H266881   1.623   2.908   0.885  2.4968  0.7405  0.2973
15156TIP3   OH266882   4.266   3.725   2.949 -0.2511 -0.1495  0.0506
15156TIP3    H166883   4.344   3.738   2.895 -1.3742  0.0063 -1.6247
15156TIP3    H266884   4.283   3.644   2.997  0.1039 -1.3472 -1.9525
15157TIP3   OH266885   3.650   0.141  12.420 -0.5502 -0.2530 -0.1843
15157TIP3    H166886   3.649   0.214  12.357 -0.4814 -1.8257 -2.1166
15157TIP3    H266887   3.707   0.171  12.490  1.4978  0.6764 -2.1026
15158TIP3   OH266888   3.645   6.577   0.549 -0.0134  0.5481 -0.1520
15158TIP3    H166889   3.614   6.596   0.638  3.0861 -0.3741  1.2848
15158TIP3    H266890   3.580   6.517   0.513 -1.5087  1.1600  1.3773
15159TIP3   OH266891   4.188   4.934   5.883  0.0898 -0.5759  0.9978
15159TIP3    H166892   4.132   4.991   5.936 -2.8123 -3.4381  1.2809
15159TIP3    H266893   4.145   4.929   5.798  1.7314 -0.3649  0.1037
15160TIP3   OH266894   3.872   0.366  12.393  0.0315  0.2635 -0.5346
15160TIP3    H166895   3.868   0.453  12.434 -0.4533 -0.0727  0.1606
15160TIP3    H266896   3.881   0.306  12.466 -1.4803 -0.4020 -0.8507
15161TIP3   OH266897   4.516   5.499   4.811 -0.1731 -0.7114  0.1111
15161TIP3    H166898   4.539   5.589   4.837  0.5177 -0.6675 -0.6256
15161TIP3    H266899   4.442   5.510   4.752  0.3282 -0.5719 -0.4990
15162TIP3   OH266900   1.257   2.671   4.643  0.3094  0.2531  0.6504
15162TIP3    H166901   1.269   2.722   4.723 -0.8057 -0.1005  1.0677
15162TIP3    H266902   1.170   2.696   4.612  0.2578 -0.4820  0.1811
15163TIP3   OH266903   2.906   2.563   5.454 -0.3754  0.0230 -0.4357
15163TIP3    H166904   2.959   2.603   5.384 -0.5599  1.1485  0.0404
15163TIP3    H266905   2.970   2.531   5.517 -0.2063  1.9052  0.4269
15164TIP3   OH266906   5.913   5.595  12.884 -0.3566 -0.2341 -0.2355
15164TIP3    H166907   5.869   5.670  12.924 -1.0663 -1.1117  0.6886
15164TIP3    H266908   5.849   5.524  12.890  0.9831 -1.4260  0.7193
15165TIP3   OH266909   1.439   6.470   4.400  0.5196  0.1527  0.1412
15165TIP3    H166910   1.376   6.469   4.473  1.8347  1.9670  1.4080
15165TIP3    H266911   1.522   6.442   4.440  0.6522 -1.9099 -1.4253
15166TIP3   OH266912   4.827   4.498  12.274  0.5629  0.2209  0.2877
15166TIP3    H166913   4.763   4.446  12.225  1.4974 -0.7101  0.0273
15166TIP3    H266914   4.867   4.555  12.209  1.4744 -0.6875  0.0335
15167TIP3   OH266915   6.749   4.964  13.799  0.3134  0.1611  0.0118
15167TIP3    H166916   6.687   5.028  13.835  0.7746  1.3653 -1.2206
15167TIP3    H266917   6.803   5.015  13.738  2.8111 -0.7376  1.3196
15168TIP3   OH266918   0.242   1.113   0.352 -0.2017 -0.3285  0.2188
15168TIP3    H166919   0.286   1.029   0.363  1.7693  0.7014  0.5944
15168TIP3    H266920   0.310   1.178   0.368 -1.7810  1.3556  0.4000
15169TIP3   OH266921   0.045   3.896  12.165 -0.4774  0.4532  0.6802
15169TIP3    H166922  -0.009   3.912  12.088  0.6629  0.9466 -0.0616
15169TIP3    H266923   0.069   3.804  12.160 -0.2527  0.5301  0.3366
15170TIP3   OH266924   5.051   1.179  16.330  0.5060 -0.0584 -0.6673
15170TIP3    H166925   4.993   1.233  16.385 -0.8597 -0.8456 -1.2879
15170TIP3    H266926   5.135   1.180  16.376 -0.2429  0.3525  0.7543
15171TIP3   OH266927   0.549   2.223   2.455 -0.0479 -0.4165  0.0448
15171TIP3    H166928   0.561   2.317   2.469 -1.7384  0.0289 -1.1621
15171TIP3    H266929   0.600   2.203   2.377 -1.5673  0.0638 -1.1324
15172TIP3   OH266930   0.475   3.835  13.277  0.0698  0.6103  0.3374
15172TIP3    H166931   0.452   3.791  13.359 -0.7317  0.1047 -0.1351
15172TIP3    H266932   0.420   3.792  13.211  1.1274  0.5941 -0.5677
15173TIP3   OH266933   4.268   3.381   4.828  0.2091  0.5406 -0.2330
15173TIP3    H166934   4.245   3.418   4.743  1.1307 -0.1945 -0.8304
15173TIP3    H266935   4.258   3.454   4.889  0.9310  1.4882 -1.1958
15174TIP3   OH266936   1.171   5.834  16.236  0.2181 -0.8371 -0.1080
15174TIP3    H166937   1.087   5.822  16.281 -1.2135 -1.6896 -2.7724
15174TIP3    H266938   1.231   5.860  16.305 -2.4727  0.9954  1.7719
15175TIP3   OH266939   2.022   2.659   4.490  0.6647 -0.0402 -0.1937
15175TIP3    H166940   1.928   2.642   4.487  0.6492  0.0592 -0.2657
15175TIP3    H266941   2.056   2.616   4.411  0.5656  0.6276 -0.6102
15176TIP3   OH266942   6.069   6.528  17.172 -0.0442 -0.4137 -0.6308
15176TIP3    H166943   6.053   6.562  17.260 -0.0680 -1.1502 -0.3410
15176TIP3    H266944   6.134   6.458  17.185  0.9498  0.3430 -1.3707
15177TIP3   OH266945   0.363   4.304  14.373 -0.3347 -0.1554 -0.5522
15177TIP3    H166946   0.320   4.221  14.349 -1.2432  0.3660 -0.7673
15177TIP3    H266947   0.366   4.353  14.291 -1.3298  0.6933 -0.1037
15178TIP3   OH266948   0.065   5.511  11.039  0.2178 -0.0506 -0.4613
15178TIP3    H166949  -0.010   5.566  11.017  0.7710  0.5492 -0.8952
15178TIP3    H266950   0.108   5.495  10.955  1.7539  1.3633  0.0109
15179TIP3   OH266951   0.291   6.661   0.075 -0.4649 -1.0469 -0.3441
15179TIP3    H166952   0.289   6.755   0.056 -2.3215 -0.9332  0.2005
15179TIP3    H266953   0.316   6.620  -0.008 -0.9100 -0.1515 -0.9342
15180TIP3   OH266954   4.689   2.116  17.010  0.3858  0.0403 -0.0230
15180TIP3    H166955   4.694   2.126  16.915 -3.1764  0.4348 -0.2878
15180TIP3    H266956   4.611   2.061  17.024 -0.6080  1.9644  2.7011
15181TIP3   OH266957   2.673   0.802  14.478  0.0538 -0.5249  0.4049
15181TIP3    H166958   2.603   0.801  14.544  1.2824 -2.8865  1.8180
15181TIP3    H266959   2.680   0.894  14.453 -4.1702 -0.2396 -0.5949
15182TIP3   OH266960   5.800   6.260  12.054  0.0669  0.4357  0.0800
15182TIP3    H166961   5.705   6.271  12.060 -0.0123 -0.6742  1.2751
15182TIP3    H266962   5.811   6.177  12.009  0.4527  0.3208  0.3836
15183TIP3   OH266963   4.614   4.024   2.925 -0.2216  0.8586  0.6657
15183TIP3    H166964   4.678   3.971   2.879 -1.6204 -1.8243  1.5875
15183TIP3    H266965   4.617   4.109   2.881  2.5941  0.2744 -0.4819
15184TIP3   OH266966   5.942   4.606  13.476  0.8029 -0.2009  0.3388
15184TIP3    H166967   5.875   4.538  13.477  0.2629  0.3282  1.5146
15184TIP3    H266968   6.004   4.576  13.409 -1.8595  0.5574 -2.7509
15185TIP3   OH266969   6.174   5.859  15.740  0.4214  0.2021  0.0029
15185TIP3    H166970   6.165   5.780  15.792 -0.2455 -0.4022 -1.0039
15185TIP3    H266971   6.171   5.829  15.649  0.5102  1.3415 -0.3966
15186TIP3   OH266972   1.694   5.899  14.382  0.3810 -0.3370  0.1550
15186TIP3    H166973   1.681   5.815  14.337  1.9568 -1.0096  0.8641
15186TIP3    H266974   1.774   5.886  14.433  0.0517  1.2553  1.1313
15187TIP3   OH266975   6.626   0.473   5.195 -0.1027 -0.0124 -0.0325
15187TIP3    H166976   6.707   0.524   5.205 -0.5007  0.3953  1.3006
15187TIP3    H266977   6.581   0.513   5.121  0.4194  0.4385 -0.1138
15188TIP3   OH266978   0.764   2.702  13.470 -0.2818 -0.0052  0.3442
15188TIP3    H166979   0.744   2.671  13.382  1.5260  0.7967 -0.3834
15188TIP3    H266980   0.817   2.632  13.509  0.1114  0.2645  0.2899
15189TIP3   OH266981   5.070   4.691   4.470  0.3693 -0.6183  0.5081
15189TIP3    H166982   5.042   4.780   4.492  1.0792 -0.8642  2.6456
15189TIP3    H266983   5.129   4.702   4.396 -0.3073  0.5722  0.1235
15190TIP3   OH266984   3.639   2.781  17.106 -0.9708 -0.3495 -0.1774
15190TIP3    H166985   3.715   2.797  17.164 -0.3855 -1.6449 -0.5660
15190TIP3    H266986   3.577   2.735  17.161 -1.0763 -0.1657 -0.1409
15191TIP3   OH266987   6.578   0.235  11.667  0.2615 -0.6407  0.1221
15191TIP3    H166988   6.580   0.279  11.582  1.1228 -1.3925 -0.2536
15191TIP3    H266989   6.515   0.287  11.719 -0.0779 -0.0254 -0.8748
15192TIP3   OH266990   2.944   3.951   6.182 -0.4497 -0.1409 -0.9381
15192TIP3    H166991   2.936   4.026   6.242  1.1045  1.8546 -3.0314
15192TIP3    H266992   3.009   3.895   6.224  1.0280  1.4841 -0.9077
15193TIP3   OH266993   6.317   3.766   3.136 -0.3637  0.1178 -0.1943
15193TIP3    H166994   6.290   3.749   3.046  0.2197  0.1079 -0.3701
15193TIP3    H266995   6.379   3.697   3.156 -1.9811 -1.0922  0.9165
15194TIP3   OH266996   4.668   2.506   3.278 -0.2956 -0.2954 -0.3885
15194TIP3    H166997   4.700   2.416   3.272  0.5563 -0.3177  2.6077
15194TIP3    H266998   4.722   2.554   3.215 -0.0941 -1.7109 -1.3439
15195TIP3   OH266999   4.464   4.223  17.256 -0.1984  0.6201 -0.7532
15195TIP3    H167000   4.526   4.274  17.308 -1.1351 -0.4340  1.5654
15195TIP3    H267001   4.383   4.223  17.308 -0.6538 -2.0569 -1.2871
15196TIP3   OH267002   2.444   2.823   3.434  0.3804 -0.0618  0.1974
15196TIP3    H167003   2.392   2.814   3.514 -1.9396 -0.8045 -1.3019
15196TIP3    H267004   2.432   2.914   3.408  0.2979 -0.0856  0.1524
15197TIP3   OH267005   4.301   1.408   3.639  0.0903 -0.0738  0.2794
15197TIP3    H167006   4.291   1.344   3.709 -2.3794  0.2901  0.3549
15197TIP3    H267007   4.236   1.476   3.658 -2.2860 -1.0113 -3.3862
15198TIP3   OH267008   5.994   3.156   5.899 -0.6884 -0.0195  0.0405
15198TIP3    H167009   5.932   3.112   5.841 -0.3540 -0.3410 -0.0749
15198TIP3    H267010   5.940   3.185   5.973 -1.1247  0.4468 -0.4515
15199TIP3   OH267011   4.623   3.055  12.848 -0.2608 -0.2018 -0.2436
15199TIP3    H167012   4.542   3.004  12.850 -0.3545 -0.0614 -0.4235
15199TIP3    H267013   4.621   3.107  12.928 -1.4604  1.5046 -1.3255
15200TIP3   OH267014   0.856   1.635   0.541 -0.6071  0.6954  0.1277
15200TIP3    H167015   0.775   1.665   0.502  0.5148  2.0789 -1.2838
15200TIP3    H267016   0.924   1.688   0.499  1.0274 -0.3967  1.2606
15201TIP3   OH267017   4.852   3.841  11.178 -0.3376  0.6078 -0.1115
15201TIP3    H167018   4.893   3.755  11.164 -1.1371  0.3157 -0.6995
15201TIP3    H267019   4.758   3.823  11.182 -0.4674  1.3601  0.5742
15202TIP3   OH267020   0.931   0.871  16.878  0.2667 -0.7250  0.3097
15202TIP3    H167021   0.908   0.884  16.970 -2.5266  0.8288 -0.5024
15202TIP3    H267022   0.848   0.850  16.835  1.5821 -1.9751 -1.8124
15203TIP3   OH267023   3.603   1.346   4.915  0.3996  0.1492 -0.2156
15203TIP3    H167024   3.620   1.368   4.824  0.8496 -0.6193 -0.3265
15203TIP3    H267025   3.508   1.331   4.919  0.4898 -0.6291 -0.7470
15204TIP3   OH267026   4.922   4.277  15.739  0.0561 -0.0680  0.6973
15204TIP3    H167027   4.923   4.366  15.704 -0.8473 -0.7288 -1.1510
15204TIP3    H267028   4.850   4.277  15.803 -1.6303 -0.0343 -1.0873
15205TIP3   OH267029   3.689   1.380  11.215  0.1430  0.0230 -0.3426
15205TIP3    H167030   3.596   1.364  11.197 -0.3034  0.5138  1.3092
15205TIP3    H267031   3.722   1.422  11.136 -0.6467 -1.5189 -1.5490
15206TIP3   OH267032   0.123   4.581   0.180 -0.3680 -0.0467  0.2422
15206TIP3    H167033   0.066   4.517   0.137  0.0213  0.0400 -0.4125
15206TIP3    H267034   0.190   4.601   0.115 -0.7361  1.3752  0.2733
15207TIP3   OH267035   2.143   0.010   2.667 -0.4735  0.5240 -0.1588
15207TIP3    H167036   2.141  -0.083   2.690 -2.9849  0.4053 -0.5818
15207TIP3    H267037   2.195   0.014   2.586  0.1220 -0.4132  0.1656
15208TIP3   OH267038   4.654   3.987  11.746  0.2604 -0.5698 -0.2174
15208TIP3    H167039   4.579   4.021  11.795  0.3049 -2.5133  1.2946
15208TIP3    H267040   4.722   3.972  11.812  0.9344 -1.6389 -1.1139
15209TIP3   OH267041   3.306   2.598   0.720 -0.0587 -0.3014  0.1006
15209TIP3    H167042   3.283   2.509   0.695  2.0458 -1.4693  1.9769
15209TIP3    H267043   3.331   2.641   0.638 -2.0064 -1.0585 -0.9634
15210TIP3   OH267044   5.995   4.577  16.382 -0.0042  0.6663  0.4850
15210TIP3    H167045   6.037   4.638  16.443  1.5662 -0.0828  0.1810
15210TIP3    H267046   6.065   4.518  16.354 -1.3402 -0.8663  0.2383
15211TIP3   OH267047   5.579   2.534  16.409  0.6749  0.5764 -0.1756
15211TIP3    H167048   5.601   2.613  16.359 -1.4245 -0.2197 -2.5964
15211TIP3    H267049   5.582   2.562  16.500  1.6643  2.9879 -0.8612
15212TIP3   OH267050   6.270   1.953  15.765  0.0817 -0.6408 -0.0681
15212TIP3    H167051   6.191   1.912  15.800  0.5678  0.7490  2.9940
15212TIP3    H267052   6.316   1.882  15.720 -2.8709 -1.4547 -2.0423
15213TIP3   OH267053   4.520   4.745  11.464 -0.1482  0.2171 -0.3234
15213TIP3    H167054   4.570   4.826  11.451 -0.0958  0.0871 -0.9439
15213TIP3    H267055   4.496   4.716  11.376  1.2080 -1.3089 -0.2410
15214TIP3   OH267056   5.896   2.434   1.358  0.7800  0.1806 -0.7473
15214TIP3    H167057   5.901   2.338   1.351 -0.8464  0.1689 -3.0606
15214TIP3    H267058   5.833   2.459   1.290  1.9330  2.9916 -0.9001
15215TIP3   OH267059   5.266   1.358   3.034 -0.5618 -0.6474 -0.6065
15215TIP3    H167060   5.174   1.379   3.021 -0.6374 -0.4268  0.2540
15215TIP3    H267061   5.308   1.442   3.051 -0.6476 -1.0101  1.5857
15216TIP3   OH267062   5.975   5.638   5.655 -0.0576  0.4120 -0.3721
15216TIP3    H167063   5.916   5.622   5.729  0.1499 -0.3562 -0.3562
15216TIP3    H267064   5.958   5.728   5.629 -0.6852  0.4440  0.1248
15217TIP3   OH267065   2.847   5.032   5.063  0.1043  0.0528 -0.7737
15217TIP3    H167066   2.906   5.038   5.138  0.9402 -0.3220 -1.3780
15217TIP3    H267067   2.825   5.123   5.042 -0.9230  0.1246  0.5079
15218TIP3   OH267068   2.656   3.920  14.066  0.2294  0.3437 -0.2736
15218TIP3    H167069   2.694   3.879  13.988  2.0377 -0.0014  0.7312
15218TIP3    H267070   2.719   3.901  14.136 -1.2270  0.8282  1.2353
15219TIP3   OH267071   2.505   0.925   4.239 -0.1675  0.3608 -0.0642
15219TIP3    H167072   2.518   0.975   4.158  0.8106 -1.2852 -0.9826
15219TIP3    H267073   2.421   0.881   4.228 -0.2949  0.5677  0.0682
15220TIP3   OH267074   3.917   5.914  15.198  0.6063 -0.0050 -0.0620
15220TIP3    H167075   3.896   5.953  15.113  1.8084  1.8850  0.4544
15220TIP3    H267076   3.845   5.941  15.255  1.6430  1.9458  0.4003
15221TIP3   OH267077   1.692   5.627  11.862 -0.0998 -0.3926 -0.2222
15221TIP3    H167078   1.737   5.685  11.923  3.4762 -1.5249 -1.5383
15221TIP3    H267079   1.677   5.681  11.785 -0.2907 -0.2178 -0.0650
15222TIP3   OH267080   6.434   4.123   4.095  0.6266 -0.2077 -0.2049
15222TIP3    H167081   6.355   4.162   4.058  0.7586 -0.7497 -1.0632
15222TIP3    H267082   6.406   4.037   4.126  0.3342  0.4983  1.6947
15223TIP3   OH267083   3.166   6.666   2.288  0.4474 -0.2075  0.1793
15223TIP3    H167084   3.224   6.612   2.341  0.5603  0.4008  0.6914
15223TIP3    H267085   3.110   6.711   2.352 -0.3220 -0.4788 -0.2864
15224TIP3   OH267086   2.267   0.495   1.523  0.4291 -0.0456  0.2681
15224TIP3    H167087   2.286   0.412   1.481 -1.0017 -0.0170 -0.4830
15224TIP3    H267088   2.175   0.513   1.503  0.6929  1.7064  0.4223
15225TIP3   OH267089   6.537   1.619   4.554  0.1005  0.2065 -0.2553
15225TIP3    H167090   6.572   1.548   4.499 -1.8425 -0.3829 -0.8165
15225TIP3    H267091   6.522   1.578   4.639 -1.8308 -0.3459 -0.8201
15226TIP3   OH267092   2.327   2.142   6.631  0.3154  0.0826  0.2858
15226TIP3    H167093   2.293   2.164   6.544  1.3201 -0.2184 -0.1918
15226TIP3    H267094   2.315   2.047   6.637  0.7941  0.0179  0.2347
15227TIP3   OH267095   5.785   0.638  16.024 -0.4259 -0.4676  0.0610
15227TIP3    H167096   5.701   0.597  16.004 -0.6121 -1.1718  2.0786
15227TIP3    H267097   5.849   0.585  15.976 -0.7755 -2.5265  1.6973
15228TIP3   OH267098   5.618   3.321  15.105 -0.5827 -0.1268 -0.2360
15228TIP3    H167099   5.670   3.386  15.057 -0.7296 -1.0070 -1.6396
15228TIP3    H267100   5.682   3.276  15.162  0.3130 -1.3792 -2.1323
15229TIP3   OH267101   2.493   3.473  11.148  0.1148 -0.1706  0.2274
15229TIP3    H167102   2.527   3.512  11.229  2.0943 -0.1345 -0.5637
15229TIP3    H267103   2.432   3.406  11.178  0.8792 -0.2229  1.7789
15230TIP3   OH267104   4.175   1.262  15.733  0.4768 -0.4014 -0.0916
15230TIP3    H167105   4.085   1.280  15.761  1.0567  0.8743  1.1105
15230TIP3    H267106   4.190   1.322  15.660  1.1593  1.4139  1.4386
15231TIP3   OH267107   6.296   6.089  16.376 -0.6900 -1.1807 -0.0696
15231TIP3    H167108   6.317   6.005  16.335 -0.0597 -0.9499 -0.2287
15231TIP3    H267109   6.373   6.144  16.360 -0.9722 -0.6666  0.2939
15232TIP3   OH267110   3.431   5.735   2.934 -0.3084  0.8485 -0.3619
15232TIP3    H167111   3.376   5.812   2.948 -0.9361  0.2492  0.6215
15232TIP3    H267112   3.457   5.708   3.022  1.5169  1.0540 -0.7967
15233TIP3   OH267113   2.215   0.553  13.566 -0.4713  0.2382  0.6548
15233TIP3    H167114   2.309   0.544  13.550 -0.8775 -0.6481 -1.6955
15233TIP3    H267115   2.193   0.478  13.620  0.3038  0.9797  2.0433
15234TIP3   OH267116   1.004   3.997  11.037  0.8361 -0.0411  0.3540
15234TIP3    H167117   0.943   3.947  10.983  1.0411 -1.8565  1.7177
15234TIP3    H267118   0.956   4.014  11.118  1.4232  0.3440  0.6253
15235TIP3   OH267119   4.826   3.254  11.564 -0.0363  0.6674 -0.2224
15235TIP3    H167120   4.830   3.164  11.530 -0.1268  1.5140 -2.6631
15235TIP3    H267121   4.781   3.245  11.648 -0.6323 -1.4979 -0.6917
15236TIP3   OH267122   3.037   0.689  13.474  0.2590 -0.1602  0.0046
15236TIP3    H167123   3.023   0.595  13.467 -2.6636  0.2234 -0.6134
15236TIP3    H267124   3.075   0.714  13.389  2.2473 -0.8668  0.6236
15237TIP3   OH267125   6.476   6.164   2.937  0.0580  0.1737 -0.7609
15237TIP3    H167126   6.527   6.083   2.927 -0.4028 -0.1712 -0.3762
15237TIP3    H267127   6.539   6.228   2.969  0.5783  0.1463 -1.7118
15238TIP3   OH267128   5.871   3.222  16.446  0.2679  0.4270  0.7554
15238TIP3    H167129   5.814   3.290  16.483 -0.6627  1.6985 -2.6336
15238TIP3    H267130   5.941   3.271  16.402 -0.0842 -0.7398 -1.2374
15239TIP3   OH267131   1.140   1.471  11.258 -0.0442  0.4552  0.0274
15239TIP3    H167132   1.214   1.443  11.205  0.6392 -0.3831  1.3644
15239TIP3    H267133   1.081   1.395  11.258 -1.1555  1.2716 -1.3940
15240TIP3   OH267134   0.812   5.029  14.591 -0.4867  0.2400 -0.2046
15240TIP3    H167135   0.723   5.061  14.582 -1.6456 -2.6063  0.0764
15240TIP3    H267136   0.802   4.937  14.617  2.5250 -0.4714 -1.1690
15241TIP3   OH267137   3.374   6.041  11.532 -0.2962  0.3729 -0.0018
15241TIP3    H167138   3.354   6.101  11.461 -0.8493 -1.1204 -1.1492
15241TIP3    H267139   3.377   5.955  11.491 -0.3467 -0.4993  1.7389
15242TIP3   OH267140   5.017   2.003  16.422  0.5875 -0.4443 -0.6518
15242TIP3    H167141   5.106   2.014  16.389  0.7343  0.3010 -0.0133
15242TIP3    H267142   5.027   1.985  16.515  0.0361  0.4370 -0.4120
15243TIP3   OH267143   4.086   3.574   4.674 -0.0261 -0.0381  0.4132
15243TIP3    H167144   4.077   3.622   4.591 -0.3997  0.4428  0.7222
15243TIP3    H267145   4.085   3.643   4.741 -0.9078 -0.4962  0.8905
15244TIP3   OH267146   3.465   4.300  12.617 -0.3120 -0.0508  0.0281
15244TIP3    H167147   3.519   4.230  12.656 -0.3161  0.1623  0.4204
15244TIP3    H267148   3.518   4.333  12.544 -0.6403 -0.9841 -0.6570
15245TIP3   OH267149   3.985   2.189  13.419 -0.1390 -0.0587  0.4535
15245TIP3    H167150   4.058   2.244  13.448  0.8359 -1.1264  0.0854
15245TIP3    H267151   4.018   2.099  13.424 -0.9809 -0.4856 -0.9410
15246TIP3   OH267152   4.544   5.749  13.276  0.4320 -0.0349 -0.0880
15246TIP3    H167153   4.522   5.682  13.210 -1.0817  0.1680  0.1741
15246TIP3    H267154   4.608   5.806  13.232  0.7024 -0.8593 -0.7876
15247TIP3   OH267155   5.990   6.197   4.881 -0.0120 -0.0872 -0.4766
15247TIP3    H167156   6.075   6.202   4.837 -0.7361  3.8666 -1.8732
15247TIP3    H267157   6.011   6.209   4.974  1.0332  0.1928 -0.7364
15248TIP3   OH267158   6.658   0.790  11.524 -0.3212  0.4700 -0.4051
15248TIP3    H167159   6.667   0.876  11.484  0.8152 -0.4132 -2.2168
15248TIP3    H267160   6.748   0.767  11.551 -0.7436  0.1807  0.8308
15249TIP3   OH267161   6.126   2.691  12.979  0.0845 -0.4326 -0.4844
15249TIP3    H167162   6.169   2.771  13.010  0.7096 -1.6544  2.0938
15249TIP3    H267163   6.187   2.621  13.000 -0.4822 -1.6550 -2.6394
15250TIP3   OH267164   5.003   2.284  15.990  0.3982 -0.2416  0.7522
15250TIP3    H167165   4.990   2.256  16.081 -0.4129 -0.0624  0.6990
15250TIP3    H267166   4.916   2.312  15.961  0.5651 -0.7040 -0.2196
15251TIP3   OH267167   1.990   5.141  13.850  0.1178  0.3285  0.2487
15251TIP3    H167168   1.922   5.116  13.912 -1.8762 -0.7700 -2.1953
15251TIP3    H267169   1.951   5.213  13.800  0.4823 -0.6662 -1.5348
15252TIP3   OH267170   0.144   2.637   0.301 -0.0062  0.0751  0.1468
15252TIP3    H167171   0.230   2.656   0.339  0.3914 -1.1837 -0.0717
15252TIP3    H267172   0.082   2.663   0.369  0.6162 -0.3105  0.8893
15253TIP3   OH267173   4.974   6.515  11.656 -0.1656 -0.0103 -0.2610
15253TIP3    H167174   4.901   6.564  11.693  0.3489  1.2604 -0.8513
15253TIP3    H267175   4.937   6.472  11.579 -0.2991  0.7004 -0.6132
15254TIP3   OH267176   4.322   5.755  14.416  0.0522  0.1614  0.0296
15254TIP3    H167177   4.289   5.673  14.380  1.6873 -0.1832 -0.7997
15254TIP3    H267178   4.273   5.823  14.370 -0.8267 -0.3264  0.2247
15255TIP3   OH267179   0.500   2.571  15.250 -0.0948 -0.2306 -0.2054
15255TIP3    H167180   0.417   2.526  15.236 -0.1558  0.0054 -0.5998
15255TIP3    H267181   0.525   2.603  15.164  0.2736 -0.0712 -0.0402
15256TIP3   OH267182   1.482   3.194   2.682  1.1377 -0.3153 -0.3089
15256TIP3    H167183   1.427   3.245   2.741 -0.0542 -0.0496 -1.5929
15256TIP3    H267184   1.570   3.201   2.719  0.5281  0.2937  1.1036
15257TIP3   OH267185   5.959   1.243   1.652 -0.0803  0.0987  0.2616
15257TIP3    H167186   5.887   1.226   1.591  0.3184  0.4480 -0.3182
15257TIP3    H267187   5.934   1.325   1.696  0.5994  0.9985 -0.9545
15258TIP3   OH267188   1.080   1.834  11.566  0.2052 -0.5632 -0.3344
15258TIP3    H167189   1.093   1.743  11.538  1.4578 -0.1650 -1.1591
15258TIP3    H267190   1.057   1.881  11.486 -0.6403 -0.1764  0.1239
15259TIP3   OH267191   4.118   1.184   1.745 -0.0889  0.2024 -0.6610
15259TIP3    H167192   4.181   1.236   1.694  1.8817 -0.9408  0.4499
15259TIP3    H267193   4.040   1.239   1.750  2.0838  3.5297  1.1008
15260TIP3   OH267194   6.571   5.442   4.927 -0.4642 -0.0930  0.5210
15260TIP3    H167195   6.549   5.392   4.848  0.7919  0.8915 -0.4993
15260TIP3    H267196   6.620   5.517   4.894 -0.6131  0.7690  2.1936
15261TIP3   OH267197   0.310   2.304  14.273 -0.3707 -0.2044 -0.5524
15261TIP3    H167198   0.270   2.245  14.337  0.5909  1.1364  1.3466
15261TIP3    H267199   0.298   2.258  14.189 -3.9725 -0.8426  0.1278
15262TIP3   OH267200   5.699   1.730  15.385  0.0991  0.4401  0.2971
15262TIP3    H167201   5.633   1.751  15.319  0.1605  2.0923  0.7025
15262TIP3    H267202   5.672   1.780  15.462  0.8278 -0.2987  1.0508
15263TIP3   OH267203   3.213   1.183   4.575  0.7055  0.1750 -0.5615
15263TIP3    H167204   3.165   1.113   4.531  1.9099 -3.2161  2.8449
15263TIP3    H267205   3.152   1.217   4.641  1.0872  0.0909 -0.1568
15264TIP3   OH267206   1.566   1.993   2.130  0.1705  0.2077  0.0938
15264TIP3    H167207   1.475   1.966   2.147  0.2140 -0.8850 -1.2150
15264TIP3    H267208   1.616   1.956   2.202 -0.1227 -1.2752 -0.4237
15265TIP3   OH267209   4.247   5.272   6.034 -0.7998  0.8069  0.0782
15265TIP3    H167210   4.206   5.213   6.097 -1.7324 -0.3138 -1.4910
15265TIP3    H267211   4.242   5.358   6.075 -0.2589 -0.0286  2.0370
15266TIP3   OH267212   1.568   2.848  12.093  0.3415  0.4353  0.2493
15266TIP3    H167213   1.546   2.875  12.003  0.5554 -1.9106 -0.5691
15266TIP3    H267214   1.491   2.801  12.123  0.5991  0.4858  1.0008
15267TIP3   OH267215   1.955   4.650  12.590  0.1071  0.1584 -0.2277
15267TIP3    H167216   2.017   4.719  12.614 -0.3085  0.3851  0.2094
15267TIP3    H267217   2.010   4.578  12.558  0.6881 -0.1153  1.2889
15268TIP3   OH267218   0.841   0.529  13.366 -0.5171 -0.4282  0.1080
15268TIP3    H167219   0.774   0.463  13.380 -1.6036  0.7982  0.9582
15268TIP3    H267220   0.827   0.559  13.276 -2.1521  0.8706  0.7413
15269TIP3   OH267221   1.569   5.817  14.780  0.3581 -0.6098  0.0891
15269TIP3    H167222   1.592   5.864  14.860 -0.6712  0.0533  0.0085
15269TIP3    H267223   1.563   5.885  14.713  0.0876 -1.0080 -0.2950
15270TIP3   OH267224   6.287   1.620  11.689 -0.4859  0.1479 -0.0129
15270TIP3    H167225   6.335   1.542  11.716 -1.3233 -0.1472  0.6370
15270TIP3    H267226   6.294   1.620  11.593 -0.8961 -1.0072 -0.0616
15271TIP3   OH267227   4.429   2.644  14.568  0.4795 -0.4589  0.2778
15271TIP3    H167228   4.340   2.612  14.581  0.4562  0.2520  2.1085
15271TIP3    H267229   4.428   2.734  14.601  1.8758 -0.4395  0.3556
15272TIP3   OH267230   3.469   4.130   0.071 -0.2132  0.2616  0.0683
15272TIP3    H167231   3.402   4.173   0.125 -0.4206 -0.9720  0.8252
15272TIP3    H267232   3.440   4.039   0.065  1.4578 -0.3179  0.4720
15273TIP3   OH267233   2.056   5.308  11.396 -0.0249 -0.6431  0.4957
15273TIP3    H167234   2.142   5.268  11.386 -0.4805 -1.2776 -1.0947
15273TIP3    H267235   2.028   5.330  11.307 -0.0202  2.8388  1.1832
15274TIP3   OH267236   2.156   5.101   5.059  0.2219 -0.1600 -0.4522
15274TIP3    H167237   2.084   5.096   4.996 -1.0525  0.0101  0.9443
15274TIP3    H267238   2.138   5.179   5.111 -1.2558 -2.5674  2.9832
15275TIP3   OH267239   1.543   0.060  12.754  0.1293 -0.1736 -0.0699
15275TIP3    H167240   1.596   0.107  12.689 -0.4727 -0.5730 -0.8745
15275TIP3    H267241   1.575   0.091  12.838  3.8834 -2.6879 -0.3283
15276TIP3   OH267242   5.121   4.915   2.706 -0.2002  0.2230 -0.7776
15276TIP3    H167243   5.054   4.976   2.735 -1.0532 -1.1993  0.4263
15276TIP3    H267244   5.202   4.965   2.706 -0.6946  1.0859  1.1679
15277TIP3   OH267245   6.108   3.722  13.805  0.2501  0.3433  0.3503
15277TIP3    H167246   6.072   3.805  13.836  1.9811  1.2688  0.0178
15277TIP3    H267247   6.192   3.714  13.850  1.5579  0.3441 -1.9440
15278TIP3   OH267248   0.456   3.815  15.288  0.1489  0.3651 -0.0833
15278TIP3    H167249   0.456   3.751  15.359 -0.6715  0.1935 -0.2196
15278TIP3    H267250   0.462   3.900  15.333  1.4250  0.2019  0.0854
15279TIP3   OH267251   2.863   2.884   3.700  0.1035 -0.3080  0.3066
15279TIP3    H167252   2.873   2.949   3.770  0.9376 -0.5310  0.4046
15279TIP3    H267253   2.823   2.933   3.628  1.4074  0.5252  0.1174
15280TIP3   OH267254   4.820   0.256   0.619  0.0973  0.1757  0.0103
15280TIP3    H167255   4.881   0.330   0.630  0.0585  0.2128 -0.0278
15280TIP3    H267256   4.842   0.197   0.692 -1.4738  1.3307  1.4960
15281TIP3   OH267257   0.530   6.151  12.646  0.3823 -0.4693  0.1712
15281TIP3    H167258   0.578   6.096  12.584 -0.3140  0.0659 -0.8557
15281TIP3    H267259   0.441   6.117  12.644 -0.8637  2.5006 -2.7769
15282TIP3   OH267260   0.897   4.653   0.196  0.2056 -0.5011 -0.0616
15282TIP3    H167261   0.861   4.691   0.116 -1.3015  0.8269  1.1786
15282TIP3    H267262   0.873   4.561   0.192 -0.5277 -0.2863 -0.7890
15283TIP3   OH267263   3.827   1.146  10.737 -0.0437 -0.2392  0.4415
15283TIP3    H167264   3.764   1.075  10.745 -0.9012  0.5666  1.0526
15283TIP3    H267265   3.776   1.226  10.750  0.7650  0.5461 -0.9514
15284TIP3   OH267266   2.054   2.775  15.890  0.4466  0.0461  0.1765
15284TIP3    H167267   1.972   2.744  15.929  0.0176  0.9378  0.0008
15284TIP3    H267268   2.119   2.761  15.959 -0.5456  2.9247  1.8510
15285TIP3   OH267269   1.034   5.152   5.421  0.5498 -0.3032  0.3710
15285TIP3    H167270   0.974   5.171   5.493  1.0741 -0.7071  0.9301
15285TIP3    H267271   1.121   5.158   5.461  0.8185 -1.4076 -0.0019
15286TIP3   OH267272   5.474   4.992  15.326 -0.0126  0.5386  0.6298
15286TIP3    H167273   5.461   5.050  15.252 -0.8337 -0.2380  0.1364
15286TIP3    H267274   5.465   5.048  15.403  1.8754  1.5579  0.1761
15287TIP3   OH267275   4.374   2.925  12.781  0.1117 -0.1356 -0.0704
15287TIP3    H167276   4.331   2.988  12.838  1.4852 -0.5782  1.5259
15287TIP3    H267277   4.319   2.922  12.702 -1.7165  0.6492  1.1196
15288TIP3   OH267278   3.501   5.827   5.816 -0.0349 -0.0524 -0.7607
15288TIP3    H167279   3.424   5.808   5.762 -0.7022  0.5746 -0.0634
15288TIP3    H267280   3.465   5.846   5.903  0.9735 -0.5181 -0.2238
15289TIP3   OH267281   2.937   1.598  11.083 -0.1848 -0.2851  0.3398
15289TIP3    H167282   2.951   1.635  10.995 -0.9799  0.0691  0.3512
15289TIP3    H267283   2.928   1.504  11.069  2.5393 -0.6298  0.3805
15290TIP3   OH267284   1.391   4.064  14.736  0.1075  0.3227  0.6150
15290TIP3    H167285   1.360   3.973  14.737  1.6041 -0.2183  0.1968
15290TIP3    H267286   1.363   4.098  14.651  1.1989 -0.3805 -0.0529
15291TIP3   OH267287   3.271   0.651  15.671 -0.7234 -0.1017  0.0089
15291TIP3    H167288   3.295   0.559  15.683  2.2585  0.4170 -1.2417
15291TIP3    H267289   3.199   0.649  15.608 -1.8368 -1.5986  1.2459
15292TIP3   OH267290   5.296   5.301  12.318 -0.1125  0.1192  0.1589
15292TIP3    H167291   5.367   5.286  12.381  0.1579 -0.5049 -0.2832
15292TIP3    H267292   5.327   5.260  12.238 -1.7197 -1.7239  0.4188
15293TIP3   OH267293   5.825   6.016  15.907 -0.0254 -0.4846 -0.5964
15293TIP3    H167294   5.784   5.944  15.955 -0.6843  0.1605 -0.1660
15293TIP3    H267295   5.901   6.040  15.960 -1.2416  0.8160  0.6684
15294TIP3   OH267296   1.589   6.754   5.783  0.2155 -0.2785  0.0250
15294TIP3    H167297   1.561   6.679   5.835 -1.6730 -0.0055 -0.5257
15294TIP3    H267298   1.645   6.717   5.716  2.2661 -0.7085  1.8521
15295TIP3   OH267299   5.652   3.474   4.293 -0.5987  0.0657 -0.3041
15295TIP3    H167300   5.708   3.537   4.249 -1.1895  1.1864  0.4775
15295TIP3    H267301   5.565   3.489   4.256 -0.6420 -0.7094 -0.5319
15296TIP3   OH267302   1.266   6.110  14.169 -0.7368 -0.3156 -0.1655
15296TIP3    H167303   1.201   6.058  14.121  0.4470 -1.2275 -0.8134
15296TIP3    H267304   1.297   6.174  14.105 -1.7194  0.8180  0.4467
15297TIP3   OH267305   4.562   5.696  12.273  0.3608  0.3319  0.2946
15297TIP3    H167306   4.645   5.743  12.264 -0.3747  1.3813 -1.5793
15297TIP3    H267307   4.496   5.765  12.276 -0.4580 -0.4827  1.9512
15298TIP3   OH267308   5.477   1.055  17.154 -0.0980  0.4647 -0.0897
15298TIP3    H167309   5.553   1.073  17.099  0.8940 -0.3737  0.9532
15298TIP3    H267310   5.421   0.999  17.100  2.0329 -2.4943  0.5116
15299TIP3   OH267311   5.358   5.272  14.240  0.5612 -0.5041 -0.1155
15299TIP3    H167312   5.267   5.248  14.260  0.1319  0.7532 -0.4235
15299TIP3    H267313   5.410   5.226  14.305 -0.4218 -0.2537  0.8849
15300TIP3   OH267314   2.594   2.112  11.737 -0.2167  0.1028  0.2356
15300TIP3    H167315   2.565   2.021  11.736 -1.5866  0.4887 -1.8969
15300TIP3    H267316   2.686   2.108  11.763  0.5835 -2.2064 -2.4166
15301TIP3   OH267317   6.243   3.544  16.919  0.3478  0.2799  0.6963
15301TIP3    H167318   6.173   3.506  16.866  1.5422 -0.2817 -0.5173
15301TIP3    H267319   6.291   3.601  16.860  2.2728 -1.0697  0.8647
15302TIP3   OH267320   5.473   1.531   2.809  0.2694  0.5054  0.1016
15302TIP3    H167321   5.515   1.594   2.868  0.7248  0.4010 -0.1019
15302TIP3    H267322   5.534   1.457   2.805  0.7286  0.9143 -1.2366
15303TIP3   OH267323   4.651   2.139  14.079  0.0433  0.3921 -0.0708
15303TIP3    H167324   4.724   2.081  14.058  0.6025  1.6783 -2.0003
15303TIP3    H267325   4.694   2.222  14.104 -0.7520  0.7185  0.2420
15304TIP3   OH267326   2.615   2.570   2.054 -0.3757 -0.4416  0.7096
15304TIP3    H167327   2.615   2.655   2.010 -1.4646 -1.4992 -1.5220
15304TIP3    H267328   2.556   2.581   2.128 -0.1962  0.8338  0.6923
15305TIP3   OH267329   4.156   4.534   5.536 -0.0773 -0.6184 -0.0110
15305TIP3    H167330   4.075   4.487   5.552  0.8286 -1.8851  1.0396
15305TIP3    H267331   4.171   4.524   5.442 -1.7494  0.7238 -0.4694
15306TIP3   OH267332   0.662   1.090  16.106 -0.7727 -0.1254  0.3359
15306TIP3    H167333   0.723   1.049  16.167 -1.3760 -1.3585  0.1503
15306TIP3    H267334   0.688   1.182  16.104  1.5231 -0.7114 -0.2510
15307TIP3   OH267335   6.297   2.335   5.801  0.1354 -0.3398  0.0366
15307TIP3    H167336   6.288   2.288   5.883 -1.2496  0.3844  0.3267
15307TIP3    H267337   6.295   2.267   5.734  0.4787 -0.8689  0.5551
15308TIP3   OH267338   4.899   4.351   2.377  0.4170  0.9116 -0.0315
15308TIP3    H167339   4.855   4.273   2.410 -0.8457  0.9975 -1.4044
15308TIP3    H267340   4.932   4.395   2.455  2.3094 -1.6016  0.7340
15309TIP3   OH267341   2.974   0.356   5.446 -0.0792  0.2261 -0.5361
15309TIP3    H167342   2.970   0.402   5.530  0.0017 -0.7891  0.0431
15309TIP3    H267343   2.932   0.271   5.463  1.0362 -0.4828 -1.1810
15310TIP3   OH267344   0.820   6.020  14.284  0.0628 -0.3400 -0.1152
15310TIP3    H167345   0.771   6.011  14.203  0.9197 -2.4213 -0.4861
15310TIP3    H267346   0.754   6.015  14.353 -0.6423  1.1650 -0.6357
15311TIP3   OH267347   0.341   6.258  14.819 -0.6824 -0.4375  0.3381
15311TIP3    H167348   0.286   6.331  14.844  1.5295  1.0906  1.0181
15311TIP3    H267349   0.356   6.209  14.900  0.3261  0.1435  0.5129
15312TIP3   OH267350   1.554   2.700  17.193 -0.4680  0.0034 -0.1581
15312TIP3    H167351   1.612   2.684  17.119 -1.5633 -0.8061 -0.8619
15312TIP3    H267352   1.555   2.796  17.203  2.3438 -0.0638  1.0018
15313TIP3   OH267353   1.526   4.114   0.854  0.1901  0.3245 -0.2475
15313TIP3    H167354   1.529   4.205   0.883  2.5304 -0.1982  1.4480
15313TIP3    H267355   1.615   4.095   0.826 -0.3826 -1.3211 -1.1021
15314TIP3   OH267356   1.078   5.113  14.620  0.0148  0.3800  0.6071
15314TIP3    H167357   1.139   5.041  14.603 -0.2302  0.5864 -1.3514
15314TIP3    H267358   0.993   5.069  14.630 -0.2113  0.3749 -1.0271
15315TIP3   OH267359   1.966   6.686   4.422  0.0725 -0.1800  0.3108
15315TIP3    H167360   1.949   6.601   4.463 -1.7762  0.2566  0.5472
15315TIP3    H267361   1.980   6.746   4.495  0.8054 -0.1634  0.1608
15316TIP3   OH267362   4.420   3.474  11.884  0.6899  0.1719  0.0300
15316TIP3    H167363   4.350   3.536  11.863 -1.1145 -1.7631 -0.0699
15316TIP3    H267364   4.494   3.529  11.909 -1.2888  2.3466  1.5728
15317TIP3   OH267365   4.731   5.283  12.453 -0.1567 -0.3330 -0.6197
15317TIP3    H167366   4.687   5.218  12.398  0.1797  0.1168 -1.4402
15317TIP3    H267367   4.801   5.318  12.397 -0.7562  1.2298 -0.4460
15318TIP3   OH267368   1.508   3.843   4.613  0.3398  0.3280 -0.2178
15318TIP3    H167369   1.554   3.876   4.537  3.8472 -2.4221  0.4652
15318TIP3    H267370   1.546   3.889   4.687 -0.0114 -0.0105  0.1846
15319TIP3   OH267371   5.446   6.674  16.285 -0.0171  0.5315 -0.1634
15319TIP3    H167372   5.417   6.584  16.272 -4.1230  1.7083 -0.5475
15319TIP3    H267373   5.501   6.693  16.209 -1.8465 -0.7109 -1.8886
15320TIP3   OH267374   0.979   0.520  15.966  0.5510  0.0454 -0.4943
15320TIP3    H167375   0.900   0.466  15.956  0.7729 -0.1905 -1.0270
15320TIP3    H267376   1.051   0.457  15.963  0.7107  0.0579  1.6349
15321TIP3   OH267377   6.244   3.696   0.855 -0.2905  0.1085 -0.7555
15321TIP3    H167378   6.184   3.766   0.831 -1.0969 -0.2413  0.1181
15321TIP3    H267379   6.193   3.642   0.916  1.0863  0.0789  0.4157
15322TIP3   OH267380   6.171   0.087   6.311 -0.1497  0.1414 -0.2803
15322TIP3    H167381   6.104   0.130   6.364  1.0749 -0.5563  1.9788
15322TIP3    H267382   6.246   0.148   6.313  1.1921 -1.4289  1.9906
15323TIP3   OH267383   6.309   5.322  13.129  0.0104 -0.0161 -0.1764
15323TIP3    H167384   6.248   5.376  13.078 -0.6148 -0.6814 -0.1565
15323TIP3    H267385   6.305   5.358  13.217  1.5155  1.4936 -0.6864
15324TIP3   OH267386   1.316   5.107  17.292  0.2162 -0.3087  0.2467
15324TIP3    H167387   1.336   5.064  17.375  0.9205  0.4909  0.5064
15324TIP3    H267388   1.393   5.161  17.274 -0.6687  0.9109 -0.0168
15325TIP3   OH267389   0.952   3.490  13.874 -0.0871  0.0702 -0.0349
15325TIP3    H167390   1.016   3.544  13.920 -0.8548  1.0690 -0.0971
15325TIP3    H267391   0.951   3.524  13.784 -0.8858  0.2571  0.0335
15326TIP3   OH267392   1.535   6.384  11.877 -0.7346 -0.7282 -0.0434
15326TIP3    H167393   1.620   6.382  11.832 -0.6345 -0.2570  0.1295
15326TIP3    H267394   1.547   6.328  11.954 -0.6148 -0.7443 -0.0742
15327TIP3   OH267395   0.877   6.069  15.484  0.3356 -0.1955 -0.8032
15327TIP3    H167396   0.844   6.120  15.410  0.9457 -0.0779 -1.0013
15327TIP3    H267397   0.820   6.093  15.557  2.2509  2.9607 -0.1558
15328TIP3   OH267398   4.570   1.528  14.410  0.2207  0.9269  0.5784
15328TIP3    H167399   4.493   1.542  14.466 -0.4619 -0.7806  0.1258
15328TIP3    H267400   4.635   1.489  14.468  1.0263  2.9515  1.1142
15329TIP3   OH267401   0.873   2.379  12.846 -0.5466 -0.1621 -0.2547
15329TIP3    H167402   0.926   2.300  12.835 -0.7008 -0.4071  0.7152
15329TIP3    H267403   0.793   2.349  12.889 -2.3948 -0.1302 -3.3504
15330TIP3   OH267404   2.523   6.281  15.459  0.4686  0.2288 -0.0250
15330TIP3    H167405   2.545   6.188  15.453  1.1973  0.3810  0.1248
15330TIP3    H267406   2.514   6.309  15.368 -0.8844 -0.2275 -0.0555
15331TIP3   OH267407   0.199   3.193   0.422  0.5108  0.7883  0.2344
15331TIP3    H167408   0.248   3.270   0.391 -0.5758  1.6382  0.5756
15331TIP3    H267409   0.191   3.138   0.344 -1.3146  2.4384 -0.8339
15332TIP3   OH267410   3.421   5.890  13.428 -0.0326  0.3990 -0.1853
15332TIP3    H167411   3.387   5.907  13.516 -0.4455  2.1915 -0.6442
15332TIP3    H267412   3.348   5.853  13.381  0.2003 -0.6045  0.2159
15333TIP3   OH267413   0.890   3.842   6.085  0.3388 -0.2447  0.3421
15333TIP3    H167414   0.806   3.829   6.128 -0.2606 -1.8557 -1.1879
15333TIP3    H267415   0.869   3.841   5.992  1.6734  2.4649 -0.0795
15334TIP3   OH267416   5.282   5.496   2.832 -0.0390  0.0855 -0.5786
15334TIP3    H167417   5.227   5.418   2.836 -1.3304  0.9136 -1.4583
15334TIP3    H267418   5.243   5.557   2.894  0.3770  0.3908 -0.6098
15335TIP3   OH267419   1.122   2.837  16.136  0.1240  0.1368  0.2225
15335TIP3    H167420   1.122   2.927  16.166  3.5010 -0.1724  1.4990
15335TIP3    H267421   1.151   2.786  16.211  2.2719 -1.4849 -1.5500
15336TIP3   OH267422   1.722   3.169   0.740 -0.2914  0.2464 -0.1132
15336TIP3    H167423   1.760   3.108   0.677 -1.4853  0.8845 -1.5165
15336TIP3    H267424   1.796   3.204   0.788  0.6687 -0.1971 -1.2325
15337TIP3   OH267425   3.852   1.577  13.870 -0.0316 -0.7653 -0.5584
15337TIP3    H167426   3.860   1.618  13.955 -3.4236 -0.2736 -0.3590
15337TIP3    H267427   3.868   1.647  13.807  0.7608 -0.7382 -0.3385
15338TIP3   OH267428   0.739   6.141   4.891 -0.0936 -0.0535  0.5503
15338TIP3    H167429   0.720   6.158   4.983  0.9897  0.8374  0.6258
15338TIP3    H267430   0.834   6.140   4.885 -0.1352  0.6579 -0.6802
15339TIP3   OH267431   3.791   3.723  13.394  0.0235  0.1819 -0.1543
15339TIP3    H167432   3.833   3.643  13.360  0.4752 -0.0564  0.9227
15339TIP3    H267433   3.719   3.691  13.447 -0.8757  0.5653 -1.1177
15340TIP3   OH267434   0.685   4.769  12.292  0.0017 -0.3077  0.3628
15340TIP3    H167435   0.645   4.707  12.353  0.5095 -0.4106  0.5924
15340TIP3    H267436   0.696   4.719  12.211  2.5398 -1.2554  1.2153
15341TIP3   OH267437   4.570   2.054   1.398 -0.1919 -0.4981  0.5424
15341TIP3    H167438   4.488   2.007   1.409 -0.9985  0.6208 -0.4532
15341TIP3    H267439   4.631   1.989   1.364  0.0434 -1.9331  3.3819
15342TIP3   OH267440   1.560   1.949   3.986  0.2814 -0.3263  0.1227
15342TIP3    H167441   1.533   1.866   3.945  0.1180 -0.2063 -0.0104
15342TIP3    H267442   1.614   1.992   3.919  0.4328 -0.3612  0.2217
15343TIP3   OH267443   2.051   2.034   2.174  0.2531  0.1571 -0.2082
15343TIP3    H167444   2.100   1.955   2.152 -0.1956 -0.2835  0.3546
15343TIP3    H267445   1.972   2.029   2.120 -0.4425 -0.4941  0.8519
15344TIP3   OH267446   3.611   4.354   6.145  0.1992 -0.1714 -0.0275
15344TIP3    H167447   3.540   4.340   6.208  1.0911  0.2173  1.0879
15344TIP3    H267448   3.567   4.353   6.060 -1.0417 -0.6583  0.5866
15345TIP3   OH267449   5.241   3.267   3.084  0.0808 -0.3774  0.6800
15345TIP3    H167450   5.195   3.250   3.002 -0.0150  0.8963  0.4416
15345TIP3    H267451   5.333   3.270   3.061  0.0452  0.0985  0.5826
15346TIP3   OH267452   6.229   2.204   6.030 -0.1521 -0.5203 -1.1402
15346TIP3    H167453   6.135   2.186   6.039 -0.1240 -0.0947  0.1933
15346TIP3    H267454   6.271   2.138   6.084  0.0813  1.6035  1.5100
15347TIP3   OH267455   5.482   1.954   2.051 -0.3246 -0.3576 -0.3977
15347TIP3    H167456   5.511   1.964   1.960 -0.5963  0.5535 -0.3985
15347TIP3    H267457   5.502   2.039   2.092 -0.4104 -0.6795  0.3355
15348TIP3   OH267458   2.798   6.523   0.842 -0.2271  0.0101 -0.2362
15348TIP3    H167459   2.723   6.547   0.897 -0.9311 -0.7046 -0.8582
15348TIP3    H267460   2.759   6.486   0.763  0.7855 -0.0885 -0.7061
15349TIP3   OH267461   4.911   4.895  12.868  0.5006 -0.0393  0.2467
15349TIP3    H167462   4.829   4.847  12.853 -0.2037  1.0865  0.4055
15349TIP3    H267463   4.930   4.937  12.783  2.5316 -2.6293 -0.7140
15350TIP3   OH267464   3.177   2.685   4.507  0.4452  0.1602 -0.2744
15350TIP3    H167465   3.264   2.652   4.529  0.4261 -1.0585 -1.8364
15350TIP3    H267466   3.190   2.734   4.425 -0.1741  0.8692  0.0388
15351TIP3   OH267467   2.186   3.349  11.357  0.1344  0.5453  0.0262
15351TIP3    H167468   2.194   3.266  11.405  1.4697  0.9411  0.5118
15351TIP3    H267469   2.242   3.338  11.281 -0.0223  0.8492 -0.1355
15352TIP3   OH267470   2.902   3.223   4.464 -0.4316  0.0757  0.1902
15352TIP3    H167471   2.886   3.274   4.544  0.3312  0.7631 -0.0748
15352TIP3    H267472   2.954   3.148   4.494 -0.1086  0.3564  0.3373
15353TIP3   OH267473   2.123   2.168  16.678 -0.2599  0.2023 -0.5283
15353TIP3    H167474   2.150   2.243  16.625 -2.7434 -0.0842 -2.4280
15353TIP3    H267475   2.164   2.092  16.636  1.7588  0.3533  1.0314
15354TIP3   OH267476   3.883   6.225  15.243  0.3084 -0.5602  0.5482
15354TIP3    H167477   3.942   6.174  15.188  1.3056  0.5292  0.5801
15354TIP3    H267478   3.941   6.270  15.305 -0.6839 -0.6902  1.6101
15355TIP3   OH267479   4.806   4.177  11.513  0.9106  0.2520 -0.0562
15355TIP3    H167480   4.730   4.156  11.568  1.6913  1.0756  1.4182
15355TIP3    H267481   4.862   4.099  11.520  1.6731  0.8941  1.5804
15356TIP3   OH267482   4.350   2.005  12.091 -0.1051 -0.6482  0.0932
15356TIP3    H167483   4.318   2.079  12.143  0.0476 -1.5721  1.5336
15356TIP3    H267484   4.346   2.037  12.000  0.4774  1.3148  0.7075
15357TIP3   OH267485   5.677   1.128  11.425 -0.5471  0.5709 -0.4179
15357TIP3    H167486   5.667   1.175  11.508 -1.2712  0.3559 -0.3813
15357TIP3    H267487   5.590   1.094  11.405 -0.5571  1.2521 -1.6488
15358TIP3   OH267488   3.713   3.593   5.415 -0.0324  0.3836  0.2852
15358TIP3    H167489   3.642   3.641   5.372  0.8226  0.5779 -0.9878
15358TIP3    H267490   3.767   3.560   5.342 -0.1664 -1.8806  1.1505
15359TIP3   OH267491   3.415   1.037   4.740 -0.1438 -0.3029  0.3127
15359TIP3    H167492   3.381   1.097   4.674  0.3242 -0.7195 -0.3071
15359TIP3    H267493   3.367   1.061   4.820 -0.7491  0.1647 -0.1787
15360TIP3   OH267494   2.301   4.258  12.780 -0.3044 -0.1360  0.3679
15360TIP3    H167495   2.318   4.330  12.719 -0.4687  0.5506  1.1223
15360TIP3    H267496   2.346   4.183  12.741  1.8841  0.9176  0.7551
15361TIP3   OH267497   1.460   6.696   0.953 -0.4942  0.3521 -0.4716
15361TIP3    H167498   1.410   6.690   1.035 -0.5417  0.5328 -0.4853
15361TIP3    H267499   1.426   6.625   0.899  1.5172 -1.6099  0.7033
15362TIP3   OH267500   5.690   1.586   5.528  0.1267 -0.1778 -0.1235
15362TIP3    H167501   5.616   1.637   5.560 -1.4590 -3.7232  2.5660
15362TIP3    H267502   5.765   1.616   5.580  0.0525  1.5968 -0.9837
15363TIP3   OH267503   0.747   5.787   2.547 -0.0957  0.4805 -0.2843
15363TIP3    H167504   0.831   5.745   2.531  0.8323  1.2530  2.1799
15363TIP3    H267505   0.693   5.719   2.588  0.3432  0.7512  0.7864
15364TIP3   OH267506   3.518   2.018   4.286 -0.0307  0.0240  0.1487
15364TIP3    H167507   3.565   2.101   4.279 -1.4490  0.7710 -1.2886
15364TIP3    H267508   3.477   2.007   4.200 -1.2239 -1.3251  0.8562
15365TIP3   OH267509   5.639   5.906   2.104  0.4047  0.2036 -0.0483
15365TIP3    H167510   5.639   5.910   2.008  0.5916  1.8918 -0.0088
15365TIP3    H267511   5.692   5.981   2.131  0.9318 -0.6483  1.3800
15366TIP3   OH267512   3.951   0.782   1.496  0.0253  0.3270  0.0814
15366TIP3    H167513   3.911   0.712   1.548  2.1490 -0.1591  1.1859
15366TIP3    H267514   3.916   0.863   1.533 -1.1749 -0.0951 -0.1026
15367TIP3   OH267515   6.333   5.344   0.910 -0.0158  0.1304 -0.2370
15367TIP3    H167516   6.274   5.418   0.929 -0.0763  0.1501 -0.4924
15367TIP3    H267517   6.308   5.316   0.822  1.9548  1.6860 -1.3868
15368TIP3   OH267518   4.507   6.594  14.605 -0.2574 -0.2500 -0.2162
15368TIP3    H167519   4.563   6.667  14.579  0.1184 -0.4579 -0.0008
15368TIP3    H267520   4.505   6.536  14.529 -0.5231 -0.0392 -0.3721
15369TIP3   OH267521   5.741   4.498  16.102 -0.2508  0.3400 -0.4665
15369TIP3    H167522   5.713   4.407  16.092 -1.0243  0.4378  0.6607
15369TIP3    H267523   5.834   4.491  16.125 -1.0048 -0.4068  2.9648
15370TIP3   OH267524   3.855   0.232  15.462 -0.0157  0.1825  0.2891
15370TIP3    H167525   3.825   0.193  15.544 -0.5834 -0.0716 -0.0387
15370TIP3    H267526   3.829   0.324  15.468  3.4129  1.2035  2.1200
15371TIP3   OH267527   3.616   2.318  12.094 -0.1194  0.2569  0.3320
15371TIP3    H167528   3.650   2.402  12.063  0.5369 -0.1442 -0.0663
15371TIP3    H267529   3.560   2.341  12.168 -1.4281  1.2083 -0.8912
15372TIP3   OH267530   4.987   1.833  10.992 -0.1300 -0.2864  0.3488
15372TIP3    H167531   4.897   1.800  10.988 -0.2046 -0.1709  1.0258
15372TIP3    H267532   4.998   1.882  10.910 -0.3822 -1.0511 -0.1575
15373TIP3   OH267533   3.527   4.891  11.763 -0.1104  0.0823 -0.0556
15373TIP3    H167534   3.563   4.871  11.677  0.0912 -0.6364  0.1900
15373TIP3    H267535   3.604   4.898  11.820 -0.2874 -0.3441  0.2418
15374TIP3   OH267536   2.667   5.853   3.602  0.3762  0.4170  0.2414
15374TIP3    H167537   2.660   5.867   3.507 -0.2928  0.2114  0.2562
15374TIP3    H267538   2.582   5.881   3.636  0.8208  1.0578  0.8579
15375TIP3   OH267539   0.755   1.905   4.909 -0.0045 -0.0939 -0.8551
15375TIP3    H167540   0.839   1.861   4.902  0.0327  0.1935 -2.6526
15375TIP3    H267541   0.763   1.962   4.985  1.0846 -0.7510 -0.4624
15376TIP3   OH267542   6.009   4.270  14.512 -0.3182  0.4887 -0.1111
15376TIP3    H167543   6.019   4.285  14.606  1.5259  2.4004 -0.5428
15376TIP3    H267544   6.067   4.196  14.493  0.8108  1.3297 -0.0197
15377TIP3   OH267545   3.823   0.510  15.830 -0.4575  0.6971  0.7280
15377TIP3    H167546   3.882   0.444  15.867 -0.0332  0.7505  0.1641
15377TIP3    H267547   3.870   0.593  15.842 -0.4477  0.7485  0.3434
15378TIP3   OH267548   0.093   6.334   5.389  0.6039 -0.2092 -0.4730
15378TIP3    H167549   0.188   6.340   5.382  0.7816 -2.2233 -0.6167
15378TIP3    H267550   0.076   6.240   5.398 -1.4210  0.0166 -1.3065
15379TIP3   OH267551   1.009   4.892   5.281  0.0550  0.5751 -0.2804
15379TIP3    H167552   0.916   4.880   5.301 -0.3152  0.8717 -1.7189
15379TIP3    H267553   1.028   4.981   5.313 -0.0886  0.4202  0.2427
15380TIP3   OH267554   1.999   6.206  17.039  0.2326  0.2901  0.3003
15380TIP3    H167555   1.929   6.238  17.096 -1.1135  0.3776 -1.3274
15380TIP3    H267556   2.020   6.281  16.983 -0.1913 -0.4688 -0.9152
15381TIP3   OH267557   4.192   6.544   0.060 -0.1787  0.0614 -0.1178
15381TIP3    H167558   4.287   6.532   0.061  0.6973  4.8104 -1.0942
15381TIP3    H267559   4.175   6.605   0.131 -2.2176  0.6381 -1.0210
15382TIP3   OH267560   1.041   2.472  15.168  0.2759  0.3456 -0.0768
15382TIP3    H167561   1.035   2.380  15.144  0.6672  0.1108  0.6942
15382TIP3    H267562   0.958   2.509  15.139 -0.6492 -0.6406  1.1873
15383TIP3   OH267563   0.168   5.562   5.020  0.2702 -0.4896 -0.4516
15383TIP3    H167564   0.218   5.642   5.037 -1.1779  0.4365 -0.4465
15383TIP3    H267565   0.149   5.527   5.107  0.1592 -0.3676 -0.4264
15384TIP3   OH267566   1.576   2.560   5.717 -0.2592 -0.5546  0.5462
15384TIP3    H167567   1.619   2.492   5.666 -0.1515 -0.6946  0.8196
15384TIP3    H267568   1.635   2.574   5.792 -0.5952 -0.6132  0.8245
15385TIP3   OH267569   5.889   1.765  11.785 -0.0063  0.2755 -0.8653
15385TIP3    H167570   5.830   1.702  11.827 -0.7064 -0.1600 -2.4092
15385TIP3    H267571   5.849   1.782  11.700  0.9232  1.7501 -1.0445
15386TIP3   OH267572   3.088   6.649   2.576  0.1706 -0.7145  0.5906
15386TIP3    H167573   3.026   6.582   2.549  1.3841 -1.5178 -0.2898
15386TIP3    H267574   3.171   6.603   2.586  0.9541  0.5863  0.3339
15387TIP3   OH267575   6.741   3.528   1.400 -0.6194  0.1653  0.1060
15387TIP3    H167576   6.829   3.510   1.365 -0.1618  1.6934  0.3715
15387TIP3    H267577   6.731   3.466   1.472 -0.4727 -1.1908 -1.0039
15388TIP3   OH267578   5.632   4.944  12.342 -0.4447  0.5364 -0.1997
15388TIP3    H167579   5.617   5.038  12.334 -1.1704  0.4056 -0.4544
15388TIP3    H267580   5.698   4.936  12.411 -0.1716  1.2410 -0.3673
15389TIP3   OH267581   4.065   1.838  12.117 -0.1008 -0.0327  0.0442
15389TIP3    H167582   4.046   1.745  12.103  1.7594 -0.7470  1.6805
15389TIP3    H267583   3.993   1.869  12.172 -0.1466 -0.8261  0.4530
15390TIP3   OH267584   3.888   2.837   2.357 -0.4808  0.4889  0.1803
15390TIP3    H167585   3.982   2.851   2.370 -0.1337 -0.6906 -0.8749
15390TIP3    H267586   3.878   2.822   2.263 -1.5422 -0.6848  0.4467
15391TIP3   OH267587   1.267   3.043   6.374 -0.1897 -0.6604  0.4842
15391TIP3    H167588   1.322   3.112   6.410 -0.4559  0.1032 -0.5603
15391TIP3    H267589   1.183   3.085   6.358  0.0878 -0.8155 -1.5733
15392TIP3   OH267590   0.714   1.303   0.145  0.6432 -0.0602 -0.1850
15392TIP3    H167591   0.632   1.311   0.096  1.1055  1.5511 -0.7287
15392TIP3    H267592   0.782   1.294   0.078  0.8859 -2.2890  0.2686
15393TIP3   OH267593   5.098   0.655  15.801 -0.2374 -0.7000 -0.0279
15393TIP3    H167594   5.025   0.611  15.757  0.1761 -1.4736  0.0405
15393TIP3    H267595   5.160   0.674  15.731 -0.6996  0.3985 -0.1638
15394TIP3   OH267596   5.654   6.386   5.816 -0.1569 -0.9146  0.0890
15394TIP3    H167597   5.565   6.400   5.785 -1.4651 -3.4499  2.2770
15394TIP3    H267598   5.654   6.297   5.851  3.1333 -0.8521  0.6313
15395TIP3   OH267599   0.598   2.176  14.382  0.2014 -0.1354 -0.5949
15395TIP3    H167600   0.515   2.180  14.430  0.3576 -0.6483 -0.2840
15395TIP3    H267601   0.590   2.098  14.327  1.4597 -1.6504  1.2649
15396TIP3   OH267602   3.903   3.952  13.538  0.4513 -0.3897  0.0426
15396TIP3    H167603   3.844   3.989  13.603 -1.8386  0.3928 -2.3404
15396TIP3    H267604   3.852   3.885  13.493  1.5155 -0.0411 -1.7885
15397TIP3   OH267605   2.644   2.276  14.610 -0.4215  0.1241  0.9264
15397TIP3    H167606   2.727   2.227  14.613 -0.4641  0.0778  1.4664
15397TIP3    H267607   2.607   2.265  14.698 -2.0263 -1.6359  0.1121
15398TIP3   OH267608   3.808   4.093  13.737 -0.3305 -0.2806  0.0602
15398TIP3    H167609   3.723   4.121  13.769 -1.1700 -2.0055 -0.5200
15398TIP3    H267610   3.842   4.035  13.806 -0.8262 -1.6648 -0.8243
15399TIP3   OH267611   2.054   4.143  11.480  0.9900  0.1322 -0.9691
15399TIP3    H167612   2.081   4.222  11.526 -0.9148  0.3870 -0.2042
15399TIP3    H267613   2.044   4.170  11.389 -2.2383  1.5900 -0.3282
15400TIP3   OH267614   2.941   3.363  15.338  0.1606  0.5597  1.2470
15400TIP3    H167615   3.036   3.359  15.348  0.2251  0.9285  0.8268
15400TIP3    H267616   2.918   3.279  15.297  0.4820  1.0213  0.0790
15401TIP3   OH267617   6.406   4.620  13.223 -0.3491 -0.2583  0.4926
15401TIP3    H167618   6.496   4.588  13.216 -0.3705 -0.3121  0.4640
15401TIP3    H267619   6.415   4.714  13.232 -0.2850 -0.2734  0.5873
15402TIP3   OH267620   1.407   5.275   5.738 -0.0851  0.8366  0.8193
15402TIP3    H167621   1.461   5.353   5.731  1.4337 -0.1724  0.8032
15402TIP3    H267622   1.459   5.214   5.790 -0.6362 -0.6606 -0.2950
15403TIP3   OH267623   1.862   6.106  14.972  0.1811 -0.0896  0.1151
15403TIP3    H167624   1.878   6.110  15.066  0.4107 -0.3841  0.0903
15403TIP3    H267625   1.770   6.084  14.963  0.2584 -0.4797  0.2730
15404TIP3   OH267626   4.237   2.624   2.896 -0.1958 -0.2275 -0.0170
15404TIP3    H167627   4.152   2.638   2.937 -0.5408 -0.4201 -0.6384
15404TIP3    H267628   4.228   2.663   2.809  0.4099 -0.1046 -0.0304
15405TIP3   OH267629   2.317   5.053  16.248  0.4715  0.0752 -0.1548
15405TIP3    H167630   2.339   4.991  16.318  0.7170 -0.8767 -1.0492
15405TIP3    H267631   2.222   5.043  16.237  0.3171  0.7304  0.4919
15406TIP3   OH267632   6.392   0.563  13.753  0.5767  0.0466  0.3575
15406TIP3    H167633   6.473   0.515  13.769  0.6386  0.6608  2.1496
15406TIP3    H267634   6.328   0.523  13.811  0.0935  0.7744  0.3454
15407TIP3   OH267635   3.750   4.403   3.789  0.7053  0.4251  0.0899
15407TIP3    H167636   3.655   4.399   3.794  0.5554  0.3486 -1.9436
15407TIP3    H267637   3.777   4.441   3.873 -1.0244 -0.4648  1.1125
15408TIP3   OH267638   0.212   5.390  11.857 -0.6768 -0.0770  0.4266
15408TIP3    H167639   0.288   5.427  11.903 -0.4466  1.5478 -1.1625
15408TIP3    H267640   0.171   5.333  11.922  0.8968  0.3813  1.9070
15409TIP3   OH267641   5.148   0.171  12.266  0.2511  0.9390  0.1583
15409TIP3    H167642   5.213   0.216  12.211  2.3389 -0.3280  1.4739
15409TIP3    H267643   5.149   0.081  12.235  1.9448  0.0365  2.5404
15410TIP3   OH267644   3.670   2.983   1.926 -0.1048  0.0627  0.4788
15410TIP3    H167645   3.590   2.939   1.955 -0.0389  0.6418  1.5950
15410TIP3    H267646   3.738   2.951   1.984  0.3442  0.1135 -0.0089
15411TIP3   OH267647   1.529   2.900   1.870 -0.6633 -0.6197  0.0887
15411TIP3    H167648   1.525   2.811   1.835 -1.4486 -0.7940  0.5857
15411TIP3    H267649   1.582   2.892   1.950  0.2379 -0.4147 -0.4676
15412TIP3   OH267650   0.392   4.693  13.978  0.3600  0.1625 -0.1225
15412TIP3    H167651   0.461   4.665  13.917  0.1141 -1.4958  0.3127
15412TIP3    H267652   0.316   4.708  13.922  1.0591  2.0596 -0.6139
15413TIP3   OH267653   3.076   5.857  12.614 -0.5848 -0.3824 -0.1635
15413TIP3    H167654   3.136   5.899  12.552 -0.3191  0.1192  0.4276
15413TIP3    H267655   3.109   5.767  12.622  1.2555  0.3733  1.5625
15414TIP3   OH267656   0.155   2.095  15.973  0.3536  0.1488 -0.1523
15414TIP3    H167657   0.109   2.151  16.034 -1.0442  1.4587 -2.2736
15414TIP3    H267658   0.086   2.046  15.928  1.4822 -3.5430  1.6676
15415TIP3   OH267659   0.801   1.088   5.894 -0.6230 -0.0519 -0.1055
15415TIP3    H167660   0.758   1.014   5.937 -1.4891  0.8168  0.5584
15415TIP3    H267661   0.742   1.162   5.909 -2.0307 -0.0102 -4.3627
15416TIP3   OH267662   6.657   1.482   5.453 -0.5117 -0.1364 -0.3541
15416TIP3    H167663   6.585   1.420   5.452 -2.0330  1.5424 -0.7829
15416TIP3    H267664   6.619   1.563   5.487  1.7003  0.2628  1.4137
15417TIP3   OH267665   2.544   0.096   3.887 -0.4581 -0.1959  0.3238
15417TIP3    H167666   2.587   0.112   3.971 -1.0095  0.6990  0.4589
15417TIP3    H267667   2.568   0.172   3.833 -0.7308 -0.3805 -0.0653
15418TIP3   OH267668   2.905   5.545   6.346 -0.1649  0.6468 -0.2593
15418TIP3    H167669   2.822   5.572   6.386 -0.4500 -1.4637  0.7201
15418TIP3    H267670   2.881   5.512   6.260 -0.5127 -0.6666  0.3074
15419TIP3   OH267671   4.362   1.980   3.022  0.2537 -0.5688 -0.1395
15419TIP3    H167672   4.345   1.890   3.049 -0.0443 -0.5038 -0.1051
15419TIP3    H267673   4.295   1.999   2.957  0.5809 -0.5139 -0.4606
15420TIP3   OH267674   0.833   5.702   2.808 -0.0791 -0.1094  0.0895
15420TIP3    H167675   0.863   5.752   2.884  0.3841 -0.3142  0.0455
15420TIP3    H267676   0.897   5.722   2.740 -0.5173  0.1090 -0.2635
15421TIP3   OH267677   5.912   6.593   2.573  0.5653  0.0187  0.5075
15421TIP3    H167678   5.898   6.684   2.547 -0.0304 -0.1945  0.0416
15421TIP3    H267679   5.999   6.592   2.611  1.4199  0.3921 -1.3301
15422TIP3   OH267680   2.503   1.328  13.771  0.0943 -0.4179 -0.5674
15422TIP3    H167681   2.419   1.352  13.810 -0.2172 -0.7822 -1.0145
15422TIP3    H267682   2.483   1.308  13.680  0.4828 -1.5856 -0.4143
15423TIP3   OH267683   0.371   6.319   1.489  0.1089  0.4018  0.3212
15423TIP3    H167684   0.315   6.395   1.500  1.3813  1.3860  0.1786
15423TIP3    H267685   0.460   6.352   1.503  1.1585 -0.0601 -3.8907
15424TIP3   OH267686   2.204   2.156   0.340 -0.3266  0.9228  1.2039
15424TIP3    H167687   2.179   2.126   0.427 -1.1739  1.3952  1.1399
15424TIP3    H267688   2.278   2.101   0.315 -1.8348 -1.1812  1.0771
15425TIP3   OH267689   6.707   5.828   0.885 -0.1727 -0.5008 -0.0041
15425TIP3    H167690   6.715   5.893   0.816  0.4403 -0.5496  0.0126
15425TIP3    H267691   6.709   5.744   0.838  0.1513 -0.5313  0.0598
15426TIP3   OH267692   3.340   4.315   2.081 -1.0594 -0.2103  0.1570
15426TIP3    H167693   3.350   4.308   2.176 -0.1607 -0.8937  0.0319
15426TIP3    H267694   3.275   4.249   2.059 -0.6189 -0.6727  0.2118
15427TIP3   OH267695   5.076   6.192   4.120 -0.2351 -0.4814  0.2923
15427TIP3    H167696   5.004   6.212   4.179  0.4402  0.6986  0.7558
15427TIP3    H267697   5.051   6.110   4.078 -0.7311 -1.3915  2.2459
15428TIP3   OH267698   4.886   1.632  14.986  0.8941  0.1708  0.0375
15428TIP3    H167699   4.837   1.650  14.905  0.4413 -2.0595 -0.2482
15428TIP3    H267700   4.821   1.643  15.056  1.2218  1.8388  0.1360
15429TIP3   OH267701   2.763   5.359  16.538 -0.1179 -0.9659 -0.1489
15429TIP3    H167702   2.834   5.417  16.565 -0.2371  0.3997 -2.5421
15429TIP3    H267703   2.683   5.407  16.560 -0.2217 -0.6465 -1.1495
15430TIP3   OH267704   6.225   2.353  11.895  0.3874  0.3364  0.3796
15430TIP3    H167705   6.206   2.442  11.923 -2.1035  0.1859 -0.5829
15430TIP3    H267706   6.169   2.298  11.949  1.7246 -0.6678  0.8017
15431TIP3   OH267707   1.013   3.928  11.702 -0.1232  0.4221 -0.2994
15431TIP3    H167708   1.031   3.936  11.796 -0.6137  0.8947 -0.2370
15431TIP3    H267709   1.062   3.851  11.674  0.7109  0.7738  0.1713
15432TIP3   OH267710   5.682   3.345  14.722  0.0834  0.2865 -0.7249
15432TIP3    H167711   5.756   3.288  14.701  0.6379  0.9144 -0.5048
15432TIP3    H267712   5.694   3.367  14.814  0.0893  1.0501 -0.8998
15433TIP3   OH267713   0.092   0.042   3.641 -0.4293 -0.1918  0.1929
15433TIP3    H167714   0.077   0.021   3.549  1.3048 -1.3784  0.1317
15433TIP3    H267715   0.148   0.120   3.639 -1.8424  0.8655  0.3133
15434TIP3   OH267716   1.401   5.118   3.008  0.0920  0.0507  0.2087
15434TIP3    H167717   1.441   5.091   3.091 -3.7102 -0.5543  2.0173
15434TIP3    H267718   1.458   5.079   2.941  1.3750 -2.4771  2.5573
15435TIP3   OH267719   0.990   6.568   4.216 -0.0837  0.0182 -0.5101
15435TIP3    H167720   0.936   6.602   4.287  2.1914 -0.9708  1.8555
15435TIP3    H267721   1.063   6.630   4.209  0.3320 -0.5264 -1.1426
15436TIP3   OH267722   0.962   6.689  14.101  0.4358  0.3968  0.6155
15436TIP3    H167723   1.024   6.746  14.056 -0.3587  0.5173 -0.3761
15436TIP3    H267724   0.877   6.710  14.061 -0.3041  0.4568  2.1433
15437TIP3   OH267725   5.754   1.574   0.379 -0.0774 -0.2972 -0.2258
15437TIP3    H167726   5.838   1.536   0.402 -0.7501 -1.3122  0.6769
15437TIP3    H267727   5.773   1.633   0.306  1.7178  0.8675  1.0855
15438TIP3   OH267728   5.912   5.474  12.614 -0.5943  0.4133 -0.0897
15438TIP3    H167729   5.970   5.426  12.672  0.7389  0.8446 -1.0207
15438TIP3    H267730   5.862   5.532  12.672 -0.4713 -0.3227  0.7732
15439TIP3   OH267731   2.121   5.432  15.643  0.3336 -0.2062  0.2412
15439TIP3    H167732   2.162   5.411  15.727 -1.5327 -1.8749  0.8091
15439TIP3    H267733   2.195   5.449  15.585  1.9387 -3.4607  1.0926
15440TIP3   OH267734   3.502   5.958   5.328 -0.3161 -0.5198 -0.4674
15440TIP3    H167735   3.543   5.925   5.408  0.3666 -2.2852 -1.4815
15440TIP3    H267736   3.412   5.976   5.353 -0.4317 -2.1625  0.4459
15441TIP3   OH267737   3.383   1.315   1.099  0.1415  0.6013  0.0322
15441TIP3    H167738   3.470   1.318   1.138  0.4857  0.4890 -0.6958
15441TIP3    H267739   3.391   1.367   1.019 -0.9691  2.1766  0.8935
15442TIP3   OH267740   3.318   5.669   3.543 -0.2125  0.1991  0.2507
15442TIP3    H167741   3.346   5.581   3.518  0.2881  0.6105 -0.6729
15442TIP3    H267742   3.319   5.668   3.639 -0.1117 -0.7646  0.2517
15443TIP3   OH267743   6.487   4.628  12.732 -0.2840  0.1737 -0.1457
15443TIP3    H167744   6.436   4.548  12.737  0.4315 -0.2327  1.1321
15443TIP3    H267745   6.471   4.672  12.816  1.1110  0.2171  0.1342
15444TIP3   OH267746   3.466   6.216  15.954 -0.3082 -0.4377 -0.1507
15444TIP3    H167747   3.548   6.166  15.959 -0.2687 -0.5542 -1.6690
15444TIP3    H267748   3.493   6.307  15.954 -0.1389 -0.4826 -1.1284
15445TIP3   OH267749   3.056   2.217  13.675  0.1609 -0.4454  0.2051
15445TIP3    H167750   3.077   2.281  13.607  0.0114 -0.4233  0.1816
15445TIP3    H267751   2.977   2.173  13.644 -0.3218  0.0557  0.6968
15446TIP3   OH267752   0.948   4.081  17.172 -0.1773  0.3825  0.0150
15446TIP3    H167753   0.889   4.103  17.244 -0.2662 -0.9891  0.3829
15446TIP3    H267754   0.947   3.986  17.168  1.0323  0.3802 -0.8038
15447TIP3   OH267755   1.454   5.151  11.340 -0.0195 -0.0823 -0.3519
15447TIP3    H167756   1.508   5.192  11.272 -2.1539  0.3749 -1.8753
15447TIP3    H267757   1.365   5.156  11.306 -1.0675 -0.7478  2.0798
15448TIP3   OH267758   5.530   1.377   5.407 -0.1826 -0.2565 -0.2294
15448TIP3    H167759   5.586   1.300   5.404 -0.5823 -0.6070  0.9126
15448TIP3    H267760   5.554   1.421   5.488 -1.5036 -0.3772  0.2502
15449TIP3   OH267761   2.917   5.481  15.675 -0.2891  0.5066  0.3293
15449TIP3    H167762   2.837   5.430  15.691  1.0947 -0.9319  3.3504
15449TIP3    H267763   2.981   5.417  15.646  0.8457  0.8669  1.9307
15450TIP3   OH267764   2.430   5.515   2.109 -0.0859 -0.4344  0.1104
15450TIP3    H167765   2.368   5.442   2.098 -0.4161  0.0027 -1.0614
15450TIP3    H267766   2.434   5.556   2.023  0.3121  0.7710  0.6846
15451TIP3   OH267767   3.328   5.958  16.245 -0.1447  0.0690 -0.3876
15451TIP3    H167768   3.252   5.900  16.246 -0.8382  0.9545 -0.6384
15451TIP3    H267769   3.402   5.901  16.267 -0.8274 -0.8710 -0.4764
15452TIP3   OH267770   0.079   2.995   4.514  0.0037 -0.3818  0.4378
15452TIP3    H167771   0.065   2.953   4.429 -0.4168  0.0829  0.2750
15452TIP3    H267772   0.163   3.040   4.505  0.8691 -1.8375  0.8816
15453TIP3   OH267773   3.197   4.544  14.223  0.0814 -0.2761 -0.3653
15453TIP3    H167774   3.200   4.635  14.252 -0.0352 -0.2221 -0.5218
15453TIP3    H267775   3.134   4.502  14.282 -0.8903  0.0511 -1.1436
15454TIP3   OH267776   5.203   4.289  11.613 -0.4858  0.6503  0.4330
15454TIP3    H167777   5.218   4.225  11.543  0.0609 -0.6370  1.6855
15454TIP3    H267778   5.109   4.307  11.608 -0.4941  0.4163 -0.4899
15455TIP3   OH267779   0.741   6.664   0.705  0.4058 -0.0489 -0.2979
15455TIP3    H167780   0.645   6.662   0.707  0.4225 -1.1813 -0.0169
15455TIP3    H267781   0.762   6.724   0.634 -0.4921  1.6114  0.7652
15456TIP3   OH267782   5.760   1.223  11.800  0.7710  0.0018 -0.1418
15456TIP3    H167783   5.718   1.280  11.736  2.2068 -0.1026 -1.2499
15456TIP3    H267784   5.840   1.270  11.825 -0.6156  0.8769  3.0146
15457TIP3   OH267785   3.356   5.315  12.449 -0.0779  0.7287  0.0510
15457TIP3    H167786   3.326   5.371  12.378 -1.3021  1.3400  1.0187
15457TIP3    H267787   3.279   5.263  12.474  0.7244 -0.5736 -0.0485
15458TIP3   OH267788   1.227   2.585  14.370 -0.3804  0.1545 -0.0528
15458TIP3    H167789   1.175   2.517  14.413  0.9240 -1.3902 -0.7664
15458TIP3    H267790   1.311   2.542  14.353  0.6223  2.0944 -0.2224
15459TIP3   OH267791   3.163   5.447  15.527 -0.5107  0.0322 -0.0411
15459TIP3    H167792   3.207   5.532  15.526 -0.7478  0.1608  0.1278
15459TIP3    H267793   3.231   5.385  15.554 -0.3961  0.2055  0.0757
15460TIP3   OH267794   1.796   3.758   2.975  0.4377  0.1049 -0.6362
15460TIP3    H167795   1.708   3.721   2.986  0.1441  1.3087  1.6706
15460TIP3    H267796   1.844   3.730   3.053  0.6812  3.1108  0.4177
15461TIP3   OH267797   1.054   4.616   2.164 -0.1501 -0.0327  0.1757
15461TIP3    H167798   1.126   4.553   2.163  0.5340  0.7252  0.8583
15461TIP3    H267799   1.084   4.687   2.221 -2.2750 -0.6699  2.2405
15462TIP3   OH267800   2.487   6.554  13.513  0.0589 -0.6400 -0.1818
15462TIP3    H167801   2.405   6.507  13.531  0.7290 -1.2522  1.4088
15462TIP3    H267802   2.474   6.640  13.553  0.7133 -1.2373  1.3686
15463TIP3   OH267803   3.626   6.694   1.409 -0.3615  0.5020  0.1003
15463TIP3    H167804   3.673   6.762   1.459 -0.4657  1.4285 -1.0315
15463TIP3    H267805   3.666   6.612   1.437 -0.9230  0.9004  2.2774
15464TIP3   OH267806   6.627   4.083   5.006 -1.0834  0.4083  0.0457
15464TIP3    H167807   6.691   4.090   4.935 -3.0496  2.2204 -1.7143
15464TIP3    H267808   6.575   4.006   4.985 -2.1332  1.3487 -1.0227
15465TIP3   OH267809   3.013   5.976   2.097  0.1563  0.0885 -0.2258
15465TIP3    H167810   3.016   5.907   2.163  1.9663 -1.1762 -1.5242
15465TIP3    H267811   2.992   5.931   2.015 -0.6397  1.4051 -0.7796
15466TIP3   OH267812   5.000   0.547  11.564 -0.0919 -0.1525 -0.3933
15466TIP3    H167813   5.022   0.639  11.573  0.3945 -0.3042  0.0356
15466TIP3    H267814   4.906   0.543  11.580 -0.2488  0.3601 -1.1583
15467TIP3   OH267815   1.750   0.761  12.516 -0.1445 -0.4409 -0.1638
15467TIP3    H167816   1.843   0.761  12.541 -0.2663  0.2329  0.3088
15467TIP3    H267817   1.703   0.760  12.600 -0.5645  0.5346 -0.3740
15468TIP3   OH267818   6.505   2.005  11.175  0.3745  0.0291  0.0209
15468TIP3    H167819   6.441   2.076  11.173 -0.4814 -0.5985  2.3835
15468TIP3    H267820   6.520   1.984  11.083  1.5320  3.9579 -0.8912
15469TIP3   OH267821   3.666   5.254  11.139 -0.1004 -0.0923 -0.8315
15469TIP3    H167822   3.748   5.233  11.095  1.4900 -0.4454  2.0660
15469TIP3    H267823   3.680   5.342  11.174 -0.8919 -0.2492 -0.1027
15470TIP3   OH267824   3.983   0.100  14.376  0.2362 -0.4988 -1.1024
15470TIP3    H167825   3.963   0.131  14.288  0.1422 -1.0278 -1.2718
15470TIP3    H267826   4.075   0.074  14.371 -0.5976 -3.7501 -2.0400
15471TIP3   OH267827   2.676   0.836  16.536  0.1630 -0.0341  0.8617
15471TIP3    H167828   2.583   0.862  16.537  0.0073 -0.4011 -1.0242
15471TIP3    H267829   2.711   0.875  16.456  1.4698 -0.4807  1.1988
15472TIP3   OH267830   1.098   5.056   3.973  0.3216  0.0728  0.5663
15472TIP3    H167831   1.026   4.998   3.948 -0.2300  1.7324 -2.1647
15472TIP3    H267832   1.069   5.099   4.053 -0.3475 -1.4817  1.1989
15473TIP3   OH267833   3.923   4.971  14.714 -0.0783 -0.3991 -0.4560
15473TIP3    H167834   3.861   4.989  14.643  0.4810 -1.5061 -1.2400
15473TIP3    H267835   4.008   4.966  14.671  0.1345 -2.2274  0.0911
15474TIP3   OH267836   6.566   5.000   2.226 -0.0067 -0.1622  0.5821
15474TIP3    H167837   6.533   5.007   2.316  0.6782 -0.5559  0.8692
15474TIP3    H267838   6.637   5.065   2.222 -0.2115  0.0403  0.2462
15475TIP3   OH267839   4.253   5.008  12.652  0.1630 -0.0893 -0.2116
15475TIP3    H167840   4.251   5.103  12.639 -2.2463 -0.4257 -3.4645
15475TIP3    H267841   4.316   4.976  12.586 -2.0077 -0.9177 -2.0208
15476TIP3   OH267842   3.069   4.460   0.118 -0.0841  0.0622  0.2919
15476TIP3    H167843   2.989   4.411   0.136  0.3293 -0.1494  1.6822
15476TIP3    H267844   3.058   4.492   0.029 -1.0378 -1.2622 -0.0960
15477TIP3   OH267845   5.261   2.093   0.957 -0.0013 -0.6941 -0.2413
15477TIP3    H167846   5.277   2.000   0.944  0.0588 -0.7103 -0.0449
15477TIP3    H267847   5.346   2.134   0.942  0.5445 -0.8887  1.9700
15478TIP3   OH267848   2.096   4.703  15.609 -0.1924  0.1714 -0.1462
15478TIP3    H167849   2.160   4.677  15.542  1.9267  0.7796  1.5372
15478TIP3    H267850   2.064   4.621  15.645 -0.4652 -0.1417 -1.0629
15479TIP3   OH267851   4.198   1.265  14.984  0.0119 -0.5362 -0.8229
15479TIP3    H167852   4.174   1.173  14.993  0.2607 -0.6105 -0.8884
15479TIP3    H267853   4.253   1.267  14.905  0.1594 -0.3633 -0.7170
15480TIP3   OH267854   3.995   3.137  16.091  0.2461 -0.0833 -0.0861
15480TIP3    H167855   4.058   3.100  16.030  0.9323 -0.1692  0.6594
15480TIP3    H267856   3.959   3.061  16.136  0.5779  0.0504  0.4125
15481TIP3   OH267857   5.074   4.640  11.002 -0.1649  0.0083 -0.2735
15481TIP3    H167858   5.148   4.672  10.952  2.0729 -0.5156  2.4738
15481TIP3    H267859   4.997   4.671  10.954  1.7826  4.2943 -0.9998
15482TIP3   OH267860   0.824   5.016  13.667 -0.0634  0.1730  0.2894
15482TIP3    H167861   0.889   4.992  13.734 -0.1023 -1.4454 -0.2220
15482TIP3    H267862   0.838   4.954  13.596 -1.3036  0.6498 -0.4085
15483TIP3   OH267863   4.986   0.537   1.840 -0.1226  0.2666  0.3067
15483TIP3    H167864   4.981   0.620   1.793  1.6869 -1.1129 -2.6312
15483TIP3    H267865   5.030   0.559   1.922 -0.8600  2.3826  0.1862
15484TIP3   OH267866   2.425   3.040   5.365  0.0805 -0.4234 -0.2544
15484TIP3    H167867   2.346   2.988   5.348 -0.9342  0.5236  1.3836
15484TIP3    H267868   2.482   2.982   5.415  0.6580 -1.2428 -1.7638
15485TIP3   OH267869   2.212   2.222   6.392 -0.1406  0.0895  0.3927
15485TIP3    H167870   2.118   2.208   6.379 -0.6186  2.1294  1.2957
15485TIP3    H267871   2.248   2.227   6.304 -1.1231  0.6183  0.0027
15486TIP3   OH267872   3.692   5.049   0.739  0.1600  0.0177 -0.2492
15486TIP3    H167873   3.599   5.071   0.742 -0.3168 -1.7827 -0.8504
15486TIP3    H267874   3.713   5.048   0.645  0.1758 -1.8762 -0.2522
15487TIP3   OH267875   3.235   4.446  12.632 -0.0125  0.1655  0.5381
15487TIP3    H167876   3.201   4.388  12.700 -0.6405 -1.6933 -1.2481
15487TIP3    H267877   3.325   4.416  12.618 -0.5865 -1.0684 -0.9537
15488TIP3   OH267878   0.767   2.609  15.324  0.0659  0.0868  0.0852
15488TIP3    H167879   0.758   2.521  15.287  0.8529 -0.4650  1.1387
15488TIP3    H267880   0.684   2.624  15.370 -0.0131 -0.1651  0.0282
15489TIP3   OH267881   2.195   0.180  16.662  0.0695  0.3995 -0.0838
15489TIP3    H167882   2.217   0.089  16.685 -1.0960  0.2439  0.4447
15489TIP3    H267883   2.181   0.223  16.746 -2.3819  0.2951 -0.3922
15490TIP3   OH267884   4.190   2.353  13.497  0.5540 -0.0614 -0.3092
15490TIP3    H167885   4.258   2.383  13.436 -0.5983  2.0289 -0.6560
15490TIP3    H267886   4.133   2.429  13.510 -0.6248 -1.1637  1.5096
15491TIP3   OH267887   1.957   5.792  12.625 -0.2908  0.3924  0.6178
15491TIP3    H167888   1.905   5.777  12.704 -0.6075  0.3370  0.4019
15491TIP3    H267889   2.012   5.867  12.646 -1.6500  1.5247  0.2715
15492TIP3   OH267890   2.201   1.590  11.827  0.0568  0.5523 -0.0755
15492TIP3    H167891   2.224   1.611  11.918  0.2420  1.3429 -0.2979
15492TIP3    H267892   2.200   1.674  11.782 -0.0662  0.1725 -0.8076
15493TIP3   OH267893   6.634   2.516   0.980  0.4947  0.5784  0.4023
15493TIP3    H167894   6.540   2.518   0.997  0.7780  0.6027  2.1599
15493TIP3    H267895   6.652   2.600   0.937  0.0224  1.6248  2.1137
15494TIP3   OH267896   5.202   6.159   2.061  0.7946  0.2631 -0.4650
15494TIP3    H167897   5.192   6.219   2.135  0.8410 -0.3865  0.0714
15494TIP3    H267898   5.119   6.112   2.056  0.0373  1.6699 -2.0728
15495TIP3   OH267899   4.630   6.247   4.718  0.1049  0.1261  0.4186
15495TIP3    H167900   4.639   6.282   4.629  0.6461 -0.5430  0.2028
15495TIP3    H267901   4.538   6.221   4.724 -0.2738  1.4510  0.5446
15496TIP3   OH267902   1.597   3.094  15.509 -0.0966  0.5429 -0.5021
15496TIP3    H167903   1.571   3.181  15.539 -2.7377 -0.4796  0.4426
15496TIP3    H267904   1.578   3.093  15.416  0.7584  1.2065 -0.7011
15497TIP3   OH267905   1.507   1.232  16.957  0.8485 -0.0945 -0.0134
15497TIP3    H167906   1.504   1.168  16.886  1.0834  1.9795 -2.0282
15497TIP3    H267907   1.423   1.224  17.002  0.1439 -0.5808 -1.3764
15498TIP3   OH267908   2.993   5.331  11.194  0.3242 -0.3816 -0.2329
15498TIP3    H167909   3.069   5.273  11.206  0.2340 -0.5251 -0.3567
15498TIP3    H267910   3.030   5.420  11.203  0.1649 -0.4826  1.6372
15499TIP3   OH267911   1.224   6.569   3.377  0.0270 -0.2279 -0.0663
15499TIP3    H167912   1.135   6.535   3.367  0.8885 -2.2216 -1.4786
15499TIP3    H267913   1.258   6.573   3.288  1.0291  1.5473  0.3583
15500TIP3   OH267914   5.438   2.034   4.263  0.5658  0.3115  0.0138
15500TIP3    H167915   5.370   2.004   4.203 -0.2565  1.5786  0.2736
15500TIP3    H267916   5.440   1.967   4.332 -0.8609  0.5452  0.3175
15501TIP3   OH267917   2.542   4.441   4.650  0.3985 -0.4619 -0.1564
15501TIP3    H167918   2.545   4.353   4.688  1.3484 -1.1033 -1.6019
15501TIP3    H267919   2.513   4.427   4.560 -1.9011  1.0110  0.2843
15502TIP3   OH267920   6.686   4.257   1.926 -0.1699 -0.1903 -0.1534
15502TIP3    H167921   6.745   4.218   1.990  0.3740 -2.0950 -1.7087
15502TIP3    H267922   6.730   4.337   1.898  0.0164  0.1832  1.1431
15503TIP3   OH267923   2.729   5.522  14.212 -0.3650  0.4114  0.1405
15503TIP3    H167924   2.675   5.446  14.189 -0.1764  0.8338 -1.8425
15503TIP3    H267925   2.795   5.527  14.143 -0.3089  2.3088  0.2789
15504TIP3   OH267926   6.653   5.222   2.726 -0.2839 -0.2498 -0.3344
15504TIP3    H167927   6.651   5.184   2.814  0.1068 -0.2964 -0.3435
15504TIP3    H267928   6.568   5.266   2.717 -0.6467 -0.9285 -0.2413
15505TIP3   OH267929   2.585   4.674  10.886  0.5090 -0.4093 -0.1846
15505TIP3    H167930   2.518   4.738  10.862  2.6361  1.0344 -2.7705
15505TIP3    H267931   2.668   4.720  10.876  2.0154 -2.1512  2.7943
15506TIP3   OH267932   0.257   6.254  14.271  0.2192  0.3516 -0.1597
15506TIP3    H167933   0.280   6.238  14.362 -1.0170  0.5886  0.2140
15506TIP3    H267934   0.341   6.267  14.227  0.8097  0.6941  1.0226
15507TIP3   OH267935   4.302   6.103  11.961  0.3109  0.1147 -0.0421
15507TIP3    H167936   4.341   6.090  11.874  0.2576 -0.6461  0.0437
15507TIP3    H267937   4.328   6.192  11.985  1.2267 -0.0461 -0.3845
15508TIP3   OH267938   3.057   2.244  14.906  0.5969  0.2164 -0.3125
15508TIP3    H167939   2.975   2.259  14.953  1.6173 -1.4343  2.2374
15508TIP3    H267940   3.086   2.332  14.879 -0.8899  1.0700  0.7338
15509TIP3   OH267941   2.331   3.307  12.720 -0.0369  0.3572 -0.5046
15509TIP3    H167942   2.330   3.341  12.630  0.2249 -1.9097 -1.4196
15509TIP3    H267943   2.302   3.216  12.712 -2.6053  0.8233  2.0750
15510TIP3   OH267944   3.932   4.012   2.466 -0.5990  0.1730  0.2293
15510TIP3    H167945   3.862   3.948   2.476 -0.4652 -0.1290 -0.6664
15510TIP3    H267946   3.992   3.993   2.538  0.7679 -2.4675 -1.4373
15511TIP3   OH267947   6.221   1.169   0.065 -0.1292  0.1366  0.3131
15511TIP3    H167948   6.298   1.126   0.028  1.6603  1.6826  2.1031
15511TIP3    H267949   6.199   1.238   0.002  0.5027  0.2664  0.2324
15512TIP3   OH267950   4.660   3.822   1.776  0.2040 -0.2123 -0.1720
15512TIP3    H167951   4.729   3.795   1.714 -1.2979  0.1480 -2.1192
15512TIP3    H267952   4.705   3.879   1.838  2.0287 -1.5250 -0.1993
15513TIP3   OH267953   0.843   0.930  14.919  0.4050  0.0337 -0.1747
15513TIP3    H167954   0.788   0.858  14.949  0.8699 -1.5414 -2.8722
15513TIP3    H267955   0.782   0.995  14.884  0.1115 -0.1012  0.0856
15514TIP3   OH267956   6.473   0.793  12.619  0.3666 -0.2034 -0.1182
15514TIP3    H167957   6.392   0.842  12.631 -0.1441 -1.0699  0.0424
15514TIP3    H267958   6.534   0.857  12.581 -0.5079  0.3435 -0.6374
15515TIP3   OH267959   1.256   2.301   0.214  0.0565 -0.4517 -0.1783
15515TIP3    H167960   1.268   2.359   0.139  0.5142  0.3971  0.5310
15515TIP3    H267961   1.169   2.321   0.247  0.7266  0.8919  0.9067
15516TIP3   OH267962   0.524   4.300   6.023  0.1114 -0.3649 -0.3225
15516TIP3    H167963   0.532   4.374   6.084 -0.4525 -0.1938 -0.4490
15516TIP3    H267964   0.526   4.223   6.079 -3.9191 -0.1817  0.4136
15517TIP3   OH267965   5.390   5.814  14.304  0.4707 -0.4033 -0.3098
15517TIP3    H167966   5.486   5.809  14.308  0.5620  0.2040 -1.4074
15517TIP3    H267967   5.371   5.837  14.213 -0.8197 -3.0685 -0.8316
15518TIP3   OH267968   3.811   5.729  11.344 -0.2892 -0.6398 -0.1697
15518TIP3    H167969   3.785   5.815  11.376  0.8211 -0.2273 -0.3243
15518TIP3    H267970   3.860   5.747  11.264  0.3842 -1.3740  0.0623
15519TIP3   OH267971   6.691   1.736   0.301  0.5816  0.1341 -0.4480
15519TIP3    H167972   6.749   1.710   0.372  1.0401 -2.3232 -1.6165
15519TIP3    H267973   6.747   1.789   0.243  0.4878  1.2522  0.4594
15520TIP3   OH267974   4.032   1.955   1.136  0.0969  0.1350  0.4618
15520TIP3    H167975   4.039   1.860   1.130  0.2842  0.2263 -1.5985
15520TIP3    H267976   4.083   1.979   1.213  0.1878 -1.4107  0.9060
15521TIP3   OH267977   5.238   0.492   1.167  0.3844 -0.2839 -0.1554
15521TIP3    H167978   5.207   0.582   1.163 -0.6947 -0.5579  1.1091
15521TIP3    H267979   5.300   0.491   1.240  0.2187 -0.6062 -0.0150
15522TIP3   OH267980   2.514   3.329  14.620 -0.2038 -0.2391 -0.2622
15522TIP3    H167981   2.517   3.253  14.562 -0.0221  0.1021 -0.7052
15522TIP3    H267982   2.605   3.340  14.650 -0.1169  0.1400 -0.6483
15523TIP3   OH267983   1.124   4.352  14.377  0.1103  0.5373  0.1987
15523TIP3    H167984   1.115   4.381  14.467  2.7085 -1.1134  1.1078
15523TIP3    H267985   1.105   4.429  14.324  1.3251  2.3475  2.2619
15524TIP3   OH267986   5.060   5.004  10.647 -0.2302 -0.2223 -0.0650
15524TIP3    H167987   4.991   5.066  10.623 -0.4395  0.2363  1.5859
15524TIP3    H267988   5.142   5.050  10.626 -0.3482  1.1584  2.1822
15525TIP3   OH267989   3.468   0.400   5.042  0.4239  0.3977 -0.4548
15525TIP3    H167990   3.391   0.428   4.993  0.0317 -1.1227 -0.7522
15525TIP3    H267991   3.433   0.348   5.114  1.1396  0.2150 -0.2293
15526TIP3   OH267992   4.114   3.960  12.291 -0.2898  0.5803 -0.2373
15526TIP3    H167993   4.050   3.896  12.261  0.0026  1.1428 -2.1732
15526TIP3    H267994   4.184   3.908  12.331 -0.4600 -0.2452 -0.9955
15527TIP3   OH267995   2.536   0.847   3.181 -0.4420 -0.1064  0.3916
15527TIP3    H167996   2.592   0.773   3.207 -1.9672 -1.2854  0.4446
15527TIP3    H267997   2.493   0.818   3.101 -2.0641  0.1587  1.1297
15528TIP3   OH267998   5.948   5.071  12.721  0.8234  0.2239 -0.0430
15528TIP3    H167999   5.948   5.165  12.702 -1.4091 -0.0238 -1.7137
15528TIP3    H268000   6.039   5.050  12.740  1.3126  2.7898  0.8302
15529TIP3   OH268001   6.036   6.109   3.441  0.0999 -0.5084 -0.1614
15529TIP3    H168002   6.018   6.123   3.348 -0.7452 -0.4383  0.0104
15529TIP3    H268003   5.953   6.125   3.485  0.0229 -2.2921  0.4345
15530TIP3   OH268004   4.264   1.655   1.877  0.2477  0.1881 -0.1423
15530TIP3    H168005   4.189   1.619   1.926  0.0723  2.0068  0.9995
15530TIP3    H268006   4.224   1.692   1.798  0.3121 -1.1616 -0.8437
15531TIP3   OH268007   1.319   0.476   0.652  0.8074 -0.1707 -0.3794
15531TIP3    H168008   1.407   0.441   0.667  0.4362 -1.8212 -1.7373
15531TIP3    H268009   1.265   0.437   0.720  0.4617 -2.1018 -1.6924
15532TIP3   OH268010   3.259   5.535   2.831  0.5135 -0.1057 -0.1687
15532TIP3    H168011   3.331   5.472   2.821  0.4639 -0.1164 -0.4641
15532TIP3    H268012   3.301   5.620   2.832  0.5360 -0.1152 -0.2788
15533TIP3   OH268013   2.647   5.353  12.920 -0.2280  0.1038 -0.2755
15533TIP3    H168014   2.556   5.330  12.899 -0.6366  2.6551 -1.6484
15533TIP3    H268015   2.639   5.425  12.982  0.9091 -0.4196  0.4996
15534TIP3   OH268016   4.813   3.273   3.528 -0.1031 -0.0557 -0.1105
15534TIP3    H168017   4.885   3.314   3.577 -0.6088  0.4423  0.2296
15534TIP3    H268018   4.763   3.346   3.493 -0.2936 -0.4059 -0.5770
15535TIP3   OH268019   4.236   4.773  16.028  0.0582 -0.4916  0.2058
15535TIP3    H168020   4.178   4.696  16.031  1.8284 -1.8874  1.7732
15535TIP3    H268021   4.318   4.742  16.068  1.6679  1.5748 -1.2932
15536TIP3   OH268022   3.391   0.191   3.126 -0.1104 -0.1634  0.4791
15536TIP3    H168023   3.320   0.193   3.191  0.8477 -1.6677  1.6343
15536TIP3    H268024   3.469   0.217   3.175  0.4792 -0.5048 -0.2704
15537TIP3   OH268025   0.228   0.833  12.602 -0.1031 -0.0578 -0.3066
15537TIP3    H168026   0.323   0.828  12.589 -0.1490  0.3954 -0.8085
15537TIP3    H268027   0.217   0.900  12.669 -0.0601 -0.2617 -0.0922
15538TIP3   OH268028   4.137   3.180   1.577  0.4214 -1.0195  0.2771
15538TIP3    H168029   4.204   3.165   1.644 -0.2393 -1.7490  0.8056
15538TIP3    H268030   4.140   3.274   1.561 -1.6813 -0.1264  3.8762
15539TIP3   OH268031   1.224   4.237   5.074  0.0696 -0.3583  1.0780
15539TIP3    H168032   1.273   4.164   5.038  0.6015  1.1355 -1.4969
15539TIP3    H268033   1.148   4.246   5.016  0.7924  1.9891  0.3739
15540TIP3   OH268034   4.560   1.549  16.101 -0.1703  0.2750 -0.0745
15540TIP3    H168035   4.554   1.644  16.101 -0.9223  0.2432  0.6975
15540TIP3    H268036   4.481   1.520  16.055 -0.4050  0.0189  0.4713
15541TIP3   OH268037   6.442   6.016   3.207  0.2069  0.2016 -0.2646
15541TIP3    H168038   6.478   6.095   3.248 -1.2220  1.0699 -0.6312
15541TIP3    H268039   6.510   5.988   3.145  2.1946 -0.8284  2.1868
15542TIP3   OH268040   2.812   6.135   5.160 -0.3359 -0.0640 -0.1920
15542TIP3    H168041   2.794   6.050   5.199  0.5134 -0.5018 -0.7331
15542TIP3    H268042   2.864   6.116   5.082  2.3372  1.1111  1.1945
15543TIP3   OH268043   2.826   1.355  10.983  0.1299 -0.8290 -0.1911
15543TIP3    H168044   2.842   1.261  10.977  0.7565 -0.6474 -3.9040
15543TIP3    H268045   2.735   1.366  10.957  0.3748 -0.3861 -0.9181
15544TIP3   OH268046   2.001   3.281   2.593  0.3925  0.3349 -0.3950
15544TIP3    H168047   1.982   3.226   2.516  1.5267 -0.0206 -0.4399
15544TIP3    H268048   2.096   3.272   2.605  0.4243  1.4535  0.2443
15545TIP3   OH268049   1.364   3.365   4.304 -0.2456 -0.0565  0.1636
15545TIP3    H168050   1.439   3.422   4.285 -0.8319  0.0318 -2.2680
15545TIP3    H268051   1.351   3.315   4.224 -1.5795 -1.5178  1.2276
15546TIP3   OH268052   2.668   6.057   2.498  0.3543  0.1196  0.0178
15546TIP3    H168053   2.585   6.015   2.523  0.0645  0.4543 -0.3668
15546TIP3    H268054   2.685   6.025   2.409  0.8412 -0.2530  0.2422
15547TIP3   OH268055   4.388   6.330   3.156  0.2325 -0.0373 -0.2009
15547TIP3    H168056   4.469   6.379   3.170  1.6279 -1.9140 -1.1696
15547TIP3    H268057   4.405   6.280   3.076 -1.3071 -1.6367  0.4282
15548TIP3   OH268058   1.408   3.917  13.123  0.0667 -0.2532 -0.1258
15548TIP3    H168059   1.452   3.834  13.103 -1.3277 -0.7871 -1.0851
15548TIP3    H268060   1.480   3.978  13.137  1.1351 -1.6194  0.7072
15549TIP3   OH268061   0.737   3.825  13.180  0.2569 -0.5837  0.2942
15549TIP3    H168062   0.792   3.854  13.253  1.4115 -2.2153  0.1420
15549TIP3    H268063   0.648   3.831  13.212  0.5903  0.8934  1.0221
15550TIP3   OH268064   4.749   2.704   0.991  0.0081  0.2651  0.4730
15550TIP3    H168065   4.839   2.731   1.009  0.5779 -0.3636 -1.2240
15550TIP3    H268066   4.728   2.642   1.060  0.2213  1.7150  1.8937
15551TIP3   OH268067   1.830   4.487   5.236 -0.1196  0.1234  0.0390
15551TIP3    H168068   1.887   4.436   5.293  1.3784  1.0695 -0.5412
15551TIP3    H268069   1.867   4.475   5.148  0.1614  2.0057 -0.1406
15552TIP3   OH268070   3.241   1.599   0.640  0.0670 -0.1519 -0.3309
15552TIP3    H168071   3.189   1.670   0.678  1.1243  0.0154  0.9073
15552TIP3    H268072   3.311   1.584   0.705 -0.3841 -2.6270 -0.3334
15553TIP3   OH268073   3.208   0.587  10.982  0.0076 -0.3661  0.4927
15553TIP3    H168074   3.213   0.492  10.978  2.2391 -0.2511 -1.1228
15553TIP3    H268075   3.162   0.612  10.902  2.4765 -0.0094 -0.9035
15554TIP3   OH268076   1.221   3.427   3.501  0.0258  0.1750 -0.6076
15554TIP3    H168077   1.136   3.441   3.543  0.2217  0.5712 -0.3367
15554TIP3    H268078   1.284   3.470   3.560  0.2931  0.8781 -1.3853
15555TIP3   OH268079   5.075   1.726  11.216 -0.2638 -0.0430  0.0333
15555TIP3    H168080   5.035   1.773  11.143 -0.5994  1.3925  1.0875
15555TIP3    H268081   5.164   1.706  11.186  0.2274  2.1223 -0.1631
15556TIP3   OH268082   1.947   3.884   6.514 -0.0567 -0.5526 -0.2222
15556TIP3    H168083   2.040   3.876   6.495  0.0382 -0.6971  0.2996
15556TIP3    H268084   1.903   3.850   6.436  0.3278 -0.6957 -0.3760
15557TIP3   OH268085   0.299   1.803  12.672 -0.0731  0.7427 -0.4245
15557TIP3    H168086   0.290   1.763  12.758  0.0693  2.4152  0.3989
15557TIP3    H268087   0.335   1.733  12.617 -4.1506 -1.7322 -0.3122
15558TIP3   OH268088   3.853   0.716   4.094  0.0526 -0.0559 -0.0235
15558TIP3    H168089   3.815   0.792   4.138  0.1229  0.4276 -0.7851
15558TIP3    H268090   3.932   0.749   4.052  0.6150 -0.7699  0.4392
15559TIP3   OH268091   4.875   4.705   6.095  0.2092  0.0217  0.2012
15559TIP3    H168092   4.838   4.792   6.111 -0.3684  0.0830 -1.3632
15559TIP3    H268093   4.801   4.645   6.104  0.6414 -0.3694  1.4704
15560TIP3   OH268094   2.962   5.095  12.616  0.0107 -0.0858  0.2430
15560TIP3    H168095   2.981   5.120  12.525  1.2956  0.0074  0.5192
15560TIP3    H268096   2.926   5.175  12.656 -0.7599 -0.1861 -0.2227
15561TIP3   OH268097   5.295   5.750  11.864  0.2135 -0.0438 -0.1241
15561TIP3    H168098   5.203   5.734  11.842  0.9264 -2.9972 -1.5007
15561TIP3    H268099   5.316   5.833  11.822 -1.1196 -0.7656 -2.3998
15562TIP3   OH268100   4.105   0.294   6.233  0.4221 -0.0828 -0.0432
15562TIP3    H168101   4.035   0.230   6.243  0.5827 -0.5078 -1.3760
15562TIP3    H268102   4.092   0.356   6.305 -0.5787 -0.8320  0.4415
15563TIP3   OH268103   2.821   4.665  12.766  0.1744 -0.2144 -0.2996
15563TIP3    H168104   2.903   4.699  12.730  1.5940  0.4185  3.1319
15563TIP3    H268105   2.776   4.627  12.690  2.4943  1.5405 -2.7740
15564TIP3   OH268106   5.058   5.671  14.528  0.5759 -0.4428 -0.4630
15564TIP3    H168107   5.093   5.694  14.613 -1.2585  0.4682  0.1008
15564TIP3    H268108   5.007   5.591  14.543  1.0828 -0.8622 -0.9286
15565TIP3   OH268109   3.402   4.836   5.564 -0.0579 -0.2757  0.0167
15565TIP3    H168110   3.451   4.914   5.591 -1.7448  0.3001  1.6955
15565TIP3    H268111   3.425   4.770   5.629  0.2925 -0.7655 -0.5909
15566TIP3   OH268112   3.282   0.572   6.633 -0.3595 -0.1781 -0.2308
15566TIP3    H168113   3.201   0.624   6.632 -1.1011 -1.2900  0.0927
15566TIP3    H268114   3.253   0.482   6.618  0.7280 -0.7059  0.6987
15567TIP3   OH268115   5.759   0.060   0.156  0.4153 -0.0770 -0.9439
15567TIP3    H168116   5.678   0.014   0.134  0.1716 -0.6077  0.9500
15567TIP3    H268117   5.730   0.147   0.184  0.4149 -0.4706  0.3318
15568TIP3   OH268118   6.607   5.483   4.086  0.3828  0.1204 -0.4244
15568TIP3    H168119   6.687   5.490   4.137 -0.4087  0.4895  0.8130
15568TIP3    H268120   6.591   5.388   4.081  0.5284  0.0758 -0.0838
15569TIP3   OH268121   2.072   0.046   0.026 -0.0570 -0.2989  0.1459
15569TIP3    H168122   1.980   0.072   0.033 -0.2561 -1.2931  1.7148
15569TIP3    H268123   2.121   0.128   0.025 -0.7738  0.2696  2.9668
15570TIP3   OH268124   2.936   1.889  15.593  0.1042 -0.1041 -0.4837
15570TIP3    H168125   2.853   1.867  15.550 -0.1787 -0.0350  0.0145
15570TIP3    H268126   2.923   1.979  15.625  0.6453  0.1835 -1.0491
15571TIP3   OH268127   2.339   6.712   4.041 -0.1172 -0.0569 -1.1143
15571TIP3    H168128   2.394   6.716   3.963  1.0037  0.6274 -0.3182
15571TIP3    H268129   2.268   6.652   4.017  0.8650 -0.8330 -2.2359
15572TIP3   OH268130   5.678   3.059   0.587  0.6734 -0.1485 -0.5139
15572TIP3    H168131   5.719   3.055   0.673 -0.2940  2.4131  0.1507
15572TIP3    H268132   5.712   3.140   0.548  0.2079 -0.6640 -2.0624
15573TIP3   OH268133   1.678   5.313  16.445  0.0184 -0.1175  0.1979
15573TIP3    H168134   1.591   5.336  16.412  0.1175  0.4912  0.3447
15573TIP3    H268135   1.719   5.398  16.465  1.4079 -0.2581 -1.7754
15574TIP3   OH268136   2.477   1.984  13.769 -0.7341  0.2438  0.1552
15574TIP3    H168137   2.424   1.978  13.690 -2.1342 -0.7333  1.1321
15574TIP3    H268138   2.550   1.924  13.753 -0.3373  0.9686 -0.8601
15575TIP3   OH268139   1.761   1.838  15.124 -0.5540 -0.1831  1.2285
15575TIP3    H168140   1.779   1.745  15.110 -0.8828 -0.1105  0.1851
15575TIP3    H268141   1.675   1.839  15.166 -1.0051 -0.3372  0.3441
15576TIP3   OH268142   1.786   2.302  13.280 -0.3728  0.4130  0.4242
15576TIP3    H168143   1.868   2.306  13.231 -0.5754 -2.4145 -0.3235
15576TIP3    H268144   1.791   2.221  13.330 -1.9694  1.0905  1.8053
15577TIP3   OH268145   2.080   5.596  12.481  0.3516  0.6068  0.3257
15577TIP3    H168146   2.156   5.654  12.477 -0.0380  1.2549  1.7344
15577TIP3    H268147   2.013   5.647  12.526 -1.1144  0.2196 -1.2977
15578TIP3   OH268148   5.961   6.532   1.719 -0.3972 -0.1115  0.5889
15578TIP3    H168149   5.914   6.449   1.718 -2.1108  0.7861  1.2617
15578TIP3    H268150   5.892   6.599   1.716  0.8296  1.2974  1.9850
15579TIP3   OH268151   0.958   4.284   3.634 -0.6827 -0.6133  0.3331
15579TIP3    H168152   0.876   4.297   3.587 -0.6783  0.5319  0.6232
15579TIP3    H268153   0.932   4.279   3.726 -0.3864  0.1376  0.4582
15580TIP3   OH268154   3.665   2.372   3.256  0.2162  0.7674 -0.1659
15580TIP3    H168155   3.595   2.436   3.249 -0.1087  0.4213 -0.1002
15580TIP3    H268156   3.746   2.424   3.253 -0.0264  1.1081 -0.8961
15581TIP3   OH268157   0.320   2.561  13.587  0.3625  0.3189 -0.1382
15581TIP3    H168158   0.387   2.492  13.587  1.6507  1.5046  1.1616
15581TIP3    H268159   0.288   2.563  13.497 -0.5925 -2.7531  0.0394
15582TIP3   OH268160   5.474   5.607   2.685 -0.3718  0.0206 -1.5373
15582TIP3    H168161   5.394   5.588   2.735  0.3680 -0.8642 -0.6348
15582TIP3    H268162   5.531   5.650   2.748  0.1430 -0.0305 -1.9673
15583TIP3   OH268163   1.673   2.847   2.106  0.2899 -0.2565  0.6316
15583TIP3    H168164   1.678   2.755   2.135  1.7901 -0.3690  0.0936
15583TIP3    H268165   1.641   2.894   2.183  0.0254 -1.1461  1.0845
15584TIP3   OH268166   3.798   4.049   1.765 -0.0836  0.0035 -0.5105
15584TIP3    H168167   3.709   4.014   1.763 -1.2978  2.8542 -3.2896
15584TIP3    H268168   3.837   4.019   1.682  2.4008 -2.8071  1.4517
15585TIP3   OH268169   5.354   3.185   1.778 -0.1776  0.6161  0.1908
15585TIP3    H168170   5.357   3.216   1.868  1.4630  3.7774 -0.7805
15585TIP3    H268171   5.438   3.140   1.766  0.0279  1.0333  0.0247
15586TIP3   OH268172   0.285   0.673  14.273 -0.0568 -0.3093  0.3977
15586TIP3    H168173   0.374   0.698  14.301 -0.0776  0.1420  0.0692
15586TIP3    H268174   0.246   0.634  14.351  0.3541 -0.3029  0.6109
15587TIP3   OH268175   2.338   6.472   5.223 -0.1917 -0.1275  0.1296
15587TIP3    H168176   2.423   6.448   5.186 -0.8700 -3.0873  0.2158
15587TIP3    H268177   2.330   6.418   5.302 -1.4455  1.3757  1.1000
15588TIP3   OH268178   4.610   1.049   1.556 -0.2110  0.4116 -0.0663
15588TIP3    H168179   4.544   1.117   1.543 -0.6868 -0.1006 -0.3816
15588TIP3    H268180   4.684   1.077   1.503 -0.8481  0.1025 -1.1495
15589TIP3   OH268181   3.190   3.673   6.034 -0.1595 -0.4879 -0.6199
15589TIP3    H168182   3.149   3.758   6.013 -2.1516 -0.9804  0.9352
15589TIP3    H268183   3.186   3.624   5.952 -0.9856  0.1684 -0.9954
15590TIP3   OH268184   5.142   2.533   2.922 -0.4225 -0.0301  1.5183
15590TIP3    H168185   5.216   2.594   2.925  0.5891 -1.2342  3.0741
15590TIP3    H268186   5.065   2.588   2.910  0.7148  1.2390 -0.5397
15591TIP3   OH268187   5.053   1.854   5.091  0.1921 -0.3456 -0.0511
15591TIP3    H168188   5.031   1.946   5.110  0.7127 -0.4617  1.2144
15591TIP3    H268189   5.002   1.834   5.013 -1.5915  0.4111  0.8305
15592TIP3   OH268190   2.865   2.150   0.072  0.0089 -0.1088 -0.2346
15592TIP3    H168191   2.878   2.210   0.145  0.1270 -1.0676  0.5486
15592TIP3    H268192   2.953   2.136   0.036  0.1219 -0.5873  0.2171
15593TIP3   OH268193   0.189   5.881   1.876 -0.3693  0.5065 -0.0649
15593TIP3    H168194   0.243   5.915   1.804  0.1756 -0.4651 -0.1266
15593TIP3    H268195   0.143   5.805   1.839 -0.0903 -0.0010  0.6030
15594TIP3   OH268196   5.724   2.640  16.791  0.7705 -0.2148 -0.5520
15594TIP3    H168197   5.751   2.552  16.817  1.4603  0.0680 -0.2870
15594TIP3    H268198   5.805   2.691  16.788  0.2407  0.7515  0.5716
15595TIP3   OH268199   3.377   3.802   4.317 -0.0362  0.6754 -0.6035
15595TIP3    H168200   3.330   3.738   4.371  1.5827  0.4764  0.6375
15595TIP3    H268201   3.459   3.758   4.294  0.6707  1.9312 -0.5517
15596TIP3   OH268202   2.806   1.885   4.002 -0.3745 -0.3134 -1.0383
15596TIP3    H168203   2.843   1.877   4.090 -1.2744  1.4860 -0.4470
15596TIP3    H268204   2.713   1.865   4.013 -0.5511  0.2242 -1.5002
15597TIP3   OH268205   0.901   6.012   0.354  0.0159 -0.0823 -0.4229
15597TIP3    H168206   0.940   6.093   0.324  0.8335 -0.6152 -0.8432
15597TIP3    H268207   0.863   6.033   0.439  1.8322  0.3224  0.3459
15598TIP3   OH268208   6.447   1.384  11.743  0.2739 -0.7689 -0.9549
15598TIP3    H168209   6.522   1.440  11.766 -1.1760  0.6554  0.5566
15598TIP3    H268210   6.487   1.301  11.718  2.4040  0.1943 -1.0146
15599TIP3   OH268211   3.057   0.238   2.181  0.1409 -1.1916 -0.6253
15599TIP3    H168212   3.147   0.205   2.182  0.4131 -0.4766 -0.7717
15599TIP3    H268213   3.020   0.202   2.100  0.9898  0.2514 -1.7139
15600TIP3   OH268214   2.560   0.757  16.082 -0.2940  0.1595 -0.3300
15600TIP3    H168215   2.616   0.767  16.004  3.1374  1.5558  2.0546
15600TIP3    H268216   2.520   0.843  16.094 -1.5277 -0.3088 -1.0018
15601TIP3   OH268217   1.321   1.087   0.864 -0.3285  0.3843  0.4380
15601TIP3    H168218   1.395   1.104   0.922  0.3493  1.7792 -0.7864
15601TIP3    H268219   1.355   1.023   0.801  0.6477  2.7109 -1.5180
15602TIP3   OH268220   5.339   4.550   5.812 -0.4038  0.5127 -0.1645
15602TIP3    H168221   5.339   4.489   5.885 -1.3748  0.0650 -0.5299
15602TIP3    H268222   5.249   4.582   5.807 -0.3980  0.3815 -1.2921
15603TIP3   OH268223   5.753   5.618   0.629 -0.0767  0.7749  0.1327
15603TIP3    H168224   5.792   5.538   0.595  1.8053  1.6122  0.2183
15603TIP3    H268225   5.814   5.688   0.604 -0.8787  1.9827  1.3806
15604TIP3   OH268226   2.241   0.776   2.615  0.0516  0.1225 -0.4419
15604TIP3    H168227   2.188   0.758   2.692  0.4515 -1.5289 -0.5030
15604TIP3    H268228   2.224   0.867   2.594 -2.2049 -0.1580 -0.0455
15605TIP3   OH268229   3.235   3.024  15.190  0.3251 -0.2552 -0.0300
15605TIP3    H168230   3.217   3.072  15.270  1.4219  1.3471 -0.6855
15605TIP3    H268231   3.293   2.952  15.217  0.2839 -0.0218  0.6810
15606TIP3   OH268232   0.554   5.436  10.625 -0.4199  0.2793  0.4978
15606TIP3    H168233   0.484   5.485  10.582 -1.0765 -0.2413  0.9526
15606TIP3    H268234   0.587   5.496  10.693  0.0584  0.7828 -0.1506
15607TIP3   OH268235   3.700   5.517  13.793 -0.0228 -0.0839  0.3965
15607TIP3    H168236   3.613   5.526  13.832  0.1468  0.1414  0.7246
15607TIP3    H268237   3.685   5.527  13.699 -0.0737  2.1146  0.5951
15608TIP3   OH268238   3.063   4.077   6.435  0.2221 -0.1485  0.0837
15608TIP3    H168239   3.099   4.164   6.418  0.9041 -0.6691 -1.3175
15608TIP3    H268240   3.099   4.051   6.520  1.3136  0.2896 -0.2364
15609TIP3   OH268241   6.021   3.643   3.909 -0.2423  0.7897  0.0864
15609TIP3    H168242   6.073   3.565   3.887 -1.1779  0.0787  0.3448
15609TIP3    H268243   6.056   3.711   3.851 -0.4793 -0.2298 -1.3237
15610TIP3   OH268244   3.011   3.908  13.233  0.2264  0.3515 -0.3046
15610TIP3    H168245   2.967   3.827  13.258 -1.0866  1.2152  0.3034
15610TIP3    H268246   3.031   3.952  13.316 -0.7163  1.4664 -0.6325
15611TIP3   OH268247   5.792   3.305   3.681  0.3953  0.1286  0.5731
15611TIP3    H168248   5.723   3.332   3.741 -2.7058  0.7588 -2.9226
15611TIP3    H268249   5.860   3.373   3.690  0.1262  0.1353  3.2691
15612TIP3   OH268250   5.702   4.822   5.547  1.2840  0.0748 -0.5951
15612TIP3    H168251   5.688   4.730   5.568 -0.3557  0.5627  0.6334
15612TIP3    H268252   5.757   4.855   5.619 -1.4097  0.9207  1.2080
15613TIP3   OH268253   0.931   3.521   3.472 -0.3427  0.2732  0.1107
15613TIP3    H168254   0.868   3.561   3.532  0.5679  0.4635  0.9699
15613TIP3    H268255   0.911   3.427   3.476 -0.2754  0.2806  0.7495
15614TIP3   OH268256   6.408   2.062   5.581 -0.6446 -0.0021 -0.4178
15614TIP3    H168257   6.421   2.007   5.504 -1.4978  0.0393 -0.6039
15614TIP3    H268258   6.314   2.057   5.599 -0.1973 -1.7266  1.8968
15615TIP3   OH268259   1.174   3.899  12.934 -0.4108  0.2242  0.1520
15615TIP3    H168260   1.266   3.910  12.957  0.0101  0.5102 -1.5022
15615TIP3    H268261   1.138   3.987  12.934 -0.7048  0.1089  0.8330
15616TIP3   OH268262   0.225   5.633   1.328 -0.0416  0.0979  0.6820
15616TIP3    H168263   0.242   5.627   1.234 -2.0600  0.7262  0.2289
15616TIP3    H268264   0.297   5.687   1.361  1.1229 -0.7511 -0.3382
15617TIP3   OH268265   0.766   6.649  15.249 -0.1625  0.0568 -0.0194
15617TIP3    H168266   0.815   6.658  15.167 -0.7648  1.1290 -0.2787
15617TIP3    H268267   0.828   6.608  15.309  1.1065  1.4115 -0.3359
15618TIP3   OH268268   5.025   4.151  13.969 -0.3465 -0.1679  0.2684
15618TIP3    H168269   5.048   4.061  13.947  1.2002  0.3024 -0.1263
15618TIP3    H268270   5.073   4.169  14.050  0.8297  0.8701 -0.6280
15619TIP3   OH268271   0.958   6.634   1.824  0.4796  0.3059 -0.3958
15619TIP3    H168272   0.898   6.674   1.886  0.1801  1.5036 -1.4141
15619TIP3    H268273   0.997   6.561   1.871 -1.9599 -0.6829  0.2052
15620TIP3   OH268274   0.741   6.758   3.885  0.1359 -0.6063 -0.3030
15620TIP3    H168275   0.690   6.707   3.947 -1.2085 -1.1934 -1.8324
15620TIP3    H268276   0.831   6.752   3.918 -0.8843  2.4257  3.8129
15621TIP3   OH268277   1.915   2.955   5.098 -0.2816  0.3927 -0.1889
15621TIP3    H168278   1.944   2.912   5.018  0.8415  1.3718 -0.3390
15621TIP3    H268279   1.912   2.886   5.164 -1.0062 -0.3761 -1.0119
15622TIP3   OH268280   3.057   4.867   4.596 -0.0453  0.0088  0.5309
15622TIP3    H168281   3.058   4.916   4.514  0.0689 -0.1183  0.4552
15622TIP3    H268282   2.964   4.856   4.616 -0.1321 -1.5718 -0.5612
15623TIP3   OH268283   2.902   4.841  16.397 -0.4280  0.0551  0.3007
15623TIP3    H168284   2.971   4.901  16.426  0.0767 -0.3645 -0.0236
15623TIP3    H268285   2.888   4.862  16.305 -0.3218 -0.2538  0.2129
15624TIP3   OH268286   1.542   0.852  15.495 -0.2464  0.5527  0.0017
15624TIP3    H168287   1.576   0.942  15.486  3.6691 -0.2576  3.5124
15624TIP3    H268288   1.470   0.860  15.557 -1.0776  1.4196 -1.0444
15625TIP3   OH268289   1.264   2.119   0.675 -0.0056 -0.0983 -0.3120
15625TIP3    H168290   1.223   2.075   0.749  1.5767 -1.9524 -0.4351
15625TIP3    H268291   1.356   2.129   0.702  0.3198  0.3357 -1.5334
15626TIP3   OH268292   5.877   4.900  12.513  0.2394 -0.0524  0.0586
15626TIP3    H168293   5.959   4.852  12.508 -0.0541 -0.5878  0.3349
15626TIP3    H268294   5.898   4.979  12.563  0.8011  0.2879 -0.6903
15627TIP3   OH268295   5.507   5.553   3.922  0.2678  0.0074  0.4488
15627TIP3    H168296   5.414   5.570   3.905  0.1088 -1.3425 -0.1486
15627TIP3    H268297   5.551   5.635   3.896 -0.5170 -0.1476 -1.5864
15628TIP3   OH268298   5.419   1.853  14.203  0.3373 -0.5417 -0.0910
15628TIP3    H168299   5.352   1.915  14.233  0.0296 -1.0211  0.2332
15628TIP3    H268300   5.502   1.897  14.218  0.1458 -0.4115  0.6444
15629TIP3   OH268301   1.662   3.093   5.134 -0.1499  0.0693  0.5586
15629TIP3    H168302   1.616   3.029   5.188 -1.4421 -0.7723 -1.4003
15629TIP3    H268303   1.753   3.064   5.134 -0.7713 -2.2139 -0.7028
15630TIP3   OH268304   4.181   5.055  14.642 -0.1890  0.1464  0.5994
15630TIP3    H168305   4.276   5.051  14.629 -0.3838 -1.3111 -0.6828
15630TIP3    H268306   4.168   5.123  14.709  1.7992 -0.1768  1.3676
15631TIP3   OH268307   0.222   5.160  14.384  0.2657 -0.1588 -0.1222
15631TIP3    H168308   0.290   5.092  14.386 -0.3919 -0.8067  0.6282
15631TIP3    H268309   0.257   5.229  14.441  0.3338 -0.4569  0.2016
15632TIP3   OH268310   2.457   0.279   2.089 -0.0356  0.0806  0.2297
15632TIP3    H168311   2.434   0.356   2.037  0.8264  0.1902 -0.0069
15632TIP3    H268312   2.393   0.279   2.160 -0.1407  0.9421  0.1529
15633TIP3   OH268313   4.634   1.016   5.256  0.5168 -0.5115 -0.2506
15633TIP3    H168314   4.632   1.106   5.222  1.6273 -0.9841 -1.6938
15633TIP3    H268315   4.543   0.988   5.256 -0.0512  1.0915  1.6745
15634TIP3   OH268316   6.434   1.209  15.872 -0.5861 -0.2037  0.9863
15634TIP3    H168317   6.480   1.175  15.795 -0.8418  1.3608  0.1232
15634TIP3    H268318   6.502   1.256  15.921 -1.2133  2.3039 -0.4033
15635TIP3   OH268319   4.019   6.128  15.657 -0.5599  0.0903  0.3821
15635TIP3    H168320   4.012   6.038  15.688  2.7442 -0.2888  0.3739
15635TIP3    H268321   4.028   6.180  15.737 -2.2870  0.4478  0.3786
15636TIP3   OH268322   1.567   0.144   5.228 -0.2776 -0.0717 -0.0097
15636TIP3    H168323   1.611   0.227   5.246 -3.2472  2.7316 -3.7208
15636TIP3    H268324   1.638   0.081   5.213  2.1674  2.1970  1.2106
15637TIP3   OH268325   0.003   5.162  12.623  0.2450  0.2204  0.6561
15637TIP3    H168326   0.047   5.081  12.649  0.6696  0.5046  0.8390
15637TIP3    H268327   0.047   5.231  12.674 -1.0434  0.4003  1.5497
15638TIP3   OH268328   0.768   0.355  14.237 -0.4615  0.1116  0.0112
15638TIP3    H168329   0.848   0.406  14.256  0.3699 -0.3325 -2.0816
15638TIP3    H268330   0.699   0.401  14.285  1.1597 -0.0333  2.6659
15639TIP3   OH268331   3.188   1.743  12.411 -0.4713 -0.1679 -0.4159
15639TIP3    H168332   3.194   1.782  12.498 -1.1655  0.1170 -0.4880
15639TIP3    H268333   3.115   1.681  12.418  1.3163 -2.3552  0.0304
15640TIP3   OH268334   2.922   3.765   0.598 -0.4923 -0.2010  0.3996
15640TIP3    H168335   2.910   3.855   0.629 -0.6077 -0.3744  0.8694
15640TIP3    H268336   2.836   3.739   0.565 -0.7492 -0.5060  1.2660
15641TIP3   OH268337   6.182   1.626   3.796  0.2395  0.1464  0.3755
15641TIP3    H168338   6.210   1.601   3.708 -0.3900 -1.0179  0.4767
15641TIP3    H268339   6.227   1.565   3.855 -2.6372 -2.1243  0.5141
15642TIP3   OH268340   4.723   6.457  14.797  0.2912 -0.2918  0.2595
15642TIP3    H168341   4.718   6.544  14.837 -0.3693 -0.2585  0.1178
15642TIP3    H268342   4.698   6.471  14.706 -0.8290 -0.7771  0.4721
15643TIP3   OH268343   1.433   6.409   0.676  0.3297  0.3793  0.4915
15643TIP3    H168344   1.435   6.402   0.772  1.2056  0.2767  0.4711
15643TIP3    H268345   1.363   6.472   0.658  0.0405  0.2629  1.1910
15644TIP3   OH268346   0.781   1.613   1.465 -0.2412 -0.0197 -0.4560
15644TIP3    H168347   0.702   1.660   1.439 -1.0496 -1.4964 -0.7915
15644TIP3    H268348   0.820   1.585   1.382  2.1345  2.9061 -0.4797
15645TIP3   OH268349   2.097   6.141   3.682  0.4806  0.1328 -0.5616
15645TIP3    H168350   2.066   6.193   3.756  1.8644  0.0328  0.1351
15645TIP3    H268351   2.027   6.146   3.618 -2.1814 -2.2589  1.8726
15646TIP3   OH268352   0.328   5.579   0.390  0.8651 -0.3756 -0.5512
15646TIP3    H168353   0.234   5.560   0.386  0.7192  0.3031 -0.3500
15646TIP3    H268354   0.342   5.613   0.478  0.7916  2.1207 -1.4365
15647TIP3   OH268355   2.338   4.806  11.260  0.1095  0.1654 -0.0958
15647TIP3    H168356   2.353   4.847  11.175 -2.7030  0.0117 -0.7538
15647TIP3    H268357   2.282   4.868  11.306 -1.5022 -1.4256  0.1615
15648TIP3   OH268358   4.514   5.737   2.188  0.0870  0.1476 -0.0584
15648TIP3    H168359   4.597   5.688   2.193  0.8432  1.4697  0.7322
15648TIP3    H268360   4.540   5.827   2.171 -1.0974  0.8392  1.5251
15649TIP3   OH268361   1.363   6.224  13.864 -0.2503  1.0941 -0.3958
15649TIP3    H168362   1.300   6.280  13.818 -0.4544  0.7146 -0.5888
15649TIP3    H268363   1.397   6.278  13.935 -0.8625  1.2758 -0.2349
15650TIP3   OH268364   4.648   2.156   3.720  0.7931 -0.5195 -0.1989
15650TIP3    H168365   4.649   2.124   3.810 -1.3149 -0.5387 -0.1229
15650TIP3    H268366   4.641   2.252   3.728 -1.4453 -0.6181 -0.2343
15651TIP3   OH268367   3.246   3.953   4.121 -0.6013  0.4550 -0.3852
15651TIP3    H168368   3.280   3.870   4.154 -0.5079 -0.3440 -2.3460
15651TIP3    H268369   3.318   4.015   4.132 -0.4191  0.1146  0.4267
15652TIP3   OH268370   6.283   3.709  15.203  0.2578 -0.0541 -0.3427
15652TIP3    H168371   6.339   3.737  15.131  1.9801 -2.6013 -0.0790
15652TIP3    H268372   6.235   3.634  15.169  0.1505 -0.5103  0.7694
15653TIP3   OH268373   1.858   2.559   2.045  0.4075  0.6184 -0.0117
15653TIP3    H168374   1.848   2.464   2.051  0.1056  0.7080  0.9940
15653TIP3    H268375   1.871   2.576   1.951 -0.1027 -0.3578 -0.2701
15654TIP3   OH268376   6.071   6.533  12.046 -0.2053  0.2257 -0.1720
15654TIP3    H168377   5.994   6.493  12.006  2.1579 -1.5961 -3.4810
15654TIP3    H268378   6.118   6.573  11.972  2.0438  1.1788  1.6435
15655TIP3   OH268379   6.258   5.817   0.152  0.0422  0.5431  0.4145
15655TIP3    H168380   6.236   5.774   0.069  2.2852  0.4275 -0.1989
15655TIP3    H268381   6.252   5.747   0.217 -0.8500  0.4211  0.2132
15656TIP3   OH268382   0.962   2.529   0.584 -0.3220 -0.1067  0.4789
15656TIP3    H168383   1.023   2.481   0.529  0.6257  2.4497 -0.8956
15656TIP3    H268384   0.877   2.519   0.541 -0.4452 -1.7050  1.0554
15657TIP3   OH268385   5.754   6.004  11.954 -0.1447  0.2180  0.6544
15657TIP3    H168386   5.710   5.958  12.026  0.4760  0.4103  1.1642
15657TIP3    H268387   5.686   6.014  11.887 -0.2648 -1.6024  0.4471
15658TIP3   OH268388   0.408   0.466  15.022  0.2892  0.2713 -0.1346
15658TIP3    H168389   0.318   0.433  15.012 -0.0667  0.4782  1.9763
15658TIP3    H268390   0.397   0.560  15.035  0.4526 -0.0837  3.4066
15659TIP3   OH268391   0.453   1.879   1.908  0.0765 -0.3758  0.1612
15659TIP3    H168392   0.503   1.933   1.846  1.0824 -2.9677 -1.4679
15659TIP3    H268393   0.518   1.851   1.972  0.6654 -3.0253 -1.4528
15660TIP3   OH268394   5.366   2.867  14.617  0.2504  0.4513  0.1424
15660TIP3    H168395   5.380   2.919  14.538 -0.4830  0.0344 -0.2729
15660TIP3    H268396   5.277   2.888  14.644  1.1876  2.2218  2.1119
15661TIP3   OH268397   3.075   5.680  17.214  0.2660 -0.0348  0.8803
15661TIP3    H168398   2.990   5.637  17.223  0.3517 -0.4009 -0.0245
15661TIP3    H268399   3.055   5.768  17.184  0.2576 -0.5509 -0.7072
15662TIP3   OH268400   4.763   3.862   6.739 -0.0743 -0.5277 -0.6922
15662TIP3    H168401   4.704   3.931   6.709  0.9048 -0.5030 -2.7530
15662TIP3    H268402   4.849   3.904   6.742  0.5582 -1.6349 -2.1164
15663TIP3   OH268403   3.088   6.694   5.336 -0.2243  0.1687  0.2311
15663TIP3    H168404   3.087   6.624   5.401  0.5359 -0.1248 -0.0610
15663TIP3    H268405   3.128   6.654   5.258  0.0851  0.8774  0.0160
15664TIP3   OH268406   2.570   2.967  16.295 -0.3353 -0.7206  0.3312
15664TIP3    H168407   2.579   2.995  16.204  1.3804  0.8105  0.9111
15664TIP3    H268408   2.480   2.991  16.319 -0.0555  1.0999 -0.2828
15665TIP3   OH268409   4.614   2.095  11.862 -0.1883 -0.5659 -0.4074
15665TIP3    H168410   4.706   2.102  11.886 -0.8048  0.0526  1.9955
15665TIP3    H268411   4.614   2.046  11.780  2.2703 -0.4542 -0.5278
15666TIP3   OH268412   5.363   6.595   1.614 -0.0184 -0.5464  0.2522
15666TIP3    H168413   5.366   6.619   1.707 -0.9715 -1.8268  0.6333
15666TIP3    H268414   5.425   6.655   1.573  1.1863 -0.6137  1.8614
15667TIP3   OH268415   5.835   6.364   3.835 -0.8151  0.0258  0.0726
15667TIP3    H168416   5.848   6.339   3.927  1.1813  1.2137  0.1786
15667TIP3    H268417   5.793   6.450   3.838  0.3839  0.6412 -0.0558
15668TIP3   OH268418   1.323   3.812  13.373  0.3974 -0.0180  0.4821
15668TIP3    H168419   1.345   3.860  13.293 -0.2772  1.2136  1.0108
15668TIP3    H268420   1.365   3.862  13.443 -1.0184  0.3046  1.1335
15669TIP3   OH268421   5.226   6.414  17.016  0.1914 -0.4339 -0.3709
15669TIP3    H168422   5.204   6.464  17.094  1.3686 -1.5267  0.7316
15669TIP3    H268423   5.148   6.417  16.962 -0.8904 -0.1640  1.1426
15670TIP3   OH268424   6.714   1.110  16.709 -0.1485 -0.2893  0.9342
15670TIP3    H168425   6.654   1.159  16.765 -2.0773 -0.6964 -0.6998
15670TIP3    H268426   6.780   1.174  16.683  0.3132  0.1200  2.8977
15671TIP3   OH268427   0.861   3.875   4.053  0.0820 -0.3937  0.2070
15671TIP3    H168428   0.921   3.810   4.018  0.4181  0.3616 -0.6662
15671TIP3    H268429   0.797   3.889   3.983 -1.5414 -1.6504  1.3416
15672TIP3   OH268430   1.242   6.603   4.609  0.1910  0.0622 -0.2674
15672TIP3    H168431   1.294   6.672   4.568 -1.0361  2.9868  2.7173
15672TIP3    H268432   1.151   6.629   4.593 -0.3049 -0.8319  0.9741
15673TIP3   OH268433   0.858   3.554  17.284 -0.0391  0.2411 -0.6422
15673TIP3    H168434   0.822   3.592  17.364  1.3412 -1.0355  0.6624
15673TIP3    H268435   0.795   3.576  17.216 -1.7524  0.5689  0.9693
15674TIP3   OH268436   4.833   5.946   6.681  0.4630 -0.2961 -0.5697
15674TIP3    H168437   4.835   5.996   6.600  2.2386 -1.2541 -1.1633
15674TIP3    H268438   4.812   6.011   6.748  0.0086  0.7101 -1.6509
15675TIP3   OH268439   0.005   5.664  16.140 -0.0719  0.5623 -0.3072
15675TIP3    H168440   0.005   5.591  16.078 -0.5272 -0.3381  0.7162
15675TIP3    H268441  -0.059   5.725  16.104 -1.7391 -0.8020  0.1784
15676TIP3   OH268442   5.895   5.013  13.706  0.1723  0.0036 -0.6060
15676TIP3    H168443   5.959   4.942  13.713  1.0448  0.7926 -0.3672
15676TIP3    H268444   5.942   5.084  13.661 -0.3101  0.8460  0.1811
15677TIP3   OH268445   4.527   1.515  17.198 -0.4419 -0.2653  0.2877
15677TIP3    H168446   4.607   1.470  17.225  0.2488  0.9387  0.3165
15677TIP3    H268447   4.512   1.486  17.108 -0.1048 -0.6692  0.3583
15678TIP3   OH268448   6.061   4.457   1.733  0.7543  0.4346 -0.3973
15678TIP3    H168449   6.014   4.377   1.757  0.6971  1.1058  1.9591
15678TIP3    H268450   6.146   4.448   1.776  0.4969  1.9124  0.4718
15679TIP3   OH268451   2.870   3.969  16.618  0.0173  0.0057 -0.0537
15679TIP3    H168452   2.936   4.017  16.667  0.7240  0.2162 -1.1721
15679TIP3    H268453   2.852   4.024  16.542 -0.1037 -0.8972 -0.7007
15680TIP3   OH268454   4.842   5.848  11.571  0.1647  0.5096  0.5618
15680TIP3    H168455   4.816   5.864  11.480 -0.5527 -0.6210  0.5421
15680TIP3    H268456   4.793   5.913  11.621  0.1010  0.7491  0.1923
15681TIP3   OH268457   4.169   3.075  14.207  0.2834  0.0752  0.5009
15681TIP3    H168458   4.080   3.108  14.189  0.6061  0.3200 -0.7595
15681TIP3    H268459   4.214   3.150  14.245 -0.2713 -0.2988  1.9534
15682TIP3   OH268460   3.469   4.757   4.745 -0.2090 -0.0395  0.5742
15682TIP3    H168461   3.477   4.667   4.712 -0.0588  0.2013 -0.0721
15682TIP3    H268462   3.550   4.800   4.716 -0.2720  0.2974  0.8931
15683TIP3   OH268463   3.576   2.821  14.544  0.0567 -0.1580  0.1753
15683TIP3    H168464   3.586   2.890  14.479  1.0160  0.5548  1.0542
15683TIP3    H268465   3.603   2.861  14.627 -0.1754 -1.3379  0.8492
15684TIP3   OH268466   0.928   5.024  16.385 -0.0452  0.4286  0.2900
15684TIP3    H168467   1.007   4.982  16.350 -0.8370 -1.5004  0.6854
15684TIP3    H268468   0.856   4.975  16.346 -1.0813  2.1337 -0.0265
15685TIP3   OH268469   3.920   4.438  15.529  0.0414  0.0266  0.3885
15685TIP3    H168470   3.941   4.436  15.623 -0.2018  2.2232  0.5611
15685TIP3    H268471   3.993   4.485  15.489 -0.3110 -0.0687 -0.3815
15686TIP3   OH268472   1.527   2.509  12.009 -0.2413  0.3737 -0.2904
15686TIP3    H168473   1.508   2.430  12.060  1.5952 -0.5342 -0.9282
15686TIP3    H268474   1.597   2.553  12.058  1.4506 -0.4336 -1.8672
15687TIP3   OH268475   6.753   0.903   5.902 -0.5201 -0.2007  0.2641
15687TIP3    H168476   6.775   0.914   5.809 -1.0771 -1.7227 -0.0804
15687TIP3    H268477   6.676   0.958   5.915 -1.4650 -1.2661 -0.6241
15688TIP3   OH268478   3.997   2.758   1.860  0.4105 -0.5281  0.0626
15688TIP3    H168479   4.027   2.682   1.810 -0.3183 -0.9929  0.3078
15688TIP3    H268480   3.954   2.814   1.795 -0.5571 -1.1428  0.1558
15689TIP3   OH268481   3.914   5.947   4.843 -0.4841  0.3367 -0.5873
15689TIP3    H168482   3.923   5.872   4.785 -0.3302 -0.2064  0.1191
15689TIP3    H268483   3.995   5.997   4.830  0.3659 -0.7058  0.4144
15690TIP3   OH268484   3.002   0.471   2.332 -0.2612 -0.1591 -0.1363
15690TIP3    H168485   2.940   0.513   2.272 -1.8404 -1.0823  0.7904
15690TIP3    H268486   3.037   0.397   2.282 -0.5123 -0.1087 -0.3901
15691TIP3   OH268487   1.419   0.698  16.450  0.5854 -0.2241  0.3078
15691TIP3    H168488   1.418   0.684  16.355  0.2216 -0.3003  0.3216
15691TIP3    H268489   1.350   0.640  16.483 -0.6867  1.3038  0.4192
15692TIP3   OH268490   1.768   5.815  12.839 -0.3009  0.2830  0.5235
15692TIP3    H168491   1.702   5.867  12.793  0.5357  1.2564  0.3730
15692TIP3    H268492   1.724   5.786  12.919 -0.3766  2.4913  1.3429
15693TIP3   OH268493   6.192   0.583   1.299  0.3153 -0.1743  0.0091
15693TIP3    H168494   6.281   0.620   1.307  0.0787  0.3733  0.1683
15693TIP3    H268495   6.178   0.536   1.381 -0.2936  1.4302  0.8672
15694TIP3   OH268496   2.671   6.739   0.437  0.1426  0.2261  0.1487
15694TIP3    H168497   2.689   6.827   0.405 -0.2612  0.2140 -0.1331
15694TIP3    H268498   2.601   6.751   0.501 -1.6619 -0.1061 -1.6248
15695TIP3   OH268499   6.719   2.510   3.148 -0.5153  0.5482  0.1915
15695TIP3    H168500   6.792   2.541   3.202  0.6321  0.6426 -1.3502
15695TIP3    H268501   6.745   2.422   3.121  1.2219  2.0580 -3.9042
15696TIP3   OH268502   0.215   4.468   6.720 -0.4882 -0.5153 -0.1944
15696TIP3    H168503   0.130   4.508   6.700 -0.1902 -0.2679 -0.9865
15696TIP3    H268504   0.224   4.479   6.814 -1.4638 -0.7906 -0.0501
15697TIP3   OH268505   3.766   3.697  14.604  0.1786  0.0895  0.0781
15697TIP3    H168506   3.750   3.735  14.518 -0.5239 -1.2579 -0.4198
15697TIP3    H268507   3.846   3.646  14.594 -0.2182 -0.5424  0.0422
15698TIP3   OH268508   1.965   0.544   2.624  0.1476 -0.1046 -0.6543
15698TIP3    H168509   1.919   0.542   2.708  0.4399 -0.9344 -0.5066
15698TIP3    H268510   1.957   0.635   2.594  1.5748  0.6678  1.1324
15699TIP3   OH268511   4.881   5.852  15.880  0.0108 -0.4354  0.0635
15699TIP3    H168512   4.942   5.908  15.831  0.4706 -2.9063 -2.4449
15699TIP3    H268513   4.872   5.895  15.964  2.5639  1.8574 -0.6834
15700TIP3   OH268514   2.691   2.558   5.597  0.1762 -0.3876 -0.3303
15700TIP3    H168515   2.671   2.643   5.635  0.0409 -1.0013  1.0571
15700TIP3    H268516   2.774   2.570   5.550  1.3347  0.0114  1.7142
15701TIP3   OH268517   3.832   3.976   2.744 -0.7620  0.3772  0.1966
15701TIP3    H168518   3.915   3.929   2.752 -1.2099 -0.5059 -0.2233
15701TIP3    H268519   3.774   3.934   2.808 -0.4462  2.0518  1.6841
15702TIP3   OH268520   0.936   1.348   4.295 -0.3323 -0.3484 -0.4415
15702TIP3    H168521   0.898   1.435   4.290 -0.0512  0.0776  2.8535
15702TIP3    H268522   0.861   1.290   4.311 -0.2454 -0.3222  0.0770
15703TIP3   OH268523   5.258   6.414  14.637 -0.2067 -0.1179 -0.0028
15703TIP3    H168524   5.182   6.463  14.667  0.3603  1.2521 -0.7168
15703TIP3    H268525   5.243   6.400  14.544  1.2736  1.9531 -0.6381
15704TIP3   OH268526   3.689   2.818  11.981 -0.4824  0.3211  0.3042
15704TIP3    H168527   3.783   2.828  11.967 -0.0855 -0.4337  2.0648
15704TIP3    H268528   3.683   2.770  12.064 -2.4376  1.0946  0.6566
15705TIP3   OH268529   0.707   0.015  13.066  0.3205 -0.3797 -0.3774
15705TIP3    H168530   0.778  -0.042  13.037  0.9862 -0.5866  1.5070
15705TIP3    H268531   0.645  -0.044  13.108  0.6059  0.1685  0.8452
15706TIP3   OH268532   3.498   4.776   4.347  0.1604 -0.8504 -0.4830
15706TIP3    H168533   3.554   4.781   4.270  0.3367  0.1260 -0.2986
15706TIP3    H268534   3.502   4.863   4.386 -1.2848 -0.8350 -0.3189
15707TIP3   OH268535   5.285   4.545  16.017 -0.1603 -0.5655  0.5253
15707TIP3    H168536   5.338   4.593  16.081  0.3051 -1.2533  0.6669
15707TIP3    H268537   5.317   4.455  16.022 -2.4505 -1.3924  1.8317
15708TIP3   OH268538   6.428   1.926  12.727 -0.1544 -0.4977  0.1756
15708TIP3    H168539   6.506   1.894  12.681  0.6084 -0.2152  1.2539
15708TIP3    H268540   6.453   1.927  12.819 -1.4569 -0.4471  0.5450
15709TIP3   OH268541   2.654   4.345   2.502 -0.0040  0.2505  0.0261
15709TIP3    H168542   2.730   4.334   2.560  1.4970  0.7305 -1.7345
15709TIP3    H268543   2.638   4.257   2.467  1.1378  0.4725 -1.1682
15710TIP3   OH268544   2.260   1.934   1.153  0.2740  0.9591  0.6004
15710TIP3    H168545   2.298   1.872   1.215  1.5421 -1.6319 -2.5083
15710TIP3    H268546   2.329   2.000   1.141  0.1221  1.3346  1.6771
15711TIP3   OH268547   1.530   5.104   5.926  0.4375  0.1789 -0.0710
15711TIP3    H168548   1.455   5.107   5.984  0.4120  1.2419 -0.1399
15711TIP3    H268549   1.597   5.057   5.976  0.3025  0.7658  0.6778
15712TIP3   OH268550   6.492   0.553   1.727  0.4299 -0.0173  0.0793
15712TIP3    H168551   6.416   0.606   1.701  0.1472 -0.6405 -0.3986
15712TIP3    H268552   6.511   0.500   1.650  0.5577 -0.7881  0.6373
15713TIP3   OH268553   2.947   5.217  11.886 -0.0020 -0.0712  0.2061
15713TIP3    H168554   2.893   5.278  11.836  1.0284 -0.6644 -1.7313
15713TIP3    H268555   3.021   5.198  11.829  0.1879 -2.4066  1.1136
15714TIP3   OH268556   3.067   5.013  16.522 -0.5684  0.1238  0.2299
15714TIP3    H168557   2.979   5.028  16.555 -0.4463  1.1946  0.1060
15714TIP3    H268558   3.124   5.028  16.598 -0.5201 -1.3735  0.5230
15715TIP3   OH268559   4.815   4.546  13.334  0.0645 -0.3007  0.3867
15715TIP3    H168560   4.726   4.511  13.341 -0.2359  0.7505  3.7696
15715TIP3    H268561   4.813   4.626  13.386  2.7066  0.4397 -0.5107
15716TIP3   OH268562   1.783   0.134  10.906 -0.1510  0.0542 -0.2737
15716TIP3    H168563   1.829   0.187  10.842  1.0568  0.4340  0.8525
15716TIP3    H268564   1.808   0.044  10.885  0.5691  0.2086 -0.0937
15717TIP3   OH268565   3.219   1.875   3.672  0.3875 -0.3688  0.3162
15717TIP3    H168566   3.162   1.859   3.747  0.7330 -1.0674  0.4360
15717TIP3    H268567   3.181   1.952   3.629  0.0392 -0.1161  1.0569
15718TIP3   OH268568   3.222   0.879   2.294  0.0479 -0.3574  0.6394
15718TIP3    H168569   3.271   0.860   2.214  0.4688  2.5198  0.1200
15718TIP3    H268570   3.136   0.840   2.279 -0.1639  0.8496 -1.6352
15719TIP3   OH268571   0.613   5.904  14.080 -0.1967 -0.6028 -0.3832
15719TIP3    H168572   0.610   5.818  14.120 -0.8014 -0.3900  0.0442
15719TIP3    H268573   0.675   5.895  14.008 -0.2533 -1.3922 -0.3399
15720TIP3   OH268574   2.173   3.834  12.369 -0.8223  0.0841 -0.5614
15720TIP3    H168575   2.258   3.876  12.374 -1.3327  1.1320 -0.4158
15720TIP3    H268576   2.183   3.753  12.421 -0.2879  0.8400  0.5503
15721TIP3   OH268577   0.066   4.798  11.508 -0.3028  0.1108 -0.1384
15721TIP3    H168578  -0.020   4.768  11.479  0.0332  0.6024 -1.7524
15721TIP3    H268579   0.128   4.739  11.466  0.1812 -0.1114  0.8461
15722TIP3   OH268580   4.540   6.131  12.295  0.1957 -0.1212  0.0754
15722TIP3    H168581   4.472   6.196  12.274  0.5789  0.2975  0.1063
15722TIP3    H268582   4.527   6.111  12.388 -0.5826 -0.8792 -0.1893
15723TIP3   OH268583   4.424   3.988   1.711 -0.6314  0.4168  0.7535
15723TIP3    H168584   4.465   3.907   1.740  0.4140  0.1675 -1.2647
15723TIP3    H268585   4.479   4.058   1.748 -0.6963  0.1912  1.2906
15724TIP3   OH268586   6.203   3.250   1.328 -0.0985  0.1539  0.0668
15724TIP3    H168587   6.221   3.275   1.237  1.1011  0.8428  0.4634
15724TIP3    H268588   6.127   3.193   1.323  0.6656 -0.8122 -1.5058
15725TIP3   OH268589   1.627   1.278  11.272  0.2526  0.6177  0.1977
15725TIP3    H168590   1.648   1.335  11.346 -0.4233  0.9874  0.1099
15725TIP3    H268591   1.587   1.336  11.207  0.2160  0.1727 -0.1840
15726TIP3   OH268592   0.321   3.264   4.017 -0.1187  0.0797  0.4546
15726TIP3    H168593   0.259   3.269   4.090 -0.3392  0.3607  0.2479
15726TIP3    H268594   0.340   3.170   4.008  0.6300  0.1221  1.4687
15727TIP3   OH268595   6.640   2.305  13.055  0.3735 -0.1972 -0.6411
15727TIP3    H168596   6.707   2.278  13.117 -0.0722  0.3994  0.1227
15727TIP3    H268597   6.687   2.356  12.989  0.4395  2.0660  1.0296
15728TIP3   OH268598   3.993   5.854   3.042  0.3950  0.2128  0.5512
15728TIP3    H168599   3.983   5.861   3.137 -1.2050 -0.5875  0.4812
15728TIP3    H268600   3.927   5.790   3.016  0.7765  0.4538 -1.1157
15729TIP3   OH268601   3.759   5.527  12.881 -0.3464 -0.2830 -0.2233
15729TIP3    H168602   3.731   5.581  12.808  0.8823  1.3888  0.4762
15729TIP3    H268603   3.771   5.440  12.843 -0.5316  0.3490 -1.8100
15730TIP3   OH268604   6.165   6.203  15.362 -0.0783  0.1863 -1.1330
15730TIP3    H168605   6.085   6.150  15.353  1.0776 -1.7348 -0.8429
15730TIP3    H268606   6.156   6.272  15.297 -1.9704  0.0110 -1.1118
15731TIP3   OH268607   5.432   5.561   3.424 -0.3986 -0.4507 -0.1961
15731TIP3    H168608   5.357   5.559   3.365 -0.3784  0.1301 -0.2389
15731TIP3    H268609   5.502   5.518   3.374 -0.6868 -0.9601 -0.1686
15732TIP3   OH268610   1.287   6.567  12.226  0.1965 -0.9759 -0.0509
15732TIP3    H168611   1.304   6.590  12.318  1.8881 -1.3111 -0.2375
15732TIP3    H268612   1.370   6.585  12.182 -1.2481  1.5113 -2.0227
15733TIP3   OH268613   0.658   1.329  14.973  0.1747 -0.1556 -0.5507
15733TIP3    H168614   0.751   1.328  14.995  0.2496 -0.4953 -0.8744
15733TIP3    H268615   0.642   1.417  14.939  0.2400  0.1036  0.0815
15734TIP3   OH268616   2.610   0.536  12.026  0.6689  0.3370  0.0038
15734TIP3    H168617   2.522   0.547  12.062 -0.3870 -2.2789 -1.4391
15734TIP3    H268618   2.669   0.551  12.100 -0.9242  2.3641  0.9677
15735TIP3   OH268619   2.520   3.827   2.671 -0.3542  0.2365  0.1000
15735TIP3    H168620   2.536   3.787   2.757 -0.7613 -0.2985 -0.0664
15735TIP3    H268621   2.450   3.774   2.633  0.0207  0.2876 -0.6803
15736TIP3   OH268622   5.273   6.584   3.857  0.2768  0.2769  0.0358
15736TIP3    H168623   5.223   6.535   3.792 -0.4710 -0.1931  0.9403
15736TIP3    H268624   5.246   6.675   3.845  0.4521  0.2550 -0.5678
15737TIP3   OH268625   4.586   6.635  13.266  0.4062 -0.1316  0.4995
15737TIP3    H168626   4.545   6.707  13.315  1.1147 -0.5249  1.7091
15737TIP3    H268627   4.534   6.558  13.289 -0.1584 -0.0758 -0.5447
15738TIP3   OH268628   0.614   5.773   4.513 -0.2566 -0.4414  0.4454
15738TIP3    H168629   0.613   5.849   4.571  0.8930  0.8976 -1.2061
15738TIP3    H268630   0.695   5.726   4.534  0.6012  0.5184 -0.6015
15739TIP3   OH268631   3.178   3.038   3.241 -0.1543 -0.0762 -0.0476
15739TIP3    H168632   3.242   2.979   3.281 -0.3141 -0.0485  0.2519
15739TIP3    H268633   3.189   3.025   3.147 -0.2378 -0.6340  0.0174
15740TIP3   OH268634   1.071   3.859   3.187 -0.3543  0.1458  0.5968
15740TIP3    H168635   1.026   3.839   3.269 -2.5370 -0.6475 -0.7112
15740TIP3    H268636   1.056   3.783   3.132  1.8249  0.2883 -0.2824
15741TIP3   OH268637   1.859   5.570  13.299 -0.0919 -0.6653 -0.2268
15741TIP3    H168638   1.894   5.484  13.278 -2.4698 -1.8827  0.4350
15741TIP3    H268639   1.923   5.609  13.358  0.2035 -2.7425  0.9220
15742TIP3   OH268640   1.328   3.040  16.528 -0.5238 -0.1882 -0.2036
15742TIP3    H168641   1.261   3.008  16.589 -0.1165  1.1010  0.9738
15742TIP3    H268642   1.307   3.133  16.517 -0.4323 -0.3477 -1.8632
15743TIP3   OH268643   4.559   4.353   2.449  0.3883  0.3751  0.0149
15743TIP3    H168644   4.599   4.391   2.371  1.8332 -2.1346 -0.5527
15743TIP3    H268645   4.592   4.406   2.521  1.5804  0.7850 -0.8017
15744TIP3   OH268646   4.975   2.331  13.669  0.1304  0.6667 -0.2910
15744TIP3    H168647   5.044   2.342  13.735  1.3465  2.0319 -1.7358
15744TIP3    H268648   4.940   2.419  13.656  1.7581  0.9718 -3.3578
15745TIP3   OH268649   3.353   5.064  15.019  0.0796  0.0873  0.4262
15745TIP3    H168650   3.272   5.053  15.069  0.3325  1.4844  1.2256
15745TIP3    H268651   3.421   5.032  15.078  0.1994 -0.0958  0.1863
15746TIP3   OH268652   0.885   1.555   5.187 -0.0606  0.1273 -0.5186
15746TIP3    H168653   0.978   1.572   5.175  0.5381 -3.2478 -1.9322
15746TIP3    H268654   0.864   1.489   5.120 -2.8069 -1.2269  1.4780
15747TIP3   OH268655   5.314   3.660  17.233  0.3393 -0.2872 -0.1195
15747TIP3    H168656   5.348   3.571  17.239  0.0747 -0.3166  1.2645
15747TIP3    H268657   5.238   3.653  17.176  1.8039 -0.4474 -2.1664
15748TIP3   OH268658   0.919   1.761   3.538  0.4147 -0.0653 -0.0622
15748TIP3    H168659   0.842   1.760   3.482 -0.1586 -0.9400  0.7084
15748TIP3    H268660   0.991   1.782   3.479 -0.2173 -0.5987 -1.0653
15749TIP3   OH268661   2.681   2.883   3.184 -0.3369  0.4985  0.1883
15749TIP3    H168662   2.622   2.956   3.201 -0.6498  0.6491 -1.3240
15749TIP3    H268663   2.736   2.913   3.111  0.5706 -0.2136  0.5480
15750TIP3   OH268664   3.563   0.229   5.280  0.1526 -0.5412 -0.5475
15750TIP3    H168665   3.534   0.138   5.271 -0.7421 -0.4845  1.2945
15750TIP3    H268666   3.644   0.223   5.331 -0.7298 -0.2389  0.9313
15751TIP3   OH268667   0.000   6.027  16.365  0.1879  0.1067 -0.1369
15751TIP3    H168668  -0.005   6.009  16.459  1.2384  1.7406  0.2703
15751TIP3    H268669   0.022   5.943  16.326 -2.8512 -1.2132  0.7508
15752TIP3   OH268670   0.171   4.446  12.436  0.5178  0.0950  0.6456
15752TIP3    H168671   0.174   4.352  12.417 -0.4652  0.1380  0.2380
15752TIP3    H268672   0.089   4.459  12.482 -0.1082  0.9763 -0.6483
15753TIP3   OH268673   1.620   4.942  13.015 -0.2001 -0.4993 -0.2402
15753TIP3    H168674   1.633   4.853  12.981  0.2976 -0.9193  0.9809
15753TIP3    H268675   1.708   4.974  13.031 -0.4186 -0.6775  1.4970
15754TIP3   OH268676   3.803   3.041   1.312  0.2355 -0.1151 -0.2524
15754TIP3    H168677   3.721   3.086   1.292  0.6897  0.9493  0.2436
15754TIP3    H268678   3.841   3.023   1.226  0.1635  0.6867 -0.4634
15755TIP3   OH268679   5.578   4.504  10.854  0.1663 -0.1577 -0.1570
15755TIP3    H168680   5.644   4.446  10.815  0.6689 -0.1155  0.6102
15755TIP3    H268681   5.500   4.450  10.861  0.8269 -0.9869  1.2013
15756TIP3   OH268682   0.388   1.207   5.799  0.1100 -0.3014  0.5722
15756TIP3    H168683   0.439   1.225   5.878  0.4233 -0.4894  0.4145
15756TIP3    H268684   0.302   1.181   5.831 -0.0272  0.4537  0.8300
15757TIP3   OH268685   2.438   1.659   1.773  0.0063 -0.6815 -0.5124
15757TIP3    H168686   2.347   1.639   1.793 -0.1781  0.2474 -0.3979
15757TIP3    H268687   2.486   1.635   1.852 -0.3459  0.2405  0.0026
15758TIP3   OH268688   2.792   2.834  16.870 -0.1357  0.0430  0.5185
15758TIP3    H168689   2.832   2.821  16.956 -0.0707  1.2522  0.7001
15758TIP3    H268690   2.750   2.920  16.876  1.6253  1.1249 -1.2859
15759TIP3   OH268691   1.388   3.792   3.302  0.0836 -0.0213 -0.7504
15759TIP3    H168692   1.385   3.696   3.304  2.2293 -0.1605  1.2525
15759TIP3    H268693   1.475   3.812   3.268 -0.1411  1.2044 -0.6473
15760TIP3   OH268694   6.085   4.223   2.171 -0.4217 -1.0428 -0.3625
15760TIP3    H168695   6.119   4.214   2.260  2.2910 -0.1437 -1.1862
15760TIP3    H268696   6.003   4.271   2.181 -0.7107 -1.8620  1.6964
15761TIP3   OH268697   5.953   2.432   1.033 -0.0257 -0.2600  0.1982
15761TIP3    H168698   5.929   2.488   0.959  1.8138 -0.3848 -0.5626
15761TIP3    H268699   5.871   2.415   1.078 -1.0811  0.5415 -1.3213
15762TIP3   OH268700   4.061   2.214  11.947 -0.0493  0.5690 -0.0426
15762TIP3    H168701   4.020   2.200  12.032 -1.4161  1.9344 -0.4449
15762TIP3    H268702   4.075   2.126  11.912  0.3789 -0.0047  1.4885
15763TIP3   OH268703   4.719   6.304   0.458  0.7236 -0.3134 -0.3272
15763TIP3    H168704   4.660   6.366   0.415  0.6271  0.1516  0.4432
15763TIP3    H268705   4.681   6.218   0.441 -0.1341 -0.0238  0.0698
15764TIP3   OH268706   6.097   0.534   5.661 -0.1822 -0.1895  0.4132
15764TIP3    H168707   6.084   0.603   5.726 -0.0985 -0.8396  1.1352
15764TIP3    H268708   6.101   0.453   5.712  1.3023 -0.5805 -0.2642
15765TIP3   OH268709   4.193   4.486   1.182  0.1728  0.3565 -0.1839
15765TIP3    H168710   4.246   4.498   1.104 -0.3316 -0.3229 -0.6432
15765TIP3    H268711   4.110   4.450   1.150  0.2585 -0.7146  0.7356
15766TIP3   OH268712   2.222   5.394   4.955  0.1183  0.3351 -0.1344
15766TIP3    H168713   2.207   5.310   4.912  1.0912 -0.9025  1.7850
15766TIP3    H268714   2.139   5.441   4.946 -1.3623 -1.8852  0.8979
15767TIP3   OH268715   2.376   0.874  11.363 -0.0358 -0.3103  0.1474
15767TIP3    H168716   2.382   0.886  11.268 -0.4145  0.6775  0.2326
15767TIP3    H268717   2.381   0.780  11.376 -0.5794 -0.4972 -0.8968
15768TIP3   OH268718   4.968   4.888   5.758 -0.3126 -0.1559  0.4668
15768TIP3    H168719   5.008   4.888   5.671 -1.2990 -0.5521  0.0027
15768TIP3    H268720   5.022   4.827   5.809  1.4998  1.5777  0.7505
15769TIP3   OH268721   4.388   4.850  14.001 -0.4103  0.1182  0.7913
15769TIP3    H168722   4.434   4.913  14.056  1.6682  0.0724 -0.7824
15769TIP3    H268723   4.453   4.784  13.979 -1.5035 -0.5534 -0.6603
15770TIP3   OH268724   2.953   1.425  13.378 -0.0174  0.0398  0.4895
15770TIP3    H168725   2.894   1.492  13.412  1.5246  0.9133  1.5481
15770TIP3    H268726   2.979   1.458  13.292  1.7914  1.5362  1.5607
15771TIP3   OH268727   4.909   0.643   4.982  0.3566  0.0072 -0.1830
15771TIP3    H168728   4.961   0.719   4.956  0.4611 -0.0098 -0.0224
15771TIP3    H268729   4.973   0.579   5.014  0.0498  1.0872  2.8843
15772TIP3   OH268730   1.285   4.474   2.389  0.0670  0.2745  0.5941
15772TIP3    H168731   1.196   4.452   2.418 -0.4352  1.1341 -0.2580
15772TIP3    H268732   1.294   4.431   2.304 -0.0268  1.2973  0.0591
15773TIP3   OH268733   5.019   4.836  16.178 -0.3898  0.7605  0.2553
15773TIP3    H168734   5.088   4.839  16.245 -0.3809  1.5902  0.2264
15773TIP3    H268735   5.019   4.746  16.148  0.3421  0.6248  0.6230
15774TIP3   OH268736   5.979   6.347   5.469 -0.8583 -0.1928  0.2304
15774TIP3    H168737   5.942   6.431   5.495 -2.0674 -1.5056  3.1354
15774TIP3    H268738   6.048   6.330   5.532 -0.2750 -1.1859 -0.6399
15775TIP3   OH268739   4.518   5.491  11.049 -0.4390 -0.5206 -0.0969
15775TIP3    H168740   4.612   5.477  11.062 -0.2562  0.7941  0.1018
15775TIP3    H268741   4.477   5.453  11.126  0.0370  0.0729  0.4546
15776TIP3   OH268742   3.298   0.874   5.402 -0.2344  0.1976 -0.0096
15776TIP3    H168743   3.359   0.934   5.445 -1.0649  0.0443  1.4486
15776TIP3    H268744   3.337   0.788   5.414 -0.5759  0.1315  0.6493
15777TIP3   OH268745   6.662   2.073  14.608 -0.3420 -0.0492  1.1205
15777TIP3    H168746   6.654   2.066  14.703 -0.3913  1.9532  1.3045
15777TIP3    H268747   6.736   2.016  14.586 -0.7868 -1.0938  2.2550
15778TIP3   OH268748   2.156   2.609  16.963  0.3541 -0.6310 -0.2479
15778TIP3    H168749   2.197   2.546  16.903 -1.3829 -0.9961 -1.1155
15778TIP3    H268750   2.076   2.636  16.918 -1.1594 -1.0962  1.9833
15779TIP3   OH268751   3.998   3.499   2.495 -0.4440  0.0178 -0.4646
15779TIP3    H168752   3.965   3.487   2.406  0.0286 -0.0952 -0.6309
15779TIP3    H268753   4.000   3.594   2.507  1.1614  0.1142 -1.2355
15780TIP3   OH268754   2.962   0.253  14.010 -0.2401 -0.3947 -0.3705
15780TIP3    H168755   3.025   0.268  13.939 -0.7415 -1.3496 -1.0393
15780TIP3    H268756   2.968   0.159  14.027 -1.0869 -0.3945 -0.0609
15781TIP3   OH268757   0.356   3.085  15.494 -0.4739  0.4695  0.1294
15781TIP3    H168758   0.388   3.014  15.439  1.4128  1.1935  0.2146
15781TIP3    H268759   0.353   3.047  15.582 -2.3262 -0.3264 -0.2279
15782TIP3   OH268760   1.613   2.378   2.300  0.3232  0.3503 -0.0284
15782TIP3    H168761   1.561   2.428   2.237 -1.1182  0.2918  1.0614
15782TIP3    H268762   1.585   2.410   2.385  2.1588  0.3487  0.6202
15783TIP3   OH268763   6.530   3.876   0.927 -0.1057 -0.6837 -0.0720
15783TIP3    H168764   6.513   3.811   0.859  0.6551 -0.6073 -0.3441
15783TIP3    H268765   6.548   3.957   0.879 -1.3500 -0.1890  0.2698
15784TIP3   OH268766   0.626   3.093  17.377  0.3710 -0.0948 -0.1119
15784TIP3    H168767   0.621   3.028  17.446  0.7406 -1.1772 -1.0620
15784TIP3    H268768   0.644   3.042  17.298  0.1426  1.1154 -0.9751
15785TIP3   OH268769   0.762   1.564  15.673  0.5099  0.6218 -0.0354
15785TIP3    H168770   0.770   1.514  15.754 -2.6972 -1.0829 -0.5796
15785TIP3    H268771   0.800   1.507  15.606 -0.5483  0.1458 -0.2526
15786TIP3   OH268772   6.354   0.861   5.759 -0.1185 -0.3964  0.3204
15786TIP3    H168773   6.406   0.929   5.803 -0.2901  0.7451 -1.1543
15786TIP3    H268774   6.411   0.784   5.759 -0.1544 -0.4758  2.5626
15787TIP3   OH268775   0.176   3.109  11.610 -0.1977  0.0303  0.3023
15787TIP3    H168776   0.119   3.113  11.686 -0.6970  1.6131 -0.1264
15787TIP3    H268777   0.137   3.041  11.555 -0.8093  0.0551  0.6922
15788TIP3   OH268778   6.035   6.090  15.697 -0.0575  0.4724  0.5212
15788TIP3    H168779   6.072   6.002  15.711 -0.5767  0.0889 -0.4236
15788TIP3    H268780   5.947   6.074  15.662 -0.6019  1.3769  1.4165
15789TIP3   OH268781   1.868   1.341  15.156 -1.0312  0.4142  0.0522
15789TIP3    H168782   1.789   1.395  15.157 -2.2212 -1.2465  1.6910
15789TIP3    H268783   1.845   1.265  15.102 -0.6271 -0.1528  0.6613
15790TIP3   OH268784   1.013   6.410   3.295  0.1824 -0.2318  0.2171
15790TIP3    H168785   0.949   6.453   3.238  0.0345 -0.1826  0.4172
15790TIP3    H268786   0.959   6.362   3.359  0.3454  0.0029  0.5326
15791TIP3   OH268787   6.410   4.509   4.433  0.0302  0.4498 -0.3481
15791TIP3    H168788   6.407   4.432   4.376 -0.0423 -0.5687  0.9743
15791TIP3    H268789   6.400   4.473   4.522  0.1638  1.9760  0.3110
15792TIP3   OH268790   0.942   1.901   1.248 -0.1209  0.4513 -0.9797
15792TIP3    H168791   0.847   1.909   1.255 -0.1747 -0.5503 -0.3113
15792TIP3    H268792   0.975   1.991   1.251 -0.8241  0.7287  2.5001
15793TIP3   OH268793   1.932   1.921  14.911 -0.1008  0.2552 -0.5351
15793TIP3    H168794   1.874   1.946  14.983 -0.8208  0.8708 -1.2904
15793TIP3    H268795   2.001   1.987  14.911 -1.1075  1.3542 -1.5179
15794TIP3   OH268796   4.904   4.446   5.213  0.1107  0.4663 -0.0885
15794TIP3    H168797   4.857   4.406   5.286 -1.0665  0.2713 -0.9386
15794TIP3    H268798   4.877   4.537   5.213  1.4486  0.8995  0.7596
15795TIP3   OH268799   3.711   3.530  15.950 -0.2404  0.0234 -0.2750
15795TIP3    H168800   3.622   3.497  15.958 -0.1564 -0.3219 -0.7048
15795TIP3    H268801   3.765   3.465  15.995 -0.1332 -0.1352 -0.6279
15796TIP3   OH268802   1.070   6.470   6.617 -0.6539 -0.1540  0.3730
15796TIP3    H168803   1.036   6.415   6.687 -0.5459 -1.6866 -0.7203
15796TIP3    H268804   0.995   6.484   6.559  0.3173 -3.4753 -2.0048
15797TIP3   OH268805   4.015   6.152  13.701  0.4425  0.4228 -0.2043
15797TIP3    H168806   3.961   6.200  13.638  0.8035 -1.1444 -1.7825
15797TIP3    H268807   4.095   6.205  13.709 -0.4143  1.6569  0.5140
15798TIP3   OH268808   5.247   0.300   4.868 -0.2049 -0.2179 -0.0243
15798TIP3    H168809   5.196   0.274   4.944  0.7588 -0.3068  0.6061
15798TIP3    H268810   5.265   0.393   4.882 -0.9613  0.0385 -0.6991
15799TIP3   OH268811   0.558   1.080   1.941 -0.0621 -0.1333  0.0145
15799TIP3    H168812   0.555   1.131   2.023 -0.6812 -1.3266  0.7636
15799TIP3    H268813   0.651   1.070   1.922  0.0732  1.1790 -0.0950
15800TIP3   OH268814   3.215   2.592  14.001  0.3301 -0.6518 -0.2035
15800TIP3    H168815   3.268   2.649  13.945  1.7434 -0.9728  0.7507
15800TIP3    H268816   3.194   2.517  13.946  0.0085 -0.0681 -0.8975
15801TIP3   OH268817   1.651   4.913  11.856 -0.3366  0.0059  0.4221
15801TIP3    H168818   1.675   4.846  11.920  1.6062  1.7588  1.6562
15801TIP3    H268819   1.718   4.907  11.788 -0.1986  0.6003  0.4979
15802TIP3   OH268820   3.097   4.852  12.682 -0.0677 -0.2738 -0.0107
15802TIP3    H168821   3.049   4.934  12.691  0.4037 -0.1391  1.4753
15802TIP3    H268822   3.160   4.853  12.754  0.7265 -1.4179 -0.6606
15803TIP3   OH268823   3.100   0.551   0.914  0.1756  0.0758  0.1697
15803TIP3    H168824   3.090   0.501   0.995  1.9512  0.9189  0.9597
15803TIP3    H268825   3.122   0.640   0.942  0.3353  0.5158 -1.2318
15804TIP3   OH268826   0.165   3.552   1.695 -0.0422 -0.2007  0.0612
15804TIP3    H168827   0.100   3.568   1.763 -0.4216  1.9481 -0.7295
15804TIP3    H268828   0.246   3.533   1.743 -0.5723  0.0703  1.0825
15805TIP3   OH268829   4.828   5.290   0.569 -0.4670 -0.0275  0.7386
15805TIP3    H168830   4.814   5.276   0.475  0.0543 -1.5696  0.8659
15805TIP3    H268831   4.803   5.381   0.583  1.4939  0.9239 -1.3164
15806TIP3   OH268832   5.527   0.715   3.587 -0.5087 -0.1039  0.4777
15806TIP3    H168833   5.607   0.738   3.633  0.5526  0.8400 -1.7005
15806TIP3    H268834   5.541   0.624   3.559 -0.1116  0.1109 -0.0359
15807TIP3   OH268835   2.278   5.755  12.779 -0.5912 -0.0449  0.2063
15807TIP3    H168836   2.308   5.671  12.744 -1.6147 -1.3875  2.2975
15807TIP3    H268837   2.350   5.815  12.762  0.4629 -1.4997 -0.7802
15808TIP3   OH268838   4.512   2.547   2.841 -0.5736  0.6196  0.3126
15808TIP3    H168839   4.549   2.461   2.862 -0.1247  0.8035  0.2898
15808TIP3    H268840   4.463   2.533   2.760 -0.6681  0.3434  0.4146
15809TIP3   OH268841   3.789   0.853  13.046  0.3204  0.7982 -0.4075
15809TIP3    H168842   3.791   0.780  13.108 -2.9281 -0.0551 -1.0849
15809TIP3    H268843   3.810   0.814  12.962 -0.8583  0.7197 -0.6815
15810TIP3   OH268844   3.530   3.631  14.744  0.1127  0.3208  0.3819
15810TIP3    H168845   3.593   3.668  14.682  0.4678 -1.5425 -0.4304
15810TIP3    H268846   3.564   3.544  14.764 -0.2376  0.6851  2.8890
15811TIP3   OH268847   3.995   2.651   3.036 -0.1028  0.0471 -0.2834
15811TIP3    H168848   3.906   2.639   3.003 -0.2988  1.5291 -0.3257
15811TIP3    H268849   3.986   2.644   3.131 -0.0621 -0.9591 -0.3435
15812TIP3   OH268850   1.179   4.125   0.057 -0.4878  0.1637 -0.7477
15812TIP3    H168851   1.100   4.092   0.014 -0.4519  0.9659 -1.4278
15812TIP3    H268852   1.174   4.220   0.048  0.8318  0.1996 -1.2851
15813TIP3   OH268853   2.365   5.060   5.639  0.5759 -0.7605 -0.1636
15813TIP3    H168854   2.428   4.990   5.657  1.5588 -0.2632 -1.4951
15813TIP3    H268855   2.405   5.138   5.677  0.7167 -0.4670 -0.8974
15814TIP3   OH268856   5.745   5.382  16.255  0.1931  0.7370 -0.5860
15814TIP3    H168857   5.702   5.369  16.340 -1.4203  0.6201 -1.3749
15814TIP3    H268858   5.826   5.331  16.261 -0.2815  0.0725  0.5990
15815TIP3   OH268859   3.491   2.031  15.248  0.5848  0.1199 -0.2677
15815TIP3    H168860   3.475   2.061  15.159  1.5951 -0.7150 -0.7542
15815TIP3    H268861   3.531   1.945  15.238 -1.5404 -1.1068  1.0615
15816TIP3   OH268862   0.881   3.994  12.500 -0.1943  1.0755  0.4958
15816TIP3    H168863   0.872   4.067  12.439 -2.2743  0.1958 -0.3449
15816TIP3    H268864   0.848   4.029  12.583 -1.8693  0.9524 -0.0735
15817TIP3   OH268865   2.973   3.217   1.951 -0.1589  0.3060 -0.3854
15817TIP3    H168866   2.994   3.303   1.987 -0.5164 -0.3884  1.6152
15817TIP3    H268867   3.058   3.176   1.935  0.0596 -0.1288  1.6793
15818TIP3   OH268868   1.257   4.131   1.167  0.1303  0.2257  0.1227
15818TIP3    H168869   1.258   4.212   1.218 -0.8954  0.9771 -1.0114
15818TIP3    H268870   1.164   4.114   1.150  0.3277 -1.1843  0.3238
15819TIP3   OH268871   4.142   2.184   2.458 -0.0700  0.2224  0.0690
15819TIP3    H168872   4.147   2.095   2.494 -1.7593  0.2406  0.4214
15819TIP3    H268873   4.194   2.180   2.378 -0.7749 -1.3189 -0.3499
15820TIP3   OH268874   0.430   6.253  13.818 -0.1419  0.5099 -0.4781
15820TIP3    H168875   0.419   6.342  13.852  1.0062  0.5827 -0.2464
15820TIP3    H268876   0.425   6.197  13.895 -1.6992  0.2717 -0.7193
15821TIP3   OH268877   4.676   5.851   2.409 -0.4692 -0.2851  0.2137
15821TIP3    H168878   4.725   5.795   2.348  1.2290 -0.1584  1.3746
15821TIP3    H268879   4.689   5.939   2.375  1.2892 -0.1120  1.2078
15822TIP3   OH268880   6.633   3.778  16.644 -0.6158 -0.3903  0.0381
15822TIP3    H168881   6.582   3.758  16.565 -0.2937 -0.8782 -0.0438
15822TIP3    H268882   6.606   3.867  16.667  0.4632  0.3867 -1.5438
15823TIP3   OH268883   5.405   4.448   4.472  0.1816  0.0267  0.2175
15823TIP3    H168884   5.437   4.374   4.524  1.4603  0.8054  0.6009
15823TIP3    H268885   5.380   4.514   4.537  1.0232  0.7076 -0.1335
15824TIP3   OH268886   4.742   0.635  11.662  0.2040  0.6031 -0.4380
15824TIP3    H168887   4.713   0.636  11.753 -0.8918  2.2543 -0.7497
15824TIP3    H268888   4.685   0.571  11.620  1.9620 -1.5888  0.3457
15825TIP3   OH268889   2.994   5.872   2.826 -0.6501  0.2959  0.1789
15825TIP3    H168890   3.022   5.950   2.777 -2.5718  0.9178 -0.0044
15825TIP3    H268891   2.960   5.813   2.759  0.4443 -0.5761  0.3615
15826TIP3   OH268892   4.750   6.739  11.441  0.0982  0.9906 -0.1873
15826TIP3    H168893   4.699   6.812  11.476  0.9671  1.1389  0.8251
15826TIP3    H268894   4.722   6.731  11.350 -0.4897  2.1469 -0.1230
15827TIP3   OH268895   6.481   4.885  11.774  0.0740 -0.1317  0.2176
15827TIP3    H168896   6.513   4.855  11.860 -0.8782 -2.1996 -0.0799
15827TIP3    H268897   6.560   4.890  11.720  0.5319  0.0223  0.8757
15828TIP3   OH268898   5.956   5.249   2.908 -0.2026  0.3285  0.2403
15828TIP3    H168899   5.892   5.187   2.944 -0.5532  0.4637 -0.1311
15828TIP3    H268900   5.902   5.319   2.870  0.1898  0.8118  0.5701
15829TIP3   OH268901   3.955   1.276   0.850 -0.7922  0.4641 -0.1169
15829TIP3    H168902   3.956   1.184   0.877  0.2527  0.5488  0.1607
15829TIP3    H268903   4.029   1.316   0.896 -0.2646  1.0906 -1.4559
15830TIP3   OH268904   5.265   0.270  14.594 -0.1451 -0.1001  0.2117
15830TIP3    H168905   5.359   0.272  14.576 -0.1609 -0.7697  0.0440
15830TIP3    H268906   5.226   0.236  14.514 -0.6331  1.1102 -0.0863
15831TIP3   OH268907   2.317   0.590  16.096 -0.0727 -0.1193 -0.3359
15831TIP3    H168908   2.406   0.599  16.131  0.0216  0.0542 -0.6144
15831TIP3    H268909   2.312   0.655  16.025  1.3938 -3.4807 -3.9213
15832TIP3   OH268910   0.395   5.496   2.209 -0.1796  0.2310 -0.0186
15832TIP3    H168911   0.386   5.566   2.144  2.2186  1.1985  0.5771
15832TIP3    H268912   0.393   5.540   2.293  0.5922 -0.5048  0.4060
15833TIP3   OH268913   0.146   6.141   2.658 -0.1241 -0.1370 -0.3927
15833TIP3    H168914   0.132   6.048   2.639 -0.2114 -0.2181  0.0550
15833TIP3    H268915   0.235   6.158   2.627 -0.4050 -0.1588 -1.2458
15834TIP3   OH268916   3.374   5.696   5.213  0.6602  0.1273  0.5128
15834TIP3    H168917   3.370   5.769   5.150  1.3283  1.5110  2.0044
15834TIP3    H268918   3.324   5.727   5.288  0.7735 -1.0603  1.0913
15835TIP3   OH268919   2.632   5.250   6.476  0.1878  0.1130 -0.2681
15835TIP3    H168920   2.624   5.339   6.510 -0.8528  1.1159 -2.8455
15835TIP3    H268921   2.631   5.261   6.381  0.8466 -2.6191 -0.6835
15836TIP3   OH268922   5.911   0.817  10.693 -0.6346  0.1749  0.0528
15836TIP3    H168923   5.832   0.864  10.721 -0.3227  1.3955 -1.0248
15836TIP3    H268924   5.894   0.795  10.601  0.6862  1.4022 -0.5215
15837TIP3   OH268925   5.979   2.402   3.388 -0.5252  0.2450 -0.2901
15837TIP3    H168926   5.939   2.339   3.328  0.0704 -0.4132 -0.0053
15837TIP3    H268927   6.073   2.388   3.377 -0.4093  0.4486  0.4563
15838TIP3   OH268928   1.261   1.307  14.307  0.7561 -0.3082 -0.7554
15838TIP3    H168929   1.322   1.239  14.337 -0.2490 -0.9852 -0.1569
15838TIP3    H268930   1.284   1.321  14.215  2.1655 -0.1343 -0.4046
15839TIP3   OH268931   5.607   1.578  10.873 -0.2150  0.1834  0.2221
15839TIP3    H168932   5.556   1.516  10.821 -0.4053  0.9826 -0.5710
15839TIP3    H268933   5.625   1.651  10.813  0.3770  0.6984  1.0008
15840TIP3   OH268934   3.157   4.549   4.848  0.0420  0.1632 -0.2854
15840TIP3    H168935   3.235   4.503   4.817  0.1946 -0.7028  1.2744
15840TIP3    H268936   3.156   4.533   4.942 -3.3463 -1.9871 -0.5185
15841TIP3   OH268937   1.831   3.085   5.875  0.7547  0.6182  0.0571
15841TIP3    H168938   1.858   3.007   5.827  2.0034  1.4179 -0.6087
15841TIP3    H268939   1.811   3.053   5.963 -0.4953 -0.6987 -0.6637
15842TIP3   OH268940   3.955   1.319   1.202 -0.0014  0.8464  0.5951
15842TIP3    H168941   4.006   1.237   1.203 -1.0958  0.1419 -0.0442
15842TIP3    H268942   4.015   1.384   1.240  2.5250  0.7447 -2.7350
15843TIP3   OH268943   6.627   5.935   2.975 -0.1146 -0.4774  0.3188
15843TIP3    H168944   6.712   5.947   3.018 -0.5251  1.9926  0.5621
15843TIP3    H268945   6.635   5.851   2.930  2.0932 -0.7768  1.1450
15844TIP3   OH268946   5.014   2.404  12.807  0.0818 -0.1132  0.2924
15844TIP3    H168947   5.055   2.321  12.782 -0.0542 -0.0383 -0.1895
15844TIP3    H268948   5.021   2.406  12.902 -0.1099 -0.7873  0.3298
15845TIP3   OH268949   3.229   3.391  12.903 -0.1677  0.0443  0.8791
15845TIP3    H168950   3.165   3.458  12.925 -2.5023 -1.9677  0.7397
15845TIP3    H268951   3.217   3.378  12.808  2.1635  1.2117  0.3573
15846TIP3   OH268952   5.440   4.239  13.095 -0.3097  0.3670  0.3813
15846TIP3    H168953   5.526   4.269  13.066 -0.2664  0.5745  0.7182
15846TIP3    H268954   5.435   4.148  13.066 -0.8735  0.9958 -1.5957
15847TIP3   OH268955   5.574   3.213   3.014 -0.1120 -0.2523 -0.2514
15847TIP3    H168956   5.552   3.126   2.981 -2.1095 -0.1744  0.7348
15847TIP3    H268957   5.530   3.273   2.954 -0.6447 -0.0053  0.3774
15848TIP3   OH268958   3.987   6.315  15.868 -0.0282  0.8428  0.1653
15848TIP3    H168959   4.060   6.334  15.928 -2.5132  0.2510  3.6761
15848TIP3    H268960   3.929   6.390  15.877 -0.3343  0.8976 -1.8991
15849TIP3   OH268961   5.571   5.434   3.665 -0.1006 -0.1213  0.3867
15849TIP3    H168962   5.550   5.463   3.753  0.1552 -0.0863  0.4385
15849TIP3    H268963   5.509   5.480   3.609 -0.1583 -0.0177  0.5347
15850TIP3   OH268964   5.804   6.038   3.673 -0.3148  0.4601  0.1075
15850TIP3    H168965   5.761   6.094   3.738 -1.1796 -0.0848  0.0139
15850TIP3    H268966   5.862   5.982   3.725 -0.6720  0.3282  0.3739
15851TIP3   OH268967   5.795   4.402  15.474  0.2231 -0.1512  0.5798
15851TIP3    H168968   5.736   4.371  15.405 -1.4817 -1.2425  2.4211
15851TIP3    H268969   5.737   4.428  15.545  1.9424  0.0049  1.9776
15852TIP3   OH268970   5.799   4.026   0.935 -0.2711 -0.1074  0.0449
15852TIP3    H168971   5.815   3.953   0.994 -0.5995  0.0059  0.2728
15852TIP3    H268972   5.718   4.067   0.967 -1.7121 -1.3699 -1.8045
15853TIP3   OH268973   2.809   1.118  12.468 -0.7930  0.6391 -0.1200
15853TIP3    H168974   2.880   1.150  12.413 -0.6119 -1.7727 -1.4373
15853TIP3    H268975   2.842   1.127  12.558  1.2529 -0.4679 -0.6966
15854TIP3   OH268976   2.206   2.296   6.846  0.1222  0.2407 -0.1932
15854TIP3    H168977   2.299   2.292   6.822  0.3128 -0.3640  0.5838
15854TIP3    H268978   2.192   2.218   6.899 -0.6778  0.6620  0.2385
15855TIP3   OH268979   3.776   0.424  16.702 -0.4248 -0.8678  0.5353
15855TIP3    H168980   3.691   0.449  16.668  0.9333  2.2821 -0.8998
15855TIP3    H268981   3.822   0.506  16.717  2.6637 -2.4285  0.5355
15856TIP3   OH268982   3.537   3.818   1.783  0.4205 -0.3653  0.1060
15856TIP3    H168983   3.460   3.802   1.838  0.3946  0.3782  0.2960
15856TIP3    H268984   3.513   3.894   1.729  0.2088 -1.4481 -1.3857
15857TIP3   OH268985   3.912   0.452   5.355 -0.5479  0.3086  0.3088
15857TIP3    H168986   3.982   0.477   5.295 -0.9766  0.5801 -0.0903
15857TIP3    H268987   3.930   0.361   5.379  0.2155  0.5302  0.6077
15858TIP3   OH268988   4.548   6.703  15.792  0.0809 -0.1892  0.1598
15858TIP3    H168989   4.461   6.667  15.811 -1.5512  2.7178 -1.1480
15858TIP3    H268990   4.572   6.665  15.708 -0.8675  0.4603 -0.4268
15859TIP3   OH268991   1.391   4.074   2.440 -0.4846  0.4294 -0.4374
15859TIP3    H168992   1.433   3.999   2.398 -1.2891 -0.3636  0.1223
15859TIP3    H268993   1.357   4.126   2.367 -0.1004  0.1458 -0.8285
15860TIP3   OH268994   4.067   0.220  13.723  0.4841 -0.1203  0.6122
15860TIP3    H168995   4.052   0.257  13.635 -0.1052 -1.3789  0.1626
15860TIP3    H268996   4.108   0.136  13.706 -0.4858 -0.7917  1.4961
15861TIP3   OH268997   3.327   2.333   3.044  0.1996 -0.1112  0.4380
15861TIP3    H168998   3.248   2.311   3.092 -1.4989  1.6253 -1.3415
15861TIP3    H268999   3.340   2.427   3.060 -0.1907  0.4440 -1.9769
15862TIP3   OH269000   0.169   4.207   2.067  0.8598  0.4160  0.3812
15862TIP3    H169001   0.225   4.274   2.106  1.8898  0.0267 -0.3777
15862TIP3    H269002   0.171   4.135   2.130  1.4357  0.3021  0.2391
15863TIP3   OH269003   2.213   3.517  14.128 -0.4311 -0.2676 -0.2212
15863TIP3    H169004   2.197   3.606  14.160 -1.7423 -0.1059 -1.2703
15863TIP3    H269005   2.142   3.465  14.164  0.4928 -0.9834  0.6286
15864TIP3   OH269006   0.384   0.494   6.658 -0.0725  0.5255 -0.0353
15864TIP3    H169007   0.423   0.556   6.719 -0.8495  2.1754 -1.1198
15864TIP3    H269008   0.414   0.524   6.572 -1.1540 -0.0721 -0.6429
15865TIP3   OH269009   5.873   2.515   5.626  0.3085 -0.3015 -0.7150
15865TIP3    H169010   5.804   2.555   5.679  0.7749  0.6397 -0.8035
15865TIP3    H269011   5.888   2.430   5.667  1.1499  0.6684  1.1135
15866TIP3   OH269012   5.763   0.194  16.950  0.1433 -0.1044  0.3746
15866TIP3    H169013   5.818   0.272  16.954 -0.2302  0.1783 -0.0260
15866TIP3    H269014   5.826   0.121  16.948  0.5113  0.2219 -0.3401
15867TIP3   OH269015   1.748   0.152  12.610 -0.0752 -0.3688  0.0109
15867TIP3    H169016   1.808   0.089  12.570  0.5624  0.9564 -1.1838
15867TIP3    H269017   1.797   0.188  12.684 -0.6677 -1.6614  1.0857
15868TIP3   OH269018   4.209   5.514  11.737  0.9054  0.7526 -0.4381
15868TIP3    H169019   4.137   5.466  11.695 -0.6289  0.0583  2.7105
15868TIP3    H269020   4.169   5.598  11.763  1.9606  1.3789 -0.7840
15869TIP3   OH269021   6.103   0.774   4.999  0.5442 -0.1603  0.3146
15869TIP3    H169022   6.157   0.768   5.078  0.4609 -0.6795  0.3321
15869TIP3    H269023   6.077   0.866   4.995  4.5005  1.0658 -1.7559
15870TIP3   OH269024   1.338   6.495   5.488 -0.2442  0.0332 -0.0961
15870TIP3    H169025   1.298   6.442   5.418  3.2001 -1.0612 -1.4738
15870TIP3    H269026   1.341   6.583   5.452 -0.9788  0.0412 -0.1524
15871TIP3   OH269027   1.139   1.915  13.418 -0.1009 -0.1346  0.5874
15871TIP3    H169028   1.079   1.841  13.420 -1.1381  0.4583 -2.6777
15871TIP3    H269029   1.103   1.977  13.482 -1.3015 -0.9743  0.7578
15872TIP3   OH269030   5.324   2.525  11.701 -0.4848 -0.0986  0.4421
15872TIP3    H169031   5.284   2.503  11.617 -0.4900 -0.8125  0.6313
15872TIP3    H269032   5.343   2.619  11.694 -2.7176  0.4235  0.5677
15873TIP3   OH269033   6.097   4.265   0.684 -0.1595  0.0044 -0.7732
15873TIP3    H169034   6.163   4.276   0.753  0.1111 -0.0924 -1.0132
15873TIP3    H269035   6.121   4.329   0.617 -1.2320  1.0615 -0.1770
15874TIP3   OH269036   2.155   6.218  14.653  0.1971 -0.0565  0.6778
15874TIP3    H169037   2.173   6.190  14.563  0.0868 -1.5242  1.0753
15874TIP3    H269038   2.069   6.258  14.649  0.5074  0.5581  0.0052
15875TIP3   OH269039   2.021   6.085   4.440  0.2546 -0.1792  0.0253
15875TIP3    H169040   1.976   6.071   4.523  0.3381 -0.1875  0.0691
15875TIP3    H269041   2.010   6.179   4.422  0.3644 -0.1468  0.1207
15876TIP3   OH269042   6.257   3.710  12.491 -0.3023  0.0125  0.2459
15876TIP3    H169043   6.330   3.758  12.532 -2.4030  2.3435  1.5285
15876TIP3    H269044   6.227   3.650  12.559 -0.4300  0.0352  0.2092
15877TIP3   OH269045   3.015   5.158  14.739  0.1388  0.0443  0.1685
15877TIP3    H169046   3.012   5.132  14.831  0.1679  0.1211  0.1917
15877TIP3    H269047   2.937   5.213  14.727 -0.5998 -1.0571 -0.1930
15878TIP3   OH269048   2.925   6.413  11.491 -0.6576  0.0812 -0.4327
15878TIP3    H169049   2.976   6.353  11.546 -1.2360 -0.3961 -0.4049
15878TIP3    H269050   2.901   6.485  11.549  0.2836  0.5016 -0.5396
15879TIP3   OH269051   4.114   1.962   6.004 -0.2021  0.2448  0.6942
15879TIP3    H169052   4.092   1.879   6.047 -0.4866 -0.0002  0.0849
15879TIP3    H269053   4.141   2.019   6.076  0.3195 -0.4753  1.0812
15880TIP3   OH269054   0.420   5.483   4.203  0.1959  0.1740  0.3560
15880TIP3    H169055   0.445   5.485   4.295 -0.1484  0.0145  0.4520
15880TIP3    H269056   0.408   5.575   4.179  1.0526  0.2712  0.2569
15881TIP3   OH269057   4.523   5.518   0.779 -0.3387  0.0289 -0.0626
15881TIP3    H169058   4.482   5.500   0.863  1.0919 -1.8704  0.3128
15881TIP3    H269059   4.542   5.431   0.743  0.2085  0.8093 -1.7745
15882TIP3   OH269060   2.141   2.902   3.043  0.2786 -0.3852  0.0453
15882TIP3    H169061   2.053   2.878   3.072  0.0293 -3.0521 -2.4211
15882TIP3    H269062   2.141   2.997   3.039 -2.5545 -0.3203 -0.0079
15883TIP3   OH269063   0.875   3.762  12.018 -0.3298  0.1427  0.3611
15883TIP3    H169064   0.818   3.770  11.941 -0.7996 -0.6283  0.6116
15883TIP3    H269065   0.949   3.819  11.999  0.2748 -1.1096 -1.3045
15884TIP3   OH269066   3.432   1.482  15.369  0.6493  0.1677 -0.1881
15884TIP3    H169067   3.391   1.562  15.335  0.5353 -0.3651 -1.3590
15884TIP3    H269068   3.358   1.425  15.389  0.6154  1.0502  2.6136
15885TIP3   OH269069   4.618   1.770   1.526  0.0977  0.8520 -0.1674
15885TIP3    H169070   4.570   1.711   1.468 -1.6201  0.3317  1.6497
15885TIP3    H269071   4.694   1.719   1.555  0.8741  1.0564 -1.7419
15886TIP3   OH269072   6.373   1.903  16.510 -0.0982 -0.2400  0.1788
15886TIP3    H169073   6.294   1.896  16.563 -1.2378  2.6733 -0.9279
15886TIP3    H269074   6.357   1.848  16.434 -0.8913 -0.0357  0.1912
15887TIP3   OH269075   5.915   2.397  15.980 -0.2008 -0.4612 -0.4610
15887TIP3    H169076   5.916   2.306  15.950  1.1516 -0.6758  0.1561
15887TIP3    H269077   5.932   2.448  15.901  0.8004 -0.8705 -0.5302
15888TIP3   OH269078   1.837   6.759   5.406 -0.1425  0.4451 -0.3060
15888TIP3    H169079   1.747   6.747   5.438  0.7612 -1.1182  1.8675
15888TIP3    H269080   1.885   6.792   5.481  1.0178  1.9744 -1.6373
15889TIP3   OH269081   3.478   0.145  14.018  0.0149 -0.0472 -0.5040
15889TIP3    H169082   3.416   0.072  14.027  1.0317 -0.9001 -0.2444
15889TIP3    H269083   3.427   0.222  14.042 -0.1455 -1.0572  2.8281
15890TIP3   OH269084   5.218   5.108   4.143  0.2927  0.4429 -0.0830
15890TIP3    H169085   5.146   5.132   4.084  0.4083 -1.7496 -1.2399
15890TIP3    H269086   5.288   5.079   4.085  0.3476 -1.9877  1.0680
15891TIP3   OH269087   4.345   6.440   2.846 -0.3752 -0.2730 -0.3865
15891TIP3    H169088   4.319   6.514   2.792  1.1342 -1.5128 -2.9989
15891TIP3    H269089   4.275   6.376   2.834 -0.3919 -0.2821 -0.2448
15892TIP3   OH269090   5.522   2.179  14.880 -0.5047 -0.1899  0.0316
15892TIP3    H169091   5.504   2.098  14.832  3.3960 -1.1933 -0.0822
15892TIP3    H269092   5.538   2.150  14.970  0.9568  0.3915 -0.0140
15893TIP3   OH269093   4.234   4.602  11.340  0.4732 -0.0562 -0.1053
15893TIP3    H169094   4.316   4.588  11.294  0.2334 -1.4313 -0.1537
15893TIP3    H269095   4.176   4.642  11.275  0.5200 -0.8511 -0.6503
15894TIP3   OH269096   1.518   0.451   5.828 -0.6856  0.3301  0.7612
15894TIP3    H169097   1.557   0.392   5.763  1.2898  1.7877  0.5005
15894TIP3    H269098   1.434   0.476   5.790 -1.5442 -2.1555  0.8340
15895TIP3   OH269099   1.293   6.674  15.759  0.6679 -0.1066  0.6281
15895TIP3    H169100   1.297   6.709  15.670  1.5227 -2.3705 -0.2999
15895TIP3    H269101   1.384   6.669  15.787  0.4685 -0.2632  1.2739
15896TIP3   OH269102   2.811   5.124  17.078  0.2356 -0.2382 -0.3943
15896TIP3    H169103   2.842   5.179  17.150 -1.2720 -0.8585  0.7769
15896TIP3    H269104   2.856   5.041  17.092  0.3968 -0.1743 -0.5280
15897TIP3   OH269105   0.812   1.374  15.883  0.3535  0.6675  0.1480
15897TIP3    H169106   0.817   1.338  15.972  0.0308 -0.7008 -0.3616
15897TIP3    H269107   0.828   1.299  15.826 -1.3271  1.1160 -0.9789
15898TIP3   OH269108   6.358   1.241  16.753 -0.0538 -0.3646 -0.2684
15898TIP3    H169109   6.307   1.185  16.810  0.7847  0.7784  1.7143
15898TIP3    H269110   6.307   1.321  16.745 -0.0397 -0.4135 -0.9191
15899TIP3   OH269111   4.176   4.760  14.240  0.2149 -0.0970  0.1746
15899TIP3    H169112   4.162   4.733  14.331  0.6439  1.3987  0.7082
15899TIP3    H269113   4.271   4.768  14.232  0.1728 -0.1130 -0.3770
15900TIP3   OH269114   3.046   4.117  12.420 -0.3987 -0.0630 -0.3941
15900TIP3    H169115   3.081   4.206  12.429  2.9529 -1.1904 -0.9270
15900TIP3    H269116   3.105   4.074  12.358 -0.4032 -3.3799  1.6715
15901TIP3   OH269117   2.104   1.874  13.031  0.4462  0.1162  0.5249
15901TIP3    H169118   2.139   1.795  13.072 -1.8527  0.4102  3.3720
15901TIP3    H269119   2.027   1.845  12.983  1.5021  0.2172 -1.3208
15902TIP3   OH269120   0.725   1.150   5.352  0.4567  0.3311  0.2434
15902TIP3    H169121   0.816   1.177   5.361 -0.0543  1.8850  1.2370
15902TIP3    H269122   0.708   1.098   5.431  1.0202 -1.7423 -0.9423
15903TIP3   OH269123   0.114   1.725   0.744 -0.1572 -0.2299  0.0363
15903TIP3    H169124   0.027   1.715   0.704  0.1623 -0.0143 -0.7370
15903TIP3    H269125   0.109   1.807   0.792 -0.2364  0.0306 -0.4105
15904TIP3   OH269126   4.808   2.704   5.460 -0.2681 -0.4740  0.7436
15904TIP3    H169127   4.813   2.645   5.535 -0.4449 -2.6148 -0.8420
15904TIP3    H269128   4.855   2.658   5.391 -1.1832  0.8527 -0.8101
15905TIP3   OH269129   4.335   2.199  13.170 -0.2354 -0.6179 -0.6185
15905TIP3    H169130   4.330   2.293  13.156 -0.2881 -0.2209  1.5975
15905TIP3    H269131   4.425   2.175  13.147 -0.3789 -0.1571 -1.7149
15906TIP3   OH269132   2.096   0.122  15.571  0.2509 -0.9370  0.5045
15906TIP3    H169133   2.082   0.193  15.633 -1.7390  0.0207 -0.9237
15906TIP3    H269134   2.020   0.064  15.583  0.0693 -0.9819 -0.6796
15907TIP3   OH269135   3.045   4.337   5.318 -0.3242 -0.1928 -0.8008
15907TIP3    H169136   2.953   4.348   5.342 -0.0218 -1.2811  1.1233
15907TIP3    H269137   3.093   4.356   5.399  1.0522 -0.8174 -1.4344
15908TIP3   OH269138   4.116   6.740  11.926 -0.0994 -0.1246 -0.1119
15908TIP3    H169139   4.108   6.655  11.882 -1.1365  0.1350 -0.4420
15908TIP3    H269140   4.033   6.784  11.909  0.6493  1.2123 -0.4708
15909TIP3   OH269141   1.912   5.479   5.727  0.9355  0.7801 -0.6602
15909TIP3    H169142   1.857   5.546   5.685 -1.6817 -1.0201 -0.3851
15909TIP3    H269143   1.888   5.484   5.819  0.4867 -0.6359 -0.6737
15910TIP3   OH269144   0.912   1.826  14.028 -0.1906 -0.1890 -0.7387
15910TIP3    H169145   0.886   1.804  13.938  2.0728 -1.6098 -1.1182
15910TIP3    H269146   0.865   1.907  14.047 -1.5096 -0.3758 -2.8174
15911TIP3   OH269147   3.536   3.973  13.378  0.2274 -0.8196 -0.3011
15911TIP3    H169148   3.543   3.924  13.460 -1.1907 -0.6542 -0.0631
15911TIP3    H269149   3.477   3.920  13.324  0.1972 -0.3230 -0.7617
15912TIP3   OH269150   6.702   3.946  16.354  0.0717  0.0655 -0.6686
15912TIP3    H169151   6.724   3.862  16.393  0.0807  0.3593 -0.0275
15912TIP3    H269152   6.712   3.932  16.260 -0.2540 -0.7411 -0.5922
15913TIP3   OH269153   3.015   6.144  16.290  0.0039 -0.7024 -0.1442
15913TIP3    H169154   3.056   6.069  16.332 -0.0288 -0.2216  0.7665
15913TIP3    H269155   2.921   6.125  16.292 -0.0289 -0.4915  0.3856
15914TIP3   OH269156   0.678   5.982  14.511 -0.0595  0.6939 -0.6575
15914TIP3    H169157   0.588   5.999  14.540 -0.1661  1.0465 -1.1639
15914TIP3    H269158   0.733   6.014  14.582 -0.3567 -1.1536  0.4455
15915TIP3   OH269159   0.146   1.648  16.896 -0.4637  0.1521  0.3227
15915TIP3    H169160   0.075   1.589  16.922 -0.3468  0.4219  1.2848
15915TIP3    H269161   0.225   1.604  16.927 -0.3692  0.7867  0.9785
15916TIP3   OH269162   1.793   1.172   4.885 -0.3954 -0.1278 -0.0426
15916TIP3    H169163   1.699   1.178   4.897 -0.6663  1.8647 -2.4233
15916TIP3    H269164   1.824   1.263   4.889  1.2293 -0.6173 -0.4896
15917TIP3   OH269165   5.528   5.928  17.325 -0.0970 -0.6121  0.4171
15917TIP3    H169166   5.548   6.021  17.339 -2.7708  0.4912 -2.0115
15917TIP3    H269167   5.510   5.894  17.412  0.3448  1.2924  1.3110
15918TIP3   OH269168   5.723   5.102   0.597 -0.2383  0.5183 -0.1666
15918TIP3    H169169   5.687   5.045   0.530  1.0153  0.3493 -0.7323
15918TIP3    H269170   5.815   5.076   0.603  0.0943  1.7382  0.3462
15919TIP3   OH269171   0.989   0.720   6.220 -0.1718 -0.6405  0.5357
15919TIP3    H169172   0.939   0.795   6.254 -2.1769 -1.2828 -0.8392
15919TIP3    H269173   1.028   0.680   6.298 -1.3337  0.2385  1.6035
15920TIP3   OH269174   6.615   2.041  11.548  0.6565 -0.1923  0.1327
15920TIP3    H169175   6.701   1.999  11.556 -0.4988 -2.6600  0.6758
15920TIP3    H269176   6.616   2.110  11.614  2.6733  0.7244 -0.8017
15921TIP3   OH269177   5.225   0.590  14.844 -0.4084  0.1860  0.0460
15921TIP3    H169178   5.280   0.649  14.895  0.5075  0.4817 -1.2258
15921TIP3    H269179   5.145   0.581  14.895  1.1932 -1.1892  2.5680
15922TIP3   OH269180   2.585   2.662   2.991  0.6115  0.7868  0.4162
15922TIP3    H169181   2.585   2.652   3.086  1.4927  0.1263  0.3608
15922TIP3    H269182   2.517   2.726   2.974 -1.9195 -1.5125  1.2105
15923TIP3   OH269183   1.340   5.922  14.342  0.5577  0.1946 -0.3950
15923TIP3    H169184   1.274   5.984  14.313  0.3845  0.9094  1.3858
15923TIP3    H269185   1.401   5.915  14.269  0.6385  2.5445 -0.6187
15924TIP3   OH269186   1.457   1.876  16.498  0.2150 -0.4937  0.5096
15924TIP3    H169187   1.478   1.963  16.533  1.5555 -0.2582 -0.8014
15924TIP3    H269188   1.475   1.816  16.570  2.8289 -0.0147  0.3360
15925TIP3   OH269189   6.065   6.345   3.660  0.3522 -0.3566  0.1356
15925TIP3    H169190   5.993   6.350   3.723 -1.7563 -0.0572 -2.1267
15925TIP3    H269191   6.126   6.413   3.688  0.3113 -1.2759  2.7156
15926TIP3   OH269192   3.803   5.595   2.714 -0.1894  0.5092  0.4408
15926TIP3    H169193   3.793   5.637   2.799  1.2258 -1.3207  1.6094
15926TIP3    H269194   3.816   5.667   2.653  2.0812  1.8548  2.3162
15927TIP3   OH269195   3.283   5.081  14.741 -0.1841  0.3621 -0.6618
15927TIP3    H169196   3.308   5.057  14.830  2.0695 -1.3997 -1.6756
15927TIP3    H269197   3.188   5.096  14.746 -0.3176 -0.8115  1.7884
15928TIP3   OH269198   4.358   3.389  13.580 -0.0327 -0.4270 -0.2366
15928TIP3    H169199   4.277   3.415  13.536 -0.3468  0.3241  0.7507
15928TIP3    H269200   4.331   3.366  13.669  0.3266 -3.5414 -0.8330
15929TIP3   OH269201   1.616   4.200   0.006  0.0723  0.6133 -0.2142
15929TIP3    H169202   1.555   4.271  -0.011 -0.9612 -0.0373  0.6682
15929TIP3    H269203   1.609   4.144  -0.071 -1.7915 -0.3663  0.6042
15930TIP3   OH269204   5.099   1.815  15.873  0.8491 -0.3583 -0.4776
15930TIP3    H169205   5.182   1.830  15.827  0.5273 -1.8961 -1.6412
15930TIP3    H269206   5.125   1.774  15.955  1.2616 -0.6321 -0.7371
15931TIP3   OH269207   1.488   3.490  12.212 -0.2254  0.5280  0.6503
15931TIP3    H169208   1.439   3.570  12.232 -1.0736  0.1941 -0.0458
15931TIP3    H269209   1.573   3.503  12.254  0.0722  2.2922 -0.3913
15932TIP3   OH269210   1.705   5.862   3.740 -0.2259 -0.0815  0.0183
15932TIP3    H169211   1.737   5.911   3.815 -1.1254 -1.3012  1.2500
15932TIP3    H269212   1.659   5.927   3.686  0.1195  0.7442  0.7000
15933TIP3   OH269213   5.641   1.257  14.976  0.2627  0.1794 -0.1725
15933TIP3    H169214   5.612   1.288  15.062  0.9546  1.4337 -0.3650
15933TIP3    H269215   5.680   1.172  14.993  2.8964  1.5349  1.2664
15934TIP3   OH269216   5.774   0.144  11.628 -0.4295 -0.1302  0.1434
15934TIP3    H169217   5.761   0.118  11.719 -0.2167  1.9061  0.7999
15934TIP3    H269218   5.697   0.196  11.606  0.1488  0.5315 -0.3724
15935TIP3   OH269219   2.347   6.721   0.561  0.7742 -0.0273 -0.5135
15935TIP3    H169220   2.336   6.772   0.481  0.3710  0.6546 -0.0370
15935TIP3    H269221   2.413   6.769   0.612 -1.6040  1.7048  1.1952
15936TIP3   OH269222   3.638   3.733  17.368 -0.4778 -0.0679  0.0094
15936TIP3    H169223   3.546   3.717  17.346 -0.1088 -0.5489 -1.2485
15936TIP3    H269224   3.679   3.754  17.285  0.9316 -1.7388  0.2320
15937TIP3   OH269225   2.296   4.759  12.872  0.2235  0.5233 -0.5311
15937TIP3    H169226   2.247   4.732  12.950 -0.1271 -2.3724 -1.6199
15937TIP3    H269227   2.386   4.733  12.891  0.1450 -0.1505 -1.0137
15938TIP3   OH269228   4.096   5.288   0.535  0.1105  0.4029 -0.2970
15938TIP3    H169229   4.053   5.273   0.450 -0.3187 -1.8844  0.2483
15938TIP3    H269230   4.178   5.239   0.529  1.9802  3.3182 -0.6864
15939TIP3   OH269231   5.409   4.620  16.256 -0.2477 -0.0352  0.0908
15939TIP3    H169232   5.478   4.665  16.208 -1.8804  0.1903 -2.2573
15939TIP3    H269233   5.454   4.571  16.324  1.9907  1.6331 -0.0869
15940TIP3   OH269234   5.901   2.887  11.457 -0.1580  0.3567 -0.2121
15940TIP3    H169235   5.953   2.967  11.446  0.2444  0.0769 -0.3530
15940TIP3    H269236   5.870   2.866  11.369 -1.4654  1.1548  0.0335
15941TIP3   OH269237   3.231   3.971  12.246 -0.2636 -0.0164 -0.9182
15941TIP3    H169238   3.239   3.877  12.265 -1.0308  0.2467  0.8695
15941TIP3    H269239   3.313   3.993  12.201  0.8356 -1.1252  0.4422
15942TIP3   OH269240   0.088   5.882   3.961  0.1657 -0.3371 -0.7478
15942TIP3    H169241   0.124   5.847   4.042  1.5074  1.9358 -0.2969
15942TIP3    H269242  -0.006   5.889   3.978  0.0676 -2.1653 -0.3215
15943TIP3   OH269243   0.071   5.429   1.594 -0.1818  0.1089 -0.0110
15943TIP3    H169244   0.001   5.381   1.639  1.7409 -2.2512  0.6637
15943TIP3    H269245   0.078   5.386   1.508  1.0126 -0.3120  0.2805
15944TIP3   OH269246   5.553   4.906   2.472 -0.3362 -0.1465 -0.3002
15944TIP3    H169247   5.544   4.960   2.394 -0.2239  0.9123  0.3948
15944TIP3    H269248   5.639   4.927   2.507 -0.0469 -1.2198 -0.3239
15945TIP3   OH269249   5.864   2.443  17.298  0.2270 -0.4327 -0.1390
15945TIP3    H169250   5.898   2.359  17.328  1.0925 -0.5717 -1.4384
15945TIP3    H269251   5.777   2.448  17.337  1.6165 -0.0977  3.1991
15946TIP3   OH269252   3.105   1.754   2.778 -0.0272 -0.1197  0.0864
15946TIP3    H169253   3.164   1.690   2.818  0.5539  0.1716 -0.3054
15946TIP3    H269254   3.027   1.703   2.754 -0.1532 -0.4000  1.0774
15947TIP3   OH269255   1.062   5.141  13.259 -0.7053  0.1505  0.2934
15947TIP3    H169256   1.143   5.095  13.279  0.7504  2.3300 -0.2133
15947TIP3    H269257   1.010   5.079  13.208  0.7739 -1.1977  0.3743
15948TIP3   OH269258   0.295   3.407   3.772  0.5488  0.0959 -0.3500
15948TIP3    H169259   0.320   3.499   3.773 -0.8974  0.5176  0.9030
15948TIP3    H269260   0.287   3.383   3.864 -1.1173 -0.6750 -0.6472
15949TIP3   OH269261   6.036   2.445   4.021  0.5501  0.0400 -0.0650
15949TIP3    H169262   6.033   2.350   4.022 -0.7849  0.0331  2.3185
15949TIP3    H269263   6.105   2.467   4.084 -1.1043  0.5915  1.6451
15950TIP3   OH269264   2.868   3.675  10.994  1.0857  0.1487  0.4012
15950TIP3    H169265   2.908   3.752  10.955  1.4095 -0.5666 -0.7159
15950TIP3    H269266   2.941   3.621  11.023  0.9275 -0.5176 -0.3862
15951TIP3   OH269267   5.959   0.418  17.080 -0.0001 -0.8477  0.3016
15951TIP3    H169268   5.885   0.399  17.138 -1.8393  0.1499 -1.5758
15951TIP3    H269269   5.986   0.507  17.105 -0.5785 -0.5446 -0.1235
15952TIP3   OH269270   4.140   4.092   0.527  0.2344 -0.9051  0.3580
15952TIP3    H169271   4.165   4.096   0.435  0.9212 -0.8694  0.5393
15952TIP3    H269272   4.129   3.999   0.544 -2.0806 -0.7979 -0.3150
15953TIP3   OH269273   5.043   4.540   3.698 -0.3037  0.0012 -0.1129
15953TIP3    H169274   5.113   4.604   3.700  0.5457 -0.9239  0.8121
15953TIP3    H269275   4.967   4.589   3.667  0.2764  1.4902  0.7047
15954TIP3   OH269276   0.264   4.844   5.564 -0.0504 -0.5207  0.5085
15954TIP3    H169277   0.195   4.870   5.625 -0.2969  3.5712 -1.1981
15954TIP3    H269278   0.341   4.893   5.591  0.9707 -1.6588 -0.2022
15955TIP3   OH269279   0.679   4.355  11.889  0.2264  0.1567  0.6766
15955TIP3    H169280   0.767   4.341  11.854 -0.5201 -0.7464 -0.9333
15955TIP3    H269281   0.654   4.442  11.857  0.1593 -0.0009  0.2976
15956TIP3   OH269282   6.064   6.598   5.681 -0.1664  0.3746 -0.2974
15956TIP3    H169283   5.982   6.615   5.635 -1.3189 -0.1908  1.4859
15956TIP3    H269284   6.131   6.609   5.613 -1.7751 -0.5057 -2.1319
15957TIP3   OH269285   6.342   1.816   0.032 -0.5689  0.1151 -0.3828
15957TIP3    H169286   6.395   1.737   0.040 -0.5935  0.0813 -0.5496
15957TIP3    H269287   6.372   1.858  -0.049  0.3912  0.9975  0.4007
15958TIP3   OH269288   1.879   0.619  14.931 -0.6598  0.6962 -0.0028
15958TIP3    H169289   1.907   0.659  15.013  0.5013  0.6962 -0.3706
15958TIP3    H269290   1.871   0.526  14.951  0.4287  0.5713 -0.0630
15959TIP3   OH269291   0.685   4.361   2.401 -1.0840 -0.4991 -0.4262
15959TIP3    H169292   0.747   4.344   2.330 -1.6289 -2.1445 -0.5538
15959TIP3    H269293   0.607   4.310   2.378 -2.5117  1.4848 -0.2506
15960TIP3   OH269294   1.738   3.021  11.692 -0.3700 -0.0047 -0.0343
15960TIP3    H169295   1.828   3.005  11.720 -0.3605  0.6100  0.2889
15960TIP3    H269296   1.693   3.053  11.771 -1.5588 -2.7877  0.5524
15961TIP3   OH269297   3.076   5.492  14.244  0.5243  0.2333 -0.6764
15961TIP3    H169298   3.012   5.549  14.286  0.7130  0.1436 -0.2578
15961TIP3    H269299   3.158   5.510  14.290  0.9261  0.7362 -1.5543
15962TIP3   OH269300   1.501   2.426  16.953 -0.0999 -0.0463  0.4516
15962TIP3    H169301   1.493   2.468  16.867  0.6028 -1.3425 -0.2814
15962TIP3    H269302   1.593   2.436  16.976 -0.6922  2.2935  2.1741
15963TIP3   OH269303   1.097   6.394  16.588 -0.3405  0.7263 -0.1289
15963TIP3    H169304   1.135   6.380  16.674  0.9836  0.4571 -0.7395
15963TIP3    H269305   1.170   6.423  16.533 -1.0848  0.5754 -1.2420
15964TIP3   OH269306   3.251   4.953   2.486  0.5257 -0.0835  0.1612
15964TIP3    H169307   3.275   4.893   2.416  1.6552 -0.5891  0.9533
15964TIP3    H269308   3.244   4.898   2.564 -2.3337  0.1776  0.2115
15965TIP3   OH269309   4.929   5.747  16.937  0.2761 -0.5066  0.2666
15965TIP3    H169310   4.920   5.745  16.842  0.2230  0.6339  0.2361
15965TIP3    H269311   4.878   5.672  16.967 -2.1837  0.7586 -0.4494
15966TIP3   OH269312   5.023   3.349  14.198  0.2006  0.1269  0.4808
15966TIP3    H169313   5.097   3.304  14.240 -1.7680 -3.3000  0.7195
15966TIP3    H269314   5.051   3.362  14.108  1.1473 -1.1986  0.5468
15967TIP3   OH269315   1.514   0.513   0.411  0.5576  0.2296 -0.3397
15967TIP3    H169316   1.478   0.584   0.464  0.5430 -0.3652  0.4552
15967TIP3    H269317   1.585   0.476   0.463  2.4638  1.4424 -1.9294
15968TIP3   OH269318   6.361   5.169   4.447  0.5742 -1.0770 -0.6463
15968TIP3    H169319   6.298   5.187   4.516  1.8821  2.0429 -0.1237
15968TIP3    H269320   6.433   5.124   4.491  1.0564  0.1956 -0.1122
15969TIP3   OH269321   0.173   1.511   3.129 -0.2952 -0.1169  0.2363
15969TIP3    H169322   0.230   1.492   3.054 -0.1731 -0.9118  0.5211
15969TIP3    H269323   0.232   1.551   3.193 -0.1440 -0.5482  0.3684
15970TIP3   OH269324   1.967   1.324   1.235 -0.3929  0.2943 -0.0645
15970TIP3    H169325   2.011   1.239   1.244  0.5016  0.7574 -0.0362
15970TIP3    H269326   1.931   1.342   1.322  1.6562  1.1516  0.6647
15971TIP3   OH269327   1.351   1.820  14.757 -0.7003  0.3293 -0.2359
15971TIP3    H169328   1.376   1.755  14.691 -0.9618  0.3497 -0.3540
15971TIP3    H269329   1.426   1.822  14.817  0.3171  1.5786 -1.4922
15972TIP3   OH269330   2.224   2.665  12.551 -0.6512 -0.5668 -0.2428
15972TIP3    H169331   2.277   2.655  12.472 -0.7591 -2.9761 -0.0755
15972TIP3    H269332   2.153   2.602  12.540 -1.1525 -0.3148  1.3819
15973TIP3   OH269333   0.856   1.859  14.776  0.0846 -0.0900  0.0015
15973TIP3    H169334   0.836   1.939  14.727 -0.1346 -0.6888 -0.9211
15973TIP3    H269335   0.842   1.788  14.713 -2.5711 -1.0996  1.5465
15974TIP3   OH269336   4.941   2.748   2.622 -0.1233  0.5940  0.4559
15974TIP3    H169337   4.877   2.796   2.570 -0.0173  1.8524  1.4172
15974TIP3    H269338   4.899   2.663   2.639 -0.8284  0.7765 -0.2937
15975TIP3   OH269339   2.825   3.935  16.995  0.1310 -0.5355  0.0153
15975TIP3    H169340   2.769   3.861  17.019  0.9789 -2.5631 -3.5936
15975TIP3    H269341   2.914   3.899  16.997  0.6350  0.5853 -1.1436
15976TIP3   OH269342   2.931   6.591  12.829 -0.0976  0.2072 -0.2074
15976TIP3    H169343   2.876   6.562  12.756 -0.7421 -0.3478  0.4837
15976TIP3    H269344   2.884   6.563  12.907  0.3621  1.1850  0.4413
15977TIP3   OH269345   3.994   1.901  12.552  0.5305 -0.2319 -0.5213
15977TIP3    H169346   3.910   1.947  12.563  1.7529  2.0904 -0.1617
15977TIP3    H269347   3.978   1.813  12.585 -1.3784  0.5961  0.9683
15978TIP3   OH269348   4.026   5.167   2.096  0.0693 -0.0171  0.7094
15978TIP3    H169349   4.100   5.150   2.154  0.1288  0.6164  0.8154
15978TIP3    H269350   4.048   5.248   2.051 -1.0924  0.8300  1.6191
15979TIP3   OH269351   4.855   0.926   0.995 -0.6307  0.4391 -0.2484
15979TIP3    H169352   4.895   0.939   1.081 -0.8405 -1.3013  0.1532
15979TIP3    H269353   4.761   0.935   1.011 -0.8102 -1.4737  0.1024
15980TIP3   OH269354   2.981   3.124  17.344 -0.1629 -0.4036 -0.3682
15980TIP3    H169355   2.932   3.189  17.394 -1.4378 -2.2236  0.8598
15980TIP3    H269356   2.961   3.145  17.252  1.0130  2.0468 -0.1480
15981TIP3   OH269357   3.081   6.311   3.144  0.3986  0.0930  0.0719
15981TIP3    H169358   3.024   6.333   3.217  0.9847 -0.9278  0.8613
15981TIP3    H269359   3.102   6.218   3.157  1.2872  0.1430 -0.8636
15982TIP3   OH269360   1.290   2.904  15.627 -0.3498  0.7326 -0.6027
15982TIP3    H169361   1.227   2.870  15.563  0.3029 -1.1452 -0.3200
15982TIP3    H269362   1.371   2.914  15.577  0.4125 -1.6064  0.0264
15983TIP3   OH269363   5.331   3.611  15.334 -0.1749  0.6356  0.2656
15983TIP3    H169364   5.344   3.639  15.425 -0.9519  2.4038 -0.1202
15983TIP3    H269365   5.236   3.605  15.324 -0.1206  1.0023 -0.5722
15984TIP3   OH269366   2.364   4.078   2.340 -0.1451 -0.0820 -0.3530
15984TIP3    H169367   2.452   4.069   2.376 -0.2317 -1.4313 -0.4078
15984TIP3    H269368   2.320   3.996   2.365 -1.1433  0.2512 -0.9683
15985TIP3   OH269369   0.564   6.181  13.274  0.3760  0.2363  0.2308
15985TIP3    H169370   0.560   6.186  13.370  0.3477  1.9589  0.1586
15985TIP3    H269371   0.655   6.199  13.253  0.5365 -0.8180 -0.0682
15986TIP3   OH269372   2.889   6.607  10.569 -0.1407  0.4246  0.1050
15986TIP3    H169373   2.802   6.573  10.592 -0.8120  1.5360 -0.6886
15986TIP3    H269374   2.947   6.532  10.581 -1.4331 -0.7797 -0.7028
15987TIP3   OH269375   4.897   4.482   2.615  0.5500 -0.0821  0.4804
15987TIP3    H169376   4.910   4.437   2.699 -0.6850  0.9350  1.2681
15987TIP3    H269377   4.909   4.575   2.636 -0.9374  0.2958 -0.1681
15988TIP3   OH269378   1.961   4.387   3.922  0.2503  0.9399 -0.1681
15988TIP3    H169379   2.008   4.436   3.990 -1.5110  1.6652  0.5876
15988TIP3    H269380   1.989   4.297   3.934 -1.4797  0.6771  2.9403
15989TIP3   OH269381   0.728   0.035   3.349  0.1149 -0.5386 -0.2662
15989TIP3    H169382   0.637   0.050   3.374 -0.0532 -1.4415 -0.3067
15989TIP3    H269383   0.752  -0.045   3.396  0.7710 -0.5115 -0.5521
15990TIP3   OH269384   0.155   6.322  13.795  0.8642  0.0082 -0.1251
15990TIP3    H169385   0.144   6.341  13.888  0.5354  1.6463 -0.4614
15990TIP3    H269386   0.242   6.284  13.788  0.7664 -0.4112  0.8933
15991TIP3   OH269387   0.947   0.481  16.486 -0.0783 -0.1642 -0.2094
15991TIP3    H169388   0.979   0.401  16.443  1.0139  0.1311  0.0132
15991TIP3    H269389   0.852   0.475  16.480 -0.0109 -1.3919 -0.3661
15992TIP3   OH269390   1.613   1.394   2.598  0.4730 -0.2608  0.1266
15992TIP3    H169391   1.544   1.389   2.664  0.2711  1.6822  0.1005
15992TIP3    H269392   1.665   1.315   2.613 -0.2288 -0.4437  1.8588
15993TIP3   OH269393   2.815   1.340  10.679  0.0400  0.9360  0.2796
15993TIP3    H169394   2.831   1.349  10.773 -1.0164  1.3273  0.4270
15993TIP3    H269395   2.876   1.401  10.638  0.5574  0.7056  0.6976
15994TIP3   OH269396   6.602   0.453  11.070  0.9993  0.3740 -0.1430
15994TIP3    H169397   6.584   0.495  11.154  1.6848  2.4610 -0.9838
15994TIP3    H269398   6.517   0.451  11.026  0.6144 -0.8345  0.6099
15995TIP3   OH269399   3.105   6.733  11.785 -0.1081 -0.0377  0.4655
15995TIP3    H169400   3.137   6.765  11.701 -0.9436 -0.6255 -0.0941
15995TIP3    H269401   3.104   6.810  11.842 -0.7378  0.6362 -0.4333
15996TIP3   OH269402   1.480   4.313  13.602  0.4988 -0.0175 -0.2110
15996TIP3    H169403   1.573   4.294  13.617  0.5799 -0.0781 -0.7706
15996TIP3    H269404   1.476   4.408  13.593  0.4219  0.0367  0.3701
15997TIP3   OH269405   1.704   5.491  14.657 -0.8298 -0.3285  0.7459
15997TIP3    H169406   1.799   5.481  14.666 -0.4577  1.4423 -0.7003
15997TIP3    H269407   1.679   5.548  14.730 -1.1968 -2.5170  2.4309
15998TIP3   OH269408   4.758   5.490   2.780 -0.0898  0.8167 -0.0179
15998TIP3    H169409   4.757   5.507   2.874 -0.9578 -0.6012  0.2674
15998TIP3    H269410   4.851   5.496   2.756  0.0808  1.7346  0.8037
15999TIP3   OH269411   6.286   6.748  13.376  0.3869 -0.6998  0.4211
15999TIP3    H169412   6.327   6.808  13.438  1.0125 -1.1177  0.4271
15999TIP3    H269413   6.193   6.749  13.398  0.9016 -3.0098  3.2876
16000TIP3   OH269414   3.263   6.522   6.134  0.2981 -0.0189  0.1118
16000TIP3    H169415   3.209   6.600   6.130  0.5706  0.1428 -0.5682
16000TIP3    H269416   3.247   6.486   6.221 -0.3800  0.3930  0.1639
16001TIP3   OH269417   3.298   6.215   4.333  0.2158  0.1556  0.7026
16001TIP3    H169418   3.342   6.293   4.300  0.9173 -0.7196 -0.5316
16001TIP3    H269419   3.205   6.238   4.332  0.4352  1.0939  0.6956
16002TIP3   OH269420   4.651   6.053   0.133 -0.1354 -0.1882 -0.3613
16002TIP3    H169421   4.742   6.053   0.102  0.3824  0.6968  1.0467
16002TIP3    H269422   4.637   5.965   0.166  0.7655  0.0893  0.8388
16003TIP3   OH269423   6.408   1.662   2.105  0.1297 -0.4228  0.3692
16003TIP3    H169424   6.325   1.623   2.133  0.5205 -1.8702 -0.3749
16003TIP3    H269425   6.406   1.656   2.010  0.0686  1.7757  0.1844
16004TIP3   OH269426   0.514   6.014   1.924  0.2774 -0.1094 -0.5277
16004TIP3    H169427   0.436   6.031   1.870 -0.2198  0.7526  0.4145
16004TIP3    H269428   0.489   5.942   1.981 -0.6719  1.5448  1.2770
16005TIP3   OH269429   1.059   0.331  16.272  0.8918 -0.1869  0.4684
16005TIP3    H169430   1.137   0.279  16.253  1.2514  1.2428 -2.6515
16005TIP3    H269431   0.990   0.291  16.219 -0.3827 -0.9142  2.5344
16006TIP3   OH269432   3.537   2.716   1.645 -0.0446  0.1593 -0.3263
16006TIP3    H169433   3.563   2.806   1.624  2.6403 -0.5685 -0.4692
16006TIP3    H269434   3.533   2.672   1.560 -1.3011  0.0956 -0.2516
16007TIP3   OH269435   3.277   5.979   3.645  0.4844  0.0952 -0.5367
16007TIP3    H169436   3.259   6.072   3.633  1.2533  0.3172 -0.0824
16007TIP3    H269437   3.196   5.935   3.621 -0.7763  1.0312  1.6557
16008TIP3   OH269438   4.094   3.557  12.012 -0.2923 -0.3022  0.2339
16008TIP3    H169439   4.146   3.589  11.938  1.1323 -1.4253  0.7088
16008TIP3    H269440   4.087   3.463  11.998  2.2893 -1.0296  2.7855
16009TIP3   OH269441   1.127   2.994  13.866 -0.4611  0.2318 -0.0751
16009TIP3    H169442   1.098   3.019  13.954 -1.3685  0.3077 -0.3822
16009TIP3    H269443   1.142   2.900  13.871 -1.6907  0.0164 -0.1380
16010TIP3   OH269444   1.976   5.133   1.982 -0.7046 -0.1260  0.1913
16010TIP3    H169445   2.052   5.087   2.017  0.3185 -0.6347 -2.4466
16010TIP3    H269446   1.916   5.063   1.956 -1.0975  0.2004  0.2200
16011TIP3   OH269447   5.374   2.711   2.786 -0.4956  0.1178 -0.6097
16011TIP3    H169448   5.393   2.650   2.714 -0.1535  0.1560 -0.5564
16011TIP3    H269449   5.285   2.740   2.771 -1.3336 -1.7722  0.3580
16012TIP3   OH269450   0.947   2.556   1.746  0.2701  0.3790  0.0316
16012TIP3    H169451   1.020   2.500   1.772  0.2190  0.8792  1.3776
16012TIP3    H269452   0.880   2.496   1.713  0.6597 -0.2380  0.3589
16013TIP3   OH269453   6.148   1.240  14.478  0.2054 -0.4372 -0.0048
16013TIP3    H169454   6.220   1.219  14.537 -0.4215  0.7964  1.2663
16013TIP3    H269455   6.153   1.335  14.467  0.4699 -0.6668 -2.2028
16014TIP3   OH269456   4.519   4.973   1.411  1.0623 -0.0962 -0.4231
16014TIP3    H169457   4.568   5.025   1.347  2.8294  1.3373  1.9326
16014TIP3    H269458   4.453   5.034   1.445  1.0603 -0.3938  0.1119
16015TIP3   OH269459   0.257   2.119   2.898 -0.3707  0.0366  0.4642
16015TIP3    H169460   0.329   2.137   2.838  0.4153 -0.7846  1.1480
16015TIP3    H269461   0.220   2.036   2.866  0.6844 -0.9376  1.6633
16016TIP3   OH269462   6.413   3.967  16.620  0.3488 -0.6942  0.5071
16016TIP3    H169463   6.439   4.034  16.558  2.4559 -1.3346  0.6367
16016TIP3    H269464   6.323   3.990  16.644  0.5303  1.2463 -0.5036
16017TIP3   OH269465   5.521   3.028  11.217  0.5701  0.2506  0.2367
16017TIP3    H169466   5.558   3.113  11.239  0.5806  0.0326  1.1211
16017TIP3    H269467   5.543   2.973  11.292  2.2713 -1.0636 -1.1322
16018TIP3   OH269468   3.937   6.021   5.357  0.0243 -0.1818 -0.0997
16018TIP3    H169469   4.026   6.054   5.345 -0.1837  1.3646  2.1414
16018TIP3    H269470   3.883   6.075   5.298  0.5023 -1.0514 -1.3797
16019TIP3   OH269471   3.480   5.748   6.907  0.1060  0.3344  0.1658
16019TIP3    H169472   3.573   5.757   6.929  0.4334 -4.7251  2.2059
16019TIP3    H269473   3.479   5.703   6.823 -0.3252 -1.5841  1.1532
16020TIP3   OH269474   6.521   2.121  15.132 -0.6308 -0.5519 -0.1839
16020TIP3    H169475   6.448   2.170  15.169  1.0138  0.3596  2.0711
16020TIP3    H269476   6.487   2.032  15.123 -2.1629 -0.0636  0.3475
16021TIP3   OH269477   4.898   4.475   1.504  0.3507  0.3323 -0.0997
16021TIP3    H169478   4.916   4.560   1.544  1.0382 -0.6480  1.8223
16021TIP3    H269479   4.955   4.414   1.551  0.9167 -1.0022 -2.3675
16022TIP3   OH269480   4.834   5.380  14.119 -0.1428  0.4189  0.2343
16022TIP3    H169481   4.796   5.317  14.056 -1.8310 -1.5951  3.0312
16022TIP3    H269482   4.917   5.340  14.145  0.2306  0.9121 -0.1817
16023TIP3   OH269483   2.773   2.957   4.717  0.1679 -0.2507  0.6242
16023TIP3    H169484   2.742   2.909   4.794 -0.4936  1.0282  1.1837
16023TIP3    H269485   2.848   2.906   4.686 -0.3410 -1.4870  1.3428
16024TIP3   OH269486   0.376   5.981  13.087 -0.4969 -0.2379 -0.5989
16024TIP3    H169487   0.408   6.031  13.163  0.1048 -0.5940 -0.6074
16024TIP3    H269488   0.325   5.910  13.126  0.5924 -0.9725 -0.4661
16025TIP3   OH269489   1.902   0.217  13.093  0.2390 -0.0825 -0.2140
16025TIP3    H169490   1.930   0.292  13.145 -0.1418  0.9175 -1.4002
16025TIP3    H269491   1.932   0.141  13.142 -0.0769  0.8099  1.4351
16026TIP3   OH269492   6.187   3.244  16.682 -0.2080 -0.4040  0.1576
16026TIP3    H169493   6.128   3.317  16.700  0.4575  0.1641  0.1074
16026TIP3    H269494   6.229   3.267  16.599  0.9858 -0.1776  0.8005
16027TIP3   OH269495   5.408   5.215   6.030  0.4551  0.2440  0.0419
16027TIP3    H169496   5.490   5.230   5.983  1.3161  0.4846  1.5711
16027TIP3    H269497   5.414   5.271   6.108 -0.6602 -0.5909  0.7588
16028TIP3   OH269498   0.113   3.709   0.511  0.9307 -0.7795  0.0557
16028TIP3    H169499   0.104   3.662   0.594 -1.2527  0.3976  0.5579
16028TIP3    H269500   0.204   3.738   0.509  0.7590  0.1994  2.6386
16029TIP3   OH269501   4.930   0.452   4.290 -0.7683  0.1697  0.1548
16029TIP3    H169502   5.006   0.426   4.343 -0.9267  2.1873  1.5091
16029TIP3    H269503   4.861   0.467   4.354 -1.1236  2.1965 -0.6397
16030TIP3   OH269504   3.350   1.777   4.716 -0.3742 -0.2154  0.3039
16030TIP3    H169505   3.426   1.784   4.775 -0.3613 -1.2513  0.4252
16030TIP3    H269506   3.282   1.830   4.758  0.1941  0.5076  0.3320
16031TIP3   OH269507   2.337   2.761  14.868 -0.0906  0.2517  0.0591
16031TIP3    H169508   2.249   2.795  14.878  0.2913  1.3552 -0.2287
16031TIP3    H269509   2.384   2.790  14.946 -0.4092 -1.8219  1.0959
16032TIP3   OH269510   5.896   5.416  12.342  0.3726 -0.0342 -0.5908
16032TIP3    H169511   5.863   5.497  12.303  1.2044  0.3526 -0.5203
16032TIP3    H269512   5.896   5.434  12.436  1.9819  0.4553 -0.6623
16033TIP3   OH269513   0.155   2.875   1.953 -0.1535  0.0906  0.2679
16033TIP3    H169514   0.158   2.800   2.013 -1.6662 -0.6462 -0.5170
16033TIP3    H269515   0.092   2.935   1.992 -3.3996 -1.6490 -1.8086
16034TIP3   OH269516   4.010   2.477   2.393  0.2096  0.3795  0.1246
16034TIP3    H169517   4.035   2.515   2.477 -3.9815  1.1220  1.2361
16034TIP3    H269518   4.024   2.383   2.404 -1.7800  0.2623  2.3735
16035TIP3   OH269519   2.516   6.094   5.565 -0.1085  0.3022  0.0690
16035TIP3    H169520   2.437   6.098   5.619 -0.2684 -0.3110 -0.1053
16035TIP3    H269521   2.500   6.020   5.506  0.7182  0.0106  0.2133
16036TIP3   OH269522   1.867   2.850   6.097 -0.0849 -0.2198 -0.1499
16036TIP3    H169523   1.928   2.788   6.137 -1.4929 -0.3971  1.8796
16036TIP3    H269524   1.790   2.797   6.075 -0.0942  0.2544 -1.3537
16037TIP3   OH269525   2.548   4.954  12.714  0.5133 -0.2416  0.0489
16037TIP3    H169526   2.608   4.924  12.646  1.2685  2.1332 -0.4573
16037TIP3    H269527   2.589   4.929  12.796  1.2389 -0.3308 -0.3308
16038TIP3   OH269528   0.002   3.378   3.354 -0.2064 -0.6077 -0.5400
16038TIP3    H169529   0.068   3.391   3.422 -0.1959 -2.4689 -0.1547
16038TIP3    H269530   0.043   3.411   3.274 -0.1526  1.4481  0.2679
16039TIP3   OH269531   2.692   2.470  15.635 -0.1846  0.1977  0.6608
16039TIP3    H169532   2.682   2.559  15.668 -2.2061  0.6961 -1.0495
16039TIP3    H269533   2.639   2.468  15.555  1.5671 -1.9129 -0.5804
16040TIP3   OH269534   3.665   2.779   5.311 -0.2349  0.1317 -0.8671
16040TIP3    H169535   3.650   2.686   5.326 -1.9735  0.4146 -0.5677
16040TIP3    H269536   3.736   2.802   5.371 -1.0890 -0.6278  0.5017
16041TIP3   OH269537   4.309   6.284  12.305 -0.2543 -0.6662 -0.2231
16041TIP3    H169538   4.353   6.353  12.356  1.8811 -1.0113 -1.4649
16041TIP3    H269539   4.262   6.332  12.236  0.6392 -0.3718 -0.6535
16042TIP3   OH269540   2.909   2.749   3.315  0.1883  0.5808 -0.1887
16042TIP3    H169541   2.946   2.727   3.230  0.3400  3.6348 -1.0369
16042TIP3    H269542   2.830   2.799   3.295 -1.7761 -1.5763  1.5817
16043TIP3   OH269543   5.705   0.090  13.912  0.7261  0.0651  0.3354
16043TIP3    H169544   5.729   0.142  13.988  0.8178 -0.4073  0.6361
16043TIP3    H269545   5.734   0.001  13.933  2.3228  0.2268 -0.9639
16044TIP3   OH269546   5.221   4.782   5.651 -0.1759  0.3808  0.4574
16044TIP3    H169547   5.243   4.831   5.572  0.9052  1.4384  1.3813
16044TIP3    H269548   5.271   4.825   5.721  0.9911 -2.1654  1.2959
16045TIP3   OH269549   6.236   1.748   1.279 -0.1466 -0.6809  0.5459
16045TIP3    H169550   6.301   1.818   1.274 -0.9258  0.0290 -0.1773
16045TIP3    H269551   6.186   1.756   1.197 -0.4251 -1.9196  0.5743
16046TIP3   OH269552   4.858   4.787  11.836 -0.0989 -0.6784 -0.3728
16046TIP3    H169553   4.918   4.858  11.812  1.1776 -1.0001  1.6005
16046TIP3    H269554   4.835   4.745  11.753  1.1855  0.4236 -1.3253
16047TIP3   OH269555   0.028   5.945   1.563 -0.1630  0.5528  0.0631
16047TIP3    H169556  -0.030   5.869   1.560  1.8395 -1.0450 -2.0289
16047TIP3    H269557   0.115   5.909   1.544  1.2408  3.0789  1.2871
16048TIP3   OH269558   6.030   4.566   3.361  0.3512  0.0965 -0.2278
16048TIP3    H169559   5.970   4.543   3.290  0.3398 -0.5447 -0.0103
16048TIP3    H269560   6.012   4.659   3.378 -0.4136 -0.0320 -0.3224
16049TIP3   OH269561   1.804   3.145   1.424  0.3093 -0.3706 -0.5193
16049TIP3    H169562   1.771   3.145   1.514 -0.2017  1.1680 -0.6781
16049TIP3    H269563   1.880   3.086   1.427  0.3378 -0.3124  0.9320
16050TIP3   OH269564   4.562   0.530  13.929 -0.0867 -0.6717  0.1612
16050TIP3    H169565   4.578   0.441  13.899  0.5843 -0.4328 -0.2170
16050TIP3    H269566   4.525   0.575  13.854  0.4128 -0.4013  0.0730
16051TIP3   OH269567   1.006   5.697  15.022  0.4039 -0.6273 -0.1090
16051TIP3    H169568   0.932   5.680  15.081  0.2233 -1.7494 -0.6384
16051TIP3    H269569   1.080   5.712  15.080 -0.2126  0.4728  0.4313
16052TIP3   OH269570   3.380   2.711  13.811 -0.0418 -0.1143  0.0578
16052TIP3    H169571   3.441   2.638  13.797 -0.3361 -0.1242 -1.2923
16052TIP3    H269572   3.437   2.786  13.827  0.2777 -0.4846  0.7159
16053TIP3   OH269573   6.092   6.751   1.843  0.4913  0.7812 -0.5742
16053TIP3    H169574   6.027   6.695   1.801  0.7512  0.1389 -0.1270
16053TIP3    H269575   6.052   6.775   1.927  0.1149  1.7904 -1.0211
16054TIP3   OH269576   0.478   4.671   2.136  0.1082  0.2798  0.3820
16054TIP3    H169577   0.565   4.710   2.132 -0.3693  1.3119 -0.4059
16054TIP3    H269578   0.442   4.701   2.219 -0.2224  1.5096 -0.1780
16055TIP3   OH269579   0.217   6.756   1.337 -0.2496 -0.4079  0.2377
16055TIP3    H169580   0.179   6.669   1.325 -0.0712 -0.5173  0.4583
16055TIP3    H269581   0.306   6.739   1.366 -0.4691 -0.1525  1.0837
16056TIP3   OH269582   2.041   5.174  12.215  0.0360 -0.2106 -0.2997
16056TIP3    H169583   2.019   5.104  12.154  1.5229 -0.8136 -0.1894
16056TIP3    H269584   2.122   5.211  12.181 -0.2047  0.8118  0.1974
16057TIP3   OH269585   1.859   1.073  11.692 -0.2871 -0.4819 -0.3539
16057TIP3    H169586   1.917   1.125  11.636 -0.3038  0.7988  0.7700
16057TIP3    H269587   1.869   1.111  11.779 -1.9788 -0.9419  0.0753
16058TIP3   OH269588   5.397   6.008  15.742  0.1418 -0.2179  0.0822
16058TIP3    H169589   5.345   6.064  15.684  0.9229 -1.5305 -2.0140
16058TIP3    H269590   5.453   6.069  15.791  0.2638  0.8999 -1.3862
16059TIP3   OH269591   5.493   3.850  11.993 -0.0887 -0.2513 -0.1512
16059TIP3    H169592   5.426   3.832  12.058 -0.0496 -1.5154 -0.4354
16059TIP3    H269593   5.575   3.823  12.034  0.0566 -0.1747 -0.3840
16060TIP3   OH269594   0.414   6.460   2.458  0.2881  0.6152 -0.5981
16060TIP3    H169595   0.392   6.387   2.516  0.6955  0.8516 -0.1391
16060TIP3    H269596   0.506   6.445   2.435  0.4362  1.1030 -0.3288
16061TIP3   OH269597   4.782   0.324   2.884 -0.6630 -0.5050 -0.4701
16061TIP3    H169598   4.751   0.333   2.974 -0.9359 -0.3264 -0.5807
16061TIP3    H269599   4.741   0.397   2.837  0.1733 -0.0795 -0.5571
16062TIP3   OH269600   0.297   4.928  12.040  0.2495 -0.3877  0.0073
16062TIP3    H169601   0.267   4.907  11.951  1.5884  2.9795 -1.4218
16062TIP3    H269602   0.250   5.009  12.062  1.9712  0.3536  1.1644
16063TIP3   OH269603   1.104   1.256   0.817  0.2746  0.3219 -0.2443
16063TIP3    H169604   1.160   1.326   0.783  0.3053  0.8475  0.8503
16063TIP3    H269605   1.165   1.186   0.842  0.2963  0.1830 -0.6716
16064TIP3   OH269606   3.881   4.895  13.476  0.2268 -0.1675 -1.1389
16064TIP3    H169607   3.933   4.917  13.399  1.4209 -2.0047 -0.9129
16064TIP3    H269608   3.803   4.852  13.441 -0.0700  0.5518 -1.3791
16065TIP3   OH269609   2.640   1.441  15.165  0.2147 -0.0747  0.6290
16065TIP3    H169610   2.551   1.458  15.135 -0.0785 -1.2543  0.7864
16065TIP3    H269611   2.666   1.521  15.211 -0.4803  0.5561 -0.0468
16066TIP3   OH269612   6.199   5.569   6.735  0.2847 -0.5106  0.3049
16066TIP3    H169613   6.284   5.576   6.777  0.2101 -1.9798  0.7510
16066TIP3    H269614   6.193   5.477   6.708 -0.3929 -0.0145 -1.3887
16067TIP3   OH269615   2.437   5.728  13.355  0.1960 -0.5758 -0.3167
16067TIP3    H169616   2.512   5.787  13.363  0.0173 -0.5706  1.7189
16067TIP3    H269617   2.421   5.696  13.444 -0.6276 -2.5713 -1.1130
16068TIP3   OH269618   6.228   0.949   1.474 -0.4386 -0.1445 -0.2001
16068TIP3    H169619   6.290   0.880   1.456  0.7602 -0.2341  3.4377
16068TIP3    H269620   6.143   0.905   1.481  0.4363 -1.6347  3.0257
16069TIP3   OH269621   6.057   3.792  14.230 -0.2056 -0.3504  0.3478
16069TIP3    H169622   6.002   3.855  14.184  0.0270 -0.0924  0.4222
16069TIP3    H269623   6.121   3.763  14.165  1.2421  1.3193  0.9289
16070TIP3   OH269624   4.412   5.938   0.734  0.1445 -0.7903  0.7652
16070TIP3    H169625   4.422   5.895   0.820  0.7470 -0.3993  0.8923
16070TIP3    H269626   4.464   5.884   0.674 -0.1441 -0.9707  0.6760
16071TIP3   OH269627   1.355   5.377  13.303 -0.3054 -0.0514  0.1823
16071TIP3    H169628   1.435   5.424  13.279 -0.9116  0.8273 -0.1534
16071TIP3    H269629   1.311   5.434  13.365  0.8209 -1.9339  2.8783
16072TIP3   OH269630   3.307   1.114   6.420  0.5008  0.4132  0.3713
16072TIP3    H169631   3.384   1.099   6.475  0.0118 -0.1802  0.9046
16072TIP3    H269632   3.312   1.206   6.396  2.5930 -0.0790 -1.4680
16073TIP3   OH269633   3.324   5.967   0.283 -0.1717 -0.4165 -0.5354
16073TIP3    H169634   3.280   5.883   0.296  0.6029 -0.5503  1.5660
16073TIP3    H269635   3.373   5.956   0.202 -2.2122 -1.0081 -1.7662
16074TIP3   OH269636   3.047   0.858   3.901  0.1464  0.5501  0.1515
16074TIP3    H169637   3.026   0.771   3.867  1.8340 -0.2036  0.9300
16074TIP3    H269638   3.052   0.914   3.823 -1.3636  0.0687 -0.3193
16075TIP3   OH269639   0.297   3.979  12.271  0.6822  0.1531 -0.5030
16075TIP3    H169640   0.215   3.934  12.251  0.3008  0.5156  0.2047
16075TIP3    H269641   0.347   3.974  12.189 -1.1485  2.3547 -1.8922
16076TIP3   OH269642   0.896   5.402   0.786 -0.4603  0.6537  0.1953
16076TIP3    H169643   0.927   5.493   0.794  0.2527  0.4690 -0.3308
16076TIP3    H269644   0.865   5.380   0.873  2.7132  0.2191  1.3423
16077TIP3   OH269645   2.126   1.613   4.156 -0.5910 -0.6993 -0.6399
16077TIP3    H169646   2.179   1.682   4.118  0.9346 -1.4619 -0.0031
16077TIP3    H269647   2.117   1.637   4.248 -0.4174 -1.1166 -0.5084
16078TIP3   OH269648   3.458   4.326  11.941 -0.7867 -0.4184 -0.2828
16078TIP3    H169649   3.423   4.373  11.865 -0.3218  0.6824  0.1584
16078TIP3    H269650   3.524   4.385  11.977  1.1182 -2.1747 -0.7439
16079TIP3   OH269651   4.957   4.796   3.921  0.1003 -0.8808  0.4580
16079TIP3    H169652   4.949   4.796   4.016 -1.0217 -0.4562  0.3778
16079TIP3    H269653   4.868   4.783   3.889 -0.1993  2.7464 -0.5531
16080TIP3   OH269654   0.406   3.508  11.162  0.1606  0.3540 -0.2019
16080TIP3    H169655   0.448   3.590  11.136  1.3100  0.7277  2.5189
16080TIP3    H269656   0.318   3.533  11.187  0.9967  1.1276  2.1727
16081TIP3   OH269657   0.680   6.101  16.537 -0.2944 -0.0986 -0.4697
16081TIP3    H169658   0.752   6.065  16.588  0.2825  2.2689  0.4925
16081TIP3    H269659   0.723   6.154  16.470 -1.1215 -0.7715 -1.5589
16082TIP3   OH269660   5.859   2.435   2.281  0.3196  0.1668 -0.8711
16082TIP3    H169661   5.862   2.425   2.185 -1.4584 -0.4816 -0.8952
16082TIP3    H269662   5.879   2.348   2.315 -1.2237 -0.1470 -0.7230
16083TIP3   OH269663   2.586   4.865  15.958  0.1019 -0.2953  0.5687
16083TIP3    H169664   2.508   4.879  16.012  0.0723  0.3260  0.3766
16083TIP3    H269665   2.564   4.790  15.904 -1.0385  0.8822 -0.6804
16084TIP3   OH269666   4.999   3.888  14.971  0.1415 -0.6832  0.0490
16084TIP3    H169667   5.016   3.932  14.888 -3.2346 -0.1410 -0.4920
16084TIP3    H269668   5.002   3.795  14.950 -0.1496 -0.5553 -0.5760
16085TIP3   OH269669   1.050   6.166  13.774  0.0943 -0.3656  0.4747
16085TIP3    H169670   1.085   6.133  13.856 -0.4029 -0.3929  0.6730
16085TIP3    H269671   0.961   6.194  13.794 -0.3105 -1.1035 -0.2278
16086TIP3   OH269672   0.468   4.540   1.726 -0.2083  0.4329  0.0294
16086TIP3    H169673   0.495   4.622   1.768  0.7751  0.1340 -0.0006
16086TIP3    H269674   0.550   4.496   1.704 -0.7143 -1.0592  1.0092
16087TIP3   OH269675   2.269   0.439   4.527  0.3911  0.4393 -0.5807
16087TIP3    H169676   2.211   0.439   4.451  1.6263  0.4079 -1.5541
16087TIP3    H269677   2.352   0.472   4.494  0.6059  1.6449  1.0512
16088TIP3   OH269678   1.215   0.874  16.347  0.1225 -0.0005 -0.5733
16088TIP3    H169679   1.125   0.843  16.358  0.2191  0.1036  0.6497
16088TIP3    H269680   1.269   0.806  16.387  0.3829  1.3203  1.4128
16089TIP3   OH269681   6.639   6.390  16.018 -0.3045 -0.0122  0.2401
16089TIP3    H169682   6.587   6.331  15.963 -1.9796  0.9976  0.6438
16089TIP3    H269683   6.700   6.432  15.957 -2.0435  1.0009 -0.9019
16090TIP3   OH269684   1.951   0.152   1.133 -0.3814 -0.0129  0.0653
16090TIP3    H169685   2.027   0.197   1.097 -0.0244 -0.8821 -0.2922
16090TIP3    H269686   1.881   0.217   1.131  0.0698  0.4586 -0.6158
16091TIP3   OH269687   1.427   3.399   1.196 -0.0779  0.6377  0.2186
16091TIP3    H169688   1.350   3.454   1.181  0.1299  1.1666  1.0441
16091TIP3    H269689   1.502   3.456   1.179  0.2088 -0.4183 -2.6623
16092TIP3   OH269690   3.178   3.658   3.586 -0.5424 -0.3518 -0.1683
16092TIP3    H169691   3.137   3.733   3.628 -0.8007 -1.1385  1.0436
16092TIP3    H269692   3.125   3.583   3.613  1.5107 -1.3767  1.2770
16093TIP3   OH269693   4.571   2.477  13.156 -0.2181  0.6623  0.4097
16093TIP3    H169694   4.561   2.505  13.065 -2.2131  0.5220  0.5621
16093TIP3    H269695   4.581   2.559  13.205  0.7803  0.7410  0.0946
16094TIP3   OH269696   4.218   4.087   1.097 -0.5163 -0.3440 -0.6136
16094TIP3    H169697   4.282   4.128   1.038 -0.7422 -0.9756 -1.3211
16094TIP3    H269698   4.227   4.135   1.179 -1.6222  1.9707 -1.7254
16095TIP3   OH269699   5.715   4.749  11.840 -0.0415 -0.0034  0.3642
16095TIP3    H169700   5.736   4.824  11.895  1.2242 -1.0464  1.3844
16095TIP3    H269701   5.639   4.709  11.883  1.1074 -0.9697  1.5777
16096TIP3   OH269702   0.588   2.195  14.813 -0.5460  0.1199 -0.2733
16096TIP3    H169703   0.623   2.200  14.901  1.3361 -1.3878 -0.8705
16096TIP3    H269704   0.664   2.203  14.756 -1.2563 -1.9747 -1.6715
16097TIP3   OH269705   4.191   1.632  12.378 -0.2439 -0.1158  0.2373
16097TIP3    H169706   4.216   1.540  12.369 -2.2974 -0.6979 -0.0277
16097TIP3    H269707   4.098   1.634  12.355 -0.1797  2.0874 -0.0525
16098TIP3   OH269708   5.016   4.593  14.272  0.4916  0.3166  0.2487
16098TIP3    H169709   5.050   4.572  14.359  1.0173 -2.6195 -0.5584
16098TIP3    H269710   4.922   4.575  14.278  0.7990 -1.6354 -0.1932
16099TIP3   OH269711   5.846   4.155   0.668 -0.1833 -0.1792 -0.6018
16099TIP3    H169712   5.839   4.136   0.762 -1.0860  0.2450 -0.5726
16099TIP3    H269713   5.936   4.185   0.657 -0.8750  2.7219  0.7142
16100TIP3   OH269714   3.606   4.152  16.552  0.5625 -0.0173  0.1468
16100TIP3    H169715   3.560   4.106  16.623  0.6735  0.0603  0.2711
16100TIP3    H269716   3.652   4.223  16.597 -0.6350  1.0161 -0.1810
16101TIP3   OH269717   2.572   4.062   2.865 -0.3048  0.1991 -0.3306
16101TIP3    H169718   2.580   4.128   2.934  0.7301 -2.5527  2.4425
16101TIP3    H269719   2.661   4.049   2.833 -0.4377 -0.0944 -0.5902
16102TIP3   OH269720   3.227   0.806   4.289  0.0327  0.0820 -0.3423
16102TIP3    H169721   3.178   0.729   4.318  1.9162 -0.3788  1.8917
16102TIP3    H269722   3.275   0.835   4.366  1.8255  1.5972 -1.9216
16103TIP3   OH269723   0.718   0.279   5.084  0.3197  0.2514  0.1267
16103TIP3    H169724   0.668   0.347   5.131  1.4933  1.2162  0.0252
16103TIP3    H269725   0.690   0.287   4.993  0.4239  0.5891  0.1212
16104TIP3   OH269726   5.438   2.838  11.939 -0.1105  0.4402 -0.2521
16104TIP3    H169727   5.375   2.910  11.927  1.6208  2.1292  0.2989
16104TIP3    H269728   5.387   2.769  11.981 -1.3737  2.2068  1.3204
16105TIP3   OH269729   2.935   4.214   2.425  0.2104  0.1292 -0.5076
16105TIP3    H169730   2.972   4.151   2.486 -1.3290  1.1520  1.6157
16105TIP3    H269731   2.857   4.171   2.390  0.8753 -0.3037 -1.4988
16106TIP3   OH269732   1.778   4.395  16.447 -0.1283  0.9291  0.5618
16106TIP3    H169733   1.844   4.345  16.495  0.0167 -0.5615 -1.1215
16106TIP3    H269734   1.829   4.458  16.396 -0.3081  2.8986  2.6547
16107TIP3   OH269735   5.732   2.202   5.484 -0.3168  0.0108  0.2080
16107TIP3    H169736   5.653   2.256   5.485 -0.7420 -0.6011  1.3525
16107TIP3    H269737   5.802   2.261   5.459 -1.3212  0.2886 -2.2949
16108TIP3   OH269738   1.678   5.973  12.618 -0.3850 -0.3866  0.6549
16108TIP3    H169739   1.590   5.978  12.581  0.4486  1.8230 -1.2555
16108TIP3    H269740   1.689   6.056  12.665  1.1605  0.0731 -0.4295
16109TIP3   OH269741   0.252   6.343   4.674 -0.0138  0.2093  0.5313
16109TIP3    H169742   0.340   6.313   4.698  0.1960 -0.0422 -0.4877
16109TIP3    H269743   0.250   6.336   4.578 -1.1304  0.2659  0.5392
16110TIP3   OH269744   6.183   6.102  11.492  0.1571 -0.6147 -0.1027
16110TIP3    H169745   6.175   6.075  11.401  1.7323 -1.8860  0.0874
16110TIP3    H269746   6.122   6.175  11.501  0.9601  0.4601 -2.5213
16111TIP3   OH269747   1.474   5.593   4.261 -0.2168  0.5206 -0.1202
16111TIP3    H169748   1.544   5.531   4.281 -2.0743 -1.7582 -0.2832
16111TIP3    H269749   1.470   5.595   4.165 -2.1797 -1.7013 -0.1844
16112TIP3   OH269750   2.198   2.181  13.774 -0.3793  0.2416 -0.5513
16112TIP3    H169751   2.245   2.161  13.693  0.3978  0.3284 -0.1227
16112TIP3    H269752   2.139   2.253  13.750  1.6265  2.0233 -0.4697
16113TIP3   OH269753   5.627   4.538   5.037 -0.1553  0.4699 -0.2686
16113TIP3    H169754   5.591   4.562   4.951  0.0316 -0.3961 -0.6019
16113TIP3    H269755   5.594   4.605   5.096 -0.8262  0.7186 -0.9048
16114TIP3   OH269756   3.139   4.512   5.127  0.6957 -0.3367 -0.6073
16114TIP3    H169757   3.115   4.457   5.202  0.1080  0.0159 -0.5294
16114TIP3    H269758   3.169   4.594   5.166  1.9379 -0.7161 -0.7073
16115TIP3   OH269759   3.061   5.409   3.405  0.3500 -0.2585 -0.1777
16115TIP3    H169760   3.099   5.423   3.492 -0.1545  0.4178 -0.0616
16115TIP3    H269761   3.107   5.472   3.349  1.4013 -1.3787 -0.6300
16116TIP3   OH269762   2.093   4.327  13.551  0.2189  0.0553 -0.3626
16116TIP3    H169763   2.126   4.275  13.625  0.2430 -0.0374 -0.4385
16116TIP3    H269764   2.059   4.407  13.592 -0.3563 -0.2778 -0.1857
16117TIP3   OH269765   5.364   2.115  10.680 -0.0362  0.6180  0.2161
16117TIP3    H169766   5.427   2.111  10.608  0.4630  0.6699  0.6449
16117TIP3    H269767   5.418   2.112  10.759 -0.6363 -0.5991  0.6008
16118TIP3   OH269768   0.171   3.844  14.197  0.1477 -0.1008 -0.0465
16118TIP3    H169769   0.170   3.901  14.274 -1.6379  0.4121 -0.3976
16118TIP3    H269770   0.175   3.905  14.122 -0.6657 -0.4709 -0.3985
16119TIP3   OH269771   1.306   0.469  14.816  0.1185  0.3811 -0.5580
16119TIP3    H169772   1.330   0.520  14.739 -2.9488  2.6384 -0.2063
16119TIP3    H269773   1.210   0.465  14.813  0.0547 -3.2967  0.8454
16120TIP3   OH269774   5.267   5.786  16.484 -0.6106  0.1003 -0.3703
16120TIP3    H169775   5.313   5.858  16.440  0.1123 -0.2675 -0.2338
16120TIP3    H269776   5.200   5.829  16.537  0.4704  0.7551  0.5037
16121TIP3   OH269777   0.625   3.611   0.750 -0.1612 -0.1609  0.0889
16121TIP3    H169778   0.574   3.643   0.676 -0.4035  0.3110  0.4575
16121TIP3    H269779   0.562   3.603   0.822  0.2727  0.4199  0.5475
16122TIP3   OH269780   3.120   3.394  14.499  0.0913 -0.5757  0.2789
16122TIP3    H169781   3.148   3.320  14.444  0.0503 -0.7961  0.5529
16122TIP3    H269782   3.192   3.407  14.560  0.8502  0.7138 -0.8500
16123TIP3   OH269783   0.953   0.733   3.130 -0.9069 -0.2237  0.2922
16123TIP3    H169784   0.981   0.676   3.058 -1.6190 -0.5469  0.2608
16123TIP3    H269785   0.999   0.698   3.206 -2.1300 -1.5366  0.4745
16124TIP3   OH269786   2.797   4.293   2.763 -0.0637  0.2195  0.3812
16124TIP3    H169787   2.889   4.316   2.772 -0.0424 -0.3380  1.9991
16124TIP3    H269788   2.796   4.197   2.768 -0.5812  0.0913 -1.4790
16125TIP3   OH269789   3.050   1.906   6.473 -0.0530 -0.6507  0.0540
16125TIP3    H169790   3.010   1.930   6.556  1.9616  0.0865  0.8780
16125TIP3    H269791   3.100   1.827   6.493 -0.3629 -1.0536 -0.7198
16126TIP3   OH269792   4.081   3.395  15.003  0.3975 -0.7072 -0.1112
16126TIP3    H169793   4.114   3.311  14.972  0.7886  0.0557 -1.8868
16126TIP3    H269794   4.144   3.423  15.069 -0.0013 -1.9922  0.8691
16127TIP3   OH269795   0.154   2.856  12.512 -0.4323 -0.4076  0.1435
16127TIP3    H169796   0.158   2.797  12.587 -0.7458 -1.6130 -0.7514
16127TIP3    H269797   0.188   2.804  12.439 -4.0665 -0.8094 -1.4563
16128TIP3   OH269798   1.685   4.708   1.720  0.0962 -0.2253  0.0721
16128TIP3    H169799   1.731   4.790   1.703 -0.4807 -0.5231 -3.8143
16128TIP3    H269800   1.731   4.643   1.668 -1.9481 -1.4711 -0.3135
16129TIP3   OH269801   2.125   2.171  13.047  0.0684  0.0465 -0.4600
16129TIP3    H169802   2.099   2.226  12.974 -0.7065  1.7243  1.0078
16129TIP3    H269803   2.082   2.087  13.030 -0.0801  0.3889 -1.9163
16130TIP3   OH269804   5.742   0.819  10.984 -0.2021 -0.5758 -0.2133
16130TIP3    H169805   5.729   0.856  11.072 -1.3472 -0.5383 -0.3826
16130TIP3    H269806   5.730   0.894  10.925  0.8668 -0.5411 -0.3907
16131TIP3   OH269807   0.791   1.108  14.584  0.6642 -0.1223 -0.0884
16131TIP3    H169808   0.744   1.145  14.658  0.5482 -3.0934  1.4454
16131TIP3    H269809   0.825   1.185  14.537 -0.1766  1.9110  2.3867
16132TIP3   OH269810   0.033   6.560   0.863  0.3280  0.1624  0.1180
16132TIP3    H169811   0.002   6.500   0.931 -0.6659  1.8026  1.1837
16132TIP3    H269812   0.110   6.602   0.902  0.5291  0.1830 -0.2998
16133TIP3   OH269813   0.987   0.113   3.378  0.0502  0.4320  0.3177
16133TIP3    H169814   0.896   0.085   3.369  0.4518 -0.9078  0.1999
16133TIP3    H269815   1.024   0.105   3.290  1.1168 -2.2237  0.9029
16134TIP3   OH269816   0.463   3.506  14.676  0.2825 -0.0634 -0.3351
16134TIP3    H169817   0.504   3.586  14.709  0.4160  0.0687 -0.8238
16134TIP3    H269818   0.373   3.533  14.655 -0.0618 -0.3417  0.6927
16135TIP3   OH269819   4.669   3.286   6.099 -0.0494 -0.1071 -0.0020
16135TIP3    H169820   4.694   3.336   6.176  0.9212 -2.8981  1.6415
16135TIP3    H269821   4.620   3.211   6.133  1.7147 -2.2486 -1.8525
16136TIP3   OH269822   5.307   3.404  15.028 -0.0628 -0.4664  0.4784
16136TIP3    H169823   5.351   3.411  14.944  0.9484 -0.9551  0.9449
16136TIP3    H269824   5.215   3.417  15.008  0.3492  1.4265 -0.4227
16137TIP3   OH269825   0.732   0.640   1.553  0.6229 -0.0045  0.4587
16137TIP3    H169826   0.799   0.619   1.618  1.2490  0.1282 -0.1286
16137TIP3    H269827   0.751   0.583   1.479 -0.4921 -0.6289  0.6282
16138TIP3   OH269828   1.661   1.792   1.650  0.0394 -0.0387 -0.3236
16138TIP3    H169829   1.616   1.849   1.713 -0.3585  0.1407 -0.7637
16138TIP3    H269830   1.592   1.764   1.590  0.4302 -0.1519 -0.7234
16139TIP3   OH269831   6.445   3.371   4.668  0.3187  0.3270  0.7650
16139TIP3    H169832   6.354   3.382   4.641  0.1796 -1.1293  0.5800
16139TIP3    H269833   6.439   3.324   4.751  0.9122 -0.2740  0.4740
16140TIP3   OH269834   0.854   6.464  11.964  0.3384  0.0078 -0.1430
16140TIP3    H169835   0.832   6.534  12.026 -1.1764  0.2124 -0.8763
16140TIP3    H269836   0.784   6.400  11.974  0.6478 -0.4674 -0.8959
16141TIP3   OH269837   6.079   1.301   3.250 -0.3906 -0.2696  0.0550
16141TIP3    H169838   6.158   1.355   3.248 -0.1247 -0.3303  3.1310
16141TIP3    H269839   6.023   1.344   3.315 -0.8405 -2.7424  1.4510
16142TIP3   OH269840   5.229   4.347   4.244 -0.2264 -0.0621 -0.1811
16142TIP3    H169841   5.276   4.339   4.326  0.1028 -1.8760 -0.5144
16142TIP3    H269842   5.178   4.266   4.236 -0.1308 -0.0074 -1.8145
16143TIP3   OH269843   2.899   0.097  10.709 -0.4201 -0.0983  0.1791
16143TIP3    H169844   2.906   0.013  10.664 -1.4330 -0.4555  0.6729
16143TIP3    H269845   2.990   0.126  10.720  0.2367 -2.7833  3.1029
16144TIP3   OH269846   2.868   3.854  14.608 -0.4269  0.3166 -0.1980
16144TIP3    H169847   2.876   3.895  14.522  0.7678 -0.6835 -0.5827
16144TIP3    H269848   2.893   3.922  14.670  1.5191  0.2237 -0.8250
16145TIP3   OH269849   5.572   5.801   5.513  0.1097  0.0886  0.5901
16145TIP3    H169850   5.579   5.880   5.459  1.0233 -0.7044 -0.5023
16145TIP3    H269851   5.638   5.741   5.476 -0.1573 -0.9622  1.7694
16146TIP3   OH269852   1.080   6.230  12.606  0.6070 -0.2762 -0.1304
16146TIP3    H169853   1.035   6.306  12.644 -1.5061 -0.7095 -1.5803
16146TIP3    H269854   1.151   6.268  12.554  2.3206  0.4127  2.4985
16147TIP3   OH269855   2.672   6.756  14.200 -0.0772  0.0849 -0.1086
16147TIP3    H169856   2.655   6.696  14.273 -0.9935 -0.0020 -0.3793
16147TIP3    H269857   2.747   6.808  14.228  1.1411 -1.5950 -0.1061
16148TIP3   OH269858   1.790   1.332  16.053 -0.1400  0.2130 -0.1241
16148TIP3    H169859   1.744   1.413  16.073  1.5867  1.7963 -2.0558
16148TIP3    H269860   1.865   1.331  16.112  1.6900  1.8652 -2.2292
16149TIP3   OH269861   4.053   5.117  12.363  0.0817 -0.1849  0.2088
16149TIP3    H169862   4.049   5.028  12.328 -0.1106 -0.3243  0.5784
16149TIP3    H269863   4.005   5.170  12.300 -0.1488 -0.4116  0.1938
16150TIP3   OH269864   4.881   4.478   4.528 -0.4444  0.0016  0.2091
16150TIP3    H169865   4.952   4.530   4.490 -2.1883  0.9517 -2.0085
16150TIP3    H269866   4.873   4.509   4.618  0.0751  1.9800 -0.3754
16151TIP3   OH269867   5.187   0.380   4.383  0.4890  0.3414 -0.0886
16151TIP3    H169868   5.244   0.309   4.353 -0.0013  0.5927 -1.7060
16151TIP3    H269869   5.214   0.456   4.331 -0.5819  0.7306 -0.0906
16152TIP3   OH269870   5.413   4.395   0.534 -0.5559 -0.6474 -0.1509
16152TIP3    H169871   5.478   4.372   0.468  0.0227 -1.3495  0.6412
16152TIP3    H269872   5.355   4.318   0.537 -0.2826 -0.8323  0.5052
16153TIP3   OH269873   1.475   3.558  13.049  0.2620 -0.1305 -0.0878
16153TIP3    H169874   1.556   3.608  13.038  1.0162 -1.2036  0.3403
16153TIP3    H269875   1.455   3.565  13.142 -0.2475  0.2795 -0.2250
16154TIP3   OH269876   5.956   3.008  13.548  0.4711 -0.1651  0.1871
16154TIP3    H169877   5.878   2.960  13.575 -0.4771  0.8784 -0.5785
16154TIP3    H269878   6.028   2.966  13.595 -0.3082 -2.2484 -0.4112
16155TIP3   OH269879   4.079   0.025   3.090  0.5935  0.1941  0.1696
16155TIP3    H169880   4.137  -0.049   3.074  2.7075  1.7278  0.3590
16155TIP3    H269881   4.061   0.061   3.002 -1.9760 -1.5441 -0.1255
16156TIP3   OH269882   3.090   6.053  13.181  0.4003 -0.0282 -0.4963
16156TIP3    H169883   3.021   6.039  13.116 -0.4955  1.6059  0.0484
16156TIP3    H269884   3.085   5.976  13.238  0.7062 -1.1238 -1.8730
16157TIP3   OH269885   5.979   2.113  12.987 -0.6395  0.1255 -0.0950
16157TIP3    H169886   6.061   2.065  12.974  0.7825  1.5809  2.4733
16157TIP3    H269887   5.997   2.200  12.952 -0.9716  0.5210  0.6862
16158TIP3   OH269888   3.634   4.287  14.627 -0.7578  0.3872 -0.3695
16158TIP3    H169889   3.585   4.232  14.688 -0.0175 -0.4330 -0.4908
16158TIP3    H269890   3.567   4.341  14.584 -1.4669 -0.2097 -0.0385
16159TIP3   OH269891   1.485   2.696  14.778  0.6150  0.1572  0.4551
16159TIP3    H169892   1.462   2.789  14.777 -1.9494 -0.3935 -0.2076
16159TIP3    H269893   1.479   2.669  14.686  2.6266 -0.4348  0.4490
16160TIP3   OH269894   4.456   3.267   4.204  0.4789 -0.0789 -0.4878
16160TIP3    H169895   4.460   3.329   4.131  1.3016  0.5547  0.0782
16160TIP3    H269896   4.388   3.204   4.179  1.0973 -0.1763 -2.0385
16161TIP3   OH269897   4.749   5.698   5.531 -0.2353 -0.2950 -0.0309
16161TIP3    H169898   4.822   5.742   5.490 -1.5689  1.8295 -0.2563
16161TIP3    H269899   4.780   5.675   5.619  0.7114  0.4894 -0.1554
16162TIP3   OH269900   3.528   1.812   1.531 -0.3549  0.1847 -0.3560
16162TIP3    H169901   3.479   1.737   1.563 -1.9685  0.7641 -1.3588
16162TIP3    H269902   3.483   1.838   1.451  0.7721  1.6120 -0.5683
16163TIP3   OH269903   5.086   5.127  12.659 -0.4848  0.2550 -0.1349
16163TIP3    H169904   5.001   5.165  12.679 -1.0394 -1.2123  0.4033
16163TIP3    H269905   5.144   5.159  12.729 -1.3464 -1.1995  1.3126
16164TIP3   OH269906   0.126   3.522   0.727 -0.0265 -0.1883  0.7052
16164TIP3    H169907   0.074   3.531   0.807 -1.2855 -1.9971  0.1640
16164TIP3    H269908   0.138   3.427   0.717  2.0179  0.1048 -0.0897
16165TIP3   OH269909   3.249   1.265  14.276 -0.0861  0.4165  0.1799
16165TIP3    H169910   3.260   1.360  14.279 -2.0938  0.6683  1.0454
16165TIP3    H269911   3.206   1.243  14.358 -1.0190 -1.0279 -0.6568
16166TIP3   OH269912   2.390   2.253  16.295  0.4557  0.3052 -0.1142
16166TIP3    H169913   2.375   2.332  16.243  0.1242  1.5644  1.8083
16166TIP3    H269914   2.424   2.285  16.378  2.0490 -1.7252  0.0920
16167TIP3   OH269915   0.732   5.517  14.463 -0.7868 -0.2438 -0.2069
16167TIP3    H169916   0.700   5.568  14.538  0.7900 -0.8097  0.8866
16167TIP3    H269917   0.671   5.443  14.457  0.2326 -1.3455  1.8985
16168TIP3   OH269918   3.087   5.892   0.588 -0.2892  0.1471  0.1616
16168TIP3    H169919   3.158   5.899   0.652 -1.3835 -3.5854  2.1217
16168TIP3    H269920   3.042   5.976   0.591  1.8303  1.3047  1.5974
16169TIP3   OH269921   2.654   3.461   3.305 -0.1311 -0.3342  0.6470
16169TIP3    H169922   2.692   3.380   3.272  1.7949  0.3729  0.9816
16169TIP3    H269923   2.668   3.525   3.235  1.5341  0.5050  1.6648
16170TIP3   OH269924   2.298   4.512  13.675 -0.9726 -0.4773  0.7067
16170TIP3    H169925   2.322   4.486  13.764 -1.9633 -1.8796  0.6001
16170TIP3    H269926   2.244   4.591  13.687 -1.3305 -0.8122  1.3800
16171TIP3   OH269927   4.329   2.498  13.298  0.3408  0.1044 -0.0562
16171TIP3    H169928   4.297   2.572  13.245 -0.6682  0.1910  0.6400
16171TIP3    H269929   4.423   2.495  13.280  0.4120  1.5545 -0.1078
16172TIP3   OH269930   5.740   0.822  12.916  0.7008 -0.6381  0.2520
16172TIP3    H169931   5.774   0.911  12.922  1.8024 -0.9690 -0.7069
16172TIP3    H269932   5.753   0.797  12.825  1.3855 -2.1495  0.7172
16173TIP3   OH269933   2.882   5.548   5.511 -0.2903 -0.4476  0.1138
16173TIP3    H169934   2.895   5.642   5.503  1.9337 -0.3820  2.8347
16173TIP3    H269935   2.918   5.512   5.429  0.4666  0.9983 -0.2217
16174TIP3   OH269936   6.447   0.228  10.927  0.3323 -0.3708  0.1941
16174TIP3    H169937   6.456   0.266  10.839 -0.7696 -2.1052 -0.7433
16174TIP3    H269938   6.536   0.211  10.956  0.7299  0.6806 -0.3769
16175TIP3   OH269939   2.245   0.291  12.598  0.3439  0.3926  0.3926
16175TIP3    H169940   2.269   0.213  12.548  0.8084  0.5554  0.3554
16175TIP3    H269941   2.329   0.328  12.625  0.0963  0.2650  1.3627
16176TIP3   OH269942   2.151   1.062   5.444 -0.2423 -0.0799  0.2765
16176TIP3    H169943   2.239   1.033   5.468 -0.6180 -1.6835 -0.1870
16176TIP3    H269944   2.095   1.031   5.515 -0.6441 -0.4356 -0.1881
16177TIP3   OH269945   1.677   5.386  13.774 -0.2028 -0.3555  0.4559
16177TIP3    H169946   1.717   5.462  13.733 -0.9964 -0.9491 -1.5169
16177TIP3    H269947   1.615   5.423  13.837 -1.1592  0.6830 -1.0471
16178TIP3   OH269948   2.311   4.319   1.029 -0.3189  0.3935 -0.0413
16178TIP3    H169949   2.228   4.273   1.036 -1.3005  2.2723  1.7298
16178TIP3    H269950   2.337   4.336   1.120 -0.1290  3.3900 -0.5530
16179TIP3   OH269951   6.251   2.343   0.739  0.1249  0.4797 -0.0012
16179TIP3    H169952   6.169   2.356   0.692 -0.4392 -1.1859  0.4769
16179TIP3    H269953   6.312   2.310   0.674 -0.0308  0.2461 -0.0290
16180TIP3   OH269954   1.897   3.084   2.400  0.1170  0.7106  0.3507
16180TIP3    H169955   1.812   3.057   2.364 -0.2252  0.9306  0.9868
16180TIP3    H269956   1.956   3.079   2.325 -0.7138  1.7940 -0.4177
16181TIP3   OH269957   1.023   0.890  15.110  0.1858  0.0431 -0.6648
16181TIP3    H169958   0.963   0.867  15.039 -0.1057  0.6102 -0.6128
16181TIP3    H269959   1.102   0.840  15.092  0.5330  1.0178 -2.0231
16182TIP3   OH269960   3.765   2.868  16.269  0.1611  0.3942 -0.7776
16182TIP3    H169961   3.699   2.862  16.200 -1.7714 -1.8383  1.0668
16182TIP3    H269962   3.743   2.949  16.315 -0.9354  0.0145 -0.5901
16183TIP3   OH269963   5.242   2.211  13.063 -0.3673  0.0556 -0.3157
16183TIP3    H169964   5.274   2.127  13.096 -0.5783  0.2408  0.3741
16183TIP3    H269965   5.320   2.265  13.054 -0.1354 -0.4571 -1.5018
16184TIP3   OH269966   6.072   6.100   2.102  0.1219 -0.3552 -0.1472
16184TIP3    H169967   5.994   6.128   2.151 -0.8599 -0.6519 -1.4803
16184TIP3    H269968   6.051   6.120   2.011  1.6311 -0.4304 -0.5339
16185TIP3   OH269969   5.975   1.929  11.465  0.2956  0.0431 -0.2004
16185TIP3    H169970   5.900   1.878  11.496  0.3320  0.5038  0.6713
16185TIP3    H269971   5.957   1.943  11.372 -0.6717  0.0982 -0.0195
16186TIP3   OH269972   4.089   4.245   4.865 -0.0288 -0.2454  0.2191
16186TIP3    H169973   4.039   4.194   4.800 -0.5644 -1.4008  1.4966
16186TIP3    H269974   4.070   4.336   4.843 -0.5986 -0.6241 -0.9430
16187TIP3   OH269975   1.722   1.874   0.028  0.0934 -0.3893 -0.0669
16187TIP3    H169976   1.800   1.842  -0.018 -0.0728  0.6272 -1.1124
16187TIP3    H269977   1.700   1.956  -0.016 -1.1600 -0.2971  0.6706
16188TIP3   OH269978   0.896   3.257   3.492  0.4130 -0.6040 -0.5007
16188TIP3    H169979   0.902   3.281   3.584  1.3904  0.5072 -0.8294
16188TIP3    H269980   0.936   3.170   3.487 -0.4238 -1.0420  0.2448
16189TIP3   OH269981   2.843   6.709  11.222 -0.7380 -0.2457 -0.0625
16189TIP3    H169982   2.914   6.674  11.169 -0.8354  1.3571 -1.3425
16189TIP3    H269983   2.887   6.752  11.296 -0.1284  2.2213 -1.7095
16190TIP3   OH269984   3.568   0.328  16.401  0.2431 -0.3050  0.2535
16190TIP3    H169985   3.473   0.320  16.395  0.2646 -0.6727  0.3757
16190TIP3    H269986   3.590   0.289  16.485  0.7789 -2.8513 -0.9693
16191TIP3   OH269987   4.569   2.861  13.572 -0.0581 -0.2224 -0.3254
16191TIP3    H169988   4.531   2.937  13.617  0.6466  1.9073 -3.0400
16191TIP3    H269989   4.663   2.879  13.572  0.4161 -2.3849  1.0592
16192TIP3   OH269990   6.497   3.279   1.834  0.3273 -0.1098  0.7059
16192TIP3    H169991   6.460   3.303   1.918  0.3627  4.9859 -0.4582
16192TIP3    H269992   6.421   3.262   1.778  0.2138 -0.7113  1.0335
16193TIP3   OH269993   4.905   6.523   1.188 -0.5387 -0.0650 -0.1145
16193TIP3    H169994   4.984   6.575   1.189  1.4296 -2.7840 -1.1603
16193TIP3    H269995   4.853   6.556   1.261  1.3553  2.0475  0.3850
16194TIP3   OH269996   5.631   2.125   3.564  0.4113  0.0425 -0.2070
16194TIP3    H169997   5.600   2.035   3.570  1.6129 -0.4973 -1.5283
16194TIP3    H269998   5.577   2.164   3.495 -1.1988  0.8603  1.4342
16195TIP3   OH269999   4.691   6.149  12.813 -0.0812 -0.1709 -0.1792
16195TIP3    H170000   4.650   6.203  12.745  0.8730 -0.6170 -1.1357
16195TIP3    H270001   4.670   6.059  12.788  2.2451 -0.4726 -1.2655
16196TIP3   OH270002   4.806   0.393   0.322 -0.3864  0.0669  0.2475
16196TIP3    H170003   4.878   0.416   0.381 -1.8181  0.6310  1.8478
16196TIP3    H270004   4.844   0.329   0.262  1.4597  0.3987  1.0097
16197TIP3   OH270005   4.478   0.053   0.480  0.3325 -0.0465 -0.2915
16197TIP3    H170006   4.467   0.146   0.497  0.2145 -0.4302  2.0258
16197TIP3    H270007   4.500   0.015   0.565 -2.1911 -2.5127 -0.5838
16198TIP3   OH270008   5.486   2.465   0.035 -0.0990  0.1618 -0.2098
16198TIP3    H170009   5.390   2.457   0.034 -0.0462 -0.6239 -0.1880
16198TIP3    H270010   5.507   2.513  -0.045 -0.4156 -1.2495 -1.1920
16199TIP3   OH270011   5.687   4.375   5.431  0.7267 -0.9051  0.5534
16199TIP3    H170012   5.772   4.398   5.469  0.5230  0.6892  0.1335
16199TIP3    H270013   5.628   4.446   5.460  0.5441  0.4071 -2.6187
16200TIP3   OH270014   5.149   2.157  10.919 -0.2051  0.4745 -0.0298
16200TIP3    H170015   5.244   2.151  10.913 -0.2267  0.0207 -0.0140
16200TIP3    H270016   5.118   2.072  10.888 -0.5611  0.2617  0.8651
16201TIP3   OH270017   2.174   1.296   2.011  0.0723  1.0681 -0.1718
16201TIP3    H170018   2.093   1.299   1.961  0.1200  0.6367 -0.2849
16201TIP3    H270019   2.147   1.287   2.102 -0.0722 -2.8163 -0.4296
16202TIP3   OH270020   2.110   2.352   5.795  0.0236 -0.5441 -0.8327
16202TIP3    H170021   2.156   2.281   5.750 -0.3878 -0.9735 -0.5910
16202TIP3    H270022   2.162   2.370   5.873  0.5649 -0.0208 -1.3093
16203TIP3   OH270023   1.289   6.340   4.826  0.0076  0.0002  0.1391
16203TIP3    H170024   1.250   6.260   4.791 -0.1695 -0.8299  2.1336
16203TIP3    H270025   1.372   6.349   4.779 -0.8049 -0.3114 -1.4139
16204TIP3   OH270026   2.688   4.804  13.399  0.1765  0.0425 -0.0689
16204TIP3    H170027   2.616   4.760  13.353 -0.5068  0.5257  0.5168
16204TIP3    H270028   2.762   4.798  13.338 -0.6830  0.6275 -1.2121
16205TIP3   OH270029   6.158   2.528  12.344 -0.3922  0.4772 -0.5844
16205TIP3    H170030   6.091   2.587  12.310 -1.4656 -0.5484 -0.3433
16205TIP3    H270031   6.241   2.572  12.326 -1.0498  1.1474 -2.1938
16206TIP3   OH270032   3.133   1.050   3.288  0.4719  0.2528 -0.0961
16206TIP3    H170033   3.046   1.060   3.250  0.1787 -0.9640  0.2314
16206TIP3    H270034   3.125   0.976   3.348  1.2966  1.1945  1.2257
16207TIP3   OH270035   0.299   4.204  12.675 -0.0607 -0.1598  0.6952
16207TIP3    H170036   0.303   4.110  12.689  0.8301 -0.1238  0.7201
16207TIP3    H270037   0.260   4.214  12.588 -2.0046 -0.4830  1.4829
16208TIP3   OH270038   5.660   2.520   1.903  0.0161  0.1213  0.2016
16208TIP3    H170039   5.644   2.536   1.996  0.4455  1.4246  0.0713
16208TIP3    H270040   5.708   2.597   1.874  2.2069 -1.4337 -0.5310
16209TIP3   OH270041   5.176   3.012   0.643 -0.4052  0.0671  0.9788
16209TIP3    H170042   5.094   2.964   0.653  0.4600 -1.8782 -0.6085
16209TIP3    H270043   5.223   2.996   0.725 -0.5008 -1.1276  0.8245
16210TIP3   OH270044   5.642   3.295  13.135  0.3953  0.3405 -0.0823
16210TIP3    H170045   5.653   3.209  13.095  0.7091  0.2905  0.1058
16210TIP3    H270046   5.701   3.294  13.210 -0.2064  0.4159  0.4090
16211TIP3   OH270047   0.526   4.180   3.182  0.2885 -0.6606 -0.2370
16211TIP3    H170048   0.589   4.127   3.232  0.5008  0.3727  0.6279
16211TIP3    H270049   0.520   4.136   3.097  2.7562 -0.3820 -0.6381
16212TIP3   OH270050   5.425   6.248   3.414  0.6920  0.3906 -0.4477
16212TIP3    H170051   5.475   6.326   3.438 -0.5290  1.1091 -0.1365
16212TIP3    H270052   5.358   6.241   3.481  1.0704 -1.2321 -0.2038
16213TIP3   OH270053   0.881   2.134  15.371 -0.2782  0.1045  0.3195
16213TIP3    H170054   0.953   2.185  15.409 -0.4670  0.4154  0.2601
16213TIP3    H270055   0.889   2.150  15.277 -0.7820  0.6097  0.3587
16214TIP3   OH270056   0.050   0.961   2.262  0.2197  0.1382  0.0362
16214TIP3    H170057  -0.009   1.036   2.254  1.3150  1.0875  0.4158
16214TIP3    H270058   0.031   0.907   2.185 -2.3786 -0.5550  1.0758
16215TIP3   OH270059   4.687   2.367   0.092 -0.1861  0.3727  0.2673
16215TIP3    H170060   4.764   2.351   0.037 -0.2163  0.5393  0.1724
16215TIP3    H270061   4.682   2.463   0.098 -0.7935  0.3839 -0.3172
16216TIP3   OH270062   4.400   6.193   5.557 -0.1326  0.3657 -0.2555
16216TIP3    H170063   4.421   6.104   5.584 -2.9259 -0.0527  0.9707
16216TIP3    H270064   4.306   6.201   5.574 -0.3542  2.9505 -2.1002
16217TIP3   OH270065   0.921   1.516   4.023 -0.6332  0.0548  0.0268
16217TIP3    H170066   0.906   1.550   4.111 -0.6875  2.2790 -0.7856
16217TIP3    H270067   0.957   1.428   4.037 -0.5363  0.3926  2.2481
16218TIP3   OH270068   6.716   4.160  13.112  0.1858 -0.3865  0.2983
16218TIP3    H170069   6.795   4.131  13.159  0.3290 -2.6318 -1.2124
16218TIP3    H270070   6.654   4.183  13.182  1.7546  0.3635  1.5198
16219TIP3   OH270071   2.734   0.448  16.823  0.5498 -0.0654  0.1860
16219TIP3    H170072   2.720   0.505  16.899  0.8679  1.7417 -1.0415
16219TIP3    H270073   2.659   0.466  16.766  1.0536 -0.2983 -0.5662
16220TIP3   OH270074   5.872   6.294   4.107  0.2888  0.0832  0.1076
16220TIP3    H170075   5.845   6.202   4.118  1.5956 -0.4414 -0.7698
16220TIP3    H270076   5.844   6.337   4.187  3.1372 -1.9405  2.4155
16221TIP3   OH270077   0.305   5.897   2.854 -0.1053  0.4159  0.8501
16221TIP3    H170078   0.216   5.880   2.885 -0.5135  2.7619  1.1439
16221TIP3    H270079   0.316   5.837   2.780 -2.9814  1.8899 -0.9815
16222TIP3   OH270080   4.481   5.454   6.103  0.4799  0.1832 -0.0841
16222TIP3    H170081   4.478   5.359   6.095  0.1995  0.2006 -0.2302
16222TIP3    H270082   4.390   5.479   6.120  0.6137  0.3955  0.3227
16223TIP3   OH270083   0.140   1.034  10.908  0.5837  0.1500  0.0179
16223TIP3    H170084   0.064   0.980  10.928  0.4985  0.6427  1.1042
16223TIP3    H270085   0.209   0.972  10.885  0.3302 -0.3944  0.6894
16224TIP3   OH270086   5.826   4.289   4.892 -0.0324  0.1611  0.1471
16224TIP3    H170087   5.730   4.285   4.889 -0.0698  1.1217 -2.3988
16224TIP3    H270088   5.847   4.381   4.875  1.3256 -0.4649 -1.9807
16225TIP3   OH270089   5.291   5.808   1.747 -0.4572 -0.5156 -0.3026
16225TIP3    H170090   5.289   5.904   1.741  0.3987 -0.4862 -0.2743
16225TIP3    H270091   5.329   5.780   1.663  1.3426 -0.6899  0.5131
16226TIP3   OH270092   0.396   0.680  11.740  0.2142 -0.0556 -0.1655
16226TIP3    H170093   0.316   0.669  11.792 -0.4774  0.2130 -1.1346
16226TIP3    H270094   0.422   0.590  11.717 -0.9900 -0.0785 -1.5526
16227TIP3   OH270095   6.042   3.641  15.562 -0.8796 -0.1275  0.1759
16227TIP3    H170096   6.030   3.639  15.467  0.0033 -1.3362  0.0599
16227TIP3    H270097   6.035   3.733  15.586  0.2564  0.3541 -1.2517
16228TIP3   OH270098   5.491   4.141  14.914  0.2046  0.2649 -0.4776
16228TIP3    H170099   5.580   4.174  14.902  0.4128 -0.1656 -0.1171
16228TIP3    H270100   5.502   4.047  14.929 -0.1772  0.4898  1.3578
16229TIP3   OH270101   0.839   2.215   5.479 -0.5077  0.0430 -0.0022
16229TIP3    H170102   0.817   2.138   5.427 -0.4733  0.6045 -0.8751
16229TIP3    H270103   0.933   2.208   5.493 -0.1213  0.9294 -1.8229
16230TIP3   OH270104   6.590   2.116   4.811 -0.3578  0.0754 -0.6078
16230TIP3    H170105   6.663   2.091   4.755 -0.3807 -0.0953 -0.5621
16230TIP3    H270106   6.605   2.209   4.832 -0.3815  0.1549 -0.9449
16231TIP3   OH270107   3.569   6.129  15.211  0.8182 -0.3770  0.0373
16231TIP3    H170108   3.561   6.079  15.130  0.4767 -0.3545  0.0557
16231TIP3    H270109   3.629   6.077  15.265  2.5602  0.5458 -0.9322
16232TIP3   OH270110   1.165   3.895  16.067  0.1070  0.0794  0.3328
16232TIP3    H170111   1.102   3.943  16.014 -0.0586  1.4413  1.6807
16232TIP3    H270112   1.249   3.908  16.022 -0.1237  0.6678  0.0620
16233TIP3   OH270113   3.624   5.639  16.510  0.5324  0.5312  0.1477
16233TIP3    H170114   3.537   5.601  16.523  0.0764  0.4005 -2.6603
16233TIP3    H270115   3.648   5.675  16.596 -2.7540  1.5560  0.7700
16234TIP3   OH270116   3.279   3.120  16.133 -0.3905 -0.1899  0.2058
16234TIP3    H170117   3.352   3.059  16.123  0.4145  0.1787  2.9960
16234TIP3    H270118   3.314   3.203  16.100 -0.3571 -0.5025 -0.5714
16235TIP3   OH270119   1.593   2.704   6.604 -0.9216  0.2169  0.7088
16235TIP3    H170120   1.657   2.672   6.668 -0.4280  0.6781  0.4506
16235TIP3    H270121   1.569   2.791   6.635  1.2329  1.5301 -1.0582
16236TIP3   OH270122   1.652   4.427   6.443  0.0860  0.1388  0.1781
16236TIP3    H170123   1.669   4.346   6.394  0.0500  1.0255 -1.3708
16236TIP3    H270124   1.568   4.459   6.410  0.9699  1.7653 -0.6470
16237TIP3   OH270125   2.916   1.672   0.618 -0.1925 -0.0929 -0.1173
16237TIP3    H170126   2.870   1.740   0.569  0.6621 -0.2776 -1.2159
16237TIP3    H270127   2.925   1.599   0.556 -2.2407 -1.7663  1.4087
16238TIP3   OH270128   4.742   5.156   1.503 -0.0201 -0.2460 -0.2305
16238TIP3    H170129   4.743   5.061   1.492 -1.9987 -0.2832 -0.6036
16238TIP3    H270130   4.801   5.172   1.576 -0.1058 -1.8324  0.2376
16239TIP3   OH270131   6.001   1.457  14.315  0.2771  0.0311  0.3389
16239TIP3    H170132   6.066   1.528  14.318 -0.3968  0.6861 -0.2545
16239TIP3    H270133   5.967   1.459  14.226  1.2636 -2.0034 -0.1291
16240TIP3   OH270134   2.477   1.225  13.496 -0.1423  0.7275  0.6282
16240TIP3    H170135   2.504   1.288  13.428 -0.0157 -1.2899 -1.2983
16240TIP3    H270136   2.527   1.146  13.476 -0.5641 -0.1289  2.7544
16241TIP3   OH270137   4.983   0.368   5.633  0.0282 -0.4413 -0.1708
16241TIP3    H170138   4.947   0.311   5.702  0.0519  0.2627  0.4284
16241TIP3    H270139   4.919   0.439   5.625  0.8050  0.3140  0.2269
16242TIP3   OH270140   4.020   4.941  12.175 -0.7146 -0.3062 -0.6313
16242TIP3    H170141   4.075   4.872  12.139 -0.5077 -0.3976 -0.1453
16242TIP3    H270142   3.931   4.919  12.147 -0.6335 -0.7068 -0.5761
16243TIP3   OH270143   4.778   0.075  16.970  0.2857  0.4198 -0.3424
16243TIP3    H170144   4.771   0.078  17.065  0.7152 -1.4610 -0.2141
16243TIP3    H270145   4.710   0.135  16.939 -1.6017 -0.8499  1.1286
16244TIP3   OH270146   3.817   4.963   6.489  0.5988  0.1132 -0.2607
16244TIP3    H170147   3.906   4.972   6.453  0.5146  1.0436 -0.2579
16244TIP3    H270148   3.824   4.994   6.579  0.4124 -0.4893 -0.0321
16245TIP3   OH270149   1.594   4.368  13.218 -0.3563 -0.4753  0.7866
16245TIP3    H170150   1.652   4.417  13.276 -0.7243  0.5637  0.2933
16245TIP3    H270151   1.507   4.378  13.257 -0.8265  1.3392 -0.6094
16246TIP3   OH270152   0.104   3.928   4.813  0.4735 -0.0965 -0.0662
16246TIP3    H170153   0.055   3.999   4.773  0.5417 -0.5145 -0.9168
16246TIP3    H270154   0.076   3.850   4.766  1.1991 -0.4816  0.1243
16247TIP3   OH270155   3.079   5.709   0.882 -0.1249  0.1856  0.2701
16247TIP3    H170156   3.095   5.656   0.960 -0.7407  1.0834  1.0239
16247TIP3    H270157   3.165   5.716   0.840 -0.0656 -1.5942  0.0082
16248TIP3   OH270158   3.946   0.276   4.396 -0.2912 -0.4109 -0.2738
16248TIP3    H170159   4.034   0.303   4.422 -0.4669  0.0307 -0.1241
16248TIP3    H270160   3.918   0.344   4.334 -1.1286  0.3196  0.8516
16249TIP3   OH270161   4.263   1.775   5.409  0.0599 -0.7167  0.0064
16249TIP3    H170162   4.220   1.843   5.357  0.4407 -1.3597 -1.1821
16249TIP3    H270163   4.321   1.730   5.347  0.2079 -1.7902  0.8909
16250TIP3   OH270164   5.573   4.482  10.485  0.4164  0.1015 -0.5823
16250TIP3    H170165   5.488   4.480  10.531  0.0913  1.2441 -1.0935
16250TIP3    H270166   5.581   4.396  10.445  0.0884 -0.4584  0.5081
16251TIP3   OH270167   5.578   6.498  12.272 -0.7070 -0.5982  0.0531
16251TIP3    H170168   5.621   6.506  12.186  0.2200 -0.7203  0.4943
16251TIP3    H270169   5.485   6.493  12.251 -0.4978 -0.6188 -0.9503
16252TIP3   OH270170   3.427   3.414   5.268 -0.2029 -0.5020 -0.2075
16252TIP3    H170171   3.458   3.442   5.182  0.6071 -1.0039 -0.0891
16252TIP3    H270172   3.376   3.488   5.300  0.8113  0.3304 -0.4518
16253TIP3   OH270173   1.457   5.415   1.460 -0.5479 -0.0028  0.1180
16253TIP3    H170174   1.537   5.400   1.511 -1.2699 -0.3565  1.1806
16253TIP3    H270175   1.488   5.430   1.371  0.6977 -0.2368  0.4903
16254TIP3   OH270176   4.647   4.569  16.469 -0.3096 -0.7375 -0.3547
16254TIP3    H170177   4.724   4.592  16.417 -0.6137 -1.3918 -1.1158
16254TIP3    H270178   4.576   4.622  16.431 -0.1544  0.2549  0.6748
16255TIP3   OH270179   2.688   2.601   2.692 -0.2650 -0.0150 -0.3535
16255TIP3    H170180   2.711   2.680   2.643  0.6033  0.2011  0.3728
16255TIP3    H270181   2.675   2.631   2.782  0.2625 -0.7185 -0.0307
16256TIP3   OH270182   5.020   0.655   2.471  0.1756  0.6203 -0.5902
16256TIP3    H170183   4.946   0.684   2.525 -0.0843  1.6520 -1.4663
16256TIP3    H270184   5.027   0.721   2.402  1.1759 -0.0967 -1.2059
16257TIP3   OH270185   5.044   0.842   3.018  0.2259  0.0143  0.4859
16257TIP3    H170186   5.087   0.819   2.935 -1.5970  0.2436 -0.5710
16257TIP3    H270187   5.101   0.908   3.057 -0.1522  1.8282 -1.8439
16258TIP3   OH270188   3.520   2.485  15.006 -0.4839  0.0538 -0.2572
16258TIP3    H170189   3.505   2.532  15.088 -1.1984 -0.0960 -0.2925
16258TIP3    H270190   3.456   2.522  14.945 -0.9421 -0.8405 -0.3342
16259TIP3   OH270191   1.460   4.137   3.723 -1.0629 -0.1246 -0.1818
16259TIP3    H170192   1.459   4.070   3.655 -0.8295  0.3553 -0.6692
16259TIP3    H270193   1.380   4.188   3.707 -1.5746 -0.6554  0.5773
16260TIP3   OH270194   5.064   4.379  15.381  0.5165  0.5359 -0.7767
16260TIP3    H170195   5.114   4.304  15.349 -2.0944 -2.6672  2.0316
16260TIP3    H270196   4.994   4.391  15.316  0.8920  0.5333 -1.1874
16261TIP3   OH270197   5.853   4.019  17.003 -0.2854  0.3570 -0.2260
16261TIP3    H170198   5.904   3.988  17.078  0.0646 -1.2288 -1.0675
16261TIP3    H270199   5.765   4.032  17.038 -0.4587 -1.6578  0.2239
16262TIP3   OH270200   6.368   0.301   5.998 -0.0709  0.1019  0.4972
16262TIP3    H170201   6.348   0.394   6.003 -2.3644 -0.3653  1.5040
16262TIP3    H270202   6.348   0.267   6.085 -0.8715 -1.5591 -0.2726
16263TIP3   OH270203   5.438   1.168   0.005 -0.1156 -0.6324 -0.2708
16263TIP3    H170204   5.460   1.114  -0.072 -0.0727 -2.0636  0.7037
16263TIP3    H270205   5.456   1.111   0.079 -2.5582 -0.1883  0.7432
16264TIP3   OH270206   4.246   6.457   5.101 -0.0991 -0.4032 -0.0208
16264TIP3    H170207   4.312   6.440   5.034  1.0947 -3.1342  1.6407
16264TIP3    H270208   4.283   6.419   5.181 -4.0353 -3.1037  0.8188
16265TIP3   OH270209   1.735   0.207   2.790  0.0597 -0.1129  0.9257
16265TIP3    H170210   1.772   0.146   2.727 -0.3110  0.6538 -0.0550
16265TIP3    H270211   1.650   0.170   2.812  0.4553 -0.7137  1.4783
16266TIP3   OH270212   2.301   5.767   5.015  1.0345 -0.2885 -0.3727
16266TIP3    H170213   2.273   5.816   5.092  0.3399 -1.4244  0.1398
16266TIP3    H270214   2.390   5.798   4.997  0.0079  2.4665 -1.2195
16267TIP3   OH270215   2.501   4.363  14.298 -0.0017  0.1546 -0.1749
16267TIP3    H170216   2.579   4.316  14.326 -0.9355 -0.9649  0.7013
16267TIP3    H270217   2.466   4.402  14.379 -0.8777 -0.2111 -0.3594
16268TIP3   OH270218   1.660   5.802  14.120  0.0397 -0.0461  0.7843
16268TIP3    H170219   1.689   5.852  14.044 -1.8313 -1.1479 -0.7609
16268TIP3    H270220   1.730   5.739  14.136  2.1496  2.4476  2.3793
16269TIP3   OH270221   0.549   3.281  11.287 -0.9415  0.5951 -0.0909
16269TIP3    H170222   0.497   3.345  11.238 -0.6677 -0.5903 -2.0403
16269TIP3    H270223   0.582   3.221  11.220 -0.1109 -0.8290  1.5256
16270TIP3   OH270224   3.545   0.401   0.322 -0.0513 -0.7926  0.0445
16270TIP3    H170225   3.562   0.468   0.387  1.6536 -0.0194 -1.1152
16270TIP3    H270226   3.629   0.357   0.309 -0.6044 -1.6506 -0.8478
16271TIP3   OH270227   1.200   5.528   2.584  0.3783 -0.2664  0.2146
16271TIP3    H170228   1.225   5.568   2.667  0.7487 -1.1260  0.5248
16271TIP3    H270229   1.243   5.581   2.517 -1.7961  1.9151  0.3774
16272TIP3   OH270230   4.610   5.158   1.202 -0.1216  0.0264  0.0157
16272TIP3    H170231   4.679   5.221   1.180  0.0835  0.2203  1.1680
16272TIP3    H270232   4.541   5.176   1.138 -0.0799  1.4504  0.3382
16273TIP3   OH270233   6.219   5.060  11.108  0.5933 -0.0642  0.4369
16273TIP3    H170234   6.167   5.066  11.028 -0.7274  0.4673  1.2984
16273TIP3    H270235   6.310   5.063  11.079  0.1887 -1.6978 -1.1775
16274TIP3   OH270236   3.835   0.111   5.118 -0.1975 -0.2693  0.2120
16274TIP3    H170237   3.924   0.087   5.146  1.0101  2.9978 -0.3223
16274TIP3    H270238   3.800   0.161   5.191 -1.0689 -0.3591 -0.1403
16275TIP3   OH270239   4.239   0.502  13.776  0.3377 -0.1853 -0.6024
16275TIP3    H170240   4.274   0.413  13.784  0.1701 -0.6225 -3.7092
16275TIP3    H270241   4.316   0.556  13.757  0.5324  0.5441  1.8439
16276TIP3   OH270242   0.200   2.853   5.825 -0.4040 -0.3772 -0.4962
16276TIP3    H170243   0.250   2.772   5.836  1.1680  0.6527  0.2665
16276TIP3    H270244   0.196   2.890   5.913 -0.0239  0.9741 -1.0260
16277TIP3   OH270245   3.298   5.897   4.250 -0.1951  0.0259  0.1404
16277TIP3    H170246   3.338   5.811   4.250 -1.0719 -0.3963 -0.0676
16277TIP3    H270247   3.354   5.950   4.307  1.6797 -0.0296 -1.5340
16278TIP3   OH270248   5.674   4.341   2.664 -0.7098 -0.2118  0.6203
16278TIP3    H170249   5.602   4.399   2.641  0.2926  0.3386 -1.3606
16278TIP3    H270250   5.631   4.259   2.689 -2.0358  0.2315 -0.1038
16279TIP3   OH270251   5.940   6.456  15.621 -0.0309  0.1964  0.5983
16279TIP3    H170252   6.013   6.398  15.644  0.8868  0.6713 -0.9827
16279TIP3    H270253   5.980   6.543  15.612 -0.0925  0.0143 -3.1155
16280TIP3   OH270254   2.584   6.552   6.684 -0.2626 -0.3680 -0.8657
16280TIP3    H170255   2.630   6.470   6.703  1.3997  0.0908 -2.6065
16280TIP3    H270256   2.648   6.620   6.704 -2.0660  0.6914  1.9112
16281TIP3   OH270257   3.344   1.882  13.659 -0.2157 -0.2502 -0.9475
16281TIP3    H170258   3.373   1.971  13.636 -0.5794 -0.1678 -1.0934
16281TIP3    H270259   3.425   1.834  13.675  0.0169  1.0924  3.0090
16282TIP3   OH270260   6.664   4.775  15.237 -0.7071 -0.4307  0.6825
16282TIP3    H170261   6.597   4.719  15.276 -1.9530 -0.7733 -1.7119
16282TIP3    H270262   6.633   4.790  15.147  0.6270  2.3897  0.5720
16283TIP3   OH270263   1.292   2.972  17.261  0.3795 -0.0339  0.3251
16283TIP3    H170264   1.228   3.015  17.318  0.7739  0.5494  0.3388
16283TIP3    H270265   1.243   2.901  17.219 -1.1690  2.3253 -2.1159
16284TIP3   OH270266   6.626   0.722  13.494  0.0890  0.7117  0.4737
16284TIP3    H170267   6.583   0.805  13.510 -1.2452 -0.3192  2.6080
16284TIP3    H270268   6.555   0.658  13.486  1.0828 -0.3032 -0.8124
16285TIP3   OH270269   4.572   2.412  14.425  0.0533 -0.2318  0.2007
16285TIP3    H170270   4.619   2.460  14.356  1.0815 -0.7796  0.5046
16285TIP3    H270271   4.522   2.479  14.471  0.9266  0.4482  0.1823
16286TIP3   OH270272   3.269   2.780   4.970  0.1199 -0.2157 -0.0797
16286TIP3    H170273   3.291   2.864   5.011  1.6060  0.2536 -1.7404
16286TIP3    H270274   3.339   2.721   4.997  0.0907 -0.4064 -0.4192
16287TIP3   OH270275   2.262   6.255   4.594 -0.0430 -0.1955 -0.2015
16287TIP3    H170276   2.257   6.340   4.552 -0.4931 -0.6539 -1.1075
16287TIP3    H270277   2.192   6.256   4.660 -0.8094 -0.2638 -0.9929
16288TIP3   OH270278   2.702   2.316  13.192 -0.1297  0.0131  0.1992
16288TIP3    H170279   2.640   2.330  13.263  0.7878  0.9256  0.8571
16288TIP3    H270280   2.707   2.401  13.148  0.3418 -0.1603 -0.0855
16289TIP3   OH270281   6.351   4.381   0.829  0.2668  0.0403 -0.0375
16289TIP3    H170282   6.334   4.315   0.896  0.3851  1.9470  1.9684
16289TIP3    H270283   6.447   4.381   0.820  0.2435 -0.2933 -0.3113
16290TIP3   OH270284   0.411   4.302  12.905  0.0367 -0.7262  0.6432
16290TIP3    H170285   0.492   4.311  12.855 -1.0869  0.6744 -1.0234
16290TIP3    H270286   0.346   4.273  12.841 -1.5697  1.6411  1.1026
16291TIP3   OH270287   5.042   5.554   4.432 -0.2116 -0.4926 -0.2319
16291TIP3    H170288   5.131   5.576   4.458 -0.1131 -1.6604  0.4855
16291TIP3    H270289   5.034   5.588   4.343  0.2906  1.3201  0.3798
16292TIP3   OH270290   3.847   3.802   4.145  0.4169 -0.1741  0.1823
16292TIP3    H170291   3.865   3.750   4.067  0.7971  0.0585  0.1147
16292TIP3    H270292   3.886   3.887   4.127  1.7283 -0.5209  1.1598
16293TIP3   OH270293   1.391   3.829  13.662  0.1765  0.2006 -0.3676
16293TIP3    H170294   1.473   3.862  13.626  0.3152  0.0206 -0.2124
16293TIP3    H270295   1.353   3.904  13.707  0.5083  0.1387  0.0149
16294TIP3   OH270296   0.011   2.292  14.374  0.2740  0.1106  0.0452
16294TIP3    H170297   0.052   2.223  14.426 -0.3532 -0.8932 -0.7483
16294TIP3    H270298   0.061   2.371  14.396  2.4564 -0.9858 -0.6595
16295TIP3   OH270299   3.555   5.668  14.746  0.3543 -0.0056  0.1787
16295TIP3    H170300   3.627   5.647  14.806  0.5822 -2.6084 -0.9016
16295TIP3    H270301   3.476   5.647  14.796  0.4594 -0.2382  0.2475
16296TIP3   OH270302   1.167   3.216  12.613  0.0919 -0.3925  0.2931
16296TIP3    H170303   1.094   3.153  12.611  1.0428 -1.5987  1.2233
16296TIP3    H270304   1.235   3.171  12.664  0.5800  1.6739  1.5805
16297TIP3   OH270305   2.091   3.009  15.308  0.4397 -0.0730 -0.4780
16297TIP3    H170306   2.110   3.082  15.249  1.0523  0.0189 -0.1692
16297TIP3    H270307   1.998   3.020  15.329 -0.4328 -1.3618 -3.1364
16298TIP3   OH270308   5.041   1.767   3.351 -0.2639 -0.5764 -0.5279
16298TIP3    H170309   5.005   1.844   3.307 -0.4069 -0.5824 -0.4227
16298TIP3    H270310   5.064   1.798   3.439  0.4150 -0.4579 -0.7382
16299TIP3   OH270311   5.148   2.128  10.536  0.1080 -0.1533  0.0739
16299TIP3    H170312   5.180   2.162  10.453  1.6281  0.9361  1.0622
16299TIP3    H270313   5.222   2.135  10.596 -1.4109  0.7227  1.9839
16300TIP3   OH270314   3.527   4.626  11.838 -0.5344 -0.5154  0.3014
16300TIP3    H170315   3.456   4.575  11.799 -0.8889  1.1968 -1.4483
16300TIP3    H270316   3.497   4.717  11.832  1.1189  0.1171  1.0112
16301TIP3   OH270317   5.697   4.213   3.176  0.4718  0.0780  0.2716
16301TIP3    H170318   5.739   4.128   3.160  1.3135  0.2396  1.4370
16301TIP3    H270319   5.624   4.216   3.115 -0.3654 -2.0617  1.0695
16302TIP3   OH270320   2.853   4.922  15.844  0.1936  0.1560  0.0613
16302TIP3    H170321   2.772   4.875  15.865 -0.0459 -0.0089 -1.1300
16302TIP3    H270322   2.826   5.014  15.842 -0.9376 -0.0617 -3.8791
16303TIP3   OH270323   2.196   5.260   1.200 -0.2287  0.1080  0.8732
16303TIP3    H170324   2.157   5.344   1.177  0.4369  0.2926  0.3986
16303TIP3    H270325   2.257   5.241   1.129  0.0341 -0.5146  1.2534
16304TIP3   OH270326   3.624   3.787   5.942 -0.1614  0.7195  0.7084
16304TIP3    H170327   3.622   3.737   6.023 -0.5397 -2.0845 -0.8930
16304TIP3    H270328   3.548   3.756   5.892 -0.7414  3.3536 -0.2200
16305TIP3   OH270329   1.862   2.339  14.880 -0.1761 -0.1448 -0.4158
16305TIP3    H170330   1.920   2.269  14.850 -0.0960 -0.8644  1.3042
16305TIP3    H270331   1.918   2.417  14.882  0.1285 -0.3411 -0.8979
16306TIP3   OH270332   2.185   3.516  13.119  0.3684 -0.4871 -0.0151
16306TIP3    H170333   2.118   3.449  13.127  0.9458 -0.9475  1.1927
16306TIP3    H270334   2.267   3.467  13.113  0.5876  0.0477 -1.9679
16307TIP3   OH270335   3.512   6.681  10.882  0.1949 -0.1072 -0.2320
16307TIP3    H170336   3.508   6.695  10.976  1.3588  1.0189 -0.3308
16307TIP3    H270337   3.473   6.595  10.869 -1.4769  0.4038  1.0935
16308TIP3   OH270338   1.621   3.343  12.004  0.2035  0.2885  0.5139
16308TIP3    H170339   1.585   3.397  12.075  1.1776 -1.4073  2.3841
16308TIP3    H270340   1.715   3.360  12.007  0.2177  0.4548 -0.6406
16309TIP3   OH270341   1.155   2.956  16.731 -1.0168  0.3820  0.1346
16309TIP3    H170342   1.187   2.867  16.748 -2.0003 -0.2347 -1.0762
16309TIP3    H270343   1.060   2.947  16.725 -1.1063  1.4517 -0.3208
16310TIP3   OH270344   3.332   4.083   2.426  0.0145  0.1314 -0.5176
16310TIP3    H170345   3.418   4.045   2.412  0.3386  1.1752 -1.4882
16310TIP3    H270346   3.283   4.063   2.346 -1.9328 -3.6210  1.3697
16311TIP3   OH270347   4.811   5.257   5.681  0.0319 -0.3466 -0.5320
16311TIP3    H170348   4.858   5.203   5.743 -0.3679 -1.0569 -0.8431
16311TIP3    H270349   4.755   5.197   5.633 -0.8798  0.4216 -0.4703
16312TIP3   OH270350   2.466   0.782  13.114  0.0874 -0.0669  0.5099
16312TIP3    H170351   2.507   0.838  13.048 -0.4882  1.2722  1.2597
16312TIP3    H270352   2.488   0.693  13.086 -0.0648  0.4641 -1.4273
16313TIP3   OH270353   0.193   5.148  10.480 -0.2020 -0.0333 -0.4807
16313TIP3    H170354   0.193   5.233  10.436 -0.3674 -0.6229 -1.6669
16313TIP3    H270355   0.117   5.151  10.538  1.1306  1.4983  1.3425
16314TIP3   OH270356   3.657   2.759  16.825  0.5197  0.8475  0.8720
16314TIP3    H170357   3.566   2.789  16.820  0.6689  1.5532  2.1602
16314TIP3    H270358   3.678   2.759  16.918  1.9425  0.9883  0.5749
16315TIP3   OH270359   4.175   0.558  15.310 -0.5071 -0.1294 -0.2352
16315TIP3    H170360   4.163   0.620  15.382 -2.4594 -0.2669 -0.3812
16315TIP3    H270361   4.151   0.609  15.232 -0.0719 -0.4740 -0.5964
16316TIP3   OH270362   1.900   3.075   5.475  0.2114  0.0787 -0.5178
16316TIP3    H170363   1.975   3.112   5.427  0.1476 -0.0457 -0.7138
16316TIP3    H270364   1.940   3.014   5.536  0.1587 -1.4154 -1.9135
16317TIP3   OH270365   0.285   2.304   1.983 -0.2676  0.0517  0.4066
16317TIP3    H170366   0.211   2.247   1.999 -0.4847 -0.1075 -1.0260
16317TIP3    H270367   0.361   2.246   1.981 -0.4343 -0.1446 -0.6210
16318TIP3   OH270368   1.016   3.649   4.704 -0.4989 -0.6049  0.4074
16318TIP3    H170369   0.979   3.698   4.631 -1.2866 -0.0263  1.1703
16318TIP3    H270370   0.966   3.679   4.780  2.3862  1.1973  1.7533
16319TIP3   OH270371   3.997   6.353   0.357 -0.6247  0.2679  0.6020
16319TIP3    H170372   4.025   6.264   0.339 -0.6273  0.2557  0.6569
16319TIP3    H270373   4.024   6.369   0.447  0.6434  0.8128  0.1480
16320TIP3   OH270374   4.188   0.348  15.902 -0.2170  0.1293  0.1956
16320TIP3    H170375   4.197   0.257  15.876  0.9391  0.4220 -0.5212
16320TIP3    H270376   4.155   0.345  15.992 -0.5347 -0.9734  0.0520
16321TIP3   OH270377   3.826   3.099   2.506  0.4464 -0.0844 -0.2865
16321TIP3    H170378   3.866   3.014   2.490 -1.3653 -0.8598 -0.9430
16321TIP3    H270379   3.756   3.106   2.441  2.2684  3.1586 -2.2099
16322TIP3   OH270380   5.736   0.636  11.465 -0.1459  0.4013  0.4301
16322TIP3    H170381   5.658   0.610  11.417  1.2259 -0.6529 -1.3377
16322TIP3    H270382   5.729   0.732  11.471 -2.3342  0.2279  1.8050
16323TIP3   OH270383   5.096   0.426  17.313  0.2263  0.1440 -0.1349
16323TIP3    H170384   5.138   0.466  17.389  0.1423  3.2378 -1.5357
16323TIP3    H270385   5.168   0.388  17.263  0.5944  0.2348  0.3185
16324TIP3   OH270386   0.089   4.813  14.144 -0.3247 -0.2714  0.5593
16324TIP3    H170387   0.103   4.851  14.231 -1.8135 -0.1105  0.7565
16324TIP3    H270388  -0.006   4.814  14.133 -0.1687 -0.5957 -0.9441
16325TIP3   OH270389   2.045   5.085   2.990 -0.4735  0.1580  0.4314
16325TIP3    H170390   2.140   5.091   3.003 -0.5412  0.7439  0.6686
16325TIP3    H270391   2.032   5.110   2.898 -0.2960 -1.0464  0.0518
16326TIP3   OH270392   3.344   0.275   3.755 -0.4286  0.2240  0.0477
16326TIP3    H170393   3.307   0.200   3.802  1.1253  0.4196  1.6845
16326TIP3    H270394   3.351   0.343   3.822  0.5240  1.0009 -0.8189
16327TIP3   OH270395   3.583   3.440  15.602  0.5078  0.0053 -0.0077
16327TIP3    H170396   3.673   3.409  15.604  0.9740  1.2077 -1.0180
16327TIP3    H270397   3.549   3.407  15.519  0.3016  0.3094 -0.0432
16328TIP3   OH270398   4.628   1.054  14.242 -0.3560  0.2114  0.7906
16328TIP3    H170399   4.539   1.025  14.262 -0.8154  1.1543  0.1531
16328TIP3    H270400   4.636   1.138  14.286  0.7032 -0.4736  1.9809
16329TIP3   OH270401   1.447   0.201   3.026  0.2620 -0.0609 -0.5766
16329TIP3    H170402   1.373   0.148   3.056  0.5474 -0.1574 -0.0330
16329TIP3    H270403   1.462   0.172   2.936 -0.5837  0.2065 -0.8041
16330TIP3   OH270404   4.442   3.501   3.234  0.1591 -0.2974  0.0281
16330TIP3    H170405   4.482   3.416   3.221  1.0774  0.0490  0.5223
16330TIP3    H270406   4.429   3.507   3.329  1.4923  0.7216  0.1644
16331TIP3   OH270407   3.611   5.477  15.745 -0.4769  0.2495 -0.3256
16331TIP3    H170408   3.639   5.487  15.836 -0.2650 -1.2302 -0.2023
16331TIP3    H270409   3.665   5.406  15.711 -0.0114  1.3030 -1.8601
16332TIP3   OH270410   1.982   5.060   1.214  0.2954  0.0407 -0.6702
16332TIP3    H170411   2.048   5.124   1.242  0.0673 -0.5446  1.4025
16332TIP3    H270412   1.912   5.113   1.176  0.3962  0.9846  0.4104
16333TIP3   OH270413   4.805   1.489   4.983 -0.0826  0.8678 -0.0867
16333TIP3    H170414   4.837   1.579   4.973  1.7681  0.2710  0.2288
16333TIP3    H270415   4.835   1.462   5.070 -0.4134 -0.1397 -0.2709
16334TIP3   OH270416   3.617   3.093   5.780  0.0716 -0.2343 -0.3039
16334TIP3    H170417   3.534   3.129   5.750 -0.3086 -0.3778  0.5383
16334TIP3    H270418   3.620   3.113   5.874  1.1407  0.0547 -0.3808
16335TIP3   OH270419   3.867   1.612   4.987 -0.0104 -0.3301  0.2067
16335TIP3    H170420   3.851   1.576   4.900 -0.7875 -1.4963  0.8235
16335TIP3    H270421   3.782   1.644   5.016  0.5183  1.3961 -0.0233
16336TIP3   OH270422   5.550   4.298   6.130  0.2384 -0.5310 -0.5465
16336TIP3    H170423   5.533   4.303   6.036 -0.1824 -0.7065 -0.4816
16336TIP3    H270424   5.543   4.205   6.150  1.1783 -0.5993 -0.4936
16337TIP3   OH270425   3.115   0.974   3.657  0.2286  0.6629  0.2235
16337TIP3    H170426   3.169   0.895   3.647 -0.7419 -0.1605  1.1532
16337TIP3    H270427   3.074   0.985   3.571 -0.9380 -0.8883  0.5292
16338TIP3   OH270428   2.549   1.851   6.428  0.0518  0.6563  0.2106
16338TIP3    H170429   2.551   1.915   6.499 -2.5553  0.4581  0.5581
16338TIP3    H270430   2.473   1.796   6.447 -1.2426  1.0402 -3.0830
16339TIP3   OH270431   3.564   6.410  12.097 -0.4290  0.0165  0.2488
16339TIP3    H170432   3.544   6.363  12.016  0.0982 -1.1448  0.7714
16339TIP3    H270433   3.624   6.480  12.071  1.7573 -1.8465 -0.0544
16340TIP3   OH270434   3.894   4.627  12.077 -0.0486  0.3410  0.1708
16340TIP3    H170435   3.927   4.596  12.161  0.9478 -0.3184 -0.4401
16340TIP3    H270436   3.970   4.665  12.033 -0.6295  0.9912 -0.2964
16341TIP3   OH270437   1.626   5.441  15.508  0.4695  0.0212 -0.3188
16341TIP3    H170438   1.621   5.388  15.428 -1.2587  0.4449 -0.5359
16341TIP3    H270439   1.655   5.380  15.575 -0.7959 -1.0664 -0.7081
16342TIP3   OH270440   3.228   0.197  12.687  0.2724  0.0077 -0.7306
16342TIP3    H170441   3.278   0.177  12.767 -0.5960 -0.9860 -0.4113
16342TIP3    H270442   3.178   0.117  12.669  0.0851  0.3834 -2.0081
16343TIP3   OH270443   3.068   4.693   5.477  0.0700 -0.7204  0.0628
16343TIP3    H170444   3.076   4.707   5.382  1.2377 -1.0120  0.0953
16343TIP3    H270445   3.087   4.778   5.516  1.3452 -0.9847  0.0721
16344TIP3   OH270446   3.689   2.552  13.062  0.3294 -0.0600 -0.2728
16344TIP3    H170447   3.782   2.568  13.079  0.4898 -0.5631 -0.6613
16344TIP3    H270448   3.665   2.485  13.125  0.3846 -0.3729 -0.5842
16345TIP3   OH270449   1.301   4.588   0.112 -0.4144 -0.1443 -0.7416
16345TIP3    H170450   1.360   4.636   0.170 -2.1490  0.3327  0.7052
16345TIP3    H270451   1.275   4.652   0.046  0.2943 -0.2327 -1.1215
16346TIP3   OH270452   0.659   2.623  16.582 -0.2226 -0.0483 -0.4052
16346TIP3    H170453   0.680   2.710  16.549 -0.3823 -0.3725 -1.4130
16346TIP3    H270454   0.734   2.598  16.635 -0.0067  0.5419 -0.4260
16347TIP3   OH270455   5.842   2.834   4.713 -0.0220 -0.1304 -0.0793
16347TIP3    H170456   5.860   2.788   4.795 -1.0264 -0.9934 -0.3146
16347TIP3    H270457   5.811   2.765   4.654  1.3863  0.3403 -1.4209
16348TIP3   OH270458   5.349   3.123  10.550 -0.1859 -0.2835  0.0672
16348TIP3    H170459   5.298   3.142  10.472 -0.7513 -0.1226  0.4652
16348TIP3    H270460   5.389   3.207  10.574  1.0393 -0.6030 -0.7711
16349TIP3   OH270461   4.762   0.770  15.671 -0.2540  0.4225  0.6316
16349TIP3    H170462   4.729   0.762  15.760  1.3488 -2.1614  1.0697
16349TIP3    H270463   4.740   0.687  15.629  1.6649  0.3845 -0.4301
16350TIP3   OH270464   1.586   3.092  15.235  0.3839  0.4520  0.4947
16350TIP3    H170465   1.675   3.120  15.215  0.4266 -0.3791 -0.5191
16350TIP3    H270466   1.580   3.002  15.203 -0.9183  0.5984  0.2436
16351TIP3   OH270467   4.212   3.602   4.948  0.4977  0.3422  0.6954
16351TIP3    H170468   4.224   3.592   5.043  0.8249 -0.5216  0.5720
16351TIP3    H270469   4.175   3.689   4.938  0.2018  0.3403  1.6447
16352TIP3   OH270470   3.278   4.877  16.102 -0.4764 -0.2129  0.6984
16352TIP3    H170471   3.213   4.912  16.041 -0.5632 -0.0543  0.8844
16352TIP3    H270472   3.243   4.894  16.189  0.1265  0.4780  0.8156
16353TIP3   OH270473   4.674   0.815  12.911 -0.3458  0.5659  0.0324
16353TIP3    H170474   4.660   0.862  12.994  0.9374  1.1171 -0.0339
16353TIP3    H270475   4.587   0.786  12.885 -0.8670  0.9768  1.2290
16354TIP3   OH270476   1.172   5.349   3.297  1.2292 -1.0912 -0.2943
16354TIP3    H170477   1.152   5.261   3.332 -0.5590 -0.7963 -0.4608
16354TIP3    H270478   1.152   5.342   3.204 -1.1314  0.0516  0.0677
16355TIP3   OH270479   4.709   6.189  13.791 -0.3134 -0.4219 -0.6997
16355TIP3    H170480   4.785   6.147  13.831  0.3547  0.4472 -1.0224
16355TIP3    H270481   4.743   6.231  13.713 -1.7364 -2.7785 -2.7246
16356TIP3   OH270482   5.173   5.156   5.693  0.0191  0.0425  0.1099
16356TIP3    H170483   5.253   5.208   5.686  0.8666 -1.3107 -0.6204
16356TIP3    H270484   5.176   5.120   5.781  3.2748 -4.5713 -1.5009
16357TIP3   OH270485   6.639   0.833   0.392  0.5341  0.1684  0.9236
16357TIP3    H170486   6.594   0.749   0.382  0.9156 -0.0211  0.7654
16357TIP3    H270487   6.569   0.897   0.401  0.2278 -0.0844  0.3996
16358TIP3   OH270488   5.072   3.983  10.505 -0.6626  0.2549  0.3139
16358TIP3    H170489   5.015   3.920  10.460 -1.1433  0.4006  0.7159
16358TIP3    H270490   5.012   4.041  10.552 -0.1436 -0.7325  2.2864
16359TIP3   OH270491   6.595   5.221   1.114  0.4113  0.3154 -0.5268
16359TIP3    H170492   6.507   5.192   1.138  0.0013 -0.0984 -2.3897
16359TIP3    H270493   6.652   5.183   1.182 -0.6930 -0.5465 -0.0493
16360TIP3   OH270494   0.339   4.530  13.029  0.1736  0.3453 -0.2176
16360TIP3    H170495   0.379   4.453  12.989  0.9511  0.3793  0.4500
16360TIP3    H270496   0.413   4.590  13.043  0.0847  0.0666  1.8438
16361TIP3   OH270497   0.449   6.076   5.026 -0.3548 -0.2295 -0.0690
16361TIP3    H170498   0.531   6.079   5.075 -1.1016 -0.7316  1.2553
16361TIP3    H270499   0.388   6.130   5.076 -0.7823  0.3526 -1.1777
16362TIP3   OH270500   1.904   5.063  15.482  0.1392 -0.0673  0.0425
16362TIP3    H170501   1.846   5.041  15.409 -0.0678  0.5128  0.0311
16362TIP3    H270502   1.979   5.106  15.441  0.2711 -0.2173  0.1239
16363TIP3   OH270503   4.204   2.395  11.634  0.6441 -0.6130 -0.4109
16363TIP3    H170504   4.137   2.328  11.617  0.2430 -0.4685  0.5318
16363TIP3    H270505   4.213   2.396  11.729  2.1048 -0.7208 -0.5255
16364TIP3   OH270506   4.743   1.901   5.289  0.4237 -0.1595  0.4823
16364TIP3    H170507   4.709   1.888   5.201  0.1343  1.7135  0.2641
16364TIP3    H270508   4.716   1.823   5.338  1.5660 -1.7736 -1.3322
16365TIP3   OH270509   2.175   4.291   6.755  0.0019  0.3777 -0.7272
16365TIP3    H170510   2.130   4.249   6.682 -1.4882  0.6082  0.0117
16365TIP3    H270511   2.247   4.232   6.777 -1.6900 -1.5485 -0.0919
16366TIP3   OH270512   5.791   1.861  10.926  0.0079  0.1265  0.1259
16366TIP3    H170513   5.873   1.837  10.883  1.5885  1.6153  2.0840
16366TIP3    H270514   5.780   1.954  10.909 -0.8710  0.1168  0.5364
16367TIP3   OH270515   5.172   0.320   4.043 -0.0746 -0.4280  0.2746
16367TIP3    H170516   5.131   0.405   4.028 -0.8395 -0.8654 -0.1908
16367TIP3    H270517   5.139   0.293   4.129  1.6865  0.5890  1.3146
16368TIP3   OH270518   5.120   2.188   2.395  0.2981  0.0646  0.4374
16368TIP3    H170519   5.049   2.139   2.353  1.6184 -0.1344 -1.7072
16368TIP3    H270520   5.126   2.269   2.344  0.2443  1.0615  1.9503
16369TIP3   OH270521   0.605   0.786  14.065  0.1260  0.3060 -0.2719
16369TIP3    H170522   0.582   0.866  14.017  0.0908  0.1208 -0.5628
16369TIP3    H270523   0.700   0.791  14.076  0.2865 -0.2063 -1.3595
16370TIP3   OH270524   3.445   5.943   0.016 -0.1147 -0.1403 -0.2817
16370TIP3    H170525   3.466   5.931  -0.077  0.7002 -0.5915 -0.0552
16370TIP3    H270526   3.448   5.854   0.053  2.0085  0.2374  0.6405
16371TIP3   OH270527   6.664   6.458  17.376 -0.3155 -0.0394  0.7804
16371TIP3    H170528   6.743   6.437  17.327  0.0966  0.5656  1.1737
16371TIP3    H270529   6.593   6.447  17.313  0.1361 -0.0458  0.2715
16372TIP3   OH270530   3.291   3.667  14.616  0.0256 -0.0354  0.7854
16372TIP3    H170531   3.217   3.645  14.673 -0.5708  0.1013  0.0845
16372TIP3    H270532   3.362   3.689  14.676 -0.8434  0.9587  1.4868
16373TIP3   OH270533   5.058   3.880   1.064  0.2911  0.5357 -0.0203
16373TIP3    H170534   5.045   3.847   1.153 -1.7574 -1.5494 -0.9781
16373TIP3    H270535   5.023   3.969   1.066 -2.1256 -0.3444  0.7751
16374TIP3   OH270536   6.219   4.697  16.539 -0.2688  0.3175  0.3787
16374TIP3    H170537   6.292   4.744  16.498  0.1593 -0.5591  0.1141
16374TIP3    H270538   6.252   4.673  16.626 -0.2896  0.0490  0.3134
16375TIP3   OH270539   4.628   4.504   3.948  0.2649  0.2625  0.4261
16375TIP3    H170540   4.668   4.503   3.861  0.4660 -0.7742  0.5252
16375TIP3    H270541   4.696   4.472   4.006 -1.1712 -3.3511  0.3685
16376TIP3   OH270542   1.796   5.536   2.656  0.2417 -0.4524  0.8182
16376TIP3    H170543   1.712   5.569   2.623  0.4010 -0.4982  0.3498
16376TIP3    H270544   1.861   5.575   2.597  0.3803 -2.3450 -0.3837
16377TIP3   OH270545   5.258   0.929   3.198  0.1739 -0.0229 -0.5261
16377TIP3    H170546   5.211   0.917   3.280  0.0406  0.6461 -0.4953
16377TIP3    H270547   5.331   0.868   3.203  0.1807  0.0296  0.1072
16378TIP3   OH270548   0.155   5.791  13.206 -0.1733 -0.0729 -0.1696
16378TIP3    H170549   0.193   5.755  13.126  0.9197  2.0060 -0.6491
16378TIP3    H270550   0.115   5.715  13.249 -2.1409 -1.0259 -3.3365
16379TIP3   OH270551   2.280   0.079   0.321 -0.2606  0.1065 -0.2758
16379TIP3    H170552   2.279   0.169   0.290  0.3219  0.4854  0.7445
16379TIP3    H270553   2.302   0.027   0.244 -1.3704  0.7528 -1.0516
16380TIP3   OH270554   5.009   4.193  11.003 -0.4343 -0.0293 -0.7247
16380TIP3    H170555   5.031   4.166  11.092  0.0423 -0.3810 -0.9393
16380TIP3    H270556   4.986   4.111  10.959 -3.4169  0.4141 -0.2180
16381TIP3   OH270557   2.473   3.736   4.792 -0.4283  0.3272  0.2418
16381TIP3    H170558   2.518   3.820   4.792  1.0017 -0.4017  0.0188
16381TIP3    H270559   2.479   3.705   4.883  0.6636 -0.3253 -0.0288
16382TIP3   OH270560   5.371   3.693   1.265 -0.6839  0.6368 -0.1315
16382TIP3    H170561   5.404   3.633   1.332 -0.6606  0.0566 -0.6601
16382TIP3    H270562   5.440   3.695   1.199 -1.6614 -0.5254 -1.2090
16383TIP3   OH270563   0.577   3.224   1.868  0.8936 -0.3132 -0.2132
16383TIP3    H170564   0.560   3.165   1.941  2.0399 -0.2856  0.0929
16383TIP3    H270565   0.528   3.186   1.795 -0.0875 -0.4566  0.5093
16384TIP3   OH270566   1.167   2.020  16.418 -0.0671 -0.3466 -0.3705
16384TIP3    H170567   1.119   2.079  16.476 -1.6055 -0.6281 -1.2863
16384TIP3    H270568   1.139   1.933  16.446  0.6719 -0.5716 -0.3116
16385TIP3   OH270569   3.851   3.097   5.389 -0.2377  0.0815  0.0784
16385TIP3    H170570   3.851   3.174   5.446 -2.2836 -0.3316  0.7198
16385TIP3    H270571   3.802   3.031   5.437 -3.3375  0.1720 -2.6160
16386TIP3   OH270572   0.654   1.107  14.822 -0.1292  0.7683  0.9723
16386TIP3    H170573   0.567   1.123  14.785 -0.8043  1.9739  2.9296
16386TIP3    H270574   0.661   1.168  14.895  1.8407 -0.2580  1.7286
16387TIP3   OH270575   6.259   6.541   4.291 -0.0429  0.6121  0.2738
16387TIP3    H170576   6.189   6.569   4.350  1.5677  1.1995  2.0128
16387TIP3    H270577   6.215   6.487   4.226 -2.3342  2.1282  0.4231
16388TIP3   OH270578   0.169   6.533  16.883 -0.9779 -0.5877  0.2053
16388TIP3    H170579   0.099   6.498  16.828  1.3893 -0.9399 -2.8299
16388TIP3    H270580   0.174   6.626  16.861  0.0947 -0.7634 -0.4033
16389TIP3   OH270581   3.613   0.824  11.439 -0.5071 -0.3367  0.2628
16389TIP3    H170582   3.595   0.910  11.476  1.0492  0.6962 -1.2575
16389TIP3    H270583   3.678   0.786  11.498  0.5385  0.5106 -0.3168
16390TIP3   OH270584   2.266   4.917   6.348  0.3465  0.2749 -0.4232
16390TIP3    H170585   2.185   4.874   6.375  0.4982  1.0923  1.5182
16390TIP3    H270586   2.236   4.990   6.293 -0.0468 -0.8427 -1.7474
16391TIP3   OH270587   2.528   4.867  13.779  0.1888 -0.0609 -0.2426
16391TIP3    H170588   2.464   4.806  13.816 -0.5292  0.5705 -0.4316
16391TIP3    H270589   2.572   4.904  13.856 -0.2251  0.0947 -0.0796
16392TIP3   OH270590   2.157   1.114   1.209  0.4485  0.1437  0.6423
16392TIP3    H170591   2.194   1.195   1.176 -1.1913 -0.2214 -2.4582
16392TIP3    H270592   2.202   1.045   1.159 -1.3101 -0.5364 -0.0581
16393TIP3   OH270593   5.908   2.695   0.836 -0.5472  0.1461 -0.3687
16393TIP3    H170594   5.957   2.681   0.755  0.0252  2.2617 -0.4451
16393TIP3    H270595   5.822   2.656   0.819  0.0450 -0.7600 -1.4257
16394TIP3   OH270596   1.672   0.359  15.926 -0.0269  0.1189  0.2631
16394TIP3    H170597   1.723   0.408  15.861 -0.0937  0.6193  0.5829
16394TIP3    H270598   1.710   0.383  16.010 -0.4297  0.0605  0.4668
16395TIP3   OH270599   0.711   1.720  12.469 -0.2298 -0.2133 -0.2451
16395TIP3    H170600   0.693   1.763  12.386 -0.3466 -2.9403 -1.7312
16395TIP3    H270601   0.674   1.633  12.460  1.4263 -1.2489  1.9590
16396TIP3   OH270602   3.701   2.148   1.273  0.2868 -0.7008 -0.3536
16396TIP3    H170603   3.672   2.210   1.207 -1.7110 -2.3062 -1.0861
16396TIP3    H270604   3.623   2.130   1.325  1.9380  1.0517  3.0322
16397TIP3   OH270605   0.768   0.799   0.598 -0.0137 -0.6288 -0.1986
16397TIP3    H170606   0.714   0.726   0.627 -0.8428 -0.4549 -1.2516
16397TIP3    H270607   0.720   0.838   0.525  0.8210  0.4511 -0.2077
16398TIP3   OH270608   5.264   3.462  10.921  0.3795  0.5154  0.0773
16398TIP3    H170609   5.281   3.555  10.914 -1.2654  0.8950  0.6676
16398TIP3    H270610   5.170   3.453  10.906  0.1088 -0.7698  2.0626
16399TIP3   OH270611   1.378   5.963  13.772 -0.2650 -0.7169  0.5148
16399TIP3    H170612   1.378   6.057  13.793  0.2526 -0.6525  0.2560
16399TIP3    H270613   1.390   5.920  13.856  0.1992 -0.5209  0.5537
16400TIP3   OH270614   4.698   6.547   2.218 -0.1997 -0.6667 -0.3854
16400TIP3    H170615   4.640   6.592   2.280  0.6215 -0.0306 -0.0558
16400TIP3    H270616   4.744   6.482   2.271  0.9698  0.3019 -0.1431
16401TIP3   OH270617   3.400   0.839   3.431  0.5490  0.7997  0.1910
16401TIP3    H170618   3.411   0.751   3.467  2.4753 -0.2787 -2.6606
16401TIP3    H270619   3.308   0.844   3.407  0.6234 -0.9398 -0.6236
16402TIP3   OH270620   3.224   0.652   2.938  0.1307 -0.0548  0.4728
16402TIP3    H170621   3.195   0.691   2.856  0.9765  0.1523  0.2598
16402TIP3    H270622   3.144   0.643   2.990 -0.2477  0.9241  0.0901
16403TIP3   OH270623   5.234   2.152  16.335 -0.3029 -0.3156  0.1941
16403TIP3    H170624   5.252   2.217  16.267  0.2204 -1.4418 -0.7822
16403TIP3    H270625   5.283   2.184  16.412  0.8959 -0.1485 -0.6053
16404TIP3   OH270626   6.510   4.242   3.441  0.2898 -0.2504  0.4959
16404TIP3    H170627   6.527   4.326   3.400 -0.6300 -0.1093  0.3796
16404TIP3    H270628   6.458   4.263   3.519 -0.2917 -0.7295  0.2517
16405TIP3   OH270629   4.571   3.770  15.623  0.5460  0.3651 -0.2697
16405TIP3    H170630   4.596   3.688  15.580 -0.8325 -0.4636  0.4179
16405TIP3    H270631   4.486   3.751  15.663  1.2779  1.4177  1.9164
16406TIP3   OH270632   3.791   2.175  14.642 -0.0521  0.7486  0.4712
16406TIP3    H170633   3.767   2.172  14.735 -0.3630  1.9634  0.4464
16406TIP3    H270634   3.856   2.245  14.637 -0.2085  0.8437 -0.2622
16407TIP3   OH270635   0.378   5.447  10.938  0.0359 -0.5925 -0.3118
16407TIP3    H170636   0.415   5.509  10.875  1.5550 -0.9355  0.2090
16407TIP3    H270637   0.347   5.374  10.884 -1.3725  0.3775 -0.8913
16408TIP3   OH270638   4.352   4.285  16.740  0.5565  0.4649  0.0343
16408TIP3    H170639   4.441   4.315  16.724  0.7329  0.5522  1.0674
16408TIP3    H270640   4.356   4.248  16.829  0.0186 -1.3152 -0.6435
16409TIP3   OH270641   3.975   2.314  16.758  0.1879  0.2572  0.3541
16409TIP3    H170642   4.001   2.381  16.822  2.0784  0.6859 -0.7966
16409TIP3    H270643   3.934   2.362  16.687 -1.6903 -0.1987  1.0700
16410TIP3   OH270644   1.157   6.686  15.300 -0.7150  0.0744 -0.1594
16410TIP3    H170645   1.113   6.603  15.319 -1.4494 -0.0983 -2.3900
16410TIP3    H270646   1.239   6.660  15.257 -1.4768  0.4716 -1.9308
16411TIP3   OH270647   2.074   1.151  15.352 -0.0387 -0.1214  0.1913
16411TIP3    H170648   2.156   1.197  15.370  1.9408 -3.9710  2.2015
16411TIP3    H270649   2.072   1.141  15.257  0.4462  2.1521 -0.1299
16412TIP3   OH270650   2.254   5.710  11.710 -0.0342 -0.3601  0.5261
16412TIP3    H170651   2.226   5.663  11.631 -0.3586  0.0083  0.4160
16412TIP3    H270652   2.245   5.646  11.781  0.1824 -0.6676  0.2755
16413TIP3   OH270653   3.658   5.521   0.002 -0.7662 -0.4597 -0.0811
16413TIP3    H170654   3.603   5.583   0.051 -0.0239  0.2246 -0.1082
16413TIP3    H270655   3.745   5.559   0.003 -0.5351 -0.9234 -1.1116
16414TIP3   OH270656   3.216   0.154  15.124 -0.4073 -0.0491 -0.0126
16414TIP3    H170657   3.188   0.101  15.049 -0.3327  0.4197 -0.3800
16414TIP3    H270658   3.307   0.177  15.104 -0.4152  0.1501  0.1780
16415TIP3   OH270659   1.303   0.328  11.498 -0.1539  0.0551 -0.0344
16415TIP3    H170660   1.376   0.274  11.469 -0.6093 -0.1796 -0.7786
16415TIP3    H270661   1.298   0.314  11.592 -0.8557 -1.9724 -0.3288
16416TIP3   OH270662   3.792   6.408  16.211  0.2993 -0.3643  0.4097
16416TIP3    H170663   3.709   6.409  16.259  1.5321 -0.7698  2.7140
16416TIP3    H270664   3.852   6.458  16.267  1.8736 -0.9749 -0.6761
16417TIP3   OH270665   0.280   1.841  15.321 -0.2541  0.2265  0.3663
16417TIP3    H170666   0.283   1.874  15.411  0.8993  1.6321 -0.1532
16417TIP3    H270667   0.271   1.919  15.267  2.3201 -0.2720 -0.9032
16418TIP3   OH270668   6.718   5.529   2.118 -0.1082 -0.4321 -0.0058
16418TIP3    H170669   6.657   5.464   2.082 -1.1985  0.0154  0.9792
16418TIP3    H270670   6.662   5.592   2.163  1.1854 -1.2991  3.0408
16419TIP3   OH270671   2.873   1.091   3.832 -0.2239 -1.0563 -0.3329
16419TIP3    H170672   2.852   1.038   3.909 -0.3161  0.9656  1.1274
16419TIP3    H270673   2.837   1.042   3.758 -1.8198 -2.1684  1.1168
16420TIP3   OH270674   6.383   1.962   1.450  0.3393  0.1811  0.0476
16420TIP3    H170675   6.426   1.888   1.493  0.7141 -0.0577 -0.7206
16420TIP3    H270676   6.381   2.030   1.517  2.7798  0.5166 -0.1352
16421TIP3   OH270677   2.410   5.191  11.985  0.5212 -0.2302  0.3201
16421TIP3    H170678   2.454   5.106  11.985  2.7360  0.8366  1.1147
16421TIP3    H270679   2.413   5.218  11.893 -1.3883 -1.5254 -0.1761
16422TIP3   OH270680   4.556   1.259   2.637  0.3341 -0.1303  0.0941
16422TIP3    H170681   4.594   1.343   2.661 -1.9628  0.2511  3.0406
16422TIP3    H270682   4.527   1.270   2.546 -0.7085  2.6458  0.6786
16423TIP3   OH270683   5.607   3.742  16.283 -0.6535  0.3264  0.1283
16423TIP3    H170684   5.652   3.781  16.207 -0.6343 -0.1805 -0.1225
16423TIP3    H270685   5.678   3.721  16.344 -0.3436 -1.9410 -0.9176
16424TIP3   OH270686   0.780   2.759   3.924 -0.3328 -0.0737  0.3538
16424TIP3    H170687   0.842   2.692   3.896  1.7584  1.6643  0.6095
16424TIP3    H270688   0.737   2.788   3.843 -0.4847 -0.9408  0.1133
16425TIP3   OH270689   0.752   0.878   6.077 -0.5479 -0.0274 -0.5143
16425TIP3    H170690   0.725   0.788   6.095  0.3388 -0.1549  0.2204
16425TIP3    H270691   0.784   0.911   6.161  0.1738  0.6045 -1.0294
16426TIP3   OH270692   4.528   5.337  16.503  0.3713 -0.6496 -0.2829
16426TIP3    H170693   4.556   5.269  16.564  2.6737  0.0717 -0.4429
16426TIP3    H270694   4.587   5.329  16.429  0.4881  1.2846 -0.4582
16427TIP3   OH270695   0.828   4.853  12.685  0.6478 -0.0829  0.3933
16427TIP3    H170696   0.740   4.818  12.669  0.6566 -1.1784  2.4541
16427TIP3    H270697   0.822   4.945  12.660 -0.9180 -0.2649 -0.0217
16428TIP3   OH270698   2.657   4.205   1.454 -0.0412  0.0602 -0.0497
16428TIP3    H170699   2.597   4.163   1.515  0.1063 -1.0776 -0.6529
16428TIP3    H270700   2.697   4.276   1.504 -1.4304  0.4597  0.5367
16429TIP3   OH270701   5.805   1.238  13.727  0.6319  0.2916  0.1518
16429TIP3    H170702   5.900   1.230  13.733  0.5336 -0.0125  1.4905
16429TIP3    H270703   5.779   1.285  13.806 -0.3375  0.4407 -0.2344
16430TIP3   OH270704   5.007   4.943   4.576  0.1203 -0.2788 -0.1652
16430TIP3    H170705   5.050   5.007   4.632 -0.3940 -0.8396  0.9020
16430TIP3    H270706   4.914   4.958   4.590 -0.0060 -0.9991 -0.1838
16431TIP3   OH270707   2.780   1.466  13.070 -0.2239 -0.2504 -0.1514
16431TIP3    H170708   2.823   1.534  13.122 -0.9193 -0.7001  1.0619
16431TIP3    H270709   2.780   1.500  12.981 -0.0615  1.0862  0.3391
16432TIP3   OH270710   0.410   0.725  15.072 -0.5704 -0.5983 -0.5107
16432TIP3    H170711   0.345   0.749  15.138  1.0498 -0.1076  1.0017
16432TIP3    H270712   0.410   0.798  15.011 -3.0566 -1.6722 -1.9078
16433TIP3   OH270713   3.406   5.599  14.961 -0.4736  0.3453 -0.1851
16433TIP3    H170714   3.311   5.593  14.966 -0.6363  1.8365 -1.0568
16433TIP3    H270715   3.429   5.663  15.029  0.4087 -3.1744  3.2021
16434TIP3   OH270716   4.314   1.470  11.902 -0.3417 -0.3940  0.0256
16434TIP3    H170717   4.224   1.458  11.872  0.5334 -0.5179 -2.8041
16434TIP3    H270718   4.343   1.382  11.926 -0.6907 -0.4894  0.1077
16435TIP3   OH270719   0.878   1.471   5.520 -0.2699 -0.3759  0.7336
16435TIP3    H170720   0.850   1.439   5.606  1.4346 -3.2588  0.3746
16435TIP3    H270721   0.972   1.451   5.518  0.2427  1.9330 -0.8946
16436TIP3   OH270722   5.240   0.683  13.530  1.0458 -0.1953  0.0835
16436TIP3    H170723   5.319   0.649  13.488  0.4814 -2.6117  0.8313
16436TIP3    H270724   5.202   0.607  13.575 -2.0027  0.7531 -0.6971
16437TIP3   OH270725   6.516   2.414   3.504  0.0341  1.3127  0.2428
16437TIP3    H170726   6.482   2.483   3.446 -0.8768 -0.3935 -1.3509
16437TIP3    H270727   6.607   2.403   3.478  0.1166  1.7197  0.3418
16438TIP3   OH270728   1.844   2.512   4.721 -0.3333  0.0508  0.1064
16438TIP3    H170729   1.865   2.606   4.721  2.9596 -0.5689  0.8060
16438TIP3    H270730   1.907   2.473   4.660 -1.3251 -1.8121  0.1898
16439TIP3   OH270731   3.967   0.830   2.998 -0.2572  1.0285 -0.2884
16439TIP3    H170732   3.967   0.925   2.985 -0.9275  1.2211  0.9803
16439TIP3    H270733   3.923   0.817   3.082 -1.6753 -0.5217 -1.2175
16440TIP3   OH270734   5.209   0.958  13.544 -0.3922 -0.3103  0.0474
16440TIP3    H170735   5.283   1.013  13.519 -0.6141 -0.1040 -0.1749
16440TIP3    H270736   5.236   0.869  13.524  0.0283 -0.2977  0.5471
16441TIP3   OH270737   5.103   6.321   5.728  0.8951  0.0420 -0.0832
16441TIP3    H170738   5.080   6.272   5.807  0.5007  0.6397  0.1756
16441TIP3    H270739   5.024   6.370   5.707  0.7486 -0.6768 -1.2806
16442TIP3   OH270740   1.840   2.326   5.768 -0.1312 -0.2221 -0.3109
16442TIP3    H170741   1.936   2.328   5.776 -0.2835  1.1688  2.5544
16442TIP3    H270742   1.816   2.237   5.791  0.4425 -0.2076  0.4066
16443TIP3   OH270743   6.391   2.892  14.422 -0.1129 -0.3880  0.2399
16443TIP3    H170744   6.477   2.929  14.404  0.2740 -0.7220  1.3289
16443TIP3    H270745   6.386   2.813  14.369  0.4005 -0.5645  0.4532
16444TIP3   OH270746   0.480   0.352   2.950  0.2669 -0.6656 -0.0526
16444TIP3    H170747   0.479   0.257   2.957 -0.5490 -0.7681 -1.2203
16444TIP3    H270748   0.389   0.375   2.932  0.8855  0.0842 -2.5312
16445TIP3   OH270749   5.658   3.847  17.224  0.3287 -0.1279  0.4285
16445TIP3    H170750   5.564   3.860  17.218  0.3603 -0.3861 -0.8130
16445TIP3    H270751   5.683   3.891  17.306 -0.8798 -0.2009  0.8497
16446TIP3   OH270752   5.254   4.135   1.566  0.2033  0.0512  0.2264
16446TIP3    H170753   5.322   4.119   1.631  1.5675  0.0031 -1.1570
16446TIP3    H270754   5.278   4.078   1.492  0.4990  2.3215 -1.5488
16447TIP3   OH270755   0.434   1.011   3.913 -0.0383  0.3524  0.1206
16447TIP3    H170756   0.485   1.090   3.931 -1.0670  0.9967  0.3195
16447TIP3    H270757   0.499   0.944   3.892  0.9799  0.7298  1.8927
16448TIP3   OH270758   3.009   5.410  16.908  0.4110 -0.5239  0.4248
16448TIP3    H170759   3.000   5.479  16.973  2.2525 -0.5827  0.8019
16448TIP3    H270760   3.060   5.342  16.952 -0.2737 -1.5678 -0.3520
16449TIP3   OH270761   0.236   1.569  15.286  0.1429  0.1859  0.0371
16449TIP3    H170762   0.266   1.571  15.195  2.2680  0.0597  0.6714
16449TIP3    H270763   0.242   1.660  15.314  0.0832  0.1303  0.2273
16450TIP3   OH270764   3.456   1.527   2.095  0.8786  0.2975  0.4266
16450TIP3    H170765   3.394   1.588   2.055 -0.7851  0.3410  2.8271
16450TIP3    H270766   3.438   1.443   2.053  1.4476  0.9070 -1.1217
16451TIP3   OH270767   1.935   5.371  12.657  0.0161 -0.6154 -0.4434
16451TIP3    H170768   2.006   5.412  12.706  2.3124 -2.6959 -1.8256
16451TIP3    H270769   1.933   5.419  12.574  0.0186 -0.7888 -0.5431
16452TIP3   OH270770   1.368   2.110  15.997  0.2157 -0.8133 -0.2027
16452TIP3    H170771   1.375   2.074  16.085  0.2665  4.0172  2.1020
16452TIP3    H270772   1.280   2.148  15.994  0.9321  0.8607 -1.4037
16453TIP3   OH270773   2.704   1.774  15.939 -0.7468 -0.4517  0.4033
16453TIP3    H170774   2.713   1.779  15.844  0.6320  0.6136  0.5601
16453TIP3    H270775   2.623   1.726  15.953 -1.0326 -0.5217 -1.3103
16454TIP3   OH270776   3.631   2.385  11.424 -0.5483 -0.2225 -0.3270
16454TIP3    H170777   3.642   2.296  11.458 -0.0087 -0.5041 -1.1963
16454TIP3    H270778   3.603   2.372  11.333  0.1488  0.4839 -0.6548
16455TIP3   OH270779   1.619   6.703   4.574  0.3035 -0.4409  0.0865
16455TIP3    H170780   1.534   6.683   4.533 -0.5882  0.2826  1.4840
16455TIP3    H270781   1.623   6.799   4.575  1.3171 -0.4705 -0.2956
16456TIP3   OH270782   0.160   2.548   1.962  0.2117  0.3054  0.4260
16456TIP3    H170783   0.217   2.471   1.966  1.7765  1.3859 -0.0088
16456TIP3    H270784   0.192   2.597   1.887 -0.5890  1.5163  0.8534
16457TIP3   OH270785   0.605   0.500  10.587 -0.4371 -0.6380 -0.3241
16457TIP3    H170786   0.519   0.524  10.621 -0.6319  1.4242 -2.0072
16457TIP3    H270787   0.642   0.583  10.555  1.4511 -1.7377 -1.1937
16458TIP3   OH270788   0.039   0.495  15.620 -0.0235 -0.0316  0.1364
16458TIP3    H170789   0.040   0.590  15.613 -0.8559  0.0951  1.4088
16458TIP3    H270790   0.108   0.474  15.683  1.1252 -0.4158 -1.1833
16459TIP3   OH270791   5.735   6.700   3.053 -0.0563  0.1787  0.2844
16459TIP3    H170792   5.754   6.650   2.974 -2.2544 -2.2401  1.1668
16459TIP3    H270793   5.814   6.690   3.106  0.3352 -0.6341 -0.4175
16460TIP3   OH270794   2.992   5.050   2.575  0.2715  0.1508 -0.1817
16460TIP3    H170795   3.079   5.038   2.538  0.2935 -1.1338  0.2420
16460TIP3    H270796   2.944   4.971   2.551 -0.0435 -0.2433  1.5972
16461TIP3   OH270797   0.494   2.416  13.989 -0.9795  0.0124  0.2940
16461TIP3    H170798   0.478   2.481  14.058 -1.3613  0.9893 -0.6851
16461TIP3    H270799   0.490   2.466  13.907 -1.6409 -1.3053 -0.5192
16462TIP3   OH270800   3.754   3.679  12.345 -0.0026  0.1821 -0.2876
16462TIP3    H170801   3.765   3.603  12.288  0.6618 -0.7229  1.0024
16462TIP3    H270802   3.738   3.642  12.432 -1.5976  1.5231  0.0324
16463TIP3   OH270803   3.679   6.247  12.666  0.1479  0.2408  0.3159
16463TIP3    H170804   3.667   6.302  12.743  2.1270  1.6580 -0.3056
16463TIP3    H270805   3.640   6.297  12.594  1.3018  0.5255 -0.1345
16464TIP3   OH270806   5.045   2.572  13.860  0.1378  0.5525 -0.3484
16464TIP3    H170807   4.976   2.635  13.840  0.5396  0.7778 -1.0599
16464TIP3    H270808   5.104   2.618  13.920  0.6890  1.0413 -1.2411
16465TIP3   OH270809   4.599   6.621   5.610 -0.2102  0.6282 -0.2566
16465TIP3    H170810   4.537   6.683   5.648 -0.3460  0.5899 -0.4134
16465TIP3    H270811   4.561   6.535   5.630  0.1335  0.5888  0.2278
16466TIP3   OH270812   6.168   4.772  11.123 -0.4505  0.4733  0.1077
16466TIP3    H170813   6.201   4.859  11.149 -0.1924  0.0496  1.2854
16466TIP3    H270814   6.178   4.719  11.202  0.4521 -0.9451 -0.9226
16467TIP3   OH270815   2.651   5.064  14.686  0.1136 -0.3302  0.6939
16467TIP3    H170816   2.689   5.012  14.758 -1.0216 -1.4231  0.5460
16467TIP3    H270817   2.557   5.059  14.701 -0.0917  0.2203 -0.3550
16468TIP3   OH270818   4.767   0.646  14.630 -0.1633  0.1276  0.6907
16468TIP3    H170819   4.678   0.633  14.597 -0.1341 -1.0238  1.0334
16468TIP3    H270820   4.766   0.609  14.718  1.3358 -2.4546 -0.2463
16469TIP3   OH270821   0.678   5.748  15.944 -0.4092  0.1650 -0.4633
16469TIP3    H170822   0.730   5.747  16.024 -1.3228  0.2760  0.1486
16469TIP3    H270823   0.657   5.656  15.929  0.8653 -0.0088 -1.3331
16470TIP3   OH270824   6.561   2.109  16.771 -0.3563  0.8014 -0.4827
16470TIP3    H170825   6.649   2.070  16.773 -1.0236 -0.9176 -1.9150
16470TIP3    H270826   6.530   2.094  16.682 -2.3569  0.7718  0.1694
16471TIP3   OH270827   5.344   5.342   2.477  0.5107 -0.0921 -0.5122
16471TIP3    H170828   5.359   5.434   2.498 -0.2640  0.1864 -1.1238
16471TIP3    H270829   5.367   5.295   2.557 -0.0498  0.7258  0.1516
16472TIP3   OH270830   4.441   3.150  12.117 -0.8925  0.0249  0.1398
16472TIP3    H170831   4.518   3.141  12.062 -1.8177 -0.7383 -1.1036
16472TIP3    H270832   4.408   3.060  12.126 -2.6541  0.5088 -0.9358
16473TIP3   OH270833   2.763   3.391  17.140  0.5045  0.1647 -0.0294
16473TIP3    H170834   2.732   3.406  17.051  2.8120  0.0611 -0.9355
16473TIP3    H270835   2.703   3.326  17.176 -0.5402  0.2846 -1.4792
16474TIP3   OH270836   5.970   1.865  10.724 -0.3398 -0.4742  0.0628
16474TIP3    H170837   5.883   1.882  10.688  0.3735 -0.2741 -1.6756
16474TIP3    H270838   6.012   1.808  10.659  0.9094 -0.3568  0.7386
16475TIP3   OH270839   4.502   0.354   2.235 -0.4132  0.0045  0.0692
16475TIP3    H170840   4.541   0.440   2.225  0.6628 -0.4749  0.0018
16475TIP3    H270841   4.494   0.320   2.146 -1.2192  0.1845  0.0617
16476TIP3   OH270842   4.650   3.194   1.178 -0.2108 -0.0302 -0.1136
16476TIP3    H170843   4.585   3.126   1.164  0.7762 -0.7895 -1.2352
16476TIP3    H270844   4.635   3.257   1.107 -0.6359  0.5438  0.4760
16477TIP3   OH270845   0.770   5.050   1.407  0.3087  0.4714 -0.3722
16477TIP3    H170846   0.786   4.966   1.449  0.8443  0.5299 -0.4516
16477TIP3    H270847   0.681   5.043   1.373 -0.1055  0.3959  0.6977
16478TIP3   OH270848   6.430   5.382  14.710 -0.3275  0.0963  0.0878
16478TIP3    H170849   6.501   5.320  14.695  0.0676  0.9703 -1.9781
16478TIP3    H270850   6.466   5.443  14.775  0.3709 -0.1565 -0.0451
16479TIP3   OH270851   0.235   2.120   1.556 -0.4333 -0.0601 -0.5331
16479TIP3    H170852   0.177   2.049   1.530  2.8121 -2.9501 -0.6660
16479TIP3    H270853   0.201   2.150   1.640 -1.1049 -2.9826  0.3743
16480TIP3   OH270854   4.517   3.772   4.833 -0.6586  0.3521 -0.0511
16480TIP3    H170855   4.551   3.823   4.760  0.8023 -1.0540 -0.3963
16480TIP3    H270856   4.460   3.707   4.793  1.5148 -1.5624 -0.1965
16481TIP3   OH270857   0.527   4.053   4.874  0.0390 -0.0583 -0.0855
16481TIP3    H170858   0.607   4.001   4.871  0.7768  0.9819  0.7427
16481TIP3    H270859   0.527   4.091   4.962 -0.8241  0.7869 -0.4416
16482TIP3   OH270860   6.231   6.322   4.785  0.1845 -0.2480 -0.0656
16482TIP3    H170861   6.203   6.412   4.801 -1.9525 -1.0218  0.9373
16482TIP3    H270862   6.280   6.298   4.863 -0.2012 -0.2949  0.1654
16483TIP3   OH270863   1.544   3.161  14.911  0.0272  0.1885 -0.0013
16483TIP3    H170864   1.565   3.163  15.004  0.1217 -1.0747  0.0172
16483TIP3    H270865   1.599   3.229  14.872 -0.0703  0.7793  0.8613
16484TIP3   OH270866   5.785   6.599   2.808 -0.0705  0.5294  0.0878
16484TIP3    H170867   5.837   6.606   2.728 -1.3870 -0.1183 -0.8666
16484TIP3    H270868   5.697   6.629   2.782 -0.8008 -0.7179  0.9882
16485TIP3   OH270869   3.342   6.094   2.368  0.3610  0.0057 -0.1816
16485TIP3    H170870   3.371   6.005   2.389  1.4185  0.3068 -0.3216
16485TIP3    H270871   3.356   6.143   2.449  4.4755  1.1771 -1.3361
16486TIP3   OH270872   2.868   1.381  15.385  0.5776  0.1472 -0.0661
16486TIP3    H170873   2.918   1.462  15.376  0.7404  0.3814  2.3530
16486TIP3    H270874   2.839   1.381  15.476 -3.3386 -0.3014 -1.1493
16487TIP3   OH270875   0.625   1.103  12.196  0.0708 -0.4103 -0.3151
16487TIP3    H170876   0.591   1.149  12.273  1.7904  2.0385 -0.8698
16487TIP3    H270877   0.580   1.145  12.122  0.2359 -1.0080 -0.7613
16488TIP3   OH270878   4.115   3.768   5.710  0.3903 -0.1965  0.2796
16488TIP3    H170879   4.030   3.800   5.740  0.3592  0.4310 -0.4283
16488TIP3    H270880   4.132   3.691   5.763 -0.0774  0.3442  1.2476
16489TIP3   OH270881   3.670   3.961   1.507  0.1989  0.0570  0.0554
16489TIP3    H170882   3.734   4.022   1.471  0.0116  0.1931 -0.0465
16489TIP3    H270883   3.714   3.876   1.503  1.1586  0.4005  1.8277
16490TIP3   OH270884   3.058   4.747  11.931 -0.3836 -0.0421 -0.1026
16490TIP3    H170885   3.136   4.760  11.877 -1.4762 -1.4665 -2.1813
16490TIP3    H270886   3.010   4.830  11.924  0.8846  0.8479  1.2091
16491TIP3   OH270887   2.074   5.916   2.602 -0.7386 -0.6426 -0.2915
16491TIP3    H170888   2.051   5.893   2.512 -2.2823 -1.7972  0.3543
16491TIP3    H270889   2.130   5.843   2.631 -0.2225 -0.2592 -0.2989
16492TIP3   OH270890   0.871   2.318   6.178  0.3112  0.1746 -0.1011
16492TIP3    H170891   0.921   2.384   6.225  1.1000 -1.1062  0.9502
16492TIP3    H270892   0.780   2.336   6.199  0.3751  1.8890 -1.1621
16493TIP3   OH270893   6.490   6.433   4.643 -0.4750  0.0591  0.1484
16493TIP3    H170894   6.453   6.371   4.580  0.6170  0.1772 -0.6479
16493TIP3    H270895   6.526   6.379   4.712 -1.0792 -0.1039  0.3418
16494TIP3   OH270896   4.352   0.249  15.336 -0.0613 -0.1742  0.1875
16494TIP3    H170897   4.328   0.158  15.352 -1.3297  0.7582  5.2199
16494TIP3    H270898   4.269   0.292  15.312 -0.0464  0.1248  0.6609
16495TIP3   OH270899   6.552   3.794   1.506 -0.1105 -0.1263  0.6901
16495TIP3    H170900   6.472   3.744   1.491  1.3535 -2.4182 -0.0038
16495TIP3    H270901   6.538   3.876   1.460 -2.4912  0.0356  1.5772
16496TIP3   OH270902   0.613   3.414   1.345 -0.4970  0.5413  0.4509
16496TIP3    H170903   0.684   3.397   1.283 -1.1138  0.6931 -0.3131
16496TIP3    H270904   0.537   3.369   1.308 -1.0966  1.3823  0.6126
16497TIP3   OH270905   2.165   3.156   2.841 -0.0502 -0.9375  0.1621
16497TIP3    H170906   2.240   3.180   2.787  0.3345 -1.1146  0.6153
16497TIP3    H270907   2.139   3.069   2.809 -0.3309 -0.7020 -0.2732
16498TIP3   OH270908   4.034   1.328   3.262  0.3231 -0.0655 -0.0423
16498TIP3    H170909   4.074   1.303   3.345  0.6145  0.8360  0.1097
16498TIP3    H270910   3.978   1.403   3.284  2.0704  1.6161 -0.9514
16499TIP3   OH270911   2.935   4.143   0.534 -0.2346  0.0762 -0.4038
16499TIP3    H170912   2.903   4.104   0.615  0.7118  0.6324  0.2533
16499TIP3    H270913   2.890   4.228   0.529 -1.1335 -0.4131 -1.0530
16500TIP3   OH270914   3.894   1.007   4.456 -0.1912 -0.2669 -0.1116
16500TIP3    H170915   3.852   1.060   4.524  0.4214 -0.3013  0.2998
16500TIP3    H270916   3.822   0.958   4.417 -0.6058  0.0292  0.2599
16501TIP3   OH270917   5.254   6.268  15.765  0.1479  0.0785  0.0721
16501TIP3    H170918   5.271   6.349  15.716 -0.7547 -0.5714 -1.3613
16501TIP3    H270919   5.188   6.222  15.714  1.7808 -2.3415 -0.0166
16502TIP3   OH270920   2.754   0.000   2.496 -0.4294  0.0781 -0.2793
16502TIP3    H170921   2.698   0.004   2.419 -0.3480 -0.9790 -0.3988
16502TIP3    H270922   2.826   0.060   2.477 -0.4533 -0.1172 -0.9854
16503TIP3   OH270923   6.260   4.495  11.993  0.1673 -0.0658  0.6309
16503TIP3    H170924   6.314   4.425  12.028 -0.4301 -1.0380 -0.3076
16503TIP3    H270925   6.316   4.573  11.996  0.9245 -0.6198  1.4714
16504TIP3   OH270926   3.868   1.785  15.297  0.3376 -0.4058 -0.0944
16504TIP3    H170927   3.827   1.850  15.353 -2.5086 -2.2616  0.2011
16504TIP3    H270928   3.935   1.744  15.351  0.9486  1.0581  0.2813
16505TIP3   OH270929   3.506   2.092  13.136  0.9393 -0.0823 -0.2938
16505TIP3    H170930   3.562   2.074  13.211 -0.5241  1.9125  1.3789
16505TIP3    H270931   3.480   2.184  13.146 -1.5573 -0.5474 -1.6873
16506TIP3   OH270932   2.526   6.212   0.441  0.7949  0.4184  0.2061
16506TIP3    H170933   2.448   6.160   0.458 -0.2252  1.2338 -1.7529
16506TIP3    H270934   2.597   6.147   0.436 -0.2820 -0.7249 -1.1716
16507TIP3   OH270935   6.472   1.800   4.828 -0.7536  0.0232  0.3244
16507TIP3    H170936   6.543   1.861   4.807 -2.6694  1.6657 -1.9867
16507TIP3    H270937   6.491   1.771   4.918  1.5413  2.1768  0.6546
16508TIP3   OH270938   3.464   6.728   5.240 -0.1916 -0.4057  0.4726
16508TIP3    H170939   3.479   6.740   5.146 -0.0977  3.4238  0.8021
16508TIP3    H270940   3.540   6.680   5.271  0.0794 -1.1893 -1.2898
16509TIP3   OH270941   3.983   2.918  16.446 -0.6695 -0.0045 -0.2168
16509TIP3    H170942   4.000   2.853  16.514  0.4286  1.0265  0.5399
16509TIP3    H270943   3.916   2.878  16.391  0.9393 -2.3758 -0.6157
16510TIP3   OH270944   0.213   0.364   2.864  0.3099  0.1222 -0.0655
16510TIP3    H170945   0.133   0.365   2.917 -0.4716 -0.9671 -1.1728
16510TIP3    H270946   0.190   0.313   2.787  0.6636  3.4478 -2.6047
16511TIP3   OH270947   5.278   4.718  10.580 -0.2155  0.5843 -0.1905
16511TIP3    H170948   5.187   4.739  10.600  0.2870  1.2800  1.5931
16511TIP3    H270949   5.317   4.802  10.555  0.5811  0.9296  1.9522
16512TIP3   OH270950   0.076   1.401   3.588 -0.1148 -0.2634 -0.2903
16512TIP3    H170951   0.124   1.330   3.546 -0.6686 -0.4223 -0.6673
16512TIP3    H270952   0.143   1.465   3.611  0.2903 -0.5406 -0.6927
16513TIP3   OH270953   2.056   3.417   1.439  0.0698  0.0154  0.2607
16513TIP3    H170954   2.120   3.349   1.460 -0.4778 -0.1348  1.5229
16513TIP3    H270955   1.982   3.400   1.497  1.0009  3.2724  2.7395
16514TIP3   OH270956   5.072   3.198   1.984  0.6551 -0.0122  0.1475
16514TIP3    H170957   5.159   3.234   2.000  0.1842  0.6914  1.2523
16514TIP3    H270958   5.059   3.207   1.890  2.0840 -0.8799 -0.1612
16515TIP3   OH270959   6.543   5.077  15.963 -0.2625  0.3581  0.0165
16515TIP3    H170960   6.503   5.160  15.988  0.3987  0.7832 -0.2833
16515TIP3    H270961   6.624   5.102  15.918  0.2829 -0.4647  0.5092
16516TIP3   OH270962   2.482   2.456   3.869  0.0487  0.0211  0.4258
16516TIP3    H170963   2.513   2.429   3.956 -0.1887  1.2355  0.9149
16516TIP3    H270964   2.528   2.538   3.852 -0.1549 -0.0401 -0.4629
16517TIP3   OH270965   3.957   0.737  15.794  0.0309  0.4074  0.2503
16517TIP3    H170966   3.880   0.792  15.786  0.3126  0.9449  1.1113
16517TIP3    H270967   4.030   0.795  15.773  0.4139  0.6673  2.1340
16518TIP3   OH270968   4.528   0.580   5.617  0.1264  0.3008  0.2677
16518TIP3    H170969   4.457   0.631   5.577 -0.0277  1.8667  2.4001
16518TIP3    H270970   4.490   0.493   5.628 -0.5323  0.3962 -0.9756
16519TIP3   OH270971   1.988   3.839  17.375 -0.3651 -0.4366 -0.6197
16519TIP3    H170972   2.029   3.779  17.436 -2.3132 -0.6817  0.5249
16519TIP3    H270973   2.054   3.907  17.359  0.0783 -0.1495  2.0645
16520TIP3   OH270974   2.773   5.815  14.717  0.5011 -0.5093  0.1019
16520TIP3    H170975   2.826   5.737  14.728  0.8973 -0.2894 -0.2123
16520TIP3    H270976   2.685   5.789  14.745  0.5883 -1.1205 -0.1741
16521TIP3   OH270977   2.845   5.692  11.622  0.0127 -0.2375 -0.2440
16521TIP3    H170978   2.763   5.702  11.572 -1.1321  1.3722  1.8416
16521TIP3    H270979   2.872   5.781  11.642  2.0693 -0.7720 -0.4588
16522TIP3   OH270980   1.726   2.288   0.391 -0.1037  0.1170 -0.0320
16522TIP3    H170981   1.632   2.276   0.406  0.0403  0.4609  1.2514
16522TIP3    H270982   1.731   2.364   0.333 -0.6389 -0.4290 -0.8252
16523TIP3   OH270983   4.540   1.600   1.768  0.2021  0.4897  0.0084
16523TIP3    H170984   4.510   1.656   1.697 -1.0218 -0.3868 -0.1989
16523TIP3    H270985   4.486   1.624   1.843 -0.4317 -0.4757 -0.1182
16524TIP3   OH270986   1.538   1.599   4.865 -0.1698  0.4689  0.4243
16524TIP3    H170987   1.571   1.518   4.827  1.9000 -0.3062  3.4599
16524TIP3    H270988   1.459   1.573   4.913  0.9841 -0.0774  2.1489
16525TIP3   OH270989   2.412   5.093  15.434  0.1557 -0.3899 -0.4983
16525TIP3    H170990   2.351   5.019  15.428 -1.0024  0.4064  0.9661
16525TIP3    H270991   2.424   5.106  15.528  1.6135  0.2839 -0.7577
16526TIP3   OH270992   1.264   2.795  15.906  0.0566 -0.0017 -0.2660
16526TIP3    H170993   1.227   2.832  15.986 -1.1891 -0.1145 -0.7679
16526TIP3    H270994   1.231   2.851  15.836 -1.0094 -1.4153 -0.9374
16527TIP3   OH270995   6.367   1.097  11.350  0.2475 -0.2665  0.1122
16527TIP3    H170996   6.345   1.044  11.426 -0.6748 -0.6513 -0.4144
16527TIP3    H270997   6.428   1.163  11.384  0.6451 -1.0559  0.9642
16528TIP3   OH270998   5.261   5.068  13.067  0.3421 -0.2960 -0.0257
16528TIP3    H170999   5.199   5.045  13.136 -0.3500  1.4899 -0.0155
16528TIP3    H271000   5.328   5.000  13.072 -0.7528 -1.3570  1.0354
16529TIP3   OH271001   5.136   5.910  15.046  0.8361 -0.1096  0.2685
16529TIP3    H171002   5.138   5.948  15.134  0.3648  0.0495  0.2162
16529TIP3    H271003   5.047   5.927  15.015  1.2078  0.4851 -0.5201
16530TIP3   OH271004   0.930   2.044   0.660 -0.0047  0.1217  0.5455
16530TIP3    H171005   1.004   1.990   0.686 -1.2964 -2.5473 -0.8872
16530TIP3    H271006   0.946   2.128   0.702  2.7661 -0.9524  1.9213
16531TIP3   OH271007   3.410   1.101  15.288  0.0262  0.0769 -0.6940
16531TIP3    H171008   3.503   1.118  15.275  0.4034  0.2540  1.6592
16531TIP3    H271009   3.403   1.006  15.294 -0.0415  0.0352 -1.3672
16532TIP3   OH271010   2.905   2.879   6.408 -0.4856 -0.3510 -0.3101
16532TIP3    H171011   2.998   2.896   6.398  0.5962 -3.9981  1.6570
16532TIP3    H271012   2.885   2.813   6.341 -1.5800  0.1104 -0.4654
16533TIP3   OH271013   2.504   0.780   1.564 -0.0997 -0.4588  0.1977
16533TIP3    H171014   2.434   0.845   1.560  0.4528  0.1891  1.0185
16533TIP3    H271015   2.481   0.724   1.638 -0.1301 -0.6900  0.0150
16534TIP3   OH271016   6.233   3.732   2.884 -0.0456 -0.8533 -0.2418
16534TIP3    H171017   6.291   3.716   2.810 -1.0925 -0.1124 -1.2579
16534TIP3    H271018   6.157   3.675   2.867 -0.6079 -0.1453 -0.1288
16535TIP3   OH271019   6.590   4.331  13.303 -0.5401  0.3844 -0.5771
16535TIP3    H171020   6.678   4.325  13.340  0.4742  0.5968 -2.8133
16535TIP3    H271021   6.595   4.403  13.240 -1.4340 -1.5409 -3.0005
16536TIP3   OH271022   1.916   5.231  14.494 -0.3044 -0.7735 -0.2642
16536TIP3    H171023   1.986   5.295  14.508 -1.5199  0.2859  1.2700
16536TIP3    H271024   1.915   5.178  14.573 -0.4448 -1.5909 -0.8018
16537TIP3   OH271025   0.090   3.968   2.812 -0.4866  0.4735  0.2792
16537TIP3    H171026   0.059   3.892   2.861 -0.6972 -0.0643 -0.6729
16537TIP3    H271027   0.112   4.033   2.880 -1.5062  0.0372  1.0518
16538TIP3   OH271028   6.011   5.756  12.003 -0.5166  0.0465 -0.4979
16538TIP3    H171029   5.995   5.764  11.908  0.3194  0.7618 -0.5898
16538TIP3    H271030   6.105   5.742  12.010 -0.4878  0.6177  0.2653
16539TIP3   OH271031   1.244   1.533  15.682  0.5644 -0.2630  0.0562
16539TIP3    H171032   1.276   1.467  15.743 -1.7112 -2.1597 -0.6569
16539TIP3    H271033   1.252   1.615  15.729  2.2377 -1.2049  1.5068
16540TIP3   OH271034   3.727   2.664  12.649 -0.2379  0.6375 -0.3475
16540TIP3    H171035   3.736   2.715  12.569  1.3529 -0.2588 -0.7835
16540TIP3    H271036   3.781   2.710  12.713  0.8961 -0.2538 -0.6387
16541TIP3   OH271037   1.066   4.095   5.819 -0.2761 -0.0814 -0.3428
16541TIP3    H171038   1.011   4.172   5.828  0.2911  0.4617 -1.3633
16541TIP3    H271039   1.156   4.129   5.827 -0.0442 -0.8861  0.8827
16542TIP3   OH271040   6.108   4.103  12.505  0.4538 -0.1320  0.1228
16542TIP3    H171041   6.171   4.102  12.577  0.1864 -0.4977  0.3570
16542TIP3    H271042   6.022   4.098  12.548  0.2561  0.4454 -0.1873
16543TIP3   OH271043   4.560   6.539  13.626 -0.5456 -0.3067  0.4942
16543TIP3    H171044   4.483   6.560  13.679 -0.5911  0.0904  0.2663
16543TIP3    H271045   4.628   6.597  13.658 -0.9820  1.0442 -0.9162
16544TIP3   OH271046   2.041   4.972  10.762 -0.4841  0.1979  0.0602
16544TIP3    H171047   2.033   4.892  10.710  1.1726  0.3149 -0.4166
16544TIP3    H271048   2.098   4.949  10.834  0.7981  1.1600 -0.6010
16545TIP3   OH271049   4.544   5.575   1.571 -0.3759  0.3934  0.4351
16545TIP3    H171050   4.545   5.635   1.496  1.9138  1.4250  1.2031
16545TIP3    H271051   4.525   5.489   1.533  0.7607  0.8903 -1.3386
16546TIP3   OH271052   4.246   1.177   4.435 -0.1158  0.5118 -0.1735
16546TIP3    H171053   4.263   1.262   4.395 -0.0136  0.7497  0.3782
16546TIP3    H271054   4.201   1.127   4.366  1.3939  0.3861 -1.1327
16547TIP3   OH271055   6.438   1.157   3.397  0.6199  0.6003 -0.5395
16547TIP3    H171056   6.459   1.064   3.387 -0.2756  0.4186 -0.8239
16547TIP3    H271057   6.402   1.183   3.312 -3.0393  0.1270  0.6964
16548TIP3   OH271058   5.184   4.598  11.797  0.2043  0.2594 -0.2053
16548TIP3    H171059   5.189   4.540  11.873  1.4909  0.3471 -0.1984
16548TIP3    H271060   5.093   4.590  11.766  0.2566 -1.4630  0.0080
16549TIP3   OH271061   6.198   1.851   2.400  0.4163 -0.0042  0.3765
16549TIP3    H171062   6.253   1.833   2.476 -1.4741 -0.1664  1.7781
16549TIP3    H271063   6.218   1.941   2.376  1.0321  0.0448  1.0713
16550TIP3   OH271064   4.884   2.059   0.748  0.3898 -0.7419  0.2390
16550TIP3    H171065   4.888   2.110   0.829 -0.9242 -0.2316 -0.0018
16550TIP3    H271066   4.810   1.999   0.761 -0.2105 -0.2501 -0.8016
16551TIP3   OH271067   0.119   2.769   3.852  0.2187  0.1967  0.4095
16551TIP3    H171068   0.052   2.833   3.876 -0.2176 -0.3079  0.5413
16551TIP3    H271069   0.202   2.818   3.859 -0.2127  1.1924 -0.9833
16552TIP3   OH271070   5.963   0.586  11.180 -0.2583  0.3826 -0.1380
16552TIP3    H171071   5.875   0.617  11.159 -0.5305  0.3351  0.8773
16552TIP3    H271072   6.015   0.666  11.190 -0.1158  0.4036 -1.0017
16553TIP3   OH271073   5.761   0.724   2.761 -0.0380 -0.1816  0.1256
16553TIP3    H171074   5.852   0.743   2.785 -0.1338 -1.2058  1.3927
16553TIP3    H271075   5.768   0.645   2.706 -0.0779  0.4191 -0.7624
16554TIP3   OH271076   3.981   1.988  11.643  0.5170 -0.0906  0.0809
16554TIP3    H171077   3.928   1.922  11.597  1.6003 -1.1212  0.2687
16554TIP3    H271078   3.957   1.978  11.735 -0.2879  0.7031 -0.0305
16555TIP3   OH271079   3.611   3.953  15.325 -0.0386  0.0952  0.5629
16555TIP3    H171080   3.587   3.892  15.256  1.6894 -2.9545  2.4228
16555TIP3    H271081   3.530   3.970  15.372 -0.2981 -2.5288  1.2100
16556TIP3   OH271082   1.365   5.275  11.815 -0.4739  0.2773  0.0433
16556TIP3    H171083   1.301   5.289  11.745 -0.1836 -2.8214 -0.9915
16556TIP3    H271084   1.320   5.217  11.877  1.0012 -1.3972 -0.3675
16557TIP3   OH271085   2.451   3.934   5.303  0.2057 -0.2649  0.0753
16557TIP3    H171086   2.474   3.901   5.389  1.1794 -0.8851 -0.4104
16557TIP3    H271087   2.358   3.911   5.292 -0.0949  0.3417  1.1734
16558TIP3   OH271088   6.156   0.370  16.874 -0.3518  0.2330  0.0893
16558TIP3    H171089   6.147   0.421  16.793 -0.0319  2.7896  1.5408
16558TIP3    H271090   6.078   0.392  16.925  0.4864  0.4152  1.3468
16559TIP3   OH271091   3.394   2.965  14.083  0.4226  0.2899  0.3605
16559TIP3    H171092   3.432   2.978  13.996 -0.0629  3.3848  0.4973
16559TIP3    H271093   3.300   2.961  14.068  0.3672  0.1954  0.7171
16560TIP3   OH271094   4.413   0.053   4.849  0.1230  0.4860  0.2307
16560TIP3    H171095   4.395  -0.036   4.818 -1.2038  0.3291  1.3499
16560TIP3    H271096   4.458   0.095   4.776 -1.6837 -0.2666 -1.4032
16561TIP3   OH271097   3.053   5.757  13.160 -0.2154  0.3879 -0.2079
16561TIP3    H171098   3.084   5.789  13.244 -0.3318 -1.6157  0.6540
16561TIP3    H271099   2.961   5.736  13.174  0.2666 -2.0042 -0.1177
16562TIP3   OH271100   4.358   6.629  13.062 -0.3248  0.5794  0.5839
16562TIP3    H171101   4.350   6.544  13.107 -0.4807 -0.2778 -0.9807
16562TIP3    H271102   4.301   6.688  13.112  0.1866 -0.0789  2.0159
16563TIP3   OH271103   5.756   2.620   4.583 -0.7275 -0.2423  0.3719
16563TIP3    H171104   5.710   2.550   4.628 -1.0556 -1.0070 -1.1013
16563TIP3    H271105   5.750   2.598   4.490 -1.7875  2.2808 -0.2586
16564TIP3   OH271106   1.386   6.072   6.206 -0.1143  0.2998 -0.5351
16564TIP3    H171107   1.367   6.084   6.299  0.3246  0.7119 -0.4929
16564TIP3    H271108   1.479   6.047   6.204  0.2117  1.4724 -0.9337
16565TIP3   OH271109   0.369   1.111   6.822 -0.3941  0.3004  0.1824
16565TIP3    H171110   0.280   1.147   6.829  0.1403  2.0519 -1.4102
16565TIP3    H271111   0.424   1.173   6.870  0.3250  0.8263 -1.2638
16566TIP3   OH271112   3.511   0.512   2.613 -0.3438 -0.0961 -0.1816
16566TIP3    H171113   3.530   0.492   2.705 -0.9835  1.6832  0.3723
16566TIP3    H271114   3.571   0.583   2.591 -0.5787 -0.1360 -0.9777
16567TIP3   OH271115   0.098   1.384   0.102  0.5632 -0.0623 -0.4536
16567TIP3    H171116   0.091   1.380   0.198 -1.5284  0.3256 -0.5313
16567TIP3    H271117   0.171   1.444   0.086 -0.3037  1.4750  0.9461
16568TIP3   OH271118   0.839   0.558   4.619 -0.4098 -0.0403  0.3759
16568TIP3    H171119   0.898   0.633   4.625 -1.0942  0.9451 -2.9281
16568TIP3    H271120   0.882   0.498   4.558 -1.1638 -1.0706  0.8155
16569TIP3   OH271121   0.829   6.159   2.804  0.7436 -0.0319  0.0290
16569TIP3    H171122   0.809   6.253   2.800  0.4755 -0.1251 -1.0331
16569TIP3    H271123   0.882   6.149   2.883 -0.7411  0.7286  1.1586
16570TIP3   OH271124   5.737   4.184   1.168  0.0915 -0.5881 -0.3153
16570TIP3    H171125   5.832   4.192   1.182  0.0953 -1.9338  0.5632
16570TIP3    H271126   5.710   4.114   1.227 -1.5183 -0.0120 -0.3329
16571TIP3   OH271127   4.175   2.642   5.742 -0.6232  0.1591 -0.2249
16571TIP3    H171128   4.147   2.685   5.662 -0.7894 -0.8826 -0.7469
16571TIP3    H271129   4.206   2.713   5.798  0.2584  0.8347 -1.5099
16572TIP3   OH271130   4.366   5.829  15.110  0.1253 -0.4021  0.2452
16572TIP3    H171131   4.363   5.925  15.111  1.7917 -0.3199 -0.0185
16572TIP3    H271132   4.365   5.807  15.016  4.1699 -0.3723  0.0443
16573TIP3   OH271133   4.220   0.176   0.791 -0.1532 -0.2545  0.1727
16573TIP3    H171134   4.135   0.170   0.835 -2.1257  1.4387 -3.0192
16573TIP3    H271135   4.236   0.088   0.757 -0.1307 -0.8120  1.5683
16574TIP3   OH271136   5.996   4.651   2.763  0.4195 -0.8456  0.0828
16574TIP3    H171137   5.920   4.695   2.801 -0.2412 -0.1359 -1.9412
16574TIP3    H271138   6.000   4.567   2.810 -1.2928 -0.6908  0.6041
16575TIP3   OH271139   0.625   0.611   2.939  0.6214  0.7623 -0.3425
16575TIP3    H171140   0.632   0.641   3.029 -2.5857  3.0228 -0.6667
16575TIP3    H271141   0.594   0.521   2.946  1.7383  0.4330  0.7497
16576TIP3   OH271142   1.729   6.122  16.681 -0.1347  0.9789  0.7062
16576TIP3    H171143   1.686   6.195  16.725 -0.6908  0.9881  0.1632
16576TIP3    H271144   1.690   6.121  16.593  1.0538  1.0638  0.1526
16577TIP3   OH271145   3.646   5.710   3.497 -0.0522 -0.4182  0.1738
16577TIP3    H171146   3.596   5.790   3.481 -1.1154 -1.5396 -3.0845
16577TIP3    H271147   3.582   5.640   3.486  1.8381 -1.8764 -3.0956
16578TIP3   OH271148   4.786   1.903   1.786  0.5092  0.3928 -0.2072
16578TIP3    H171149   4.711   1.873   1.734  0.2870 -0.5957  0.6531
16578TIP3    H271150   4.772   1.998   1.796  0.9498  0.7647 -2.5467
16579TIP3   OH271151   1.735   0.676  17.157 -0.5808 -0.1699 -0.1607
16579TIP3    H171152   1.703   0.742  17.096  0.7435  0.0291 -0.6707
16579TIP3    H271153   1.677   0.601  17.144 -0.4267 -0.0755 -1.5651
16580TIP3   OH271154   1.833   2.408  11.211  0.0777 -0.1891  0.1235
16580TIP3    H171155   1.841   2.502  11.230 -0.1527 -0.6137  2.5778
16580TIP3    H271156   1.739   2.392  11.205  0.0301 -0.5809  1.6463
16581TIP3   OH271157   4.619   1.614  12.801 -0.2856  0.1336  0.4389
16581TIP3    H171158   4.601   1.545  12.736  0.0049  1.5606 -1.2462
16581TIP3    H271159   4.677   1.572  12.864 -0.9689 -1.4637  0.0750
16582TIP3   OH271160   3.537   6.271   4.021 -0.2448  0.0030  0.1133
16582TIP3    H171161   3.476   6.322   4.073 -1.3885 -0.3176 -0.8566
16582TIP3    H271162   3.534   6.183   4.060  0.2869  0.1993  0.6117
16583TIP3   OH271163   1.791   0.900   4.039 -0.2252  0.2038 -0.0061
16583TIP3    H171164   1.741   0.844   4.098  0.0535 -0.8666 -0.7528
16583TIP3    H271165   1.879   0.903   4.078 -0.0205 -0.5648 -0.3959
16584TIP3   OH271166   3.675   2.134   6.047  0.0881  0.5462  0.6312
16584TIP3    H171167   3.595   2.146   5.996 -1.6050  2.3724  3.4377
16584TIP3    H271168   3.662   2.050   6.091  0.6172 -0.0470 -0.3094
16585TIP3   OH271169   5.018   6.089  15.838 -0.3670 -0.0091  0.2484
16585TIP3    H171170   5.100   6.133  15.862 -0.4884  0.1992  0.2874
16585TIP3    H271171   4.990   6.134  15.758 -0.5533  0.0618  0.3544
16586TIP3   OH271172   5.972   3.161  11.767  0.2350 -0.1150 -0.1463
16586TIP3    H171173   5.994   3.074  11.736 -0.3055 -0.1317 -0.4938
16586TIP3    H271174   6.037   3.180  11.835 -1.6538 -2.2202  2.4872
16587TIP3   OH271175   3.225   3.047   1.974 -1.0422 -0.6021 -0.4952
16587TIP3    H171176   3.181   3.028   2.057 -1.9641  1.3072 -0.4863
16587TIP3    H271177   3.213   2.968   1.921 -2.3015 -1.0604  0.4401
16588TIP3   OH271178   5.643   1.294   3.170 -0.1902  0.2440 -0.3833
16588TIP3    H171179   5.596   1.213   3.190 -0.1793 -0.2547 -2.2440
16588TIP3    H271180   5.574   1.355   3.142 -0.3256  1.2463  1.8921
16589TIP3   OH271181   2.068   4.196  11.211  0.1519  0.2065  0.5752
16589TIP3    H171182   2.073   4.126  11.146 -1.1502 -0.5327  1.2291
16589TIP3    H271183   2.159   4.219  11.228  0.5526  0.7945 -1.8660
16590TIP3   OH271184   6.065   2.602   6.190 -0.3789 -0.3471 -0.1238
16590TIP3    H171185   6.064   2.555   6.274 -0.7128 -0.2437 -0.0715
16590TIP3    H271186   6.090   2.535   6.126  2.0851  0.0210  0.3334
16591TIP3   OH271187   5.522   1.434   4.340  0.2516 -0.6851  0.3141
16591TIP3    H171188   5.463   1.386   4.283  0.4840 -2.0324  1.1598
16591TIP3    H271189   5.590   1.372   4.363 -0.4329 -0.6099  2.9464
16592TIP3   OH271190   1.117   0.980   1.685  0.7458  0.1461  0.0261
16592TIP3    H171191   1.109   1.067   1.724  1.7917  0.4272 -0.3501
16592TIP3    H271192   1.110   0.996   1.591 -1.2806 -0.4668  0.0273
16593TIP3   OH271193   2.452   1.882   4.515  0.3059 -0.1473  0.5445
16593TIP3    H171194   2.373   1.935   4.520  0.1627  0.0564 -2.2328
16593TIP3    H271195   2.455   1.836   4.599 -1.2918  1.8058  1.7707
16594TIP3   OH271196   0.987   2.977  12.173  0.0117 -0.1272 -0.1183
16594TIP3    H171197   0.891   2.984  12.168  0.0301  0.1336 -0.1300
16594TIP3    H271198   1.017   3.068  12.181  0.2727 -0.1898 -0.3749
16595TIP3   OH271199   4.709   3.039   6.363 -0.0810  0.4277 -0.4896
16595TIP3    H171200   4.683   2.983   6.290  0.8764 -0.5027 -0.1315
16595TIP3    H271201   4.657   3.006   6.437  0.7054 -0.1960 -0.2092
16596TIP3   OH271202   6.594   2.544  12.892 -0.2059 -0.0703  0.4042
16596TIP3    H171203   6.547   2.538  12.809 -0.9887 -0.3853  0.8531
16596TIP3    H271204   6.681   2.577  12.869 -0.4268 -0.1199 -0.5281
16597TIP3   OH271205   1.139   4.804  16.486 -0.3704 -0.5499  0.0597
16597TIP3    H171206   1.134   4.750  16.565 -3.3511 -1.9159 -0.9423
16597TIP3    H271207   1.099   4.887  16.511 -0.7198 -0.7468  0.1496
16598TIP3   OH271208   4.073   0.690   6.416  0.1156  0.5191 -0.8423
16598TIP3    H171209   4.121   0.727   6.342 -0.2334  2.1254 -0.3027
16598TIP3    H271210   3.981   0.712   6.398 -0.1831 -0.6225 -0.7901
16599TIP3   OH271211   2.404   4.383  17.060  0.2329 -0.6494 -0.2197
16599TIP3    H171212   2.388   4.472  17.090 -0.5184 -0.3314 -1.4536
16599TIP3    H271213   2.318   4.340  17.067 -0.1342 -0.3793 -2.3612
16600TIP3   OH271214   1.071   2.971  12.495  0.2938 -0.0442 -0.2971
16600TIP3    H171215   1.137   2.973  12.425  1.4428 -1.0563  0.7308
16600TIP3    H271216   1.041   2.881  12.498 -2.1319  0.6246 -1.5819
16601TIP3   OH271217   3.388   2.180  11.778 -0.0223  0.1945  0.4052
16601TIP3    H171218   3.479   2.185  11.808  0.1367  2.8826 -0.3414
16601TIP3    H271219   3.393   2.133  11.694  0.3319 -1.6151  1.3805
16602TIP3   OH271220   2.642   5.940  13.387 -0.4181  0.1600  0.4521
16602TIP3    H171221   2.721   5.976  13.346  0.0210 -1.4492 -0.1930
16602TIP3    H271222   2.594   6.017  13.418 -0.6485  1.5067 -2.8197
16603TIP3   OH271223   5.125   0.557  16.060  0.5233  0.0598  0.6436
16603TIP3    H171224   5.129   0.607  15.979 -1.4297  2.4055  1.8440
16603TIP3    H271225   5.101   0.469  16.033 -2.8981  1.3661 -1.3088
16604TIP3   OH271226   2.842   3.641  16.912 -0.0890  0.1044  0.3463
16604TIP3    H171227   2.894   3.668  16.837  0.4697 -1.3921  0.1670
16604TIP3    H271228   2.905   3.633  16.984  0.0423 -2.0254  0.0502
16605TIP3   OH271229   4.929   1.254   6.375 -0.0884 -0.0296 -0.9886
16605TIP3    H171230   4.849   1.209   6.400  0.5562 -0.7535 -0.1919
16605TIP3    H271231   4.935   1.243   6.280  0.2169 -1.9256 -0.7792
16606TIP3   OH271232   6.198   4.975  12.661 -0.4053  0.3324  0.4557
16606TIP3    H171233   6.253   4.972  12.582 -1.0330 -1.1727  0.0396
16606TIP3    H271234   6.261   4.973  12.733  0.1232 -0.9178 -0.0111
16607TIP3   OH271235   4.548   4.166   1.878  0.0250  0.3318  0.0150
16607TIP3    H171236   4.623   4.210   1.837  1.1757 -1.8709 -0.4328
16607TIP3    H271237   4.579   4.143   1.966 -0.9329  1.3224  0.6303
16608TIP3   OH271238   0.577   6.444   0.112 -0.1585 -0.3770 -0.4227
16608TIP3    H171239   0.588   6.539   0.110 -0.0162 -0.3554  0.8978
16608TIP3    H271240   0.516   6.426   0.040  0.3305  0.6323 -1.1061
16609TIP3   OH271241   2.144   3.249  15.157 -0.5211 -0.6785  0.3779
16609TIP3    H171242   2.132   3.340  15.128  0.6112 -0.0665  1.6736
16609TIP3    H271243   2.217   3.217  15.104  1.7222  0.5233  2.4792
16610TIP3   OH271244   2.209   1.407   6.700 -0.5429 -0.1681  0.3267
16610TIP3    H171245   2.195   1.501   6.712 -0.4855  0.3262 -2.6085
16610TIP3    H271246   2.141   1.381   6.638 -1.4484 -2.4516  2.1459
16611TIP3   OH271247   1.546   5.500  14.009 -0.4177 -0.6690  0.5555
16611TIP3    H171248   1.611   5.570  14.011  0.5465 -1.5633  1.3287
16611TIP3    H271249   1.505   5.503  14.095 -0.6705 -0.7849  0.4390
16612TIP3   OH271250   6.457   2.908   2.729 -0.2493  0.6034 -0.3217
16612TIP3    H171251   6.393   2.935   2.796 -0.4519  0.9513 -0.6531
16612TIP3    H271252   6.413   2.840   2.679  0.6656 -1.2206  1.2274
16613TIP3   OH271253   2.356   2.780   4.793  0.3240  0.7255 -0.2297
16613TIP3    H171254   2.331   2.694   4.759 -3.1853  0.2451  2.9603
16613TIP3    H271255   2.305   2.842   4.740  0.8322  0.6639 -0.8047
16614TIP3   OH271256   5.275   1.889   2.652 -0.2105  0.3813 -0.4695
16614TIP3    H171257   5.284   1.844   2.568 -1.6987  1.2201 -1.1221
16614TIP3    H271258   5.362   1.923   2.671  0.3486 -0.5756 -1.2208
16615TIP3   OH271259   0.697   3.074  12.503 -0.0037  0.0071 -0.2077
16615TIP3    H171260   0.651   3.018  12.440 -0.6591  0.2896  0.0161
16615TIP3    H271261   0.711   3.157  12.456  1.4453 -0.5000 -0.7295
16616TIP3   OH271262   5.340   2.357   1.123 -0.4984  0.2855  0.4047
16616TIP3    H171263   5.269   2.300   1.094  0.1936 -0.5010  0.2073
16616TIP3    H271264   5.334   2.433   1.065 -0.5383 -0.2500 -0.3179
16617TIP3   OH271265   2.599   0.575   4.173  0.2325  0.0648  0.3748
16617TIP3    H171266   2.523   0.608   4.125 -1.4484 -1.9116  1.5098
16617TIP3    H271267   2.625   0.647   4.230  0.5157  1.4616 -1.4391
16618TIP3   OH271268   4.588   2.773   1.298 -0.2419  0.5630  0.4431
16618TIP3    H171269   4.570   2.837   1.228  0.9527  0.8201  0.3475
16618TIP3    H271270   4.684   2.764   1.297 -0.3349 -0.5494  1.0687
16619TIP3   OH271271   4.043   2.108  11.305 -0.1263 -0.1124  0.2445
16619TIP3    H171272   4.009   2.025  11.272 -1.6942  1.2573 -1.9124
16619TIP3    H271273   4.065   2.091  11.396 -0.2542 -2.9047 -0.1538
16620TIP3   OH271274   4.680   5.543  13.752 -0.4593  0.1152 -0.2507
16620TIP3    H171275   4.669   5.457  13.793 -0.4566 -0.0196 -0.5270
16620TIP3    H271276   4.652   5.530  13.661 -3.2412  1.1002  0.3768
16621TIP3   OH271277   2.314   4.860  11.821  0.3532  0.5146  0.7533
16621TIP3    H171278   2.294   4.829  11.910  1.4402 -0.1380  0.7865
16621TIP3    H271279   2.405   4.834  11.807  0.3352  1.0317 -0.3845
16622TIP3   OH271280   4.481   1.796   6.292  0.5566  0.7189 -0.5777
16622TIP3    H171281   4.472   1.891   6.292  0.6572  0.7279 -0.5179
16622TIP3    H271282   4.516   1.774   6.378 -2.7046  0.3298  0.8096
16623TIP3   OH271283   0.429   4.390  14.096  0.2001  0.6012 -0.2734
16623TIP3    H171284   0.411   4.396  14.002 -0.8675  1.5599 -0.0186
16623TIP3    H271285   0.518   4.425  14.105  0.3928  0.3128 -0.9319
16624TIP3   OH271286   1.064   6.466  13.945  0.8410  0.0581 -0.2667
16624TIP3    H171287   1.022   6.521  13.878  0.1754 -0.9457 -0.6972
16624TIP3    H271288   1.054   6.517  14.026 -0.1724  0.3847 -0.5716
16625TIP3   OH271289   5.582   0.787   0.776 -0.7097 -0.5454 -0.5149
16625TIP3    H171290   5.583   0.712   0.836  0.9233 -1.5216 -1.6706
16625TIP3    H271291   5.670   0.825   0.785 -0.6017 -0.4274 -1.9053
16626TIP3   OH271292   2.386   3.280   5.624 -0.1831  0.3271  0.3971
16626TIP3    H171293   2.437   3.315   5.551  0.1779 -1.1028 -0.0821
16626TIP3    H271294   2.385   3.350   5.689  1.3830  0.8425 -0.0833
16627TIP3   OH271295   1.345   0.845  10.469  0.1521  0.4561 -0.4195
16627TIP3    H171296   1.294   0.926  10.469 -0.9405 -0.1920  0.9803
16627TIP3    H271297   1.293   0.784  10.417  0.3656  0.2914 -0.4423
16628TIP3   OH271298   5.243   1.267   2.534  0.0507 -0.2609  0.5520
16628TIP3    H171299   5.306   1.338   2.543  0.1768 -0.4547  1.3245
16628TIP3    H271300   5.268   1.204   2.602 -0.3933 -0.7820  0.2426
16629TIP3   OH271301   1.888   3.972   4.396 -0.3971  0.5926 -0.5834
16629TIP3    H171302   1.978   3.962   4.427 -0.3294  0.6015 -0.7757
16629TIP3    H271303   1.837   3.908   4.446 -0.2400  0.4078 -0.6624
16630TIP3   OH271304   3.620   0.942  10.746 -0.1882 -0.3573 -0.5729
16630TIP3    H171305   3.558   1.001  10.788  0.6615  0.0543  0.1426
16630TIP3    H271306   3.565   0.878  10.700 -1.1492 -0.3540  0.5208
16631TIP3   OH271307   2.514   1.955   3.005  0.0576 -0.1141 -0.0724
16631TIP3    H171308   2.419   1.969   3.012 -0.2872 -2.1761  0.1236
16631TIP3    H271309   2.552   2.027   3.054 -1.3028  1.9676 -1.9209
16632TIP3   OH271310   1.780   6.555  13.665  0.6109 -0.0978  0.2390
16632TIP3    H171311   1.788   6.478  13.722 -0.6737 -0.0989  0.4522
16632TIP3    H271312   1.686   6.562  13.648  0.9434  0.0321 -1.7227
16633TIP3   OH271313   0.058   4.492   1.841 -0.0542  0.1872 -0.1338
16633TIP3    H171314   0.112   4.526   1.912 -0.8581  1.5956 -0.1693
16633TIP3    H271315   0.110   4.505   1.762 -0.2443  1.0863 -0.1131
16634TIP3   OH271316   5.073   6.150   0.821 -0.1489 -0.8116 -0.1409
16634TIP3    H171317   5.074   6.199   0.902 -0.0366  1.3475 -1.3825
16634TIP3    H271318   4.986   6.164   0.784  0.0416 -1.1761 -0.7517
16635TIP3   OH271319   0.365   2.771   1.151  0.2772 -0.2990  0.0769
16635TIP3    H171320   0.326   2.841   1.202 -0.4029  0.5148 -1.4823
16635TIP3    H271321   0.415   2.720   1.214  0.5931  1.4452  1.3015
16636TIP3   OH271322   4.807   0.394  12.449 -0.4839 -0.2037  0.3301
16636TIP3    H171323   4.799   0.464  12.515  0.7209  0.5327 -0.2739
16636TIP3    H271324   4.844   0.321  12.498  0.2362  0.2776  0.5228
16637TIP3   OH271325   1.929   1.314   0.918 -0.3099 -0.0326  0.1348
16637TIP3    H171326   1.988   1.284   0.987  0.0015  0.5724  0.1403
16637TIP3    H271327   1.956   1.404   0.901 -0.6296 -0.0554 -0.5186
16638TIP3   OH271328   1.425   2.482  13.266 -0.1013  0.3029  0.2144
16638TIP3    H171329   1.477   2.493  13.345 -1.1002 -1.5647  1.1994
16638TIP3    H271330   1.402   2.571  13.239  1.1925  1.0178  1.3544
16639TIP3   OH271331   1.288   5.932   3.344 -0.0600 -0.2729  0.0627
16639TIP3    H171332   1.214   5.918   3.403 -0.0814 -0.8234 -0.0892
16639TIP3    H271333   1.275   6.020   3.310 -0.2950 -0.1209  0.5300
16640TIP3   OH271334   4.326   4.031  14.421  0.9533 -0.3737 -0.1864
16640TIP3    H171335   4.383   3.977  14.476 -0.0022  0.1278  1.3520
16640TIP3    H271336   4.335   4.119  14.456 -0.5988 -0.2480 -0.0025
16641TIP3   OH271337   4.233   2.285   5.641 -0.1233  0.4484 -0.9147
16641TIP3    H171338   4.192   2.209   5.683 -1.1701  2.6965  2.6581
16641TIP3    H271339   4.160   2.338   5.612  0.4316  1.5224 -0.4156
16642TIP3   OH271340   0.413   5.256  13.960  0.0875 -0.5248 -0.6158
16642TIP3    H171341   0.490   5.224  13.913  0.5290  0.3928 -0.5346
16642TIP3    H271342   0.357   5.179  13.968  0.7850 -1.1014 -1.0861
16643TIP3   OH271343   6.033   2.072  12.473 -0.4939 -0.4178 -0.9592
16643TIP3    H171344   5.949   2.077  12.427 -0.3315  0.6828 -1.1379
16643TIP3    H271345   6.097   2.107  12.412 -0.2832  1.0875  0.0777
16644TIP3   OH271346   5.842   6.536   0.815  0.5141  0.6423 -0.5111
16644TIP3    H171347   5.818   6.468   0.752 -0.6089  0.3985  0.1671
16644TIP3    H271348   5.935   6.551   0.799  0.3859  0.1735 -1.8306
16645TIP3   OH271349   0.364   4.598   4.569 -0.4803 -0.0513  0.3682
16645TIP3    H171350   0.323   4.666   4.516  0.3745  0.4123  0.2944
16645TIP3    H271351   0.458   4.609   4.555 -0.2911 -0.6345  1.1069
16646TIP3   OH271352   3.717   3.215   4.336  0.0681 -0.6508  0.0316
16646TIP3    H171353   3.687   3.183   4.251 -0.6434  2.0635 -0.8433
16646TIP3    H271354   3.784   3.280   4.315  2.0047 -1.9549  1.7313
16647TIP3   OH271355   6.477   6.119   1.134 -0.3346 -0.3699  0.0586
16647TIP3    H171356   6.473   6.024   1.141 -0.6953 -0.4664 -1.1223
16647TIP3    H271357   6.570   6.139   1.134 -0.1835 -0.9146 -1.4586
16648TIP3   OH271358   3.249   6.456   6.913 -0.3232 -0.8664  0.0655
16648TIP3    H171359   3.225   6.549   6.919 -0.8253 -0.8844 -1.2389
16648TIP3    H271360   3.344   6.457   6.908 -0.3649 -0.2448 -1.6396
16649TIP3   OH271361   6.676   4.618  14.918 -0.2184 -0.5423  0.1337
16649TIP3    H171362   6.738   4.551  14.949 -0.8332 -0.6722  1.1324
16649TIP3    H271363   6.601   4.611  14.977 -0.5287  0.6636 -0.0770
16650TIP3   OH271364   1.167   5.954  16.556 -0.1890  0.3277 -0.1686
16650TIP3    H171365   1.250   5.917  16.529 -0.0691 -0.8627  1.6867
16650TIP3    H271366   1.131   5.891  16.618 -2.2207  1.0802 -0.4973
16651TIP3   OH271367   5.697   3.939   1.306 -0.7760 -0.0579  0.4089
16651TIP3    H171368   5.633   3.946   1.377  0.1363 -0.8031  1.3241
16651TIP3    H271369   5.780   3.922   1.349 -0.3048 -1.1947 -0.8562
16652TIP3   OH271370   2.516   0.374   4.378  0.1972 -0.5644 -0.1202
16652TIP3    H171371   2.498   0.320   4.300  0.7862 -1.2950  0.2349
16652TIP3    H271372   2.581   0.438   4.348 -0.1777 -0.3240 -0.4309
16653TIP3   OH271373   4.555   5.647  15.622  0.2123  0.6344 -0.1340
16653TIP3    H171374   4.644   5.652  15.655  0.0622  0.8991  0.2361
16653TIP3    H271375   4.503   5.698  15.684 -0.2776  0.0679 -0.0660
16654TIP3   OH271376   5.291   2.495   1.512  0.1543  0.0076  0.2986
16654TIP3    H171377   5.320   2.494   1.604  2.0727 -0.4469 -0.2610
16654TIP3    H271378   5.369   2.470   1.463 -0.4406  1.6043 -1.5754
16655TIP3   OH271379   3.221   0.651  13.905  0.4211 -0.3255  0.0582
16655TIP3    H171380   3.227   0.676  13.812  0.0328  0.5978  0.2711
16655TIP3    H271381   3.129   0.627  13.917  0.5872 -0.9714  0.0845
16656TIP3   OH271382   4.367   3.497  14.184 -0.1617  0.4274 -0.1614
16656TIP3    H171383   4.319   3.562  14.234  1.1413 -0.0046  1.7448
16656TIP3    H271384   4.437   3.547  14.141 -0.5433  0.6112 -0.5787
16657TIP3   OH271385   2.560   5.091   5.331 -0.7002 -0.0313 -0.0004
16657TIP3    H171386   2.485   5.079   5.273  0.7581 -0.4261 -1.8877
16657TIP3    H271387   2.620   5.148   5.282  0.7261 -0.6407  0.9618
16658TIP3   OH271388   0.390   4.296  11.617 -0.2870 -0.4367  0.2838
16658TIP3    H171389   0.302   4.330  11.603 -0.3624 -0.4782  0.6352
16658TIP3    H271390   0.438   4.317  11.537 -0.0209  1.4546  0.9036
16659TIP3   OH271391   0.307   0.112  15.654 -0.6788  0.5102  0.1260
16659TIP3    H171392   0.371   0.175  15.620  0.8838 -1.6960 -1.3244
16659TIP3    H271393   0.227   0.130  15.603 -0.3979  1.5284  0.0078
16660TIP3   OH271394   5.234   1.694   3.810  0.5670 -0.3343  0.7140
16660TIP3    H171395   5.311   1.646   3.841  0.2649 -0.0499  1.9551
16660TIP3    H271396   5.160   1.644   3.844  0.2423  1.2065  2.4461
16661TIP3   OH271397   4.634   0.834   4.906 -0.1351  0.3086  0.0196
16661TIP3    H171398   4.660   0.755   4.858  0.1168  0.4902 -0.1415
16661TIP3    H271399   4.663   0.818   4.996  1.9044  1.1327 -0.4405
16662TIP3   OH271400   0.937   3.644  16.388 -0.1696 -0.1676  0.1879
16662TIP3    H171401   0.971   3.718  16.437 -2.0229  0.6089  0.4037
16662TIP3    H271402   0.992   3.638  16.310  0.5696  0.8588  0.6193
16663TIP3   OH271403   1.531   3.688   1.850  0.5411  0.0983  0.3891
16663TIP3    H171404   1.517   3.636   1.930 -1.3663 -2.2345 -1.3065
16663TIP3    H271405   1.453   3.743   1.843  0.9824  0.7368  0.4062
16664TIP3   OH271406   3.146   3.985  15.744 -0.4258 -0.1600 -0.7410
16664TIP3    H171407   3.209   3.918  15.771 -1.6964 -0.1005  2.9430
16664TIP3    H271408   3.121   3.960  15.655  2.3922 -1.9674 -1.1632
16665TIP3   OH271409   1.731   0.248   3.272  0.4305 -0.8522  0.3483
16665TIP3    H171410   1.767   0.259   3.184  0.5038  0.2599  0.4973
16665TIP3    H271411   1.739   0.155   3.290  1.6863 -0.8889 -0.2916
16666TIP3   OH271412   2.455   5.892  13.651  0.5258 -0.8358  0.0867
16666TIP3    H171413   2.450   5.963  13.716 -0.3382  0.1149 -0.9821
16666TIP3    H271414   2.477   5.936  13.569  0.9386 -1.9419 -0.4103
16667TIP3   OH271415   6.567   2.054  13.639 -0.0901  0.8018 -0.2981
16667TIP3    H171416   6.500   2.027  13.575 -1.0994  0.7046  0.7729
16667TIP3    H271417   6.524   2.045  13.724  1.5006  0.1082  0.4770
16668TIP3   OH271418   0.141   5.185   3.316 -0.0970  0.4940  0.2159
16668TIP3    H171419   0.200   5.135   3.372  1.5293  1.1313 -0.8388
16668TIP3    H271420   0.199   5.242   3.265 -1.5817  0.6953 -1.3516
16669TIP3   OH271421   2.433   4.618  11.945 -0.1143  0.5718  0.1446
16669TIP3    H171422   2.493   4.595  11.874 -0.5813  0.2282 -0.1399
16669TIP3    H271423   2.444   4.547  12.009  0.0120  0.6734  0.2368
16670TIP3   OH271424   6.535   5.220  17.239  0.2066  0.2191 -0.7491
16670TIP3    H171425   6.484   5.154  17.285 -0.8717  1.1099 -0.6391
16670TIP3    H271426   6.604   5.244  17.302 -0.5439  0.5734 -0.0446
16671TIP3   OH271427   3.035   1.297  16.116  0.0732 -0.5162 -0.0140
16671TIP3    H171428   2.967   1.363  16.121  0.6826  0.1845 -0.7638
16671TIP3    H271429   2.993   1.217  16.148 -0.9179  0.0327  0.0948
16672TIP3   OH271430   1.476   4.091  17.084  0.6696  0.1080  0.0047
16672TIP3    H171431   1.552   4.046  17.046 -0.6311 -1.7806 -0.4954
16672TIP3    H271432   1.401   4.059  17.034 -0.9427 -1.1442  2.9562
16673TIP3   OH271433   1.584   5.567   3.669 -0.0573  0.2625 -0.2262
16673TIP3    H171434   1.495   5.545   3.696  0.0786  0.2813  0.2574
16673TIP3    H271435   1.573   5.641   3.609 -0.3282  0.7149  0.3641
16674TIP3   OH271436   5.011   3.254   2.651  0.5370 -0.4534  0.7777
16674TIP3    H171437   5.028   3.219   2.739  0.0306  0.3091  1.1948
16674TIP3    H271438   5.007   3.349   2.664 -1.1044 -0.4173  0.2198
16675TIP3   OH271439   4.099   4.596  12.779  0.3602  0.2312  0.0768
16675TIP3    H171440   4.166   4.576  12.845  1.3609  0.9849 -0.6736
16675TIP3    H271441   4.127   4.547  12.702  0.6164  1.3087 -0.5421
16676TIP3   OH271442   4.919   4.880  12.526 -0.4438 -0.2653 -0.2841
16676TIP3    H171443   4.891   4.967  12.556  1.3619 -0.1142  1.1416
16676TIP3    H271444   4.984   4.898  12.458  0.5311 -0.4656  0.5821
16677TIP3   OH271445   6.480   5.066   4.832 -0.4640 -0.7355 -0.4746
16677TIP3    H171446   6.482   4.981   4.789 -0.5838 -0.4884 -0.9762
16677TIP3    H271447   6.391   5.099   4.817 -0.2934 -0.3441 -0.6367
16678TIP3   OH271448   5.690   0.972   1.410  0.4916 -0.1381 -0.2385
16678TIP3    H171449   5.632   1.027   1.463  0.2398 -0.1448 -0.5025
16678TIP3    H271450   5.669   0.996   1.319 -0.1090 -1.1434 -0.3811
16679TIP3   OH271451   1.663   1.560   1.300 -0.3286 -0.0302 -0.1143
16679TIP3    H171452   1.607   1.606   1.362 -1.4180 -0.9777 -0.3661
16679TIP3    H271453   1.612   1.484   1.273  1.0753 -0.9187 -0.3658
16680TIP3   OH271454   6.105   0.177  15.711  0.0689  0.4199  0.4785
16680TIP3    H171455   6.159   0.172  15.790 -0.2828  1.5548  0.8114
16680TIP3    H271456   6.152   0.236  15.653  0.2885 -0.3505 -0.1500
16681TIP3   OH271457   6.556   3.965   2.970 -0.5195 -0.2018 -0.6272
16681TIP3    H171458   6.556   3.912   3.050  3.9425  1.6634  0.9401
16681TIP3    H271459   6.529   4.052   3.000  2.5825  0.8828 -0.6144
16682TIP3   OH271460   0.278   3.983  11.564 -0.2430 -0.0058  0.2331
16682TIP3    H171461   0.194   3.971  11.607 -0.2576 -1.1443 -0.0800
16682TIP3    H271462   0.325   4.046  11.620 -0.8028 -0.3486  1.1084
16683TIP3   OH271463   5.785   1.494   2.515 -0.5163 -0.2523 -0.2811
16683TIP3    H171464   5.833   1.502   2.597 -0.2740  0.8680 -0.5240
16683TIP3    H271465   5.848   1.517   2.447 -0.8801 -0.5991 -0.7473
16684TIP3   OH271466   5.713   2.644  10.713  0.0914 -0.1667 -0.0107
16684TIP3    H171467   5.668   2.653  10.629  0.7541 -0.3812 -0.3973
16684TIP3    H271468   5.651   2.596  10.768  0.0551 -0.9392 -0.7018
16685TIP3   OH271469   4.219   5.300  16.821  0.6118  0.0596  0.2710
16685TIP3    H171470   4.188   5.389  16.801 -0.6742 -0.6925 -1.2900
16685TIP3    H271471   4.314   5.308  16.828  0.6539  1.3301 -1.2264
16686TIP3   OH271472   4.324   4.476  11.567 -0.6194  0.0359  0.5482
16686TIP3    H171473   4.404   4.523  11.592 -0.1024  0.3901 -1.5528
16686TIP3    H271474   4.305   4.509  11.479 -2.1758 -1.2462  0.3789
16687TIP3   OH271475   3.206   5.151  11.246  0.1561 -0.0599 -0.1483
16687TIP3    H171476   3.295   5.119  11.232  0.4215  0.0113  1.1863
16687TIP3    H271477   3.217   5.224  11.308 -1.0152 -1.4540  1.7997
16688TIP3   OH271478   2.189   2.304   3.619  0.4977 -0.3555 -0.0817
16688TIP3    H171479   2.098   2.284   3.596  0.7901 -0.9877 -0.6822
16688TIP3    H271480   2.185   2.393   3.655 -0.4233 -0.5377  0.2971
16689TIP3   OH271481   3.115   1.824  16.669  0.1551 -0.0427  0.5387
16689TIP3    H171482   3.195   1.801  16.622 -0.7078  0.8565 -1.4432
16689TIP3    H271483   3.072   1.740  16.685  0.3444 -0.3570 -0.5286
16690TIP3   OH271484   4.954   1.169   0.257 -0.2023  0.3918  0.0249
16690TIP3    H171485   5.002   1.241   0.217 -0.2574 -0.4234 -1.5881
16690TIP3    H271486   4.863   1.199   0.258 -0.5167 -0.2843 -2.3170
16691TIP3   OH271487   2.750   1.000  16.955 -0.0916  0.3721 -0.3608
16691TIP3    H171488   2.802   1.037  17.027 -0.3082 -1.0364  0.5530
16691TIP3    H271489   2.815   0.963  16.895  0.0419  0.5057 -0.2999
16692TIP3   OH271490   4.228   0.087  15.836  0.2041 -0.4285 -0.3153
16692TIP3    H171491   4.227   0.106  15.742 -1.9295  0.6394 -0.1244
16692TIP3    H271492   4.232  -0.009  15.841 -1.6118 -0.6198 -1.5595
16693TIP3   OH271493   4.258   6.011  10.772 -0.4079 -0.1982 -0.0846
16693TIP3    H171494   4.273   6.104  10.755 -0.8915  0.1961  1.5112
16693TIP3    H271495   4.309   5.992  10.850 -2.0585 -0.7045  0.9152
16694TIP3   OH271496   3.034   0.066   5.571 -0.0848 -0.0474  0.0072
16694TIP3    H171497   3.032   0.072   5.475 -0.6579  0.7741  0.0618
16694TIP3    H271498   3.068  -0.022   5.589 -1.3870 -0.7907 -0.9686
16695TIP3   OH271499   0.889   5.298   3.781  0.2466 -0.8395  0.0046
16695TIP3    H171500   0.835   5.245   3.840 -0.6694 -0.2328 -0.2674
16695TIP3    H271501   0.849   5.285   3.695 -1.2196  1.7644  0.1904
16696TIP3   OH271502   5.925   3.350   4.293 -0.0753  0.0210  0.2174
16696TIP3    H171503   5.974   3.333   4.373 -0.8616 -0.9651  0.5061
16696TIP3    H271504   5.840   3.382   4.322  0.5252  2.2621 -0.2900
16697TIP3   OH271505   5.315   3.219  12.188  0.3934 -0.3858  0.6821
16697TIP3    H171506   5.351   3.142  12.231 -0.6956 -0.6077  1.2564
16697TIP3    H271507   5.342   3.292  12.243  1.2252 -0.3693  0.2676
16698TIP3   OH271508   3.555   5.866   4.546 -0.0757  0.2993 -0.1726
16698TIP3    H171509   3.625   5.928   4.528 -0.4080  0.5085 -0.7540
16698TIP3    H271510   3.589   5.811   4.617 -0.1094  1.6916  0.9682
16699TIP3   OH271511   6.242   4.792  16.209  0.4496 -0.4464  0.3345
16699TIP3    H171512   6.206   4.724  16.265  2.3478 -1.7415  0.0892
16699TIP3    H271513   6.272   4.745  16.131  1.4646  0.7148 -0.0122
16700TIP3   OH271514   1.050   1.778   3.097  0.2444 -0.6912  0.0983
16700TIP3    H171515   1.047   1.821   3.011  2.3443  0.0324  0.3291
16700TIP3    H271516   1.022   1.688   3.079 -0.2464 -0.3082 -1.1679
16701TIP3   OH271517   4.119   3.748  15.181  0.0321 -0.6630  0.2390
16701TIP3    H171518   4.067   3.717  15.255 -0.3475 -0.4129  0.0808
16701TIP3    H271519   4.202   3.776  15.219  0.1312 -1.2616  0.4662
16702TIP3   OH271520   6.354   2.256  15.317 -0.6112  0.5454  0.5906
16702TIP3    H171521   6.447   2.257  15.342  0.0341  1.4872 -1.6282
16702TIP3    H271522   6.308   2.283  15.396  0.9526 -0.3619  1.8705
16703TIP3   OH271523   2.183   0.841   5.936 -0.0173  0.1870 -0.2052
16703TIP3    H171524   2.176   0.764   5.992  0.5970 -0.6170 -1.1921
16703TIP3    H271525   2.262   0.886   5.966  0.5597 -0.4804 -0.6878
16704TIP3   OH271526   3.953   5.947   4.019 -0.1417 -0.5311 -0.1049
16704TIP3    H171527   3.872   5.946   3.968  0.0072 -2.8007 -0.3884
16704TIP3    H271528   3.925   5.934   4.109 -0.3610  2.9437  0.4377
16705TIP3   OH271529   4.833   6.095  14.314  0.0454  0.8736  0.4380
16705TIP3    H171530   4.832   6.125  14.405 -1.3500 -0.7391  1.0107
16705TIP3    H271531   4.899   6.026  14.312  0.6522  1.4543  0.0123
16706TIP3   OH271532   0.866   1.779   2.373 -0.0172  0.0100 -0.3938
16706TIP3    H171533   0.776   1.813   2.379 -0.6026 -0.9939 -2.5188
16706TIP3    H271534   0.915   1.830   2.438 -2.0889  0.6429  0.7838
16707TIP3   OH271535   5.635   0.834  10.388  0.3747  0.4501 -0.0716
16707TIP3    H171536   5.706   0.772  10.407 -1.3115 -1.3731  0.7236
16707TIP3    H271537   5.662   0.878  10.308  0.9148 -2.6465 -1.7436
16708TIP3   OH271538   3.029   5.215   1.124 -0.3718  0.1971  0.5401
16708TIP3    H171539   2.938   5.239   1.109 -0.4630 -0.1309  0.5566
16708TIP3    H271540   3.025   5.130   1.167 -0.0445 -0.0804  0.0311
16709TIP3   OH271541   1.338   2.681   4.396 -0.2465 -0.1147  1.0598
16709TIP3    H171542   1.383   2.765   4.402  0.7779 -0.6330  0.7911
16709TIP3    H271543   1.297   2.669   4.482 -0.7919  0.8550  0.9526
16710TIP3   OH271544   3.427   1.442  11.468  0.6200 -0.1434  0.3623
16710TIP3    H171545   3.486   1.515  11.485 -0.6421  0.3885  2.8239
16710TIP3    H271546   3.425   1.435  11.373  0.8528  2.9742  0.0279
16711TIP3   OH271547   2.011   2.591   6.486 -0.5645  0.0518 -0.2700
16711TIP3    H171548   2.072   2.544   6.543 -0.4856 -0.0366 -0.4246
16711TIP3    H271549   1.948   2.524   6.458 -0.7784  0.1595 -0.0483
16712TIP3   OH271550   4.306   3.588   0.121 -0.2012  0.4501 -0.1707
16712TIP3    H171551   4.248   3.587   0.045 -1.6023  0.5431  0.8482
16712TIP3    H271552   4.255   3.632   0.189  0.3502 -1.1336  1.3286
16713TIP3   OH271553   6.154   6.573   4.892  1.0001  0.0651 -0.4269
16713TIP3    H171554   6.120   6.517   4.962 -0.7981  1.5442 -0.0572
16713TIP3    H271555   6.242   6.598   4.922  1.0177 -0.8735  0.3677
16714TIP3   OH271556   1.956   0.406   2.373 -0.5751 -0.0523  0.2826
16714TIP3    H171557   1.860   0.404   2.381 -0.4237 -1.6113  2.9295
16714TIP3    H271558   1.985   0.449   2.454  1.0016 -0.6553  0.0578
16715TIP3   OH271559   4.570   4.393   0.851  0.1977  0.0586 -0.2529
16715TIP3    H171560   4.587   4.310   0.808 -0.3921  0.3833 -1.1318
16715TIP3    H271561   4.651   4.443   0.839 -0.6302  0.9444 -2.9144
16716TIP3   OH271562   3.200   3.045   0.101  0.2262  0.0711 -0.3237
16716TIP3    H171563   3.134   3.041   0.031  0.8031  0.2146 -0.8857
16716TIP3    H271564   3.267   3.104   0.067  1.1903 -0.9484 -0.2192
16717TIP3   OH271565   1.133   6.183  14.482  0.6049  0.0136 -0.7935
16717TIP3    H171566   1.140   6.088  14.494  0.2309  0.0954  0.1694
16717TIP3    H271567   1.048   6.206  14.522  0.8383  0.7910 -0.7319
16718TIP3   OH271568   1.216   1.596  15.053  0.3885 -0.9423 -0.4508
16718TIP3    H171569   1.209   1.602  15.148  2.6496  0.0226 -0.2758
16718TIP3    H271570   1.130   1.626  15.021  0.5334  1.6731  1.2690
16719TIP3   OH271571   0.624   5.985  15.328  0.3669  0.0898 -0.1844
16719TIP3    H171572   0.668   5.978  15.413  3.1735  1.0989 -1.4287
16719TIP3    H271573   0.579   5.901  15.318 -1.2836  0.4572  2.8543
16720TIP3   OH271574   6.307   5.045  13.855 -0.2849  0.3357 -0.6332
16720TIP3    H171575   6.233   5.091  13.816  0.7563  0.3530 -2.7185
16720TIP3    H271576   6.303   4.957  13.817 -1.0787 -0.7537  1.7634
16721TIP3   OH271577   4.983   1.056  15.561  0.0484 -0.3052 -0.7123
16721TIP3    H171578   4.932   1.045  15.641  1.5262 -1.1248  0.1622
16721TIP3    H271579   5.056   1.111  15.586  1.3515 -1.7990 -1.0919
16722TIP3   OH271580   3.508   4.522  14.895 -0.2512 -0.5439  0.6452
16722TIP3    H171581   3.479   4.432  14.906  1.9523 -1.6708 -1.6162
16722TIP3    H271582   3.444   4.561  14.835 -2.6810  0.3680  3.5635
16723TIP3   OH271583   0.499   0.408  15.272  0.3483 -0.8304 -0.4304
16723TIP3    H171584   0.460   0.430  15.187  1.2810  0.1157 -0.6327
16723TIP3    H271585   0.564   0.340  15.251  1.4374  0.2588 -0.6847
16724TIP3   OH271586   0.187   2.919   2.953  0.0532  0.2988  0.0421
16724TIP3    H171587   0.116   2.888   2.896 -1.6661 -0.2793  2.3280
16724TIP3    H271588   0.251   2.848   2.951 -0.6184 -0.3178 -0.1043
16725TIP3   OH271589   2.816   1.910  14.061 -0.3388 -0.0899  0.0762
16725TIP3    H171590   2.879   1.916  13.989  0.8315  0.1718  1.0885
16725TIP3    H271591   2.767   1.992  14.057 -1.6205 -0.8606 -1.5627
16726TIP3   OH271592   1.077   1.771   2.799  0.3931  0.3404  0.3699
16726TIP3    H171593   1.062   1.732   2.713 -1.1130  0.1391  0.6986
16726TIP3    H271594   1.010   1.840   2.806  1.1003  0.9763  1.0070
16727TIP3   OH271595   4.621   6.096   2.543  0.1725 -0.7396 -0.1903
16727TIP3    H171596   4.591   6.162   2.606 -0.6072 -0.8853 -0.3959
16727TIP3    H271597   4.645   6.146   2.466  1.6319 -0.5113  0.3855
16728TIP3   OH271598   4.076   3.897   3.694  0.3567  0.6338  0.5171
16728TIP3    H171599   4.142   3.907   3.626  0.8592  0.8571  1.0263
16728TIP3    H271600   4.125   3.899   3.776  0.0967 -2.0860  0.8576
16729TIP3   OH271601   4.041   3.724   1.873 -0.4015  0.2841  0.5920
16729TIP3    H171602   3.949   3.718   1.848 -0.5843 -0.0470  1.3180
16729TIP3    H271603   4.067   3.633   1.888  0.0421  0.3764  0.4016
16730TIP3   OH271604   4.781   2.002   5.560 -0.3101 -0.0734 -0.1918
16730TIP3    H171605   4.777   2.015   5.465  1.4885  1.6211 -0.1150
16730TIP3    H271606   4.868   1.964   5.574  0.2223  1.4312  0.8706
16731TIP3   OH271607   2.716   6.445  14.169  0.1435 -0.1490  0.2812
16731TIP3    H171608   2.758   6.526  14.140  0.0290  0.5579  2.0137
16731TIP3    H271609   2.785   6.378  14.162  0.7146  0.4228  0.4051
16732TIP3   OH271610   4.043   2.306   1.414 -1.0224  0.1717  0.1562
16732TIP3    H171611   4.096   2.256   1.352 -0.3425  1.2566 -0.1567
16732TIP3    H271612   4.045   2.254   1.494 -0.6122 -0.4660 -0.2568
16733TIP3   OH271613   2.429   1.267   2.931 -0.2010  0.0184 -0.1770
16733TIP3    H171614   2.379   1.191   2.900 -0.3718 -1.0728  2.4331
16733TIP3    H271615   2.391   1.286   3.017  0.1812  2.7957 -0.5326
16734TIP3   OH271616   2.870   3.354  16.789  0.3208 -0.5729  0.0859
16734TIP3    H171617   2.943   3.390  16.839  0.3483 -1.9080  1.0686
16734TIP3    H271618   2.836   3.428  16.739  1.2164  0.4734  0.9753
16735TIP3   OH271619   0.936   5.374   5.671 -0.1176  0.1827  0.2122
16735TIP3    H171620   0.850   5.414   5.658 -0.1320 -0.3679 -1.6430
16735TIP3    H271621   0.917   5.281   5.683  0.2747 -0.1218 -1.3994
16736TIP3   OH271622   1.644   3.415  11.346  0.7084  0.1438 -0.9981
16736TIP3    H171623   1.734   3.436  11.369  1.2023 -1.8541 -0.9003
16736TIP3    H271624   1.594   3.493  11.369  2.0599  0.4390  1.1903
16737TIP3   OH271625   4.511   1.956   3.572 -0.1038 -1.0748  0.3034
16737TIP3    H171626   4.570   2.011   3.624 -1.0385 -0.1671  0.4571
16737TIP3    H271627   4.562   1.879   3.550  1.3950  0.0321 -0.2479
16738TIP3   OH271628   2.614   0.244  15.075  0.2333 -0.2442  0.0830
16738TIP3    H171629   2.594   0.212  15.163 -1.7923 -1.4016 -0.7329
16738TIP3    H271630   2.672   0.178  15.038  0.4885 -0.1401  0.3005
16739TIP3   OH271631   3.112   3.574  15.691  0.3131 -0.0742 -0.4989
16739TIP3    H171632   3.208   3.573  15.692  0.3400 -0.9084  1.8145
16739TIP3    H271633   3.087   3.625  15.768 -1.1053 -0.2073 -0.8410
16740TIP3   OH271634   4.060   5.938  14.477 -0.1377 -0.2022 -0.0644
16740TIP3    H171635   4.089   5.966  14.390  2.0812 -0.3648  0.5656
16740TIP3    H271636   3.973   5.977  14.487  0.5616  1.8600 -1.3982
16741TIP3   OH271637   0.694   5.464   2.889 -0.4684  0.1151 -0.4032
16741TIP3    H171638   0.744   5.541   2.863 -0.6609  0.9501  1.4931
16741TIP3    H271639   0.752   5.390   2.870 -0.1170  0.7360 -1.8762
16742TIP3   OH271640   5.887   5.294   2.126  0.3261 -0.6020  0.5172
16742TIP3    H171641   5.811   5.276   2.181  0.5809  1.6352  1.7257
16742TIP3    H271642   5.940   5.356   2.176  0.9071  1.0550 -1.9084
16743TIP3   OH271643   5.163   3.250  13.640  0.3019  0.4317 -0.0198
16743TIP3    H171644   5.151   3.242  13.545 -1.3352  0.1699  0.1817
16743TIP3    H271645   5.089   3.202  13.677  0.2098  1.6073  1.3824
16744TIP3   OH271646   6.322   4.894   6.046 -0.0539  0.0208  0.1355
16744TIP3    H171647   6.372   4.960   6.094 -1.0992  1.7345 -1.0091
16744TIP3    H271648   6.303   4.826   6.111 -1.1255  2.0689  2.1173
16745TIP3   OH271649   2.236   1.858   4.311 -0.3827 -0.9505 -0.0220
16745TIP3    H171650   2.271   1.782   4.358  1.0319 -0.1125  0.3572
16745TIP3    H271651   2.150   1.874   4.351  0.5979 -0.5161  2.0605
16746TIP3   OH271652   2.836   0.791   3.341  0.3861  0.7458 -1.2016
16746TIP3    H171653   2.795   0.834   3.416 -0.3155 -0.2008 -1.0247
16746TIP3    H271654   2.774   0.723   3.315  2.1408 -1.2719 -0.4452
16747TIP3   OH271655   0.812   1.824  14.280 -0.4434 -0.5735 -0.1096
16747TIP3    H171656   0.857   1.814  14.196 -1.0732 -0.8894 -0.4168
16747TIP3    H271657   0.866   1.886  14.329 -0.4701  0.2047 -1.0383
16748TIP3   OH271658   2.296   5.865   6.205 -0.0864 -0.2002 -0.0498
16748TIP3    H171659   2.366   5.886   6.267  0.0208 -0.8697  0.0572
16748TIP3    H271660   2.268   5.777   6.228 -0.6944 -0.0934 -0.3526
16749TIP3   OH271661   4.362   2.193   5.427  0.1379 -0.7523  0.1281
16749TIP3    H171662   4.365   2.264   5.492  0.9611  0.9517 -1.6592
16749TIP3    H271663   4.271   2.189   5.399 -0.0546 -0.9131  0.7715
16750TIP3   OH271664   2.659   5.611   3.923 -0.4898 -0.4527  0.3481
16750TIP3    H171665   2.687   5.613   3.832  1.5795  1.0364  0.9367
16750TIP3    H271666   2.677   5.522   3.953  2.8070  0.0915  0.3469
16751TIP3   OH271667   4.777   4.195  11.210  0.4045 -0.0491  0.2717
16751TIP3    H171668   4.846   4.146  11.254  1.2620 -0.6192 -1.5864
16751TIP3    H271669   4.823   4.262  11.160 -0.5660  0.8892  0.5825
16752TIP3   OH271670   0.780   3.060  11.966  0.0251 -0.0082 -0.6418
16752TIP3    H171671   0.862   3.107  11.952  0.1382 -0.0134 -0.0138
16752TIP3    H271672   0.715   3.111  11.917 -0.3155  2.2053  1.8599
16753TIP3   OH271673   1.909   2.314   2.653 -0.1623  0.2079  0.0150
16753TIP3    H171674   1.818   2.333   2.675 -0.1565  1.9499 -1.2343
16753TIP3    H271675   1.954   2.311   2.737 -1.1064  0.9051  0.5732
16754TIP3   OH271676   5.141   4.970  11.557 -0.1000 -0.4116  0.3999
16754TIP3    H171677   5.074   4.969  11.625 -1.7708  0.3892 -1.1224
16754TIP3    H271678   5.107   4.910  11.490  0.6888  0.0191 -0.4064
16755TIP3   OH271679   2.758   5.237  14.453  0.2588  0.5468  0.0075
16755TIP3    H171680   2.740   5.172  14.521  0.0997  0.8983  0.3084
16755TIP3    H271681   2.711   5.315  14.482 -0.9126  0.3060 -1.1896
16756TIP3   OH271682   4.669   1.937   0.858 -0.1954  0.4793  0.3323
16756TIP3    H171683   4.587   1.895   0.884 -0.7058  1.4612  0.3877
16756TIP3    H271684   4.718   1.947   0.940 -1.0388  1.9745  0.6884
16757TIP3   OH271685   2.020   3.043  15.881  0.2948 -0.1830 -0.0783
16757TIP3    H171686   1.961   3.067  15.953  0.1023  1.1735 -0.6439
16757TIP3    H271687   2.032   2.949  15.890 -0.9932 -0.2958  0.7869
16758TIP3   OH271688   6.239   1.464  13.298  0.2876  0.3411  0.2004
16758TIP3    H171689   6.257   1.385  13.247 -0.5163  0.0999  0.2728
16758TIP3    H271690   6.147   1.483  13.280  0.9013  2.3217 -1.2885
16759TIP3   OH271691   6.369   4.089  12.250  0.1615  0.3966 -0.2407
16759TIP3    H171692   6.285   4.043  12.257  1.0357 -1.0664  1.6240
16759TIP3    H271693   6.401   4.067  12.162 -0.1135 -1.4617  0.0850
16760TIP3   OH271694   2.726   4.244  14.402  0.3188  0.4167 -0.2110
16760TIP3    H171695   2.775   4.165  14.381  1.7132  1.3693 -0.7134
16760TIP3    H271696   2.793   4.308  14.428 -0.8913  0.9354  1.9482
16761TIP3   OH271697   1.961   0.819   2.543  0.0404  0.5868  0.0931
16761TIP3    H171698   2.013   0.871   2.604  0.5702  1.4632 -1.0673
16761TIP3    H271699   2.014   0.817   2.463  0.5562 -2.6250  0.3843
16762TIP3   OH271700   6.082   6.321  16.637 -0.1884  0.0131 -0.0556
16762TIP3    H171701   6.158   6.269  16.612 -0.8541 -1.4134  0.7942
16762TIP3    H271702   6.016   6.300  16.570 -0.6835 -0.7860  0.6715
16763TIP3   OH271703   3.159   0.095  16.636 -0.0459 -0.1506  0.2974
16763TIP3    H171704   3.069   0.100  16.667 -0.2954 -2.0537 -0.0270
16763TIP3    H271705   3.212   0.095  16.716 -0.4902 -1.6037  0.6123
16764TIP3   OH271706   0.745   2.373   0.924  0.3289 -0.3944 -0.2665
16764TIP3    H171707   0.826   2.324   0.910 -0.5181 -1.9390  0.0366
16764TIP3    H271708   0.739   2.431   0.847  2.3719  0.7524  0.3723
16765TIP3   OH271709   6.372   1.372  12.076 -0.5459  0.4164  0.1561
16765TIP3    H171710   6.310   1.392  12.146 -0.9036  2.3162 -0.6394
16765TIP3    H271711   6.418   1.455  12.061  0.8294 -0.4473 -0.6029
16766TIP3   OH271712   4.132   5.557   0.568 -0.2258 -0.2277  0.4100
16766TIP3    H171713   4.043   5.584   0.548 -0.9434 -1.4452  1.7792
16766TIP3    H271714   4.129   5.461   0.568  1.3869 -0.3191 -0.7466
16767TIP3   OH271715   3.184   2.789  16.376 -0.2692 -0.4696  0.2592
16767TIP3    H171716   3.096   2.825  16.385  0.3197  0.8267  1.0408
16767TIP3    H271717   3.171   2.707  16.328 -1.9804 -0.7086  1.0665
16768TIP3   OH271718   2.316   6.701  14.368 -0.2571 -0.2162  0.0650
16768TIP3    H171719   2.380   6.635  14.341 -0.2611 -0.0733 -0.2937
16768TIP3    H271720   2.250   6.652  14.418 -1.2338 -0.8098 -1.7159
16769TIP3   OH271721   3.958   5.539  16.970  0.5213  0.4561  0.1217
16769TIP3    H171722   3.876   5.529  17.018  0.4234 -0.7110 -0.2653
16769TIP3    H271723   3.937   5.510  16.881  1.0134  1.4332 -0.3338
16770TIP3   OH271724   3.639   6.220   5.669  0.1239 -0.7355 -0.2567
16770TIP3    H171725   3.580   6.147   5.685 -1.3071 -0.2771 -2.8633
16770TIP3    H271726   3.655   6.218   5.575  1.1668  1.4707 -0.1907
16771TIP3   OH271727   1.216   3.365  13.977  0.4319  0.2070 -0.1035
16771TIP3    H171728   1.191   3.456  13.997 -1.7518  0.0022 -1.5294
16771TIP3    H271729   1.192   3.354  13.885  1.3303 -1.6296 -0.1547
16772TIP3   OH271730   0.765   6.144   0.140  0.2844  0.1444  0.1118
16772TIP3    H171731   0.830   6.106   0.199 -1.1483 -2.4838  0.1843
16772TIP3    H271732   0.727   6.068   0.095 -1.0014  1.7865 -1.7335
16773TIP3   OH271733   3.704   3.476   3.630 -0.7123 -0.5562 -0.6669
16773TIP3    H171734   3.701   3.381   3.638  0.3408 -0.4611  1.7381
16773TIP3    H271735   3.786   3.493   3.584 -0.5697 -0.7941 -0.5036
16774TIP3   OH271736   0.054   6.465  15.801 -0.0564 -0.5238 -0.1592
16774TIP3    H171737   0.040   6.382  15.756 -1.0235  0.5521 -1.9609
16774TIP3    H271738   0.142   6.492  15.774 -0.2458 -0.3657 -0.6398
16775TIP3   OH271739   4.394   2.375   6.170  1.2285  0.1413 -0.1051
16775TIP3    H171740   4.358   2.426   6.242  0.8704 -1.6408  1.0362
16775TIP3    H271741   4.421   2.440   6.106  0.3881  1.7278  1.0839
16776TIP3   OH271742   1.000   5.959   4.618  0.0501 -0.2582  0.0930
16776TIP3    H171743   0.988   5.997   4.531 -2.7907  0.0249  0.5161
16776TIP3    H271744   1.071   6.009   4.657 -0.1790  1.1720 -1.2251
16777TIP3   OH271745   4.016   6.264   3.228  0.5514  0.5541  0.1435
16777TIP3    H171746   3.926   6.238   3.248  0.4326  0.1210 -0.8665
16777TIP3    H271747   4.022   6.354   3.261 -0.6606  1.0504 -0.8681
16778TIP3   OH271748   5.162   2.766  12.408 -0.4926  0.3823 -0.2217
16778TIP3    H171749   5.151   2.723  12.493  1.0673  0.3306 -0.0176
16778TIP3    H271750   5.185   2.696  12.348 -0.5614  0.5593 -0.4549
16779TIP3   OH271751   4.426   1.443  16.430  0.1030  0.0457  0.6007
16779TIP3    H171752   4.384   1.503  16.369  1.4219  0.3478 -0.0369
16779TIP3    H271753   4.473   1.381  16.375 -1.0006 -1.4335  1.2606
16780TIP3   OH271754   6.532   1.369   0.672  0.1231  0.1623 -0.1810
16780TIP3    H171755   6.497   1.319   0.746 -0.4700  0.8849  0.0457
16780TIP3    H271756   6.466   1.359   0.603  0.4326 -0.0986 -0.4424
16781TIP3   OH271757   6.406   5.869  17.088 -0.1236  0.6080  0.6639
16781TIP3    H171758   6.381   5.780  17.114 -1.7291  0.7126 -0.4232
16781TIP3    H271759   6.461   5.900  17.160 -1.0031 -0.6216  1.9148
16782TIP3   OH271760   6.560   1.674   2.756  0.1991  0.0980  0.1786
16782TIP3    H171761   6.640   1.623   2.741 -1.0728 -2.1914  0.7206
16782TIP3    H271762   6.512   1.624   2.822 -0.8693  2.3918  1.2595
16783TIP3   OH271763   3.013   2.804   4.694  0.3015 -0.1248  0.9225
16783TIP3    H171764   3.027   2.754   4.774 -0.6813 -1.9518  0.0204
16783TIP3    H271765   3.062   2.756   4.627 -1.5034 -0.5441 -0.1741
16784TIP3   OH271766   4.026   0.723   0.920  0.2658  0.1769  0.1696
16784TIP3    H171767   4.081   0.717   0.998  1.2777  0.0982 -0.5249
16784TIP3    H271768   3.936   0.718   0.953  0.6672  0.4636  1.3465
16785TIP3   OH271769   0.009   3.804   1.680 -0.0294 -0.1274 -0.2332
16785TIP3    H171770  -0.055   3.808   1.609  0.8032  0.3464 -0.9689
16785TIP3    H271771   0.055   3.721   1.666  1.4377  0.8528 -1.4118
16786TIP3   OH271772   4.929   5.228  15.413  0.6399 -0.0131  0.6330
16786TIP3    H171773   5.001   5.235  15.475 -1.3765  1.2667  3.0478
16786TIP3    H271774   4.895   5.139  15.425  0.5073  0.0974  1.0843
16787TIP3   OH271775   1.569   1.621   2.876 -0.4554  0.0839  0.5165
16787TIP3    H171776   1.504   1.649   2.941 -2.5123  0.4585 -1.5769
16787TIP3    H271777   1.553   1.527   2.866  0.4394 -0.1457  1.1332
16788TIP3   OH271778   0.202   4.207   4.939 -0.5734 -0.2044  0.4153
16788TIP3    H171779   0.138   4.137   4.923  0.0441 -0.7078  0.1064
16788TIP3    H271780   0.272   4.190   4.876 -0.5268  0.8386  0.1658
16789TIP3   OH271781   4.716   0.931  14.910  0.4564  0.2743  0.1194
16789TIP3    H171782   4.665   1.001  14.951 -0.0393  0.3452 -0.5919
16789TIP3    H271783   4.670   0.851  14.935 -1.3495  0.4461 -2.2390
16790TIP3   OH271784   0.363   6.579   0.362  0.2383 -0.3951 -0.3187
16790TIP3    H171785   0.366   6.623   0.277 -1.0260  1.4214  0.4814
16790TIP3    H271786   0.279   6.607   0.400  0.4306 -1.7462  1.2221
16791TIP3   OH271787   3.069   1.218  15.574  0.0541  0.6361  0.2047
16791TIP3    H171788   3.085   1.229  15.667 -0.0181 -0.6267  0.3739
16791TIP3    H271789   2.974   1.226  15.565  0.0718  0.8836  0.2065
16792TIP3   OH271790   5.227   5.530   5.017 -0.2720 -0.4711 -0.0837
16792TIP3    H171791   5.159   5.463   5.027 -0.4774 -0.3555 -0.6462
16792TIP3    H271792   5.224   5.553   4.924  1.0602 -1.0114 -0.2757
16793TIP3   OH271793   4.951   1.048  16.906 -0.5565 -0.6802  0.8674
16793TIP3    H171794   4.939   1.018  16.816  1.2168  0.3893  0.2406
16793TIP3    H271795   4.954   0.967  16.958 -1.3376 -1.3136 -0.0346
16794TIP3   OH271796   6.467   5.106   2.488 -0.3088  0.3368  0.3778
16794TIP3    H171797   6.372   5.095   2.490 -0.4456  1.3161 -0.2624
16794TIP3    H271798   6.481   5.200   2.489  0.6262  0.2241 -0.5752
16795TIP3   OH271799   6.447   5.524   0.278  0.0390  0.0382 -0.4204
16795TIP3    H171800   6.516   5.585   0.253  0.4860 -0.3518 -0.1554
16795TIP3    H271801   6.375   5.580   0.308  0.4298  0.4372 -0.2150
16796TIP3   OH271802   6.284   0.878  17.240 -0.1777  0.4537  0.0165
16796TIP3    H171803   6.229   0.905  17.167  0.0624 -0.1124 -0.3824
16796TIP3    H271804   6.225   0.830  17.299  0.1987 -1.7494 -1.2831
16797TIP3   OH271805   2.600   5.779  14.949 -0.0912 -0.2423  0.3342
16797TIP3    H171806   2.574   5.785  15.041  2.0045  2.1652  0.8804
16797TIP3    H271807   2.669   5.713  14.948 -0.8214 -1.0197  0.2728
16798TIP3   OH271808   1.470   2.810  15.447  0.5037 -0.7567  0.3234
16798TIP3    H171809   1.423   2.730  15.423 -1.4023  0.7091 -1.2148
16798TIP3    H271810   1.494   2.849  15.362 -1.3902  1.7928  0.8170
16799TIP3   OH271811   4.838   6.545  10.515  0.0850 -0.1379 -0.0682
16799TIP3    H171812   4.804   6.456  10.517  0.7983 -0.4085  0.0861
16799TIP3    H271813   4.863   6.563  10.606 -1.5595  0.8215  0.2554
16800TIP3   OH271814   5.012   0.030   3.951 -0.0148  0.3137  0.1928
16800TIP3    H171815   4.951  -0.043   3.953  1.1499 -0.7771 -1.2314
16800TIP3    H271816   5.045   0.037   4.040 -1.4131  0.2565  0.7359
16801TIP3   OH271817   5.790   4.910  16.011  0.3737  0.6505  0.3115
16801TIP3    H171818   5.710   4.858  15.999 -0.2697  2.0487 -1.9295
16801TIP3    H271819   5.813   4.897  16.103 -0.3379 -2.7031  0.1669
16802TIP3   OH271820   2.851   0.616   0.055 -0.1012  0.1215 -0.2518
16802TIP3    H171821   2.827   0.682  -0.010 -0.2754  0.0430 -0.2688
16802TIP3    H271822   2.929   0.574   0.019 -0.3573 -0.1097 -0.5487
16803TIP3   OH271823   3.886   4.903   5.062  0.1769 -0.2962 -0.1322
16803TIP3    H171824   3.945   4.938   5.129  0.4479 -0.6922 -0.1620
16803TIP3    H271825   3.799   4.932   5.090  0.1932 -1.0901  0.8075
16804TIP3   OH271826   3.010   5.909  14.088 -0.5646 -0.0049  0.2553
16804TIP3    H171827   2.920   5.934  14.066  0.0547  0.6873 -1.7068
16804TIP3    H271828   3.040   5.856  14.014  0.7802  0.1387  0.6615
16805TIP3   OH271829   0.018   6.189  10.633 -0.1153 -0.1077 -0.0434
16805TIP3    H171830   0.087   6.151  10.689 -0.2211  1.3172  1.1030
16805TIP3    H271831   0.063   6.258  10.584 -0.2439 -0.7054 -1.0291
16806TIP3   OH271832   2.957   4.961   1.843  0.2538  0.4068 -0.0099
16806TIP3    H171833   2.964   5.043   1.794 -2.0694  0.0410 -1.1353
16806TIP3    H271834   3.024   4.905   1.806  0.9915  1.3647 -0.1604
16807TIP3   OH271835   0.802   3.807  14.020 -0.4071  0.1993  0.0076
16807TIP3    H171836   0.713   3.799  13.986  0.0318  2.5915 -2.0017
16807TIP3    H271837   0.796   3.874  14.089 -0.2483 -0.0860  0.3048
16808TIP3   OH271838   0.459   0.292  15.514  0.3647  0.0472  0.1741
16808TIP3    H171839   0.483   0.344  15.437  3.1658 -1.3691 -0.0516
16808TIP3    H271840   0.432   0.357  15.579  0.8162  1.5219 -1.0384
16809TIP3   OH271841   0.091   5.642   4.174  0.8358  0.2553 -0.4409
16809TIP3    H171842   0.025   5.703   4.205  1.0790  0.1554  0.2831
16809TIP3    H271843   0.127   5.602   4.253  1.4758  0.0075 -0.8450
16810TIP3   OH271844   0.175   2.033   5.034  0.5789 -0.1484 -0.4173
16810TIP3    H171845   0.242   1.967   5.055  1.5352  1.4749  2.0175
16810TIP3    H271846   0.220   2.096   4.978  0.7731  0.3249  0.2575
16811TIP3   OH271847   6.511   3.508   5.417 -0.2045 -0.3624  0.5588
16811TIP3    H171848   6.429   3.489   5.372 -0.5422 -0.7099  1.2910
16811TIP3    H271849   6.521   3.435   5.478 -0.3855  0.6758  1.8879
16812TIP3   OH271850   1.779   3.775  13.359  0.4762  0.5932  0.1581
16812TIP3    H171851   1.793   3.680  13.356  1.0421  0.5425  2.6263
16812TIP3    H271852   1.867   3.812  13.369  0.0471  1.1453  2.2732
16813TIP3   OH271853   0.339   3.276   6.287  0.9395  0.4846  0.0296
16813TIP3    H171854   0.284   3.288   6.363  0.3431 -1.2289 -0.0725
16813TIP3    H271855   0.428   3.291   6.318  0.6806  0.0151  1.0196
16814TIP3   OH271856   1.126   1.773   0.504 -0.6854 -0.1923 -0.1868
16814TIP3    H171857   1.119   1.805   0.594 -2.6880 -0.1447 -0.2930
16814TIP3    H271858   1.157   1.848   0.454  0.6477 -0.2819  0.4784
16815TIP3   OH271859   3.214   5.576  15.927 -0.1612  0.2891  0.0625
16815TIP3    H171860   3.268   5.593  16.004  1.3596 -0.1696 -0.8510
16815TIP3    H271861   3.259   5.504  15.883 -0.8480  0.7227 -1.3848
16816TIP3   OH271862   4.056   0.281   1.483  0.1270 -0.2748  0.0432
16816TIP3    H171863   4.028   0.195   1.450 -0.5832  0.2877 -0.9075
16816TIP3    H271864   4.034   0.280   1.576 -1.0793 -0.6648 -0.2296
16817TIP3   OH271865   6.122   4.827  12.165  0.2397 -0.3197 -0.0502
16817TIP3    H171866   6.153   4.745  12.203 -0.7604  0.1795  1.9751
16817TIP3    H271867   6.027   4.818  12.162  0.1728  0.4654 -0.5458
16818TIP3   OH271868   4.604   1.933   5.068  0.4214 -0.2040 -0.8410
16818TIP3    H171869   4.607   1.873   4.993 -1.6805 -1.6447  0.1309
16818TIP3    H271870   4.510   1.946   5.084  0.7338  3.8417 -1.3133
16819TIP3   OH271871   1.431   6.628  13.816 -0.1647 -0.4335 -0.2479
16819TIP3    H171872   1.428   6.602  13.724  1.5035 -1.4028 -0.0658
16819TIP3    H271873   1.469   6.716  13.814 -0.0503 -0.4859 -0.4916
16820TIP3   OH271874   0.308   4.165   5.904 -0.0846  0.7900 -0.4300
16820TIP3    H171875   0.394   4.206   5.907  0.2764  0.0819  2.4385
16820TIP3    H271876   0.248   4.234   5.933 -0.0679  0.5205  0.2651
16821TIP3   OH271877   3.570   3.458  11.468 -0.6887 -0.0515 -0.5116
16821TIP3    H171878   3.603   3.390  11.527 -0.4963  0.0909 -0.4533
16821TIP3    H271879   3.642   3.474  11.407 -1.3947 -1.2174 -1.6913
16822TIP3   OH271880   0.595   0.705   4.880  0.1606 -0.2949  0.3482
16822TIP3    H171881   0.585   0.701   4.975 -1.3597  0.6005  0.2585
16822TIP3    H271882   0.508   0.682   4.846  0.6932 -0.6486 -0.8370
16823TIP3   OH271883   1.218   2.009   1.504  0.2477  0.0324  0.3973
16823TIP3    H171884   1.235   2.025   1.597 -0.4831 -0.3041  0.5932
16823TIP3    H271885   1.145   1.947   1.503 -0.9554  1.4032 -0.4078
16824TIP3   OH271886   5.267   1.204  14.035 -0.6661  0.0176 -0.7054
16824TIP3    H171887   5.263   1.204  13.940  0.2408  0.1492 -0.7521
16824TIP3    H271888   5.178   1.227  14.063 -1.0709 -0.5382 -1.5033
16825TIP3   OH271889   4.373   1.458  13.015 -0.6832 -0.4771 -0.3117
16825TIP3    H171890   4.456   1.505  13.018  0.6861 -2.7652 -0.0307
16825TIP3    H271891   4.347   1.448  13.107 -1.3935  0.3860 -0.4050
16826TIP3   OH271892   1.733   4.947   6.035  0.1668 -0.0620  0.3818
16826TIP3    H171893   1.708   4.967   6.125 -1.1248  0.8643 -0.1632
16826TIP3    H271894   1.723   4.852   6.028 -1.9638  0.0929  0.5972
16827TIP3   OH271895   4.261   5.574   5.876  0.1767  0.5260 -0.3517
16827TIP3    H171896   4.277   5.581   5.970 -0.0298  0.1049 -0.2806
16827TIP3    H271897   4.341   5.533   5.842 -0.9429 -2.2987  0.1155
16828TIP3   OH271898   2.713   6.367  14.549 -0.6510  0.2031  0.1182
16828TIP3    H171899   2.671   6.281  14.555  2.3150 -1.4989 -1.2149
16828TIP3    H271900   2.753   6.380  14.635  0.2089 -0.5499 -0.1518
16829TIP3   OH271901   1.315   4.226  12.706  0.2409 -0.4888  0.1153
16829TIP3    H171902   1.400   4.190  12.679 -0.6083 -1.0716 -2.0318
16829TIP3    H271903   1.251   4.166  12.667 -1.1795  0.8746  0.2730
16830TIP3   OH271904   3.923   0.690  16.717  0.0345 -0.2076 -0.2330
16830TIP3    H171905   4.006   0.687  16.764  0.0557 -3.3291 -0.2436
16830TIP3    H271906   3.948   0.689  16.624 -0.0357  0.0099 -0.2563
16831TIP3   OH271907   3.635   6.413  12.459  0.0864 -0.0329  0.0301
16831TIP3    H171908   3.596   6.498  12.437 -1.6742 -0.7370  0.3259
16831TIP3    H271909   3.721   6.415  12.416 -0.4938  1.3265 -1.1567
16832TIP3   OH271910   6.384   0.034   5.561  0.1238 -0.5196 -0.6081
16832TIP3    H171911   6.374   0.121   5.600 -0.6612 -0.1136 -1.6624
16832TIP3    H271912   6.459  -0.004   5.607 -0.0309  0.3833  0.4459
16833TIP3   OH271913   0.968   3.967  10.652  0.2986  0.1391  0.0989
16833TIP3    H171914   0.962   3.920  10.736 -0.3088 -0.1698 -0.1108
16833TIP3    H271915   1.059   3.954  10.624  0.2591 -0.5516  0.2605
16834TIP3   OH271916   0.522   5.546  13.853  0.0992  0.3018 -0.0099
16834TIP3    H171917   0.432   5.526  13.827  0.2156  1.5733 -1.5569
16834TIP3    H271918   0.526   5.523  13.946 -2.1305  1.2098  0.3704
16835TIP3   OH271919   1.943   4.076  16.049  0.1280 -0.1584 -0.5077
16835TIP3    H171920   2.005   4.124  16.106  0.8261 -1.4513 -0.1248
16835TIP3    H271921   1.887   4.028  16.110 -0.3560 -0.0820 -0.8868
16836TIP3   OH271922   5.004   5.033   2.363 -0.8004 -0.8726 -0.0141
16836TIP3    H171923   5.100   5.038   2.361 -0.8398 -0.0769 -1.7913
16836TIP3    H271924   4.977   5.112   2.410 -0.5967 -0.8821  0.1205
16837TIP3   OH271925   6.648   0.883   2.497  0.3823 -0.8806  0.4746
16837TIP3    H171926   6.722   0.898   2.554  1.3971  1.6079 -1.3182
16837TIP3    H271927   6.684   0.833   2.423 -0.6915 -3.1770  1.3907
16838TIP3   OH271928   4.794   6.217   0.929  0.5027 -0.4177  0.3227
16838TIP3    H171929   4.756   6.281   0.868 -0.9424 -2.5772 -1.1792
16838TIP3    H271930   4.734   6.219   1.005 -1.7276 -2.4438 -1.2429
16839TIP3   OH271931   0.960   6.667  16.671  0.8444 -0.0083  0.1709
16839TIP3    H171932   0.882   6.691  16.620 -0.3580  4.1432  3.3221
16839TIP3    H271933   1.033   6.702  16.621  0.1756  0.1221 -0.7358
16840TIP3   OH271934   0.353   1.692  12.266 -0.0085 -0.2455 -0.4315
16840TIP3    H171935   0.258   1.694  12.252 -0.0929 -1.9988 -0.4133
16840TIP3    H271936   0.380   1.607  12.231  1.0718 -1.1536  2.3220
16841TIP3   OH271937   3.091   3.058  12.606 -0.1756  0.0897 -0.9442
16841TIP3    H171938   3.040   3.052  12.687 -1.7315  0.5755 -1.8377
16841TIP3    H271939   3.060   2.984  12.553  2.5505 -1.6921 -0.2380
16842TIP3   OH271940   6.019   1.831  15.834 -0.5720  0.3990  0.6793
16842TIP3    H171941   6.075   1.807  15.909 -1.6678  0.7676  1.6484
16842TIP3    H271942   5.995   1.747  15.795  1.3623  0.2670 -0.3138
16843TIP3   OH271943   2.670   6.662  15.019 -0.2743 -0.1539  0.2483
16843TIP3    H171944   2.713   6.743  14.990 -1.6146  0.8146  0.9021
16843TIP3    H271945   2.741   6.597  15.017  0.7992  0.9672 -0.4542
16844TIP3   OH271946   0.701   4.756  11.240  0.0690 -0.4464 -0.0932
16844TIP3    H171947   0.631   4.714  11.191 -0.0917 -0.3848  0.0792
16844TIP3    H271948   0.755   4.800  11.174 -0.5979  0.3089 -0.1456
16845TIP3   OH271949   3.393   2.926   2.478  0.2746 -0.0226  0.7621
16845TIP3    H171950   3.417   2.834   2.463  1.2060  0.0549  1.6169
16845TIP3    H271951   3.298   2.926   2.481  0.2188 -0.7533 -0.4929
16846TIP3   OH271952   3.160   6.513   4.546 -0.2683  0.4589 -0.3376
16846TIP3    H171953   3.213   6.583   4.508 -0.8790 -0.8378 -3.9630
16846TIP3    H271954   3.072   6.550   4.553  0.2491  1.4295  2.2385
16847TIP3   OH271955   0.850   0.290   0.747  0.0797  0.4968  0.3320
16847TIP3    H171956   0.884   0.253   0.665 -2.0167  0.7111 -0.7073
16847TIP3    H271957   0.874   0.226   0.814  1.1271 -0.0909 -0.5801
16848TIP3   OH271958   1.886   6.289  15.817 -0.1505 -0.7559  0.0628
16848TIP3    H171959   1.943   6.336  15.877  0.1026  0.7083 -1.2779
16848TIP3    H271960   1.821   6.247  15.874 -0.7698  1.7043  1.3119
16849TIP3   OH271961   4.478   2.710  16.460 -0.4042  0.1871  0.2234
16849TIP3    H171962   4.403   2.760  16.491 -1.4589 -0.6790 -0.8231
16849TIP3    H271963   4.528   2.773  16.407 -1.7309  0.1793 -1.1104
16850TIP3   OH271964   4.381   2.053  14.021  0.0195  0.4023  0.1174
16850TIP3    H171965   4.475   2.034  14.016 -0.5086 -2.2295 -2.4079
16850TIP3    H271966   4.376   2.149  14.021  2.6822  0.6352 -0.9180
16851TIP3   OH271967   3.073   4.634  16.826 -0.1568  0.1674  0.3325
16851TIP3    H171968   2.985   4.663  16.848 -0.4593 -0.4323 -0.0349
16851TIP3    H271969   3.069   4.539  16.836  0.5319  0.1634  0.5858
16852TIP3   OH271970   3.262   4.542   2.453 -0.1368  0.2061 -0.1762
16852TIP3    H171971   3.177   4.503   2.434 -0.2855  0.1009  0.6922
16852TIP3    H271972   3.272   4.534   2.547  0.8537  0.1959 -0.2748
16853TIP3   OH271973   4.323   5.585   0.036 -0.2711  0.1899  0.2361
16853TIP3    H171974   4.332   5.654  -0.030  1.5087  2.3039  2.5231
16853TIP3    H271975   4.371   5.511  -0.001  0.7172  1.3185 -0.8432
16854TIP3   OH271976   3.058   4.184   3.969  0.3331 -0.2512 -0.6791
16854TIP3    H171977   2.966   4.162   3.983  0.4427  0.3281  1.2553
16854TIP3    H271978   3.073   4.261   4.024  1.9058 -0.1502 -1.1966
16855TIP3   OH271979   1.963   5.276  15.898  0.1123 -0.3716  0.1402
16855TIP3    H171980   1.988   5.211  15.832  0.9562  0.3463 -0.2724
16855TIP3    H271981   2.046   5.316  15.925 -0.2106 -0.7191  1.7282
16856TIP3   OH271982   6.631   4.052   2.278 -0.6357 -0.1911 -0.1401
16856TIP3    H171983   6.640   3.971   2.327 -0.7627  0.4508  0.9832
16856TIP3    H271984   6.680   4.117   2.329  0.7606  0.1421 -1.8030
16857TIP3   OH271985   0.854   1.358  13.582  0.0648  0.6377 -0.2885
16857TIP3    H171986   0.861   1.279  13.530 -0.5842  0.0529  0.4927
16857TIP3    H271987   0.839   1.428  13.519 -0.6214 -0.0386 -0.8844
16858TIP3   OH271988   4.160   2.330   3.747 -0.0169 -0.0890 -0.2408
16858TIP3    H171989   4.216   2.373   3.683  1.6299 -0.7182  0.7299
16858TIP3    H271990   4.216   2.263   3.788 -1.7164 -1.3699  0.1400
16859TIP3   OH271991   0.573   2.491   2.918 -0.7876 -0.3159 -0.5125
16859TIP3    H171992   0.549   2.569   2.869 -0.5515  0.6227  0.8029
16859TIP3    H271993   0.522   2.497   2.998 -0.4484 -1.2942 -0.2147
16860TIP3   OH271994   3.492   6.415  10.797  0.6658 -0.0362  0.4960
16860TIP3    H171995   3.444   6.338  10.768  1.8062 -0.2156 -1.0462
16860TIP3    H271996   3.472   6.423  10.890 -2.4499 -0.0051 -0.0811
16861TIP3   OH271997   5.405   2.066   0.252  0.1807 -0.1048  0.0213
16861TIP3    H171998   5.476   2.081   0.315  1.6471 -1.2504 -1.2564
16861TIP3    H271999   5.329   2.108   0.291  1.4622  0.8436  1.6571
16862TIP3   OH272000   6.266   5.021   1.670  0.0330  0.0128  0.1020
16862TIP3    H172001   6.181   5.064   1.679  0.3045  0.5291  0.2251
16862TIP3    H272002   6.245   4.928   1.660 -0.5572  0.1749 -0.1808
16863TIP3   OH272003   6.731   0.047   1.262  0.0121 -0.3765  0.0044
16863TIP3    H172004   6.825   0.046   1.281  0.3442 -2.5343 -1.3980
16863TIP3    H272005   6.693  -0.009   1.329 -0.1810 -0.1344  0.1000
16864TIP3   OH272006   3.845   1.188   2.206  0.3892  0.2235  0.5560
16864TIP3    H172007   3.784   1.180   2.279  0.5482  0.4210  0.7134
16864TIP3    H272008   3.931   1.198   2.248  0.4465  0.6193  0.3448
16865TIP3   OH272009   4.949   1.119  15.283 -0.1506 -0.2568  0.1811
16865TIP3    H172010   4.928   1.097  15.374 -0.4069  0.8943  0.4208
16865TIP3    H272011   4.955   1.035  15.239 -0.4367 -0.8208  1.1736
16866TIP3   OH272012   5.197   4.309  11.266 -0.2036  0.6971  0.1926
16866TIP3    H172013   5.111   4.352  11.276 -1.2139 -1.4566  1.6316
16866TIP3    H272014   5.179   4.217  11.285  2.1715 -0.0885 -1.1050
16867TIP3   OH272015   0.269   1.263  17.241  0.5007  0.8507 -0.1552
16867TIP3    H172016   0.225   1.248  17.157 -0.7751 -1.3637  0.8259
16867TIP3    H272017   0.199   1.289  17.301  1.0158  0.1539  0.7648
16868TIP3   OH272018   4.588   2.378  15.447 -0.2243 -0.1749  0.2574
16868TIP3    H172019   4.546   2.326  15.516 -1.3406  1.3924  0.8245
16868TIP3    H272020   4.543   2.352  15.367 -0.4497 -0.4254  0.4627
16869TIP3   OH272021   0.222   0.166   0.964  0.4141  0.0344  1.1684
16869TIP3    H172022   0.241   0.084   1.008  2.4629 -0.3566 -0.3004
16869TIP3    H272023   0.307   0.194   0.928 -0.5640  1.8978  0.1723
16870TIP3   OH272024   3.997   2.078   4.992  0.0471  0.4478  0.0804
16870TIP3    H172025   4.024   2.060   5.081  0.2214  1.0590  0.1538
16870TIP3    H272026   4.058   2.144   4.960  0.7941 -0.6965 -0.9379
16871TIP3   OH272027   6.614   0.009  16.346 -0.2045 -0.2681  0.0048
16871TIP3    H172028   6.615   0.009  16.441 -0.6515  0.5777  0.0189
16871TIP3    H272029   6.670  -0.065  16.321  2.8701  1.5636  0.8932
16872TIP3   OH272030   2.633   1.158   0.672  0.6929  0.7252 -0.3821
16872TIP3    H172031   2.611   1.149   0.579  2.7750  1.8353 -1.0470
16872TIP3    H272032   2.670   1.073   0.697  2.3410  1.1498 -1.2640
16873TIP3   OH272033   3.103   4.902   0.973 -0.2111 -0.0120  0.0454
16873TIP3    H172034   3.161   4.912   0.897 -1.3119  2.4082 -0.5983
16873TIP3    H272035   3.161   4.907   1.049  0.6466  0.2911 -0.6171
16874TIP3   OH272036   1.797   4.298  11.815  0.2770  0.0195 -0.0142
16874TIP3    H172037   1.719   4.303  11.760 -0.9269 -1.6781  1.4034
16874TIP3    H272038   1.830   4.387  11.819 -1.2309  0.6729 -1.1517
16875TIP3   OH272039   5.228   6.515   5.977  0.2947 -0.3846  0.5425
16875TIP3    H172040   5.193   6.476   6.057 -0.6209  1.7763  1.2818
16875TIP3    H272041   5.320   6.531   5.997  0.5472 -1.6166  0.4248
16876TIP3   OH272042   5.068   1.071  11.563  0.2938 -0.3235  0.3786
16876TIP3    H172043   5.002   1.119  11.612  0.5503  1.1545 -0.6596
16876TIP3    H272044   5.121   1.139  11.521 -0.0259 -1.4815 -2.0718
16877TIP3   OH272045   2.989   3.372  11.783  0.3285  0.0814  0.4347
16877TIP3    H172046   3.025   3.309  11.721 -1.1871  0.4991 -0.9471
16877TIP3    H272047   3.064   3.424  11.810  1.0380 -0.0689 -1.1199
16878TIP3   OH272048   6.720   0.326   3.543  0.5969 -0.1112  0.4363
16878TIP3    H172049   6.811   0.327   3.573  0.0482  1.9446  2.3449
16878TIP3    H272050   6.675   0.266   3.604  0.2349  0.8495  1.1335
16879TIP3   OH272051   5.680   2.888   0.850 -0.5681  0.2119  0.0883
16879TIP3    H172052   5.664   2.973   0.891 -2.0526  0.0901 -0.1814
16879TIP3    H272053   5.764   2.860   0.886 -0.3154  1.5321  0.6059
16880TIP3   OH272054   3.705   1.261  11.651  0.6607  0.0316  0.4439
16880TIP3    H172055   3.732   1.192  11.712 -1.0743  0.4887  1.8354
16880TIP3    H272056   3.752   1.241  11.570  1.4070 -1.8678  1.2731
16881TIP3   OH272057   2.220   2.164   4.248 -0.0161 -0.5090 -0.1029
16881TIP3    H172058   2.253   2.075   4.262  1.0483 -0.1846 -0.4031
16881TIP3    H272059   2.223   2.176   4.153 -0.5174 -0.2820 -0.0935
16882TIP3   OH272060   5.494   6.429  16.514  0.0418 -0.0726 -0.4420
16882TIP3    H172061   5.466   6.416  16.424 -3.5555 -0.8432  0.6197
16882TIP3    H272062   5.571   6.485  16.508  0.2151 -0.5149 -3.9739
16883TIP3   OH272063   2.267   0.739   1.244  0.2942  0.0281  0.1703
16883TIP3    H172064   2.306   0.774   1.324  1.6522  0.1880 -0.5390
16883TIP3    H272065   2.338   0.740   1.180 -0.5229 -0.9415 -0.7931
16884TIP3   OH272066   5.669   4.551   3.447  0.0418  0.0058  0.3896
16884TIP3    H172067   5.662   4.643   3.474  0.1872  0.5200 -1.2593
16884TIP3    H272068   5.752   4.546   3.400  0.4701 -1.1955  1.2351
16885TIP3   OH272069   3.088   4.255  13.268 -0.2509 -0.2281  0.5780
16885TIP3    H172070   3.143   4.218  13.200  0.0957 -1.0584  1.2944
16885TIP3    H272071   3.078   4.347  13.243  0.4997 -0.3377 -0.1735
16886TIP3   OH272072   6.272   1.299  14.083 -0.0822 -0.3588  0.1777
16886TIP3    H172073   6.263   1.213  14.124 -1.0040 -0.0297  0.7078
16886TIP3    H272074   6.188   1.342  14.099  0.8568  1.1847  1.1704
16887TIP3   OH272075   1.759   2.614   3.033  0.0337 -0.4221  0.5971
16887TIP3    H172076   1.756   2.592   3.126 -0.6294 -1.3261  0.3708
16887TIP3    H272077   1.675   2.658   3.016 -0.3607 -1.3149  0.1787
16888TIP3   OH272078   3.768   4.656   4.982 -0.5140  0.0821 -0.2845
16888TIP3    H172079   3.686   4.664   5.031  0.5202 -0.9593  1.7381
16888TIP3    H272080   3.810   4.741   4.991  0.5557 -0.6331  2.4579
16889TIP3   OH272081   4.500   6.167   3.768  0.4134  0.5485  0.4326
16889TIP3    H172082   4.559   6.236   3.799  0.9747  1.0363 -1.6099
16889TIP3    H272083   4.489   6.184   3.675 -0.2734 -1.5385  0.0832
16890TIP3   OH272084   2.848   5.766   2.572 -0.3818  0.0920  0.7124
16890TIP3    H172085   2.763   5.764   2.616  0.1249 -0.0177  1.7211
16890TIP3    H272086   2.848   5.687   2.517 -0.9872  0.1762  0.5850
16891TIP3   OH272087   6.707   0.332  16.539  0.4299 -0.2035 -0.1573
16891TIP3    H172088   6.724   0.404  16.479 -0.6428 -2.1653 -3.0106
16891TIP3    H272089   6.637   0.365  16.596 -1.1043  0.6094 -2.3613
16892TIP3   OH272090   2.049   1.432  11.116 -0.3990 -0.1305 -0.2165
16892TIP3    H172091   1.998   1.488  11.059 -0.2637 -0.3468 -0.5540
16892TIP3    H272092   1.995   1.354  11.128 -0.2652 -0.2436 -0.3514
16893TIP3   OH272093   3.029   6.071   1.624  0.2590 -0.1426  0.2226
16893TIP3    H172094   3.086   6.022   1.682 -0.2770  0.3045  1.1447
16893TIP3    H272095   3.060   6.162   1.631  1.2262 -0.2851 -1.4413
16894TIP3   OH272096   3.220   1.985   1.117 -0.2165  0.0184 -0.3049
16894TIP3    H172097   3.207   2.074   1.150  1.6213  0.7300 -1.3722
16894TIP3    H272098   3.164   1.980   1.039 -0.4686  0.1745 -0.1330
16895TIP3   OH272099   2.501   0.240  16.402  0.2415 -0.1691 -0.6961
16895TIP3    H172100   2.491   0.306  16.471  3.2664 -0.2310 -0.0926
16895TIP3    H272101   2.511   0.291  16.321  1.4575  0.1038 -0.3864
16896TIP3   OH272102   5.217   3.216  16.202  0.0808  0.2758  0.2550
16896TIP3    H172103   5.133   3.261  16.202 -1.1439 -1.8636  0.1637
16896TIP3    H272104   5.251   3.227  16.114 -1.9252 -1.8826 -0.8958
16897TIP3   OH272105   1.372   3.222   3.372  0.0218 -0.0193 -0.2953
16897TIP3    H172106   1.449   3.276   3.390 -0.1454  0.3222 -0.5985
16897TIP3    H272107   1.305   3.257   3.430  0.5373 -1.3897  1.2124
16898TIP3   OH272108   2.242   4.137  13.298  0.1069  0.2807 -0.4244
16898TIP3    H172109   2.311   4.203  13.305 -0.3432  0.6967  0.3035
16898TIP3    H272110   2.267   4.069  13.361  0.8397 -0.5138 -1.5471
16899TIP3   OH272111   0.988   5.902   6.425 -0.0885  0.1696  0.2020
16899TIP3    H172112   0.898   5.905   6.457 -0.0507  1.0826  0.2439
16899TIP3    H272113   1.036   5.964   6.480  1.1011 -1.9789  1.7353
16900TIP3   OH272114   6.132   0.022   4.553  0.1494 -0.9033  0.1641
16900TIP3    H172115   6.180   0.065   4.481 -1.4983 -0.0968 -0.5016
16900TIP3    H272116   6.200  -0.025   4.602  1.3310 -1.6408 -2.0157
16901TIP3   OH272117   1.958   6.350   0.509 -0.3932  0.6530 -0.1381
16901TIP3    H172118   1.912   6.391   0.435  0.3377  1.0939 -0.3580
16901TIP3    H272119   1.937   6.406   0.584 -0.6303  0.5593 -0.1332
16902TIP3   OH272120   4.229   2.056  11.595  0.3200  0.3364  0.0789
16902TIP3    H172121   4.228   1.989  11.526 -0.2614  0.4154  0.0017
16902TIP3    H272122   4.137   2.063  11.622  0.0436  2.3421 -1.1307
16903TIP3   OH272123   4.246   6.028   1.262 -0.4103 -0.3308  0.2858
16903TIP3    H172124   4.252   6.088   1.187  3.0737 -0.4809  0.3047
16903TIP3    H272125   4.204   6.081   1.330 -0.2280  1.0655 -0.6269
16904TIP3   OH272126   3.208   3.627  10.776  0.1070  0.2002 -0.5033
16904TIP3    H172127   3.216   3.617  10.681  1.0678 -0.7353 -0.3395
16904TIP3    H272128   3.191   3.720  10.789  1.9743  0.7182 -1.4911
16905TIP3   OH272129   4.083   1.148   6.110  0.0062 -0.3618  0.0914
16905TIP3    H172130   4.167   1.194   6.120  0.5066 -0.7803 -1.8772
16905TIP3    H272131   4.108   1.060   6.081 -1.1046 -0.6483 -0.0174
16906TIP3   OH272132   5.678   5.764  14.584  0.4022  0.5940  0.0508
16906TIP3    H172133   5.708   5.702  14.650 -2.0515  0.4914  1.1665
16906TIP3    H272134   5.714   5.730  14.502 -0.7929 -2.3352  0.6200
16907TIP3   OH272135   0.398   6.086   3.537  0.5203  0.2925 -0.3736
16907TIP3    H172136   0.458   6.046   3.474  1.2738  1.1340 -0.2026
16907TIP3    H272137   0.442   6.077   3.622  1.0897  2.1268 -0.4208
16908TIP3   OH272138   6.422   5.412  14.316 -0.4851  0.2866 -0.1954
16908TIP3    H172139   6.358   5.376  14.377 -0.9616 -1.8267 -1.8444
16908TIP3    H272140   6.480   5.465  14.371  0.1105 -2.7785  2.4515
16909TIP3   OH272141   2.680   5.463   5.922 -0.0427 -0.0887  0.0132
16909TIP3    H172142   2.626   5.542   5.923  1.1403  0.8973  3.9594
16909TIP3    H272143   2.618   5.392   5.939 -0.6685  0.3894 -0.2344
16910TIP3   OH272144   0.929   5.140  11.955 -0.8126 -0.2013 -0.4182
16910TIP3    H172145   0.848   5.178  11.921 -0.9096 -0.8736 -0.9679
16910TIP3    H272146   0.907   5.049  11.973 -1.1925  0.4202  2.9311
16911TIP3   OH272147   5.516   1.046   5.228 -0.6734 -1.4047  0.7700
16911TIP3    H172148   5.539   1.099   5.152 -1.8116 -0.6701  0.9273
16911TIP3    H272149   5.598   1.037   5.276 -0.4084  0.0092  0.6215
16912TIP3   OH272150   0.596   3.249  13.974 -0.1748 -0.0306 -0.2742
16912TIP3    H172151   0.561   3.239  13.886 -1.4641 -4.0436  0.5130
16912TIP3    H272152   0.531   3.302  14.021 -2.0959 -2.0124 -0.5412
16913TIP3   OH272153   2.027   4.362  13.288  0.4532 -0.4966 -0.0163
16913TIP3    H172154   2.063   4.323  13.368  1.1677  0.0347 -0.0687
16913TIP3    H272155   1.971   4.433  13.318  0.7527 -0.2722  0.0129
16914TIP3   OH272156   4.237   5.189   4.305 -0.4116 -0.5315 -0.1701
16914TIP3    H172157   4.170   5.252   4.280  0.1617 -0.2730 -1.0943
16914TIP3    H272158   4.238   5.125   4.234  3.8573  2.2422 -3.0318
16915TIP3   OH272159   2.323   6.740  16.835 -0.5546  0.5275 -0.2451
16915TIP3    H172160   2.395   6.680  16.857 -0.1138  0.4060 -1.9183
16915TIP3    H272161   2.267   6.740  16.913  0.7377 -0.1344  0.7202
16916TIP3   OH272162   0.929   4.627  16.439  0.3937  0.3049  0.5705
16916TIP3    H172163   0.858   4.680  16.476  0.0439 -0.6072  1.2529
16916TIP3    H272164   0.890   4.587  16.361  0.6652  1.0508  0.0422
16917TIP3   OH272165   2.916   0.227   6.041  0.0668  0.2072 -0.0226
16917TIP3    H172166   2.988   0.231   6.105  0.3161 -2.3525 -0.0439
16917TIP3    H272167   2.957   0.252   5.958  0.2282  1.5337  0.4330
16918TIP3   OH272168   4.040   5.895  13.578 -0.6084 -0.1436  0.8183
16918TIP3    H172169   4.066   5.819  13.630 -0.6551 -1.2169 -0.6840
16918TIP3    H272170   4.078   5.970  13.625  1.6627 -1.2974  0.9573
16919TIP3   OH272171   6.007   2.874  11.695 -0.3270 -0.3222  0.1004
16919TIP3    H172172   5.971   2.872  11.606 -1.1831 -0.0927  0.4359
16919TIP3    H272173   5.953   2.813  11.744 -0.5503  0.3570  0.7137
16920TIP3   OH272174   5.950   1.862  17.169 -0.3647 -0.1351  0.8776
16920TIP3    H172175   6.015   1.811  17.218  0.0426  0.9687  1.5342
16920TIP3    H272176   6.000   1.936  17.134 -1.3591  1.0909  1.9413
16921TIP3   OH272177   4.402   5.684  13.486  0.0851  0.2556  0.4355
16921TIP3    H172178   4.330   5.647  13.434  0.3248  1.0615 -0.5165
16921TIP3    H272179   4.460   5.724  13.421  1.2374 -0.0912  1.2121
16922TIP3   OH272180   3.488   2.055  16.987  0.4566  0.1555  0.5695
16922TIP3    H172181   3.576   2.016  16.979 -0.1245 -1.8139  2.6215
16922TIP3    H272182   3.433   2.002  16.929  0.7203  2.1060 -1.6122
16923TIP3   OH272183   5.093   6.331   1.044  0.0543 -0.0407  0.0373
16923TIP3    H172184   5.124   6.346   1.134  0.4838 -1.6833  0.1874
16923TIP3    H272185   4.998   6.344   1.049  0.1172  0.2541  0.6310
16924TIP3   OH272186   3.587   3.202  15.827  0.1968  0.1357  0.2946
16924TIP3    H172187   3.591   3.296  15.811  1.6106  0.1672  0.7768
16924TIP3    H272188   3.596   3.192  15.921  0.3578 -0.5041  0.2217
16925TIP3   OH272189   5.364   3.320  11.120  0.2859  0.5026 -0.3280
16925TIP3    H172190   5.335   3.362  11.039 -1.7582 -1.5365 -0.7514
16925TIP3    H272191   5.458   3.305  11.106  0.4112  2.0511 -1.4268
16926TIP3   OH272192   2.386   2.436   0.405 -0.3262  0.1593 -0.6869
16926TIP3    H172193   2.433   2.357   0.377 -0.7729 -1.5171  2.7949
16926TIP3    H272194   2.303   2.403   0.440  0.0730  1.9297  2.2121
16927TIP3   OH272195   1.374   3.526  16.280 -0.2834 -0.4172  0.5173
16927TIP3    H172196   1.455   3.563  16.316 -1.0612  1.1887  0.7067
16927TIP3    H272197   1.399   3.494  16.194  0.6839 -0.4909  0.8055
16928TIP3   OH272198   2.969   2.398  15.525 -0.3153 -0.0334 -0.4121
16928TIP3    H172199   2.998   2.360  15.608 -1.7285 -1.7031 -0.6192
16928TIP3    H272200   3.031   2.469  15.508  0.7835 -0.4865  1.4053
16929TIP3   OH272201   4.831   6.475  13.295 -0.0971 -0.7537  0.2648
16929TIP3    H172202   4.841   6.450  13.203  0.8995 -1.0285  0.4374
16929TIP3    H272203   4.751   6.528  13.297 -0.8658 -1.8308 -0.5388
16930TIP3   OH272204   5.724   0.229  12.742  0.1219  0.6192  0.0360
16930TIP3    H172205   5.790   0.297  12.725  1.3208 -0.6874 -0.6981
16930TIP3    H272206   5.646   0.259  12.695  1.1545  0.6920 -1.7294
16931TIP3   OH272207   5.298   5.290  11.199  0.2026 -0.3815  0.1423
16931TIP3    H172208   5.357   5.217  11.219  1.9997  0.2211 -2.4630
16931TIP3    H272209   5.355   5.357  11.162 -2.0301  0.4150 -2.1069
16932TIP3   OH272210   0.877   3.434  13.553 -0.3077  0.2753  0.2268
16932TIP3    H172211   0.815   3.457  13.485  0.2762  1.2519  0.0059
16932TIP3    H272212   0.824   3.392  13.621 -0.6369 -2.5171 -1.6156
16933TIP3   OH272213   6.467   3.614   2.749  0.4619  0.0355 -0.0483
16933TIP3    H172214   6.556   3.627   2.717  0.4079 -1.5678 -0.9773
16933TIP3    H272215   6.474   3.537   2.806 -0.2406  0.1710  0.2245
16934TIP3   OH272216   0.658   3.260   5.192 -0.0611 -0.1477  0.3557
16934TIP3    H172217   0.576   3.222   5.221  0.6747 -0.3190  2.3647
16934TIP3    H272218   0.724   3.226   5.253  1.6628 -0.6166 -1.6150
16935TIP3   OH272219   4.241   4.902   3.893 -0.3843 -0.6080 -0.4268
16935TIP3    H172220   4.306   4.909   3.823 -0.2333 -1.9102 -0.4395
16935TIP3    H272221   4.163   4.867   3.851 -1.8811  2.8420 -0.8380
16936TIP3   OH272222   1.546   5.623   2.588  0.3386  0.4348  0.1217
16936TIP3    H172223   1.529   5.667   2.505  1.7237  1.1794  0.1840
16936TIP3    H272224   1.508   5.681   2.654 -0.8514 -0.2082  0.0107
16937TIP3   OH272225   0.827   1.035  15.211 -0.6263  0.4361 -0.3811
16937TIP3    H172226   0.907   0.988  15.187  0.2724  0.8510  1.6546
16937TIP3    H272227   0.812   1.096  15.138 -0.0636 -0.8134 -1.5702
16938TIP3   OH272228   6.030   2.137  13.428  0.2928 -0.6800  0.1260
16938TIP3    H172229   6.023   2.166  13.338 -0.6716 -3.0332 -0.6349
16938TIP3    H272230   6.063   2.047  13.422 -0.9574 -1.3337  2.0279
16939TIP3   OH272231   6.231   3.692  12.891  0.1018  0.0150  0.5258
16939TIP3    H172232   6.222   3.748  12.968 -3.9382  1.0947 -0.4725
16939TIP3    H272233   6.215   3.751  12.817  1.7371 -1.3995 -1.0410
16940TIP3   OH272234   0.637   0.377   3.236 -0.0474  0.2524  0.0200
16940TIP3    H172235   0.563   0.339   3.190  0.1306  1.0093 -0.9108
16940TIP3    H272236   0.710   0.317   3.218 -0.0539  0.3765 -0.4146
16941TIP3   OH272237   2.455   0.067   2.837 -0.5063  0.0175 -0.0867
16941TIP3    H172238   2.378   0.077   2.782 -1.1961 -0.8921  0.6765
16941TIP3    H272239   2.433  -0.005   2.896  0.5211  0.4323  0.8431
16942TIP3   OH272240   3.810   2.173  14.950 -0.2747  0.3630  0.7961
16942TIP3    H172241   3.793   2.079  14.953  1.5305  0.0064  3.2029
16942TIP3    H272242   3.725   2.213  14.972 -1.0384 -0.6699 -0.1731
16943TIP3   OH272243   3.820   2.205   5.265 -0.3460  0.6078 -0.0688
16943TIP3    H172244   3.899   2.152   5.276  0.2759  1.4208 -0.4885
16943TIP3    H272245   3.777   2.167   5.188 -0.1537  0.4274 -0.0884
16944TIP3   OH272246   1.258   2.538  16.039  0.2806 -0.0381  0.2962
16944TIP3    H172247   1.246   2.631  16.019 -0.9917 -0.6034 -1.9922
16944TIP3    H272248   1.280   2.499  15.954  1.9378 -1.6876  1.4120
16945TIP3   OH272249   5.413   5.709  14.567  0.0830  0.0873  0.2941
16945TIP3    H172250   5.507   5.716  14.582 -0.0322  1.3116  0.6049
16945TIP3    H272251   5.400   5.744  14.479 -0.3617  2.7498  1.3169
16946TIP3   OH272252   4.567   2.526   5.948  0.7771  0.6724 -0.4444
16946TIP3    H172253   4.565   2.611   5.902  0.4974  1.0383  0.2277
16946TIP3    H272254   4.607   2.546   6.032  0.3814  0.2064 -0.1431
16947TIP3   OH272255   1.411   2.820   5.958 -0.5649  0.7606  0.0257
16947TIP3    H172256   1.318   2.798   5.961 -0.1580 -1.0485  2.2130
16947TIP3    H272257   1.435   2.836   6.050  1.4869  0.0472 -0.3252
16948TIP3   OH272258   3.552   6.261   0.417  0.5312  0.5698 -0.0004
16948TIP3    H172259   3.496   6.223   0.484  0.4716 -0.3537 -0.5568
16948TIP3    H272260   3.494   6.273   0.341  1.1654 -0.8226 -0.7333
16949TIP3   OH272261   0.802   4.860  16.218 -0.1583 -0.3826 -0.3502
16949TIP3    H172262   0.839   4.774  16.202  0.3820 -0.4937  1.2967
16949TIP3    H272263   0.744   4.876  16.143 -1.0714 -2.5980 -0.1921
16950TIP3   OH272264   4.359   0.677   4.837  0.3768 -0.8182 -0.5458
16950TIP3    H172265   4.390   0.668   4.747 -0.3380 -2.6991 -0.6423
16950TIP3    H272266   4.275   0.631   4.839 -1.8674  2.8727  0.0485
16951TIP3   OH272267   1.611   1.891  14.233 -0.3159  0.1213 -0.1041
16951TIP3    H172268   1.634   1.825  14.167  0.1177  1.8500 -1.7893
16951TIP3    H272269   1.569   1.960  14.183 -0.4393  1.2894  1.5485
16952TIP3   OH272270   0.565   1.170   6.024 -0.0284 -0.0781 -0.6141
16952TIP3    H172271   0.495   1.122   6.067 -0.9743 -0.0093 -2.0095
16952TIP3    H272272   0.594   1.234   6.089 -0.0631 -1.2424  0.5872
16953TIP3   OH272273   2.986   6.548  15.465 -0.6588 -0.1163 -0.4910
16953TIP3    H172274   2.893   6.552  15.488 -0.3725  0.9083  0.6080
16953TIP3    H272275   3.028   6.608  15.527  0.6872 -0.2811 -1.2174
16954TIP3   OH272276   1.474   2.608   5.470 -0.1837 -0.1977  0.3008
16954TIP3    H172277   1.469   2.609   5.565 -1.6339  0.2806  0.2497
16954TIP3    H272278   1.390   2.572   5.441  1.1157 -2.5503 -0.7926
16955TIP3   OH272279   2.190   3.268   4.629  0.1136  0.0875 -0.4729
16955TIP3    H172280   2.262   3.206   4.626  0.3962  0.4406 -1.2528
16955TIP3    H272281   2.177   3.285   4.722  1.4565  0.4943 -0.3396
16956TIP3   OH272282   4.110   6.153   1.986  0.6183 -0.0524 -0.0309
16956TIP3    H172283   4.124   6.172   1.894  0.0188 -0.7994 -0.2920
16956TIP3    H272284   4.076   6.063   1.987  1.1686 -0.2669  0.9555
16957TIP3   OH272285   3.411   0.410   5.728  0.1897 -0.1959 -0.4815
16957TIP3    H172286   3.434   0.350   5.799 -2.4305 -0.6401  0.0748
16957TIP3    H272287   3.379   0.354   5.658 -0.5074  0.4217 -0.6718
16958TIP3   OH272288   3.389   3.520  12.564 -0.2847 -0.5195  0.2083
16958TIP3    H172289   3.317   3.572  12.529  0.8703 -0.0088 -1.5530
16958TIP3    H272290   3.347   3.448  12.610 -1.9203 -0.3257 -0.9000
16959TIP3   OH272291   0.344   0.452   4.182  0.6731  0.0605  0.0795
16959TIP3    H172292   0.401   0.527   4.163 -1.8454  1.4517 -2.7763
16959TIP3    H272293   0.389   0.377   4.142  0.3008  1.2586 -2.8652
16960TIP3   OH272294   4.458   1.018   1.288  0.1255  0.3311  0.0217
16960TIP3    H172295   4.471   1.075   1.364 -0.1027 -1.8412  1.7949
16960TIP3    H272296   4.373   0.978   1.302 -0.5623  0.8733 -2.1569
16961TIP3   OH272297   2.040   1.203  14.183 -0.1308  0.2995 -0.0302
16961TIP3    H172298   2.106   1.253  14.231 -1.0076  1.3663  0.1167
16961TIP3    H272299   2.059   1.112  14.204  1.2259  0.5897  0.0797
16962TIP3   OH272300   4.957   5.936  12.635  0.1519 -0.0541  0.2758
16962TIP3    H172301   4.898   5.969  12.703  0.1696  1.9094 -0.6005
16962TIP3    H272302   4.911   5.860  12.599 -1.2111  0.5951  0.5512
16963TIP3   OH272303   3.889   1.217   3.657  0.1962  0.2830  0.0927
16963TIP3    H172304   3.810   1.163   3.664  0.8178 -0.6081  0.4390
16963TIP3    H272305   3.917   1.232   3.747  0.3265  0.7504 -0.0217
16964TIP3   OH272306   2.438   0.849   5.775  0.3526  0.6294  0.8967
16964TIP3    H172307   2.492   0.885   5.845 -0.6737  0.5449  1.7506
16964TIP3    H272308   2.473   0.761   5.760  0.6516  0.6945  1.2160
16965TIP3   OH272309   4.907   1.190  11.761  0.2305 -0.1609  0.0909
16965TIP3    H172310   4.955   1.235  11.830  0.0567  0.2774 -0.0709
16965TIP3    H272311   4.877   1.108  11.801  1.0345 -0.3986  0.2205
16966TIP3   OH272312   6.114   2.625   5.552 -0.4047 -0.1039  0.2767
16966TIP3    H172313   6.169   2.580   5.617  0.2514  0.3818  0.0619
16966TIP3    H272314   6.026   2.620   5.589  0.1574  1.4931  1.9818
16967TIP3   OH272315   0.483   6.153   0.105 -0.0957  0.4692 -0.0719
16967TIP3    H172316   0.570   6.178   0.137 -0.2692 -0.0755  0.8655
16967TIP3    H272317   0.425   6.223   0.135  0.2871  1.9329 -2.4636
16968TIP3   OH272318   3.313   3.094   1.695  0.2094  0.0601  0.6796
16968TIP3    H172319   3.323   2.999   1.704 -0.1920  0.1437  2.2970
16968TIP3    H272320   3.227   3.113   1.732  0.1623  1.0270  0.1071
16969TIP3   OH272321   3.091   3.038   5.385  0.2205 -0.1082  0.0249
16969TIP3    H172322   3.128   2.988   5.457 -0.9207  0.2117  0.8631
16969TIP3    H272323   3.061   2.972   5.322  0.5768 -0.4076  0.1653
16970TIP3   OH272324   3.990   4.195   5.919  0.1372 -1.1010  0.1991
16970TIP3    H172325   3.989   4.134   5.992  0.0140 -1.6679 -0.2711
16970TIP3    H272326   4.052   4.158   5.857 -0.7083 -1.3003 -0.5432
16971TIP3   OH272327   5.504   6.163   5.021 -0.2090 -0.2477 -0.0539
16971TIP3    H172328   5.483   6.201   5.106 -1.6790 -2.5122  0.6958
16971TIP3    H272329   5.424   6.173   4.969  0.8597  1.6395 -1.4514
16972TIP3   OH272330   4.350   5.860   0.054  0.5229 -0.2331  0.0710
16972TIP3    H172331   4.323   5.811   0.131  2.5664 -1.9851 -0.2348
16972TIP3    H272332   4.269   5.896   0.019 -0.6907 -1.0030  1.9317
16973TIP3   OH272333   2.272   1.033  11.171  0.0050 -0.8441  0.6469
16973TIP3    H172334   2.285   0.994  11.084  0.6624 -0.6099  0.6389
16973TIP3    H272335   2.297   1.125  11.160 -1.0262 -0.5271  0.8009
16974TIP3   OH272336   4.050   4.548  17.016 -0.5797  0.1440 -0.1473
16974TIP3    H172337   4.108   4.624  17.022  1.6692 -1.4526 -0.0805
16974TIP3    H272338   4.076   4.506  16.934 -1.8500 -0.5151 -0.2317
16975TIP3   OH272339   0.496   0.919  14.290  0.0966 -0.4178 -0.0841
16975TIP3    H172340   0.541   0.857  14.233  1.7010  0.5994  0.0155
16975TIP3    H272341   0.492   0.873  14.375  2.2797 -0.0493  0.2994
16976TIP3   OH272342   2.346   5.566   6.090 -0.0338 -0.4260  0.1771
16976TIP3    H172343   2.407   5.602   6.026 -0.5851  0.8000  0.3123
16976TIP3    H272344   2.260   5.598   6.062 -0.2738  0.2368  1.5742
16977TIP3   OH272345   5.133   4.213  14.294 -0.5318  0.1355  0.1144
16977TIP3    H172346   5.172   4.232  14.379 -1.5787  0.1851  0.5977
16977TIP3    H272347   5.157   4.288  14.239  0.0179  0.1762  0.3993
16978TIP3   OH272348   4.386   4.764   5.514 -0.1768  0.0293 -0.4762
16978TIP3    H172349   4.341   4.803   5.439  0.8203  0.5847 -0.8202
16978TIP3    H272350   4.477   4.791   5.502  0.3133 -1.3539 -0.0050
16979TIP3   OH272351   6.323   2.593   5.349  0.8866 -1.2963  0.1141
16979TIP3    H172352   6.339   2.500   5.360 -0.4867 -1.2609  3.3383
16979TIP3    H272353   6.263   2.616   5.419  0.9789  2.0030 -0.7159
16980TIP3   OH272354   0.232   0.672  13.000  0.4517 -0.1088 -0.4793
16980TIP3    H172355   0.179   0.638  12.928 -1.4038  0.0472  0.7139
16980TIP3    H272356   0.193   0.757  13.020 -0.0246 -0.7316  1.5692
16981TIP3   OH272357   4.022   1.748  15.757 -0.5731 -0.4235  0.4461
16981TIP3    H172358   4.039   1.749  15.851 -1.2867 -1.7919  0.6203
16981TIP3    H272359   4.010   1.655  15.736  2.0768 -0.4147 -1.4858
16982TIP3   OH272360   1.689   0.102  12.005  0.3124  0.0002 -0.0167
16982TIP3    H172361   1.740   0.055  11.939  1.2748  0.8825  0.0643
16982TIP3    H272362   1.736   0.185  12.017 -1.4778  1.1196 -0.3675
16983TIP3   OH272363   0.450   4.068  15.472  0.4000 -0.3639 -0.0043
16983TIP3    H172364   0.421   4.097  15.559 -3.4056 -0.0751 -1.1826
16983TIP3    H272365   0.504   4.140  15.439  1.3567 -0.1852  1.7888
16984TIP3   OH272366   4.549   1.254   3.479  0.4949 -0.2304 -0.0122
16984TIP3    H172367   4.600   1.255   3.559  0.1108  1.8391  0.2520
16984TIP3    H272368   4.522   1.345   3.466 -0.9175 -0.8177 -1.5483
16985TIP3   OH272369   6.130   0.151  10.840  0.3632 -0.2139 -0.1701
16985TIP3    H172370   6.221   0.181  10.841  0.5158 -0.6831  0.3027
16985TIP3    H272371   6.124   0.091  10.913 -0.6849  0.8379  0.6405
16986TIP3   OH272372   5.797   4.659   1.108  0.6027 -0.8999  0.0310
16986TIP3    H172373   5.732   4.625   1.170  1.3859  0.6181  1.8000
16986TIP3    H272374   5.771   4.750   1.094  0.5020 -1.1761 -1.8642
16987TIP3   OH272375   6.103   4.719  14.008  0.0862  0.0786 -0.2409
16987TIP3    H172376   6.057   4.670  13.940  0.3600  0.1063 -0.4466
16987TIP3    H272377   6.059   4.805  14.009 -2.1545 -0.9722  1.9151
16988TIP3   OH272378   4.630   6.593   5.025  0.0737 -0.0404  0.1117
16988TIP3    H172379   4.716   6.632   5.036 -0.1275  0.2821  0.5875
16988TIP3    H272380   4.571   6.668   5.019 -0.2499 -0.2665  0.4376
16989TIP3   OH272381   1.598   5.568  13.229  0.6413  0.0218  0.2887
16989TIP3    H172382   1.688   5.586  13.256  0.6493  0.3561  0.0399
16989TIP3    H272383   1.545   5.629  13.280  0.7208  1.2579 -1.0386
16990TIP3   OH272384   3.912   1.389   1.743  0.3309  0.0767  0.4502
16990TIP3    H172385   3.943   1.479   1.749  0.3669  0.1471 -0.5862
16990TIP3    H272386   3.834   1.394   1.688  0.2481 -0.5049  0.5030
16991TIP3   OH272387   3.236   0.643  16.246 -0.3348  0.1317 -0.0863
16991TIP3    H172388   3.308   0.703  16.232  0.5405 -0.5603  1.3150
16991TIP3    H272389   3.233   0.590  16.166  0.7053  0.1769 -0.1611
16992TIP3   OH272390   1.323   4.875   2.159  0.3181  0.3115  0.2417
16992TIP3    H172391   1.252   4.868   2.222  1.9884 -1.8869  2.0890
16992TIP3    H272392   1.396   4.828   2.200  1.9066 -0.1969 -2.8301
16993TIP3   OH272393   4.056   2.470  12.591  0.3408  0.2655  0.0040
16993TIP3    H172394   3.974   2.435  12.558  0.1003  0.7206  0.1117
16993TIP3    H272395   4.124   2.416  12.549 -0.0252 -0.5862  0.4865
16994TIP3   OH272396   0.884   2.898  15.924  0.4444 -0.0911  0.2280
16994TIP3    H172397   0.927   2.855  15.998  0.4208 -0.4920  0.0102
16994TIP3    H272398   0.897   2.992  15.940  0.3716 -0.1725  0.7768
16995TIP3   OH272399   6.301   6.667  14.129 -0.0989  0.0073  0.2063
16995TIP3    H172400   6.388   6.676  14.168 -0.0300  0.0354  0.0453
16995TIP3    H272401   6.316   6.676  14.035 -0.2439 -0.2153  0.1614
16996TIP3   OH272402   4.585   0.667  10.714 -0.0507 -0.0357 -0.0463
16996TIP3    H172403   4.553   0.757  10.709  1.1555  0.4163  0.1284
16996TIP3    H272404   4.526   0.618  10.657 -1.4403  0.6375  0.7473
16997TIP3   OH272405   2.226   5.916  16.003 -0.3580  0.2003 -0.8266
16997TIP3    H172406   2.200   5.832  16.041 -0.0396  0.9603  1.1912
16997TIP3    H272407   2.146   5.952  15.966 -0.3926 -1.1921 -2.2086
16998TIP3   OH272408   5.420   1.868  13.413 -0.5189 -0.0490 -0.3537
16998TIP3    H172409   5.407   1.823  13.497 -1.7885  0.9858  0.0380
16998TIP3    H272410   5.484   1.814  13.367 -1.2074 -1.6727  0.5075
16999TIP3   OH272411   6.435   1.497   3.901  0.5030  0.3185  0.5976
16999TIP3    H172412   6.433   1.581   3.946  2.0193 -0.5552  2.4115
16999TIP3    H272413   6.390   1.436   3.960  1.2248 -0.5555  0.2720
17000TIP3   OH272414   2.709   0.602  13.052 -0.0517  0.5010 -0.6483
17000TIP3    H172415   2.700   0.556  12.969 -0.5365 -0.5428 -0.0430
17000TIP3    H272416   2.636   0.570  13.105  0.5868  0.6937  0.3799
17001TIP3   OH272417   2.290   3.665  10.800 -0.2961  0.1490  0.4790
17001TIP3    H172418   2.328   3.586  10.761  1.2451  0.9369  0.3054
17001TIP3    H272419   2.283   3.727  10.727  2.0078  1.4154  1.2203
17002TIP3   OH272420   3.295   2.731   2.845 -0.3964 -0.3278  0.6115
17002TIP3    H172421   3.314   2.671   2.916 -0.4276  0.9609  1.7438
17002TIP3    H272422   3.319   2.683   2.765  1.3106 -1.1393  1.5765
17003TIP3   OH272423   2.673   5.172  15.135 -0.0185  0.6339  0.4787
17003TIP3    H172424   2.703   5.113  15.205 -0.5814 -0.5703 -0.2570
17003TIP3    H272425   2.579   5.152  15.127  0.2720 -0.1597 -1.4417
17004TIP3   OH272426   1.995   2.582  14.827  0.0257 -0.2159 -0.6413
17004TIP3    H172427   1.996   2.660  14.773  0.4742 -0.1350 -0.5224
17004TIP3    H272428   2.087   2.567  14.849 -0.2412  0.4922  1.1524
17005TIP3   OH272429   3.153   0.346   6.098 -1.2454  0.3093  0.1091
17005TIP3    H172430   3.149   0.370   6.191 -1.8123 -1.7420  0.6867
17005TIP3    H272431   3.242   0.367   6.071 -0.3916 -0.9431  1.7350
17006TIP3   OH272432   5.679   1.864   3.758  0.1663  0.2526  0.2759
17006TIP3    H172433   5.765   1.832   3.732 -0.2757 -0.7419 -0.0254
17006TIP3    H272434   5.621   1.840   3.686 -0.6126 -0.3127  1.0570
17007TIP3   OH272435   1.128   0.036   5.531  0.3626 -0.5309  0.1873
17007TIP3    H172436   1.098   0.120   5.497 -0.8582 -0.9454  0.1603
17007TIP3    H272437   1.080  -0.029   5.479  0.7552 -1.2194  0.6736
17008TIP3   OH272438   2.805   5.060   0.974  0.5012 -0.1488 -0.7399
17008TIP3    H172439   2.731   5.024   1.023  0.1726  0.7682 -0.5389
17008TIP3    H272440   2.879   5.052   1.034  0.3126  0.0300 -0.4781
17009TIP3   OH272441   5.452   3.727  11.748  0.1104  0.3448 -0.0802
17009TIP3    H172442   5.491   3.639  11.753  2.6754  1.4331  0.5816
17009TIP3    H272443   5.460   3.761  11.837 -1.4198  1.0652 -0.1929
17010TIP3   OH272444   6.407   3.003   5.156  0.1137  0.4032 -0.3912
17010TIP3    H172445   6.319   3.032   5.181  1.0087  1.5059  1.7587
17010TIP3    H272446   6.462   3.024   5.232  2.1288 -0.8757 -1.3936
17011TIP3   OH272447   6.119   1.765   3.418 -0.1539 -0.2193 -0.2747
17011TIP3    H172448   6.125   1.820   3.340  0.2863 -0.7272 -0.6051
17011TIP3    H272449   6.202   1.781   3.464 -0.6144  0.4603  0.3592
17012TIP3   OH272450   3.253   4.296  16.739  0.1265  0.6082  0.1095
17012TIP3    H172451   3.264   4.313  16.645 -2.2104  0.2082 -0.2958
17012TIP3    H272452   3.341   4.309  16.776  1.3315 -0.1704 -2.2479
17013TIP3   OH272453   5.621   0.702  12.681  0.0528  0.2380 -0.2936
17013TIP3    H172454   5.643   0.763  12.611 -0.8186  1.5889  0.5537
17013TIP3    H272455   5.548   0.650  12.647  1.2565 -0.8738 -1.2821
17014TIP3   OH272456   2.131   1.594  13.128 -0.2374  0.7959  0.3845
17014TIP3    H172457   2.053   1.614  13.076 -1.4612 -0.1836  1.7615
17014TIP3    H272458   2.097   1.560  13.210  1.6612 -0.1290  0.8480
17015TIP3   OH272459   6.282   4.677  12.953  0.7107 -0.0720 -0.3285
17015TIP3    H172460   6.191   4.692  12.979  0.5038 -0.7744 -0.6133
17015TIP3    H272461   6.289   4.581  12.945  1.4030 -0.0074 -0.5603
17016TIP3   OH272462   1.006   3.127   0.678  0.0960  0.7652 -0.1574
17016TIP3    H172463   1.052   3.045   0.657  0.6570  1.1253 -0.3535
17016TIP3    H272464   0.918   3.114   0.643  0.5237  0.6991 -1.2553
17017TIP3   OH272465   6.366   3.122  15.240  0.0581 -0.2293  0.0013
17017TIP3    H172466   6.367   3.058  15.168 -0.1997  0.1967 -0.3880
17017TIP3    H272467   6.381   3.070  15.319  1.6580 -0.5574 -0.4812
17018TIP3   OH272468   4.978   3.088  12.041 -0.3277 -0.1309  0.8425
17018TIP3    H172469   5.038   3.020  12.012  1.5813  1.6618  0.3021
17018TIP3    H272470   5.013   3.169  12.002 -2.9853  1.0559  0.6909
17019TIP3   OH272471   0.218   0.963  11.713 -0.2099  0.0655 -0.5675
17019TIP3    H172472   0.312   0.981  11.720 -0.1866  0.1456 -1.0246
17019TIP3    H272473   0.209   0.917  11.629 -0.5654 -0.0308 -0.4775
17020TIP3   OH272474   3.692   1.623   1.837  0.5224  0.1666 -0.1326
17020TIP3    H172475   3.686   1.610   1.932 -0.9062 -0.1709 -0.2491
17020TIP3    H272476   3.742   1.704   1.827  2.6678 -0.9673  0.8204
17021TIP3   OH272477   2.024   0.480  15.438  0.1367  0.0981  0.1070
17021TIP3    H172478   1.973   0.520  15.509 -2.5048 -2.1176 -0.3360
17021TIP3    H272479   2.114   0.503  15.457 -0.8539  3.0785  1.8133
17022TIP3   OH272480   2.220   5.337  11.827  0.4737  0.4294  0.1519
17022TIP3    H172481   2.305   5.333  11.784  0.3822 -0.4226  0.0362
17022TIP3    H272482   2.199   5.246  11.850  0.8234  0.8816  2.6193
17023TIP3   OH272483   6.546   1.165  11.014  0.8417 -0.1356  0.5833
17023TIP3    H172484   6.502   1.207  11.087 -1.4613 -0.3717 -0.5769
17023TIP3    H272485   6.516   1.213  10.937  0.9728 -1.6613 -0.4561
17024TIP3   OH272486   4.018   6.709   5.584  0.4551 -0.3875 -0.2102
17024TIP3    H172487   3.990   6.799   5.570 -2.7754 -1.0202  1.2035
17024TIP3    H272488   3.978   6.684   5.667  0.8905 -3.2593 -0.7497
17025TIP3   OH272489   1.762   5.513   1.773  0.3341 -0.0850 -0.3423
17025TIP3    H172490   1.692   5.466   1.818 -1.0876  0.9808 -1.3527
17025TIP3    H272491   1.763   5.477   1.685  0.3463  0.6264 -0.6377
17026TIP3   OH272492   1.831   3.889  12.942  0.5504 -0.5139 -0.4253
17026TIP3    H172493   1.796   3.946  12.874  2.3402  0.4202 -0.6333
17026TIP3    H272494   1.915   3.858  12.907  1.2185 -0.5191  1.0589
17027TIP3   OH272495   6.733   3.324  13.873 -0.1294  0.2335  0.4003
17027TIP3    H172496   6.778   3.306  13.790 -1.0875  0.0459 -0.0934
17027TIP3    H272497   6.663   3.259  13.876  0.6672 -0.6286  1.9927
17028TIP3   OH272498   4.872   4.316   3.621 -1.0451 -0.3444  0.5346
17028TIP3    H172499   4.866   4.229   3.661 -1.2755 -0.5495  0.0568
17028TIP3    H272500   4.935   4.363   3.676  1.7889 -1.8765 -1.1326
17029TIP3   OH272501   6.670   5.693   0.201 -0.0090  0.5983  0.2412
17029TIP3    H172502   6.738   5.756   0.224  1.4808 -0.5660 -0.7520
17029TIP3    H272503   6.632   5.726   0.120 -0.4366  1.0870  0.6327
17030TIP3   OH272504   0.184   6.428   2.260  0.5462  0.2758 -0.4858
17030TIP3    H172505   0.155   6.470   2.341  0.6455 -0.8597  0.1657
17030TIP3    H272506   0.248   6.489   2.223 -0.9636  1.7593 -0.7858
17031TIP3   OH272507   6.004   1.813   2.007 -0.1021  0.3241  0.3184
17031TIP3    H172508   6.046   1.806   1.921  0.7247 -1.2054  0.8179
17031TIP3    H272509   5.996   1.907   2.022  2.6006  0.6898 -0.0791
17032TIP3   OH272510   4.085   1.030   5.530 -0.0745  0.1083  0.2819
17032TIP3    H172511   4.160   1.001   5.478  1.4695  2.6960  0.8356
17032TIP3    H272512   4.030   1.078   5.468  1.0390  1.9516  0.6167
17033TIP3   OH272513   4.570   4.361  14.390 -0.1244  0.5878 -0.3153
17033TIP3    H172514   4.541   4.308  14.316  0.1131 -1.3061  0.8550
17033TIP3    H272515   4.639   4.308  14.430 -0.8330  1.1373  1.7418
17034TIP3   OH272516   0.827   5.125   3.286 -0.0548  0.5778  0.4804
17034TIP3    H172517   0.817   5.164   3.199 -0.5993  0.3755  0.4530
17034TIP3    H272518   0.920   5.103   3.291  0.8637  4.0460  1.4000
17035TIP3   OH272519   2.211   2.870   5.272  0.6552 -0.7370 -0.0549
17035TIP3    H172520   2.241   2.780   5.286 -0.3535 -1.0991 -0.1404
17035TIP3    H272521   2.123   2.871   5.310 -0.8653 -0.8206 -3.2658
17036TIP3   OH272522   3.713   1.300  16.599  0.0609 -0.5209 -0.5793
17036TIP3    H172523   3.804   1.328  16.610 -0.8069  2.6343 -0.3953
17036TIP3    H272524   3.676   1.365  16.539 -1.7826 -2.5137 -1.7311
17037TIP3   OH272525   4.276   0.738  14.355 -0.4393  0.3060 -0.0145
17037TIP3    H172526   4.246   0.683  14.282 -1.0919  0.6545 -0.0107
17037TIP3    H272527   4.293   0.823  14.315 -1.6590  0.7559  0.3890
17038TIP3   OH272528   5.812   1.343  14.492 -0.0228  0.3490  0.0149
17038TIP3    H172529   5.895   1.377  14.458  2.5417 -0.5777  4.5696
17038TIP3    H272530   5.800   1.259  14.447  2.0730  0.0514 -0.0846
17039TIP3   OH272531   1.699   2.087  17.217  0.1479 -0.4207  0.4985
17039TIP3    H172532   1.732   2.089  17.127 -1.5815  4.6506 -0.3490
17039TIP3    H272533   1.769   2.126  17.270  0.1711 -1.0605  0.9584
17040TIP3   OH272534   4.873   4.684  12.083  0.1004 -0.3945  0.0426
17040TIP3    H172535   4.877   4.720  11.995  2.1852 -0.5884  0.0156
17040TIP3    H272536   4.951   4.718  12.127 -1.1928  0.2122  2.0430
17041TIP3   OH272537   0.658   2.203  11.342 -0.6250 -0.5151 -0.1188
17041TIP3    H172538   0.621   2.137  11.283  0.1651 -1.7431  0.7237
17041TIP3    H272539   0.609   2.194  11.423 -1.3318  0.7955 -0.3658
17042TIP3   OH272540   1.054   5.305   1.722  0.2872  0.1825  0.1007
17042TIP3    H172541   0.971   5.349   1.736 -0.1843 -0.6559  0.0120
17042TIP3    H272542   1.036   5.213   1.742  0.7131 -0.3254 -1.6889
17043TIP3   OH272543   5.875   4.845  12.885 -0.4568  0.4959 -0.4588
17043TIP3    H172544   5.880   4.919  12.825  0.0026 -0.0944 -1.1670
17043TIP3    H272545   5.944   4.860  12.949 -0.4558  0.7465 -0.5196
17044TIP3   OH272546   0.237   0.789  16.486 -0.1623 -0.7948  0.0656
17044TIP3    H172547   0.208   0.739  16.409  1.0335 -1.1438 -0.1730
17044TIP3    H272548   0.329   0.809  16.469  0.5021 -1.9512  1.9434
17045TIP3   OH272549   4.346   2.266  16.166  0.2754 -0.2214  0.0304
17045TIP3    H172550   4.372   2.319  16.241 -0.2252 -0.1481  0.1500
17045TIP3    H272551   4.290   2.198  16.202 -0.2111 -0.0076 -0.3137
17046TIP3   OH272552   4.399   0.987  13.147  0.0172  0.6976  0.1951
17046TIP3    H172553   4.421   1.022  13.233  0.6814  1.5816 -0.3094
17046TIP3    H272554   4.319   0.937  13.160  0.4165  0.3546  1.4306
17047TIP3   OH272555   2.980   2.775   1.589 -0.0946  0.5223 -0.7807
17047TIP3    H172556   3.049   2.779   1.522  1.0461 -1.1413  0.2233
17047TIP3    H272557   3.003   2.844   1.651  0.2267  0.4888 -0.8591
17048TIP3   OH272558   1.644   1.970  15.739 -0.0281  0.2665 -0.7538
17048TIP3    H172559   1.619   1.890  15.786 -0.1566 -0.1945 -1.5871
17048TIP3    H272560   1.681   1.939  15.656  0.6844  1.0464 -0.7467
17049TIP3   OH272561   3.056   4.099  16.791  0.3061 -0.1860 -0.2493
17049TIP3    H172562   3.138   4.133  16.755  0.2563  0.2344  0.0274
17049TIP3    H272563   3.082   4.055  16.872  0.3057 -0.3745 -0.3518
17050TIP3   OH272564   1.370   1.610   3.245 -0.1168 -0.1193 -0.1286
17050TIP3    H172565   1.393   1.687   3.296  2.1603  0.6266 -2.0520
17050TIP3    H272566   1.302   1.566   3.295 -1.5218  3.1174  1.0471
17051TIP3   OH272567   4.083   6.047  12.369  0.0645 -0.1707  0.2050
17051TIP3    H172568   4.017   6.105  12.405 -0.5153 -0.5196 -0.2811
17051TIP3    H272569   4.160   6.103  12.357 -0.5269  0.5431 -0.3860
17052TIP3   OH272570   4.441   5.960   1.018  0.2195 -0.1037  0.2204
17052TIP3    H172571   4.425   6.049   0.985 -0.6889 -0.1177  0.5862
17052TIP3    H272572   4.514   5.970   1.079 -0.5196  0.5847  1.0226
17053TIP3   OH272573   5.723   4.072  15.609 -0.1398 -0.1188 -0.4863
17053TIP3    H172574   5.763   4.081  15.522 -1.4638  0.7948 -1.0420
17053TIP3    H272575   5.791   4.102  15.670  0.7420 -0.6017 -1.2092
17054TIP3   OH272576   2.095   2.022  12.690 -0.2762 -0.4176 -0.3316
17054TIP3    H172577   2.118   2.093  12.631 -0.1474  0.7481  1.0726
17054TIP3    H272578   2.023   2.056  12.743  1.7835 -0.0819  2.4918
17055TIP3   OH272579   0.820   5.889  17.368 -0.0518  0.5534 -0.3398
17055TIP3    H172580   0.764   5.850  17.301  0.3378  1.1548 -1.0367
17055TIP3    H272581   0.873   5.952  17.320  1.9639 -0.7197  0.1141
17056TIP3   OH272582   4.987   1.825   5.412 -0.3736 -0.1014 -0.2904
17056TIP3    H172583   4.904   1.830   5.365 -0.2120 -3.3557 -1.2149
17056TIP3    H272584   5.052   1.807   5.344  0.2899 -2.2550  0.8053
17057TIP3   OH272585   6.563   5.715  12.387  0.2189 -0.3702 -0.8947
17057TIP3    H172586   6.486   5.743  12.336  0.0576  0.9975  0.0460
17057TIP3    H272587   6.531   5.641  12.439 -1.0545  1.2787  0.8299
17058TIP3   OH272588   0.042   0.171   3.923 -0.6997  0.1390 -0.6026
17058TIP3    H172589   0.057   0.265   3.916  2.5588 -0.3023 -1.1005
17058TIP3    H272590  -0.006   0.148   3.843 -0.9293  1.2813 -0.8070
17059TIP3   OH272591   5.818   1.643  12.558  0.5576  0.6708  0.2540
17059TIP3    H172592   5.893   1.697  12.581  0.6212  0.4031  0.6941
17059TIP3    H272593   5.747   1.674  12.615 -0.4459  2.7026 -1.9523
17060TIP3   OH272594   5.554   0.457   3.483 -0.0521  0.1429 -0.0056
17060TIP3    H172595   5.524   0.368   3.498  2.3267 -0.5442  1.1970
17060TIP3    H272596   5.569   0.462   3.388 -1.8127 -0.1206 -0.3345
17061TIP3   OH272597   2.230   6.471   6.301  0.3387 -0.5290  0.4170
17061TIP3    H172598   2.262   6.496   6.214 -0.6831  3.3481  0.9461
17061TIP3    H272599   2.310   6.455   6.351  1.0510 -0.4529 -0.6533
17062TIP3   OH272600   3.486   5.357   5.370  0.7919 -0.0589 -0.0721
17062TIP3    H172601   3.575   5.328   5.389  0.6628  0.1901  0.9754
17062TIP3    H272602   3.494   5.452   5.362  0.6590 -0.0626 -0.2635
17063TIP3   OH272603   6.419   1.819   2.580 -0.3181  0.2411  0.1133
17063TIP3    H172604   6.462   1.757   2.639  0.7846  0.7702 -0.1037
17063TIP3    H272605   6.477   1.824   2.505 -0.8405  0.8822 -0.2566
17064TIP3   OH272606   4.561   6.416  15.913  0.3880 -0.0369 -0.0985
17064TIP3    H172607   4.646   6.376  15.928  1.4967  2.3005  0.3068
17064TIP3    H272608   4.568   6.456  15.826 -0.8325 -0.9806 -0.6778
17065TIP3   OH272609   3.845   0.552   3.684 -0.3130  0.0579 -0.0048
17065TIP3    H172610   3.920   0.509   3.724  0.2283 -1.0007 -2.0243
17065TIP3    H272611   3.772   0.492   3.700 -0.1107 -0.3368 -0.5701
17066TIP3   OH272612   1.565   2.643  14.253 -0.3534 -0.2244 -0.7048
17066TIP3    H172613   1.582   2.550  14.262 -0.7446 -0.2408 -0.0562
17066TIP3    H272614   1.530   2.653  14.164 -2.7058 -1.0947  0.0581
17067TIP3   OH272615   6.343   3.012  16.072 -0.6661 -0.2214  0.1807
17067TIP3    H172616   6.358   2.972  15.986  1.7789 -0.6412  0.7146
17067TIP3    H272617   6.300   3.095  16.053  0.9336  0.2821 -1.6141
17068TIP3   OH272618   5.339   1.931  15.796  0.3934 -0.3484 -0.1318
17068TIP3    H172619   5.359   1.973  15.880  0.7686  1.2434 -0.9610
17068TIP3    H272620   5.382   1.987  15.731  1.8912 -2.6753 -1.2786
17069TIP3   OH272621   6.071   1.320   0.286 -0.5177  0.3315 -0.2437
17069TIP3    H172622   6.147   1.262   0.281 -0.8275 -0.3552  1.8754
17069TIP3    H272623   6.050   1.340   0.195  3.0407  1.7272 -0.9439
17070TIP3   OH272624   0.981   1.579  13.720 -0.5975  0.5304 -0.2108
17070TIP3    H172625   0.958   1.668  13.694  0.8838  0.6721 -1.1611
17070TIP3    H272626   0.916   1.524  13.676 -1.1827  1.1036 -0.0783
17071TIP3   OH272627   3.649   6.533   5.620  0.0046  0.0167 -0.4776
17071TIP3    H172628   3.688   6.577   5.696  0.5711 -0.9272 -0.2051
17071TIP3    H272629   3.644   6.441   5.646  0.1831 -0.3127 -1.5777
17072TIP3   OH272630   2.086   5.668  13.470  0.0034  0.4309  0.6199
17072TIP3    H172631   2.113   5.584  13.432  1.3379  1.5205 -1.0010
17072TIP3    H272632   2.128   5.670  13.556  1.1437  0.0200  0.0955
17073TIP3   OH272633   0.183   0.624  11.891  0.2551 -0.2645  0.1337
17073TIP3    H172634   0.129   0.654  11.964  1.1387 -2.1043  1.6395
17073TIP3    H272635   0.126   0.567  11.840  0.1117 -0.3136  0.3507
17074TIP3   OH272636   6.584   1.739   2.372  0.0000  0.3404  0.2449
17074TIP3    H172637   6.590   1.663   2.430  0.1926  0.9429  1.0393
17074TIP3    H272638   6.597   1.703   2.285 -3.2226 -1.0588  0.1944
17075TIP3   OH272639   0.870   2.160  11.516 -0.6241 -0.3537  0.1148
17075TIP3    H172640   0.811   2.185  11.445 -0.6077 -0.6269  0.0048
17075TIP3    H272641   0.912   2.080  11.486  1.7914  1.2100 -0.9585
17076TIP3   OH272642   4.667   4.519   6.150 -0.7693 -0.3288  0.0761
17076TIP3    H172643   4.668   4.431   6.113 -0.1471 -1.0137  1.6303
17076TIP3    H272644   4.581   4.527   6.192 -1.0311  0.0143 -0.5162
17077TIP3   OH272645   2.730   1.265   4.363  0.3620  0.5838 -0.4318
17077TIP3    H172646   2.822   1.266   4.336 -0.1117 -0.7793 -2.3085
17077TIP3    H272647   2.695   1.347   4.328  0.8755  1.2333  0.5087
17078TIP3   OH272648   1.181   5.560   1.200  0.4091  0.5947 -0.4457
17078TIP3    H172649   1.182   5.539   1.106  1.5267 -0.8718 -0.1320
17078TIP3    H272650   1.106   5.619   1.210  0.7588  1.4427 -2.3877
17079TIP3   OH272651   1.182   6.261   1.416 -0.0056  0.0802  0.1278
17079TIP3    H172652   1.175   6.227   1.506 -0.4151  1.5825  0.7011
17079TIP3    H272653   1.115   6.330   1.412  1.8490  1.9592 -0.4111
17080TIP3   OH272654   5.393   5.966   4.521  0.1097 -0.2009 -0.5118
17080TIP3    H172655   5.365   6.055   4.541  1.7691  0.2934 -0.2648
17080TIP3    H272656   5.329   5.934   4.457  0.7503  1.9665 -2.3573
17081TIP3   OH272657   1.372   6.636  14.695  0.2002 -0.1686 -0.4324
17081TIP3    H172658   1.410   6.599  14.616 -0.3706 -0.4843 -0.5641
17081TIP3    H272659   1.322   6.712  14.665 -1.4350 -1.2570 -0.6384
17082TIP3   OH272660   6.351   2.964   1.401  0.3421 -0.2175  0.1362
17082TIP3    H172661   6.347   3.054   1.369  2.6938  0.2637  0.9889
17082TIP3    H272662   6.306   2.912   1.334 -0.4392  1.4952 -0.7084
17083TIP3   OH272663   4.206   5.881  16.995 -0.1081  0.4059 -0.0513
17083TIP3    H172664   4.274   5.905  16.933 -0.5710  0.3053 -0.6014
17083TIP3    H272665   4.187   5.789  16.977  0.6797 -0.0182  1.1293
17084TIP3   OH272666   3.371   5.587  11.403  0.1525 -0.3768  0.1480
17084TIP3    H172667   3.408   5.593  11.316  3.5906  1.7036  1.5377
17084TIP3    H272668   3.316   5.665  11.412 -1.4343 -1.3666 -0.5667
17085TIP3   OH272669   3.111   1.867  14.151 -0.5191  0.0759 -0.1875
17085TIP3    H172670   3.132   1.943  14.206 -2.2554  0.2535  0.3094
17085TIP3    H272671   3.169   1.875  14.076 -1.4351  2.6133 -0.7370
17086TIP3   OH272672   4.550   6.001   1.619  0.3452  0.0408  0.1060
17086TIP3    H172673   4.628   5.962   1.582  0.0256 -0.8403  0.3383
17086TIP3    H272674   4.478   5.945   1.590 -0.3988  1.6506 -1.3190
17087TIP3   OH272675   1.222   4.845  14.618 -0.2209  0.1737 -0.5101
17087TIP3    H172676   1.275   4.909  14.571  1.0024  0.1303  0.7345
17087TIP3    H272677   1.283   4.773  14.638 -0.5028  0.4479  1.6012
17088TIP3   OH272678   0.243   0.315   3.241 -0.5698  0.1277 -0.0321
17088TIP3    H172679   0.304   0.354   3.304 -1.5050  0.4223  0.7032
17088TIP3    H272680   0.157   0.325   3.281 -0.9855 -1.4815 -0.4456
17089TIP3   OH272681   5.818   6.552   3.329 -0.4059  0.2515 -0.1486
17089TIP3    H172682   5.817   6.469   3.280 -2.2954 -0.6681  1.2990
17089TIP3    H272683   5.725   6.575   3.339  0.0609  2.1372  0.1650
17090TIP3   OH272684   0.060   0.313  12.075 -0.4230  0.1315 -0.2108
17090TIP3    H172685   0.089   0.282  11.989  2.6266  1.8198  0.0442
17090TIP3    H272686   0.054   0.408  12.065  0.2013  0.3873  1.4420
17091TIP3   OH272687   1.778   5.103   5.757  0.2226  0.3729  0.4132
17091TIP3    H172688   1.693   5.071   5.787 -0.0373 -0.3492 -1.0061
17091TIP3    H272689   1.824   5.128   5.837 -1.4618  1.1545  1.1876
17092TIP3   OH272690   4.288   3.145  16.133 -0.3178  0.3472 -0.5135
17092TIP3    H172691   4.282   3.117  16.042 -1.6521  0.6659 -0.5451
17092TIP3    H272692   4.222   3.093  16.179 -1.5723  2.0887 -0.2428
17093TIP3   OH272693   5.414   0.049   4.507  0.0205 -0.4793  0.5205
17093TIP3    H172694   5.428   0.121   4.569 -0.9627 -0.8580  1.1958
17093TIP3    H272695   5.404  -0.028   4.562 -0.5313 -0.8754 -0.1249
17094TIP3   OH272696   2.611   3.761  16.393 -0.3103 -0.0013 -0.1219
17094TIP3    H172697   2.607   3.777  16.487 -1.0116 -3.0556  0.4615
17094TIP3    H272698   2.699   3.729  16.378 -0.3736 -0.0447 -0.4067
17095TIP3   OH272699   4.956   4.699   2.749  0.2948 -0.3487  0.0182
17095TIP3    H172700   4.964   4.695   2.844  1.0909  0.0338 -0.0246
17095TIP3    H272701   4.999   4.780   2.724  1.7330 -1.3207 -0.8187
17096TIP3   OH272702   0.509   5.576   5.275  0.3600  0.1600  0.0572
17096TIP3    H172703   0.559   5.589   5.355 -0.1176 -0.3442  0.4472
17096TIP3    H272704   0.564   5.612   5.205  1.1070 -0.0901  0.5140
17097TIP3   OH272705   1.286   6.422  11.249  0.6839  0.1703 -0.0761
17097TIP3    H172706   1.267   6.431  11.156  0.8471  2.5663  0.0778
17097TIP3    H272707   1.203   6.443  11.293  0.5895 -0.9996  0.3601
17098TIP3   OH272708   2.026   6.098   4.741  0.5288 -0.1953 -0.2207
17098TIP3    H172709   2.084   6.104   4.817  2.0393  0.7782 -1.3967
17098TIP3    H272710   1.949   6.147   4.766 -0.3436 -2.3676  1.7707
17099TIP3   OH272711   4.170   5.544  14.892  0.3759 -0.1896  0.1642
17099TIP3    H172712   4.231   5.599  14.843 -0.4907  1.5343  0.9062
17099TIP3    H272713   4.150   5.595  14.971 -1.8472 -0.7521  0.0475
17100TIP3   OH272714   0.940   4.327   0.878 -0.4955 -0.0097 -0.0471
17100TIP3    H172715   0.931   4.344   0.784 -1.4396 -2.1886 -0.4337
17100TIP3    H272716   1.011   4.263   0.883 -0.7875 -0.2908  0.6419
17101TIP3   OH272717   4.446   2.092   6.273  0.5927 -0.4365 -0.3131
17101TIP3    H172718   4.453   2.169   6.217 -0.1860 -1.4656 -1.9098
17101TIP3    H272719   4.426   2.127   6.360 -1.1023  1.1339 -1.2524
17102TIP3   OH272720   1.281   0.976  11.205  0.6194 -0.0841 -0.3042
17102TIP3    H172721   1.327   0.971  11.121 -0.7921  0.7364 -1.1513
17102TIP3    H272722   1.190   0.956  11.184 -0.0422  1.6078  0.7579
17103TIP3   OH272723   2.970   6.641   6.583 -0.4720  0.1905 -0.2981
17103TIP3    H172724   3.033   6.704   6.548 -1.0968  0.9555 -0.1008
17103TIP3    H272725   2.909   6.695   6.634 -1.6783 -0.4126 -1.0560
17104TIP3   OH272726   4.656   3.283  11.830 -0.2114 -0.5150  0.4882
17104TIP3    H172727   4.697   3.227  11.895 -1.3777 -2.0795 -0.0634
17104TIP3    H272728   4.577   3.316  11.872 -1.1725 -1.8403 -0.2126
17105TIP3   OH272729   5.705   4.514   1.727  0.3718 -0.1990 -0.5689
17105TIP3    H172730   5.678   4.443   1.785  1.8566  0.3553  0.8634
17105TIP3    H272731   5.801   4.509   1.725  0.5352  1.8423 -0.2834
17106TIP3   OH272732   6.065   0.497   5.027  0.0179  0.0135  0.1789
17106TIP3    H172733   6.104   0.482   5.113  0.6365  0.7498  0.0391
17106TIP3    H272734   6.062   0.592   5.018 -1.1854 -0.0312 -0.1099
17107TIP3   OH272735   5.846   6.315   2.537 -0.2358  0.3059  0.0132
17107TIP3    H172736   5.882   6.400   2.562  0.1810 -0.5477  2.7164
17107TIP3    H272737   5.751   6.327   2.543 -0.1755  0.5689  0.5897
17108TIP3   OH272738   2.013   3.689  11.467 -0.1328  0.4094 -0.0698
17108TIP3    H172739   2.055   3.750  11.407  2.1878 -0.9709  0.0247
17108TIP3    H272740   2.027   3.603  11.427  0.2892 -0.4212  1.7547
17109TIP3   OH272741   4.653   0.503  14.190  0.4582  0.3601  0.2858
17109TIP3    H172742   4.596   0.440  14.235  0.9564  0.1776  0.6732
17109TIP3    H272743   4.595   0.549  14.130 -0.0977  0.1638  0.6626
17110TIP3   OH272744   2.623   1.220   5.464 -0.3883 -0.3061 -0.4211
17110TIP3    H172745   2.617   1.273   5.385  1.3093  0.4497 -0.0866
17110TIP3    H272746   2.683   1.267   5.520 -1.8639 -0.6164  1.5273
17111TIP3   OH272747   2.692   0.875   3.963 -0.1432 -0.3716  0.2602
17111TIP3    H172748   2.744   0.796   3.976 -0.3222 -0.2883  1.5887
17111TIP3    H272749   2.644   0.859   3.882  0.6378 -1.1663 -0.0575
17112TIP3   OH272750   5.409   5.774   2.164  0.2780 -0.3172  0.2744
17112TIP3    H172751   5.488   5.822   2.139  0.1462  0.4697  1.2847
17112TIP3    H272752   5.436   5.717   2.236  0.1971 -0.9807 -0.2162
17113TIP3   OH272753   5.165   5.844  13.161  0.4313 -0.2469 -0.6554
17113TIP3    H172754   5.081   5.855  13.115  0.6298  0.6446 -0.8329
17113TIP3    H272755   5.202   5.933  13.164  0.8748 -0.4499  0.3674
17114TIP3   OH272756   5.120   6.630   1.379  0.5172  0.0925 -0.3806
17114TIP3    H172757   5.209   6.650   1.353 -0.0233  1.5138 -1.2070
17114TIP3    H272758   5.082   6.714   1.404 -0.8059 -0.3781 -0.7181
17115TIP3   OH272759   1.881   5.909  16.075  0.0527  0.1412 -0.4497
17115TIP3    H172760   1.889   5.816  16.055 -0.3885  0.0493 -0.2119
17115TIP3    H272761   1.857   5.950  15.991  0.4606  0.0743 -0.6012
17116TIP3   OH272762   1.489   2.084   1.586 -0.7576 -0.2574  0.0069
17116TIP3    H172763   1.419   2.075   1.651 -0.4715 -0.2356  0.3229
17116TIP3    H272764   1.451   2.138   1.516 -0.8225  0.3771  0.5189
17117TIP3   OH272765   0.967   2.840  17.224  0.0848  0.1738 -0.0779
17117TIP3    H172766   1.037   2.775  17.231  0.4637  0.6759  0.9907
17117TIP3    H272767   0.914   2.827  17.302 -0.2828  0.6414 -0.2412
17118TIP3   OH272768   3.102   3.937   5.942  0.0028  0.0216  1.1180
17118TIP3    H172769   3.038   3.924   6.012 -1.1617  1.5190  0.3910
17118TIP3    H272770   3.052   3.928   5.861  0.9951 -0.0681  0.4889
17119TIP3   OH272771   1.068   0.724  11.523 -0.6373  0.7660 -0.2866
17119TIP3    H172772   1.054   0.632  11.503  2.0418 -0.2138  1.6985
17119TIP3    H272773   1.019   0.740  11.603 -0.1394  0.6868  0.0421
17120TIP3   OH272774   0.481   4.394   0.331 -0.8051  0.7687  0.8522
17120TIP3    H172775   0.403   4.426   0.375 -0.9099  1.6242  0.0606
17120TIP3    H272776   0.500   4.459   0.264 -1.2263 -0.9394 -1.0403
17121TIP3   OH272777   5.242   0.428   5.741  0.1828  0.3317  0.1169
17121TIP3    H172778   5.278   0.339   5.738 -0.2568  0.1723 -0.7170
17121TIP3    H272779   5.151   0.417   5.715  0.0413  0.9884  0.3346
17122TIP3   OH272780   4.474   2.379  16.633  0.2225 -0.5419 -0.1484
17122TIP3    H172781   4.481   2.465  16.675  2.4440 -1.2304  1.0460
17122TIP3    H272782   4.424   2.395  16.553  1.9697  2.1996 -0.8046
17123TIP3   OH272783   2.176   5.122   3.402  0.3953 -0.0727 -0.3394
17123TIP3    H172784   2.153   5.132   3.310 -0.6225  0.2321 -0.0674
17123TIP3    H272785   2.131   5.042   3.430  1.7855 -0.9185 -0.4232
17124TIP3   OH272786   4.383   5.986  15.781  0.0720  0.7656 -0.1076
17124TIP3    H172787   4.448   5.999  15.713  0.1459 -0.7243 -0.3480
17124TIP3    H272788   4.320   5.925  15.744 -0.2461  0.4435  0.9141
17125TIP3   OH272789   5.829   1.291  16.210 -0.0485 -0.1263  0.4646
17125TIP3    H172790   5.900   1.228  16.218 -0.7609 -1.0981 -0.5000
17125TIP3    H272791   5.859   1.354  16.145  0.3020  0.0128  0.7592
17126TIP3   OH272792   1.931   0.797   6.929 -0.2654 -0.1316  0.2546
17126TIP3    H172793   1.861   0.738   6.902 -0.0773 -0.9734  1.5246
17126TIP3    H272794   2.004   0.740   6.950  0.7833  0.7277 -0.8995
17127TIP3   OH272795   3.954   2.402   4.677 -0.7434  0.2793  0.0161
17127TIP3    H172796   3.905   2.321   4.694 -0.3508  0.0404  0.0061
17127TIP3    H272797   4.010   2.382   4.602 -0.7589  0.6086 -0.0841
17128TIP3   OH272798   3.970   0.587   4.490  0.6000  0.6117  0.3210
17128TIP3    H172799   3.982   0.680   4.473 -1.2560  0.9087  0.4142
17128TIP3    H272800   3.950   0.548   4.404  1.7674  0.2002  0.2139
17129TIP3   OH272801   1.579   4.274   0.511  0.6342  0.0564 -0.1243
17129TIP3    H172802   1.523   4.339   0.554 -0.1106  0.2336 -1.2884
17129TIP3    H272803   1.653   4.263   0.570 -0.1840  0.5081  1.0297
17130TIP3   OH272804   2.524   1.835  13.177  0.8359 -0.0243  0.2766
17130TIP3    H172805   2.477   1.918  13.168  1.2382  0.3252  1.2591
17130TIP3    H272806   2.496   1.800  13.262  3.4989  0.9785  1.6961
17131TIP3   OH272807   5.093   5.390   6.215 -0.5212 -1.0084 -0.1581
17131TIP3    H172808   5.070   5.419   6.303  0.0601  0.9658 -0.6160
17131TIP3    H272809   5.058   5.301   6.209 -2.7808 -0.2899  1.2010
17132TIP3   OH272810   0.956   4.896   6.577  0.4703 -0.1851 -0.0465
17132TIP3    H172811   1.014   4.823   6.600  0.5658 -0.5546 -1.3989
17132TIP3    H272812   0.868   4.861   6.586  0.4828 -0.1293  0.3459
17133TIP3   OH272813   3.224   6.661   3.499  0.3489  0.2193 -0.1304
17133TIP3    H172814   3.239   6.753   3.478  1.4795  0.1647  0.3723
17133TIP3    H272815   3.219   6.618   3.414  0.8827  0.5914 -0.3552
17134TIP3   OH272816   0.444   3.835   2.495  0.1429  0.1306  0.2773
17134TIP3    H172817   0.475   3.829   2.405  1.0862 -0.0105  0.6042
17134TIP3    H272818   0.399   3.752   2.511 -1.5684  0.8290 -0.5994
17135TIP3   OH272819   5.095   0.477  10.769 -0.0304  0.3252  0.1515
17135TIP3    H172820   5.011   0.437  10.744  1.6953 -2.7163 -1.4676
17135TIP3    H272821   5.090   0.486  10.864 -1.7343 -0.9919  0.2404
17136TIP3   OH272822   3.414   3.846  15.658 -0.1076 -0.1851 -0.2408
17136TIP3    H172823   3.442   3.755  15.670 -0.5076 -0.2249  0.4427
17136TIP3    H272824   3.490   3.898  15.685 -0.5292 -0.2971  1.2606
17137TIP3   OH272825   0.358   4.783  16.557  0.0447  0.1431 -0.0890
17137TIP3    H172826   0.280   4.746  16.599  0.0189 -1.3397 -1.3679
17137TIP3    H272827   0.373   4.728  16.480  1.2071  1.6059 -0.9780
17138TIP3   OH272828   3.177   4.125   2.181 -0.4277  0.6921 -0.0032
17138TIP3    H172829   3.136   4.049   2.137 -0.5585  0.3267  0.7343
17138TIP3    H272830   3.105   4.186   2.193 -0.4162  0.7429 -0.1819
17139TIP3   OH272831   4.644   6.731  12.666 -0.0779 -0.3696 -0.1456
17139TIP3    H172832   4.672   6.643  12.692  1.6697 -0.0354 -0.7604
17139TIP3    H272833   4.709   6.790  12.706 -0.8652  0.6028 -0.2525
17140TIP3   OH272834   1.061   5.068   1.356  0.4464 -0.3381 -0.3276
17140TIP3    H172835   0.978   5.101   1.389 -0.0825 -2.6094  0.8619
17140TIP3    H272836   1.119   5.144   1.354 -1.6594  1.3108 -1.2738
17141TIP3   OH272837   1.159   0.185  15.205 -0.4394  0.0329  0.1631
17141TIP3    H172838   1.246   0.209  15.237 -0.1205  0.1706 -0.7792
17141TIP3    H272839   1.147   0.095  15.235 -0.2840  0.2543  0.9240
17142TIP3   OH272840   1.417   5.098   1.203  0.5256  0.6306 -0.3977
17142TIP3    H172841   1.494   5.139   1.163  1.5210 -2.5656 -2.1029
17142TIP3    H272842   1.435   5.098   1.297  2.2580  0.6836 -0.7003
17143TIP3   OH272843   2.782   4.885  10.878  0.2277 -0.0993 -0.4985
17143TIP3    H172844   2.732   4.964  10.862 -0.1378 -0.1305  0.4117
17143TIP3    H272845   2.872   4.908  10.855 -0.0743  0.1905 -1.4154
17144TIP3   OH272846   0.977   1.220   3.966  0.4601 -0.1687 -0.1428
17144TIP3    H172847   0.919   1.144   3.955 -0.7990  0.8191 -0.5921
17144TIP3    H272848   1.020   1.229   3.881  1.2533 -0.8739  0.1752
17145TIP3   OH272849   5.129   2.834   2.809 -0.1222 -0.0687  0.7827
17145TIP3    H172850   5.156   2.892   2.738 -1.8320  0.2638  0.3689
17145TIP3    H272851   5.040   2.808   2.786  0.4524 -2.5906  1.1413
17146TIP3   OH272852   0.747   4.269   3.437  0.0916  0.1285 -0.2543
17146TIP3    H172853   0.740   4.332   3.365 -0.9070 -0.3606 -0.6007
17146TIP3    H272854   0.662   4.273   3.480 -0.2925 -1.5919 -0.7969
17147TIP3   OH272855   3.656   4.261   0.526  0.3443 -0.0595  0.3992
17147TIP3    H172856   3.742   4.278   0.563  0.3726  2.1027 -0.5489
17147TIP3    H272857   3.674   4.225   0.439  0.2521 -1.7591  1.0404
17148TIP3   OH272858   3.149   6.035   3.990 -0.2410 -0.2108  0.3263
17148TIP3    H172859   3.058   6.014   3.969  0.0279 -0.9089 -0.1900
17148TIP3    H272860   3.168   5.982   4.068  0.4837 -2.1251 -1.0648
17149TIP3   OH272861   3.235   5.012  15.312  0.3475  0.3502 -0.2185
17149TIP3    H172862   3.155   5.007  15.259 -0.7753 -1.0171  1.4905
17149TIP3    H272863   3.280   4.929  15.295  0.9854  0.7437 -0.5039
17150TIP3   OH272864   1.406   2.070   1.290 -0.2798 -0.3329 -0.3329
17150TIP3    H172865   1.408   2.150   1.343 -1.0006 -0.0470 -0.7300
17150TIP3    H272866   1.357   2.008   1.344 -0.6297 -0.1788 -0.4702
17151TIP3   OH272867   0.347   0.238   1.782  0.5416  0.0504  0.3632
17151TIP3    H172868   0.319   0.328   1.799 -0.0741  0.2202 -1.3776
17151TIP3    H272869   0.363   0.235   1.688  1.7896 -1.3390  0.5899
17152TIP3   OH272870   5.720   5.266   0.197 -0.3008 -0.5751 -0.1380
17152TIP3    H172871   5.644   5.307   0.154  0.5569  0.8685 -0.3623
17152TIP3    H272872   5.721   5.177   0.164 -1.4697 -0.4030 -0.7064
17153TIP3   OH272873   4.471   6.237  11.723  0.6548 -0.0144  0.4567
17153TIP3    H172874   4.548   6.269  11.770  1.0589 -1.6830  1.0205
17153TIP3    H272875   4.501   6.155  11.682 -0.9873 -1.0694  1.2666
17154TIP3   OH272876   2.131   5.979  13.761 -0.1308  0.2440  0.6100
17154TIP3    H172877   2.140   6.068  13.727  0.0177 -0.4472 -1.2452
17154TIP3    H272878   2.125   5.924  13.683 -1.8858 -1.2201  1.7012
17155TIP3   OH272879   6.288   0.113   4.356  0.4078  0.2340 -0.1658
17155TIP3    H172880   6.342   0.186   4.387  1.8333 -0.5060 -0.8079
17155TIP3    H272881   6.349   0.057   4.308 -0.9710 -0.5752 -1.0438
17156TIP3   OH272882   5.838   3.872   6.302 -0.7386  0.2794  0.0318
17156TIP3    H172883   5.744   3.881   6.321 -0.9758 -2.2018  0.3127
17156TIP3    H272884   5.845   3.788   6.257  1.5160 -0.3608  1.4230
17157TIP3   OH272885   0.394   0.167   5.060 -0.0749  0.5212 -0.3692
17157TIP3    H172886   0.414   0.208   4.976 -0.0427 -0.9787 -1.1250
17157TIP3    H272887   0.411   0.073   5.046  0.1037  0.2550  1.3600
17158TIP3   OH272888   6.151   4.180   5.902 -0.0606 -0.1089  0.2129
17158TIP3    H172889   6.126   4.123   5.975 -1.6062 -2.1188 -1.7702
17158TIP3    H272890   6.078   4.242   5.893  0.9430  1.3389  1.4102
17159TIP3   OH272891   1.645   2.981  16.196  0.3920 -0.3727 -0.0985
17159TIP3    H172892   1.594   2.975  16.276 -0.0684  2.4485 -0.0980
17159TIP3    H272893   1.597   2.927  16.133 -0.9845 -0.1111  0.6841
17160TIP3   OH272894   3.977   0.638  16.226  0.2937 -0.3636 -0.7344
17160TIP3    H172895   4.049   0.579  16.204  1.7335  0.4110  1.4865
17160TIP3    H272896   4.007   0.724  16.198  0.7658  0.1246  1.1171
17161TIP3   OH272897   3.869   0.669  14.687  0.0702 -0.2589 -1.1850
17161TIP3    H172898   3.798   0.717  14.730 -0.3105 -0.1256 -1.9495
17161TIP3    H272899   3.918   0.737  14.640 -2.7904 -0.8975 -5.6591
17162TIP3   OH272900   2.536   0.282  11.922  0.1005 -0.9859 -0.2788
17162TIP3    H172901   2.537   0.376  11.942  1.5958 -0.7377 -1.3271
17162TIP3    H272902   2.621   0.266  11.881  0.0998 -2.9213  0.3907
17163TIP3   OH272903   1.391   6.398  14.804 -0.1527  0.3907  0.1477
17163TIP3    H172904   1.478   6.388  14.843  0.6883 -0.4987 -1.8404
17163TIP3    H272905   1.387   6.490  14.777  0.6980  0.1405 -0.8899
17164TIP3   OH272906   3.535   2.149   0.633 -0.0390  0.4167  0.4709
17164TIP3    H172907   3.615   2.201   0.640 -0.9720  1.9975  0.0676
17164TIP3    H272908   3.560   2.062   0.662  2.6109 -0.0338 -2.5842
17165TIP3   OH272909   5.667   1.167   2.668  0.6855 -0.0283 -0.3310
17165TIP3    H172910   5.696   1.253   2.697 -0.7641  0.3654  0.0524
17165TIP3    H272911   5.630   1.126   2.746 -2.1604  0.5773 -1.2502
17166TIP3   OH272912   3.268   6.515   2.807 -0.2930  0.3469  0.5143
17166TIP3    H172913   3.350   6.471   2.832  0.3390  1.1665 -0.0426
17166TIP3    H272914   3.260   6.588   2.869  1.0215  2.0881 -1.2382
17167TIP3   OH272915   0.187   0.080   3.080  0.3925 -0.1909 -1.1116
17167TIP3    H172916   0.261   0.033   3.118 -1.0598 -2.0562 -0.4037
17167TIP3    H272917   0.188   0.166   3.122  2.0080 -0.2609 -0.9720
17168TIP3   OH272918   2.739   4.767   5.544  0.2546  0.1167  0.4785
17168TIP3    H172919   2.651   4.751   5.511  0.0957  1.1364  0.3731
17168TIP3    H272920   2.760   4.855   5.515  1.1777  0.0200  0.8048
17169TIP3   OH272921   4.509   0.553  15.748 -0.2076  0.0519  0.0464
17169TIP3    H172922   4.579   0.563  15.684  1.0743  0.4025  1.4495
17169TIP3    H272923   4.474   0.465  15.731 -0.5496  0.4831 -1.7111
17170TIP3   OH272924   0.459   2.865   3.010  0.5426 -0.4077  0.0950
17170TIP3    H172925   0.472   2.772   3.028  1.4838 -0.1026  1.0811
17170TIP3    H272926   0.486   2.909   3.091 -0.4018  0.6972 -0.1673
17171TIP3   OH272927   3.100   3.758   1.466 -0.7496  0.3390  0.4089
17171TIP3    H172928   3.176   3.785   1.414 -0.8270 -0.8535 -0.3566
17171TIP3    H272929   3.117   3.794   1.553  2.1317 -2.2015  1.0808
17172TIP3   OH272930   2.448   1.611   5.927  0.1010 -0.1661  0.4052
17172TIP3    H172931   2.397   1.552   5.873  0.1269  2.2590 -2.5148
17172TIP3    H272932   2.383   1.662   5.975 -0.1864  0.9811 -1.1411
17173TIP3   OH272933   4.650   0.471   0.857 -0.1389 -0.1105 -0.1715
17173TIP3    H172934   4.671   0.452   0.765 -1.6486  2.3241 -1.1343
17173TIP3    H272935   4.604   0.393   0.888  0.9718 -1.2359 -1.2491
17174TIP3   OH272936   5.001   0.345  11.934  0.1283  0.2995  0.4031
17174TIP3    H172937   4.910   0.326  11.908  0.3662 -1.0707  0.4915
17174TIP3    H272938   4.993   0.391  12.017 -0.5481  2.1812 -0.6556
17175TIP3   OH272939   6.308   4.756  14.213 -0.0741  0.4978 -0.3336
17175TIP3    H172940   6.239   4.763  14.146  0.1648  1.2463 -0.5176
17175TIP3    H272941   6.330   4.847  14.233 -0.6968  0.3135  1.3584
17176TIP3   OH272942   4.528   5.438  12.831 -0.0812 -0.0537 -0.0444
17176TIP3    H172943   4.610   5.420  12.785  0.5525  0.4456  0.8566
17176TIP3    H272944   4.483   5.501  12.775  0.4835  0.2125 -0.2094
17177TIP3   OH272945   2.163   4.049  12.983  0.1423  0.2221  0.4123
17177TIP3    H172946   2.248   4.031  12.944  0.1090  1.2124 -0.1704
17177TIP3    H272947   2.135   3.965  13.020  0.2651 -0.7348 -1.5407
17178TIP3   OH272948   3.152   6.559  15.030 -0.1607 -0.3433  0.4147
17178TIP3    H172949   3.102   6.543  15.110 -0.4014 -0.9386  0.1487
17178TIP3    H272950   3.125   6.490  14.970 -1.7106  1.4063 -1.0320
17179TIP3   OH272951   5.835   3.950  14.164 -0.6697  0.2278 -0.2040
17179TIP3    H172952   5.783   4.013  14.114 -1.2561 -0.4652 -0.4756
17179TIP3    H272953   5.784   3.869  14.163 -0.1430 -0.1312  0.5350
17180TIP3   OH272954   0.710   5.981   5.707 -0.1361 -0.2171 -0.1483
17180TIP3    H172955   0.745   5.971   5.796 -1.6499 -1.6042  0.3270
17180TIP3    H272956   0.648   6.054   5.714 -0.9100 -0.8937  0.1601
17181TIP3   OH272957   3.024   1.532   4.769 -0.1747 -0.5403 -0.2497
17181TIP3    H172958   3.035   1.439   4.751 -0.7493 -0.5977 -0.3479
17181TIP3    H272959   3.097   1.555   4.826  1.9961 -0.2245 -3.0078
17182TIP3   OH272960   4.775   1.638  11.786  0.4561 -0.3341 -0.1823
17182TIP3    H172961   4.681   1.651  11.803  0.0018 -1.6599 -1.4486
17182TIP3    H272962   4.795   1.699  11.715  0.5060 -0.1746 -0.0302
17183TIP3   OH272963   5.536   6.320   1.653 -0.3317  0.8412  0.5094
17183TIP3    H172964   5.504   6.320   1.743  0.4104  1.8613  0.7848
17183TIP3    H272965   5.482   6.385   1.608 -0.2572  0.8050  0.3663
17184TIP3   OH272966   6.689   2.218  17.098  0.0144 -0.2858  0.6164
17184TIP3    H172967   6.754   2.281  17.067  0.2902 -0.7310  0.2711
17184TIP3    H272968   6.728   2.133  17.079 -0.9963 -0.5668 -0.3349
17185TIP3   OH272969   3.158   3.444  13.986 -0.2357 -0.2237 -0.1207
17185TIP3    H172970   3.199   3.420  14.070  0.6564 -3.0469 -1.2421
17185TIP3    H272971   3.227   3.433  13.921 -1.6043 -0.7635 -1.5562
17186TIP3   OH272972   0.735   0.196   1.620 -0.0673 -0.4580  0.1153
17186TIP3    H172973   0.745   0.285   1.655  1.8831 -0.3549 -0.5552
17186TIP3    H272974   0.724   0.141   1.698  0.1329  0.2175  0.6295
17187TIP3   OH272975   1.221   0.374  12.712 -0.3477 -0.0927  0.1431
17187TIP3    H172976   1.263   0.420  12.639  1.0458 -0.2500  0.8163
17187TIP3    H272977   1.149   0.326  12.671 -1.4244  2.0910 -0.6803
17188TIP3   OH272978   2.755   5.947   5.453  0.0801 -0.2424 -0.6257
17188TIP3    H172979   2.726   5.864   5.491  1.3798 -0.1650  0.6157
17188TIP3    H272980   2.682   6.007   5.466 -1.1463 -1.3257 -2.1412
17189TIP3   OH272981   0.587   5.193   3.715 -0.5623  0.3485 -0.0754
17189TIP3    H172982   0.533   5.179   3.793  0.2663 -1.1425  0.2755
17189TIP3    H272983   0.647   5.263   3.740 -0.9877  0.6143  0.2357
17190TIP3   OH272984   1.554   5.243   4.815 -0.4228  0.0910  0.1107
17190TIP3    H172985   1.478   5.268   4.867  1.0321  0.7480  2.0420
17190TIP3    H272986   1.610   5.194   4.875  0.8842 -0.0161 -1.1238
17191TIP3   OH272987   5.689   3.065  12.994  0.2094 -0.4410  0.7436
17191TIP3    H172988   5.776   3.042  13.028  0.0821 -0.1568  1.2605
17191TIP3    H272989   5.640   2.983  12.996  1.2100 -1.2309 -1.9358
17192TIP3   OH272990   5.315   4.260   4.773 -0.1804 -0.1626  0.2144
17192TIP3    H172991   5.240   4.224   4.726 -1.0015  2.5955 -0.7947
17192TIP3    H272992   5.278   4.331   4.825  1.4842  0.1201  1.0552
17193TIP3   OH272993   2.451   3.398   2.286 -0.4384 -0.6370 -0.4147
17193TIP3    H172994   2.400   3.335   2.337  0.0082 -1.1590 -0.6011
17193TIP3    H272995   2.468   3.353   2.203  2.2580 -1.4199  0.4577
17194TIP3   OH272996   5.543   4.914  16.383  0.5329 -0.2171  0.0174
17194TIP3    H172997   5.605   4.986  16.374  0.5574  0.3659  3.5249
17194TIP3    H272998   5.598   4.835  16.383  0.9059  0.0400 -0.1573
17195TIP3   OH272999   5.408   4.842   3.077  0.0339  0.1693 -0.0831
17195TIP3    H173000   5.359   4.803   3.004  0.7677  0.0462 -0.5189
17195TIP3    H273001   5.386   4.935   3.073  0.5563  0.2762 -0.8723
17196TIP3   OH273002   1.051   6.579   5.376 -0.2683 -0.7616 -0.7172
17196TIP3    H173003   1.092   6.570   5.289 -1.3273 -1.4923 -1.1680
17196TIP3    H273004   1.019   6.491   5.396  0.0520 -0.6235  0.4788
17197TIP3   OH273005   3.151   4.922  13.036 -0.8214  0.0442  0.2136
17197TIP3    H173006   3.187   4.969  12.960  0.0494  0.7237  1.0290
17197TIP3    H273007   3.196   4.837  13.035 -0.0082  0.4624  0.5820
17198TIP3   OH273008   6.462   2.700  15.414  0.5649  0.1371 -0.3383
17198TIP3    H173009   6.420   2.634  15.469 -2.3172  1.7274 -0.4411
17198TIP3    H273010   6.463   2.661  15.326 -4.1787  1.2155 -1.1249
17199TIP3   OH273011   3.977   3.381   0.754 -0.0169  0.1132 -0.3954
17199TIP3    H173012   4.027   3.366   0.674 -0.4571 -0.8054 -0.5123
17199TIP3    H273013   3.904   3.437   0.726  0.1477  0.2737 -0.5101
17200TIP3   OH273014   1.477   5.965   5.133  0.0944 -0.5031  0.8442
17200TIP3    H173015   1.419   6.034   5.165  1.6933  0.4836  1.7435
17200TIP3    H273016   1.559   5.978   5.181  1.2452 -1.5368 -0.7359
17201TIP3   OH273017   4.340   1.309   6.088  0.1273  0.0006  0.0877
17201TIP3    H173018   4.324   1.250   6.162  0.1824  1.2027  1.0947
17201TIP3    H273019   4.404   1.264   6.034 -0.5351 -1.2664  0.3329
17202TIP3   OH273020   1.385   0.611   4.603 -0.2773 -0.0309  0.7003
17202TIP3    H173021   1.456   0.624   4.666 -0.5140  0.2782  0.9081
17202TIP3    H273022   1.350   0.699   4.589 -0.3346 -0.1232  0.2634
17203TIP3   OH273023   2.155   5.973  11.830  0.2759  0.3485  0.0584
17203TIP3    H173024   2.086   5.907  11.832  0.9679 -0.3745  1.2381
17203TIP3    H273025   2.228   5.933  11.878  2.0192  0.5453 -2.2403
17204TIP3   OH273026   1.746   2.470   1.029 -0.2810 -0.2328 -0.2081
17204TIP3    H173027   1.763   2.523   0.951  2.2149 -0.2368  0.2627
17204TIP3    H273028   1.742   2.533   1.101  0.2903 -0.4827  0.0420
17205TIP3   OH273029   6.090   2.478   5.945  0.7193  0.4610  0.4627
17205TIP3    H173030   6.173   2.447   5.908 -0.6094 -0.9225 -1.6079
17205TIP3    H273031   6.086   2.570   5.922  0.1281 -0.2567 -2.7667
17206TIP3   OH273032   6.179   4.958   5.639  0.0761 -0.2110  0.1214
17206TIP3    H173033   6.161   4.910   5.720  1.1148  2.7023  2.2379
17206TIP3    H273034   6.097   5.002   5.618 -0.4430 -1.6299 -0.9745
17207TIP3   OH273035   2.608   3.176  11.224  0.0746 -0.4226  0.0093
17207TIP3    H173036   2.676   3.162  11.158 -0.0237  0.5114 -0.3085
17207TIP3    H273037   2.528   3.190  11.173  0.0391  0.5403  0.3074
17208TIP3   OH273038   1.684   0.730  11.597  0.3712 -0.2664  0.0242
17208TIP3    H173039   1.733   0.787  11.538  1.4190 -1.5536 -0.3807
17208TIP3    H273040   1.656   0.656  11.543 -0.8467 -0.2425  0.5711
17209TIP3   OH273041   1.932   4.596  12.218 -0.5906  0.1714 -0.1563
17209TIP3    H173042   1.915   4.528  12.284  2.2990  0.2728  0.8742
17209TIP3    H273043   1.886   4.673  12.251 -0.2087 -0.1186  1.1334
17210TIP3   OH273044   6.198   6.401   0.945  0.1876  0.5142  0.2065
17210TIP3    H173045   6.132   6.465   0.972 -1.6180 -0.1811 -2.1486
17210TIP3    H273046   6.250   6.446   0.879 -1.8599 -0.6089 -2.3694
17211TIP3   OH273047   3.247   4.274  14.705  0.1769 -0.5396  0.1205
17211TIP3    H173048   3.282   4.277  14.794 -0.8664  0.3730  0.5288
17211TIP3    H273049   3.239   4.366  14.679  1.3989 -0.8097 -1.3238
17212TIP3   OH273050   1.840   0.517   1.882 -0.2218 -0.0464  0.6744
17212TIP3    H173051   1.870   0.492   1.970  0.0861  0.2925  0.6695
17212TIP3    H273052   1.920   0.546   1.838 -0.7280  2.1146  1.0674
17213TIP3   OH273053   5.407   1.686  13.805 -0.1661  0.0883 -1.0191
17213TIP3    H173054   5.346   1.754  13.835  0.9757  0.5021  0.4979
17213TIP3    H273055   5.486   1.734  13.783  0.4553 -0.6770 -0.5041
17214TIP3   OH273056   4.497   2.386   5.717 -0.1443 -0.0135  0.1779
17214TIP3    H173057   4.517   2.435   5.796 -0.5950 -1.2769  1.1178
17214TIP3    H273058   4.402   2.376   5.719  0.0224 -2.0519  0.7758
17215TIP3   OH273059   1.104   5.598   3.379  0.0193 -1.0172 -0.0746
17215TIP3    H173060   1.134   5.514   3.343  0.1379 -0.6014 -0.9793
17215TIP3    H273061   1.009   5.595   3.370 -0.0095 -1.2435  0.3154
17216TIP3   OH273062   6.743   5.119   4.314 -0.0323 -0.0041  0.2981
17216TIP3    H173063   6.727   5.030   4.286 -1.3955  0.4554 -0.4382
17216TIP3    H273064   6.679   5.135   4.383 -0.7298  0.8235 -0.5080
17217TIP3   OH273065   3.252   0.144  11.956 -0.1440 -0.3514 -0.3471
17217TIP3    H173066   3.233   0.109  12.044 -0.1910  0.9514  0.1794
17217TIP3    H273067   3.214   0.232  11.956 -2.3439 -1.1836 -2.5436
17218TIP3   OH273068   2.740   3.445  15.517 -0.3060 -0.2572 -0.1147
17218TIP3    H173069   2.671   3.409  15.461 -1.3369 -1.2794  1.7181
17218TIP3    H273070   2.821   3.423  15.472 -1.0345 -2.4299 -0.4943
17219TIP3   OH273071   3.437   3.137  13.347 -0.2480  0.6910 -0.1442
17219TIP3    H173072   3.399   3.183  13.272 -0.3454 -0.0196 -0.5429
17219TIP3    H273073   3.364   3.122  13.406  0.0599  2.4510  0.7545
17220TIP3   OH273074   1.363   0.859   1.571 -0.1684  0.3272 -0.3940
17220TIP3    H173075   1.367   0.930   1.507 -1.6900  0.1391 -0.7218
17220TIP3    H273076   1.302   0.889   1.638  0.7962  0.1864  0.5826
17221TIP3   OH273077   3.051   5.435  12.438 -0.8706  0.1702  0.6613
17221TIP3    H173078   3.061   5.472  12.351 -0.4190 -0.6471  0.3570
17221TIP3    H273079   3.021   5.345  12.424  0.8488 -0.5395  1.2577
17222TIP3   OH273080   5.525   6.560  11.921 -0.1216  0.8043 -0.0235
17222TIP3    H173081   5.613   6.589  11.898  0.6887 -0.5346  1.1745
17222TIP3    H273082   5.478   6.640  11.943  1.0368  1.4779  0.0784
17223TIP3   OH273083   5.407   6.122   1.260  0.1201 -0.0390  0.6093
17223TIP3    H173084   5.425   6.125   1.166  2.5980  0.1797  1.0325
17223TIP3    H273085   5.343   6.192   1.274  0.8360  0.9232 -0.7060
17224TIP3   OH273086   5.602   2.043  12.629 -0.1259  0.1632 -0.1423
17224TIP3    H173087   5.584   2.021  12.720 -0.0832  1.0850  0.0951
17224TIP3    H273088   5.552   2.123  12.613 -0.5573 -0.2830 -1.0888
17225TIP3   OH273089   1.920   2.332  14.413 -0.1043 -0.0795  0.4947
17225TIP3    H173090   1.918   2.428  14.424  1.6399  0.7138 -4.0587
17225TIP3    H273091   1.991   2.303  14.470  0.5190  1.6346  0.6532
17226TIP3   OH273092   3.760   3.210   4.041  0.5624 -0.2223  0.2086
17226TIP3    H173093   3.677   3.251   4.020  0.3560 -0.0076  1.3576
17226TIP3    H273094   3.825   3.279   4.027  0.3109  0.2554  1.2805
17227TIP3   OH273095   5.930   2.940   2.276  0.4489 -0.3230 -0.3186
17227TIP3    H173096   5.963   3.029   2.287 -0.0203 -0.1485 -0.2985
17227TIP3    H273097   5.930   2.926   2.182 -0.7162  0.1800 -0.4042
17228TIP3   OH273098   0.765   2.741  14.595 -0.5793  0.1878  0.1853
17228TIP3    H173099   0.741   2.759  14.686  1.5973  0.9761  0.6524
17228TIP3    H273100   0.742   2.821  14.548  1.4342  1.1345  0.7213
17229TIP3   OH273101   1.775   1.942  12.519 -0.5147 -0.2049  0.1739
17229TIP3    H173102   1.693   1.940  12.569  0.6042 -1.1198  2.0951
17229TIP3    H273103   1.825   1.867  12.552  1.3575  0.6919 -0.4809
17230TIP3   OH273104   4.742   6.400  12.315 -0.3726  0.1601  0.2090
17230TIP3    H173105   4.712   6.310  12.304 -0.4219  0.2619 -0.5102
17230TIP3    H273106   4.667   6.445  12.356 -2.4547  1.0793 -4.0188
17231TIP3   OH273107   2.860   5.025   1.503 -0.5563 -1.3351  0.1832
17231TIP3    H173108   2.864   5.087   1.576 -0.7515 -0.4135 -0.5669
17231TIP3    H273109   2.773   4.984   1.511  1.1168 -4.9629  3.3551
17232TIP3   OH273110   1.250   0.235  14.091  0.5607 -0.1339  0.1870
17232TIP3    H173111   1.227   0.147  14.061  0.6212  0.4362 -1.6831
17232TIP3    H273112   1.176   0.263  14.144 -0.7381 -0.2838 -1.4838
17233TIP3   OH273113   5.591   1.585  16.461 -0.2352  0.4310 -0.6228
17233TIP3    H173114   5.515   1.606  16.514 -0.5943  0.4116 -1.1225
17233TIP3    H273115   5.643   1.665  16.460 -0.1207  0.3635 -0.0666
17234TIP3   OH273116   2.865   1.842  17.361  0.3833  1.0354 -0.6249
17234TIP3    H173117   2.926   1.898  17.314  0.3966  0.8983 -0.7732
17234TIP3    H273118   2.919   1.767  17.390 -0.1792 -0.3004 -2.8221
17235TIP3   OH273119   0.076   3.500   2.814  0.6566 -0.6279  0.1068
17235TIP3    H173120   0.167   3.512   2.786  0.2166  0.1573 -1.0661
17235TIP3    H273121   0.055   3.411   2.784  0.8044 -0.5213 -0.3341
17236TIP3   OH273122   6.516   4.355  12.119  0.5131 -0.5320  0.2814
17236TIP3    H173123   6.556   4.421  12.062 -0.3400  0.2056  0.5080
17236TIP3    H273124   6.586   4.294  12.138  2.1520  1.7451  2.2540
17237TIP3   OH273125   6.049   0.439  13.665  0.2245  0.0142 -0.4464
17237TIP3    H173126   6.009   0.364  13.707 -0.8814  1.3088  0.8981
17237TIP3    H273127   6.102   0.481  13.733 -0.1356  1.1186 -0.8118
17238TIP3   OH273128   3.894   0.556   5.618  0.0463 -0.0065  0.2025
17238TIP3    H173129   3.894   0.516   5.530 -0.4240 -1.5875  0.8735
17238TIP3    H273130   3.816   0.519   5.660 -0.8822  2.2991  0.6293
17239TIP3   OH273131   2.582   4.745   1.275 -0.6586  0.2763 -0.1257
17239TIP3    H173132   2.676   4.753   1.259 -0.7985  2.1608 -0.2459
17239TIP3    H273133   2.541   4.801   1.209 -1.8015  0.3784  0.6369
17240TIP3   OH273134   3.221   1.069   1.104  0.2194 -0.2324  0.6066
17240TIP3    H173135   3.150   1.081   1.166  0.7049 -0.0820  1.1448
17240TIP3    H273136   3.279   1.144   1.120  0.6379 -0.5024  0.3695
17241TIP3   OH273137   0.161   2.309  12.781 -0.0933  0.4358 -0.2147
17241TIP3    H173138   0.225   2.375  12.755 -0.5785  1.4481  1.0265
17241TIP3    H273139   0.085   2.325  12.725  0.3593 -0.1249 -1.0086
17242TIP3   OH273140   5.783   1.740  17.386  0.3317  0.2754  0.0886
17242TIP3    H173141   5.878   1.745  17.387  0.5004 -1.5075 -1.3100
17242TIP3    H273142   5.760   1.747  17.293 -0.7649 -0.8339  0.2533
17243TIP3   OH273143   4.104   2.706  13.990  0.3408 -0.0958  0.1514
17243TIP3    H173144   4.056   2.770  14.043 -1.1806 -0.8363 -0.2764
17243TIP3    H273145   4.126   2.753  13.909 -0.6279 -0.0519 -0.0946
17244TIP3   OH273146   2.652   4.755   2.169 -0.0667 -0.2831  0.1635
17244TIP3    H173147   2.654   4.713   2.255  1.3193 -1.5983 -0.4535
17244TIP3    H273148   2.668   4.683   2.108  2.8996  1.1573 -0.9195
17245TIP3   OH273149   2.198   4.706  15.911  0.3523 -0.0820 -0.0925
17245TIP3    H173150   2.130   4.658  15.863  0.7585 -0.1450 -0.6057
17245TIP3    H273151   2.280   4.674  15.876  0.6528  0.0890  0.4429
17246TIP3   OH273152   4.182   6.515   2.273  0.2290 -0.1125  0.2507
17246TIP3    H173153   4.209   6.549   2.359  1.1252 -0.9792  0.3267
17246TIP3    H273154   4.250   6.452   2.250 -1.4142 -1.9597  0.1785
17247TIP3   OH273155   4.735   5.844   0.683  0.0275 -0.1190  0.4420
17247TIP3    H173156   4.782   5.879   0.759 -0.3253  1.0923  0.1353
17247TIP3    H273157   4.783   5.880   0.608 -0.8706  0.4303  0.1206
17248TIP3   OH273158   3.604   1.140  11.963 -0.0401  0.1107 -0.0519
17248TIP3    H173159   3.584   1.131  12.056  1.1915  1.6470  0.4239
17248TIP3    H273160   3.546   1.209  11.932  0.3148  0.3776 -0.1349
17249TIP3   OH273161   0.238   2.937  16.623  0.2678  0.3253 -1.0069
17249TIP3    H173162   0.294   2.942  16.545 -0.2744 -0.0559 -1.4263
17249TIP3    H273163   0.232   3.028  16.653  0.0619  0.5555 -1.7162
17250TIP3   OH273164   6.173   4.542  15.005 -0.2141  0.1648 -0.5145
17250TIP3    H173165   6.238   4.477  14.976 -2.6752 -2.1020 -1.4085
17250TIP3    H273166   6.115   4.493  15.063 -1.4366  1.9426 -0.1683
17251TIP3   OH273167   1.010   0.776  14.549 -0.5989 -0.1206  0.4495
17251TIP3    H173168   0.952   0.772  14.473  1.1136 -0.1825 -0.9477
17251TIP3    H273169   0.973   0.844  14.604 -0.8146  1.4089 -1.4638
17252TIP3   OH273170   3.103   5.546   4.218 -0.0531 -0.3368 -0.3035
17252TIP3    H173171   3.069   5.631   4.243 -0.8985 -0.9714  0.8264
17252TIP3    H273172   3.197   5.551   4.238 -0.2089  0.1276  0.3542
17253TIP3   OH273173   4.928   0.711   5.860  0.4479  0.0119 -0.7950
17253TIP3    H173174   4.877   0.677   5.934  0.6393  1.0683 -0.1543
17253TIP3    H273175   5.019   0.698   5.886  0.5751 -2.2085 -2.0932
17254TIP3   OH273176   2.738   0.125   2.750  0.4050  0.2051  0.0696
17254TIP3    H173177   2.746   0.120   2.654  0.3705  1.7647 -0.0565
17254TIP3    H273178   2.648   0.101   2.768  0.2509  0.4344 -0.3638
17255TIP3   OH273179   0.582   1.592   0.092 -0.1504  0.1192 -0.1921
17255TIP3    H173180   0.594   1.687   0.085  1.3059  0.0661  1.0208
17255TIP3    H273181   0.670   1.556   0.076 -0.6501 -1.0167 -0.4867
17256TIP3   OH273182   2.089   0.491  14.007 -0.1178 -0.0482  0.6453
17256TIP3    H173183   2.161   0.536  13.963 -0.5638  0.3945  0.3510
17256TIP3    H273184   2.109   0.398  13.998 -0.0503  0.0457 -0.2413
17257TIP3   OH273185   2.710   3.051  14.190  0.0168 -0.3612  0.0614
17257TIP3    H173186   2.624   3.079  14.159 -0.4498 -4.7030 -3.9288
17257TIP3    H273187   2.770   3.119  14.160 -1.6782  0.8586 -0.7130
17258TIP3   OH273188   0.701   5.520  12.134  0.0610  0.1831  0.0251
17258TIP3    H173189   0.741   5.581  12.073 -1.1840 -0.0178 -1.0478
17258TIP3    H273190   0.773   5.490  12.189  0.9683  1.4200 -0.4380
17259TIP3   OH273191   1.676   5.033  14.521 -0.2158  0.2085  0.2935
17259TIP3    H173192   1.658   5.125  14.540  2.0686  0.6949  0.3848
17259TIP3    H273193   1.753   5.012  14.573 -0.3013 -1.5905 -0.2300
17260TIP3   OH273194   0.066   4.982   0.026 -0.0579 -0.2126 -0.2878
17260TIP3    H173195   0.043   4.918   0.094 -0.7130 -0.9288 -1.1459
17260TIP3    H273196   0.012   5.058   0.046  0.4148 -0.0745  0.5049
17261TIP3   OH273197   3.416   1.378   6.413 -0.1295  0.0633  0.1082
17261TIP3    H173198   3.408   1.457   6.466  1.3686  0.2376  0.1092
17261TIP3    H273199   3.497   1.337   6.443 -0.5601 -1.1557 -0.3248
17262TIP3   OH273200   2.229   5.826  13.226  0.3046  0.0889 -0.5924
17262TIP3    H173201   2.304   5.774  13.253  0.6649  1.1398  0.4980
17262TIP3    H273202   2.163   5.811  13.293  0.3232  0.8300 -0.3924
17263TIP3   OH273203   5.683   6.174  11.461 -0.1391 -0.7687 -0.2385
17263TIP3    H173204   5.753   6.137  11.407  0.3898  1.5098 -1.2013
17263TIP3    H273205   5.606   6.172  11.404 -0.1105 -0.4293 -0.2920
17264TIP3   OH273206   1.697   4.428   1.401 -0.3096 -0.1596  0.0781
17264TIP3    H173207   1.732   4.400   1.486 -2.4470 -1.9414  0.4620
17264TIP3    H273208   1.764   4.402   1.338  0.5700 -0.3350  1.0498
17265TIP3   OH273209   1.216   6.522   0.226  0.1555  0.0552  0.2674
17265TIP3    H173210   1.195   6.615   0.235  0.0246 -0.1450  2.4699
17265TIP3    H273211   1.147   6.487   0.169  0.1881  1.2718 -0.5553
17266TIP3   OH273212   1.516   2.142  16.974 -0.3913  0.1955  0.2709
17266TIP3    H173213   1.553   2.120  17.060 -0.3709  0.8821  0.4456
17266TIP3    H273214   1.516   2.238  16.972 -0.5045  0.1839 -0.4492
17267TIP3   OH273215   3.333   2.280   1.254  0.5589  0.4136  0.3639
17267TIP3    H173216   3.410   2.303   1.201 -0.0335  0.9076 -0.3041
17267TIP3    H273217   3.262   2.270   1.190  0.1557 -0.4576  0.9344
17268TIP3   OH273218   0.039   4.044  15.776 -0.0022 -0.2247 -0.1940
17268TIP3    H173219  -0.029   4.041  15.709  1.1625  2.1849 -1.6191
17268TIP3    H273220   0.115   4.002  15.736  0.3108  0.0295  0.1223
17269TIP3   OH273221   1.051   4.024   1.835 -0.5058  0.4787  0.1327
17269TIP3    H173222   1.075   3.945   1.786  0.2579 -0.8394  2.4595
17269TIP3    H273223   1.129   4.079   1.832 -1.2489  1.5376 -2.0386
17270TIP3   OH273224   6.043   3.580   1.004  0.5031 -0.6500 -0.2612
17270TIP3    H173225   5.969   3.575   0.943 -0.0541 -0.0655  0.3454
17270TIP3    H273226   6.009   3.542   1.085  0.2835  1.2079  0.5524
17271TIP3   OH273227   3.068   0.652   3.615 -0.2937  0.4406 -0.2668
17271TIP3    H173228   3.107   0.567   3.596  0.7747  0.1768  2.6138
17271TIP3    H273229   2.980   0.632   3.646  0.6520  0.0147  2.5112
17272TIP3   OH273230   2.074   2.311  14.016 -0.1211 -0.1337 -0.1274
17272TIP3    H173231   2.145   2.253  14.044  1.2714  2.6410  2.8744
17272TIP3    H273232   1.994   2.264  14.040  0.9134 -1.1768  1.5090
17273TIP3   OH273233   3.401   3.410  12.206 -0.0338 -0.4011 -0.4241
17273TIP3    H173234   3.470   3.470  12.179  1.6913 -1.7548  0.7317
17273TIP3    H273235   3.377   3.363  12.126  0.6154 -0.1100 -0.7977
17274TIP3   OH273236   2.332   0.554  11.698  0.7019  0.3752  0.0909
17274TIP3    H173237   2.277   0.496  11.750 -0.5886 -0.5389 -2.1648
17274TIP3    H273238   2.336   0.635  11.748 -1.7658  0.0620  0.9021
17275TIP3   OH273239   5.637   6.593   2.263 -0.4937 -0.4513 -0.2855
17275TIP3    H173240   5.715   6.624   2.216 -0.2620  0.1204  0.4548
17275TIP3    H273241   5.633   6.648   2.342 -1.4446 -0.7164 -0.1346
17276TIP3   OH273242   0.914   6.001  15.174  0.0745  0.0063 -0.0730
17276TIP3    H173243   0.836   6.042  15.212 -0.3306 -0.1891 -0.6924
17276TIP3    H273244   0.890   5.909  15.164  0.3184 -0.0202 -0.4322
17277TIP3   OH273245   5.552   5.133   0.799 -0.0335  0.2838  0.1464
17277TIP3    H173246   5.588   5.055   0.840 -1.6430 -0.0197  1.0493
17277TIP3    H273247   5.611   5.151   0.725  0.9023 -1.2061  0.4958
17278TIP3   OH273248   3.944   2.412   1.937  0.1451 -0.4901  0.2248
17278TIP3    H173249   3.872   2.358   1.904 -1.0439  0.7492  0.6949
17278TIP3    H273250   3.995   2.434   1.859 -0.4156 -0.7864 -0.2314
17279TIP3   OH273251   5.667   4.971   0.314 -0.6680  0.2028 -0.2811
17279TIP3    H173252   5.609   4.937   0.246  0.5661  1.0955 -1.8629
17279TIP3    H273253   5.744   5.001   0.267  0.8444 -0.3683  1.6833
17280TIP3   OH273254   2.142   4.951  11.383  0.3243 -0.2403  0.0769
17280TIP3    H173255   2.186   5.036  11.375 -2.6674  1.7417  2.5567
17280TIP3    H273256   2.078   4.951  11.312  0.3305 -0.4410  0.0716
17281TIP3   OH273257   5.585   4.014   6.102  0.1748 -0.4971 -0.3371
17281TIP3    H173258   5.508   3.965   6.075  0.6426 -1.7990  0.5944
17281TIP3    H273259   5.601   3.987   6.193 -0.0932  2.1036  0.5926
17282TIP3   OH273260   6.092   3.846   1.180  0.4607 -0.6107 -0.0300
17282TIP3    H173261   6.106   3.811   1.092  0.6076  1.9465 -1.1004
17282TIP3    H273262   6.178   3.879   1.206  0.1220 -0.1351  0.5045
17283TIP3   OH273263   4.828   4.046   2.208 -0.7198  0.2222 -0.2124
17283TIP3    H173264   4.870   4.068   2.125 -1.0546  1.5648 -0.0559
17283TIP3    H273265   4.894   4.069   2.275 -0.5049 -0.7142 -0.0934
17284TIP3   OH273266   2.172   1.537   5.302 -0.0071 -0.4212 -0.8373
17284TIP3    H173267   2.188   1.486   5.381  1.6936 -0.4555 -1.1681
17284TIP3    H273268   2.082   1.517   5.278 -0.6637 -0.1991  1.2334
17285TIP3   OH273269   6.659   0.751  14.981 -0.4526  0.2305 -0.3681
17285TIP3    H173270   6.641   0.657  14.980 -0.9088  0.2980  0.6148
17285TIP3    H273271   6.576   0.791  15.008 -0.1425  0.8901 -0.3716
17286TIP3   OH273272   6.037   4.719   3.760 -0.0964 -0.1170  0.1014
17286TIP3    H173273   5.981   4.789   3.727  1.8230  2.3204  1.6959
17286TIP3    H273274   6.003   4.700   3.847 -1.6385 -2.4834 -0.9222
17287TIP3   OH273275   2.779   1.143   5.113 -0.2060 -0.0759  0.8532
17287TIP3    H173276   2.855   1.104   5.071 -0.3376  0.4732  0.0793
17287TIP3    H273277   2.811   1.225   5.149 -0.4788  0.2616  0.3317
17288TIP3   OH273278   3.696   5.757   1.305 -0.1703  0.6526  0.7707
17288TIP3    H173279   3.781   5.721   1.281  0.9643  3.3583  0.2777
17288TIP3    H273280   3.717   5.830   1.363 -2.2203  0.9694  1.1922
17289TIP3   OH273281   0.678   3.335   0.831  0.3457 -0.3840  0.1177
17289TIP3    H173282   0.758   3.285   0.848  1.3633  1.7067  1.8472
17289TIP3    H273283   0.705   3.426   0.831 -1.9904  0.3887  0.3602
17290TIP3   OH273284   3.639   1.779  16.894  0.0103  0.7303 -0.4267
17290TIP3    H173285   3.665   1.705  16.839 -0.4543 -0.0296  0.3383
17290TIP3    H273286   3.558   1.749  16.937  1.0180  0.7726  1.6236
17291TIP3   OH273287   1.191   0.719   0.593  0.1263  0.7458 -0.6829
17291TIP3    H173288   1.206   0.737   0.500  1.9355  2.0489 -0.1908
17291TIP3    H273289   1.205   0.625   0.602 -2.1981  0.1838 -2.0530
17292TIP3   OH273290   6.240   0.661   1.720  0.3537  0.2283  0.9568
17292TIP3    H173291   6.198   0.708   1.792 -0.6659  0.2035  0.4077
17292TIP3    H273292   6.193   0.577   1.716  0.3792  0.2412  0.2605
17293TIP3   OH273293   5.392   1.988   3.880 -0.1525 -0.5834 -0.1787
17293TIP3    H173294   5.482   1.967   3.857 -0.4907 -1.9558 -0.3782
17293TIP3    H273295   5.343   1.977   3.798 -0.5960 -0.5202  0.0715
17294TIP3   OH273296   3.970   4.938  13.211 -0.0782 -0.6932 -0.3403
17294TIP3    H173297   4.036   4.874  13.182  0.3508 -0.5663  0.3227
17294TIP3    H273298   3.950   4.989  13.133  1.4792  0.0256 -0.3154
17295TIP3   OH273299   4.797   6.415   5.406 -0.1284 -0.1299 -0.0694
17295TIP3    H173300   4.853   6.424   5.329  1.6701 -0.5191  1.1378
17295TIP3    H273301   4.709   6.429   5.372  0.7402  1.5430 -1.8730
17296TIP3   OH273302   5.766   5.603   5.454  0.0833  0.5389  0.2289
17296TIP3    H173303   5.854   5.612   5.491  0.1787  1.1944 -0.1365
17296TIP3    H273304   5.776   5.539   5.384  0.5802  1.5999 -0.7129
17297TIP3   OH273305   4.286   2.550   5.973 -0.0548 -0.1739  0.1282
17297TIP3    H173306   4.276   2.539   5.879  1.1588 -0.4066  0.0082
17297TIP3    H273307   4.262   2.465   6.010  1.8780 -0.8941 -0.1896
17298TIP3   OH273308   4.319   5.780   0.316  0.3019  0.4350 -0.0685
17298TIP3    H173309   4.263   5.782   0.394  1.0337 -0.5142  0.5142
17298TIP3    H273310   4.408   5.772   0.352  0.6374 -0.1369 -1.0126
17299TIP3   OH273311   6.163   2.196   5.592  0.2830 -0.0325  0.5118
17299TIP3    H173312   6.149   2.241   5.508  0.6877 -0.5320  0.1727
17299TIP3    H273313   6.079   2.155   5.612  0.3658 -0.4376  0.0355
17300TIP3   OH273314   5.386   1.415  15.916 -0.7297  0.0984  0.2023
17300TIP3    H173315   5.352   1.449  15.999  1.2031  0.8591  0.7486
17300TIP3    H273316   5.443   1.342  15.941 -0.3343  0.1630 -0.4615
17301TIP3   OH273317   4.012   0.443  14.588  0.0684  0.3764 -0.1833
17301TIP3    H173318   4.026   0.375  14.653 -0.8446 -0.3031 -0.6584
17301TIP3    H273319   3.964   0.512  14.634 -1.2442 -0.4285 -0.2779
17302TIP3   OH273320   4.985   3.714  14.639 -0.3048  0.8021  0.0376
17302TIP3    H173321   5.077   3.690  14.630 -0.4621  0.3937 -0.5794
17302TIP3    H273322   4.967   3.704  14.733 -0.2358 -1.1268 -0.1003
17303TIP3   OH273323   1.235   4.236   4.638  0.3090 -0.1425  0.3658
17303TIP3    H173324   1.168   4.183   4.595 -0.9562  1.3764  0.3928
17303TIP3    H273325   1.318   4.200   4.606 -0.5197 -1.6083 -0.2133
17304TIP3   OH273326   0.898   4.869  11.454 -0.2349  0.5599  0.4048
17304TIP3    H173327   0.840   4.807  11.411  1.4242  0.0697 -1.2665
17304TIP3    H273328   0.845   4.908  11.523 -2.6338  0.3886 -1.2237
17305TIP3   OH273329   2.601   6.666   5.224 -0.2325  0.1954 -0.0917
17305TIP3    H173330   2.529   6.657   5.161  0.0376 -0.7142 -0.2877
17305TIP3    H273331   2.650   6.583   5.216 -0.4600 -0.1312  1.6317
17306TIP3   OH273332   3.858   3.977   4.728  0.0319  0.2035  0.8943
17306TIP3    H173333   3.809   4.041   4.676 -0.0698  1.9539  2.9923
17306TIP3    H273334   3.792   3.929   4.776  0.1468 -1.1889 -0.2622
17307TIP3   OH273335   4.311   1.369  16.030 -0.2676 -0.2368  0.0800
17307TIP3    H173336   4.332   1.286  15.987 -0.9975 -0.0560 -0.6539
17307TIP3    H273337   4.276   1.423  15.960 -0.5727  0.4078  0.7274
17308TIP3   OH273338   6.078   0.766  12.871 -0.1956 -0.3052  0.1601
17308TIP3    H173339   6.159   0.749  12.921 -1.8449 -4.2942  1.9641
17308TIP3    H273340   6.089   0.716  12.791 -0.6305 -0.3866  0.1509
17309TIP3   OH273341   2.668   5.305  16.102 -0.3769  0.2739  0.1172
17309TIP3    H173342   2.589   5.283  16.052 -1.0263  2.0009  0.3126
17309TIP3    H273343   2.699   5.222  16.137 -2.4858 -0.3859  0.5515
17310TIP3   OH273344   1.659   3.376   5.748 -0.3408 -0.1075  0.5342
17310TIP3    H173345   1.653   3.305   5.812  1.6204 -0.3886  0.4501
17310TIP3    H273346   1.683   3.333   5.666 -0.5579  0.5013  0.1443
17311TIP3   OH273347   1.689   5.882   4.169  0.2461  0.2730  0.3842
17311TIP3    H173348   1.647   5.929   4.241 -0.6977 -1.4900  1.0593
17311TIP3    H273349   1.759   5.832   4.210  0.0783 -0.2971 -0.0050
17312TIP3   OH273350   6.147   2.618  10.587 -0.0960  0.6209 -0.3298
17312TIP3    H173351   6.119   2.606  10.677 -0.5920  0.4811 -0.4975
17312TIP3    H273352   6.166   2.530  10.556 -0.7122  0.5823 -0.6075
17313TIP3   OH273353   0.148   1.139   5.914 -0.0675 -0.5914 -0.1315
17313TIP3    H173354   0.098   1.197   5.856  0.6444 -0.2386 -0.4076
17313TIP3    H273355   0.136   1.052   5.876 -0.3611 -0.4887 -0.2757
17314TIP3   OH273356   4.876   2.686   2.908 -0.6172 -0.4170 -0.2557
17314TIP3    H173357   4.805   2.750   2.904 -0.4697 -0.3285 -2.3052
17314TIP3    H273358   4.832   2.601   2.918 -0.9009 -0.1754  0.5625
17315TIP3   OH273359   1.272   4.398   1.748 -0.4277  0.0642  0.2261
17315TIP3    H173360   1.321   4.406   1.667  3.3801  1.7949  2.4738
17315TIP3    H273361   1.243   4.487   1.768 -1.2797 -0.3381  0.8562
17316TIP3   OH273362   6.640   6.299  11.581 -0.4922 -0.0909 -0.2484
17316TIP3    H173363   6.551   6.268  11.599 -0.5064 -0.6090 -1.1164
17316TIP3    H273364   6.694   6.221  11.588 -0.3044 -0.0368 -0.9979
17317TIP3   OH273365   2.830   5.435  11.744  0.1648 -0.5396 -0.2326
17317TIP3    H173366   2.869   5.389  11.669  0.0987 -0.4911 -0.2967
17317TIP3    H273367   2.838   5.528  11.722  3.0863 -0.3463  1.2410
17318TIP3   OH273368   0.824   3.352   4.804 -0.2477 -0.4547 -0.5068
17318TIP3    H173369   0.800   3.281   4.864 -0.8621  0.9446  0.9929
17318TIP3    H273370   0.916   3.369   4.824 -0.9582  1.3700  1.6450
17319TIP3   OH273371   5.539   3.132   5.487 -0.7049 -0.4457  0.4801
17319TIP3    H173372   5.488   3.085   5.421  1.7748 -0.8442 -1.2799
17319TIP3    H273373   5.484   3.130   5.566 -2.5327 -2.4951 -0.7401
17320TIP3   OH273374   2.888   3.246   2.425  0.3655 -0.5882  0.6363
17320TIP3    H173375   2.942   3.325   2.432  0.9680 -1.1578  3.1845
17320TIP3    H273376   2.805   3.270   2.467  0.1927 -1.0126  0.5459
17321TIP3   OH273377   5.462   3.098  15.096 -0.1575 -0.0164  0.0412
17321TIP3    H173378   5.527   3.032  15.075 -0.5255  0.3611 -2.6587
17321TIP3    H273379   5.507   3.182  15.085 -0.4562  0.2331  0.6249
17322TIP3   OH273380   0.756   5.761   0.662  0.2547 -0.5624 -0.4572
17322TIP3    H173381   0.714   5.716   0.736  0.2645 -1.6348 -1.0855
17322TIP3    H273382   0.762   5.852   0.690 -1.7406 -0.5247 -0.0015
17323TIP3   OH273383   1.526   5.547  14.288 -0.5822  0.2733  0.6498
17323TIP3    H173384   1.485   5.634  14.286  0.5838  0.8468  0.6437
17323TIP3    H273385   1.607   5.560  14.338 -0.0509 -0.6552  0.0629
17324TIP3   OH273386   1.256   0.912   6.125 -0.6374  0.6572 -0.6918
17324TIP3    H173387   1.243   0.854   6.200 -2.2116 -0.5118 -1.7983
17324TIP3    H273388   1.187   0.886   6.064 -1.3548  3.6657 -1.2768
17325TIP3   OH273389   6.097   2.895  13.996  0.0315 -0.5668  0.1651
17325TIP3    H173390   6.189   2.909  13.971 -0.3103  2.9503  0.3747
17325TIP3    H273391   6.051   2.887  13.913  0.2499  0.2984 -0.0565
17326TIP3   OH273392   6.182   6.680  11.515 -0.1718  0.3702 -0.5251
17326TIP3    H173393   6.201   6.770  11.490 -0.8251  0.4592 -0.7223
17326TIP3    H273394   6.160   6.684  11.608  0.9037  0.2449 -0.2610
17327TIP3   OH273395   3.276   0.573   2.218 -0.4551  0.2934 -0.0527
17327TIP3    H173396   3.228   0.531   2.289 -1.2780  2.2531  0.6114
17327TIP3    H273397   3.368   0.565   2.244 -0.6366 -0.4364  0.4064
17328TIP3   OH273398   4.534   1.072   2.359 -0.0954 -0.0238 -0.1616
17328TIP3    H173399   4.466   1.139   2.367 -1.1198 -1.0649  0.2324
17328TIP3    H273400   4.498   1.010   2.295 -0.9902 -2.1984  2.2406
17329TIP3   OH273401   4.615   5.744  14.662  0.3745  0.2283 -0.6097
17329TIP3    H173402   4.591   5.794  14.584 -0.8207  1.0414  0.2440
17329TIP3    H273403   4.691   5.790  14.697  0.3677  0.3895 -0.8020
17330TIP3   OH273404   1.866   5.712  14.933  0.7929  0.0877  0.6259
17330TIP3    H173405   1.801   5.695  15.002  1.3721 -0.5200  1.0300
17330TIP3    H273406   1.875   5.808  14.932  1.3444  0.0672  1.9430
17331TIP3   OH273407   3.022   3.345  17.079  1.1227  0.1957  0.0777
17331TIP3    H173408   2.981   3.258  17.078 -1.3258  1.2670 -0.7056
17331TIP3    H273409   2.949   3.406  17.088  2.4166  2.3317 -2.3155
17332TIP3   OH273410   5.377   3.892   3.143 -0.1500 -0.1761 -0.6689
17332TIP3    H173411   5.318   3.869   3.215  0.9778  1.3164  0.8058
17332TIP3    H273412   5.340   3.972   3.106 -0.6418 -0.8544 -1.6861
17333TIP3   OH273413   4.485   3.379  12.360  0.1561  0.2485 -0.3200
17333TIP3    H173414   4.410   3.373  12.300  1.3015 -0.5405 -1.7343
17333TIP3    H273415   4.476   3.303  12.417  0.6414 -0.6896 -1.4483
17334TIP3   OH273416   1.411   2.494  10.807 -0.3263 -0.2437  0.5476
17334TIP3    H173417   1.438   2.506  10.716  0.0310 -1.1906  0.5152
17334TIP3    H273418   1.420   2.400  10.822 -2.4792 -0.4200  0.9230
17335TIP3   OH273419   4.664   0.571  16.301  0.4795  0.2015 -1.4042
17335TIP3    H173420   4.616   0.653  16.289 -0.5739 -0.0401  0.6865
17335TIP3    H273421   4.654   0.525  16.217 -2.0272  0.6579 -1.4398
17336TIP3   OH273422   3.405   5.146   5.204  0.8480 -0.2207  0.3226
17336TIP3    H173423   3.318   5.169   5.170  1.4049  0.5321 -0.6658
17336TIP3    H273424   3.440   5.228   5.239  0.5541 -0.8563  2.1751
17337TIP3   OH273425   1.545   1.810  15.264 -0.0177 -0.1034 -0.1419
17337TIP3    H173426   1.493   1.740  15.226  1.3176  0.3433 -3.0486
17337TIP3    H273427   1.561   1.782  15.354 -0.8062 -2.7741 -0.7474
17338TIP3   OH273428   3.704   4.910  16.493  0.1845 -0.1176  0.3515
17338TIP3    H173429   3.687   4.819  16.520  0.1435 -0.5535 -1.0562
17338TIP3    H273430   3.628   4.959  16.525  1.1593 -0.1509  2.9374
17339TIP3   OH273431   5.180   1.784   4.539 -1.0582  0.0400 -0.5688
17339TIP3    H173432   5.086   1.798   4.541 -0.7637  2.4567 -0.3687
17339TIP3    H273433   5.203   1.759   4.628 -1.2742  1.5595 -0.0649
17340TIP3   OH273434   1.753   3.482  12.279  0.1122  0.1185 -0.1016
17340TIP3    H173435   1.844   3.503  12.300  0.3081 -0.0201 -0.7749
17340TIP3    H273436   1.757   3.393  12.243  0.0758  0.9513 -2.3617
17341TIP3   OH273437   2.986   0.886  14.472 -0.1321  0.6051  0.2555
17341TIP3    H173438   2.927   0.944  14.423 -0.5873  0.7416  0.9549
17341TIP3    H273439   2.986   0.804  14.421  0.4558  1.1682 -0.6957
17342TIP3   OH273440   5.548   3.838   4.272 -0.8258 -0.6709 -0.1187
17342TIP3    H173441   5.506   3.905   4.325  0.2414  1.0561 -1.3558
17342TIP3    H273442   5.485   3.819   4.203 -0.5596  0.1533 -0.5992
17343TIP3   OH273443   6.718   4.958   0.803 -0.3958 -0.8598 -0.3450
17343TIP3    H173444   6.627   4.987   0.810 -0.3860 -0.9929  0.4328
17343TIP3    H273445   6.738   4.921   0.889  0.2322 -1.3111 -0.6767
17344TIP3   OH273446   2.311   4.065   6.697 -0.1880  0.3572 -0.3124
17344TIP3    H173447   2.346   3.992   6.747  2.0502  0.3542 -1.7430
17344TIP3    H273448   2.279   4.025   6.616 -1.3773  0.6721 -0.0185
17345TIP3   OH273449   3.289   3.460  11.584 -0.1374 -0.2035 -0.0783
17345TIP3    H173450   3.279   3.545  11.627 -1.7950 -0.0396 -0.7456
17345TIP3    H273451   3.377   3.462  11.547  0.7669  0.2526  1.9532
17346TIP3   OH273452   0.000   1.409  15.728  0.0384 -0.2610  0.3896
17346TIP3    H173453   0.092   1.402  15.752  0.6071 -1.3304 -1.7754
17346TIP3    H273454  -0.013   1.502  15.709  0.9781 -0.2471 -0.2738
17347TIP3   OH273455   3.497   3.803   3.882 -0.1094  0.0426  0.3188
17347TIP3    H173456   3.546   3.726   3.912  0.3968 -0.0449 -0.6996
17347TIP3    H273457   3.490   3.791   3.788 -1.2572  0.5514  0.3310
17348TIP3   OH273458   3.628   0.759   3.260 -0.5307  1.0263 -0.1311
17348TIP3    H173459   3.581   0.798   3.333 -0.4388  0.3513  0.2921
17348TIP3    H273460   3.656   0.834   3.207 -0.1079  1.5532  0.8199
17349TIP3   OH273461   1.417   1.617   5.216  0.3359 -0.6179  0.2447
17349TIP3    H173462   1.460   1.650   5.295  1.3067  1.8377 -1.1896
17349TIP3    H273463   1.452   1.529   5.205  0.6916 -0.7689  2.1498
17350TIP3   OH273464   5.161   3.524  11.906  0.1757 -0.2636  0.0097
17350TIP3    H173465   5.139   3.502  11.997 -0.2756  0.3004  0.0443
17350TIP3    H273466   5.210   3.606  11.912  0.4786 -0.4259 -0.2296
17351TIP3   OH273467   2.973   0.160   2.434  0.1677  0.4002 -0.6521
17351TIP3    H173468   3.021   0.194   2.358 -1.3853  3.0354 -0.5931
17351TIP3    H273469   2.999   0.218   2.506 -0.1552 -0.6006  0.2923
17352TIP3   OH273470   2.419   3.557   3.415 -0.0043  0.5540  0.5028
17352TIP3    H173471   2.501   3.520   3.382 -0.9608 -2.3617  1.1433
17352TIP3    H273472   2.367   3.573   3.337  0.8315  1.7086  0.1440
17353TIP3   OH273473   3.431   0.143  11.731  0.2656 -0.0517  0.2028
17353TIP3    H173474   3.366   0.142  11.802  0.1533 -1.5627  0.1208
17353TIP3    H273475   3.469   0.231  11.734 -1.8143  0.8955  0.2171
17354TIP3   OH273476   4.771   1.790  14.319  0.0829 -0.1529 -0.2217
17354TIP3    H173477   4.705   1.770  14.253  0.1310  1.9180 -0.9525
17354TIP3    H273478   4.724   1.840  14.386  0.7693  0.8885 -0.4922
17355TIP3   OH273479   3.892   0.761  11.494 -0.1681 -0.1774 -0.2319
17355TIP3    H173480   3.907   0.855  11.501  0.3872 -0.3042  0.4210
17355TIP3    H273481   3.970   0.727  11.450  0.3243 -0.5054  0.8459
17356TIP3   OH273482   5.467   1.138   4.706 -0.4279 -0.3715 -0.8221
17356TIP3    H173483   5.387   1.154   4.657 -0.4409  0.6546 -0.4806
17356TIP3    H273484   5.493   1.224   4.740  2.1886 -0.1364 -3.0075
17357TIP3   OH273485   2.138   2.410  11.268 -0.3642  0.0900  0.5120
17357TIP3    H173486   2.218   2.462  11.256 -0.6341  0.2636 -0.6403
17357TIP3    H273487   2.068   2.467  11.236 -0.6291 -1.0942 -1.1089
17358TIP3   OH273488   5.298   5.484  12.681  0.1593 -0.1366 -0.0040
17358TIP3    H173489   5.275   5.392  12.690 -0.5463  0.1737  1.8299
17358TIP3    H273490   5.232   5.519  12.620 -0.0651 -0.6747 -0.0788
17359TIP3   OH273491   0.827   4.574   5.326  0.3023  0.2176 -0.0499
17359TIP3    H173492   0.854   4.616   5.245 -0.7154 -0.7095 -0.9091
17359TIP3    H273493   0.834   4.480   5.308  0.7078 -0.0054  1.1671
17360TIP3   OH273494   0.665   1.664   5.024 -0.2900  0.6974  0.0737
17360TIP3    H173495   0.731   1.669   5.094  0.6774  0.4407 -0.7883
17360TIP3    H273496   0.655   1.755   4.995 -1.2642  0.9159  1.0337
17361TIP3   OH273497   6.163   6.241   5.625 -0.2586 -0.2996 -0.4660
17361TIP3    H173498   6.166   6.150   5.597 -2.0230 -0.5103 -0.1437
17361TIP3    H273499   6.253   6.271   5.620  0.1495 -1.6223 -1.9972
17362TIP3   OH273500   5.387   2.823  15.251  0.1867  0.2646  0.0583
17362TIP3    H173501   5.326   2.770  15.302  0.1141  1.2243  0.9993
17362TIP3    H273502   5.409   2.768  15.176 -1.8259 -0.1037 -0.3192
17363TIP3   OH273503   4.426   4.677  14.731  0.5670 -0.4155 -0.3353
17363TIP3    H173504   4.348   4.656  14.783  0.5444 -0.6143 -0.4526
17363TIP3    H273505   4.400   4.661  14.641  0.8894 -0.9239 -0.3399
17364TIP3   OH273506   2.835   4.340  14.870 -0.0404 -0.4382 -0.1148
17364TIP3    H173507   2.798   4.399  14.804  1.1375 -0.4778 -0.8311
17364TIP3    H273508   2.759   4.308  14.918 -0.7808  0.9984 -0.2575
17365TIP3   OH273509   0.590   0.966   3.166  0.4755  0.1703 -0.0594
17365TIP3    H173510   0.608   0.873   3.180 -0.9069  0.1581  2.0641
17365TIP3    H273511   0.676   1.004   3.146  1.3836 -1.2832  0.8788
17366TIP3   OH273512   4.181   2.142   6.208 -0.5230 -0.7564  0.3818
17366TIP3    H173513   4.174   2.228   6.249 -1.2029 -0.6626  0.0867
17366TIP3    H273514   4.266   2.109   6.236  0.3861  0.6064 -0.6255
17367TIP3   OH273515   1.884   3.193   3.834  0.5222 -0.0320  0.1725
17367TIP3    H173516   1.849   3.105   3.847 -1.1688  0.5410 -0.2229
17367TIP3    H273517   1.932   3.212   3.914 -0.1038 -0.8678  0.7649
17368TIP3   OH273518   0.469   4.704   2.830 -0.0298 -0.0506  0.2977
17368TIP3    H173519   0.522   4.641   2.782  0.5402  1.5817 -1.3283
17368TIP3    H273520   0.511   4.710   2.916  2.3369  0.9702 -0.8299
17369TIP3   OH273521   5.758   3.489   5.179  0.0904 -0.0050 -0.3440
17369TIP3    H173522   5.727   3.435   5.107 -1.9949  1.8185 -0.9349
17369TIP3    H273523   5.723   3.448   5.258  2.2448 -1.9165 -0.2871
17370TIP3   OH273524   4.049   1.068  14.370  0.1954 -0.2008 -0.0338
17370TIP3    H173525   3.977   1.008  14.387 -0.4241  0.5192 -0.0185
17370TIP3    H273526   4.032   1.102  14.282 -0.6406  1.4767  0.7142
17371TIP3   OH273527   5.121   4.771  17.128 -0.6275 -0.1625 -0.2748
17371TIP3    H173528   5.108   4.864  17.112  1.8122  0.1826 -0.5926
17371TIP3    H273529   5.070   4.728  17.059 -1.3754  0.9130 -0.4234
17372TIP3   OH273530   3.123   1.430   0.995 -0.2063 -0.7446 -0.4668
17372TIP3    H173531   3.184   1.443   1.069  1.0060 -1.0656 -1.3761
17372TIP3    H273532   3.179   1.400   0.923 -1.6002 -2.1210 -1.0352
17373TIP3   OH273533   3.215   2.092  14.310  0.6504  0.7629  0.4045
17373TIP3    H173534   3.219   2.142  14.392  2.6899  0.1241  0.7648
17373TIP3    H273535   3.299   2.110  14.267  0.1103  0.1198 -0.9568
17374TIP3   OH273536   6.681   5.531   2.589 -0.1564  0.2494 -0.4653
17374TIP3    H173537   6.755   5.510   2.647 -1.2169  0.2977  0.9493
17374TIP3    H273538   6.722   5.574   2.513  1.1716  1.3029  0.7921
17375TIP3   OH273539   2.643   5.708   3.002  0.1112  0.2850 -0.3699
17375TIP3    H173540   2.722   5.656   2.988 -0.7337 -1.3252  0.5363
17375TIP3    H273541   2.665   5.795   2.969  2.2134 -0.1487 -0.2351
17376TIP3   OH273542   2.250   1.091  16.583 -0.3332 -0.4548  0.0833
17376TIP3    H173543   2.212   1.177  16.600 -0.4236 -0.5734  0.4854
17376TIP3    H273544   2.342   1.109  16.563 -0.2708 -0.2919  0.4988
17377TIP3   OH273545   4.409   6.064   3.004 -0.1911 -0.4478 -0.6386
17377TIP3    H173546   4.428   6.040   3.095  0.5352  1.1782 -0.3246
17377TIP3    H273547   4.315   6.084   3.004  0.2692  2.2727  0.5025
17378TIP3   OH273548   2.739   0.150   4.079  0.4486 -0.7654 -0.0470
17378TIP3    H173549   2.826   0.121   4.053  0.7395 -0.9773  1.0810
17378TIP3    H273550   2.756   0.221   4.141 -0.2030 -0.1373 -0.5819
17379TIP3   OH273551   1.799   4.719   4.517  0.3139  0.0854 -0.3312
17379TIP3    H173552   1.771   4.762   4.598  0.0879  0.1349 -0.4361
17379TIP3    H273553   1.893   4.706   4.529  0.4037  0.6988 -0.3367
17380TIP3   OH273554   5.205   0.587  17.007  0.0839 -0.1365  0.3526
17380TIP3    H173555   5.161   0.506  17.030 -1.2393  0.8260  1.4294
17380TIP3    H273556   5.146   0.630  16.946 -0.5969  1.2218  1.8858
17381TIP3   OH273557   5.572   4.485   4.080 -0.1813 -0.6721 -0.4582
17381TIP3    H173558   5.496   4.428   4.089  1.2774 -2.9590 -1.5898
17381TIP3    H273559   5.604   4.498   4.169 -1.5200 -0.1600 -0.0306
17382TIP3   OH273560   5.570   4.620  16.898  0.1185 -0.2034 -0.3770
17382TIP3    H173561   5.489   4.648  16.939 -1.6747 -1.4741 -2.7657
17382TIP3    H273562   5.632   4.608  16.970 -1.7839  0.8369  1.5147
17383TIP3   OH273563   1.107   5.741   6.044 -0.0636  0.0882  0.8402
17383TIP3    H173564   1.057   5.759   5.964  1.2638  0.2446  0.0236
17383TIP3    H273565   1.076   5.806   6.106 -0.8226  0.2299  0.3376
17384TIP3   OH273566   5.484   5.387   5.071 -0.0438 -0.8524 -0.2770
17384TIP3    H173567   5.450   5.470   5.037  1.2454  0.1978  0.8499
17384TIP3    H273568   5.431   5.369   5.149 -1.0516 -1.6923 -1.1395
17385TIP3   OH273569   4.233   1.433  15.189 -0.1326  0.0071 -0.0881
17385TIP3    H173570   4.161   1.410  15.248  1.9783 -3.8686  1.3705
17385TIP3    H273571   4.235   1.361  15.126  0.9870  1.3133 -1.6099
17386TIP3   OH273572   0.459   2.016   5.593  0.9272  0.7969  0.0779
17386TIP3    H173573   0.397   2.058   5.532  0.9573 -1.8766 -1.9579
17386TIP3    H273574   0.540   2.008   5.544  1.0505 -1.1734  0.5137
17387TIP3   OH273575   1.215   0.776   4.948 -0.2973 -0.4626 -0.5480
17387TIP3    H173576   1.164   0.698   4.924 -1.8071  0.2551  0.1863
17387TIP3    H273577   1.263   0.750   5.027 -0.7236 -0.6901 -0.3589
17388TIP3   OH273578   3.553   1.148   4.443 -0.3517 -0.4737  0.1013
17388TIP3    H173579   3.597   1.165   4.526  0.3902 -0.1391 -0.3561
17388TIP3    H273580   3.574   1.224   4.388 -2.3269  0.2027  0.2039
17389TIP3   OH273581   0.441   0.462   0.016 -0.4916  0.1390 -0.2267
17389TIP3    H173582   0.438   0.558   0.017  0.1193  0.1648 -0.0430
17389TIP3    H273583   0.523   0.441   0.061  0.7121 -0.3954 -2.5109
17390TIP3   OH273584   4.144   2.128   6.578  0.4005 -0.1311 -0.0213
17390TIP3    H173585   4.074   2.175   6.623 -0.4574 -1.5879  0.2187
17390TIP3    H273586   4.099   2.076   6.511  1.5075  0.8606 -1.6096
17391TIP3   OH273587   4.811   5.468   4.323  0.2605 -0.5246 -0.0145
17391TIP3    H173588   4.785   5.380   4.349  1.5390 -0.9306 -0.0435
17391TIP3    H273589   4.893   5.484   4.370  1.2486 -0.2571 -1.7548
17392TIP3   OH273590   5.863   4.578   6.081  0.2780  0.3012  0.2237
17392TIP3    H173591   5.892   4.638   6.150 -2.3242  1.2782  0.5981
17392TIP3    H273592   5.787   4.622   6.042  1.2384 -0.5311 -2.8611
17393TIP3   OH273593   6.379   2.533   5.627 -0.1527 -0.3217 -0.5208
17393TIP3    H173594   6.357   2.479   5.703  1.7892  0.1188  0.3999
17393TIP3    H273595   6.392   2.470   5.556  0.3670 -0.9257  0.1006
17394TIP3   OH273596   2.737   3.814   1.161 -0.0961 -0.0464  0.1884
17394TIP3    H173597   2.765   3.775   1.244 -1.5231 -0.5349  0.4756
17394TIP3    H273598   2.645   3.837   1.176 -0.9828 -1.9138 -1.8390
17395TIP3   OH273599   4.090   5.184  13.075 -1.2059 -0.1421  0.3634
17395TIP3    H173600   4.168   5.199  13.022 -1.6843  0.2635 -0.2454
17395TIP3    H273601   4.122   5.143  13.155 -0.2832  0.7121  0.4470
17396TIP3   OH273602   6.309   5.852   1.073  0.5665 -0.0395  0.5504
17396TIP3    H173603   6.264   5.913   1.014  0.4712  0.8842  1.5365
17396TIP3    H273604   6.303   5.894   1.159  2.5089 -0.3319  0.8700
17397TIP3   OH273605   4.595   2.895  16.964 -0.0405 -0.1318  0.3626
17397TIP3    H173606   4.617   2.940  17.046 -2.1344  1.4618  0.1141
17397TIP3    H273607   4.613   2.802  16.983  3.4616  0.5596  1.2189
17398TIP3   OH273608   2.365   6.701   3.696 -0.2101 -0.0750  0.2162
17398TIP3    H173609   2.326   6.786   3.717  1.5626  1.0810 -0.9562
17398TIP3    H273610   2.446   6.698   3.746  0.2711 -0.6045 -0.5723
17399TIP3   OH273611   2.804   0.580  14.746  0.8112  0.0157  0.3710
17399TIP3    H173612   2.799   0.489  14.716 -3.5741  0.2912 -0.4641
17399TIP3    H273613   2.810   0.631  14.665  0.3973  0.5287  0.6599
17400TIP3   OH273614   4.210   1.713  14.364 -0.0154 -0.1728  0.4364
17400TIP3    H173615   4.280   1.769  14.398  1.5141 -2.1168  0.6772
17400TIP3    H273616   4.255   1.649  14.310 -1.6854 -1.2498  0.2475
17401TIP3   OH273617   0.364   1.280   0.860  0.7165 -0.4227 -0.3786
17401TIP3    H173618   0.350   1.237   0.944 -0.9966 -0.7432 -0.7860
17401TIP3    H273619   0.305   1.355   0.860  0.5473 -0.5308 -1.3509
17402TIP3   OH273620   3.118   3.058  13.431 -0.0380  0.0875  0.3708
17402TIP3    H173621   3.033   3.017  13.442  0.1794 -0.1949  1.0435
17402TIP3    H273622   3.112   3.140  13.478  0.1193 -0.0149  0.5703
17403TIP3   OH273623   2.159   1.716  16.500  0.0702  0.4343 -0.3207
17403TIP3    H173624   2.207   1.638  16.527 -0.0284  0.1742 -0.8840
17403TIP3    H273625   2.092   1.727  16.568  0.5761  0.4913  0.1793
17404TIP3   OH273626   3.164   2.816  11.264 -0.7288  0.4642 -0.6221
17404TIP3    H173627   3.194   2.780  11.347 -1.3352  0.6389 -0.3218
17404TIP3    H273628   3.070   2.795  11.261 -0.5171 -0.4116 -1.7121
17405TIP3   OH273629   2.250   6.324   0.643 -0.3113  0.4371 -0.2663
17405TIP3    H173630   2.318   6.266   0.676 -3.4767 -2.2584  2.3253
17405TIP3    H273631   2.203   6.272   0.578 -0.7437  1.7170 -1.0087
17406TIP3   OH273632   0.881   0.536  15.041  0.5049 -0.5769 -1.0352
17406TIP3    H173633   0.962   0.528  15.092  0.1161 -0.4147 -0.3819
17406TIP3    H273634   0.844   0.448  15.040 -0.1975 -0.3018  0.1589
17407TIP3   OH273635   2.712   3.471   4.986  0.2005  0.0263  0.1946
17407TIP3    H173636   2.760   3.389   4.990  0.0406 -0.0679  0.1794
17407TIP3    H273637   2.769   3.529   4.935  1.4631  0.7011  2.2206
17408TIP3   OH273638   0.509   1.711  16.837  0.2359 -0.1396  0.7206
17408TIP3    H173639   0.455   1.642  16.799  0.9708 -0.5169  0.3416
17408TIP3    H273640   0.558   1.669  16.907 -0.5910  0.3991  1.6425
17409TIP3   OH273641   3.046   6.111  14.815 -0.0083 -0.5273 -0.4656
17409TIP3    H173642   2.951   6.112  14.820 -0.0515 -2.0673 -0.5235
17409TIP3    H273643   3.070   6.019  14.831  1.4726 -0.1303 -0.2443
17410TIP3   OH273644   2.043   0.858  17.222  0.0547  0.1065  0.1612
17410TIP3    H173645   2.015   0.917  17.152  1.6629  1.5660  0.6698
17410TIP3    H273646   2.107   0.909  17.271 -0.1795 -1.2913  2.0175
17411TIP3   OH273647   0.860   3.085   2.604  0.1998 -0.0512  0.0207
17411TIP3    H173648   0.815   3.030   2.540  0.6546  0.1624 -0.4920
17411TIP3    H273649   0.796   3.153   2.625 -0.3712 -0.7678  0.6690
17412TIP3   OH273650   6.309   2.374  17.321  0.3857  0.4601  0.1119
17412TIP3    H173651   6.397   2.347  17.347  0.6833 -0.9347 -2.0933
17412TIP3    H273652   6.314   2.387  17.227 -1.8218  0.0236 -0.1376
17413TIP3   OH273653   4.689   2.114   3.984 -1.2540  0.2007 -0.3147
17413TIP3    H173654   4.602   2.083   4.009 -0.4512 -0.9220  1.3391
17413TIP3    H273655   4.749   2.064   4.041  0.3489  2.4844  0.1282
17414TIP3   OH273656   0.633   3.568  15.739  0.3181  0.2034  0.2125
17414TIP3    H173657   0.582   3.522  15.672 -1.6169 -0.0886  1.7715
17414TIP3    H273658   0.590   3.653  15.747 -1.7490 -0.9514  3.3203
17415TIP3   OH273659   4.883   2.923  15.642 -0.3275  0.2113  0.3293
17415TIP3    H173660   4.859   2.927  15.550  0.5275 -0.0070  0.0854
17415TIP3    H273661   4.962   2.869  15.644  0.0756  0.8170  1.1062
17416TIP3   OH273662   4.057   4.284  12.943 -0.3601 -0.4853 -0.1351
17416TIP3    H173663   4.031   4.349  13.008 -1.0061  1.0309 -1.8021
17416TIP3    H273664   3.995   4.212  12.953 -0.9652  0.1011  0.3586
17417TIP3   OH273665   1.622   2.545   6.267  0.0573 -0.0468 -0.8001
17417TIP3    H173666   1.696   2.530   6.326  2.0233  1.0731 -2.8215
17417TIP3    H273667   1.610   2.462   6.222 -0.6163 -0.5330  0.2510
17418TIP3   OH273668   6.142   5.530  13.056 -0.0720 -0.1316  0.2210
17418TIP3    H173669   6.058   5.560  13.022  0.8162 -0.4600 -2.4423
17418TIP3    H273670   6.168   5.597  13.119 -2.0779  0.1991  0.7692
17419TIP3   OH273671   3.495   3.329  11.926  0.1804 -0.1045  0.0147
17419TIP3    H173672   3.542   3.389  11.868  0.3762 -1.6458 -1.5200
17419TIP3    H273673   3.559   3.306  11.993  0.5890  0.2318 -0.2528
17420TIP3   OH273674   3.579   2.874  16.018  0.1546 -0.0777  0.0915
17420TIP3    H173675   3.527   2.918  15.951  1.4281  1.6258  0.1475
17420TIP3    H273676   3.521   2.872  16.095 -1.1421 -1.6258 -0.8617
17421TIP3   OH273677   3.683   2.794   3.464 -0.2917 -0.1588 -0.1831
17421TIP3    H173678   3.746   2.800   3.392  0.9063 -0.9677  0.7572
17421TIP3    H273679   3.674   2.884   3.495 -2.3771  0.5717 -2.5526
17422TIP3   OH273680   4.139   4.478   3.981 -0.3294  0.5937  0.5991
17422TIP3    H173681   4.163   4.406   3.922 -1.1463 -0.2515  1.2812
17422TIP3    H273682   4.168   4.449   4.068  1.1995  1.9832  0.6249
17423TIP3   OH273683   5.082   0.624  14.253 -0.1218  0.2595  0.1013
17423TIP3    H173684   5.002   0.671  14.228 -0.2077  0.8310  1.3439
17423TIP3    H273685   5.052   0.540  14.287 -0.2214  0.5289  0.6961
17424TIP3   OH273686   1.333   4.592   6.069 -0.5427 -0.1958  0.2366
17424TIP3    H173687   1.391   4.516   6.062 -1.1690 -0.5722 -1.3595
17424TIP3    H273688   1.388   4.662   6.102  0.2345 -1.1425  1.0004
17425TIP3   OH273689   4.567   5.092   4.718 -0.1708 -0.4587 -0.3000
17425TIP3    H173690   4.615   5.017   4.682  0.6832  0.2621 -0.7044
17425TIP3    H273691   4.508   5.119   4.648 -0.4050 -0.6901 -0.1921
17426TIP3   OH273692   3.675   1.559  15.844 -0.0824 -0.5162  0.0751
17426TIP3    H173693   3.680   1.618  15.769  3.9912 -1.3837 -0.5613
17426TIP3    H273694   3.627   1.483  15.811 -0.5275  0.1328 -0.8361
17427TIP3   OH273695   5.667   0.971  15.768 -0.4469  0.1724 -0.3189
17427TIP3    H173696   5.619   0.962  15.850  0.9516 -0.8123  0.4227
17427TIP3    H273697   5.611   0.927  15.703 -1.7622  1.3415 -0.0173
17428TIP3   OH273698   6.450   2.446  12.653 -0.0339 -0.0704  0.1518
17428TIP3    H173699   6.426   2.354  12.644 -0.2306 -0.1153  0.9935
17428TIP3    H273700   6.428   2.485  12.569  0.5935 -0.9064 -0.4176
17429TIP3   OH273701   2.405   5.117  15.033  0.0066 -0.0211  0.2472
17429TIP3    H173702   2.327   5.138  15.086  0.6961 -1.6760  2.0431
17429TIP3    H273703   2.372   5.111  14.944 -1.4525  1.6626  0.6090
17430TIP3   OH273704   1.951   2.850  10.739  0.1123 -0.2471  0.2631
17430TIP3    H173705   1.947   2.773  10.682  0.6591  0.8513 -1.3382
17430TIP3    H273706   2.038   2.886  10.725  0.2528  0.0980  1.8066
17431TIP3   OH273707   2.986   2.207  16.167  0.1263  0.4188  0.0692
17431TIP3    H173708   2.946   2.121  16.160 -0.9024  0.8463  0.5248
17431TIP3    H273709   3.073   2.190  16.202  0.5898 -0.5814 -1.4674
17432TIP3   OH273710   4.228   3.699  13.471  0.7697  0.6059  0.1380
17432TIP3    H173711   4.136   3.671  13.468  0.9180  0.1370 -0.3191
17432TIP3    H273712   4.225   3.788  13.504  0.1631  0.5208  0.3272
17433TIP3   OH273713   1.601   4.839   3.642  0.1837 -0.1698  1.0903
17433TIP3    H173714   1.580   4.932   3.656  1.0635  0.6677 -2.2090
17433TIP3    H273715   1.525   4.792   3.676 -1.3362  1.9423  0.8373
17434TIP3   OH273716   4.881   4.425   5.676 -0.1185 -0.5344 -0.2164
17434TIP3    H173717   4.950   4.384   5.727  0.7541  0.0214 -0.9147
17434TIP3    H273718   4.927   4.483   5.615 -1.1035 -1.1179 -1.5901
17435TIP3   OH273719   5.660   3.275  17.063 -0.0088  0.0324 -0.2481
17435TIP3    H173720   5.734   3.299  17.119  0.0066  1.1449 -0.7278
17435TIP3    H273721   5.638   3.185  17.090  1.6699 -0.4142 -0.2723
17436TIP3   OH273722   5.687   1.061  16.986  0.4759 -0.3243 -0.5071
17436TIP3    H173723   5.747   1.053  17.060 -1.5788  1.0257  1.4479
17436TIP3    H273724   5.737   1.108  16.920  1.9562 -0.3027  0.5768
17437TIP3   OH273725   3.130   3.896  16.965  0.3890  0.4846 -0.0304
17437TIP3    H173726   3.200   3.855  16.914  1.6842  0.8066  1.4144
17437TIP3    H273727   3.121   3.840  17.043  0.5162  1.5766  0.7977
17438TIP3   OH273728   2.498   5.051  11.603 -0.2440  1.2048 -0.6881
17438TIP3    H173729   2.567   4.996  11.566  0.0237  0.1226  1.2814
17438TIP3    H273730   2.452   4.994  11.664 -3.3723  1.6982 -2.4098
17439TIP3   OH273731   2.556   2.771  13.127  0.1913  0.3862 -0.0360
17439TIP3    H173732   2.533   2.813  13.043 -0.0739  0.2163 -0.0499
17439TIP3    H273733   2.475   2.728  13.154  0.3784  0.1460  0.1346
17440TIP3   OH273734   3.260   1.546   2.863  0.6293 -0.1641  0.1120
17440TIP3    H173735   3.271   1.455   2.837  2.5298  0.9232 -3.5844
17440TIP3    H273736   3.325   1.558   2.932  1.3316 -1.3099 -0.3124
17441TIP3   OH273737   3.659   1.491  11.765 -0.9383 -0.3377 -0.3799
17441TIP3    H173738   3.669   1.426  11.695 -2.4018 -0.4684 -0.5044
17441TIP3    H273739   3.725   1.558  11.745  1.3318 -2.2220  0.3488
17442TIP3   OH273740   6.306   4.101  15.735 -0.0655 -0.2375  0.3936
17442TIP3    H173741   6.289   4.015  15.773 -0.8062  0.1328  0.9216
17442TIP3    H273742   6.318   4.084  15.642  1.2339 -1.0974  0.6863
17443TIP3   OH273743   2.846   4.030   2.774 -0.2423 -0.3389  0.4734
17443TIP3    H173744   2.858   3.980   2.694  1.5475  1.5159 -0.5258
17443TIP3    H273745   2.922   4.008   2.828  0.7193  1.3716 -0.0913
17444TIP3   OH273746   6.249   2.366  17.050  0.5113 -0.0137 -0.4482
17444TIP3    H173747   6.260   2.274  17.027  1.7640 -0.1529  0.5561
17444TIP3    H273748   6.330   2.408  17.022  0.1457  0.6933 -0.4677
17445TIP3   OH273749   6.731   0.618   0.768  0.0908 -0.2587  0.5270
17445TIP3    H173750   6.804   0.606   0.708  1.0686 -0.6444  1.7394
17445TIP3    H273751   6.717   0.713   0.771  0.2611 -0.2142 -0.0221
17446TIP3   OH273752   4.519   5.204   6.116  0.1596  0.6715  0.2334
17446TIP3    H173753   4.516   5.122   6.067 -0.9597  0.9028 -0.1142
17446TIP3    H273754   4.576   5.185   6.191  2.3787  0.4763 -1.4156
17447TIP3   OH273755   6.603   4.083   3.889  0.5412 -0.0130 -0.8886
17447TIP3    H173756   6.554   4.048   3.815  2.1384  2.0111 -3.0616
17447TIP3    H273757   6.542   4.076   3.963 -1.3250 -1.6571 -2.4478
17448TIP3   OH273758   6.554   6.262   5.494  0.1833 -0.0961 -0.1937
17448TIP3    H173759   6.623   6.221   5.441  0.4046  0.3313 -0.2342
17448TIP3    H273760   6.560   6.218   5.579 -1.7020 -2.4909 -1.1696
17449TIP3   OH273761   2.949   3.240  13.885  0.4167  0.1626 -0.2884
17449TIP3    H173762   2.856   3.221  13.889  0.5876 -0.6958 -0.3368
17449TIP3    H273763   2.965   3.298  13.959 -0.8251  3.3602 -2.3096
17450TIP3   OH273764   2.096   1.492  13.858 -0.1134 -0.0847  0.2809
17450TIP3    H173765   2.171   1.516  13.804 -0.2406  0.5444  0.3714
17450TIP3    H273766   2.116   1.405  13.892 -0.1052 -0.5741 -0.9246
17451TIP3   OH273767   5.412   6.104   5.306  0.4550  0.0099 -0.3098
17451TIP3    H173768   5.363   6.109   5.388  0.1775  0.4069 -0.4985
17451TIP3    H273769   5.464   6.185   5.306  0.7691 -0.1911 -0.3275
17452TIP3   OH273770   2.777   4.237  10.867  0.3704  0.2446  0.1601
17452TIP3    H173771   2.735   4.293  10.803  0.5495  0.2178  0.0178
17452TIP3    H273772   2.718   4.163  10.877  0.1569  0.4344  0.3138
17453TIP3   OH273773   2.477   5.138   1.940  0.0642  0.4255 -0.2242
17453TIP3    H173774   2.495   5.076   2.010 -0.3971  0.6987  0.1422
17453TIP3    H273775   2.555   5.194   1.936 -0.4355  1.2368  0.9569
17454TIP3   OH273776   5.452   3.510   3.684  0.1064 -0.2756  0.0024
17454TIP3    H173777   5.498   3.426   3.678  0.2931 -0.1756  0.0287
17454TIP3    H273778   5.522   3.575   3.694  0.0316  0.0076 -1.1893
17455TIP3   OH273779   2.436   2.930  13.439  0.2095 -0.3311  0.0310
17455TIP3    H173780   2.511   2.886  13.399  1.0850  0.3537  0.8638
17455TIP3    H273781   2.472   3.010  13.475 -1.3332  1.0654 -1.3702
17456TIP3   OH273782   6.681   5.788  16.563  0.0516 -0.7628  0.4378
17456TIP3    H173783   6.613   5.781  16.497 -0.5728 -0.4788  1.0367
17456TIP3    H273784   6.740   5.715  16.546  0.8080  0.2193 -1.4250
17457TIP3   OH273785   1.230   1.005  12.306 -0.1769  0.0412  0.2444
17457TIP3    H173786   1.147   1.045  12.279  0.0658  1.1574  1.0339
17457TIP3    H273787   1.223   0.914  12.280 -0.9041  0.5209 -1.3634
17458TIP3   OH273788   1.331   3.716   2.584  0.1105 -0.0414  0.1776
17458TIP3    H173789   1.239   3.740   2.601 -0.6155 -1.6865 -1.0848
17458TIP3    H273790   1.382   3.786   2.623 -1.6731  0.5840  1.5205
17459TIP3   OH273791   4.460   5.788   3.151  0.3838 -0.2299 -0.3986
17459TIP3    H173792   4.409   5.719   3.109  1.7415 -1.0483 -0.7832
17459TIP3    H273793   4.511   5.743   3.219  1.3662  0.3472 -0.7210
17460TIP3   OH273794   5.694   0.999   2.053  0.6221 -0.3002  0.2380
17460TIP3    H173795   5.773   1.021   2.004  0.5565 -0.9574 -0.1835
17460TIP3    H273796   5.714   0.915   2.094  0.1912 -0.4062  0.2384
17461TIP3   OH273797   4.076   5.008  14.154 -0.2166 -0.3013  0.3347
17461TIP3    H173798   4.137   5.074  14.188  0.0765  0.3137 -1.3020
17461TIP3    H273799   4.121   4.924  14.168  0.1528 -0.0196  0.8783
17462TIP3   OH273800   4.589   3.320  12.737 -0.0312  0.0753  0.2851
17462TIP3    H173801   4.684   3.324  12.740  0.0569 -1.3946  0.2011
17462TIP3    H273802   4.566   3.257  12.805 -0.8466 -0.5705 -0.5645
17463TIP3   OH273803   6.706   5.519  11.863 -0.0147  0.7229 -0.6763
17463TIP3    H173804   6.708   5.505  11.957 -0.9510  0.0996 -0.7408
17463TIP3    H273805   6.781   5.470  11.830 -0.8207 -0.6999 -0.4497
17464TIP3   OH273806   0.628   3.937  16.051  0.5012  0.5748 -0.5663
17464TIP3    H173807   0.598   3.958  15.963 -0.5487 -1.4095 -0.7305
17464TIP3    H273808   0.710   3.890  16.039 -0.7947 -1.7763 -0.6944
17465TIP3   OH273809   2.222   2.615   3.446 -0.1949 -0.0347  0.4796
17465TIP3    H173810   2.170   2.550   3.400 -0.7551  0.1733  0.8134
17465TIP3    H273811   2.260   2.669   3.377 -3.1180  1.9165  0.2413
17466TIP3   OH273812   3.929   1.000  14.798  0.1896  0.0689  0.1245
17466TIP3    H173813   3.877   0.935  14.845  0.5264  1.1948  2.2037
17466TIP3    H273814   3.864   1.054  14.752 -0.2677 -0.2353  0.4017
17467TIP3   OH273815   0.632   6.667   5.383  0.0312 -0.2009 -0.1357
17467TIP3    H173816   0.583   6.726   5.325  1.0473  0.2599 -0.5460
17467TIP3    H273817   0.704   6.634   5.329  0.4219 -0.5392  0.5796
17468TIP3   OH273818   2.206   4.186  12.470  0.2728 -0.1767  0.6275
17468TIP3    H173819   2.204   4.279  12.493 -1.4177 -0.8090  3.6220
17468TIP3    H273820   2.297   4.160  12.478  1.1639  1.5660 -2.3781
17469TIP3   OH273821   4.840   5.457  12.666 -0.5000 -0.1618 -0.1185
17469TIP3    H173822   4.880   5.389  12.721 -1.4193 -0.0668  0.7081
17469TIP3    H273823   4.806   5.410  12.590 -1.1900 -0.6562  0.4791
17470TIP3   OH273824   4.568   5.270  14.227  0.5705 -0.3653  0.5682
17470TIP3    H173825   4.642   5.245  14.283  1.2650  1.1041  0.3679
17470TIP3    H273826   4.554   5.363  14.246 -0.4227 -0.3237 -0.3008
17471TIP3   OH273827   1.380   4.936  17.079  0.6370 -0.1161  0.0226
17471TIP3    H173828   1.471   4.915  17.100  1.0223  2.3027  1.0549
17471TIP3    H273829   1.352   4.995  17.150 -1.0272  0.9401 -1.4361
17472TIP3   OH273830   2.840   4.253  16.395  0.0955 -0.1153 -0.4042
17472TIP3    H173831   2.862   4.331  16.445  0.1034 -0.4127  0.0580
17472TIP3    H273832   2.744   4.247  16.402 -0.0497  0.5861 -1.5370
17473TIP3   OH273833   6.372   0.103   5.243 -0.3063 -0.2988  0.1790
17473TIP3    H173834   6.462   0.113   5.211 -0.5849 -0.8523 -0.8026
17473TIP3    H273835   6.317   0.117   5.166 -1.0800  0.1636  0.7967
17474TIP3   OH273836   6.508   1.668  16.724  0.2451 -0.1260 -0.0306
17474TIP3    H173837   6.584   1.636  16.675  0.9365  1.4903 -0.0947
17474TIP3    H273838   6.434   1.656  16.665  0.1218 -3.0947  0.5682
17475TIP3   OH273839   1.760   1.555   3.917 -0.1208 -0.0972 -0.2322
17475TIP3    H173840   1.736   1.464   3.902 -0.2439  0.0343 -0.8691
17475TIP3    H273841   1.813   1.579   3.842  1.8867 -0.3062  1.0417
17476TIP3   OH273842   2.828   3.693   5.920  0.2231 -0.1767 -0.0529
17476TIP3    H173843   2.915   3.664   5.892 -0.4580 -0.9563 -1.4533
17476TIP3    H273844   2.770   3.622   5.895 -0.8662  0.4668  0.5914
17477TIP3   OH273845   1.661   1.702  14.042 -0.4229 -0.3311  0.3105
17477TIP3    H173846   1.747   1.669  14.015 -0.0816  1.0137 -0.3290
17477TIP3    H273847   1.600   1.664  13.979 -0.0922 -0.0676 -0.1713
17478TIP3   OH273848   1.070   2.296  11.362 -0.3633 -0.1586 -0.0031
17478TIP3    H173849   1.093   2.282  11.454 -0.2923 -0.8599 -0.1255
17478TIP3    H273850   1.024   2.217  11.336  0.4337 -0.3703 -0.8294
17479TIP3   OH273851   4.597   1.198   1.138 -0.7404  0.3779  0.2967
17479TIP3    H173852   4.669   1.207   1.200 -1.6286  0.0416  1.4298
17479TIP3    H273853   4.539   1.133   1.178 -1.7299  0.7246 -0.5166
17480TIP3   OH273854   2.671   1.193  11.598 -0.0687  0.3866  0.6469
17480TIP3    H173855   2.766   1.197  11.592  0.0882 -0.0540  2.1813
17480TIP3    H273856   2.643   1.152  11.516  0.9651  1.4303 -0.2459
17481TIP3   OH273857   6.754   0.533   0.206  0.1306  0.3257 -0.0004
17481TIP3    H173858   6.787   0.623   0.214  0.1372  0.3030  0.2298
17481TIP3    H273859   6.659   0.543   0.204  0.1120  0.2874  0.6772
17482TIP3   OH273860   4.302   1.633  15.913  0.2710 -0.1011  0.0691
17482TIP3    H173861   4.280   1.725  15.917 -0.8790 -0.3742  0.2848
17482TIP3    H273862   4.386   1.630  15.867 -0.4227  0.9378 -1.3346
17483TIP3   OH273863   6.643   0.068  14.792 -0.5680 -0.2718 -0.4953
17483TIP3    H173864   6.656  -0.015  14.837 -1.0334 -0.6982 -1.1393
17483TIP3    H273865   6.710   0.070  14.724 -0.4237 -0.0219 -0.3486
17484TIP3   OH273866   0.129   6.141  14.668 -0.9152  0.5633 -0.2729
17484TIP3    H173867   0.206   6.184  14.705 -0.2866 -1.8469  1.4980
17484TIP3    H273868   0.165   6.072  14.611 -1.8712  1.8548 -2.5716
17485TIP3   OH273869   2.039   0.128   1.860  0.4065 -0.5415  0.4442
17485TIP3    H173870   2.132   0.135   1.881  0.1465 -0.6894  1.7195
17485TIP3    H273871   2.037   0.123   1.764  1.6140  0.8407  0.2937
17486TIP3   OH273872   6.707   0.587   1.494  0.4328 -0.6993  0.0852
17486TIP3    H173873   6.711   0.614   1.586 -0.6649 -0.1686 -0.0117
17486TIP3    H273874   6.756   0.655   1.448 -0.3708 -0.0888  0.1090
17487TIP3   OH273875   1.885   2.503  15.711  0.4940  0.8533 -0.0332
17487TIP3    H173876   1.816   2.439  15.694  1.7781 -0.4571 -0.5496
17487TIP3    H273877   1.890   2.555  15.631  0.0762  1.0047  0.0344
17488TIP3   OH273878   6.730   2.752  15.332  0.4927  0.5515 -0.1612
17488TIP3    H173879   6.642   2.736  15.364  0.7483  0.7780  0.6843
17488TIP3    H273880   6.718   2.775  15.240 -0.3576  0.8944  0.0235
17489TIP3   OH273881   3.972   5.383   3.261  0.1823  0.2754 -0.1052
17489TIP3    H173882   3.936   5.470   3.281  0.8763  0.5243  0.0990
17489TIP3    H273883   4.046   5.374   3.321 -0.4917 -0.8872  0.5849
17490TIP3   OH273884   5.671   6.351  13.881 -0.5917  0.5815 -0.7190
17490TIP3    H173885   5.707   6.440  13.889 -1.7972  0.9221  2.1291
17490TIP3    H273886   5.660   6.338  13.787 -0.7485  3.5986 -1.2225
17491TIP3   OH273887   4.977   6.648   2.509  0.2389  0.4780  0.5796
17491TIP3    H173888   5.058   6.664   2.557  0.0920  1.7650  0.4398
17491TIP3    H273889   4.923   6.724   2.529 -1.4708 -0.9364  1.7378
17492TIP3   OH273890   4.529   1.843   2.698  0.4289  0.0169 -0.4121
17492TIP3    H173891   4.481   1.919   2.731  0.9276  0.3284 -0.3875
17492TIP3    H273892   4.600   1.831   2.762  0.1954 -0.6373 -0.2673
17493TIP3   OH273893   6.737   6.598   4.205 -0.3968  0.0696 -0.0456
17493TIP3    H173894   6.798   6.660   4.245  2.0190 -1.7983 -0.6221
17493TIP3    H273895   6.663   6.595   4.265  0.0463  2.3725  0.7331
17494TIP3   OH273896   1.084   2.212  14.357 -0.3102 -0.1652 -0.2465
17494TIP3    H173897   1.026   2.213  14.281 -0.8864  0.0046  0.1896
17494TIP3    H273898   1.066   2.295  14.401 -0.1622 -0.3743  0.2100
17495TIP3   OH273899   5.638   3.879   0.099  0.0271  0.2326 -0.2007
17495TIP3    H173900   5.706   3.855   0.162 -0.1366  1.0877  0.3204
17495TIP3    H273901   5.572   3.810   0.107  1.4203 -1.3564 -1.6873
17496TIP3   OH273902   6.509   2.292   1.997  0.4376  0.0831 -0.0695
17496TIP3    H173903   6.590   2.273   2.044 -0.1758 -0.2066  0.9077
17496TIP3    H273904   6.527   2.269   1.906  0.7772 -2.0859  0.5009
17497TIP3   OH273905   0.718   1.140   1.572  0.2539  0.4186  0.3249
17497TIP3    H173906   0.642   1.085   1.592 -0.2998  1.1157  0.1810
17497TIP3    H273907   0.701   1.222   1.619  0.6871  0.7536 -0.0911
17498TIP3   OH273908   2.874   4.770  13.203  0.3303  0.0465  0.5749
17498TIP3    H173909   2.938   4.797  13.137  0.5986 -0.7364  0.5063
17498TIP3    H273910   2.790   4.768  13.156  0.4307  0.0257  0.3945
17499TIP3   OH273911   6.429   0.267   5.740 -0.0888 -0.2053  0.0053
17499TIP3    H173912   6.383   0.267   5.824 -2.7299 -2.7186 -1.2507
17499TIP3    H273913   6.444   0.359   5.721  1.2581  0.4259  3.4906
17500TIP3   OH273914   0.256   4.972  17.206 -0.2795 -0.5505  0.0967
17500TIP3    H173915   0.217   4.931  17.129 -1.5665 -1.7827  1.3470
17500TIP3    H273916   0.186   4.972  17.271  0.6004  0.9905  1.1064
17501TIP3   OH273917   3.382   0.615   3.157  0.3319  0.2466  0.4736
17501TIP3    H173918   3.442   0.685   3.185  0.0645  0.2128  1.1603
17501TIP3    H273919   3.339   0.650   3.079 -1.6576  1.9432  2.2116
17502TIP3   OH273920   3.775   0.178  16.810 -0.4881 -0.4244  0.4937
17502TIP3    H173921   3.859   0.135  16.794 -0.4543 -1.0641  2.2057
17502TIP3    H273922   3.787   0.267  16.774  0.6944 -0.6952  0.1641
17503TIP3   OH273923   6.147   1.067   1.191 -0.1470  0.0662  0.0628
17503TIP3    H173924   6.137   1.027   1.278  1.5847 -1.6230 -0.4434
17503TIP3    H273925   6.240   1.058   1.171 -0.1383  2.2242 -1.1761
17504TIP3   OH273926   4.361   6.577   0.950  0.2417 -0.5691 -0.1604
17504TIP3    H173927   4.288   6.611   1.002 -0.8043 -1.8241 -0.7481
17504TIP3    H273928   4.359   6.629   0.869 -0.4606 -1.0546 -0.4664
17505TIP3   OH273929   5.630   1.007   3.167  0.0263 -0.1190  0.3499
17505TIP3    H173930   5.636   1.010   3.072 -1.0562  2.8613  0.2711
17505TIP3    H273931   5.660   0.919   3.190  0.4458 -0.8927 -2.6979
17506TIP3   OH273932   1.259   3.787  14.471 -0.0756  0.4021  0.3989
17506TIP3    H173933   1.348   3.808  14.501 -0.2525  1.8304  0.0136
17506TIP3    H273934   1.269   3.774  14.377  0.0102 -1.2801  0.6141
17507TIP3   OH273935   5.152   6.657  12.159 -0.3291  0.5176  0.1119
17507TIP3    H173936   5.080   6.640  12.098 -0.1789 -1.7080  0.4682
17507TIP3    H273937   5.210   6.582  12.149  1.1095  1.4526  1.0388
17508TIP3   OH273938   5.820   4.992  11.603 -0.5044 -0.0015  0.0800
17508TIP3    H173939   5.783   5.060  11.660  1.1087  0.8290  0.1909
17508TIP3    H273940   5.748   4.930  11.591 -1.1857  0.2677  2.2499
17509TIP3   OH273941   1.321   0.483  17.113 -0.4838  0.5184 -0.0136
17509TIP3    H173942   1.307   0.578  17.118 -0.9131  0.6209 -2.1876
17509TIP3    H273943   1.415   0.474  17.098 -0.6815  0.7664 -1.6888
17510TIP3   OH273944   4.696   0.823   2.058  0.0409 -0.0924  0.0436
17510TIP3    H173945   4.731   0.880   2.127  0.2657 -1.8123  1.4236
17510TIP3    H273946   4.689   0.880   1.982  0.0136  1.8367  1.4071
17511TIP3   OH273947   4.694   1.290   0.223  0.3738  0.0445 -0.1328
17511TIP3    H173948   4.680   1.379   0.189  0.5024 -0.1670 -0.7609
17511TIP3    H273949   4.630   1.281   0.294  1.7003  1.3407  1.3074
17512TIP3   OH273950   1.782   0.696   4.985 -0.2337 -0.6516  0.4090
17512TIP3    H173951   1.825   0.672   4.903 -1.2959 -0.9285 -0.0907
17512TIP3    H273952   1.727   0.620   5.006 -2.1677  0.5350 -0.1629
17513TIP3   OH273953   1.912   1.269   2.959  0.6297 -0.4661  0.6589
17513TIP3    H173954   1.935   1.358   2.930 -1.1856  0.1565  0.9855
17513TIP3    H273955   1.995   1.222   2.961  1.3201  0.3571 -2.4446
17514TIP3   OH273956   5.392   0.512  13.909 -0.2028  0.4101  0.3460
17514TIP3    H173957   5.327   0.561  13.859 -0.0873  0.4499  0.2349
17514TIP3    H273958   5.381   0.543  13.999  2.5211  3.6825 -0.2138
17515TIP3   OH273959   2.281   1.202   4.879 -0.4024  0.3729  0.1548
17515TIP3    H173960   2.229   1.242   4.809 -0.6124 -0.3038 -0.0798
17515TIP3    H273961   2.256   1.110   4.878  1.4151 -0.1451 -0.5110
17516TIP3   OH273962   5.460   3.857   0.557 -0.2759  0.2236  0.1635
17516TIP3    H173963   5.410   3.775   0.563 -0.2095  0.0247 -1.4227
17516TIP3    H273964   5.443   3.889   0.468 -0.0091  1.7565  0.6293
17517TIP3   OH273965   2.542   5.508   3.677  0.4352  0.7550  0.6022
17517TIP3    H173966   2.596   5.455   3.619 -0.4801  1.4926 -0.9741
17517TIP3    H273967   2.472   5.542   3.621  1.3098  4.1458  1.3683
17518TIP3   OH273968   5.522   1.095   2.452  0.6562  0.5488 -0.3344
17518TIP3    H173969   5.599   1.071   2.400 -0.2768 -2.0806 -0.6715
17518TIP3    H273970   5.557   1.124   2.536  2.0422  0.8128 -0.9856
17519TIP3   OH273971   1.388   2.507   5.988 -0.1897  0.0000  1.0240
17519TIP3    H173972   1.471   2.551   5.969 -0.3389 -0.7894 -1.9104
17519TIP3    H273973   1.322   2.577   5.983  0.0707  0.2664  1.2853
17520TIP3   OH273974   1.695   3.299  15.868 -0.2671 -0.0237  0.3290
17520TIP3    H173975   1.754   3.243  15.918 -1.3576  0.8791  2.7752
17520TIP3    H273976   1.737   3.385  15.867 -0.1707 -0.0653 -0.5370
17521TIP3   OH273977   2.160   3.086   4.323 -0.6053 -0.3457 -0.2361
17521TIP3    H173978   2.072   3.090   4.360  0.0687  2.8089  1.3338
17521TIP3    H273979   2.217   3.075   4.399  0.4658 -1.5319 -1.1629
17522TIP3   OH273980   0.900   3.935  13.390  0.4759  0.0391 -0.4607
17522TIP3    H173981   0.941   4.012  13.352  0.8715  0.7153  1.2300
17522TIP3    H273982   0.970   3.893  13.441 -0.4961  0.3354  1.1873
17523TIP3   OH273983   3.686   4.225  11.181 -0.4293  0.0291 -0.4619
17523TIP3    H173984   3.597   4.256  11.165 -0.7346  0.4771  1.7553
17523TIP3    H273985   3.743   4.295  11.148 -0.9775  0.7572  0.1240
17524TIP3   OH273986   4.114   4.786   6.747 -0.1633  0.1793  0.3229
17524TIP3    H173987   4.160   4.825   6.672 -1.6866 -0.0390 -0.7656
17524TIP3    H273988   4.144   4.695   6.749  0.0592  0.2466  0.1186
17525TIP3   OH273989   5.216   4.208   0.559  0.2243  0.1975  0.1683
17525TIP3    H173990   5.160   4.130   0.553  1.5872 -0.7548 -0.6949
17525TIP3    H273991   5.265   4.195   0.641 -0.9035  1.1071  1.0051
17526TIP3   OH273992   2.851   6.036   4.252 -0.0514  0.1378 -0.4326
17526TIP3    H173993   2.766   6.065   4.221 -0.9908 -2.9443 -1.0592
17526TIP3    H273994   2.869   6.091   4.329 -0.6678  3.5144 -2.5262
17527TIP3   OH273995   3.741   0.702   2.494  0.0849  0.0879  0.3690
17527TIP3    H173996   3.734   0.797   2.506  0.2039  0.0645  0.6245
17527TIP3    H273997   3.814   0.692   2.433  0.6255  0.1222  0.9988
17528TIP3   OH273998   5.546   1.443  14.316 -0.3155  0.0246  0.3622
17528TIP3    H173999   5.475   1.396  14.273  0.7656 -0.2020 -1.2502
17528TIP3    H274000   5.601   1.374  14.353  1.9615 -0.2342 -3.0812
17529TIP3   OH274001   2.610   4.167   1.075  0.1315 -0.2581  0.4848
17529TIP3    H174002   2.664   4.246   1.079  2.5015 -1.7508 -0.0660
17529TIP3    H274003   2.599   4.150   0.982 -1.0867 -0.1390  0.5952
17530TIP3   OH274004   4.816   5.863   1.778  0.1517 -0.2782 -0.3473
17530TIP3    H174005   4.732   5.821   1.796 -0.1960  0.8728  0.9291
17530TIP3    H274006   4.877   5.822   1.840  0.3605 -0.5583 -0.7336
17531TIP3   OH274007   4.191   4.629  14.865  0.3629  0.2990 -0.2691
17531TIP3    H174008   4.129   4.563  14.834 -1.3687  1.6259  0.1956
17531TIP3    H274009   4.166   4.644  14.957  1.2444  1.0043 -0.1329
17532TIP3   OH274010   0.281   1.708   4.518 -0.0640  0.1705  0.1130
17532TIP3    H174011   0.360   1.714   4.464 -0.0694  2.4716  0.2540
17532TIP3    H274012   0.292   1.627   4.567  2.4477  0.5998  0.4332
17533TIP3   OH274013   6.749   3.687   4.732 -0.2870 -0.1526 -0.8032
17533TIP3    H174014   6.783   3.602   4.759  0.5159  0.2395 -0.5166
17533TIP3    H274015   6.661   3.669   4.700  0.9573 -1.5985 -3.7785
17534TIP3   OH274016   0.135   6.100  16.787  0.0355 -0.6974  0.4752
17534TIP3    H174017   0.074   6.041  16.832 -2.0750  0.1307 -1.1878
17534TIP3    H274018   0.183   6.142  16.859 -3.2736  0.6790  2.1058
17535TIP3   OH274019   1.416   5.352  15.793  0.3536  0.1714  0.0846
17535TIP3    H174020   1.472   5.403  15.852  1.1883  0.2842 -0.7821
17535TIP3    H274021   1.467   5.274  15.773 -1.4774 -1.8455  2.5587
17536TIP3   OH274022   2.717   0.625  12.590 -0.1158  0.2934  0.3576
17536TIP3    H174023   2.761   0.710  12.580 -1.6626  1.3015  1.6103
17536TIP3    H274024   2.637   0.633  12.538 -0.1631 -0.5112  0.2897
17537TIP3   OH274025   1.488   0.849  15.938 -0.8282 -0.2439 -0.2051
17537TIP3    H174026   1.500   0.921  15.999  2.7780 -0.6766 -0.1715
17537TIP3    H274027   1.439   0.783  15.988  1.2339 -0.2265  2.0219
17538TIP3   OH274028   3.311   2.232  15.868 -0.3490  0.1141 -0.0684
17538TIP3    H174029   3.404   2.255  15.865 -0.3858  0.1933 -0.6465
17538TIP3    H274030   3.276   2.285  15.939  0.4803 -1.5245  1.6552
17539TIP3   OH274031   0.942   5.957  15.784 -0.1667 -0.2917  0.1573
17539TIP3    H174032   0.850   5.977  15.765 -0.2142 -1.1491 -0.6311
17539TIP3    H274033   0.957   5.993  15.871 -0.8952  0.9556 -0.2110
17540TIP3   OH274034   3.880   4.314   1.796  0.0551 -0.0472  0.3400
17540TIP3    H174035   3.901   4.295   1.887 -2.0223  0.3272  0.9362
17540TIP3    H274036   3.851   4.230   1.760  1.1394 -0.2595 -0.1002
17541TIP3   OH274037   6.414   0.848   0.976  0.1292 -0.2309  0.5082
17541TIP3    H174038   6.355   0.773   0.988  0.0974 -0.0038  2.0563
17541TIP3    H274039   6.436   0.846   0.883 -3.7456  0.7182 -0.6355
17542TIP3   OH274040   0.886   2.524   3.853  0.1961 -0.1903  1.1909
17542TIP3    H174041   0.912   2.438   3.887 -1.3950  0.0112  3.1618
17542TIP3    H274042   0.798   2.511   3.818  0.8558  0.1717 -0.6993
17543TIP3   OH274043   2.513   2.103   0.547  0.6685  0.5212  0.3231
17543TIP3    H174044   2.510   2.025   0.602 -2.6310  0.5927  0.4210
17543TIP3    H274045   2.439   2.156   0.576  1.8298  2.9556 -0.8472
17544TIP3   OH274046   2.091   3.841  13.429  0.0831  0.9435 -0.2074
17544TIP3    H174047   2.150   3.767  13.415  0.7569  1.8122 -2.5496
17544TIP3    H274048   2.144   3.907  13.472 -0.2046  0.4860  0.8715
17545TIP3   OH274049   3.992   0.045  11.155  0.5884 -0.2270 -0.0804
17545TIP3    H174050   4.054  -0.015  11.113 -1.8013 -2.4680 -0.6668
17545TIP3    H274051   3.972   0.110  11.087 -0.4149 -1.6519 -1.2209
17546TIP3   OH274052   4.733   4.879   4.592 -0.0525  0.3361  0.0240
17546TIP3    H174053   4.656   4.854   4.540  0.5307 -1.2440 -0.1197
17546TIP3    H274054   4.768   4.796   4.625 -0.7839  1.2643  3.5634
17547TIP3   OH274055   0.765   6.198  13.754  0.4269  0.3660 -0.4488
17547TIP3    H174056   0.806   6.280  13.725  2.7247  0.1370  1.7699
17547TIP3    H274057   0.695   6.225  13.813  1.2496  0.7705  0.3648
17548TIP3   OH274058   1.099   1.504  14.378  0.1369 -0.0772  0.2953
17548TIP3    H174059   1.064   1.493  14.290 -1.8776 -1.1396  1.1465
17548TIP3    H274060   1.165   1.435  14.388 -0.3590 -0.6122 -0.0626
17549TIP3   OH274061   6.094   0.729   3.956  0.2744  0.2071 -0.1908
17549TIP3    H174062   6.151   0.667   3.911  2.3027  1.4912  0.4924
17549TIP3    H274063   6.068   0.792   3.889  1.0386  0.5496 -0.1749
17550TIP3   OH274064   6.029   3.727  14.710  0.2584  0.2130  0.2171
17550TIP3    H174065   6.084   3.798  14.743  2.0321 -0.5666 -0.9464
17550TIP3    H274066   5.952   3.771  14.674 -0.1030  1.3071  2.1773
17551TIP3   OH274067   0.977   5.173   4.188 -0.4631  0.9443  0.4495
17551TIP3    H174068   0.979   5.268   4.206 -0.8506  0.9707  0.3525
17551TIP3    H274069   0.940   5.135   4.268 -1.3788  0.9820  0.0462
17552TIP3   OH274070   3.321   3.030   2.999 -0.3087 -0.6015  0.4168
17552TIP3    H174071   3.401   2.979   3.012  0.3991  0.5472  0.6693
17552TIP3    H274072   3.351   3.113   2.962 -1.0825  0.8700  2.8771
17553TIP3   OH274073   5.507   1.401  10.674  0.0934 -0.0283 -0.7421
17553TIP3    H174074   5.412   1.399  10.658 -0.0589 -0.3357  0.1459
17553TIP3    H274075   5.527   1.313  10.705  0.0506  0.9598  2.4088
17554TIP3   OH274076   0.748   3.632   3.661 -0.0255 -0.7381  0.1435
17554TIP3    H174077   0.679   3.698   3.657 -0.8510 -1.6087 -0.3332
17554TIP3    H274078   0.723   3.576   3.734  2.0797  0.9505  2.3481
17555TIP3   OH274079   0.138   6.502   6.163 -0.2523 -0.5923  0.0718
17555TIP3    H174080   0.081   6.426   6.149 -0.8959 -0.2286  0.6966
17555TIP3    H274081   0.142   6.511   6.258  0.7341 -0.5217  0.0305
17556TIP3   OH274082   2.485   0.860  13.836  0.1573  0.9765 -0.4696
17556TIP3    H174083   2.576   0.883  13.858 -0.2165  1.5847  0.5374
17556TIP3    H274084   2.463   0.916  13.762  0.6988  0.6088 -0.9126
17557TIP3   OH274085   0.382   2.640   0.454  0.2735 -1.2968 -0.0230
17557TIP3    H174086   0.415   2.574   0.515 -0.3434 -1.1462  0.4868
17557TIP3    H274087   0.415   2.723   0.488 -1.1203 -1.0691  0.8739
17558TIP3   OH274088   0.011   3.183  12.670  0.3632 -0.1261  0.9253
17558TIP3    H174089   0.057   3.100  12.657  0.4776 -0.0415  0.7967
17558TIP3    H274090   0.049   3.219  12.751  2.5889  1.3276 -0.6544
17559TIP3   OH274091   0.725   6.235  15.685 -0.5236 -0.2640  0.3598
17559TIP3    H174092   0.686   6.151  15.706 -0.7931  0.1793  1.7335
17559TIP3    H274093   0.782   6.255  15.759  0.5226  0.1938 -0.5203
17560TIP3   OH274094   2.373   2.332  12.836 -0.5293 -0.2978 -0.1910
17560TIP3    H174095   2.321   2.252  12.832 -3.4796  1.5002 -1.1371
17560TIP3    H274096   2.340   2.378  12.913 -0.0817  0.7346 -0.5946
17561TIP3   OH274097   1.216   0.622  13.172 -0.2756  0.2186 -0.2249
17561TIP3    H174098   1.196   0.575  13.252  0.1272  1.0633  0.3974
17561TIP3    H274099   1.279   0.567  13.126 -0.7876 -0.4410 -0.1467
17562TIP3   OH274100   4.949   4.404  11.728  0.6019 -0.1991  0.0008
17562TIP3    H174101   4.903   4.416  11.811  1.1950  0.7167  0.2124
17562TIP3    H274102   4.891   4.440  11.662  0.9999  0.9835  0.2703
17563TIP3   OH274103   6.082   1.942   4.424  0.2122 -0.4958 -0.0170
17563TIP3    H174104   6.153   1.879   4.432  0.1364 -0.7494 -1.2136
17563TIP3    H274105   6.092   1.999   4.500  0.4203 -1.7916  0.9765
17564TIP3   OH274106   6.288   5.731   1.494  0.1474 -0.3445 -0.2488
17564TIP3    H174107   6.194   5.742   1.511  0.4460  0.8632  0.7041
17564TIP3    H274108   6.330   5.753   1.576  1.2445 -1.7195 -0.4082
17565TIP3   OH274109   5.095   5.508   0.601  0.3749  0.5446  0.4729
17565TIP3    H174110   5.000   5.524   0.597  0.2974 -0.0665 -2.4093
17565TIP3    H274111   5.134   5.595   0.594  0.0627  0.8488  2.2017
17566TIP3   OH274112   0.682   0.535  13.952  0.6787  0.4061  0.2198
17566TIP3    H174113   0.658   0.607  14.011 -1.1212 -1.3629  1.7415
17566TIP3    H274114   0.618   0.540  13.882  1.1969  0.8673 -0.2401
17567TIP3   OH274115   0.051   5.512   0.347  0.1234  0.3041  0.2457
17567TIP3    H174116  -0.015   5.572   0.311 -0.2898  0.4660  1.2271
17567TIP3    H274117   0.002   5.431   0.363  0.2443  0.3042  0.6250
17568TIP3   OH274118   5.428   1.425   1.813 -0.3691  0.7659  0.0940
17568TIP3    H174119   5.513   1.382   1.828 -0.1813 -0.3194 -3.3258
17568TIP3    H274120   5.429   1.499   1.874  1.6525 -0.9205  2.3641
17569TIP3   OH274121   6.160   0.026  17.264 -0.6208  0.0769  0.0045
17569TIP3    H174122   6.181  -0.047  17.322 -2.7623 -1.1702 -0.7014
17569TIP3    H274123   6.187  -0.003  17.177  1.4899  1.4833  0.0827
17570TIP3   OH274124   2.033   4.638   1.258 -0.0397  0.0790 -0.1104
17570TIP3    H174125   1.964   4.693   1.295  1.0381  1.7103 -0.4559
17570TIP3    H274126   2.074   4.691   1.190  0.8528 -1.2601 -0.6772
17571TIP3   OH274127   0.358   4.571   3.500  0.6698 -0.0026  0.1156
17571TIP3    H174128   0.350   4.665   3.515 -1.9328 -0.1304  0.0729
17571TIP3    H274129   0.273   4.536   3.527  0.8503 -2.0711 -1.7634
17572TIP3   OH274130   1.058   2.951  11.591 -0.1713  0.1603  0.0640
17572TIP3    H174131   1.076   3.039  11.623  1.7321 -0.4223  0.7496
17572TIP3    H274132   1.103   2.946  11.507  1.5772 -0.7757  0.9932
17573TIP3   OH274133   2.104   2.513   1.640  0.0558  0.6060 -0.1508
17573TIP3    H174134   2.064   2.556   1.565 -0.5178  1.5109  0.6475
17573TIP3    H274135   2.036   2.457   1.676  0.5661 -0.4117 -0.7386
17574TIP3   OH274136   4.350   1.736   6.060 -0.3037  0.7641 -0.3049
17574TIP3    H174137   4.257   1.741   6.082 -0.2407  0.7489 -0.0272
17574TIP3    H274138   4.395   1.772   6.137 -0.0720  0.5952 -0.3597
17575TIP3   OH274139   1.393   3.645   2.111  0.0093  0.2610  0.4039
17575TIP3    H174140   1.432   3.664   2.196 -1.1543 -0.2656  1.0884
17575TIP3    H274141   1.357   3.729   2.082  0.1297  0.3762  0.5827
17576TIP3   OH274142   3.633   3.856  16.456  0.1337 -0.3710  0.5600
17576TIP3    H174143   3.601   3.939  16.421 -0.8909 -1.5318 -1.4694
17576TIP3    H274144   3.700   3.828  16.394  0.3924 -1.0992  1.1557
17577TIP3   OH274145   5.980   2.819   1.366 -0.0227  0.0361 -0.2593
17577TIP3    H174146   5.959   2.911   1.355 -2.5581 -0.5322 -0.6644
17577TIP3    H274147   6.038   2.798   1.293  0.5649  1.2647 -0.1721
17578TIP3   OH274148   3.121   6.227   3.629  0.2167  0.4083 -0.2464
17578TIP3    H174149   3.109   6.308   3.679  0.0311  1.4831 -1.9672
17578TIP3    H274150   3.153   6.256   3.544 -0.4223 -1.2943 -1.1020
17579TIP3   OH274151   5.939   1.903   3.170  0.2329  0.0606  0.7932
17579TIP3    H174152   5.968   1.817   3.141  0.7223  0.0275  1.3569
17579TIP3    H274153   5.898   1.888   3.255 -1.3113  0.1371  0.0939
17580TIP3   OH274154   3.489   1.601   0.440 -0.4057  0.0587  0.0170
17580TIP3    H174155   3.533   1.676   0.479  1.5906 -0.2181 -1.5126
17580TIP3    H274156   3.493   1.533   0.508  1.6179  0.0502 -0.0436
17581TIP3   OH274157   2.743   1.618   1.300  0.3625  0.3027  0.2760
17581TIP3    H174158   2.800   1.542   1.285 -2.1324 -1.4009 -1.4676
17581TIP3    H274159   2.748   1.669   1.219 -1.5963 -0.7038 -0.5693
17582TIP3   OH274160   6.020   1.608  11.426 -0.0482  0.4291  0.7588
17582TIP3    H174161   5.947   1.669  11.416  0.0846  0.7739  1.7384
17582TIP3    H274162   6.098   1.664  11.423  0.3330 -0.1093 -1.9881
17583TIP3   OH274163   2.858   4.131  12.193  0.0380  0.3588  0.0304
17583TIP3    H174164   2.899   4.184  12.125 -1.5952  2.3747  0.5131
17583TIP3    H274165   2.927   4.118  12.258  0.2676  2.7818  0.3599
17584TIP3   OH274166   6.692   6.724  13.534  0.0074  0.6539 -0.1138
17584TIP3    H174167   6.676   6.669  13.458 -0.4176  0.7379 -0.0882
17584TIP3    H274168   6.637   6.801  13.520 -1.4596 -0.1324  1.1444
17585TIP3   OH274169   0.311   6.670  11.609 -0.8611 -0.6123 -0.1772
17585TIP3    H174170   0.284   6.578  11.609  0.0495 -0.9008 -1.2434
17585TIP3    H274171   0.319   6.692  11.702 -1.6647 -1.4246  0.1009
17586TIP3   OH274172   4.889   6.064   3.588 -0.0138  0.3571 -0.4488
17586TIP3    H174173   4.839   5.984   3.572 -0.8399  0.7865 -0.0640
17586TIP3    H274174   4.980   6.035   3.588 -0.3172 -0.6447  0.0267
17587TIP3   OH274175   0.055   0.661   1.053  0.1083 -0.5294  0.3785
17587TIP3    H174176  -0.000   0.594   1.093 -0.5510 -0.5909 -0.6004
17587TIP3    H274177   0.056   0.639   0.959  0.5859  0.3275  0.1683
17588TIP3   OH274178   2.892   6.714  13.322  0.3202  0.2870 -0.5399
17588TIP3    H174179   2.818   6.749  13.373  1.7775  0.3032  1.6990
17588TIP3    H274180   2.910   6.782  13.257 -2.3113 -0.2303 -1.9574
17589TIP3   OH274181   5.706   6.395  12.483  0.3694  0.2401 -0.2838
17589TIP3    H174182   5.675   6.454  12.414 -0.2652  1.5119  1.0383
17589TIP3    H274183   5.775   6.444  12.527 -1.0511  0.6385  1.6777
17590TIP3   OH274184   1.476   5.027   0.596 -0.5136 -0.6636 -0.2772
17590TIP3    H174185   1.387   5.018   0.631 -0.6477 -0.3949 -0.5472
17590TIP3    H274186   1.469   4.999   0.505 -0.1242 -1.5509 -0.0397
17591TIP3   OH274187   4.979   1.336   4.841  0.3879  0.3820  1.1183
17591TIP3    H174188   4.910   1.350   4.907  0.3190  0.5547  1.0116
17591TIP3    H274189   5.057   1.314   4.892  0.0949 -0.4743  1.2098
17592TIP3   OH274190   3.473   3.601  12.038  0.5424  0.2096  0.2920
17592TIP3    H174191   3.456   3.693  12.018 -1.2664 -0.2803 -0.6515
17592TIP3    H274192   3.517   3.567  11.960  0.0075 -0.0331  0.0956
17593TIP3   OH274193   3.997   3.145   2.917 -0.0206 -0.2898  0.1053
17593TIP3    H174194   3.952   3.209   2.972  0.0644  0.0256 -0.1972
17593TIP3    H274195   3.944   3.066   2.925 -0.9470  0.2331 -0.6818
17594TIP3   OH274196   2.058   3.812  15.484  0.3358 -0.4035 -0.4642
17594TIP3    H174197   2.007   3.828  15.405  1.6182 -0.5343 -1.3531
17594TIP3    H274198   1.996   3.770  15.545 -1.3029  1.8048 -0.4913
17595TIP3   OH274199   4.405   2.531   3.156  0.7546 -0.0917  0.0860
17595TIP3    H174200   4.490   2.520   3.198  1.2419 -0.3121 -0.9130
17595TIP3    H274201   4.349   2.572   3.223  1.7480  0.4057  0.6285
17596TIP3   OH274202   2.189   1.031   2.543  0.4494  0.3515 -0.2513
17596TIP3    H174203   2.110   1.083   2.530  1.0928  1.2225 -0.7745
17596TIP3    H274204   2.235   1.036   2.459  0.6813 -0.8105 -0.2107
17597TIP3   OH274205   5.124   6.706  15.088  0.1853  0.0003 -0.0748
17597TIP3    H174206   5.182   6.737  15.018  0.2219  0.6023  0.2097
17597TIP3    H274207   5.075   6.634  15.049  0.1553  0.3748 -0.7392
17598TIP3   OH274208   0.331   2.526  12.733 -0.2126  0.4164 -0.3841
17598TIP3    H174209   0.396   2.565  12.675  0.1617 -0.0803 -0.2994
17598TIP3    H274210   0.373   2.522  12.819 -0.3693  0.1371 -0.3190
17599TIP3   OH274211   4.971   5.964   4.034 -0.0649  0.1112  0.8384
17599TIP3    H174212   4.912   5.890   4.050  0.6279 -0.1919  2.0602
17599TIP3    H274213   4.936   6.005   3.955 -0.8359 -1.1433  0.4997
17600TIP3   OH274214   2.407   3.181  12.111 -0.3626  0.0146 -0.2525
17600TIP3    H174215   2.427   3.184  12.017 -0.3885  0.7378 -0.2417
17600TIP3    H274216   2.455   3.255  12.148 -0.7278  0.0142  0.2300
17601TIP3   OH274217   1.731   3.959   1.311 -0.0746 -0.3821 -0.2056
17601TIP3    H174218   1.698   3.873   1.335 -1.2846 -0.3762 -1.7276
17601TIP3    H274219   1.735   3.958   1.215 -0.7130  1.4609 -0.2919
17602TIP3   OH274220   1.664   5.758   0.461  0.0323 -0.1667 -0.2588
17602TIP3    H174221   1.593   5.789   0.405  1.2134  1.0858 -1.1386
17602TIP3    H274222   1.716   5.701   0.404 -0.0306 -0.7723  0.2741
17603TIP3   OH274223   4.983   6.557   4.131  0.0491 -0.6536 -0.2741
17603TIP3    H174224   4.943   6.533   4.048  1.0194 -1.9538 -0.3957
17603TIP3    H274225   4.909   6.570   4.190 -0.6127 -0.9221 -1.0213
17604TIP3   OH274226   2.542   0.828   3.715  0.6015  0.0051 -0.3588
17604TIP3    H174227   2.475   0.880   3.669  1.4259  0.8092 -0.6720
17604TIP3    H274228   2.500   0.744   3.730 -1.3551  1.1869  1.4836
17605TIP3   OH274229   5.469   5.600   1.212  0.4608 -1.0201  0.2565
17605TIP3    H174230   5.475   5.628   1.304  0.7212  0.3722 -0.1471
17605TIP3    H274231   5.423   5.517   1.215  1.3940 -1.5286  1.7438
17606TIP3   OH274232   0.673   3.241   3.681 -0.0073 -0.3852 -0.1269
17606TIP3    H174233   0.583   3.215   3.700 -0.4065  0.0655 -1.3062
17606TIP3    H274234   0.665   3.305   3.610  1.1971  0.2033  0.2391
17607TIP3   OH274235   5.137   6.055  14.071 -0.9809  0.1688  0.2430
17607TIP3    H174236   5.106   5.965  14.064 -0.1889 -0.1921  1.1415
17607TIP3    H274237   5.232   6.049  14.067 -0.9327  1.0421 -0.3504
17608TIP3   OH274238   4.604   3.835  17.148 -0.4352  0.1869  0.2230
17608TIP3    H174239   4.545   3.760  17.158 -0.8225  0.5047  0.3221
17608TIP3    H274240   4.613   3.871  17.236  1.3082 -0.9036  0.5207
17609TIP3   OH274241   5.695   3.783  15.634  0.0118  0.1239 -0.3760
17609TIP3    H174242   5.639   3.759  15.561  0.2207 -1.2522 -0.1166
17609TIP3    H274243   5.708   3.877  15.625 -0.7058  0.1238 -1.5764
17610TIP3   OH274244   1.617   4.172  16.798 -0.0505 -0.5131  0.2699
17610TIP3    H174245   1.703   4.213  16.798 -0.5460  0.6560  1.8761
17610TIP3    H274246   1.630   4.087  16.840  0.6772 -1.3202 -1.5071
17611TIP3   OH274247   6.219   5.385   3.627  0.4478  0.1728 -0.6314
17611TIP3    H174248   6.273   5.444   3.678  0.0180  0.4056 -0.4403
17611TIP3    H274249   6.277   5.351   3.559  1.0745 -0.2958  0.1311
17612TIP3   OH274250   1.919   4.372   1.262 -0.7050 -0.0203  0.3449
17612TIP3    H174251   1.973   4.302   1.299  0.7201  0.1628 -1.2824
17612TIP3    H274252   1.981   4.441   1.239 -1.8928  1.0906  0.3575
17613TIP3   OH274253   5.541   6.442  11.498 -0.3828  0.2592 -0.9841
17613TIP3    H174254   5.563   6.349  11.508  0.1861  0.2922 -1.8346
17613TIP3    H274255   5.449   6.442  11.471 -0.7531  0.0069  0.2534
17614TIP3   OH274256   6.425   5.600  15.573 -0.3320  0.1506 -0.4752
17614TIP3    H174257   6.519   5.615  15.572  0.1544 -2.4161 -0.6666
17614TIP3    H274258   6.402   5.594  15.666 -0.1716  0.0689 -0.4408
17615TIP3   OH274259   4.650   3.588  12.629 -0.2481  0.2016 -0.8962
17615TIP3    H174260   4.615   3.506  12.665 -1.3905 -0.2126 -2.8427
17615TIP3    H274261   4.722   3.559  12.573  0.9854  0.7818  0.3175
17616TIP3   OH274262   3.645   3.144  16.128 -0.2647 -0.1308  0.5477
17616TIP3    H174263   3.574   3.177  16.183  0.5171  0.1393  1.4098
17616TIP3    H274264   3.725   3.169  16.173  0.3903 -2.0056  0.5359
17617TIP3   OH274265   1.123   0.226   1.816  0.1415 -0.5109 -0.0040
17617TIP3    H174266   1.059   0.162   1.845 -0.1082 -0.4051 -0.3135
17617TIP3    H274267   1.208   0.190   1.843  0.1152 -1.5542 -1.2337
17618TIP3   OH274268   0.387   5.709   1.714  0.5057 -0.3020  0.3166
17618TIP3    H174269   0.397   5.717   1.808 -0.5146  1.0608  0.3269
17618TIP3    H274270   0.370   5.616   1.699 -2.6770 -0.0779  1.8354
17619TIP3   OH274271   4.764   4.046   3.538  0.1902 -0.3978  0.1115
17619TIP3    H174272   4.857   4.031   3.553  0.2862 -1.8056 -1.5552
17619TIP3    H274273   4.725   3.959   3.541 -1.2722  0.2713  1.7685
17620TIP3   OH274274   3.145   4.085  12.710  0.0829 -0.0679  0.0720
17620TIP3    H174275   3.083   4.073  12.638 -0.2258 -2.6411  0.6649
17620TIP3    H274276   3.231   4.075  12.668 -0.0738 -0.8423 -0.0880
17621TIP3   OH274277   6.577   3.225   4.340 -0.5544  0.3205 -0.7016
17621TIP3    H174278   6.594   3.297   4.400  0.3577  0.3833 -1.0235
17621TIP3    H274279   6.500   3.252   4.290 -1.1671  0.3746  0.2654
17622TIP3   OH274280   5.320   3.427   0.529 -0.2012  0.2919  0.4135
17622TIP3    H174281   5.350   3.343   0.565  1.0320  0.4404 -0.2328
17622TIP3    H274282   5.392   3.457   0.475 -0.1294  2.3696  1.5765
17623TIP3   OH274283   5.176   6.388  11.930  0.2207  0.5139  0.1979
17623TIP3    H174284   5.091   6.368  11.890 -0.1644  1.5991  0.4390
17623TIP3    H274285   5.240   6.346  11.873 -0.5185 -2.0211  1.0507
17624TIP3   OH274286   4.505   3.825   1.398 -0.5129  0.2543  0.2659
17624TIP3    H174287   4.418   3.811   1.361  0.3134 -0.2810 -1.6182
17624TIP3    H274288   4.499   3.909   1.443 -1.7772  0.6390 -0.5658
17625TIP3   OH274289   6.492   3.995  15.203 -0.6673 -0.3534 -0.2213
17625TIP3    H174290   6.466   3.966  15.290  0.0968 -0.4725 -0.0229
17625TIP3    H274291   6.586   4.009  15.209 -0.2898 -2.0369 -1.4876
17626TIP3   OH274292   0.250   3.027   2.629  0.1570 -0.2870  0.0223
17626TIP3    H174293   0.189   2.958   2.606 -1.2316  1.6345 -2.6226
17626TIP3    H274294   0.216   3.063   2.711 -2.6788  0.9923 -1.5634
17627TIP3   OH274295   3.459   2.094   5.468  0.4161  0.4492 -0.0354
17627TIP3    H174296   3.428   2.135   5.548 -0.5407  0.5227 -0.4356
17627TIP3    H274297   3.524   2.031   5.497  1.0858  1.4363  0.6848
17628TIP3   OH274298   3.240   2.028   3.066  0.3765  0.3142  0.3119
17628TIP3    H174299   3.319   2.083   3.071  1.3355 -0.7030 -1.9796
17628TIP3    H274300   3.213   2.017   3.157  1.5104  2.5969  1.0242
17629TIP3   OH274301   2.050   5.414   0.205 -0.2041  0.3330  0.2914
17629TIP3    H174302   2.143   5.437   0.207 -0.2874  0.6280  0.7786
17629TIP3    H274303   2.020   5.423   0.295 -0.3500 -1.2485  0.4375
17630TIP3   OH274304   6.457   0.177  13.211 -0.1607  0.3312  0.2375
17630TIP3    H174305   6.535   0.126  13.189  0.1938  1.4749 -1.3549
17630TIP3    H274306   6.402   0.117  13.261  1.2780 -0.8269  0.5087
17631TIP3   OH274307   4.210   0.858  11.562  0.3237 -0.1469 -0.1293
17631TIP3    H174308   4.267   0.879  11.488  0.1910  1.0053  0.0743
17631TIP3    H274309   4.145   0.929  11.564  1.3702  0.8579  2.1426
17632TIP3   OH274310   1.422   1.717   6.091  0.4332  0.0944 -0.6319
17632TIP3    H174311   1.361   1.779   6.051  1.9182  1.0431 -1.5288
17632TIP3    H274312   1.366   1.644   6.121 -1.2812  1.5750 -0.0637
17633TIP3   OH274313   4.961   2.183   3.627  0.2559 -0.1339  0.2074
17633TIP3    H174314   4.949   2.269   3.588  0.7671  0.7251  1.8575
17633TIP3    H274315   4.904   2.183   3.704  1.6137 -0.5585  1.2527
17634TIP3   OH274316   2.399   3.822   5.563 -0.1308 -0.3701  0.1643
17634TIP3    H174317   2.423   3.816   5.656  1.0949 -0.0056 -0.1178
17634TIP3    H274318   2.323   3.764   5.555  0.4108 -1.2621  1.1701
17635TIP3   OH274319   3.272   4.059  14.526  0.0481  0.2533  0.0819
17635TIP3    H174320   3.235   4.128  14.581  1.0490  0.0011  1.0934
17635TIP3    H274321   3.293   4.103  14.443 -0.4945  0.8738  0.2643
17636TIP3   OH274322   0.587   5.739   3.635 -0.1759  0.1695  0.2174
17636TIP3    H174323   0.497   5.759   3.661  0.0729 -0.4208  1.6145
17636TIP3    H274324   0.578   5.695   3.551 -1.0816  1.4210 -0.3866
17637TIP3   OH274325   5.695   4.414   5.773  0.1887  0.0296  0.0525
17637TIP3    H174326   5.672   4.492   5.823  0.7067  1.6214 -2.0223
17637TIP3    H274327   5.629   4.408   5.704  0.8445 -0.6474 -0.5486
17638TIP3   OH274328   1.963   2.884   5.699 -0.3832  0.2865  0.2061
17638TIP3    H174329   2.056   2.883   5.722 -0.0639  1.8341 -0.8575
17638TIP3    H274330   1.943   2.794   5.676  1.0117  0.0313 -0.0985
17639TIP3   OH274331   4.441   3.673  10.973 -0.4957  0.1928  0.3539
17639TIP3    H174332   4.473   3.604  10.915 -0.0429  1.9114 -1.5786
17639TIP3    H274333   4.354   3.643  10.999 -1.1880 -0.2383 -2.1139
17640TIP3   OH274334   3.750   3.225   0.955 -0.2476  0.1140 -0.2150
17640TIP3    H174335   3.820   3.264   0.903  0.9291 -0.6329  0.7662
17640TIP3    H274336   3.691   3.298   0.974  1.8877  1.4907  1.5515
17641TIP3   OH274337   0.487   2.908   2.573 -0.7039 -0.2516 -0.4160
17641TIP3    H174338   0.439   2.986   2.601  0.2106  0.1158  0.1762
17641TIP3    H274339   0.564   2.904   2.630  0.6296 -0.1406 -2.0888
17642TIP3   OH274340   4.993   6.148  13.851  0.3691  0.3694  0.1708
17642TIP3    H174341   4.985   6.053  13.847  1.4933  0.3125 -1.6004
17642TIP3    H274342   5.055   6.165  13.923  0.1088 -0.2116  0.5366
17643TIP3   OH274343   2.915   1.168  15.239  0.9160  0.5483 -0.3756
17643TIP3    H174344   2.986   1.196  15.180  0.4350 -0.5140 -1.4945
17643TIP3    H274345   2.889   1.248  15.285  2.3164  1.1075 -0.5064
17644TIP3   OH274346   0.148   0.031  15.914 -0.3816 -0.4840 -0.4281
17644TIP3    H174347   0.238   0.022  15.884 -0.3203 -1.8185  0.0827
17644TIP3    H274348   0.136  -0.041  15.976 -1.2776  0.6999  0.8118
17645TIP3   OH274349   0.971   3.976   2.295 -0.5419 -0.6541  0.1199
17645TIP3    H174350   1.026   3.911   2.253  0.4144 -0.3285  0.8320
17645TIP3    H274351   0.920   4.015   2.224  1.2999  0.1555 -0.8077
17646TIP3   OH274352   5.507   4.192   4.583  0.2821  0.2412 -0.2790
17646TIP3    H174353   5.417   4.187   4.614  0.7344  0.0903  1.0754
17646TIP3    H274354   5.560   4.182   4.662  1.4898  0.1362 -1.0785
17647TIP3   OH274355   2.824   0.471   4.840 -0.1239  0.3238 -0.3287
17647TIP3    H174356   2.866   0.392   4.875 -0.4085  0.2990 -0.0426
17647TIP3    H274357   2.799   0.447   4.751 -0.2506  0.0765 -0.2267
17648TIP3   OH274358   2.539   0.316   5.573  0.0210 -0.2162 -0.0993
17648TIP3    H174359   2.537   0.410   5.591  0.0714 -0.1861 -0.2501
17648TIP3    H274360   2.521   0.310   5.479  2.5860 -0.2079 -0.6603
17649TIP3   OH274361   1.459   3.614  17.076 -0.4497 -0.3599 -0.2606
17649TIP3    H174362   1.545   3.617  17.034 -1.0439 -0.0057 -1.5050
17649TIP3    H274363   1.475   3.574  17.161  0.6933 -1.8873 -1.1492
17650TIP3   OH274364   3.935   4.081  14.610 -0.3769 -0.1987  0.0276
17650TIP3    H174365   3.911   4.163  14.654  0.2752 -0.1036  0.2057
17650TIP3    H274366   3.942   4.017  14.681  3.7641  0.6122  0.5776
17651TIP3   OH274367   2.701   4.490   0.014 -0.3865 -0.5157  0.5393
17651TIP3    H174368   2.773   4.541  -0.021 -0.8774  0.2920  0.6737
17651TIP3    H274369   2.742   4.421   0.065  0.2883  0.0675  0.7942
17652TIP3   OH274370   5.969   5.111   5.494  0.3657 -0.4702  0.3503
17652TIP3    H174371   5.880   5.113   5.527 -0.1235 -1.0866 -0.8716
17652TIP3    H274372   6.007   5.194   5.523 -0.5755 -0.2265  0.9317
17653TIP3   OH274373   0.573   1.323   2.496  0.1034 -0.3810 -0.2119
17653TIP3    H174374   0.494   1.325   2.550  0.7452  0.4153  0.7370
17653TIP3    H274375   0.542   1.331   2.406 -0.9080 -0.3949  0.1292
17654TIP3   OH274376   1.403   4.808  13.359 -0.1756  0.0686  0.6720
17654TIP3    H174377   1.370   4.730  13.404  0.2423 -0.5890 -0.1329
17654TIP3    H274378   1.389   4.790  13.266  1.2681  0.3161  0.3852
17655TIP3   OH274379   3.377   4.855   5.263 -0.7784  0.0002 -0.4306
17655TIP3    H174380   3.378   4.947   5.236 -0.5329  0.1883  0.2046
17655TIP3    H274381   3.388   4.858   5.358 -0.3026 -0.7037 -0.4598
17656TIP3   OH274382   0.421   5.126  15.250  0.3125 -0.3808  0.2379
17656TIP3    H174383   0.361   5.186  15.204 -1.5622 -0.7348  2.0758
17656TIP3    H274384   0.476   5.184  15.303  1.5793 -0.0672 -1.3196
17657TIP3   OH274385   5.868   1.647  13.687 -0.3218 -0.3277 -0.3480
17657TIP3    H174386   5.803   1.599  13.637 -1.0201  0.8709 -0.6355
17657TIP3    H274387   5.819   1.686  13.759  0.1788  0.1387 -0.2532
17658TIP3   OH274388   0.903   1.663  14.537  0.0264 -0.1265 -0.1775
17658TIP3    H174389   0.995   1.637  14.527 -0.6173 -1.6778 -3.1627
17658TIP3    H274390   0.889   1.728  14.468 -0.9926  0.5748  0.6603
17659TIP3   OH274391   5.891   0.754  13.922  0.5779 -0.0491  0.1559
17659TIP3    H174392   5.851   0.740  13.837  1.2560 -1.0780 -0.0179
17659TIP3    H274393   5.945   0.832  13.911 -0.2858  0.5435  0.0112
17660TIP3   OH274394   5.301   4.047   6.351 -0.4327  0.0976 -0.4814
17660TIP3    H174395   5.242   3.981   6.386 -0.2030  0.3370  0.3768
17660TIP3    H274396   5.388   4.007   6.357 -0.3434  0.3050 -0.3874
17661TIP3   OH274397   1.401   6.085   1.629 -0.0498  0.3439 -0.4888
17661TIP3    H174398   1.413   5.992   1.649  1.1644  0.6763  0.4513
17661TIP3    H274399   1.335   6.115   1.691 -0.5018  0.0978 -0.8461
17662TIP3   OH274400   3.576   1.449   0.679 -0.1023 -0.3495  0.4795
17662TIP3    H174401   3.639   1.515   0.650 -0.3116 -0.7286 -0.8983
17662TIP3    H274402   3.617   1.366   0.657 -0.2388 -0.6602  1.3754
17663TIP3   OH274403   0.862   4.592   4.888  0.1627 -0.2862  0.2882
17663TIP3    H174404   0.906   4.648   4.952 -2.1820  0.8128  1.0614
17663TIP3    H274405   0.814   4.653   4.832  0.9818 -1.3211 -1.6382
17664TIP3   OH274406   5.595   3.429  14.289 -0.0323 -0.2344 -0.2763
17664TIP3    H174407   5.688   3.443  14.305  0.0189 -2.4890  2.0899
17664TIP3    H274408   5.553   3.512  14.314  1.3383  1.2006 -2.4297
17665TIP3   OH274409   2.202   4.148   4.535 -0.5984 -0.3172 -0.0194
17665TIP3    H174410   2.212   4.242   4.545 -1.7246 -0.2634  0.8615
17665TIP3    H274411   2.200   4.114   4.625 -0.5356 -1.1323 -0.3130
17666TIP3   OH274412   2.501   0.518  13.997  0.1180 -0.0208  0.0775
17666TIP3    H174413   2.496   0.536  13.903  0.9509 -0.6066 -0.0851
17666TIP3    H274414   2.522   0.425  14.003  1.3614  0.2820  0.8179
17667TIP3   OH274415   1.423   5.349   2.734 -0.1092  0.2221 -0.0643
17667TIP3    H174416   1.487   5.391   2.678  0.0818  0.6078  0.4306
17667TIP3    H274417   1.377   5.422   2.776 -0.3661 -0.0565  0.1414
17668TIP3   OH274418   2.673   5.293  11.961 -0.5753 -0.2686  0.0961
17668TIP3    H174419   2.583   5.264  11.980 -0.1053 -2.2808 -0.5518
17668TIP3    H274420   2.667   5.333  11.874 -0.6412 -1.6808 -0.5858
17669TIP3   OH274421   5.128   3.068   1.275 -0.3767  0.1070  0.3382
17669TIP3    H174422   5.183   3.146   1.286 -1.2962  0.6547  1.2290
17669TIP3    H274423   5.069   3.090   1.202 -1.8737  1.0233  1.7602
17670TIP3   OH274424   5.706   4.140  14.016 -0.3162 -0.4558  0.1777
17670TIP3    H174425   5.671   4.199  13.951  0.0547 -0.8401 -0.3769
17670TIP3    H274426   5.730   4.196  14.090  3.3974  0.6765 -1.6470
17671TIP3   OH274427   2.370   0.636   0.725  0.5355 -0.1585 -0.5447
17671TIP3    H174428   2.345   0.726   0.706 -1.2922 -0.6735 -0.8367
17671TIP3    H274429   2.465   0.635   0.721  0.6178  1.8488 -0.0784
17672TIP3   OH274430   4.522   5.365  15.515  0.0654  0.0288 -0.0178
17672TIP3    H174431   4.604   5.352  15.562  0.1589 -2.1034 -0.6754
17672TIP3    H274432   4.489   5.277  15.500 -1.9535  0.8221 -0.4774
17673TIP3   OH274433   2.251   4.411   5.515  0.2433  0.2716  0.4304
17673TIP3    H174434   2.180   4.351   5.492  0.5123 -0.4276  1.3879
17673TIP3    H274435   2.304   4.417   5.436 -0.4981  0.2707 -0.0784
17674TIP3   OH274436   1.605   3.154   4.380  0.1561 -0.1165 -0.5765
17674TIP3    H174437   1.515   3.172   4.352 -0.4461 -1.0121  0.6723
17674TIP3    H274438   1.608   3.059   4.390  0.9491 -0.0110  0.3103
17675TIP3   OH274439   3.717   6.039  11.786 -0.0181  0.6933  0.2735
17675TIP3    H174440   3.663   6.054  11.863 -0.8772  0.0167 -0.1794
17675TIP3    H274441   3.736   6.126  11.751  0.2236  0.9889  1.1346
17676TIP3   OH274442   5.061   1.457   0.244 -0.0170 -0.4126 -0.4083
17676TIP3    H174443   5.018   1.441   0.160  0.7578 -0.3946 -0.8170
17676TIP3    H274444   5.068   1.553   0.249 -0.6179 -0.3812 -0.0289
17677TIP3   OH274445   0.956   0.360  13.821  0.2592 -0.3062 -0.0841
17677TIP3    H174446   0.886   0.326  13.764  0.5067  0.3046 -0.7682
17677TIP3    H274447   0.957   0.300  13.895  0.6618 -1.7978 -1.2492
17678TIP3   OH274448   5.498   2.704  15.703  0.3219 -0.3363 -0.0395
17678TIP3    H174449   5.408   2.703  15.671  0.7171  0.8981 -1.2404
17678TIP3    H274450   5.496   2.763  15.779  0.5939  1.8494 -1.6562
17679TIP3   OH274451   0.060   3.063  15.273 -0.1538  0.4817 -0.2493
17679TIP3    H174452   0.118   2.993  15.243  1.5434  1.5397  0.3733
17679TIP3    H274453   0.027   3.104  15.194 -0.2555 -0.3173 -0.6204
17680TIP3   OH274454   2.296   5.969   5.665 -0.0154  0.6621 -0.6090
17680TIP3    H174455   2.274   5.950   5.756  0.4770 -1.0207 -0.8010
17680TIP3    H274456   2.217   5.949   5.616  0.5157 -1.0827 -0.8162
17681TIP3   OH274457   0.054   3.192   4.130  0.5312  0.0401 -1.0438
17681TIP3    H174458   0.033   3.250   4.057  0.2943  1.5331  0.1513
17681TIP3    H274459  -0.031   3.168   4.167  0.6775  1.1179  0.0687
17682TIP3   OH274460   3.028   6.041   3.209 -0.1579  0.1528  0.7366
17682TIP3    H174461   3.018   5.972   3.144  1.8702 -0.0057  0.5350
17682TIP3    H274462   2.975   6.012   3.283 -0.6200 -0.8088  0.0515
17683TIP3   OH274463   3.184   3.787   0.597 -0.1162 -0.1078  0.7566
17683TIP3    H174464   3.095   3.753   0.591 -0.5461  0.9185  1.1009
17683TIP3    H274465   3.197   3.803   0.690  0.4896 -0.3985  0.7241
17684TIP3   OH274466   5.671   5.841   3.164  0.5677 -0.0908 -0.0752
17684TIP3    H174467   5.580   5.819   3.147  0.4396 -0.1111  0.6001
17684TIP3    H274468   5.705   5.872   3.080 -0.2655  0.6469 -0.1439
17685TIP3   OH274469   2.237   6.728  13.499 -0.0282 -0.2831 -0.0531
17685TIP3    H174470   2.244   6.693  13.410  0.1735 -0.1639 -0.0837
17685TIP3    H274471   2.144   6.716  13.522 -1.1944  3.6759 -1.9564
17686TIP3   OH274472   2.813   3.372  14.635 -0.9327 -0.1239 -0.2678
17686TIP3    H174473   2.801   3.444  14.697 -0.5590 -0.3478  0.0659
17686TIP3    H274474   2.871   3.407  14.568  0.0840 -0.4269  0.4290
17687TIP3   OH274475   0.707   6.009  12.488  0.0611  0.1969 -0.1839
17687TIP3    H174476   0.758   6.038  12.563 -0.6662 -0.7122  0.6916
17687TIP3    H274477   0.773   5.990  12.420  0.8593 -0.4358  0.7409
17688TIP3   OH274478   5.895   2.674  11.837 -0.3479 -0.1064 -0.5394
17688TIP3    H174479   5.887   2.635  11.750 -0.2328 -0.8520 -0.2269
17688TIP3    H274480   5.924   2.602  11.893  0.5268  0.5916 -0.0647
17689TIP3   OH274481   1.524   0.816   6.789 -0.1964 -0.0105 -0.7709
17689TIP3    H174482   1.466   0.759   6.738 -0.5227 -0.5378  0.1670
17689TIP3    H274483   1.594   0.758   6.819 -0.7202 -0.0223  0.4908
17690TIP3   OH274484   3.014   0.390   1.833 -0.0503  0.3125  0.1082
17690TIP3    H174485   2.940   0.342   1.797  0.2714  0.4831 -0.8073
17690TIP3    H274486   3.072   0.322   1.867 -0.4116  0.1569  0.4245
17691TIP3   OH274487   6.064   0.161  12.558  0.2481 -0.6354  0.4605
17691TIP3    H174488   6.109   0.167  12.642 -2.1927 -0.8402  1.9001
17691TIP3    H274489   6.092   0.239  12.510 -0.5429  1.1825  2.7226
17692TIP3   OH274490   3.103   1.737   5.316  0.3253 -0.1981 -0.5777
17692TIP3    H174491   3.125   1.662   5.372 -0.2479  0.1640  0.1553
17692TIP3    H274492   3.187   1.778   5.296  0.4453  0.5950  1.3622
17693TIP3   OH274493   2.534   1.681  12.939 -0.4963 -0.1968 -0.7490
17693TIP3    H174494   2.527   1.743  13.012  0.2051 -0.3297 -0.5637
17693TIP3    H274495   2.486   1.604  12.969 -1.3962  0.2574 -0.9936
17694TIP3   OH274496   0.490   5.620  16.623 -0.2250 -0.3486 -0.2056
17694TIP3    H174497   0.430   5.545  16.616 -2.5968  1.2451  1.4000
17694TIP3    H274498   0.439   5.688  16.667  1.9252  2.1356 -1.2232
17695TIP3   OH274499   1.269   4.165  14.186 -0.2122 -0.4076  0.0094
17695TIP3    H174500   1.182   4.129  14.168 -0.9038  0.4944  1.3453
17695TIP3    H274501   1.252   4.254  14.216  1.3779  0.8394 -2.4434
17696TIP3   OH274502   5.528   2.080   5.075  0.7040  0.0869  0.3629
17696TIP3    H174503   5.441   2.118   5.067  1.5882  2.1589 -0.1409
17696TIP3    H274504   5.521   2.020   5.149 -1.0751  0.4327  0.5236
17697TIP3   OH274505   0.962   6.435   1.466 -0.5494  0.3976  0.4957
17697TIP3    H174506   1.002   6.510   1.510 -1.9581  2.7446 -1.9173
17697TIP3    H274507   0.887   6.472   1.420 -0.2228 -2.1288 -2.3550
17698TIP3   OH274508   5.328   0.515  10.617 -0.5191 -0.0010 -0.5330
17698TIP3    H174509   5.274   0.459  10.672  0.6687 -0.2298  0.4570
17698TIP3    H274510   5.267   0.556  10.556 -1.7131 -0.6385  0.2052
17699TIP3   OH274511   1.642   5.062   2.813  0.0075 -0.1889  0.1114
17699TIP3    H174512   1.623   5.120   2.740  0.5258  0.3260  0.3698
17699TIP3    H274513   1.643   4.975   2.775 -0.9958 -0.0579 -0.2442
17700TIP3   OH274514   3.137   5.418   1.843  1.1165 -0.0847 -0.2325
17700TIP3    H174515   3.228   5.423   1.872  1.4332 -0.6248 -1.0983
17700TIP3    H274516   3.142   5.410   1.748  0.1860 -0.8406 -0.2348
17701TIP3   OH274517   3.115   1.248   1.544 -0.0741 -0.2489 -0.0255
17701TIP3    H174518   3.064   1.253   1.463 -0.0299 -0.5434 -0.0723
17701TIP3    H274519   3.096   1.331   1.589  1.2931  0.7371 -1.1554
17702TIP3   OH274520   3.747   5.356   6.020 -0.0383  0.3721 -0.3290
17702TIP3    H174521   3.808   5.413   5.972 -0.2057  0.8317  0.0070
17702TIP3    H274522   3.791   5.339   6.104 -0.6039  1.1262  0.1220
17703TIP3   OH274523   3.991   4.553   0.448 -0.4806  0.0128 -0.0362
17703TIP3    H174524   3.924   4.582   0.509 -0.9973 -0.0991 -0.5361
17703TIP3    H274525   4.058   4.622   0.452 -1.2615  0.8377 -0.5278
17704TIP3   OH274526   0.620   0.674  11.459  0.3867  0.3368 -0.1110
17704TIP3    H174527   0.659   0.632  11.536  1.7932  0.9894 -0.4209
17704TIP3    H274528   0.617   0.605  11.393 -1.4689 -0.4162  0.6841
17705TIP3   OH274529   0.047   0.427   0.477  0.0387 -0.1897  0.3167
17705TIP3    H174530   0.094   0.503   0.512  1.6105 -1.4169  1.0302
17705TIP3    H274531   0.027   0.451   0.387  3.1427  0.0234 -0.4334
17706TIP3   OH274532   5.226   4.297  16.266 -0.1554  0.0986  0.2715
17706TIP3    H174533   5.309   4.325  16.305  0.8719 -1.3169 -0.8032
17706TIP3    H274534   5.230   4.202  16.268 -1.2057  0.0114 -0.9296
17707TIP3   OH274535   4.853   0.002   2.848  0.5737  0.2297 -0.2740
17707TIP3    H174536   4.783  -0.022   2.787  0.6018  0.2898 -0.3298
17707TIP3    H274537   4.840   0.095   2.864 -0.1998 -0.0503  0.8017
17708TIP3   OH274538   1.039   6.525   4.845 -0.4491  0.4562 -0.2452
17708TIP3    H174539   1.104   6.511   4.776  0.2084  0.3613  0.3848
17708TIP3    H274540   1.060   6.460   4.912 -0.5791  1.0606  0.4005
17709TIP3   OH274541   5.085   6.322   3.374  0.0076 -0.5829  0.2246
17709TIP3    H174542   5.107   6.276   3.293 -1.2761 -1.9855  0.6155
17709TIP3    H274543   5.119   6.266   3.444  1.2411  0.6880  0.6855
17710TIP3   OH274544   4.632   4.774   1.633 -0.2181 -0.2042 -0.2151
17710TIP3    H174545   4.722   4.760   1.664 -0.3415 -0.6439 -0.0488
17710TIP3    H274546   4.585   4.807   1.710 -0.4780 -1.1092  0.0317
17711TIP3   OH274547   2.865   5.759   0.383 -0.0895 -0.1496 -0.4040
17711TIP3    H174548   2.941   5.753   0.441 -0.2698  0.7087 -0.0570
17711TIP3    H274549   2.816   5.835   0.416 -1.4108 -1.0303 -0.2428
17712TIP3   OH274550   2.966   3.550   3.361 -0.4224 -0.0333  0.3884
17712TIP3    H174551   2.909   3.626   3.346 -0.2412  0.1814  0.7784
17712TIP3    H274552   2.909   3.474   3.346 -0.3078  0.1628 -1.1849
17713TIP3   OH274553   5.794   0.398   0.882  0.6517  0.8209  0.2401
17713TIP3    H174554   5.830   0.327   0.829  0.5089 -0.3661  1.6450
17713TIP3    H274555   5.699   0.392   0.869  0.7274  1.8925 -0.9751
17714TIP3   OH274556   4.782   0.281  13.834 -0.2508 -0.2786  0.2812
17714TIP3    H174557   4.840   0.260  13.761 -0.2350  0.4800  0.0688
17714TIP3    H274558   4.840   0.303  13.906 -0.2709 -0.4172  0.3400
17715TIP3   OH274559   2.103   1.012  13.509  0.3717  0.0021 -0.6751
17715TIP3    H174560   2.125   0.939  13.451  2.3055  0.5054 -0.6369
17715TIP3    H274561   2.161   1.002  13.585 -0.1258  0.9471 -0.1408
17716TIP3   OH274562   3.235   1.547   5.475  0.2322  0.4984 -0.5021
17716TIP3    H174563   3.308   1.511   5.525  0.3414  1.1116 -0.2113
17716TIP3    H274564   3.178   1.588   5.541 -0.2622  0.2207 -0.7489
17717TIP3   OH274565   5.550   1.416  15.193 -0.8824  0.4469 -0.8645
17717TIP3    H174566   5.634   1.451  15.222 -1.3953  1.9270 -1.0661
17717TIP3    H274567   5.494   1.421  15.271 -1.3084  1.2727 -1.2088
17718TIP3   OH274568   3.245   2.518  12.208  0.2316 -0.0903  0.6834
17718TIP3    H174569   3.158   2.496  12.242 -0.0624 -0.0589 -0.0258
17718TIP3    H274570   3.242   2.491  12.116  1.7398 -2.2077  1.1925
17719TIP3   OH274571   1.870   3.376  10.523 -0.1454 -0.0528  0.6033
17719TIP3    H174572   1.809   3.407  10.590 -2.2262 -0.5477 -0.9716
17719TIP3    H274573   1.901   3.292  10.556  0.4098  0.5871  1.8068
17720TIP3   OH274574   3.923   1.612  15.088  0.1936  0.0787  0.5013
17720TIP3    H174575   3.845   1.565  15.118  0.5740 -2.0860 -1.5389
17720TIP3    H274576   3.932   1.686  15.148 -2.2001 -0.7960  2.0759
17721TIP3   OH274577   2.090   4.117   0.202  0.3099  0.2085 -0.2060
17721TIP3    H174578   2.002   4.139   0.232  0.3214  0.3546 -0.2757
17721TIP3    H274579   2.089   4.138   0.108  0.4828  0.4115 -0.1632
17722TIP3   OH274580   5.285   5.649   5.531  0.4265  0.2268  0.3596
17722TIP3    H174581   5.371   5.667   5.568  0.9269 -0.1522 -0.6156
17722TIP3    H274582   5.297   5.651   5.436 -0.3034 -1.3440  0.1907
17723TIP3   OH274583   1.633   1.071  15.268  0.0290  0.3222  0.1221
17723TIP3    H174584   1.564   1.075  15.201  0.2480  1.5533 -0.0695
17723TIP3    H274585   1.694   1.005  15.237 -1.1805 -0.9823  0.4264
17724TIP3   OH274586   3.243   2.075  10.440 -0.2890 -0.2429 -0.0910
17724TIP3    H174587   3.215   2.012  10.506  0.5386  0.3208  0.8147
17724TIP3    H274588   3.336   2.058  10.428  0.0189  0.9815  0.3823
17725TIP3   OH274589   3.877   3.571   2.770  0.4891  0.2664 -0.4224
17725TIP3    H174590   3.926   3.589   2.850 -0.2471  1.7703 -0.2747
17725TIP3    H274591   3.883   3.476   2.759  2.1244  0.2414  0.4135
17726TIP3   OH274592   3.106   0.831   3.422 -0.3253 -0.4028  0.2232
17726TIP3    H174593   3.088   0.763   3.486 -2.8713  0.6219  0.7294
17726TIP3    H274594   3.061   0.801   3.342 -2.0149  0.8658  0.6306
17727TIP3   OH274595   2.402   6.123  12.829 -0.3911 -0.2301 -0.6158
17727TIP3    H174596   2.431   6.035  12.805 -1.0902 -0.4796 -0.5707
17727TIP3    H274597   2.443   6.139  12.914  0.5340 -0.1117 -1.0700
17728TIP3   OH274598   2.651   2.060  13.383  0.1585 -0.0192  0.1811
17728TIP3    H174599   2.690   2.096  13.303  0.8237  0.1019  0.5470
17728TIP3    H274600   2.609   2.135  13.425 -0.4161 -0.1362 -0.1823
17729TIP3   OH274601   2.062   5.822   1.456  0.3981  0.5017 -0.2073
17729TIP3    H174602   1.982   5.822   1.404  0.0036  0.9963  0.3786
17729TIP3    H274603   2.078   5.730   1.477 -0.5903  0.4691  0.5090
17730TIP3   OH274604   0.141   2.547  16.727 -0.3781 -0.0992 -0.5497
17730TIP3    H174605   0.151   2.583  16.639  0.0990  0.8137 -0.1288
17730TIP3    H274606   0.169   2.617  16.786 -2.0878 -0.1568  0.4015
17731TIP3   OH274607   4.286   4.712   1.916 -0.1791 -0.3359  0.3223
17731TIP3    H174608   4.310   4.681   1.829  0.0842  0.7422 -0.0049
17731TIP3    H274609   4.370   4.725   1.961 -0.2072  1.2401 -0.0367
17732TIP3   OH274610   2.924   2.636   3.076  0.2014  0.3868  0.3044
17732TIP3    H174611   2.946   2.550   3.041  1.2071  0.8328 -0.2037
17732TIP3    H274612   2.851   2.667   3.022  1.7617  1.0955 -1.5191
17733TIP3   OH274613   0.610   1.339   0.994 -0.3898  0.0232  0.6109
17733TIP3    H174614   0.526   1.360   0.952  0.1791 -0.7130 -0.9556
17733TIP3    H274615   0.603   1.246   1.017 -0.2560  0.1350  1.1166
17734TIP3   OH274616   1.807   4.378   4.195  0.8540 -0.2656 -0.3647
17734TIP3    H174617   1.774   4.407   4.280  0.6553  0.4838 -0.6883
17734TIP3    H274618   1.833   4.287   4.209 -2.3238 -1.2711 -0.3245
17735TIP3   OH274619   5.193   4.968   5.216 -0.0844  0.0721 -0.1776
17735TIP3    H174620   5.154   4.969   5.129  0.4845  1.0626 -0.4420
17735TIP3    H274621   5.161   5.048   5.258  0.4130  0.0941  0.1717
17736TIP3   OH274622   4.069   6.477   2.983 -0.1831  0.1724  0.6924
17736TIP3    H174623   4.043   6.400   3.034 -0.3283  0.4797  1.0906
17736TIP3    H274624   4.164   6.485   2.997 -0.3460  0.7286  1.5938
17737TIP3   OH274625   4.047   2.222  13.899  0.2629 -0.0594 -0.5744
17737TIP3    H174626   4.140   2.244  13.904 -0.0124  1.2225 -0.7308
17737TIP3    H274627   4.002   2.305  13.915 -0.8526 -0.5419 -1.0957
17738TIP3   OH274628   5.664   3.420   3.882  0.2961 -0.1727 -0.1803
17738TIP3    H174629   5.583   3.396   3.927  0.1144  0.8269  0.0417
17738TIP3    H274630   5.658   3.515   3.872  0.7243 -0.2740 -1.5541
17739TIP3   OH274631   5.427   5.630   6.112  0.2676 -0.6772 -0.5652
17739TIP3    H174632   5.377   5.680   6.049  1.7652 -1.6473 -2.6364
17739TIP3    H274633   5.509   5.680   6.123  0.5206 -1.1332 -0.3437
17740TIP3   OH274634   2.216   2.909   5.596 -0.1244  0.4224  0.5012
17740TIP3    H174635   2.310   2.918   5.610 -0.3370 -0.1715  2.6208
17740TIP3    H274636   2.200   2.815   5.598 -0.6053  0.4359 -1.2690
17741TIP3   OH274637   1.370   0.597   0.924  0.3749 -0.5922 -0.0646
17741TIP3    H174638   1.464   0.618   0.917  0.4000  0.3193  2.1043
17741TIP3    H274639   1.367   0.527   0.989 -0.5364  0.6918  1.3389
17742TIP3   OH274640   1.436   4.372   1.508 -0.2674  1.1072 -0.4164
17742TIP3    H174641   1.488   4.301   1.470  1.0476  1.3967  0.7561
17742TIP3    H274642   1.491   4.450   1.497  0.2964  1.1660  2.2290
17743TIP3   OH274643   5.327   0.210   1.583 -0.7219  0.4544 -0.7026
17743TIP3    H174644   5.305   0.302   1.568 -1.9037  0.6302  1.5576
17743TIP3    H274645   5.269   0.183   1.655  2.4942 -0.8008  1.6942
17744TIP3   OH274646   1.258   6.108  13.455 -0.0733 -0.2724  0.6346
17744TIP3    H174647   1.198   6.088  13.384  0.4857  0.7358 -0.1429
17744TIP3    H274648   1.239   6.042  13.522 -1.3188 -0.5932 -0.0123
17745TIP3   OH274649   1.128   3.018   6.119  0.1132  0.3231 -0.4745
17745TIP3    H174650   1.138   2.941   6.174 -0.5895 -0.0558 -0.8621
17745TIP3    H274651   1.111   3.090   6.180  0.0571  0.0417 -0.1574
17746TIP3   OH274652   3.493   0.806  13.369 -0.1605  0.3162  0.6232
17746TIP3    H174653   3.492   0.810  13.274  0.1916  0.3704  0.6213
17746TIP3    H274654   3.452   0.722  13.390 -0.7863  0.5741  0.4470
17747TIP3   OH274655   1.949   4.352   4.571  0.3968  0.7164  0.1195
17747TIP3    H174656   2.033   4.398   4.575  0.3151  1.0253 -1.2654
17747TIP3    H274657   1.950   4.294   4.647  0.7526  2.5401  1.5803
17748TIP3   OH274658   5.541   3.598  10.953 -0.3970 -0.0234  0.2245
17748TIP3    H174659   5.613   3.561  11.003  0.9075  0.5956 -1.1034
17748TIP3    H274660   5.547   3.556  10.867  0.6850  2.5806 -1.1067
17749TIP3   OH274661   4.804   0.120  15.020  0.4799  0.6534 -0.4746
17749TIP3    H174662   4.740   0.189  15.031  1.4780  1.3962  1.1433
17749TIP3    H274663   4.887   0.166  15.008  0.9991 -0.2553 -0.4884
17750TIP3   OH274664   0.718   1.567  14.821 -0.0235 -0.1473 -0.6719
17750TIP3    H174665   0.702   1.550  14.729 -0.6892  0.6509 -0.7250
17750TIP3    H274666   0.811   1.548  14.834  0.2508  0.4313 -1.6718
17751TIP3   OH274667   5.606   4.274  11.686  0.3552 -0.0847 -0.2275
17751TIP3    H174668   5.550   4.351  11.695  1.3616  0.6825 -0.3402
17751TIP3    H274669   5.609   4.236  11.774 -1.8550 -1.2825 -0.5709
17752TIP3   OH274670   2.211   2.098  11.569  0.1627  0.0864 -0.4742
17752TIP3    H174671   2.202   2.194  11.569 -1.2810  0.0062  1.1770
17752TIP3    H274672   2.291   2.082  11.519  0.4422  2.1538 -0.8067
17753TIP3   OH274673   1.347   0.581  15.619 -0.2530 -0.1021  0.0072
17753TIP3    H174674   1.263   0.583  15.665  0.8093  0.2485  2.0890
17753TIP3    H274675   1.376   0.672  15.618  1.2306 -0.4957  1.6713
17754TIP3   OH274676   3.999   3.528  14.591 -0.0279 -0.6060 -1.2707
17754TIP3    H174677   4.018   3.496  14.503  2.6467 -1.3641 -0.4887
17754TIP3    H274678   4.075   3.504  14.644 -1.2419  0.3977  1.1354
17755TIP3   OH274679   2.136   3.633  15.733 -0.0869  0.4331 -0.6800
17755TIP3    H174680   2.135   3.729  15.730  0.9391  0.5710  1.3110
17755TIP3    H274681   2.175   3.612  15.818  0.9971 -1.7599 -1.6211
17756TIP3   OH274682   6.611   1.216   5.056 -0.0461 -0.7760 -0.5973
17756TIP3    H174683   6.605   1.201   4.962  1.0586 -1.4181 -0.5844
17756TIP3    H274684   6.703   1.239   5.071 -0.1213 -1.0486  0.3703
17757TIP3   OH274685   5.609   0.359  10.496  0.3954 -0.1480 -0.0122
17757TIP3    H174686   5.606   0.296  10.567  0.4102  1.0114  1.0533
17757TIP3    H274687   5.518   0.384  10.483  0.1604 -1.6331 -1.6366
17758TIP3   OH274688   1.899   0.661   0.351 -0.0955 -0.1342  0.5010
17758TIP3    H174689   1.945   0.723   0.294  1.7339 -1.2327  0.7194
17758TIP3    H274690   1.823   0.711   0.384 -0.5094  0.9301 -1.8441
17759TIP3   OH274691   4.458   4.628  17.320  0.4670 -0.4651 -0.3149
17759TIP3    H174692   4.410   4.697  17.366 -1.1436  0.1824 -2.7924
17759TIP3    H274693   4.405   4.549  17.332  1.2709 -0.8624  0.8283
17760TIP3   OH274694   4.649   0.184  15.418 -0.0538 -0.3009 -0.2917
17760TIP3    H174695   4.710   0.257  15.419  2.1128 -1.9510 -1.4188
17760TIP3    H274696   4.693   0.115  15.468 -2.2645 -0.7206  1.2329
17761TIP3   OH274697   3.130   1.195   5.007  0.8353  0.4781 -0.0003
17761TIP3    H174698   3.189   1.251   5.058  2.2894 -2.5713  1.9312
17761TIP3    H274699   3.119   1.117   5.061 -1.7430 -0.8065 -2.1805
17762TIP3   OH274700   5.467   2.673  16.699 -0.2631  0.1773  0.5576
17762TIP3    H174701   5.560   2.673  16.723  0.3934 -0.2202 -1.7821
17762TIP3    H274702   5.437   2.585  16.720 -0.2021  0.3584  1.4825
17763TIP3   OH274703   6.452   0.377   1.446  0.3301  0.1748  0.6280
17763TIP3    H174704   6.375   0.327   1.417  1.2339 -0.7600 -0.2808
17763TIP3    H274705   6.463   0.444   1.379  0.5824 -0.0038  0.4877
17764TIP3   OH274706   3.799   1.953   0.744 -0.2534  0.3755  0.1299
17764TIP3    H174707   3.869   1.895   0.774 -0.1805 -0.1697 -1.0640
17764TIP3    H274708   3.835   1.997   0.667 -0.9246  0.7404  0.0198
17765TIP3   OH274709   2.550   1.464  12.677 -0.0810 -0.8328 -0.5599
17765TIP3    H174710   2.624   1.486  12.621 -0.9312  0.7712 -1.1064
17765TIP3    H274711   2.550   1.532  12.745 -2.4327  0.7064 -1.9560
17766TIP3   OH274712   3.815   0.482  15.567 -0.0383 -0.2876  0.4859
17766TIP3    H174713   3.800   0.472  15.662 -0.7582  0.0519  0.4130
17766TIP3    H274714   3.834   0.575  15.555  2.6856 -0.7391  0.6246
17767TIP3   OH274715   4.666   1.105  13.779 -0.4612  0.5122 -0.4279
17767TIP3    H174716   4.725   1.068  13.713  0.5184  3.5659 -1.3941
17767TIP3    H274717   4.612   1.168  13.731 -1.1846  1.2861  1.3231
17768TIP3   OH274718   2.479   3.414  15.145  0.0150  0.3077 -0.1627
17768TIP3    H174719   2.493   3.384  15.235  0.0340  2.6824  0.6860
17768TIP3    H274720   2.533   3.355  15.092 -1.1651 -2.1308  1.1420
17769TIP3   OH274721   4.357   6.337  13.124  0.1808 -0.3102 -1.1715
17769TIP3    H174722   4.360   6.242  13.126 -1.4754 -0.3621  0.4673
17769TIP3    H274723   4.394   6.365  13.208  0.8594  0.5320 -1.7214
17770TIP3   OH274724   2.707   3.736   3.702 -0.5197 -0.1245 -0.5863
17770TIP3    H174725   2.627   3.749   3.651 -0.2324  0.8860 -0.7975
17770TIP3    H274726   2.737   3.824   3.723  1.0978 -0.4504 -1.3804
17771TIP3   OH274727   1.526   1.985  12.613  0.1998  0.6855 -0.2666
17771TIP3    H174728   1.460   1.916  12.607 -0.0112  0.8453  0.1364
17771TIP3    H274729   1.482   2.055  12.662  1.0616  0.3356  1.0353
17772TIP3   OH274730   0.935   6.469   0.130 -0.1009  0.4367  0.1426
17772TIP3    H174731   0.914   6.389   0.178 -0.1237  1.3776  1.7735
17772TIP3    H274732   0.867   6.532   0.156  1.2886  1.7200  0.8797
17773TIP3   OH274733   0.506   3.576  11.944 -0.0512  0.0561 -0.7778
17773TIP3    H174734   0.563   3.647  11.912 -1.5839  3.4757  3.1999
17773TIP3    H274735   0.429   3.581  11.888  0.1178  1.1876 -0.9495
17774TIP3   OH274736   4.274   1.601  14.887  0.4853  0.1654 -0.0713
17774TIP3    H174737   4.310   1.539  14.950 -0.5161 -0.1311  0.2233
17774TIP3    H274738   4.299   1.687  14.922  0.7943 -0.0246  0.1839
17775TIP3   OH274739   6.436   2.997   1.982 -0.2964  0.6891  0.1038
17775TIP3    H174740   6.365   2.978   1.921 -0.7027  1.3906  0.3409
17775TIP3    H274741   6.393   3.043   2.054  0.8433  4.1261 -1.2375
17776TIP3   OH274742   3.546   5.329   2.289 -0.4471  0.0151  0.4580
17776TIP3    H174743   3.544   5.261   2.357  0.9169  1.5335  2.1207
17776TIP3    H274744   3.637   5.327   2.257 -0.7961  0.0682 -0.5563
17777TIP3   OH274745   5.570   3.162   5.040 -0.1400  0.2976 -0.0449
17777TIP3    H174746   5.666   3.154   5.037 -0.2231 -0.4134 -1.1399
17777TIP3    H274747   5.540   3.077   5.073 -0.3636  0.9142  1.4555
17778TIP3   OH274748   3.161   2.803  17.289 -0.2057  0.0809  0.0313
17778TIP3    H174749   3.223   2.812  17.362 -1.0624 -1.0901  0.9581
17778TIP3    H274750   3.199   2.735  17.234 -1.1535 -1.4767  1.2077
17779TIP3   OH274751   0.058   0.606   2.325 -0.2945 -0.0928 -0.2415
17779TIP3    H174752   0.122   0.576   2.389  1.1234  0.0400 -1.5525
17779TIP3    H274753   0.098   0.587   2.240 -1.9188  0.1643 -1.1021
17780TIP3   OH274754   0.552   5.328  14.271  0.1128 -0.4543  0.1007
17780TIP3    H174755   0.610   5.255  14.292 -0.9848 -0.4856  3.7510
17780TIP3    H274756   0.464   5.293  14.285 -0.4436  1.4750  1.9351
17781TIP3   OH274757   0.888   1.832  13.641 -0.0600  0.2029  0.5854
17781TIP3    H174758   0.961   1.891  13.660 -1.1604  0.8505  3.1556
17781TIP3    H274759   0.827   1.884  13.590  0.5457  0.1476 -0.2122
17782TIP3   OH274760   0.115   2.191  16.667  0.7396 -0.4994  0.3820
17782TIP3    H174761   0.137   2.107  16.628 -0.1022 -0.8006  0.5396
17782TIP3    H274762   0.176   2.201  16.740  0.3783 -1.2983  0.7949
17783TIP3   OH274763   2.041   0.176   5.279 -0.5906 -0.4252  0.0697
17783TIP3    H174764   1.963   0.187   5.334  0.5184  1.4693  1.3454
17783TIP3    H274765   2.101   0.125   5.333 -0.2617 -0.3605 -0.2326
17784TIP3   OH274766   6.190   4.618  12.329  0.0127  0.4162 -0.0905
17784TIP3    H174767   6.228   4.530  12.332 -0.8555  0.0539  0.5659
17784TIP3    H274768   6.167   4.637  12.420  0.1677  1.3239 -0.2277
17785TIP3   OH274769   5.594   5.973  13.770 -0.2434  0.3707 -0.3847
17785TIP3    H174770   5.532   5.905  13.797 -0.6870  1.2265  0.8907
17785TIP3    H274771   5.560   6.006  13.687  0.3398 -1.3603 -1.3710
17786TIP3   OH274772   4.691   6.303   1.187  0.2516  0.2605 -0.2344
17786TIP3    H174773   4.769   6.356   1.198  0.3727  0.1294 -0.4496
17786TIP3    H274774   4.618   6.362   1.205  0.3455  0.7413 -1.3470
17787TIP3   OH274775   0.875   2.251  14.742 -0.1077 -0.2746  0.0098
17787TIP3    H174776   0.966   2.235  14.718  0.4424  0.6583  1.3062
17787TIP3    H274777   0.826   2.181  14.700  1.3281 -1.3664  0.0626
17788TIP3   OH274778   5.280   4.115   3.040 -0.0585  0.1256  0.1857
17788TIP3    H174779   5.202   4.095   2.987  0.2018 -0.6643  0.0982
17788TIP3    H274780   5.245   4.157   3.119 -0.4303  1.7226 -0.7762
17789TIP3   OH274781   5.041   4.102   1.745 -0.4239  0.3825  0.0370
17789TIP3    H174782   5.096   4.104   1.667 -2.1464 -0.8886 -1.3049
17789TIP3    H274783   5.093   4.056   1.810  1.1089  1.6036 -0.2890
17790TIP3   OH274784   2.800   3.499  12.008  0.2314  0.8141 -0.1473
17790TIP3    H174785   2.759   3.583  11.987  0.1580  0.5996 -0.8835
17790TIP3    H274786   2.850   3.477  11.929 -0.5120 -0.2982 -0.3131
17791TIP3   OH274787   6.078   3.508  15.070 -0.5273  0.1622  0.5052
17791TIP3    H174788   6.122   3.431  15.108  0.7201  0.7883  0.3855
17791TIP3    H274789   6.098   3.503  14.977 -1.1360  0.2041  0.3691
17792TIP3   OH274790   2.816   4.835  14.579  0.1892  0.3897 -0.2494
17792TIP3    H174791   2.882   4.900  14.554  0.3489  0.5801  0.6412
17792TIP3    H274792   2.866   4.754  14.590  0.0701  0.2289 -0.8270
17793TIP3   OH274793   2.147   3.687  17.166  0.3452 -0.4260 -0.0452
17793TIP3    H174794   2.078   3.676  17.232  0.1587 -1.7080 -0.4326
17793TIP3    H274795   2.215   3.625  17.192  1.2320  0.5780  0.1312
17794TIP3   OH274796   3.267   1.445   3.665 -0.2965 -0.0069 -0.0686
17794TIP3    H174797   3.342   1.474   3.613 -0.9246 -0.8577 -1.4936
17794TIP3    H274798   3.252   1.355   3.637  0.3242 -1.0760  2.7489
17795TIP3   OH274799   5.820   1.381   4.943 -0.9624 -0.0720  0.4843
17795TIP3    H174800   5.859   1.349   4.862 -0.5574 -0.9219  1.0020
17795TIP3    H274801   5.747   1.321   4.960 -0.2003 -0.7551  1.4647
17796TIP3   OH274802   5.764   0.238  12.347  0.3513  0.0787 -0.1659
17796TIP3    H174803   5.797   0.319  12.309 -0.5975  0.0806 -1.0332
17796TIP3    H274804   5.695   0.266  12.407  0.1131 -0.0794 -0.3660
17797TIP3   OH274805   5.540   5.447   2.990  0.9416 -0.0826 -0.0078
17797TIP3    H174806   5.486   5.467   2.913  2.4141 -2.1536 -1.7127
17797TIP3    H274807   5.625   5.487   2.971  1.2261 -0.3223  0.7135
17798TIP3   OH274808   1.798   0.320   4.924  0.5053 -0.1353  0.2022
17798TIP3    H174809   1.712   0.361   4.930  0.2824 -0.7572  1.6105
17798TIP3    H274810   1.784   0.241   4.871  0.5164  0.4944 -0.7614
17799TIP3   OH274811   1.915   0.585   4.745  0.1120 -0.2789  0.0698
17799TIP3    H174812   1.863   0.549   4.674  1.2273 -0.2660 -0.7748
17799TIP3    H274813   1.995   0.532   4.746  0.7021  0.5869  0.4106
17800TIP3   OH274814   4.748   2.354  13.921 -1.1086 -0.2041  0.5555
17800TIP3    H174815   4.705   2.275  13.889  1.6694 -1.8021  0.4960
17800TIP3    H274816   4.755   2.410  13.844  1.5779 -2.1826 -0.8015
17801TIP3   OH274817   6.410   3.009  16.605  0.0095  0.2604 -0.3350
17801TIP3    H174818   6.369   3.022  16.691 -1.0304 -0.1097 -0.7561
17801TIP3    H274819   6.447   2.920  16.610  4.1238  1.8232  1.3379
17802TIP3   OH274820   3.387   4.296  11.409 -0.5494  0.4907  0.1600
17802TIP3    H174821   3.481   4.312  11.418 -0.6923  2.4593 -1.0984
17802TIP3    H274822   3.376   4.269  11.317 -0.9118 -2.9139  1.0798
17803TIP3   OH274823   1.374   5.599   0.411  0.3004 -0.3033 -0.1680
17803TIP3    H174824   1.342   5.526   0.358  2.0729  0.4785 -2.4859
17803TIP3    H274825   1.362   5.570   0.502 -0.7871 -2.6585 -0.9918
17804TIP3   OH274826   1.221   4.442  16.220  0.1468 -0.6502 -0.1527
17804TIP3    H174827   1.305   4.397  16.210  0.9502  1.0203 -1.5668
17804TIP3    H274828   1.245   4.534  16.235 -1.3559  0.2044 -2.4472
17805TIP3   OH274829   0.462   4.292  12.369  0.3050  0.0651  0.1646
17805TIP3    H174830   0.423   4.233  12.433  1.7186  3.4461  4.5752
17805TIP3    H274831   0.542   4.323  12.410  3.0129  0.4302 -4.5936
17806TIP3   OH274832   1.704   3.573   2.480 -0.1922  0.1712  0.1775
17806TIP3    H174833   1.793   3.605   2.495  0.1924  0.9151 -3.0274
17806TIP3    H274834   1.664   3.570   2.567  2.6746  0.6367  1.5977
17807TIP3   OH274835   0.790   6.678   2.493 -0.2918  0.1600 -0.2932
17807TIP3    H174836   0.750   6.730   2.423  1.9407  0.8329 -1.1680
17807TIP3    H274837   0.743   6.705   2.572  0.2812  3.0939 -0.8109
17808TIP3   OH274838   4.746   5.289  13.822  0.2151  0.2385 -0.3633
17808TIP3    H174839   4.698   5.206  13.826  0.4469  0.0991 -0.4253
17808TIP3    H274840   4.826   5.267  13.773  0.4657  0.4070 -0.0258
17809TIP3   OH274841   0.850   4.817  13.439  0.2707  0.0515  0.0715
17809TIP3    H174842   0.812   4.825  13.351 -0.0458  0.5727  0.2468
17809TIP3    H274843   0.940   4.789  13.424  1.0413  2.5562 -0.5960
17810TIP3   OH274844   1.676   3.669  16.904 -0.0355 -0.4164 -0.4512
17810TIP3    H174845   1.680   3.756  16.945  0.9303  0.0964 -1.5606
17810TIP3    H274846   1.632   3.684  16.821 -0.3990 -1.1175 -0.3938
17811TIP3   OH274847   1.645   0.588  11.885 -0.0951  0.3247 -0.3804
17811TIP3    H174848   1.730   0.563  11.849  0.9972  1.9180  0.8987
17811TIP3    H274849   1.593   0.615  11.809  1.6237  2.2029 -0.9920
17812TIP3   OH274850   4.268   4.662  12.346  0.4378 -0.5404  0.3006
17812TIP3    H174851   4.235   4.749  12.367  1.1594  0.2686 -1.6362
17812TIP3    H274852   4.202   4.602  12.379 -0.7091  0.8137  0.5342
17813TIP3   OH274853   4.391   1.253  12.823 -0.3107 -0.4572 -0.7238
17813TIP3    H174854   4.394   1.335  12.873  0.0213 -0.9827  0.1371
17813TIP3    H274855   4.297   1.234  12.815 -0.3611 -0.8137  0.4671
17814TIP3   OH274856   3.054   6.707   0.960 -0.7636  0.0930 -0.5203
17814TIP3    H174857   2.971   6.662   0.942 -1.9602  0.8796  2.3973
17814TIP3    H274858   3.041   6.796   0.929 -0.7785  0.0815 -0.5474
17815TIP3   OH274859   6.317   0.450  12.104 -0.4875 -0.0398 -0.3766
17815TIP3    H174860   6.222   0.455  12.092 -0.4193  1.1479 -0.5702
17815TIP3    H274861   6.328   0.405  12.188 -1.2185 -0.4329 -0.4851
17816TIP3   OH274862   6.131   2.773   5.886 -0.1429  0.3798  0.0324
17816TIP3    H174863   6.195   2.794   5.818 -0.7944 -0.1109 -0.7461
17816TIP3    H274864   6.143   2.842   5.952  1.4965  0.0404  0.1389
17817TIP3   OH274865   1.908   3.642  15.276  0.5203  0.1211  0.1036
17817TIP3    H174866   1.825   3.616  15.317  0.1366  1.4782  0.2698
17817TIP3    H274867   1.959   3.562  15.272 -0.5721 -0.6344  0.5556
17818TIP3   OH274868   2.941   1.837   6.154  0.5245  1.0158 -0.1356
17818TIP3    H174869   3.017   1.894   6.145  2.1229 -0.5015  2.4496
17818TIP3    H274870   2.881   1.886   6.210  1.3609  0.6927  1.0739
17819TIP3   OH274871   5.937   0.006  17.024 -0.1242  0.2740 -0.0701
17819TIP3    H174872   5.937   0.031  17.117  0.2672  0.0390 -0.0069
17819TIP3    H274873   5.986  -0.076  17.021  0.3583  0.5745 -0.5641
17820TIP3   OH274874   5.239   1.218  13.734  0.5297  0.3083 -0.5214
17820TIP3    H174875   5.264   1.128  13.755  2.7295  0.8151 -0.6938
17820TIP3    H274876   5.147   1.213  13.708 -0.3363 -1.4095  2.4523
17821TIP3   OH274877   3.781   3.676  16.248  0.6088 -0.0056  0.3201
17821TIP3    H174878   3.730   3.644  16.173 -1.1750 -1.4243  2.0377
17821TIP3    H274879   3.872   3.654  16.226 -0.0196 -1.5872 -0.8666
17822TIP3   OH274880   0.516   4.052  11.693  0.0826 -0.5184 -0.1251
17822TIP3    H174881   0.612   4.053  11.693  0.1164 -1.8217 -0.2180
17822TIP3    H274882   0.491   4.144  11.690  1.3245 -0.1332  0.7833
17823TIP3   OH274883   5.279   1.140   0.756  0.3534 -0.6478  0.3132
17823TIP3    H174884   5.230   1.220   0.740  1.9479  0.6577  1.6094
17823TIP3    H274885   5.212   1.074   0.776 -0.9246  0.7969  0.9695
17824TIP3   OH274886   5.720   1.042  16.149 -0.3590 -0.2216  0.2584
17824TIP3    H174887   5.783   0.995  16.094  0.6397 -0.4446  1.5259
17824TIP3    H274888   5.769   1.117  16.182 -0.9342 -0.0751  0.8023
17825TIP3   OH274889   1.801   6.540  16.941 -0.6569  0.1327  0.0510
17825TIP3    H174890   1.823   6.537  17.034 -0.7913  0.1926  0.0848
17825TIP3    H274891   1.706   6.540  16.938 -0.6575  0.6365 -0.0673
17826TIP3   OH274892   5.231   6.214   4.922 -0.0708 -0.2468  0.1565
17826TIP3    H174893   5.196   6.273   4.855 -0.0413 -1.0327 -0.5669
17826TIP3    H274894   5.154   6.167   4.954 -0.0812  0.1060  0.6777
17827TIP3   OH274895   5.619   3.710  16.986  0.3956  0.5181  0.3104
17827TIP3    H174896   5.708   3.730  16.960  0.5081 -1.8281 -1.3962
17827TIP3    H274897   5.613   3.739  17.078  2.2092  2.5754 -0.1512
17828TIP3   OH274898   5.878   4.466  12.274  0.5360 -0.0062  0.2704
17828TIP3    H174899   5.834   4.527  12.333 -1.0513  0.7287 -1.5661
17828TIP3    H274900   5.971   4.486  12.284  0.3104  0.2543  2.2795
17829TIP3   OH274901   3.431   5.672   1.710  0.0309 -0.6224 -0.1063
17829TIP3    H174902   3.418   5.610   1.781  0.1311 -1.6227 -0.9367
17829TIP3    H274903   3.414   5.622   1.630 -0.5052  0.5770 -0.7851
17830TIP3   OH274904   2.700   6.511   1.976 -0.8144  0.3562  0.8492
17830TIP3    H174905   2.632   6.463   2.021  0.5527 -2.8980 -0.2610
17830TIP3    H274906   2.661   6.538   1.893 -1.3632  0.4368  1.1347
17831TIP3   OH274907   1.204   6.479  17.097  0.1537 -0.3764 -0.4828
17831TIP3    H174908   1.275   6.540  17.080  0.7243 -0.8331  0.1546
17831TIP3    H274909   1.146   6.525  17.158  0.1943 -0.2022 -0.5758
17832TIP3   OH274910   5.905   3.479   5.560 -0.7054  0.1484 -0.0768
17832TIP3    H174911   5.875   3.391   5.535 -2.3325  0.8133 -0.5564
17832TIP3    H274912   5.929   3.470   5.652 -1.0237 -0.7643 -0.0708
17833TIP3   OH274913   1.316   4.153  15.029  0.0555  0.1738 -0.0605
17833TIP3    H174914   1.347   4.101  14.954 -0.1642 -0.5243  0.3172
17833TIP3    H274915   1.294   4.238  14.992  0.6728  0.0873 -0.6589
17834TIP3   OH274916   2.608   6.528   5.480  0.2374  0.0359 -1.1069
17834TIP3    H174917   2.600   6.602   5.420 -0.0349  1.4891  0.6315
17834TIP3    H274918   2.520   6.513   5.513  0.6688  0.6554  0.4590
17835TIP3   OH274919   6.224   3.795  14.431 -0.2035 -0.4744 -0.1425
17835TIP3    H174920   6.291   3.727  14.422 -1.6088 -1.8697 -0.4543
17835TIP3    H274921   6.160   3.775  14.363 -1.4093  0.2769  0.7317
17836TIP3   OH274922   4.802   4.874  16.892 -0.0844  0.3649 -0.1438
17836TIP3    H174923   4.723   4.926  16.906  0.7320  1.3585  1.0513
17836TIP3    H274924   4.799   4.849  16.800 -1.8422  0.2461 -0.0988
17837TIP3   OH274925   2.888   3.875   2.531  0.1350  0.2105  0.0223
17837TIP3    H174926   2.866   3.827   2.451  0.0546  1.1943 -0.5581
17837TIP3    H274927   2.981   3.894   2.523  0.1955  0.0476  0.3149
17838TIP3   OH274928   1.269   4.790  15.797 -0.1566 -0.1404 -0.4554
17838TIP3    H174929   1.238   4.873  15.833 -1.6032 -0.7419 -0.2314
17838TIP3    H274930   1.320   4.815  15.720  0.2181  0.9897  0.1393
17839TIP3   OH274931   3.683   0.593   2.888 -0.5640 -0.1029  0.4134
17839TIP3    H174932   3.636   0.676   2.894 -0.9762 -0.3391  0.5214
17839TIP3    H274933   3.700   0.568   2.979 -1.4401 -0.6839  0.4380
17840TIP3   OH274934   5.357   3.791  14.594 -0.0550  0.0131 -0.0547
17840TIP3    H174935   5.437   3.838  14.569 -0.4865  0.9617  0.3209
17840TIP3    H274936   5.288   3.856  14.589 -1.2561 -1.2923 -2.6228
17841TIP3   OH274937   2.537   5.240   4.019  0.2256 -0.4976  0.5392
17841TIP3    H174938   2.519   5.258   4.111  0.4908 -0.3192  0.5566
17841TIP3    H274939   2.557   5.146   4.017  2.3836 -0.1052  1.0278
17842TIP3   OH274940   0.937   1.463  16.422  0.3215  0.3688  0.1774
17842TIP3    H174941   0.868   1.503  16.369 -0.7209 -1.1709  0.2814
17842TIP3    H274942   0.929   1.506  16.508  2.2554  3.1257 -0.8956
17843TIP3   OH274943   5.062   4.356  12.407 -0.2623 -0.0479  0.4375
17843TIP3    H174944   4.976   4.373  12.368 -0.4699  0.3776  1.0592
17843TIP3    H274945   5.077   4.431  12.466  0.4917 -0.1645  0.4065
17844TIP3   OH274946   2.960   6.512  14.494 -0.5281 -0.1070  0.4415
17844TIP3    H174947   2.944   6.606  14.487 -1.5893 -0.1340  2.0575
17844TIP3    H274948   2.873   6.472  14.483 -0.1169 -0.8926 -0.0431
17845TIP3   OH274949   5.595   3.363   5.342 -0.0676 -0.7337 -0.1144
17845TIP3    H174950   5.528   3.380   5.407 -0.9706 -0.6798 -1.0344
17845TIP3    H274951   5.610   3.269   5.347 -2.0496 -1.1979 -1.5820
17846TIP3   OH274952   2.601   2.052  14.397  0.0271 -1.0677 -0.2788
17846TIP3    H174953   2.526   2.005  14.433 -1.1507 -0.0215 -1.2593
17846TIP3    H274954   2.615   2.125  14.458 -0.5674 -0.5472 -0.7562
17847TIP3   OH274955   1.661   4.450   4.488 -0.4481  0.5037  0.5052
17847TIP3    H174956   1.695   4.540   4.492  0.1764  0.4237 -1.8502
17847TIP3    H274957   1.724   4.399   4.539  0.3035  1.1021  0.1999
17848TIP3   OH274958   5.974   4.250  13.381  0.5749 -0.3591 -0.2838
17848TIP3    H174959   6.014   4.167  13.405  0.5805 -0.2816 -0.0279
17848TIP3    H274960   6.023   4.316  13.430  0.2294 -0.2508 -0.0815
17849TIP3   OH274961   4.499   0.150  16.004 -0.3129 -0.3165  0.2691
17849TIP3    H174962   4.428   0.142  15.939 -0.2157 -1.0153  0.2500
17849TIP3    H274963   4.566   0.089  15.973 -0.3780 -0.8575  1.1777
17850TIP3   OH274964   4.212   3.632  12.869  0.4595 -0.2738  0.4007
17850TIP3    H174965   4.140   3.649  12.808  0.3453  0.5940  0.7613
17850TIP3    H274966   4.265   3.565  12.825  0.8704  0.9456 -1.0898
17851TIP3   OH274967   4.418   1.357  11.655  0.4116  0.3570 -0.7600
17851TIP3    H174968   4.511   1.334  11.656  0.8228  1.9154  0.5865
17851TIP3    H274969   4.404   1.408  11.735 -1.5678  0.3332 -1.0290
17852TIP3   OH274970   3.373   3.787   0.301  0.7758 -0.1978 -0.1689
17852TIP3    H174971   3.412   3.702   0.280 -0.0416 -0.4017 -0.9277
17852TIP3    H274972   3.302   3.766   0.362  0.3956 -0.1009 -0.5721
17853TIP3   OH274973   5.518   1.047   3.511 -0.1045  0.5126 -0.1654
17853TIP3    H174974   5.513   1.069   3.604  2.1063  0.1140  0.0995
17853TIP3    H274975   5.609   1.019   3.498 -0.2739  0.8680 -2.5146
17854TIP3   OH274976   4.166   1.042   2.452 -0.2851  0.0673 -0.5390
17854TIP3    H174977   4.150   1.019   2.544 -1.5433 -0.2059 -0.8004
17854TIP3    H274978   4.175   0.957   2.408  1.4323  0.2094 -0.5105
17855TIP3   OH274979   4.995   4.730   1.227  0.3871 -0.2055  0.3488
17855TIP3    H174980   5.059   4.674   1.183 -1.1370 -0.0990 -2.1811
17855TIP3    H274981   4.910   4.696   1.199 -0.6423  0.9086  1.9755
17856TIP3   OH274982   5.016   6.408  12.453 -0.3596 -0.1190 -0.0758
17856TIP3    H174983   5.084   6.475  12.447  0.4511 -0.9105  0.0693
17856TIP3    H274984   4.955   6.429  12.382  0.1061  0.5231 -0.2935
17857TIP3   OH274985   2.651   0.116   6.090 -0.0377 -0.1047 -0.3255
17857TIP3    H174986   2.598   0.139   6.013  0.0824  1.4057  0.0075
17857TIP3    H274987   2.741   0.135   6.063 -0.1007  1.7289  0.5764
17858TIP3   OH274988   5.125   4.416  14.098  0.0584  0.1455 -0.1830
17858TIP3    H174989   5.085   4.467  14.168  1.6557  3.1778 -1.3125
17858TIP3    H274990   5.053   4.401  14.036 -1.0212 -1.3101  1.3193
17859TIP3   OH274991   0.002   4.826   3.423  0.1582 -0.1213  0.1011
17859TIP3    H174992  -0.075   4.773   3.445 -1.0173  0.8524 -1.4290
17859TIP3    H274993  -0.032   4.916   3.420  1.8575  0.6352  1.5529
17860TIP3   OH274994   3.665   1.585  15.459  0.1520  0.1391 -0.2369
17860TIP3    H174995   3.628   1.667  15.492  0.3453 -0.2788  1.0391
17860TIP3    H274996   3.592   1.545  15.410 -0.5394  0.1739  0.7407
17861TIP3   OH274997   1.006   4.523  13.540  0.5661 -0.3900 -0.1460
17861TIP3    H174998   0.985   4.460  13.472  1.5449 -0.8453 -0.0491
17861TIP3    H274999   1.012   4.472  13.620 -0.0447  0.0595  0.1992
17862TIP3   OH275000   6.690   4.625   1.316  0.5246 -0.1183  0.5670
17862TIP3    H175001   6.627   4.558   1.343 -0.3204  0.1076 -0.7598
17862TIP3    H275002   6.643   4.708   1.324  0.7319  0.0833 -0.1711
17863TIP3   OH275003   0.668   6.210   5.147  0.1243 -0.2023  0.8130
17863TIP3    H175004   0.667   6.299   5.181 -0.0308  0.6920 -1.3398
17863TIP3    H275005   0.725   6.161   5.207  1.7286  1.8143  1.0287
17864TIP3   OH275006   1.342   0.621  14.598  0.3121  0.4517  0.7477
17864TIP3    H175007   1.437   0.636  14.606  1.1733 -3.5322  0.0821
17864TIP3    H275008   1.321   0.649  14.509  0.8031  1.5170  0.9502
17865TIP3   OH275009   6.443   5.148   0.366 -0.4873 -0.2613 -0.1212
17865TIP3    H175010   6.501   5.224   0.370  0.1864 -0.8273  1.3473
17865TIP3    H275011   6.397   5.148   0.450  0.9346 -2.5362  0.7366
17866TIP3   OH275012   0.987   4.489   1.595 -0.3221 -0.4602 -0.3180
17866TIP3    H175013   1.007   4.456   1.682 -1.0475  1.2030  0.5449
17866TIP3    H275014   1.067   4.532   1.566 -0.0315 -1.1506 -0.5451
17867TIP3   OH275015   5.229   4.284   2.698  0.5764  0.6884 -0.2263
17867TIP3    H175016   5.208   4.328   2.615 -0.2174 -0.3769 -0.6086
17867TIP3    H275017   5.252   4.195   2.672 -2.1011 -0.4325  0.8441
17868TIP3   OH275018   5.970   3.925  13.018  0.0855 -0.5908 -0.1167
17868TIP3    H175019   5.958   3.877  12.936  0.0160 -0.0295 -0.4444
17868TIP3    H275020   6.040   3.878  13.064 -0.0525 -1.0603 -0.3767
17869TIP3   OH275021   6.208   0.731  15.302  0.2806  0.2431  0.3405
17869TIP3    H175022   6.284   0.762  15.351 -0.3637  1.5719  0.5401
17869TIP3    H275023   6.240   0.655  15.254  1.4708  0.1883  1.1817
17870TIP3   OH275024   2.143   6.409   2.124  0.0852  0.2272 -0.1166
17870TIP3    H175025   2.141   6.397   2.219  1.6130  0.3765 -0.0418
17870TIP3    H275026   2.178   6.327   2.090 -0.7385  0.0564 -0.5981
17871TIP3   OH275027   6.608   4.408   1.625 -0.5310  0.1957  0.1462
17871TIP3    H175028   6.691   4.402   1.673  0.1163  2.0180 -0.6874
17871TIP3    H275029   6.628   4.374   1.538 -1.4052 -1.9569  0.7149
17872TIP3   OH275030   6.404   0.782   2.588 -0.4326 -0.2978 -0.2551
17872TIP3    H175031   6.430   0.697   2.553 -1.5239 -1.3394  1.3272
17872TIP3    H275032   6.481   0.837   2.575  0.2782 -1.4844 -1.3752
17873TIP3   OH275033   1.910   0.983   0.306  0.3763 -0.1406 -0.0329
17873TIP3    H175034   1.938   0.980   0.214 -1.0644  0.3065 -0.5183
17873TIP3    H275035   1.930   1.073   0.334 -0.5210  0.1768 -0.3772
17874TIP3   OH275036   6.059   4.409   3.872  0.1221 -0.0902 -0.0023
17874TIP3    H175037   6.113   4.330   3.878  0.7171  0.3526  0.6142
17874TIP3    H275038   5.973   4.381   3.901  0.5443 -0.3252  1.0686
17875TIP3   OH275039   2.955   2.542  11.736  0.4799 -0.4546  0.1480
17875TIP3    H175040   2.941   2.530  11.642  2.4339 -3.0946  0.0816
17875TIP3    H275041   3.050   2.555  11.745  0.3439 -0.3622  1.7553
17876TIP3   OH275042   5.926   1.267  12.744 -0.3837  0.4624 -0.4474
17876TIP3    H175043   5.839   1.286  12.778  0.1012 -0.6474  1.5864
17876TIP3    H275044   5.962   1.351  12.718 -1.7467  1.0312 -0.5386
17877TIP3   OH275045   2.383   4.004   2.030  0.2568  0.2472  0.4966
17877TIP3    H175046   2.384   4.093   1.994 -1.5218 -0.5108 -1.6809
17877TIP3    H275047   2.294   3.993   2.063  0.5740 -0.6057  1.0970
17878TIP3   OH275048   3.705   3.895   3.167 -0.2395 -0.1312 -0.4590
17878TIP3    H175049   3.771   3.865   3.229  0.1999  1.2084 -0.2521
17878TIP3    H275050   3.622   3.888   3.215  0.1440  1.3401  0.4916
17879TIP3   OH275051   3.006   2.294  13.011  0.1331  0.5323  0.9491
17879TIP3    H175052   2.992   2.232  13.083 -0.0056  0.4980  0.8933
17879TIP3    H275053   3.060   2.245  12.948 -1.2500 -0.0883  0.1958
17880TIP3   OH275054   1.260   6.098   3.791  0.1067 -0.3018  0.3683
17880TIP3    H175055   1.236   6.083   3.883 -0.5657  0.6793  0.3824
17880TIP3    H275056   1.337   6.154   3.795  0.1436 -0.3519  0.3441
17881TIP3   OH275057   3.842   3.459   4.673 -0.1181 -0.1318 -0.3080
17881TIP3    H175058   3.797   3.475   4.590  0.6801 -0.0242 -0.7194
17881TIP3    H275059   3.926   3.502   4.664  0.4444 -1.1069  0.1181
17882TIP3   OH275060   2.098   0.195   2.878  0.0131 -0.2478  0.3892
17882TIP3    H175061   2.105   0.126   2.812 -0.6840 -0.1913  0.2426
17882TIP3    H275062   2.178   0.187   2.930 -0.1381 -1.2920  0.4874
17883TIP3   OH275063   4.666   5.495   0.184  0.5050  0.2533  0.0619
17883TIP3    H175064   4.759   5.512   0.203  0.7397  1.0863 -1.6296
17883TIP3    H275065   4.667   5.454   0.098 -0.5749 -2.0196  1.0540
17884TIP3   OH275066   3.077   3.871  11.577  0.5448 -0.3135  0.0572
17884TIP3    H175067   3.058   3.801  11.515  1.4934 -0.3647 -0.1970
17884TIP3    H275068   3.098   3.946  11.522  0.4633 -0.0971  0.3214
17885TIP3   OH275069   0.438   3.004   0.909 -0.7566  0.1341  0.5270
17885TIP3    H175070   0.487   2.922   0.921  0.5796  1.0464  1.6924
17885TIP3    H275071   0.347   2.979   0.919 -0.4376 -1.3478  0.0256
17886TIP3   OH275072   1.263   6.062   0.427 -0.1570  0.0333  0.2105
17886TIP3    H175073   1.339   6.118   0.417 -0.5039  1.2387  3.2137
17886TIP3    H275074   1.264   6.035   0.519 -1.2298 -3.1780 -0.5487
17887TIP3   OH275075   0.593   2.920  14.400  0.0788  0.1325  0.4542
17887TIP3    H175076   0.516   2.870  14.373  1.6757 -1.1449 -2.1523
17887TIP3    H275077   0.586   3.003  14.353  0.2247  0.0555  0.2946
17888TIP3   OH275078   0.757   5.740  11.971  0.2495 -0.6644 -0.4683
17888TIP3    H175079   0.820   5.774  11.907  0.0796 -0.1977 -0.3886
17888TIP3    H275080   0.724   5.817  12.016 -1.3703 -0.7666 -1.4162
17889TIP3   OH275081   4.440   4.641   4.130 -0.3823 -0.4278 -0.0985
17889TIP3    H175082   4.470   4.579   4.065  0.1927 -1.0477  0.7324
17889TIP3    H275083   4.429   4.723   4.082 -1.0457 -1.1355 -1.1821
17890TIP3   OH275084   3.519   5.532   5.014 -0.0998 -0.2338  0.2163
17890TIP3    H175085   3.465   5.570   5.083  1.0195  2.8789 -0.4199
17890TIP3    H275086   3.606   5.526   5.052 -0.1472 -1.8818  0.1327
17891TIP3   OH275087   5.225   1.695  15.504  0.1590 -0.2571  0.0152
17891TIP3    H175088   5.262   1.646  15.577 -2.5557 -1.1692  0.9023
17891TIP3    H275089   5.201   1.780  15.541 -0.4497 -0.4147 -0.0041
17892TIP3   OH275090   6.667   5.387   0.877 -0.0830 -0.1641 -0.1998
17892TIP3    H175091   6.636   5.362   0.790  0.7358 -0.7385 -0.3477
17892TIP3    H275092   6.753   5.345   0.884 -0.4775 -0.8055  1.1951
17893TIP3   OH275093   5.788   5.479  15.453  0.5060 -0.2113 -0.0041
17893TIP3    H175094   5.790   5.384  15.442 -0.3274 -0.0963 -1.4681
17893TIP3    H275095   5.801   5.513  15.364  0.1996  1.0356  0.4129
17894TIP3   OH275096   0.058   2.748  13.173  0.0726  0.0689  0.1073
17894TIP3    H175097  -0.020   2.695  13.184 -0.2840  0.8377  1.5887
17894TIP3    H275098   0.027   2.832  13.142  0.1497  0.7027  1.6262
17895TIP3   OH275099   5.670   3.201   0.014  0.1720 -0.2758  0.0016
17895TIP3    H175100   5.733   3.248   0.069  0.2567  0.3266 -0.5931
17895TIP3    H275101   5.718   3.182  -0.066  0.2690 -1.7701  0.3920
17896TIP3   OH275102   0.484   5.312   1.317 -0.0607  0.2502  0.5406
17896TIP3    H175103   0.504   5.403   1.296 -1.8373 -0.0245 -3.0115
17896TIP3    H275104   0.533   5.261   1.253 -1.2178 -1.1247  0.6955
17897TIP3   OH275105   0.375   4.478   4.819  0.3324 -0.2319  0.3213
17897TIP3    H175106   0.371   4.490   4.724  1.0146 -1.2453  0.1539
17897TIP3    H275107   0.468   4.469   4.838  0.0649 -2.3966  0.7754
17898TIP3   OH275108   4.958   1.654  15.684  0.4767 -0.1255  0.0907
17898TIP3    H175109   5.032   1.699  15.725  0.0067  0.7847 -0.0333
17898TIP3    H275110   4.916   1.607  15.755  1.7571 -1.5145 -0.0073
17899TIP3   OH275111   2.884   5.307   0.428 -0.4096 -0.2916  0.1328
17899TIP3    H175112   2.838   5.228   0.400  0.1023 -0.4698 -0.2193
17899TIP3    H275113   2.895   5.296   0.523 -1.0042 -0.2877  0.2059
17900TIP3   OH275114   4.842   5.771   6.377 -0.4153 -0.0563  0.0050
17900TIP3    H175115   4.839   5.770   6.281  0.1412 -0.2641 -0.0142
17900TIP3    H275116   4.751   5.783   6.404 -0.4507  1.0659 -0.5600
17901TIP3   OH275117   4.947   6.372   2.435 -0.1738  0.1439  0.0003
17901TIP3    H175118   4.963   6.465   2.451  0.6470 -0.0612  0.4087
17901TIP3    H275119   5.021   6.344   2.380 -1.4696  0.1819 -1.8765
17902TIP3   OH275120   2.353   4.245  14.076 -0.0662  0.3571 -0.5846
17902TIP3    H175121   2.272   4.293  14.092 -0.0914  0.2331 -0.3341
17902TIP3    H275122   2.413   4.277  14.144 -0.3918 -0.7022  0.2234
17903TIP3   OH275123   2.312   2.816   3.974 -0.2543  0.9800  0.3611
17903TIP3    H175124   2.349   2.893   3.931  1.9037  0.3056  0.8633
17903TIP3    H275125   2.241   2.850   4.028 -0.1766  2.4157 -0.3801
17904TIP3   OH275126   4.825   1.238  12.218 -0.0260  0.4213  0.4895
17904TIP3    H175127   4.739   1.201  12.240 -0.0223  0.3151  0.3208
17904TIP3    H275128   4.805   1.308  12.155  0.0457  0.1517  0.1661
17905TIP3   OH275129   6.472   3.695   0.719 -0.2027  0.1653  0.1829
17905TIP3    H175130   6.388   3.686   0.763  0.1518  2.0200  1.3490
17905TIP3    H275131   6.511   3.608   0.723 -1.0432 -0.1735  1.8125
17906TIP3   OH275132   1.636   4.953  10.817  0.0579 -0.0217 -0.9455
17906TIP3    H175133   1.588   5.025  10.857 -1.0270 -0.1630 -1.9388
17906TIP3    H275134   1.573   4.881  10.812  0.3933 -0.2681 -2.1263
17907TIP3   OH275135   4.699   5.755   2.708 -0.6156 -0.2167 -0.0622
17907TIP3    H175136   4.710   5.799   2.792  1.4127 -0.7232 -0.0156
17907TIP3    H275137   4.748   5.673   2.716  0.8126  0.3403 -2.1587
17908TIP3   OH275138   4.081   3.273  12.239  0.1749 -0.3609  0.6718
17908TIP3    H175139   4.096   3.231  12.323 -1.5651  0.1120  1.2563
17908TIP3    H275140   4.150   3.340  12.233  1.0637 -1.2064  1.1272
17909TIP3   OH275141   0.799   3.384   0.238 -0.0762  0.0976 -0.3805
17909TIP3    H175142   0.806   3.359   0.330 -0.4263  0.3234 -0.2878
17909TIP3    H275143   0.873   3.342   0.195 -0.2985 -0.5730 -0.1164
17910TIP3   OH275144   2.050   0.379  11.476  0.2730 -0.3048 -0.6815
17910TIP3    H175145   2.045   0.472  11.453  1.3297  0.2616  1.1400
17910TIP3    H275146   2.125   0.346  11.427  0.1374 -0.1098 -1.0266
17911TIP3   OH275147   2.654   0.735  15.827 -0.1550 -0.2707 -0.2084
17911TIP3    H175148   2.594   0.792  15.778  1.0056  0.2475 -1.0532
17911TIP3    H275149   2.723   0.712  15.765  0.0704 -1.6048  0.4840
17912TIP3   OH275150   4.506   4.762   4.450  0.7091  0.5564  0.2997
17912TIP3    H175151   4.436   4.712   4.492  1.0026  0.2137  0.3778
17912TIP3    H275152   4.550   4.699   4.393 -1.2103  1.5187 -2.4804
17913TIP3   OH275153   5.338   0.984   5.959 -0.0521  0.1829 -0.1626
17913TIP3    H175154   5.267   1.039   5.926  0.8020  1.0599 -0.5911
17913TIP3    H275155   5.308   0.895   5.942 -0.6667  0.5525 -1.1695
17914TIP3   OH275156   3.000   6.299   4.760  0.2897 -0.1247  0.0544
17914TIP3    H175157   2.983   6.270   4.849  1.2860 -0.0638  0.2862
17914TIP3    H275158   3.003   6.219   4.709 -2.0377 -0.0555 -0.2866
17915TIP3   OH275159   6.432   2.836   3.631 -0.2956  0.1564  0.1473
17915TIP3    H175160   6.397   2.786   3.704 -0.3621 -0.4836 -0.3151
17915TIP3    H275161   6.518   2.864   3.660 -0.7005  0.7405  0.8390
17916TIP3   OH275162   1.725   2.456   4.252  0.2524 -0.2646  0.3071
17916TIP3    H175163   1.635   2.478   4.230  0.8022  0.8573 -1.0472
17916TIP3    H275164   1.741   2.371   4.211 -0.2176 -0.5138  0.6427
17917TIP3   OH275165   2.006   2.947   1.453  0.3667  0.1126 -0.5233
17917TIP3    H175166   2.083   3.004   1.452 -1.1510  2.2860 -1.2027
17917TIP3    H275167   2.029   2.874   1.396  2.5442 -0.2541  0.7252
17918TIP3   OH275168   0.408   1.574  11.033  0.3476  0.0264  0.0205
17918TIP3    H175169   0.394   1.655  10.985  0.6357 -0.5467 -1.0685
17918TIP3    H275170   0.457   1.518  10.973 -1.1659 -1.5397  0.1357
17919TIP3   OH275171   6.560   0.739  11.875 -0.1141  0.1659  0.0643
17919TIP3    H175172   6.574   0.805  11.807 -0.8378 -0.4166 -0.6584
17919TIP3    H275173   6.506   0.672  11.834  2.4633 -2.0939  0.0338
17920TIP3   OH275174   5.478   6.724  15.623  0.1668 -0.2904 -0.1410
17920TIP3    H175175   5.515   6.706  15.536  0.2109  0.9900 -0.4027
17920TIP3    H275176   5.553   6.724  15.682  0.5071  1.3617 -0.5242
17921TIP3   OH275177   2.760   3.850  11.422  0.0941 -0.0588 -0.4664
17921TIP3    H175178   2.714   3.929  11.451  0.3713 -0.8637  2.4483
17921TIP3    H275179   2.807   3.878  11.343  1.4131  3.1614  1.2801
17922TIP3   OH275180   5.606   6.752   3.933 -0.4429 -0.3274 -0.5473
17922TIP3    H175181   5.690   6.755   3.979 -1.0214  1.7654  0.4756
17922TIP3    H275182   5.567   6.668   3.958  0.5745 -0.5485  0.3446
17923TIP3   OH275183   2.122   4.901   4.466 -0.1222 -0.3210  0.2954
17923TIP3    H175184   2.180   4.843   4.514  1.1773  0.1110 -0.6967
17923TIP3    H275185   2.161   4.908   4.379 -0.4395  1.6999  0.2511
17924TIP3   OH275186   2.773   2.583   4.770 -0.2768  0.3425 -0.1598
17924TIP3    H175187   2.853   2.630   4.795 -0.9662  1.5163 -0.0922
17924TIP3    H275188   2.702   2.635   4.808 -1.1036 -0.3152 -0.7835
17925TIP3   OH275189   1.835   4.106  13.869 -0.1393  0.1751  0.0045
17925TIP3    H175190   1.801   4.154  13.793 -0.7450 -0.7481 -0.3216
17925TIP3    H275191   1.927   4.089  13.847  0.7218  2.9190  1.0100
17926TIP3   OH275192   5.341   0.554   4.927  0.5512 -0.5852 -0.1702
17926TIP3    H175193   5.428   0.533   4.961  2.4521  1.6227 -3.2060
17926TIP3    H275194   5.318   0.637   4.970  1.3549  0.3613 -1.4961
17927TIP3   OH275195   4.402   5.898   5.017  0.1383 -1.1009 -0.8285
17927TIP3    H175196   4.454   5.887   5.096 -0.2985 -1.8232 -0.6309
17927TIP3    H275197   4.444   5.842   4.952  0.3565 -0.6937 -1.0402
17928TIP3   OH275198   4.009   3.743  15.450  0.0469 -0.4010 -0.0953
17928TIP3    H175199   3.952   3.670  15.425  0.6715 -0.8316 -0.2953
17928TIP3    H275200   4.049   3.715  15.532  2.7263 -1.7358 -1.7268
17929TIP3   OH275201   3.738   6.280  13.874  0.4996  0.0164  0.0432
17929TIP3    H175202   3.813   6.292  13.816  0.6432 -3.2381 -0.6358
17929TIP3    H275203   3.667   6.253  13.816 -0.4090  0.2990  0.9894
17930TIP3   OH275204   4.900   0.231   3.396 -0.1039  0.1344  0.1304
17930TIP3    H175205   4.861   0.317   3.409  1.1963  1.0347 -1.6519
17930TIP3    H275206   4.956   0.240   3.319  1.5450 -1.8066  0.9990
17931TIP3   OH275207   3.672   4.101  14.404  0.2175 -0.3793 -0.1378
17931TIP3    H175208   3.594   4.050  14.423  0.8668 -1.4950 -0.3719
17931TIP3    H275209   3.689   4.150  14.485 -1.1288  0.4780 -0.3363
17932TIP3   OH275210   5.283   4.267  17.293  0.3097 -0.3773 -0.0335
17932TIP3    H175211   5.313   4.351  17.258  0.5299  0.3629  1.7993
17932TIP3    H275212   5.258   4.217  17.216  2.8260  0.2984 -1.4198
17933TIP3   OH275213   4.087   1.038   0.319 -0.3720 -0.5220 -0.5332
17933TIP3    H175214   4.061   1.061   0.408 -0.8393 -3.3330  0.1571
17933TIP3    H275215   4.181   1.056   0.316 -0.1321 -1.3524  0.9319
17934TIP3   OH275216   6.277   1.557   0.368 -0.0558 -0.4246  0.2378
17934TIP3    H175217   6.297   1.511   0.450 -0.2629 -1.4137 -0.2525
17934TIP3    H275218   6.335   1.633   0.368 -0.3579 -0.1694  1.5102
17935TIP3   OH275219   6.722   2.816   2.857 -0.4478  0.1958 -0.2659
17935TIP3    H175220   6.644   2.853   2.817 -0.7191  0.8005  0.7762
17935TIP3    H275221   6.690   2.771   2.935 -0.1874 -2.7435 -1.7553
17936TIP3   OH275222   0.263   4.913  13.148  0.0273 -0.0496 -0.1419
17936TIP3    H175223   0.213   4.970  13.090  2.0307  1.0813 -0.8577
17936TIP3    H275224   0.281   4.968  13.225  0.8124 -0.1622 -0.2396
17937TIP3   OH275225   0.421   0.851  11.458 -0.3852 -0.1671  0.1269
17937TIP3    H175226   0.444   0.944  11.451  0.9526 -0.2386  2.4053
17937TIP3    H275227   0.504   0.807  11.476 -1.2402 -1.5455  0.8535
17938TIP3   OH275228   2.019   6.554   5.320 -0.8894 -0.1456  0.0501
17938TIP3    H175229   1.977   6.641   5.326 -1.8096 -0.4357 -1.7283
17938TIP3    H275230   2.110   6.570   5.344 -0.7536  1.5684 -1.4378
17939TIP3   OH275231   4.772   1.089  16.268  0.6927 -0.4990 -0.2298
17939TIP3    H175232   4.746   1.026  16.335  1.8054 -0.4081  0.3134
17939TIP3    H275233   4.700   1.088  16.205 -1.0020  0.3559  1.5826
17940TIP3   OH275234   2.587   4.864   0.836 -0.1493  0.2309 -0.6110
17940TIP3    H175235   2.554   4.801   0.771 -1.8402  1.0157 -0.5749
17940TIP3    H275236   2.681   4.869   0.819  0.3622 -3.2973  0.2444
17941TIP3   OH275237   3.700   1.285   1.974  0.3126  0.6386 -0.0440
17941TIP3    H175238   3.749   1.345   1.918  0.1494  0.1468 -0.7288
17941TIP3    H275239   3.763   1.256   2.040  2.2425 -2.9876 -3.0801
17942TIP3   OH275240   1.710   4.995   2.113  0.0521 -0.1153 -0.0457
17942TIP3    H175241   1.691   4.919   2.059  0.8755 -0.8012  0.5986
17942TIP3    H275242   1.782   4.967   2.170 -0.4379  0.7502  1.0425
17943TIP3   OH275243   1.821   1.803   1.248 -0.1160 -0.0413  0.3804
17943TIP3    H175244   1.771   1.879   1.277  1.1525  1.2292 -0.6294
17943TIP3    H275245   1.818   1.743   1.322 -1.3251  0.8812  1.1256
17944TIP3   OH275246   6.634   1.415  14.607  0.7015 -0.1474 -0.1866
17944TIP3    H175247   6.687   1.492  14.585  2.9952 -1.3234  0.8750
17944TIP3    H275248   6.602   1.383  14.522 -0.2261  1.8668 -0.6534
17945TIP3   OH275249   0.431   0.733  16.029  0.4648  0.3301 -0.1156
17945TIP3    H175250   0.425   0.755  15.936  0.4516  1.3004  0.1093
17945TIP3    H275251   0.461   0.642  16.030  0.9227  0.4610 -1.0630
17946TIP3   OH275252   4.715   0.990  12.502 -0.0764  0.3879  0.7126
17946TIP3    H175253   4.677   1.062  12.452  2.0716  0.6724 -0.6442
17946TIP3    H275254   4.666   0.913  12.473  1.2081  0.5086 -2.0996
17947TIP3   OH275255   6.296   0.126  15.905  0.2869  0.5219  0.1932
17947TIP3    H175256   6.269   0.038  15.933  0.8058  0.4544  0.5000
17947TIP3    H275257   6.375   0.144  15.957  2.5514 -0.4484 -2.6448
17948TIP3   OH275258   2.986   6.723   0.183  0.3525 -0.3041 -0.2528
17948TIP3    H175259   3.049   6.780   0.226 -0.1253  0.4182 -0.4858
17948TIP3    H275260   2.984   6.644   0.236 -0.2352  0.5628  1.0741
17949TIP3   OH275261   3.253   2.615   4.047 -0.2379 -0.0755 -0.1340
17949TIP3    H175262   3.165   2.597   4.014 -0.2102  0.9832 -0.8269
17949TIP3    H275263   3.238   2.660   4.130 -0.3370 -0.5049  0.0835
17950TIP3   OH275264   3.904   5.468  15.300  0.2372  0.3448  0.1022
17950TIP3    H175265   3.974   5.478  15.365  1.0665 -0.1453 -0.6888
17950TIP3    H275266   3.947   5.425  15.226 -1.2043 -1.1824  0.1072
17951TIP3   OH275267   6.123   1.495   3.450  0.0822 -0.1010  0.1337
17951TIP3    H175268   6.216   1.513   3.435  0.5751 -0.8307  2.0663
17951TIP3    H275269   6.080   1.580   3.436  0.8528  0.0354 -1.7677
17952TIP3   OH275270   5.980   6.162   2.835  0.3885  0.0708  0.3396
17952TIP3    H175271   5.972   6.074   2.871  1.1667  0.0827  0.5704
17952TIP3    H275272   5.893   6.200   2.842  0.0193 -0.7250  0.1225
17953TIP3   OH275273   0.071   5.125  15.888 -0.0019  0.0746  0.0569
17953TIP3    H175274   0.163   5.106  15.870 -0.2771 -0.0185 -1.3842
17953TIP3    H275275   0.067   5.220  15.894  0.3024  0.0444  0.8880
17954TIP3   OH275276   5.213   4.461   4.919 -0.0032 -0.5836 -0.0838
17954TIP3    H175277   5.265   4.541   4.931 -0.6872 -0.1776  0.2601
17954TIP3    H275278   5.182   4.440   5.007  2.1320 -2.6233  0.2841
17955TIP3   OH275279   0.725   4.391   3.178  0.5893  0.4003 -0.3741
17955TIP3    H175280   0.669   4.321   3.147  1.3509 -0.3192 -0.1649
17955TIP3    H275281   0.721   4.458   3.109  1.2546 -0.6241 -1.4538
17956TIP3   OH275282   6.497   0.354   4.257 -0.0428 -0.5808 -0.1487
17956TIP3    H175283   6.498   0.309   4.341  2.0446  0.4989  0.4647
17956TIP3    H275284   6.571   0.317   4.209 -0.2221 -0.0203 -0.8713
17957TIP3   OH275285   1.580   1.541  11.203 -0.1045 -0.0257  0.0798
17957TIP3    H175286   1.533   1.566  11.123 -0.0346 -1.5207 -0.4671
17957TIP3    H275287   1.511   1.532  11.269 -0.0144  2.6634  0.6357
17958TIP3   OH275288   6.110   2.831  13.711 -0.0717  0.1363  0.1440
17958TIP3    H175289   6.081   2.757  13.763 -2.7355 -0.0205 -1.3641
17958TIP3    H275290   6.137   2.793  13.627 -0.5615  0.7487 -0.3060
17959TIP3   OH275291   2.592   1.255  12.333  0.1008 -0.1140 -0.0276
17959TIP3    H175292   2.631   1.282  12.249  0.0564  0.6038  0.1781
17959TIP3    H275293   2.667   1.240  12.390  0.2404 -2.4038 -0.6863
17960TIP3   OH275294   3.136   0.031  12.400 -0.5873 -0.0053  0.3512
17960TIP3    H175295   3.149  -0.050  12.449  0.6487  1.0856  1.9259
17960TIP3    H275296   3.225   0.062  12.380 -1.0424  0.6725 -0.7461
17961TIP3   OH275297   3.289   0.089   2.146 -0.2927 -0.6829 -1.0122
17961TIP3    H175298   3.247   0.020   2.196 -0.8499  1.7990  2.2451
17961TIP3    H275299   3.380   0.061   2.138  0.0849 -0.8018  2.3956
17962TIP3   OH275300   3.425   2.307   0.824 -0.3209 -0.1293 -0.2943
17962TIP3    H175301   3.515   2.312   0.854 -0.4915 -0.1388  0.2331
17962TIP3    H275302   3.426   2.243   0.754 -0.4059 -2.4012  1.6361
17963TIP3   OH275303   3.488   3.945  13.821 -0.1538  0.0277 -0.2616
17963TIP3    H175304   3.532   4.015  13.869  0.0061  0.0260 -0.4045
17963TIP3    H275305   3.395   3.959  13.839 -0.2218  0.9766 -1.1959
17964TIP3   OH275306   6.113   0.300   5.801 -0.4878  0.3638 -1.0330
17964TIP3    H175307   6.144   0.233   5.862  0.1541  0.8059 -0.8659
17964TIP3    H275308   6.095   0.252   5.720 -1.6643 -0.2787 -0.4024
17965TIP3   OH275309   1.753   2.080  15.963  0.0105 -0.0934  0.4501
17965TIP3    H175310   1.772   1.989  15.983 -0.3531 -0.3919 -0.5405
17965TIP3    H275311   1.694   2.077  15.888  0.9469  0.9740 -0.3662
17966TIP3   OH275312   6.193   3.810  13.158  0.1775  0.1935  0.3287
17966TIP3    H175313   6.269   3.799  13.216  1.2713 -1.9619 -1.3609
17966TIP3    H275314   6.124   3.760  13.201 -0.1477  1.5694  1.5083
17967TIP3   OH275315   2.588   5.646   2.279 -0.3900  0.3073 -0.0162
17967TIP3    H175316   2.531   5.590   2.225  1.3097 -0.9274 -0.6549
17967TIP3    H275317   2.654   5.678   2.218  1.0576 -0.3748  1.1229
17968TIP3   OH275318   1.881   4.291  17.323 -0.5837 -0.7412  0.4506
17968TIP3    H175319   1.869   4.266  17.232  1.3976 -1.0912  0.2339
17968TIP3    H275320   1.797   4.275  17.364 -2.4043  1.9874 -1.8333
17969TIP3   OH275321   0.450   5.017   5.634  0.6974  0.6924 -0.1106
17969TIP3    H175322   0.526   5.055   5.591  0.8996  0.0472 -0.3417
17969TIP3    H275323   0.473   5.016   5.727  0.6837  1.1463 -0.1038
17970TIP3   OH275324   5.742   2.877   5.401  0.0045  0.4316  0.0618
17970TIP3    H175325   5.741   2.804   5.339 -0.0940 -0.0832  0.6595
17970TIP3    H275326   5.826   2.920   5.386  0.4075 -0.2841  0.2566
17971TIP3   OH275327   3.983   5.685  12.635 -0.2290 -0.0929  0.1698
17971TIP3    H175328   4.031   5.623  12.580  0.6082  0.0474  0.7152
17971TIP3    H275329   3.997   5.652  12.724 -1.2333 -0.0959  0.3344
17972TIP3   OH275330   4.701   3.815  12.749 -0.1475 -0.3265 -0.4243
17972TIP3    H175331   4.782   3.796  12.797 -0.9610  1.9027  2.0994
17972TIP3    H275332   4.679   3.733  12.705  3.4922 -0.9837 -1.3583
17973TIP3   OH275333   4.833   2.005   4.434 -1.0927 -0.3421  0.0109
17973TIP3    H175334   4.796   2.035   4.517  0.6781 -1.6653  1.3369
17973TIP3    H275335   4.925   1.987   4.452 -0.3546  0.3814 -2.5370
17974TIP3   OH275336   3.900   3.714  14.299 -0.1339  0.5893 -0.3204
17974TIP3    H175337   3.875   3.801  14.267 -1.0569  0.8060  0.9045
17974TIP3    H275338   3.938   3.730  14.385  0.5358 -0.1522 -0.4651
17975TIP3   OH275339   5.208   4.041  11.454 -0.0388  0.6161 -0.3546
17975TIP3    H175340   5.153   3.975  11.496  0.5696  0.6852  0.5760
17975TIP3    H275341   5.297   4.021  11.485 -0.0393  2.9111  1.3774
17976TIP3   OH275342   1.998   0.785   2.229  0.1430  0.0582 -0.6978
17976TIP3    H175343   2.008   0.861   2.172 -2.1607 -0.5716 -2.0448
17976TIP3    H275344   1.909   0.793   2.265  0.8216 -0.6064  1.3078
17977TIP3   OH275345   4.017   1.557  17.169 -0.0648 -0.1076 -0.4117
17977TIP3    H175346   4.011   1.595  17.257 -3.9959 -1.4665  0.1262
17977TIP3    H275347   3.979   1.623  17.111  0.1738 -0.1908 -0.6601
17978TIP3   OH275348   1.794   2.687  15.921 -0.2518  0.1098  0.4642
17978TIP3    H175349   1.801   2.616  15.857  0.5106 -0.1880  0.8679
17978TIP3    H275350   1.748   2.648  15.995 -0.4223  0.2290  0.4216
17979TIP3   OH275351   0.159   6.663  10.918 -0.6117  0.2618 -0.5879
17979TIP3    H175352   0.250   6.668  10.890  0.1930  1.1067  1.8924
17979TIP3    H275353   0.137   6.570  10.915  1.0359 -0.2084  0.7032
17980TIP3   OH275354   0.461   2.427  16.714 -0.0910  0.1591  0.2597
17980TIP3    H175355   0.405   2.500  16.688  1.7645  0.8215 -2.3539
17980TIP3    H275356   0.550   2.460  16.701  0.8965 -1.5270  2.2325
17981TIP3   OH275357   3.148   2.389  16.052  0.4342  0.9144  0.4006
17981TIP3    H175358   3.112   2.430  15.973  1.1789  0.0506 -0.4106
17981TIP3    H275359   3.086   2.319  16.073  1.1346  0.0143 -0.4626
17982TIP3   OH275360   2.393   3.784  15.378  0.0581  0.5173  0.1737
17982TIP3    H175361   2.379   3.862  15.431  1.0641 -0.6495  2.3052
17982TIP3    H275362   2.361   3.711  15.432 -0.7729 -0.5941 -1.7029
17983TIP3   OH275363   5.871   6.754   0.403  0.1604 -0.0492 -0.1205
17983TIP3    H175364   5.928   6.824   0.436 -2.1086  1.0060  1.9327
17983TIP3    H275365   5.833   6.790   0.322  1.1632 -0.0963 -0.6161
17984TIP3   OH275366   5.015   5.704  11.321 -0.2547  0.0852  0.3035
17984TIP3    H175367   5.032   5.771  11.255  1.8045 -2.6352 -2.2175
17984TIP3    H275368   4.940   5.655  11.288 -0.2408 -0.3232  0.8532
17985TIP3   OH275369   4.985   6.480  14.698  0.6160 -0.6205 -0.3107
17985TIP3    H175370   4.939   6.478  14.782  0.7567 -0.0933 -0.2208
17985TIP3    H275371   4.949   6.555  14.652  0.8974 -0.6141 -0.5218
17986TIP3   OH275372   1.550   6.478  16.975 -0.0379  0.3347  0.0250
17986TIP3    H175373   1.497   6.491  17.054 -0.7158  1.8569 -0.6392
17986TIP3    H275374   1.500   6.414  16.924 -0.3154  0.4081  0.2017
17987TIP3   OH275375   6.203   1.913  13.927 -0.1997  0.8354 -0.2808
17987TIP3    H175376   6.148   1.877  13.858  1.1152 -3.0665  0.4666
17987TIP3    H275377   6.282   1.942  13.882 -0.0166 -0.1516 -0.6061
17988TIP3   OH275378   6.325   1.969  11.706  0.4562  0.1993  0.9138
17988TIP3    H175379   6.325   1.942  11.614  0.4637 -0.3260  1.0635
17988TIP3    H275380   6.324   1.887  11.755 -1.6848  0.4406  1.3820
17989TIP3   OH275381   5.940   4.345   6.218  0.1656  0.2530  0.3528
17989TIP3    H175382   5.866   4.360   6.277 -0.9148  0.0865 -0.9092
17989TIP3    H275383   5.935   4.416   6.154  0.5013 -0.2971 -0.3000
17990TIP3   OH275384   1.332   6.049   2.608  0.2414 -0.0952  0.1320
17990TIP3    H175385   1.264   6.115   2.588 -0.9124 -0.9045  1.2259
17990TIP3    H275386   1.414   6.099   2.609 -0.4488  1.0947 -0.3110
17991TIP3   OH275387   5.825   2.901  11.194  0.0884  0.0050 -0.5001
17991TIP3    H175388   5.919   2.915  11.179  0.6989 -3.3723 -0.7345
17991TIP3    H275389   5.785   2.916  11.108  0.6005  0.3752 -0.6820
17992TIP3   OH275390   3.545   4.200   1.562  0.6405 -0.0523 -0.4347
17992TIP3    H175391   3.505   4.237   1.483 -1.0711  1.4371  1.0596
17992TIP3    H275392   3.606   4.134   1.528 -0.5327  0.0285 -2.9668
17993TIP3   OH275393   5.947   0.741  13.558 -0.3605  0.4568 -0.0840
17993TIP3    H175394   5.990   0.671  13.606 -0.3375  0.2978 -0.3291
17993TIP3    H275395   6.014   0.807  13.546 -0.6940  1.0490  1.1642
17994TIP3   OH275396   3.585   6.673  16.555  0.1747  0.3632 -0.7732
17994TIP3    H175397   3.494   6.654  16.533 -0.3066 -0.0028  1.3744
17994TIP3    H275398   3.596   6.639  16.644  1.1986  4.0959  0.6953
17995TIP3   OH275399   2.495   1.602  15.998 -0.0540 -0.5860 -0.3280
17995TIP3    H175400   2.479   1.550  16.077  0.5008 -0.7329 -0.3107
17995TIP3    H275401   2.444   1.557  15.930 -0.1978 -0.7031 -0.1442
17996TIP3   OH275402   0.822   1.519   2.184 -0.5721 -0.1612 -0.4668
17996TIP3    H175403   0.867   1.582   2.240 -0.4063 -0.3302 -0.4106
17996TIP3    H275404   0.820   1.560   2.098  1.5400 -1.0247 -0.9795
17997TIP3   OH275405   4.381   4.547   3.038 -0.3331 -0.6534  0.2295
17997TIP3    H175406   4.402   4.536   2.946 -2.2862 -1.1914 -0.1979
17997TIP3    H275407   4.309   4.610   3.039 -0.3361 -0.6432  1.3880
17998TIP3   OH275408   5.362   5.877  17.095 -0.0539  0.0556 -0.2753
17998TIP3    H175409   5.269   5.852  17.092 -0.4733  1.5873 -0.6849
17998TIP3    H275410   5.375   5.906  17.186 -0.1173  0.3512 -0.3603
17999TIP3   OH275411   2.855   5.461   3.261 -0.3491 -0.2176 -0.6526
17999TIP3    H175412   2.929   5.443   3.318  1.0590  1.7915 -1.7593
17999TIP3    H275413   2.781   5.474   3.321  0.2731 -1.6601  0.4926
18000TIP3   OH275414   3.014   4.367   0.826 -0.3117  0.3856 -1.0290
18000TIP3    H175415   3.024   4.451   0.782  0.7877  0.8955  0.1214
18000TIP3    H275416   3.101   4.348   0.862 -1.3497  0.6410  1.9703
18001TIP3   OH275417   2.224   3.063   1.600  0.2760  0.3998 -0.0966
18001TIP3    H175418   2.212   3.016   1.682  0.5206  1.2984  0.4590
18001TIP3    H275419   2.313   3.041   1.573  0.3862  0.5335  0.1577
18002TIP3   OH275420   1.599   6.294   2.968  0.0305 -0.1804  0.0273
18002TIP3    H175421   1.625   6.220   3.022  1.6078  0.2218 -0.1095
18002TIP3    H275422   1.627   6.371   3.019 -1.4241  0.3340  0.0970
18003TIP3   OH275423   2.683   4.147  12.821 -0.6888  0.2159 -0.0902
18003TIP3    H175424   2.656   4.222  12.769  1.7253  1.0971 -0.1795
18003TIP3    H275425   2.627   4.150  12.899 -2.0458  0.8434 -1.0628
18004TIP3   OH275426   4.150   6.501   4.763 -0.2058 -1.0437 -0.2184
18004TIP3    H175427   4.170   6.542   4.847 -1.6329 -0.4899 -0.1343
18004TIP3    H275428   4.078   6.441   4.782 -0.4416 -1.0260 -1.0144
18005TIP3   OH275429   0.669   0.346   0.148 -0.6831  0.4823 -0.0784
18005TIP3    H175430   0.663   0.308   0.061  1.5093  0.7534 -0.4055
18005TIP3    H275431   0.762   0.341   0.170 -0.9639  1.8017  1.6165
18006TIP3   OH275432   4.701   4.466   2.235 -0.3726  0.1284 -0.6411
18006TIP3    H175433   4.792   4.440   2.248 -0.0419  0.4727 -2.0838
18006TIP3    H275434   4.702   4.562   2.244 -0.3860  0.2348 -1.6661
18007TIP3   OH275435   3.351   2.114  12.225  0.1628  0.4639  0.0565
18007TIP3    H175436   3.361   2.110  12.320 -1.0234 -0.0358  0.1686
18007TIP3    H275437   3.418   2.177  12.197  0.7543  0.3586  1.1785
18008TIP3   OH275438   0.433   0.790  15.746 -0.0507  0.5300  0.0872
18008TIP3    H175439   0.365   0.818  15.684 -0.2941  0.5415  0.3604
18008TIP3    H275440   0.490   0.866  15.756 -0.3424  0.7176  0.3282
18009TIP3   OH275441   2.009   5.913  15.427 -0.3854  0.3939  0.4160
18009TIP3    H175442   2.013   5.820  15.448 -2.1616 -0.3950 -2.1001
18009TIP3    H275443   1.947   5.950  15.490  0.0541 -0.1988  1.2014
18010TIP3   OH275444   5.033   5.431   6.476  0.1437  0.4866 -0.1029
18010TIP3    H175445   4.966   5.468   6.534  0.3761 -0.1619  0.5858
18010TIP3    H275446   5.115   5.446   6.522  0.3937  0.4790 -0.5392
18011TIP3   OH275447   2.646   5.366  14.955  0.2283  0.6515 -0.4692
18011TIP3    H175448   2.674   5.283  14.994  0.2917  0.3180 -1.2079
18011TIP3    H275449   2.571   5.393  15.009  0.5119  0.3627  0.0769
18012TIP3   OH275450   0.799   1.036   1.109  0.1623 -0.2067  0.4918
18012TIP3    H175451   0.838   1.123   1.100  1.6217 -0.7456  1.3160
18012TIP3    H275452   0.720   1.039   1.055  0.6130  1.3700 -0.1132
18013TIP3   OH275453   6.466   0.632   5.012  0.0679  0.2448  0.0828
18013TIP3    H175454   6.428   0.547   5.033 -1.5298  1.1224  0.9405
18013TIP3    H275455   6.421   0.693   5.070  0.7268  1.7783 -0.9593
18014TIP3   OH275456   5.921   4.566  11.006 -0.3472 -0.2228 -0.4994
18014TIP3    H175457   5.923   4.496  11.072  0.8996  0.5820  0.3694
18014TIP3    H275458   5.867   4.635  11.046  2.6805  1.4454  1.0304
18015TIP3   OH275459   2.133   1.884   2.873  0.2013 -0.1176 -0.3337
18015TIP3    H175460   2.163   1.800   2.836 -0.2893 -0.6288  0.4049
18015TIP3    H275461   2.098   1.932   2.798  0.6572 -0.4937 -0.7959
18016TIP3   OH275462   6.514   0.596   0.464 -0.2005  0.2213  0.1442
18016TIP3    H175463   6.488   0.602   0.556 -0.3502 -1.3474  0.2429
18016TIP3    H275464   6.525   0.502   0.449  0.6297  0.5091 -1.2238
18017TIP3   OH275465   6.726   0.862   3.462 -0.0215 -0.3470  0.5580
18017TIP3    H175466   6.649   0.809   3.482 -0.5278  0.1338 -0.0433
18017TIP3    H275467   6.742   0.913   3.542 -0.4096 -0.3530  0.6403
18018TIP3   OH275468   4.690   2.985  17.187  0.5006 -0.4823  0.1829
18018TIP3    H175469   4.753   2.995  17.258 -0.8554 -0.2563  1.4127
18018TIP3    H275470   4.690   3.070  17.142 -1.5641  0.9366  2.5306
18019TIP3   OH275471   0.860   6.441  13.663 -0.1997 -0.2627  0.2591
18019TIP3    H175472   0.913   6.507  13.707  0.0606  0.3426 -0.9121
18019TIP3    H275473   0.788   6.490  13.624 -0.0221 -0.6634 -0.5989
18020TIP3   OH275474   1.100   6.389  14.312 -0.0923 -0.1345 -0.0753
18020TIP3    H175475   1.100   6.331  14.387  3.8892  0.0175  0.2672
18020TIP3    H275476   1.087   6.332  14.236  0.4348 -0.9907  0.4714
18021TIP3   OH275477   3.382   0.996   5.028 -0.0415  0.2914 -0.1118
18021TIP3    H175478   3.384   1.051   5.107  2.1985  0.8146 -0.4552
18021TIP3    H275479   3.440   0.922   5.049 -0.7208 -0.4284 -0.7007
18022TIP3   OH275480   1.192   3.864  10.485 -0.1496  0.2032 -0.3372
18022TIP3    H175481   1.179   3.808  10.409  0.8526  0.5819 -0.8119
18022TIP3    H275482   1.270   3.828  10.528 -1.6537 -1.0394  1.4882
18023TIP3   OH275483   0.794   3.929  11.530 -0.6374 -0.4207 -0.1660
18023TIP3    H175484   0.744   3.848  11.543 -2.1895  0.7093  1.1996
18023TIP3    H275485   0.857   3.930  11.602 -1.1533 -0.0444  0.2877
18024TIP3   OH275486   5.658   5.993  11.100 -0.1892  0.1955  0.4290
18024TIP3    H175487   5.675   6.021  11.010 -1.4970 -0.1118  0.0650
18024TIP3    H275488   5.721   6.042  11.153  0.0617  0.9834 -0.5743
18025TIP3   OH275489   5.417   4.011  11.672  0.5446  0.5755 -0.4018
18025TIP3    H175490   5.442   3.919  11.682 -1.5601  0.0268  0.4666
18025TIP3    H275491   5.476   4.045  11.605  2.0619 -1.1198 -0.0013
18026TIP3   OH275492   3.932   3.487   6.060 -0.9261  0.2499 -0.5224
18026TIP3    H175493   3.969   3.555   6.116  0.0225 -0.5296 -0.1602
18026TIP3    H275494   3.893   3.424   6.121  1.1957 -1.2371 -0.5822
18027TIP3   OH275495   2.292   1.105   0.831 -0.2189 -0.0560 -0.0265
18027TIP3    H175496   2.250   1.046   0.894 -0.9975 -0.1611 -0.6303
18027TIP3    H275497   2.276   1.193   0.866 -0.6956 -0.1110 -0.0943
18028TIP3   OH275498   2.643   4.879   4.207  0.0069  0.3187  0.1603
18028TIP3    H175499   2.720   4.889   4.264  1.0814 -0.0775 -1.1571
18028TIP3    H275500   2.606   4.795   4.232  0.2288  0.3327  0.5536
18029TIP3   OH275501   0.670   4.104  12.188  0.5228 -0.4079  0.2646
18029TIP3    H175502   0.657   4.010  12.200 -1.0298 -0.4347 -1.2091
18029TIP3    H275503   0.583   4.142  12.197  1.1512  0.9392  1.0446
18030TIP3   OH275504   5.598   6.645  11.162 -1.1893  0.0636 -0.1817
18030TIP3    H175505   5.510   6.614  11.140 -1.5119 -0.0323  1.1548
18030TIP3    H275506   5.632   6.681  11.081 -3.1874  1.8276 -0.3149
18031TIP3   OH275507   2.623   3.609   5.430 -0.0704  0.3720 -0.6932
18031TIP3    H175508   2.686   3.566   5.371  0.6939  0.3654  0.1063
18031TIP3    H275509   2.539   3.599   5.385  0.2754 -0.8639 -1.1350
18032TIP3   OH275510   1.508   4.239  11.289  0.4623  0.8484  0.1670
18032TIP3    H175511   1.453   4.257  11.365  1.6506 -0.1503  1.2983
18032TIP3    H275512   1.539   4.325  11.260 -0.5502  1.2919  0.3681
18033TIP3   OH275513   0.903   0.662  13.729  0.0294 -0.5623 -0.6190
18033TIP3    H175514   0.862   0.584  13.767  0.6590  0.5506  2.6730
18033TIP3    H275515   0.830   0.714  13.696 -0.7477 -0.9171  0.4943
18034TIP3   OH275516   6.363   2.158   1.654  0.5532  0.4626  0.4965
18034TIP3    H175517   6.285   2.207   1.679  0.0545  0.2944 -0.7029
18034TIP3    H275518   6.369   2.087   1.718 -0.6205  0.1203  0.2398
18035TIP3   OH275519   2.048   0.322  15.730 -0.5577 -0.1758  0.2463
18035TIP3    H175520   2.019   0.380  15.660 -1.4547 -0.8875  0.0049
18035TIP3    H275521   2.076   0.380  15.800  1.5292  0.5777 -1.1245
18036TIP3   OH275522   0.534   2.006  13.882  0.5309  0.1459 -0.5423
18036TIP3    H175523   0.465   1.965  13.934  0.6341 -0.9667 -1.2650
18036TIP3    H275524   0.495   2.087  13.849 -0.2890 -0.2895 -0.6367
18037TIP3   OH275525   1.338   6.174  12.811  0.4452 -0.0452 -0.0397
18037TIP3    H175526   1.294   6.160  12.727  0.8226  0.5041 -0.3370
18037TIP3    H275527   1.323   6.266  12.831 -0.1284 -0.3077  0.7898
18038TIP3   OH275528   0.069   1.644  14.506  1.3158  1.0630  0.5222
18038TIP3    H175529   0.078   1.675  14.416 -0.9327  1.8881  0.5264
18038TIP3    H275530   0.104   1.555  14.503  0.1384  0.5887 -1.5075
18039TIP3   OH275531   6.276   3.941   4.538  0.1378 -0.5914  0.6218
18039TIP3    H175532   6.247   3.851   4.521  0.8932 -0.7232 -0.0658
18039TIP3    H275533   6.196   3.991   4.551 -0.3722 -1.0640 -0.5742
18040TIP3   OH275534   0.450   6.570   0.627  0.8559  0.2294  0.8672
18040TIP3    H175535   0.453   6.579   0.532  1.0775  0.0314  0.8556
18040TIP3    H275536   0.366   6.530   0.645  0.1904  1.5720  0.8594
18041TIP3   OH275537   0.802   3.669   0.482 -0.0959 -0.0673 -0.0193
18041TIP3    H175538   0.836   3.758   0.480  0.4989 -0.2883 -0.0050
18041TIP3    H275539   0.706   3.679   0.483 -0.1110  0.5324 -2.1585
18042TIP3   OH275540   0.386   4.666  11.743  0.6574 -0.1443  0.5882
18042TIP3    H175541   0.348   4.646  11.658 -0.1584  0.0538  0.8900
18042TIP3    H275542   0.418   4.756  11.735 -3.3749  1.6479  1.7112
18043TIP3   OH275543   4.695   4.541  14.634 -0.3874 -0.0081  0.8028
18043TIP3    H175544   4.603   4.543  14.660 -0.3414  2.1669  1.0173
18043TIP3    H275545   4.721   4.633  14.632  1.2494 -0.4301 -1.1635
18044TIP3   OH275546   1.005   0.732   4.387 -0.2041 -0.2267  0.3424
18044TIP3    H175547   1.041   0.684   4.462  0.0414 -0.8524 -0.1638
18044TIP3    H275548   1.041   0.820   4.395 -0.2334 -0.2713  0.9981
18045TIP3   OH275549   1.639   3.030   5.549  0.4435 -0.1359  0.3228
18045TIP3    H175550   1.726   3.029   5.509 -0.0045 -1.3276 -0.6734
18045TIP3    H275551   1.641   2.957   5.611  0.4474  0.4283  1.0036
18046TIP3   OH275552   1.703   6.310   2.215  0.1154 -0.4068 -0.0262
18046TIP3    H175553   1.687   6.403   2.200 -1.7632 -0.5939  0.5727
18046TIP3    H275554   1.643   6.286   2.285 -1.5971 -2.6726 -2.0663
18047TIP3   OH275555   5.805   5.275  16.726 -0.0817 -0.4380 -0.0605
18047TIP3    H175556   5.755   5.198  16.697 -1.4904  0.2050  0.5969
18047TIP3    H275557   5.762   5.349  16.684  0.2821  0.1493  0.5944
18048TIP3   OH275558   5.975   0.096   5.117 -0.4251  0.5431  0.1642
18048TIP3    H175559   6.056   0.090   5.067  0.7211 -0.9755  2.0985
18048TIP3    H275560   5.915   0.143   5.059  1.8371  1.8065 -1.2790
18049TIP3   OH275561   1.114   1.424   6.375 -0.5623 -0.2047  0.2690
18049TIP3    H175562   1.080   1.335   6.378 -1.6853  0.2096  0.7679
18049TIP3    H275563   1.098   1.458   6.463 -0.2349  0.5099  0.0567
18050TIP3   OH275564   5.107   4.296   5.811 -0.4436  0.7876  0.2420
18050TIP3    H175565   5.066   4.239   5.876  2.0799 -2.0170 -0.3979
18050TIP3    H275566   5.188   4.325   5.853 -1.6526  4.0872  0.5357
18051TIP3   OH275567   5.839   3.624  17.223 -0.0356 -0.2553  0.5906
18051TIP3    H175568   5.774   3.562  17.254  0.0997 -1.6474 -1.6722
18051TIP3    H275569   5.792   3.707  17.214 -0.6016 -0.3787  2.2245
18052TIP3   OH275570   3.696   0.700   1.809 -0.8733  0.2027 -0.1232
18052TIP3    H175571   3.610   0.717   1.771  0.0334  1.4957 -1.7335
18052TIP3    H275572   3.745   0.657   1.739 -0.5958 -1.9514  1.2617
18053TIP3   OH275573   5.694   1.495  11.326 -0.3697  0.7704  0.1366
18053TIP3    H175574   5.618   1.483  11.269  2.1524 -0.2302 -3.3875
18053TIP3    H275575   5.737   1.574  11.293  1.3294  0.0172  0.3917
18054TIP3   OH275576   4.906   6.403  12.705  0.2955  0.1393 -0.1674
18054TIP3    H175577   4.815   6.384  12.682  0.2849 -1.8301  1.2423
18054TIP3    H275578   4.954   6.389  12.623 -0.4655 -0.4230 -0.5368
18055TIP3   OH275579   4.108   4.230   4.144 -0.2957  0.3524 -0.2318
18055TIP3    H175580   4.109   4.223   4.240 -0.0327 -3.6194 -0.3603
18055TIP3    H275581   4.016   4.217   4.120 -0.2422  0.5157 -0.5244
18056TIP3   OH275582   2.744   6.251  15.928 -0.1012 -1.1618  0.4664
18056TIP3    H175583   2.737   6.287  15.840  0.8648  0.9451  1.1715
18056TIP3    H275584   2.822   6.196  15.927  1.1470  0.5300  0.4750
18057TIP3   OH275585   3.070   0.176  12.159  0.6307  0.3915  0.5363
18057TIP3    H175586   3.126   0.253  12.163 -0.7329  1.3595  2.6413
18057TIP3    H275587   3.052   0.154  12.250 -0.5337 -1.2973 -0.0435
18058TIP3   OH275588   6.402   4.650  17.014  0.4030 -0.2490 -0.4021
18058TIP3    H175589   6.497   4.640  17.017  0.4816  0.1199 -1.5396
18058TIP3    H275590   6.388   4.744  17.000 -0.1068 -0.4399 -1.1946
18059TIP3   OH275591   0.122   0.608  12.732  0.6972 -0.8224 -0.1223
18059TIP3    H175592   0.177   0.644  12.662 -0.6631  0.3601 -0.6394
18059TIP3    H275593   0.090   0.685  12.778 -2.2096 -1.2993 -1.1554
18060TIP3   OH275594   2.705   0.564   2.953 -0.4923  0.3230  0.1508
18060TIP3    H175595   2.741   0.483   2.917  0.2464  1.7796 -2.6162
18060TIP3    H275596   2.643   0.595   2.887  1.0437  3.2365 -0.0600
18061TIP3   OH275597   2.874   2.478   3.740 -0.5844  0.6504 -0.7525
18061TIP3    H175598   2.899   2.471   3.648 -0.9772 -0.4712 -0.7954
18061TIP3    H275599   2.797   2.535   3.740  0.3470  1.9567 -0.9170
18062TIP3   OH275600   0.458   3.777  11.567 -0.3994  0.5196 -0.3880
18062TIP3    H175601   0.428   3.861  11.601 -1.8453  0.0685 -0.4752
18062TIP3    H275602   0.378   3.732  11.539  0.1894 -1.3562  0.7280
18063TIP3   OH275603   4.322   1.797  11.162  0.2619 -1.1071  0.7866
18063TIP3    H175604   4.261   1.747  11.108  0.7955 -0.1458 -0.7817
18063TIP3    H275605   4.408   1.763  11.139  0.6913  0.8500 -0.7574
18064TIP3   OH275606   1.815   3.774   4.588 -0.0794 -0.5193 -0.0502
18064TIP3    H175607   1.875   3.700   4.582  2.1130  1.1256  0.5971
18064TIP3    H275608   1.845   3.825   4.663 -1.3295  1.1931 -0.6329
18065TIP3   OH275609   3.231   4.861   0.726  0.7929  0.1240  0.4460
18065TIP3    H175610   3.195   4.927   0.666 -0.1390 -0.2008  0.6348
18065TIP3    H275611   3.316   4.839   0.688  0.1512 -0.2007 -0.8772
18066TIP3   OH275612   6.317   6.019  15.504  0.1039 -0.0792 -0.6912
18066TIP3    H175613   6.268   5.954  15.454 -3.6681 -0.7578  3.2273
18066TIP3    H275614   6.261   6.097  15.503  1.1468  0.7209  0.3326
18067TIP3   OH275615   4.095   2.073   5.749 -0.5574 -0.6087 -0.6095
18067TIP3    H175616   4.127   2.004   5.806 -0.7848 -0.2695 -0.0714
18067TIP3    H275617   4.044   2.130   5.806 -0.8265 -0.2947 -1.1576
18068TIP3   OH275618   0.802   4.797  15.212  0.2118  0.6552  0.0018
18068TIP3    H175619   0.851   4.747  15.147 -1.2951 -1.3963  0.3613
18068TIP3    H275620   0.784   4.735  15.282 -1.4975  1.7547  0.6067
18069TIP3   OH275621   4.800   5.429  11.031 -0.2532 -0.2280  0.3027
18069TIP3    H175622   4.780   5.347  10.986 -0.2823  0.2962 -0.6808
18069TIP3    H275623   4.847   5.481  10.966  0.0544  0.4137  1.0157
18070TIP3   OH275624   2.348   1.729   5.579  0.4536  0.0029  0.2198
18070TIP3    H175625   2.321   1.777   5.501  0.1627  1.4655  1.1932
18070TIP3    H275626   2.273   1.732   5.638  0.7973 -0.7545  0.7307
18071TIP3   OH275627   1.517   2.705   2.891  0.6078  0.3032  0.0271
18071TIP3    H175628   1.477   2.772   2.836  0.9139  0.9888  0.6306
18071TIP3    H275629   1.511   2.740   2.980 -1.3641 -1.4861  0.6808
18072TIP3   OH275630   5.149   5.966   0.636 -0.2973 -0.0570  0.2337
18072TIP3    H175631   5.121   6.016   0.559  1.8475 -0.1213 -0.6574
18072TIP3    H275632   5.122   6.019   0.711  1.7489  2.4538 -0.6778
18073TIP3   OH275633   6.346   1.843  13.557  0.3786  0.1459 -0.3945
18073TIP3    H175634   6.389   1.808  13.634 -0.4697  1.1192  0.5506
18073TIP3    H275635   6.267   1.886  13.590 -2.3083 -2.9319 -2.1570
18074TIP3   OH275636   4.140   3.380   5.596 -0.2672  0.1909 -0.2687
18074TIP3    H175637   4.126   3.399   5.689 -1.1164 -0.0776 -0.3322
18074TIP3    H275638   4.058   3.339   5.568  0.7088 -1.5843 -0.6506
18075TIP3   OH275639   3.542   0.988   6.553  0.3384 -0.2641 -0.1627
18075TIP3    H175640   3.548   0.895   6.531  2.6154  0.4103 -3.1501
18075TIP3    H275641   3.623   1.006   6.601 -1.3325 -0.2270  2.8951
18076TIP3   OH275642   5.866   0.237  11.051 -0.2955 -0.1854 -0.1728
18076TIP3    H175643   5.831   0.322  11.079  0.7796 -0.3486  1.8665
18076TIP3    H275644   5.953   0.258  11.014 -0.6355 -0.2652 -1.0467
18077TIP3   OH275645   0.589   3.816  12.210  0.2748 -0.4743  0.3107
18077TIP3    H175646   0.650   3.753  12.173 -1.2016 -1.4369 -0.6154
18077TIP3    H275647   0.554   3.863  12.134  1.4858  1.6616  0.9980
18078TIP3   OH275648   5.011   2.568  13.279 -1.0134 -0.0153 -0.2983
18078TIP3    H175649   5.009   2.488  13.225 -1.0760 -0.6259  0.5890
18078TIP3    H275650   5.073   2.547  13.349 -2.4496 -0.0020  1.0268
18079TIP3   OH275651   3.670   2.993  14.243 -0.2771 -0.2479 -0.2870
18079TIP3    H175652   3.641   3.082  14.261 -1.4124  0.0900 -3.1627
18079TIP3    H275653   3.743   3.004  14.182 -0.2156 -1.2508 -0.4112
18080TIP3   OH275654   2.342   3.382  12.463  0.3408 -0.0492  0.1745
18080TIP3    H175655   2.282   3.326  12.414 -1.1242  1.7788 -0.2343
18080TIP3    H275656   2.417   3.393  12.404 -1.2182  1.7796 -1.6182
18081TIP3   OH275657   0.866   2.018   5.838 -0.3933  0.1030 -0.0570
18081TIP3    H175658   0.796   1.971   5.791 -0.9562  2.3612 -1.5986
18081TIP3    H275659   0.851   1.995   5.930 -1.7183 -1.2913 -0.5646
18082TIP3   OH275660   2.375   1.810   1.377 -0.4371 -0.0491 -0.0727
18082TIP3    H175661   2.371   1.720   1.408  0.7103 -0.1563 -0.2198
18082TIP3    H275662   2.468   1.830   1.370 -0.5141  2.1276  2.8709
18083TIP3   OH275663   3.366   1.756   3.474  0.3734 -0.4155  0.7998
18083TIP3    H175664   3.323   1.775   3.557 -0.3017 -2.0895  0.8762
18083TIP3    H275665   3.402   1.668   3.484 -0.9586 -1.2626 -1.1090
18084TIP3   OH275666   0.854   3.360   2.934  0.2280 -0.0084 -0.3581
18084TIP3    H175667   0.818   3.273   2.919 -2.4821  0.9403  0.1559
18084TIP3    H275668   0.804   3.417   2.876  0.0310  1.5790  1.2849
18085TIP3   OH275669   0.746   0.170   5.495  0.0207 -0.1704  0.6304
18085TIP3    H175670   0.758   0.085   5.537  0.5705 -1.8609 -2.5685
18085TIP3    H275671   0.668   0.158   5.440 -0.0495  1.4852  0.3195
18086TIP3   OH275672   4.345   2.404  12.904 -0.2043 -0.3755 -0.0567
18086TIP3    H175673   4.348   2.499  12.904 -0.9011 -0.3046 -1.9708
18086TIP3    H275674   4.413   2.378  12.842 -0.9485 -1.0474 -0.6150
18087TIP3   OH275675   5.598   2.789  16.280 -0.0689  0.1564  0.1671
18087TIP3    H175676   5.688   2.823  16.283 -0.3957  1.7185 -3.2191
18087TIP3    H275677   5.543   2.867  16.293 -0.9100 -0.3571 -0.2231
18088TIP3   OH275678   5.629   4.493  14.640 -0.5124 -0.4384  0.1243
18088TIP3    H175679   5.556   4.546  14.609 -1.4598 -1.6178  0.3057
18088TIP3    H275680   5.675   4.465  14.561 -0.3489  0.1473  0.0061
18089TIP3   OH275681   2.532   3.320  16.173  0.5766 -0.6707 -0.4200
18089TIP3    H175682   2.615   3.275  16.190  0.8870  0.4446  1.2857
18089TIP3    H275683   2.469   3.274  16.229  0.8387  0.7650  1.1181
18090TIP3   OH275684   3.011   2.568   6.006  0.2843  0.3190  0.3036
18090TIP3    H175685   3.090   2.573   6.060 -0.3142 -1.9579  1.5031
18090TIP3    H275686   2.941   2.546   6.067 -1.0429  0.8534 -0.9652
18091TIP3   OH275687   1.040   2.189  12.351  0.1101 -0.4137 -0.3462
18091TIP3    H175688   1.064   2.165  12.262  2.8227 -0.4360  0.2917
18091TIP3    H275689   1.055   2.283  12.356 -0.4056 -0.3425  0.0001
18092TIP3   OH275690   0.389   0.080   0.627  0.0806  0.0337 -0.1151
18092TIP3    H175691   0.300   0.092   0.592  0.3350  0.2234 -0.7078
18092TIP3    H275692   0.399  -0.015   0.633 -0.5249  0.0249  0.9042
18093TIP3   OH275693   6.338   2.245  13.957 -0.1920  0.0246 -0.3602
18093TIP3    H175694   6.276   2.233  14.029 -0.6744  0.8688 -0.6218
18093TIP3    H275695   6.376   2.331  13.972 -0.0904  0.0892 -0.9591
18094TIP3   OH275696   5.600   1.810  15.643  0.1488 -0.1535  0.3908
18094TIP3    H175697   5.582   1.896  15.681 -0.9006  0.3864 -1.2470
18094TIP3    H275698   5.524   1.757  15.665  1.6887 -1.4041  3.2320
18095TIP3   OH275699   0.021   3.497  12.782  0.3423 -0.3168  0.0211
18095TIP3    H175700   0.011   3.449  12.865 -0.7306 -1.4047 -0.6969
18095TIP3    H275701   0.084   3.447  12.732 -0.6064 -0.8945 -0.6397
18096TIP3   OH275702   3.742   3.804  17.128 -0.3150 -0.2423 -0.4609
18096TIP3    H175703   3.772   3.738  17.066 -1.1972  0.1395 -1.3257
18096TIP3    H275704   3.810   3.872  17.126  0.1244 -0.6720 -0.2862
18097TIP3   OH275705   0.433   0.371  14.374  0.3877 -0.3331  0.0480
18097TIP3    H175706   0.393   0.342  14.292 -2.1575  1.8101  0.3892
18097TIP3    H275707   0.370   0.347  14.441  1.3329  0.0650  1.1097
18098TIP3   OH275708   4.530   1.407  15.615 -0.2567  0.1907  0.0439
18098TIP3    H175709   4.608   1.364  15.651  1.3302  2.0689 -0.9743
18098TIP3    H275710   4.562   1.453  15.537 -2.1346  2.0253  0.2887
18099TIP3   OH275711   1.053   2.177   2.747  0.2312  0.0901 -0.0112
18099TIP3    H175712   1.003   2.253   2.717  0.5399  0.0100 -0.7418
18099TIP3    H275713   1.139   2.212   2.772 -0.0097  0.1512  0.7709
18100TIP3   OH275714   1.344   6.688  17.306  0.6024 -0.2516 -0.5806
18100TIP3    H175715   1.387   6.685  17.392  0.5491  0.9175 -0.4937
18100TIP3    H275716   1.251   6.677  17.326  0.7555 -1.8324 -0.6789
18101TIP3   OH275717   6.673   1.637  14.888  0.2134 -0.3291 -0.4152
18101TIP3    H175718   6.753   1.603  14.848  0.2143  0.3841 -1.0403
18101TIP3    H275719   6.621   1.671  14.815 -0.8185 -1.0792 -0.0603
18102TIP3   OH275720   1.683   2.432   0.725  0.3620 -0.0346  0.3974
18102TIP3    H175721   1.630   2.508   0.749  0.5469  0.1367  0.2595
18102TIP3    H275722   1.752   2.467   0.669  1.3726 -0.0555  1.5870
18103TIP3   OH275723   4.280   2.384   2.600  0.1956  0.4554 -0.0031
18103TIP3    H175724   4.233   2.318   2.548  2.1059  1.2531 -2.9501
18103TIP3    H275725   4.228   2.464   2.590  0.2257  0.4527 -0.1915
18104TIP3   OH275726   3.418   0.149   3.518  0.3117 -0.6299 -0.4713
18104TIP3    H175727   3.403   0.190   3.604  0.6595 -0.7798 -0.3392
18104TIP3    H275728   3.341   0.174   3.467  0.0979 -0.5431 -0.1150
18105TIP3   OH275729   4.946   2.159   0.035  0.2736 -0.1307 -1.0726
18105TIP3    H175730   4.972   2.170  -0.056 -2.4845 -1.0766 -2.0441
18105TIP3    H275731   4.874   2.097   0.033  0.1109 -0.1635  1.7722
18106TIP3   OH275732   1.652   6.222  12.744  0.3844 -0.2829 -1.0456
18106TIP3    H175733   1.653   6.310  12.707  1.1960 -0.2695 -1.0220
18106TIP3    H275734   1.663   6.235  12.838  0.3139 -0.4025 -1.0203
18107TIP3   OH275735   0.505   3.365  17.124 -0.2482 -0.2931 -0.4393
18107TIP3    H175736   0.444   3.426  17.166  0.0532 -0.2130 -0.1116
18107TIP3    H275737   0.552   3.418  17.060  1.0667  0.1969  0.8710
18108TIP3   OH275738   4.470   2.779   1.919 -0.5945 -0.0220  0.0965
18108TIP3    H175739   4.516   2.702   1.887 -0.3545  0.5655 -1.0352
18108TIP3    H275740   4.537   2.833   1.960 -0.8829 -0.7192  1.5603
18109TIP3   OH275741   5.517   1.080  12.883  0.3792 -0.3897  0.2568
18109TIP3    H175742   5.463   1.081  12.962 -0.8586  1.0543 -0.5509
18109TIP3    H275743   5.507   0.991  12.849 -1.4844 -0.1923  0.1730
18110TIP3   OH275744   0.222   4.706   1.948 -0.3800  0.1561 -0.4056
18110TIP3    H175745   0.304   4.674   1.986 -1.1188 -1.5831 -0.1428
18110TIP3    H275746   0.171   4.736   2.022  0.4656  2.4661 -0.6928
18111TIP3   OH275747   4.822   5.690   2.246  1.2029  0.2164  0.7004
18111TIP3    H175748   4.819   5.595   2.240 -1.0380  0.3347 -1.9356
18111TIP3    H275749   4.890   5.716   2.183  1.7677  0.3977  1.3709
18112TIP3   OH275750   1.183   5.567  12.668  0.2807 -0.2846 -0.1830
18112TIP3    H175751   1.094   5.540  12.687 -0.0116  0.3244 -0.6605
18112TIP3    H275752   1.235   5.531  12.740 -0.1591 -1.6557 -0.5099
18113TIP3   OH275753   5.812   2.720   1.815  0.3309  0.4239  0.3303
18113TIP3    H175754   5.824   2.690   1.725  0.6993 -0.1137  0.5544
18113TIP3    H275755   5.852   2.806   1.817 -0.6852  0.9357 -0.3070
18114TIP3   OH275756   3.195   6.571   4.889  0.2130  0.0615 -0.1795
18114TIP3    H175757   3.192   6.531   4.975  0.1275  0.8506  0.1891
18114TIP3    H275758   3.164   6.661   4.902 -0.1914  0.0689 -1.0960
18115TIP3   OH275759   5.483   3.740  13.128 -0.4778 -0.5047 -0.6339
18115TIP3    H175760   5.446   3.670  13.074 -2.3576 -0.6372  0.7267
18115TIP3    H275761   5.427   3.742  13.205  0.3621  1.6128 -0.0232
18116TIP3   OH275762   1.104   2.887  11.930  0.2567  0.2027  0.3317
18116TIP3    H175763   1.027   2.840  11.899  0.0926  0.7139 -0.0555
18116TIP3    H275764   1.073   2.937  12.006  0.2743  0.1825  0.3527
18117TIP3   OH275765   3.483   3.496  15.174 -0.5500 -0.1827 -0.1227
18117TIP3    H175766   3.572   3.494  15.138 -0.5621 -1.6222 -0.1294
18117TIP3    H275767   3.445   3.577  15.139  1.4301  1.5992  1.5855
18118TIP3   OH275768   3.278   2.137  16.760 -0.1450  0.1426 -0.4861
18118TIP3    H175769   3.250   2.197  16.829 -0.3427  0.9910 -1.2891
18118TIP3    H275770   3.335   2.189  16.704  0.1447 -0.5823 -0.8855
18119TIP3   OH275771   3.307   5.642   3.834  0.1117  0.0012  0.1185
18119TIP3    H175772   3.234   5.652   3.894 -0.3342 -0.4595 -0.3418
18119TIP3    H275773   3.347   5.558   3.858  0.2567  0.0674  0.1143
18120TIP3   OH275774   5.168   2.641  14.731  0.1284  0.0559 -0.1920
18120TIP3    H175775   5.221   2.720  14.741 -1.4811  1.6858 -3.1915
18120TIP3    H275776   5.128   2.627  14.817  0.8143  2.2399  0.5375
18121TIP3   OH275777   4.498   4.758  17.075 -0.3517  0.0594  0.1016
18121TIP3    H175778   4.545   4.698  17.017  0.9216 -0.2358  1.3668
18121TIP3    H275779   4.477   4.704  17.152 -1.9191  0.4633 -0.0082
18122TIP3   OH275780   4.343   3.905   3.564 -0.2190  0.5878 -0.2688
18122TIP3    H175781   4.316   3.901   3.473  1.7660  0.7070 -0.8944
18122TIP3    H275782   4.426   3.857   3.568 -1.0300 -0.7986  1.7920
18123TIP3   OH275783   2.667   6.103  16.415 -0.4336  0.8465 -0.5675
18123TIP3    H175784   2.672   6.088  16.321 -0.1237 -0.8861 -0.3174
18123TIP3    H275785   2.623   6.026  16.450  0.9466  0.6269  0.8669
18124TIP3   OH275786   3.785   0.442   3.102 -0.2012  0.7939 -0.2157
18124TIP3    H175787   3.865   0.478   3.139 -1.5281  1.5397  2.1410
18124TIP3    H275788   3.805   0.349   3.087  0.7428  0.6803  1.5413
18125TIP3   OH275789   6.710   1.091  12.051  0.0990  0.4904 -0.6079
18125TIP3    H175790   6.767   1.168  12.041 -0.6694  0.9780 -1.3823
18125TIP3    H275791   6.686   1.092  12.144 -0.3235  1.5209 -0.7042
18126TIP3   OH275792   6.566   1.245  17.353  0.4370 -0.2868 -0.0021
18126TIP3    H175793   6.578   1.286  17.439  2.1271 -0.8035  0.0371
18126TIP3    H275794   6.622   1.296  17.295  1.0715 -1.3488 -0.3351
18127TIP3   OH275795   5.990   3.371  11.441  0.6296 -0.2404  0.8215
18127TIP3    H175796   5.972   3.383  11.535 -0.6727  0.4673  0.5134
18127TIP3    H275797   6.054   3.439  11.421 -0.6532  1.0340  0.8024
18128TIP3   OH275798   3.706   5.096   0.476  0.2463  0.0823 -0.0460
18128TIP3    H175799   3.725   5.033   0.407 -0.0100 -0.4698  0.3791
18128TIP3    H275800   3.714   5.182   0.433 -0.7831 -0.2613 -0.9910
18129TIP3   OH275801   1.728   2.913  16.531 -0.4716  0.0573  0.0253
18129TIP3    H175802   1.733   2.894  16.625 -0.5756 -0.2279 -0.0274
18129TIP3    H275803   1.810   2.879  16.495  1.6132  3.9015  0.6387
18130TIP3   OH275804   3.518   2.674  16.376 -0.9045  0.0377 -0.1580
18130TIP3    H175805   3.448   2.644  16.318  0.5904 -1.5231 -1.2282
18130TIP3    H275806   3.584   2.605  16.373  0.2487  0.9767  1.6324
18131TIP3   OH275807   3.312   6.006   2.936 -1.1105  0.5143  0.3933
18131TIP3    H175808   3.262   6.019   2.855 -2.8301  0.1714  1.3447
18131TIP3    H275809   3.358   6.088   2.949  0.0716  0.2191 -1.4656
18132TIP3   OH275810   1.422   4.215   2.673 -0.6200 -0.2272  0.2174
18132TIP3    H175811   1.404   4.147   2.608  0.5127  0.2069 -0.6027
18132TIP3    H275812   1.431   4.295   2.622 -2.9301  0.7773  1.2644
18133TIP3   OH275813   2.368   2.035   2.273 -0.4252  0.0996 -0.1021
18133TIP3    H175814   2.331   2.123   2.281  0.0150  0.3917 -1.0838
18133TIP3    H275815   2.434   2.044   2.205 -0.6939 -1.0972 -0.5380
18134TIP3   OH275816   2.072   1.147   5.107  0.2507 -0.1795 -0.1182
18134TIP3    H175817   2.128   1.089   5.055  1.3952  0.9616 -0.2103
18134TIP3    H275818   2.113   1.233   5.099 -0.7717  0.4311  0.9330
18135TIP3   OH275819   5.075   1.134  12.258  0.4297 -0.1038  0.8542
18135TIP3    H175820   4.993   1.152  12.211  0.6623 -0.8393  0.1510
18135TIP3    H275821   5.053   1.061  12.315  0.5442 -0.1701  0.8122
18136TIP3   OH275822   6.200   5.084  16.486 -0.1434  0.7350  0.3880
18136TIP3    H175823   6.157   5.163  16.520 -0.3766  0.6598  0.2727
18136TIP3    H275824   6.169   5.077  16.396  0.1130  0.6789  0.3039
18137TIP3   OH275825   4.059   3.065   1.913  0.2787 -0.0673  0.0230
18137TIP3    H175826   4.047   2.981   1.956  0.0941 -0.0289  0.0446
18137TIP3    H275827   4.034   3.051   1.822  0.2224 -0.0287  0.0323
18138TIP3   OH275828   2.038   2.826  14.750 -0.0677  0.3460  0.2536
18138TIP3    H175829   2.114   2.845  14.695  1.5410 -0.0616  2.2001
18138TIP3    H275830   1.984   2.905  14.744  0.0891  0.3648 -1.7452
18139TIP3   OH275831   5.134   4.706  13.749 -0.2190 -0.3460  0.3046
18139TIP3    H175832   5.204   4.749  13.700  0.0444 -2.2633 -1.0819
18139TIP3    H275833   5.173   4.686  13.834 -0.2047  1.6082  0.8235
18140TIP3   OH275834   6.258   4.404  12.957  0.4700  0.2373  0.2642
18140TIP3    H175835   6.201   4.347  13.007  0.3450  0.7251  0.6921
18140TIP3    H275836   6.347   4.382  12.986  0.4497 -0.0076  0.1396
18141TIP3   OH275837   2.612   4.743  10.566  0.3653 -0.2687  0.8567
18141TIP3    H175838   2.601   4.838  10.568  0.0824 -0.3105  2.1176
18141TIP3    H275839   2.690   4.728  10.620  1.5737 -0.6256 -0.9147
18142TIP3   OH275840   6.450   5.603   6.826 -0.7456 -0.9163  0.4593
18142TIP3    H175841   6.523   5.649   6.867 -1.2416  1.5155 -1.1779
18142TIP3    H275842   6.482   5.514   6.811  2.1209  0.2290 -0.7924
18143TIP3   OH275843   2.764   3.828   4.539 -0.2935  0.0875  0.2418
18143TIP3    H175844   2.766   3.839   4.444  0.2028  1.6130  0.3948
18143TIP3    H275845   2.809   3.745   4.554  1.4096  0.7703 -0.7605
18144TIP3   OH275846   5.214   4.104   6.112  0.2148 -0.2189  0.2731
18144TIP3    H175847   5.131   4.055   6.111  0.1795 -0.4491 -4.4992
18144TIP3    H275848   5.251   4.086   6.199 -2.9093 -3.1992  1.1979
18145TIP3   OH275849   3.986   3.509  16.842 -0.4242 -0.1215 -0.3097
18145TIP3    H175850   3.898   3.470  16.837 -0.1087 -0.8882 -0.0953
18145TIP3    H275851   4.040   3.439  16.879 -0.0749  0.9189  1.2170
18146TIP3   OH275852   2.524   6.493   0.938 -0.8624  0.4933 -0.3218
18146TIP3    H175853   2.475   6.497   1.020 -1.2841  0.7071 -0.5829
18146TIP3    H275854   2.461   6.520   0.871 -0.9551 -1.0595 -0.9083
18147TIP3   OH275855   3.684   4.900   5.875 -0.4520  0.4448 -0.0727
18147TIP3    H175856   3.663   4.971   5.935  0.0341  0.0294  0.5931
18147TIP3    H275857   3.766   4.863   5.908 -0.1672  0.2186 -0.9957
18148TIP3   OH275858   0.381   1.645  13.156  0.3062 -0.3106  0.4096
18148TIP3    H175859   0.389   1.615  13.247  2.1259 -1.9933 -0.2328
18148TIP3    H275860   0.451   1.710  13.147 -1.8557  2.2785  1.0020
18149TIP3   OH275861   0.706   4.380   1.261  0.2276  0.0687 -0.0622
18149TIP3    H175862   0.708   4.470   1.291  0.3142  0.7851 -2.1053
18149TIP3    H275863   0.785   4.340   1.298  2.6901  2.0907 -2.7333
18150TIP3   OH275864   4.166   1.631   3.698 -0.1491 -0.1813  0.2174
18150TIP3    H175865   4.217   1.708   3.721 -0.0776 -0.4006  0.8040
18150TIP3    H275866   4.075   1.654   3.720 -0.2125 -0.0355 -0.1970
18151TIP3   OH275867   2.281   3.141   3.416  0.1171 -0.1008 -0.2391
18151TIP3    H175868   2.243   3.109   3.499  0.1393  1.4748  0.4086
18151TIP3    H275869   2.347   3.205   3.443 -1.1000  1.7649 -1.4803
18152TIP3   OH275870   3.309   3.977  16.488 -0.3496 -0.0358  0.4526
18152TIP3    H175871   3.372   4.017  16.429  1.5775  0.5760  2.7522
18152TIP3    H275872   3.232   4.033  16.483  0.3059  0.8160 -0.3883
18153TIP3   OH275873   5.818   5.768  13.125  0.5434  0.1130 -0.5062
18153TIP3    H175874   5.894   5.810  13.165 -1.2077  0.8047  2.3698
18153TIP3    H275875   5.796   5.696  13.184 -2.6867  1.6836  0.4662
18154TIP3   OH275876   0.365   0.679   6.156  0.5212  0.1733 -0.0088
18154TIP3    H175877   0.295   0.681   6.222  0.7918 -0.6849  0.3175
18154TIP3    H275878   0.424   0.751   6.182 -0.9660  1.8856 -1.1438
18155TIP3   OH275879   1.036   4.322   4.898  0.1970  0.2848 -0.2888
18155TIP3    H175880   1.037   4.404   4.850 -1.9956  0.6642  0.1930
18155TIP3    H275881   0.945   4.313   4.929  0.1757 -2.6359 -0.8809
18156TIP3   OH275882   1.699   5.006   3.874 -0.1772  0.5904  0.4055
18156TIP3    H175883   1.646   5.052   3.808 -1.6672  1.4609  2.1101
18156TIP3    H275884   1.746   5.075   3.920  0.8171 -0.0048  0.3148
18157TIP3   OH275885   0.267   2.203  16.895  0.1995 -0.1222 -0.1954
18157TIP3    H175886   0.219   2.275  16.935 -0.6605 -0.1259 -1.1704
18157TIP3    H275887   0.266   2.133  16.961 -0.9880 -0.0554 -0.1202
18158TIP3   OH275888   1.237   1.433   1.105 -0.7468 -0.2003  0.1126
18158TIP3    H175889   1.311   1.487   1.076 -0.3681 -1.0775 -0.6138
18158TIP3    H275890   1.191   1.488   1.169 -0.7270  1.2303 -1.0201
18159TIP3   OH275891   5.996   1.337   4.252 -0.5193  0.2581 -0.4084
18159TIP3    H175892   5.908   1.352   4.287 -1.1007 -0.5559 -1.4697
18159TIP3    H275893   6.054   1.354   4.326 -1.4693  1.9653  0.0051
18160TIP3   OH275894   3.050   2.201   0.757 -0.0463  0.1454  0.0799
18160TIP3    H175895   3.032   2.125   0.813 -0.0257  0.0614 -0.0264
18160TIP3    H275896   3.138   2.184   0.723 -0.4130 -0.2557 -0.7021
18161TIP3   OH275897   2.938   6.310   3.383 -0.2696  0.2732 -0.2993
18161TIP3    H175898   2.921   6.228   3.430 -0.5226 -0.0831 -1.0021
18161TIP3    H275899   2.897   6.377   3.437  4.5943  0.8434  3.4149
18162TIP3   OH275900   2.519   3.978  14.758 -0.0619 -0.0374  0.0789
18162TIP3    H175901   2.601   3.968  14.807 -0.1739 -2.4030 -0.1325
18162TIP3    H275902   2.451   3.950  14.819 -0.5461  0.1491 -0.3630
18163TIP3   OH275903   3.680   0.411   5.835  0.3226  0.3199 -0.0502
18163TIP3    H175904   3.693   0.429   5.928  1.8920  0.3105 -0.2483
18163TIP3    H275905   3.593   0.448   5.816  0.6682  1.7916  1.0378
18164TIP3   OH275906   4.436   0.716  12.827  0.1645 -0.0294  0.0457
18164TIP3    H175907   4.350   0.739  12.861 -0.4551 -0.4501 -1.1803
18164TIP3    H275908   4.420   0.640  12.771  1.3184 -0.0435 -0.2929
18165TIP3   OH275909   5.813   2.049  10.317 -0.0735  0.2160  0.5008
18165TIP3    H175910   5.831   1.992  10.391 -0.1287 -0.1480  0.2359
18165TIP3    H275911   5.825   2.138  10.351  0.1070  0.0430  0.8869
18166TIP3   OH275912   2.443   3.904  14.498 -0.0358  0.2360 -0.1729
18166TIP3    H175913   2.471   3.920  14.588 -1.5051 -0.8859  0.5221
18166TIP3    H275914   2.516   3.856  14.459  0.4780  0.4395  0.5161
18167TIP3   OH275915   5.824   2.386   1.696  0.0186 -0.3226 -0.0013
18167TIP3    H175916   5.763   2.385   1.770  0.7015  1.3079  0.6379
18167TIP3    H275917   5.790   2.455   1.638  1.6520  1.2485  0.7926
18168TIP3   OH275918   5.969   6.635   3.540 -0.5998 -0.3554  0.6183
18168TIP3    H175919   6.056   6.596   3.538  0.6074  2.1504 -0.1029
18168TIP3    H275920   5.920   6.587   3.473  0.1103 -1.9363  1.1681
18169TIP3   OH275921   3.441   1.356  11.845 -0.4714  0.3019  0.0556
18169TIP3    H175922   3.509   1.408  11.800 -0.5014  1.0130  0.8144
18169TIP3    H275923   3.402   1.303  11.776  2.0393 -1.4732 -0.1609
18170TIP3   OH275924   5.180   1.099   1.054  0.2566 -0.0007 -0.3981
18170TIP3    H175925   5.269   1.084   1.022  1.0090  0.5930  1.3403
18170TIP3    H275926   5.130   1.025   1.018  2.1633 -2.3071  1.3505
18171TIP3   OH275927   0.915   5.885   5.035  0.0363  0.2143  0.3127
18171TIP3    H175928   0.952   5.797   5.027  0.4761  0.5378 -1.4283
18171TIP3    H275929   0.820   5.870   5.035  0.0874 -0.2109 -0.9057
18172TIP3   OH275930   2.860   0.044  12.492  0.4566  0.0374  0.0831
18172TIP3    H175931   2.877  -0.049  12.476 -0.5812  0.0173 -0.9869
18172TIP3    H275932   2.906   0.089  12.421  2.5922  0.5135  1.6711
18173TIP3   OH275933   2.449   6.379   2.039 -0.4906  0.0663  0.0674
18173TIP3    H175934   2.398   6.326   2.100  0.9177 -0.8408  0.4918
18173TIP3    H275935   2.458   6.325   1.961 -1.1441  0.6943 -0.4624
18174TIP3   OH275936   2.119   0.462  12.765  0.6513  0.0328 -0.2184
18174TIP3    H175937   2.194   0.502  12.809  0.8243  0.9056 -1.2741
18174TIP3    H275938   2.157   0.410  12.695  0.3840 -1.4681  0.7169
18175TIP3   OH275939   1.115   0.358  10.454 -0.4850 -0.4345 -0.2213
18175TIP3    H175940   1.026   0.321  10.457 -0.2357 -1.0716  3.1850
18175TIP3    H275941   1.149   0.345  10.542  2.4802  1.1850 -1.0056
18176TIP3   OH275942   4.009   4.569   2.670 -0.6625  0.0189  0.5336
18176TIP3    H175943   3.967   4.483   2.670  2.2830 -1.5845  1.2073
18176TIP3    H275944   3.996   4.602   2.759  0.9936 -1.3652  1.3581
18177TIP3   OH275945   1.033   2.293   1.126 -0.4760  0.3827 -0.2747
18177TIP3    H175946   1.054   2.380   1.093 -0.1990 -0.1068 -1.4533
18177TIP3    H275947   1.052   2.297   1.220  1.1337  1.1113 -0.6055
18178TIP3   OH275948   3.216   2.311   0.242  0.2946 -0.3396 -0.4995
18178TIP3    H175949   3.266   2.230   0.253 -0.4944 -0.9846 -1.5058
18178TIP3    H275950   3.281   2.376   0.217  1.0507 -0.4661  1.0056
18179TIP3   OH275951   0.332   6.420  10.785  0.4605  0.1107 -0.4969
18179TIP3    H175952   0.426   6.437  10.791  0.6994 -0.7254 -1.4873
18179TIP3    H275953   0.312   6.365  10.861  1.5178 -2.5794 -1.9996
18180TIP3   OH275954   3.786   5.308  16.465 -0.9853  0.2555 -0.2956
18180TIP3    H175955   3.817   5.223  16.435 -1.4827  0.1587 -0.5491
18180TIP3    H275956   3.758   5.353  16.386  0.2115  1.0657 -0.2932
18181TIP3   OH275957   4.426   1.588   3.308  0.3463  0.0596 -0.0624
18181TIP3    H175958   4.505   1.636   3.283  0.4808 -0.4979 -0.7231
18181TIP3    H275959   4.409   1.530   3.234 -1.1250  0.7204 -0.2816
18182TIP3   OH275960   6.288   6.576  12.451  0.4509  0.4376  0.0599
18182TIP3    H175961   6.283   6.671  12.458  0.7413  0.3813  1.4032
18182TIP3    H275962   6.359   6.551  12.510  0.4576 -0.6023 -0.3588
18183TIP3   OH275963   4.859   4.425   3.369  0.5148  0.1200 -0.5990
18183TIP3    H175964   4.952   4.400   3.373  0.6749  0.3949  4.7404
18183TIP3    H275965   4.819   4.379   3.443 -3.0569  2.0171 -1.1342
18184TIP3   OH275966   3.608   3.943   0.388  0.0729 -0.3362  0.1994
18184TIP3    H175967   3.529   3.900   0.355 -0.4710 -0.2496  1.3305
18184TIP3    H275968   3.578   3.991   0.466  0.6787  1.9691 -0.9001
18185TIP3   OH275969   6.450   1.290   3.131  0.3772  0.0173  0.3284
18185TIP3    H175970   6.545   1.293   3.139  0.5434 -0.5888 -1.1287
18185TIP3    H275971   6.432   1.212   3.079 -0.8486  0.6123 -0.2008
18186TIP3   OH275972   4.438   2.876   2.821 -0.3822 -0.3419 -0.6370
18186TIP3    H175973   4.445   2.852   2.728  1.0875  0.3972 -0.7593
18186TIP3    H275974   4.463   2.969   2.823 -0.8364 -0.2283  0.4498
18187TIP3   OH275975   4.864   3.430   1.070  0.5408  0.0082  0.2998
18187TIP3    H175976   4.799   3.406   1.005 -0.0742  1.0259  0.5128
18187TIP3    H275977   4.886   3.521   1.050 -0.3519  0.6552  2.0433
18188TIP3   OH275978   0.512   6.151   2.310 -0.3680 -0.3187 -0.0556
18188TIP3    H175979   0.422   6.120   2.318  0.1284 -1.5182  1.6275
18188TIP3    H275980   0.564   6.071   2.311  0.7583  0.3957 -0.0716
18189TIP3   OH275981   1.943   1.495   5.142 -0.8486 -0.5537 -0.3430
18189TIP3    H175982   1.901   1.465   5.061 -2.7334  0.4935  0.1735
18189TIP3    H275983   1.924   1.589   5.145  0.5749 -0.2639  0.5334
18190TIP3   OH275984   5.000   6.223   5.419  0.0507  0.2230  0.8416
18190TIP3    H175985   5.006   6.159   5.348 -0.3570  0.3626  0.6791
18190TIP3    H275986   4.932   6.284   5.391 -0.1397  0.2622  1.3647
18191TIP3   OH275987   3.468   3.992  15.074  0.6445 -0.2863  0.2206
18191TIP3    H175988   3.495   4.056  15.140 -0.4257 -0.2708  0.6588
18191TIP3    H275989   3.374   4.003  15.067  0.7516 -0.2524 -1.3755
18192TIP3   OH275990   0.231   2.254  13.536 -0.6162 -0.1635  0.2293
18192TIP3    H175991   0.202   2.292  13.453 -0.7623  0.0314  0.3687
18192TIP3    H275992   0.315   2.213  13.515 -0.2307  0.6314  0.1778
18193TIP3   OH275993   4.823   4.382  14.807  0.3055 -0.0544 -0.4663
18193TIP3    H175994   4.794   4.431  14.730 -0.4772  0.2537  0.0095
18193TIP3    H275995   4.794   4.435  14.881 -0.0640 -0.9627  0.0529
18194TIP3   OH275996   5.952   1.529  13.277 -0.0754  0.3474  0.4524
18194TIP3    H175997   5.867   1.502  13.242  1.1323 -2.2606 -0.7292
18194TIP3    H275998   5.955   1.491  13.365  0.6059 -1.3888 -0.2685
18195TIP3   OH275999   2.899   2.584   2.456  0.2327  0.1416  0.3635
18195TIP3    H176000   2.840   2.551   2.524  0.7580  2.9689  2.3694
18195TIP3    H276001   2.986   2.582   2.496  0.4687  2.4731  0.1508
18196TIP3   OH276002   4.047   6.068  14.742 -0.1483  0.3605  0.2880
18196TIP3    H176003   4.090   6.028  14.667 -2.6680  0.5563 -1.3547
18196TIP3    H276004   3.996   5.998  14.782 -1.5066  1.0102 -0.2650
18197TIP3   OH276005   5.214   2.812   3.639  0.2192  0.2084 -0.3987
18197TIP3    H176006   5.295   2.827   3.687 -0.6376  1.0428  0.8560
18197TIP3    H276007   5.240   2.758   3.564  1.9970  0.8207 -0.2810
18198TIP3   OH276008   0.480   2.901   0.515 -0.2965 -0.1842 -0.0927
18198TIP3    H176009   0.511   2.940   0.433  0.3362 -0.9514 -0.2389
18198TIP3    H276010   0.445   2.974   0.565 -0.4302  0.3396 -0.9331
18199TIP3   OH276011   2.729   6.592   4.081 -0.2246 -0.0412  0.0484
18199TIP3    H176012   2.786   6.657   4.121  1.3748 -1.8956  0.9301
18199TIP3    H276013   2.780   6.557   4.008 -1.5649  0.5150 -1.2137
18200TIP3   OH276014   3.055   1.117   0.118  0.3107  0.2372 -0.3984
18200TIP3    H176015   3.036   1.199   0.073  0.6147  1.6443  1.8712
18200TIP3    H276016   2.980   1.104   0.177  1.5420  0.4531  1.3019
18201TIP3   OH276017   3.929   6.522  12.744 -0.3961 -0.0071  0.0892
18201TIP3    H176018   3.939   6.435  12.783  2.1625  0.9071  1.7221
18201TIP3    H276019   3.999   6.527  12.679  0.6767  1.3933  1.2714
18202TIP3   OH276020   1.938   6.209   2.960 -0.0427  0.4439  0.0359
18202TIP3    H176021   1.852   6.235   2.995 -0.7788 -0.0155 -1.3512
18202TIP3    H276022   1.918   6.138   2.899  1.2375  0.8769 -0.9134
18203TIP3   OH276023   1.122   0.525   4.560 -0.6768  0.1542  0.2832
18203TIP3    H176024   1.135   0.485   4.474 -0.8485  0.5527  0.0694
18203TIP3    H276025   1.208   0.558   4.585 -0.3444 -1.0711  0.8370
18204TIP3   OH276026   4.624   3.926  15.415 -0.4805 -0.3869 -0.2557
18204TIP3    H176027   4.681   3.998  15.442 -0.6303  0.2680 -1.5774
18204TIP3    H276028   4.603   3.880  15.496  0.7907  0.1909  0.4313
18205TIP3   OH276029   3.090   0.954  11.340 -1.2848 -0.3286  0.6271
18205TIP3    H176030   3.044   0.905  11.408 -0.5448 -0.9899  0.6664
18205TIP3    H276031   3.089   0.897  11.263 -1.7121  0.2217  0.2140
18206TIP3   OH276032   3.147   5.355   1.556 -0.2365  0.2662  0.1124
18206TIP3    H176033   3.226   5.392   1.517 -0.9926  2.7958  0.7958
18206TIP3    H276034   3.078   5.374   1.493 -0.9460  1.7007  1.2613
18207TIP3   OH276035   2.467   0.942   4.707 -0.1875  0.1184  0.0895
18207TIP3    H176036   2.388   0.994   4.693  0.9272  2.4566  1.8434
18207TIP3    H276037   2.523   0.963   4.632 -0.3689  0.1837 -0.0276
18208TIP3   OH276038   0.639   1.933  12.317  0.8212  0.2787  0.8495
18208TIP3    H176039   0.673   2.022  12.304 -2.1696  1.2729 -0.9219
18208TIP3    H276040   0.547   1.938  12.291  0.7412 -3.5570 -0.0924
18209TIP3   OH276041   5.609   4.088  17.080 -0.2054 -0.2629 -0.4153
18209TIP3    H176042   5.536   4.034  17.110  1.3469 -1.2142  1.8997
18209TIP3    H276043   5.622   4.151  17.150  0.6507  0.4825 -1.2242
18210TIP3   OH276044   4.244   2.074  17.366  0.0838  0.3712  0.3244
18210TIP3    H176045   4.327   2.114  17.394  0.4914  0.1227 -0.5067
18210TIP3    H276046   4.183   2.096  17.436  0.8408  0.5956  0.9346
18211TIP3   OH276047   4.628   2.193  16.312  0.3210 -0.1830  0.7047
18211TIP3    H176048   4.644   2.098  16.313  0.5609 -0.3135 -2.7460
18211TIP3    H276049   4.544   2.202  16.268  1.3399  1.2028 -1.0999
18212TIP3   OH276050   2.735   6.323  15.652 -0.5527  0.0907  0.7002
18212TIP3    H176051   2.741   6.418  15.657  1.7686  0.0838 -0.5515
18212TIP3    H276052   2.656   6.306  15.601  0.5000  1.4986 -1.5349
18213TIP3   OH276053   2.430   4.155   1.626 -0.0667 -0.1006  0.0074
18213TIP3    H176054   2.452   4.246   1.641  1.5597 -0.6842  1.3897
18213TIP3    H276055   2.337   4.149   1.648 -0.4139  1.3612 -0.9234
18214TIP3   OH276056   5.459   2.364   4.841 -0.1190 -0.1096 -0.4355
18214TIP3    H176057   5.554   2.360   4.833  0.3609  5.1089 -0.5885
18214TIP3    H276058   5.427   2.374   4.751 -0.3272  1.8842 -0.1881
18215TIP3   OH276059   4.835   4.139  16.522  0.1289  0.0601  0.4786
18215TIP3    H176060   4.747   4.173  16.503  0.5841  1.6603  1.0807
18215TIP3    H276061   4.852   4.166  16.612  0.3771 -2.1988  1.1797
18216TIP3   OH276062   6.093   5.881   3.796 -0.3000 -0.1097 -0.1164
18216TIP3    H176063   6.033   5.902   3.867  0.4148 -0.6036  0.6476
18216TIP3    H276064   6.048   5.814   3.745 -0.6579 -0.0265  0.0918
18217TIP3   OH276065   4.019   4.740  11.494 -0.0173 -0.3244  0.2955
18217TIP3    H176066   3.970   4.704  11.568  0.6055 -2.0412 -0.0774
18217TIP3    H276067   4.077   4.669  11.467  0.8195  0.7720 -0.9160
18218TIP3   OH276068   6.689   4.242   2.658 -0.0388  0.3130  0.1637
18218TIP3    H176069   6.767   4.263   2.709  0.8020  0.3389 -1.0739
18218TIP3    H276070   6.670   4.151   2.679  0.6838  0.1276  0.0507
18219TIP3   OH276071   0.462   4.609   5.562 -0.4521  0.0970  0.0108
18219TIP3    H176072   0.501   4.567   5.485 -0.9225 -2.5472  1.0843
18219TIP3    H276073   0.395   4.667   5.527  0.1767 -0.1227 -1.6224
18220TIP3   OH276074   6.723   0.149  15.764  0.0869  0.0313 -0.2096
18220TIP3    H176075   6.714   0.234  15.808 -0.3043  0.0222 -0.2735
18220TIP3    H276076   6.789   0.103  15.816  2.1269  1.2746 -1.5348
18221TIP3   OH276077   4.830   1.973   1.063 -0.2783 -0.4446 -0.7109
18221TIP3    H176078   4.771   1.937   1.130 -0.3863 -0.4578 -0.8128
18221TIP3    H276079   4.914   1.930   1.080 -0.8435 -2.1544 -1.9610
18222TIP3   OH276080   3.777   4.989  14.485 -0.3500  1.1007 -0.4318
18222TIP3    H176081   3.774   5.007  14.391  0.5538  0.1723 -0.6586
18222TIP3    H276082   3.687   4.998  14.514 -1.3413 -1.9210 -2.0727
18223TIP3   OH276083   1.279   6.552   3.649 -0.2345 -0.5369 -0.0247
18223TIP3    H176084   1.257   6.594   3.566  1.4515 -0.1718 -0.3260
18223TIP3    H276085   1.340   6.482   3.625 -0.5797 -1.1354  0.8011
18224TIP3   OH276086   6.105   5.769  17.271 -0.3824  0.1645 -0.1855
18224TIP3    H176087   6.135   5.853  17.236 -0.5834  0.6263  0.7259
18224TIP3    H276088   6.084   5.717  17.194 -1.5121  1.4059 -0.7428
18225TIP3   OH276089   2.846   0.127  12.752 -0.0103 -0.3734  0.0769
18225TIP3    H176090   2.928   0.104  12.795 -0.4493 -1.4358  0.3924
18225TIP3    H276091   2.857   0.097  12.662  0.4391  0.7075 -0.2374
18226TIP3   OH276092   6.001   4.834   3.389 -0.6199 -0.2484  0.6601
18226TIP3    H176093   5.993   4.918   3.344 -2.5439 -0.6077  0.2585
18226TIP3    H276094   5.966   4.850   3.477 -0.5600 -0.5191  0.7347
18227TIP3   OH276095   6.026   2.462  13.419 -0.1366  0.3712  0.3889
18227TIP3    H176096   6.083   2.389  13.397 -0.4917 -0.4892  2.1571
18227TIP3    H276097   5.980   2.482  13.337  0.5084 -0.8791 -0.3096
18228TIP3   OH276098   5.442   1.674   4.927  0.3329  0.4543  0.1214
18228TIP3    H176099   5.513   1.739   4.924  0.7895 -0.0517 -0.2497
18228TIP3    H276100   5.462   1.619   5.002  0.8878 -0.2932 -0.5530
18229TIP3   OH276101   1.349   5.209   4.265 -0.6212 -0.4471 -0.3844
18229TIP3    H176102   1.301   5.171   4.192 -0.5282 -3.4474  0.9588
18229TIP3    H276103   1.287   5.269   4.306 -2.2739 -2.0544 -0.3905
18230TIP3   OH276104   2.923   1.512  13.680  1.3148  0.1411 -0.1841
18230TIP3    H176105   2.857   1.512  13.610  0.0820 -0.3383  0.9267
18230TIP3    H276106   2.914   1.598  13.722 -0.0751 -0.6514  1.2468
18231TIP3   OH276107   3.916   0.566  14.003 -0.1588  0.3095 -0.1089
18231TIP3    H176108   3.872   0.636  14.050 -0.3577  1.6391 -2.1785
18231TIP3    H276109   3.948   0.606  13.922  1.3534 -1.5538 -0.5309
18232TIP3   OH276110   2.732   2.259   2.703  0.4874 -0.3925 -0.0648
18232TIP3    H176111   2.684   2.191   2.656  0.5219  0.6695 -1.6803
18232TIP3    H276112   2.673   2.284   2.774 -1.3251  0.7254 -1.8752
18233TIP3   OH276113   2.149   6.747  16.092 -0.2268  0.0008 -0.0811
18233TIP3    H176114   2.162   6.771  16.184 -1.3002  0.1727  0.0310
18233TIP3    H276115   2.081   6.806  16.061 -0.0478 -0.2262 -0.9227
18234TIP3   OH276116   0.266   5.253  17.243 -0.0958  0.1031  0.3002
18234TIP3    H176117   0.259   5.160  17.219 -0.8474  0.0036  0.8630
18234TIP3    H276118   0.359   5.265  17.262  0.1918 -0.2699 -0.7960
18235TIP3   OH276119   1.804   6.614   1.395  0.1112  0.3132  0.1021
18235TIP3    H176120   1.781   6.547   1.331 -1.2251 -1.8576  2.6709
18235TIP3    H276121   1.721   6.636   1.438  0.7715  2.5632  0.3510
18236TIP3   OH276122   2.934   3.658  15.509 -0.1331 -0.5628  0.7621
18236TIP3    H176123   2.848   3.626  15.535 -0.9290  0.2240 -0.7716
18236TIP3    H276124   2.996   3.609  15.564 -1.3353 -3.5662 -0.3721
18237TIP3   OH276125   4.012   5.320  11.842 -0.0618 -0.3279  0.4816
18237TIP3    H176126   3.977   5.401  11.805  1.4721  0.0718 -0.1534
18237TIP3    H276127   4.055   5.347  11.923  1.1934 -0.3479 -0.1584
18238TIP3   OH276128   0.566   0.388  16.691  0.0978 -0.6945 -0.0041
18238TIP3    H176129   0.472   0.373  16.677 -0.3910  0.6534  1.4284
18238TIP3    H276130   0.602   0.399  16.603 -1.4023  0.2915 -0.5536
18239TIP3   OH276131   2.274   4.983  15.826  0.2435  0.0806 -0.4008
18239TIP3    H176132   2.276   4.887  15.826 -2.1444 -0.0304 -0.5706
18239TIP3    H276133   2.194   5.005  15.778  0.8520  2.1877 -0.5509
18240TIP3   OH276134   2.624   1.085  14.366  0.2709 -0.8394 -0.5194
18240TIP3    H176135   2.695   1.056  14.309  1.4823 -1.0277  1.0239
18240TIP3    H276136   2.639   1.179  14.377  0.8260 -1.0361  0.5105
18241TIP3   OH276137   0.634   3.784  14.607 -0.2015 -1.3491  0.4027
18241TIP3    H176138   0.611   3.773  14.699 -0.6072 -0.9981  0.3446
18241TIP3    H276139   0.675   3.871  14.602 -1.1569 -0.9018  0.0742
18242TIP3   OH276140   5.702   4.115   2.278 -0.1145  0.1471 -0.5121
18242TIP3    H176141   5.658   4.198   2.295 -0.0727 -0.2462  1.9367
18242TIP3    H276142   5.795   4.136   2.284 -0.0911  0.0366 -0.4783
18243TIP3   OH276143   1.525   4.711   2.232  0.2731 -0.0170  0.2865
18243TIP3    H176144   1.528   4.615   2.226  1.5034  0.0004  0.3042
18243TIP3    H276145   1.568   4.742   2.152 -0.3496  0.5279  0.1575
18244TIP3   OH276146   1.956   3.006   3.473 -0.2423 -0.0648  0.2585
18244TIP3    H176147   2.009   3.061   3.530  1.8159 -2.3742  0.7851
18244TIP3    H276148   1.960   3.050   3.388  1.0559  0.7762  0.7114
18245TIP3   OH276149   5.737   1.481   4.098  0.4470 -0.0293  0.7343
18245TIP3    H176150   5.685   1.553   4.135  1.0346  0.9169 -0.2281
18245TIP3    H276151   5.820   1.486   4.145  0.2063 -0.6061  1.2335
18246TIP3   OH276152   4.158   3.675   3.336 -0.0422  0.6150  0.1636
18246TIP3    H176153   4.069   3.698   3.363  0.1372 -0.5203  1.9136
18246TIP3    H276154   4.150   3.585   3.303  0.1259  1.2407 -1.6504
18247TIP3   OH276155   3.732   0.943  15.236  0.5731 -0.3638  0.3113
18247TIP3    H176156   3.719   0.853  15.206 -2.6596  0.4291 -1.0954
18247TIP3    H276157   3.779   0.985  15.164 -0.1452 -0.3652 -0.1724
18248TIP3   OH276158   3.171   2.363   5.031  0.4127  0.3684  0.3444
18248TIP3    H176159   3.253   2.322   5.057 -0.3033 -1.0624  0.4503
18248TIP3    H276160   3.108   2.290   5.026 -0.1701  0.9290 -2.6377
18249TIP3   OH276161   2.534   2.488   2.495  0.0466 -0.1187 -0.1284
18249TIP3    H176162   2.582   2.508   2.576  0.8232  1.4558 -0.9403
18249TIP3    H276163   2.583   2.533   2.426 -1.5445 -0.0105 -1.2469
18250TIP3   OH276164   1.522   5.710  11.359 -0.0723 -0.3931  0.6354
18250TIP3    H176165   1.538   5.623  11.397 -1.1291 -0.2827  1.3558
18250TIP3    H276166   1.600   5.727  11.306 -0.5432 -2.5044 -0.8762
18251TIP3   OH276167   1.388   0.184   0.055  0.4864  0.2012  0.4526
18251TIP3    H176168   1.374   0.134  -0.026 -0.3984  2.3229 -0.8037
18251TIP3    H276169   1.448   0.131   0.106  0.6684 -1.4811 -1.3844
18252TIP3   OH276170   6.024   0.822  10.939 -0.2563  0.7245  0.0030
18252TIP3    H176171   5.940   0.856  10.971 -1.2428 -1.1295 -0.4573
18252TIP3    H276172   6.009   0.809  10.845 -0.9041 -3.2788  0.4772
18253TIP3   OH276173   2.610   2.843  11.201  0.1035  0.6824  0.0923
18253TIP3    H176174   2.595   2.837  11.107 -0.6194 -1.1612  0.2762
18253TIP3    H276175   2.544   2.906  11.232  0.8630  1.9024 -0.7077
18254TIP3   OH276176   2.020   6.091  15.639  0.2814  0.3886 -0.5716
18254TIP3    H176177   2.098   6.126  15.596  1.2276 -0.1592  0.6208
18254TIP3    H276178   1.994   6.160  15.700  1.8416 -0.6722  1.4082
18255TIP3   OH276179   2.733   0.163  15.537 -0.2558 -0.4012  0.4811
18255TIP3    H176180   2.732   0.202  15.625  0.2528  0.2907  0.1898
18255TIP3    H276181   2.816   0.192  15.499 -0.2659 -1.0641 -0.0692
18256TIP3   OH276182   2.484   5.107  13.176 -0.2479 -0.1074 -0.2495
18256TIP3    H176183   2.432   5.026  13.174  0.9730 -1.0488  2.1777
18256TIP3    H276184   2.570   5.080  13.143  0.1208  0.2282  0.4268
18257TIP3   OH276185   6.631   2.945  17.084  0.0833  0.1708 -0.0204
18257TIP3    H176186   6.622   3.020  17.026 -2.0058  0.4335  0.5411
18257TIP3    H276187   6.592   2.974  17.166  0.5113 -1.0847  0.6482
18258TIP3   OH276188   2.555   1.221   3.788 -0.1491  0.1352 -0.5323
18258TIP3    H176189   2.487   1.166   3.750 -1.2402 -0.1286  1.6052
18258TIP3    H276190   2.629   1.214   3.728 -1.0179 -1.8871 -1.4596
18259TIP3   OH276191   5.051   2.609   1.786  0.7009 -0.3103 -0.0539
18259TIP3    H176192   5.058   2.513   1.792  1.9499 -0.1452  1.9431
18259TIP3    H276193   5.051   2.627   1.692 -2.3060 -2.4091 -0.6000
18260TIP3   OH276194   5.980   2.526  14.979 -0.4390  0.2673  0.3029
18260TIP3    H176195   6.014   2.455  14.924  1.4311 -0.4905  2.3082
18260TIP3    H276196   5.894   2.545  14.942  1.1826  0.7764 -3.7257
18261TIP3   OH276197   5.743   5.756  13.517 -0.3104 -0.2011 -0.0560
18261TIP3    H176198   5.788   5.687  13.469 -0.6357  0.2237 -0.9951
18261TIP3    H276199   5.812   5.817  13.542 -0.3884  0.9362 -2.3006
18262TIP3   OH276200   6.732   3.632  13.208 -0.3245  0.3828 -0.4564
18262TIP3    H176201   6.654   3.630  13.153 -0.7560 -0.9690  0.1588
18262TIP3    H276202   6.700   3.608  13.295  0.9052 -1.1006 -0.3770
18263TIP3   OH276203   4.357   6.358   5.949  0.0056 -0.2220  0.3874
18263TIP3    H176204   4.271   6.394   5.928 -0.0587 -1.2909 -1.3858
18263TIP3    H276205   4.368   6.376   6.042 -1.1025  2.0270  0.1495
18264TIP3   OH276206   1.625   0.488   2.605  0.4912 -0.0218  0.0310
18264TIP3    H176207   1.699   0.452   2.653  0.9255 -0.2685 -0.8049
18264TIP3    H276208   1.618   0.434   2.526  0.7601  1.2974 -0.9410
18265TIP3   OH276209   2.963   5.379  15.356 -0.3534 -0.0361  0.0081
18265TIP3    H176210   3.045   5.371  15.405  0.3896 -2.2705 -1.4427
18265TIP3    H276211   2.944   5.290  15.327 -4.1048  0.0927  1.4642
18266TIP3   OH276212   3.435   6.192   0.680 -0.4589  0.8086  0.1756
18266TIP3    H176213   3.346   6.222   0.704 -0.6554 -0.1067  0.6230
18266TIP3    H276214   3.480   6.185   0.764  0.1954  1.7119 -0.0868
18267TIP3   OH276215   1.966   1.821   5.921  0.0954  0.5312 -0.1096
18267TIP3    H176216   1.983   1.760   5.992  1.3121 -0.0348 -0.8515
18267TIP3    H276217   1.872   1.814   5.905  0.1766 -0.9864 -0.0232
18268TIP3   OH276218   0.027   3.971  11.664 -0.0373 -0.6673  0.1054
18268TIP3    H176219  -0.016   3.889  11.640 -0.3205 -0.5247  0.1292
18268TIP3    H276220  -0.036   4.039  11.642  0.7819 -0.3378 -1.3176
18269TIP3   OH276221   0.330   0.077   4.000  0.1560  0.7013  0.4987
18269TIP3    H176222   0.403   0.137   4.010  2.5267 -1.6126 -1.2947
18269TIP3    H276223   0.262   0.128   3.955  1.3439  2.4542  0.6111
18270TIP3   OH276224   4.965   0.879  16.413  0.2178 -0.9223 -0.2825
18270TIP3    H176225   5.045   0.864  16.462 -0.6531  2.0452  2.3440
18270TIP3    H276226   4.959   0.974  16.404 -2.4479 -1.1001 -1.3980
18271TIP3   OH276227   2.049   0.215  13.433  0.1692  0.0044  0.2101
18271TIP3    H176228   2.011   0.140  13.479 -2.5946  0.7064 -0.7371
18271TIP3    H276229   2.136   0.225  13.472  0.0047 -2.6330  1.5129
18272TIP3   OH276230   3.350   3.896   1.439 -0.2617  0.1398  0.3433
18272TIP3    H176231   3.398   3.936   1.367 -0.8570 -1.4676 -1.0264
18272TIP3    H276232   3.415   3.839   1.481 -0.2165  0.1705  0.3159
18273TIP3   OH276233   3.679   0.001   1.156 -0.3501  0.2271 -0.7081
18273TIP3    H176234   3.663  -0.023   1.248 -2.0713  0.0417 -1.0120
18273TIP3    H276235   3.696   0.096   1.160  2.4459 -0.2315  0.0601
18274TIP3   OH276236   4.870   2.231  14.763 -0.4913 -1.3277  0.2880
18274TIP3    H176237   4.783   2.239  14.802 -0.0731 -0.0735  1.0099
18274TIP3    H276238   4.910   2.158  14.809 -0.1828 -0.1795  1.9424
18275TIP3   OH276239   2.070   3.712  16.917  0.3033 -0.3473  0.2287
18275TIP3    H176240   2.103   3.721  17.007  1.9492  1.7340 -0.5259
18275TIP3    H276241   2.142   3.672  16.869  0.1126  0.1953 -0.5258
18276TIP3   OH276242   4.482   5.644  17.110  0.2788  0.1904  0.5380
18276TIP3    H176243   4.409   5.613  17.056  0.5398  1.4991 -0.6270
18276TIP3    H276244   4.518   5.718  17.061  2.8617 -0.8635  0.6816
18277TIP3   OH276245   5.621   0.943   5.915 -0.6608 -0.2010  0.2473
18277TIP3    H176246   5.636   0.992   5.834  0.7073  0.3351  0.7935
18277TIP3    H276247   5.529   0.958   5.936 -1.2517 -0.9795 -1.5966
18278TIP3   OH276248   6.422   3.489  15.881  0.2593 -0.0793  0.3339
18278TIP3    H176249   6.384   3.403  15.868  0.3854 -0.2490  1.0527
18278TIP3    H276250   6.362   3.534  15.940  0.2145  0.3156 -0.0011
18279TIP3   OH276251   3.543   3.570   0.472 -0.4883 -0.9454  0.1339
18279TIP3    H176252   3.490   3.610   0.540 -1.2971  0.1114 -1.0810
18279TIP3    H276253   3.498   3.488   0.451  0.7134 -2.1713  2.0303
18280TIP3   OH276254   2.115   1.458   6.966 -0.5397 -0.5472  0.5552
18280TIP3    H176255   2.124   1.383   7.025 -1.5116 -0.2974  1.0233
18280TIP3    H276256   2.156   1.428   6.884 -0.1979 -1.2926  0.9860
18281TIP3   OH276257   0.613   2.593  13.247  0.3062 -0.4224  0.1702
18281TIP3    H176258   0.686   2.604  13.187 -1.3416  1.5882 -1.6262
18281TIP3    H276259   0.566   2.516  13.215  1.2892 -1.4129  1.0261
18282TIP3   OH276260   5.083   6.256  16.256  0.6603  0.6375 -0.3409
18282TIP3    H176261   5.085   6.169  16.298  1.8440 -0.2165 -2.0596
18282TIP3    H276262   5.030   6.244  16.178  0.2438  1.6730 -0.2331
18283TIP3   OH276263   3.758   1.250  14.358  0.0945  0.4515  0.0742
18283TIP3    H176264   3.681   1.306  14.369 -0.2902  0.8667 -3.5163
18283TIP3    H276265   3.809   1.292  14.288  0.2873 -3.0359 -2.1302
18284TIP3   OH276266   0.429   4.987  14.430  0.3486  0.5561 -0.2779
18284TIP3    H176267   0.505   5.016  14.480  0.2919  0.4132 -0.1115
18284TIP3    H276268   0.412   4.898  14.460 -0.6321  1.0080  0.5785
18285TIP3   OH276269   3.416   5.984   3.893 -0.0256  0.4413  0.4730
18285TIP3    H176270   3.336   6.032   3.916  1.2151  2.6710  0.4044
18285TIP3    H276271   3.388   5.920   3.828 -1.7752  1.0662  0.5588
18286TIP3   OH276272   4.215   4.828  13.354 -0.5974 -0.3143 -0.0512
18286TIP3    H176273   4.191   4.894  13.288 -0.4488  1.2507  1.3997
18286TIP3    H276274   4.229   4.878  13.434  1.9272 -1.8233  0.5592
18287TIP3   OH276275   5.985   0.918   2.011 -0.0753  0.7096  0.1811
18287TIP3    H176276   6.031   0.997   2.038 -0.8733  0.7825  1.3979
18287TIP3    H276277   5.968   0.931   1.917 -0.2617  2.0194  0.3838
18288TIP3   OH276278   6.364   0.520  17.277  1.0794 -0.1425  0.0639
18288TIP3    H176279   6.342   0.427  17.290  0.8716 -0.7404 -3.4859
18288TIP3    H276280   6.296   0.552  17.217  1.8173  1.9911  0.3072
18289TIP3   OH276281   3.950   3.310  11.972  0.2559  0.2859  0.0405
18289TIP3    H176282   3.958   3.293  12.066 -1.1352  2.9874  0.7314
18289TIP3    H276283   3.859   3.336  11.959  0.5407  0.4430 -1.9860
18290TIP3   OH276284   1.055   1.801   2.163 -0.1427  0.8391  0.3966
18290TIP3    H176285   0.998   1.770   2.234  0.2137 -2.2607 -0.5266
18290TIP3    H276286   1.115   1.861   2.206 -2.6532  2.5115  1.8285
18291TIP3   OH276287   0.780   2.197   1.242 -0.4625 -0.5727  0.6560
18291TIP3    H176288   0.853   2.216   1.184 -0.6508 -1.4303  0.1302
18291TIP3    H276289   0.729   2.130   1.196 -2.5366  1.1955  0.1844
18292TIP3   OH276290   5.091   6.454  13.383  0.1398  1.0179 -0.4645
18292TIP3    H176291   5.077   6.435  13.476  1.5599  1.4434 -0.1364
18292TIP3    H276292   5.008   6.491  13.353  0.0347  1.9709  0.9393
18293TIP3   OH276293   6.752   6.078   5.424 -0.1680 -0.1468  0.4387
18293TIP3    H176294   6.735   6.007   5.363 -1.0253  0.7966 -0.4701
18293TIP3    H276295   6.760   6.036   5.509  4.0225 -1.8699 -0.5916
18294TIP3   OH276296   1.733   6.696  13.106 -0.1372 -0.8175 -0.1030
18294TIP3    H176297   1.708   6.771  13.052  0.8765 -1.2770 -1.2639
18294TIP3    H276298   1.770   6.633  13.044 -3.0524 -3.3138  0.4621
18295TIP3   OH276299   1.196   3.318  13.038 -0.2071  0.3752 -0.5804
18295TIP3    H176300   1.173   3.350  13.125  0.1921 -0.7991 -0.0197
18295TIP3    H276301   1.124   3.261  13.013 -0.8031  1.4888 -1.4698
18296TIP3   OH276302   5.711   4.602   0.198 -0.0350 -0.4332 -0.0190
18296TIP3    H176303   5.781   4.664   0.179  0.2327 -0.1542  1.7236
18296TIP3    H276304   5.633   4.657   0.213  0.0809 -0.5338  1.0016
18297TIP3   OH276305   4.016   4.205  13.425  0.0345 -0.0240  0.5004
18297TIP3    H176306   3.990   4.123  13.467  0.6225  0.5448  2.0651
18297TIP3    H276307   3.935   4.240  13.388 -0.3625 -0.9207  0.5072
18298TIP3   OH276308   5.115   5.817   0.306  0.3512  0.1274  0.3941
18298TIP3    H176309   5.188   5.828   0.244  1.1487 -0.8166  1.1291
18298TIP3    H276310   5.155   5.772   0.382 -1.1959 -1.3470  0.3943
18299TIP3   OH276311   3.909   3.213  14.175 -0.9314  0.2758  0.6253
18299TIP3    H176312   3.918   3.139  14.115  0.9463 -1.8043  3.2373
18299TIP3    H276313   3.901   3.289  14.118 -0.7837 -1.6904 -2.2207
18300TIP3   OH276314   2.582   2.593  10.982  0.6863  0.5689 -0.3646
18300TIP3    H176315   2.502   2.588  10.930  0.1881  1.1126  0.3282
18300TIP3    H276316   2.616   2.503  10.983 -0.5626  0.0850  0.3322
18301TIP3   OH276317   5.920   3.605  16.966 -0.2766  0.9629 -0.6400
18301TIP3    H176318   5.902   3.588  17.059 -0.3849 -1.0279 -0.9951
18301TIP3    H276319   5.939   3.699  16.963 -1.1466  1.2553  1.2501
18302TIP3   OH276320   5.643   4.476   4.349  0.4953 -0.1773 -0.1688
18302TIP3    H176321   5.694   4.547   4.388 -0.0713  0.5214 -0.6734
18302TIP3    H276322   5.553   4.495   4.374  0.2746 -0.4177 -0.7684
18303TIP3   OH276323   3.307   2.219  17.327  0.6984 -0.4955 -0.2043
18303TIP3    H176324   3.253   2.278  17.381 -2.5145 -3.1847 -0.1519
18303TIP3    H276325   3.299   2.134  17.370 -0.3914 -2.3431 -3.7233
18304TIP3   OH276326   4.558   4.828   2.229 -0.6486 -0.1626  0.3299
18304TIP3    H176327   4.506   4.898   2.190 -0.1057  0.3099  0.4557
18304TIP3    H276328   4.598   4.867   2.306  0.1367 -0.4432  0.0696
18305TIP3   OH276329   2.193   4.741   2.114 -0.0827 -0.0565  0.2404
18305TIP3    H176330   2.268   4.682   2.122 -0.6345 -0.6946  0.7367
18305TIP3    H276331   2.233   4.828   2.105  0.8133 -0.6247 -2.3652
18306TIP3   OH276332   2.167   0.530   6.028 -0.5990  0.6582  0.2348
18306TIP3    H176333   2.201   0.441   6.036  0.5543  1.0371 -0.2128
18306TIP3    H276334   2.155   0.542   5.934 -1.0926  0.8501  0.3225
18307TIP3   OH276335   6.346   0.636  11.762  0.0199 -0.4633  0.1317
18307TIP3    H176336   6.312   0.724  11.782 -0.3435 -0.7042  0.5824
18307TIP3    H276337   6.271   0.588  11.728  0.6317 -0.0652 -1.8716
18308TIP3   OH276338   1.229   1.957   4.511  0.3023 -0.3968 -0.2292
18308TIP3    H176339   1.322   1.949   4.488 -0.2221 -1.3172 -2.2474
18308TIP3    H276340   1.195   2.022   4.450 -0.3635  0.0792  0.6261
18309TIP3   OH276341   3.578   2.033  10.755 -0.4282  0.1411 -0.3975
18309TIP3    H176342   3.555   2.125  10.763 -0.7443  0.0052  0.2232
18309TIP3    H276343   3.505   1.986  10.794 -1.8937 -0.5476 -3.5910
18310TIP3   OH276344   3.020   3.305  16.204 -0.1896 -0.3139 -0.0102
18310TIP3    H176345   3.053   3.374  16.147 -1.1144  1.5441  1.6028
18310TIP3    H276346   3.094   3.285  16.262 -0.2612  0.1069  0.2266
18311TIP3   OH276347   5.532   4.686   3.867  0.4694  0.0087 -0.3081
18311TIP3    H176348   5.542   4.598   3.904  0.8954  0.7370  1.4077
18311TIP3    H276349   5.491   4.737   3.937 -1.6019  0.7516 -1.9477
18312TIP3   OH276350   0.711   0.591  17.114  0.3881 -0.5244 -0.1312
18312TIP3    H176351   0.710   0.543  17.031  1.0059  1.2431 -1.2213
18312TIP3    H276352   0.799   0.578  17.148  0.9628  0.7761 -1.0458
18313TIP3   OH276353   1.185   2.561   1.999 -0.0912 -0.2867 -0.3727
18313TIP3    H176354   1.217   2.502   1.931  1.3473  0.7437 -0.6377
18313TIP3    H276355   1.169   2.644   1.954  1.0784  0.4656  0.5347
18314TIP3   OH276356   4.568   0.197  13.969  0.1708  0.0895  0.3201
18314TIP3    H176357   4.606   0.164  14.050  1.1802 -1.8892 -0.8852
18314TIP3    H276358   4.639   0.243  13.925  0.4267 -1.1384 -0.6165
18315TIP3   OH276359   1.995   6.426  17.314 -0.2030  0.1286 -0.1000
18315TIP3    H176360   2.082   6.402  17.281  0.4083  2.6551 -0.5775
18315TIP3    H276361   2.008   6.440  17.408  0.1259  1.1616 -0.2804
18316TIP3   OH276362   1.554   5.032  15.339 -0.5467 -0.2581  0.2658
18316TIP3    H176363   1.608   4.953  15.349  0.3209  0.1929 -0.6630
18316TIP3    H276364   1.498   5.032  15.417 -0.0978 -1.4231  0.6237
18317TIP3   OH276365   4.862   2.779   3.242  0.2782 -0.2977 -0.3157
18317TIP3    H176366   4.935   2.721   3.265 -0.3031 -0.8548  0.1874
18317TIP3    H276367   4.858   2.842   3.314  0.7304  0.1973 -0.7196
18318TIP3   OH276368   2.347   4.030  16.242 -0.3934  0.2153  0.3671
18318TIP3    H176369   2.256   4.062  16.237 -0.7936 -0.9051  0.2817
18318TIP3    H276370   2.356   3.974  16.165  0.3171  0.1445  0.5005
18319TIP3   OH276371   2.777   2.234   6.631  0.0466  0.1271 -0.2229
18319TIP3    H176372   2.790   2.295   6.559 -1.9355  1.4644  0.4713
18319TIP3    H276373   2.784   2.287   6.710  0.5982 -1.0059  0.5105
18320TIP3   OH276374   3.659   3.695   2.688 -0.3690 -0.0839 -0.2321
18320TIP3    H176375   3.631   3.739   2.768  0.2119 -0.8866  0.4229
18320TIP3    H276376   3.729   3.635   2.715 -1.6623 -2.0197 -0.9369
18321TIP3   OH276377   2.995   2.626   4.914 -0.2392  0.5912 -0.5767
18321TIP3    H176378   2.950   2.583   4.987  0.1106 -1.4737 -1.5350
18321TIP3    H276379   3.086   2.599   4.923  0.1585  1.7703 -0.7991
18322TIP3   OH276380   3.009   1.224  12.318 -0.0585  0.0720 -0.2459
18322TIP3    H176381   2.938   1.268  12.270 -0.4693  1.4174  1.5312
18322TIP3    H276382   3.083   1.227  12.258 -0.5867  1.6085 -0.8747
18323TIP3   OH276383   3.494   0.916  11.807  0.4612 -0.0946  0.0060
18323TIP3    H176384   3.493   0.972  11.885  0.3926  0.3919 -0.3415
18323TIP3    H276385   3.513   0.976  11.734 -1.7820 -0.1405 -0.6775
18324TIP3   OH276386   6.432   6.282  15.645 -0.4806  0.0894  0.4561
18324TIP3    H176387   6.467   6.366  15.614 -0.5800  0.3360  1.0024
18324TIP3    H276388   6.406   6.236  15.565 -1.1154  0.8890  0.1884
18325TIP3   OH276389   6.009   5.538   3.488  0.1693  0.1113  0.3644
18325TIP3    H176390   6.088   5.511   3.536  0.9679  0.4702 -0.7046
18325TIP3    H276391   6.041   5.597   3.420 -0.1955 -3.6878 -3.5737
18326TIP3   OH276392   1.956   3.137   3.219  0.1384  0.3285  0.3635
18326TIP3    H176393   1.904   3.103   3.146 -0.0645 -2.5113  1.6768
18326TIP3    H276394   2.043   3.150   3.183 -0.6587  2.0332 -1.0807
18327TIP3   OH276395   5.350   6.675  12.690 -0.0663 -0.0424  0.1585
18327TIP3    H176396   5.374   6.767  12.676 -0.0425 -0.0294  0.2867
18327TIP3    H276397   5.329   6.669  12.783 -0.5168 -0.0644  0.0617
18328TIP3   OH276398   1.243   4.898   1.232 -0.2437  0.4797 -0.8517
18328TIP3    H176399   1.172   4.951   1.268 -0.3320  1.7342 -2.7557
18328TIP3    H276400   1.318   4.958   1.227  1.0847 -0.8586  1.2633
18329TIP3   OH276401   3.660   2.122  13.974  0.1304  0.6030  0.4674
18329TIP3    H176402   3.744   2.076  13.974 -0.0267  0.2172 -1.5590
18329TIP3    H276403   3.676   2.201  13.923 -0.8804  0.1351 -0.6379
18330TIP3   OH276404   5.486   3.878   4.911 -0.0208  0.2734 -0.1372
18330TIP3    H176405   5.551   3.921   4.965  2.1777  0.7245 -2.9083
18330TIP3    H276406   5.536   3.837   4.840 -2.7189  1.3039 -2.9029
18331TIP3   OH276407   5.078   1.271  13.200 -0.7977 -0.4692 -0.3643
18331TIP3    H176408   5.146   1.211  13.229 -1.5733 -0.5744  1.3174
18331TIP3    H276409   5.102   1.355  13.238 -0.7469 -0.1330 -1.1232
18332TIP3   OH276410   6.737   6.637  12.503  0.1028 -0.2793  0.1436
18332TIP3    H176411   6.727   6.696  12.429  0.7718  0.0455  0.3122
18332TIP3    H276412   6.698   6.554  12.473  0.1698 -0.0862 -0.4839
18333TIP3   OH276413   3.053   5.822   0.073  0.2758 -0.4263  0.8960
18333TIP3    H176414   3.040   5.780   0.158  4.0035 -0.0607  1.8075
18333TIP3    H276415   3.085   5.752   0.017 -0.6983 -0.3251  0.1859
18334TIP3   OH276416   2.109   4.120   0.686  0.3052 -0.6160 -0.5363
18334TIP3    H176417   2.091   4.169   0.606  0.9804  0.9864  0.2381
18334TIP3    H276418   2.202   4.097   0.680  0.3313 -0.5869 -0.2660
18335TIP3   OH276419   1.785   4.624  11.722 -0.4967 -0.4243 -0.4186
18335TIP3    H176420   1.855   4.613  11.786  0.3705 -1.3130 -1.4635
18335TIP3    H276421   1.809   4.704  11.675 -0.9723  0.0632  0.1544
18336TIP3   OH276422   1.304   1.613   2.954 -0.2771 -0.0232 -0.8496
18336TIP3    H176423   1.233   1.672   2.929  0.7960  0.7489 -2.1970
18336TIP3    H276424   1.304   1.615   3.050 -0.7457  1.5907 -0.8485
18337TIP3   OH276425   3.497   3.672   0.870 -0.0085  0.5617 -0.1446
18337TIP3    H176426   3.561   3.734   0.834  1.2745  0.1346  1.2710
18337TIP3    H276427   3.421   3.725   0.893  1.0023  1.6120  0.8828
18338TIP3   OH276428   1.919   5.545  10.959  0.7091  0.0589 -0.0420
18338TIP3    H176429   1.901   5.637  10.940 -3.1306  0.0093  2.3426
18338TIP3    H276430   1.885   5.499  10.882  1.0260  0.5211 -0.4715
18339TIP3   OH276431   1.365   0.402   4.092  0.0365  0.5202  0.2294
18339TIP3    H176432   1.442   0.447   4.058 -0.3372 -0.0701 -1.4853
18339TIP3    H276433   1.334   0.349   4.019 -0.6833 -1.0058  1.5853
18340TIP3   OH276434   5.767   5.033   1.091  0.3857 -0.3135  0.2403
18340TIP3    H176435   5.728   5.001   1.172  0.1503 -2.3284 -0.6076
18340TIP3    H276436   5.716   4.990   1.022  2.0504 -0.4693 -0.9430
18341TIP3   OH276437   3.959   4.210   3.884  0.5771  0.2741 -0.1513
18341TIP3    H176438   3.894   4.253   3.829  2.0107  2.0185 -0.6028
18341TIP3    H276439   3.915   4.196   3.968 -0.6572  0.4992 -0.7411
18342TIP3   OH276440   5.752   4.090   4.041 -0.6988 -0.8019  0.1758
18342TIP3    H176441   5.769   4.044   4.123 -0.3952  0.2308  0.6992
18342TIP3    H276442   5.773   4.025   3.973  0.9044 -1.0691  0.8774
18343TIP3   OH276443   0.093   5.117  13.067 -0.8212  0.1719  0.3233
18343TIP3    H176444   0.145   5.191  13.035 -0.3278 -0.4268 -0.2867
18343TIP3    H276445   0.045   5.152  13.142  0.0596  0.8832  0.5733
18344TIP3   OH276446   4.514   0.775   2.568  0.0607  0.1097  0.0658
18344TIP3    H176447   4.458   0.720   2.623 -1.1130  2.1071  0.9663
18344TIP3    H276448   4.509   0.862   2.608  4.5075  0.3173  0.7505
18345TIP3   OH276449   4.230   3.693  14.720 -0.1494 -0.9628 -0.1260
18345TIP3    H176450   4.206   3.617  14.667 -0.5116 -2.0504  1.5410
18345TIP3    H276451   4.164   3.697  14.788 -0.5794  1.3489 -0.6058
18346TIP3   OH276452   3.787   1.143  14.621  0.2769 -0.0799 -0.0679
18346TIP3    H176453   3.834   1.183  14.548  0.2673 -1.2335 -0.7263
18346TIP3    H276454   3.722   1.086  14.580 -0.1003 -0.3346  0.8445
18347TIP3   OH276455   3.511   1.314   3.823 -0.2989  0.2373 -0.2699
18347TIP3    H176456   3.550   1.383   3.769  0.5816  1.4349  1.8146
18347TIP3    H276457   3.573   1.299   3.894 -1.7885 -0.6774  0.9167
18348TIP3   OH276458   1.596   0.924  16.543 -0.1937  0.0737 -0.1751
18348TIP3    H176459   1.561   0.844  16.580  1.3237 -0.3139  0.5179
18348TIP3    H276460   1.687   0.927  16.574  0.4161  0.9721 -1.9252
18349TIP3   OH276461   4.083   2.011   2.892 -0.1020 -0.4441  0.6295
18349TIP3    H176462   4.072   2.045   2.981 -1.2971  0.0473  0.3159
18349TIP3    H276463   4.044   1.924   2.894 -1.0570 -0.0374  0.3558
18350TIP3   OH276464   2.695   2.638  11.903 -0.2631 -0.5183 -0.1061
18350TIP3    H176465   2.715   2.574  11.834  0.9969 -2.1223  1.6244
18350TIP3    H276466   2.781   2.664  11.937 -0.7946  1.4443 -0.1415
18351TIP3   OH276467   6.372   6.319   1.287 -0.2778  0.0965  0.6921
18351TIP3    H176468   6.424   6.268   1.349 -0.8671  0.3045  1.3722
18351TIP3    H276469   6.382   6.272   1.203  1.2724  0.3300  0.7127
18352TIP3   OH276470   1.135   5.273  16.294  0.2164 -0.0557 -0.3358
18352TIP3    H176471   1.097   5.192  16.261 -0.5756  0.2060 -0.0907
18352TIP3    H276472   1.110   5.339  16.229  0.0443  0.1596 -0.0533
18353TIP3   OH276473   5.300   1.173   2.799  0.3840  0.0406  0.0719
18353TIP3    H176474   5.309   1.222   2.880 -0.6000  0.2601  0.0599
18353TIP3    H276475   5.206   1.168   2.784  0.5212 -0.7331 -0.6102
18354TIP3   OH276476   3.363   1.406   4.786 -0.4489  0.1783 -0.3691
18354TIP3    H176477   3.329   1.397   4.697 -0.6806  0.6535 -0.3296
18354TIP3    H276478   3.287   1.394   4.842 -0.4543  0.7233 -0.2631
18355TIP3   OH276479   5.610   6.130   4.756  0.7729 -0.2942 -0.2055
18355TIP3    H176480   5.570   6.114   4.842 -1.4275 -0.5216 -1.2228
18355TIP3    H276481   5.639   6.221   4.760 -3.4642  1.2836 -0.6669
18356TIP3   OH276482   4.698   2.097   2.548 -0.2890 -0.1019 -0.0825
18356TIP3    H176483   4.629   2.116   2.485 -0.9008  1.9607  1.1098
18356TIP3    H276484   4.665   2.022   2.598 -0.6396 -0.5520 -0.9808
18357TIP3   OH276485   2.653   4.044  16.087 -0.0736  0.0068  0.2488
18357TIP3    H176486   2.679   4.090  16.007 -1.2493 -3.5018 -2.3883
18357TIP3    H276487   2.581   4.096  16.122 -0.9351  0.5773 -2.2104
18358TIP3   OH276488   1.418   2.484  16.661  0.0638  0.0008 -0.0312
18358TIP3    H176489   1.346   2.548  16.660  1.6612  1.9246 -1.8073
18358TIP3    H276490   1.492   2.531  16.622  1.9600 -2.2965  0.5726
18359TIP3   OH276491   4.324   6.595   3.426 -0.5908  0.0387  0.3253
18359TIP3    H176492   4.367   6.529   3.372  0.8448  0.5355  0.8298
18359TIP3    H276493   4.357   6.579   3.514 -1.5732  0.3424  0.7544
18360TIP3   OH276494   6.317   1.712   6.772  0.3354 -0.3327 -0.3636
18360TIP3    H176495   6.230   1.703   6.810 -0.4555  1.7443 -1.5161
18360TIP3    H276496   6.372   1.740   6.845  0.7110 -4.0034  0.9598
18361TIP3   OH276497   1.915   5.840  17.212  0.2555  0.2027 -0.1103
18361TIP3    H176498   2.005   5.870  17.222 -0.0292  0.9645  0.2880
18361TIP3    H276499   1.896   5.794  17.294  0.6821 -1.0946 -0.7109
18362TIP3   OH276500   2.038   1.852   0.576 -0.0882  1.0478  0.3353
18362TIP3    H176501   1.962   1.909   0.585 -1.6496 -0.9574  0.5404
18362TIP3    H276502   2.042   1.803   0.658  0.9287  0.5382  0.0038
18363TIP3   OH276503   3.761   6.134   1.924 -0.2529 -0.3609 -0.3978
18363TIP3    H176504   3.722   6.130   1.836  0.5223 -1.0796 -0.7226
18363TIP3    H276505   3.842   6.084   1.916  1.3557  1.9839 -0.0483
18364TIP3   OH276506   5.746   2.445   0.584  0.2983 -0.4076 -0.0056
18364TIP3    H176507   5.727   2.434   0.490 -1.8028  0.8419  0.2064
18364TIP3    H276508   5.688   2.516   0.612  0.6203 -0.9888  2.3352
18365TIP3   OH276509   0.457   5.477  11.938  0.0535 -0.1886 -0.3088
18365TIP3    H176510   0.498   5.498  12.022 -1.6771 -0.0192  0.5527
18365TIP3    H276511   0.523   5.497  11.872  0.9214  1.1457  0.9242
18366TIP3   OH276512   2.925   6.118   0.983 -0.0820  0.3540 -0.3491
18366TIP3    H176513   2.892   6.206   0.968 -0.0431  0.9412  2.5421
18366TIP3    H276514   3.019   6.124   0.966 -0.1653  0.7064 -0.6899
18367TIP3   OH276515   0.550   1.080   3.420 -0.2853 -0.0036 -0.6972
18367TIP3    H176516   0.583   1.067   3.331 -0.3912  0.2098 -0.7679
18367TIP3    H276517   0.627   1.072   3.476 -0.3636 -1.1166 -0.7189
18368TIP3   OH276518   4.547   3.372   5.742 -0.2593  0.3598  0.2989
18368TIP3    H176519   4.624   3.364   5.686  0.2038 -0.3537  0.9957
18368TIP3    H276520   4.473   3.371   5.682  0.1971 -0.8407 -0.2803
18369TIP3   OH276521   1.099   0.827   0.160 -0.0405 -0.3102  0.0518
18369TIP3    H176522   1.053   0.884   0.097 -0.5727 -0.7510  0.0382
18369TIP3    H276523   1.042   0.826   0.237  1.0798  1.0247  0.9461
18370TIP3   OH276524   5.927   2.139   1.303 -0.6932 -0.3238 -0.1851
18370TIP3    H176525   6.018   2.111   1.308 -1.0588 -1.4836  0.5589
18370TIP3    H276526   5.878   2.066   1.341 -1.9496  0.1923 -0.7533
18371TIP3   OH276527   3.687   2.481  16.921 -0.3694 -0.4764 -0.5222
18371TIP3    H176528   3.734   2.441  16.848 -2.0220 -0.8664 -1.4163
18371TIP3    H276529   3.639   2.554  16.881 -1.3425 -0.7319  0.1415
18372TIP3   OH276530   1.821   3.154  16.055  0.2287  0.7005  0.2181
18372TIP3    H176531   1.765   3.094  16.104 -1.7960  1.8678 -0.5661
18372TIP3    H276532   1.883   3.187  16.121 -0.2011 -0.3730  1.1948
18373TIP3   OH276533   5.190   3.094  15.170 -0.1213  0.0024 -0.4884
18373TIP3    H176534   5.285   3.105  15.171 -0.2850  2.3958 -2.2207
18373TIP3    H276535   5.176   3.003  15.145  1.7283 -0.2150 -0.8271
18374TIP3   OH276536   0.235   6.483  15.040 -0.0991 -0.3899 -0.6435
18374TIP3    H176537   0.213   6.466  15.131  1.5658 -1.4946 -0.3896
18374TIP3    H276538   0.235   6.579  15.032  2.0817 -0.1386  1.2129
18375TIP3   OH276539   1.009   4.325  14.644 -0.4776 -0.3033  0.1398
18375TIP3    H176540   1.021   4.393  14.710  2.7958 -0.6717  0.0630
18375TIP3    H276541   0.978   4.249  14.693  0.5804 -0.1676  1.0473
18376TIP3   OH276542   3.966   4.849  16.905 -0.2976  0.5816  0.1225
18376TIP3    H176543   3.941   4.917  16.843  0.0584 -0.8024 -1.6160
18376TIP3    H276544   4.057   4.869  16.928  0.2296  0.0503 -1.3653
18377TIP3   OH276545   1.704   3.543   2.089  0.5969 -0.3531 -0.2404
18377TIP3    H176546   1.689   3.492   2.169 -0.5214 -0.6376 -0.6285
18377TIP3    H276547   1.651   3.500   2.022  0.0121  1.0253 -0.6919
18378TIP3   OH276548   6.540   5.602   3.490  0.0163  0.6144 -0.1629
18378TIP3    H176549   6.481   5.678   3.491 -1.1243 -0.2402  1.2581
18378TIP3    H276550   6.567   5.591   3.581 -1.8721 -2.1722  0.1595
18379TIP3   OH276551   0.454   0.392   2.644 -0.1802 -0.1364  1.1615
18379TIP3    H176552   0.454   0.354   2.732 -1.1994 -2.3448  0.2849
18379TIP3    H276553   0.518   0.463   2.649 -1.1710  0.7121  4.0224
18380TIP3   OH276554   5.210   5.820  14.745 -0.3773 -0.2034  0.0672
18380TIP3    H176555   5.286   5.791  14.693  0.7689  1.8671  0.4711
18380TIP3    H276556   5.220   5.774  14.828  1.0677  0.7647  0.4841
18381TIP3   OH276557   0.165   0.986   0.755  0.1408  0.0095 -0.4645
18381TIP3    H176558   0.212   1.015   0.676 -1.4309  0.9130 -1.1126
18381TIP3    H276559   0.080   0.957   0.723  0.0050 -0.9965  0.7569
18382TIP3   OH276560   4.755   6.074   3.327 -0.0279  0.4550 -0.0024
18382TIP3    H176561   4.762   6.141   3.260  0.8355  1.0790  0.6768
18382TIP3    H276562   4.806   6.109   3.401  1.8490 -1.6178 -0.1971
18383TIP3   OH276563   5.373   4.499  11.630  0.5877 -0.0329  0.2621
18383TIP3    H176564   5.315   4.423  11.625  1.3607 -0.5719 -1.8263
18383TIP3    H276565   5.339   4.552  11.702 -1.0055 -1.5043  0.6458
18384TIP3   OH276566   3.307   4.614  11.107 -0.2754  0.5320 -0.3043
18384TIP3    H176567   3.286   4.667  11.030 -0.0664  0.3977 -0.4585
18384TIP3    H276568   3.373   4.552  11.075 -1.7194 -0.9345 -0.5757
18385TIP3   OH276569   0.486   0.226  14.692 -0.0388  0.4310  0.3563
18385TIP3    H176570   0.524   0.305  14.732 -0.1072 -0.0759  1.4720
18385TIP3    H276571   0.409   0.257  14.646  0.8510  1.2531 -0.6273
18386TIP3   OH276572   0.444   1.536   3.263  0.6333  0.1450  0.0418
18386TIP3    H176573   0.424   1.628   3.245 -1.8256  0.2699  2.8853
18386TIP3    H276574   0.536   1.527   3.237  0.0830  2.4464 -3.4540
18387TIP3   OH276575   3.616   2.245   4.762  0.5719  0.3087 -0.4865
18387TIP3    H176576   3.577   2.227   4.677  1.1759  2.1705 -1.2151
18387TIP3    H276577   3.686   2.181   4.772 -0.9649 -1.4068 -0.3156
18388TIP3   OH276578   5.821   2.982   4.196 -0.1810  0.1537  0.1055
18388TIP3    H176579   5.901   2.929   4.201 -0.8040 -0.7852  0.2758
18388TIP3    H276580   5.812   3.021   4.283 -0.6206 -0.8061  0.4985
18389TIP3   OH276581   0.817   6.286   0.928 -0.2378 -0.4774  0.5445
18389TIP3    H176582   0.885   6.290   0.860 -0.8202  0.3542  0.0067
18389TIP3    H276583   0.866   6.270   1.009  0.9567  2.8536  0.6444
18390TIP3   OH276584   0.499   0.310   3.997 -0.2175 -0.2111  0.0637
18390TIP3    H176585   0.502   0.291   3.904 -2.2104 -0.7802  0.0770
18390TIP3    H276586   0.562   0.381   4.009 -1.3220  1.2370 -2.0654
18391TIP3   OH276587   2.838   4.333  13.392 -0.2724  0.0281  0.0587
18391TIP3    H176588   2.803   4.367  13.474  1.3894 -0.7449  1.1500
18391TIP3    H276589   2.907   4.396  13.368  3.3206 -2.5639  2.4571
18392TIP3   OH276590   5.742   3.226  11.625  0.3683  0.2321 -0.1415
18392TIP3    H176591   5.811   3.180  11.674  0.3644 -0.0451 -0.3959
18392TIP3    H276592   5.743   3.315  11.660  0.8276  0.2156 -0.1120
18393TIP3   OH276593   3.757   6.244  12.229  0.4817  0.4813 -0.4080
18393TIP3    H176594   3.714   6.162  12.255 -0.2888 -0.1518 -3.3705
18393TIP3    H276595   3.686   6.307  12.221  1.0062  1.3464  1.2395
18394TIP3   OH276596   2.977   3.147  12.219  0.0457 -0.2560  0.0957
18394TIP3    H176597   3.020   3.070  12.256  0.2064 -0.1822  0.0624
18394TIP3    H276598   3.047   3.211  12.207 -0.1202 -0.0199  0.3382
18395TIP3   OH276599   1.710   6.696   5.133  0.1457  0.1566 -0.0463
18395TIP3    H176600   1.798   6.677   5.102  0.1875  0.6761 -0.2546
18395TIP3    H276601   1.652   6.664   5.064  0.1637 -0.3343  0.1657
18396TIP3   OH276602   6.697   4.883  11.947 -0.0465 -0.4363 -0.0032
18396TIP3    H176603   6.710   4.945  12.019 -1.1989 -1.3398  1.0214
18396TIP3    H276604   6.785   4.866  11.913  0.4000  0.8078  0.4982
18397TIP3   OH276605   6.478   4.072  14.959 -0.5160 -0.1157  0.1474
18397TIP3    H176606   6.475   4.040  15.048 -0.6690 -0.4581  0.0201
18397TIP3    H276607   6.528   4.007  14.910 -1.5655 -0.6285 -0.2878
18398TIP3   OH276608   4.177   0.136  15.082 -0.7209 -0.2808 -0.1054
18398TIP3    H176609   4.159   0.174  14.996  1.2936  1.3024  0.0996
18398TIP3    H276610   4.132   0.194  15.144  0.9158  0.8441  0.0937
18399TIP3   OH276611   1.930   0.032   0.469  1.0469  0.8817  0.6842
18399TIP3    H176612   1.937   0.104   0.532 -0.0546  1.8758 -0.3054
18399TIP3    H276613   1.994  -0.032   0.500  2.9127  2.7598  0.9385
18400TIP3   OH276614   4.709   6.745  14.470  0.1275 -0.3067  0.1894
18400TIP3    H176615   4.727   6.838  14.486  1.5112 -0.5874  0.3484
18400TIP3    H276616   4.747   6.727  14.385 -2.8195 -0.0441 -1.3194
18401TIP3   OH276617   1.335   3.779  16.635 -0.2206  0.3539  0.2868
18401TIP3    H176618   1.320   3.816  16.548 -0.4201 -2.8234 -1.1991
18401TIP3    H276619   1.426   3.801  16.655  0.3287 -0.1279 -1.4765
18402TIP3   OH276620   5.506   6.492   0.429  1.0708  0.2911  0.0854
18402TIP3    H176621   5.595   6.514   0.401  1.4411  0.6429  1.4653
18402TIP3    H276622   5.510   6.495   0.524  0.0063 -1.3849  0.2284
18403TIP3   OH276623   1.854   4.007   1.550  0.1995 -0.1464 -0.1944
18403TIP3    H176624   1.853   3.918   1.584  0.1853 -0.9483 -2.1582
18403TIP3    H276625   1.805   4.002   1.468 -2.5957  2.3705  1.1734
18404TIP3   OH276626   5.758   3.067   5.778 -0.2755  0.1349 -0.2416
18404TIP3    H176627   5.807   3.092   5.700  1.6743  1.5352  1.3363
18404TIP3    H276628   5.682   3.125   5.778  0.7061  1.4736 -0.1537
18405TIP3   OH276629   6.550   1.012  14.656 -0.2220 -0.4407 -0.2030
18405TIP3    H176630   6.520   0.921  14.647  1.0493 -1.3610  3.2428
18405TIP3    H276631   6.477   1.058  14.696 -0.4242 -0.2069 -0.8214
18406TIP3   OH276632   0.069   6.341   0.411  0.2198 -0.6344 -0.2813
18406TIP3    H176633  -0.016   6.358   0.369  0.3529  0.5893 -0.0867
18406TIP3    H276634   0.047   6.312   0.499 -0.0059  0.0791 -0.0940
18407TIP3   OH276635   2.415   0.077  11.221 -0.6919 -0.0693 -0.0959
18407TIP3    H176636   2.404   0.011  11.153 -0.6157  0.6410 -0.8082
18407TIP3    H276637   2.485   0.134  11.189 -0.1518 -0.1464  0.9133
18408TIP3   OH276638   2.848   4.060  12.640 -0.4679  0.0426  0.3519
18408TIP3    H176639   2.861   4.107  12.557 -0.5594  1.6172  1.1957
18408TIP3    H276640   2.784   4.113  12.688  0.6101 -0.0720  1.9993
18409TIP3   OH276641   2.423   5.501   1.399  0.0600  0.5939 -0.0814
18409TIP3    H176642   2.477   5.573   1.367  1.3273 -0.8190 -1.2687
18409TIP3    H276643   2.338   5.514   1.358  0.8272  0.4099 -1.7986
18410TIP3   OH276644   2.334   0.006   1.031  0.0824  0.1171 -0.2048
18410TIP3    H176645   2.285   0.088   1.034  0.5177  0.4064 -0.7762
18410TIP3    H276646   2.288  -0.047   0.966  0.9414  0.6744 -1.2913
18411TIP3   OH276647   3.414   6.630  15.359 -0.7180 -0.0409  0.0315
18411TIP3    H176648   3.413   6.620  15.264  0.4596  0.0049 -0.0072
18411TIP3    H276649   3.438   6.543  15.392  1.5609  0.5571  0.1158
18412TIP3   OH276650   2.854   5.706   6.744 -0.0558 -0.4888  0.7554
18412TIP3    H176651   2.859   5.614   6.720  0.3327 -0.5174  0.9358
18412TIP3    H276652   2.787   5.743   6.686 -0.2910 -0.9061  0.7582
18413TIP3   OH276653   4.353   2.911  15.152  0.6320  1.0850 -0.1940
18413TIP3    H176654   4.285   2.971  15.184 -1.4545 -1.0443 -0.3578
18413TIP3    H276655   4.430   2.967  15.139 -0.3267  3.1965  2.2981
18414TIP3   OH276656   1.230   5.483   4.543  0.0962 -0.0004 -0.3162
18414TIP3    H176657   1.324   5.481   4.558  0.3321 -1.7166 -1.7655
18414TIP3    H276658   1.194   5.518   4.625  2.0001  1.2385  0.0545
18415TIP3   OH276659   4.947   3.308  16.163  0.4424 -0.1146  0.0026
18415TIP3    H176660   4.949   3.396  16.202  1.3890 -0.5023  0.8923
18415TIP3    H276661   4.914   3.321  16.074  3.3593  1.5710 -0.9538
18416TIP3   OH276662   3.940   3.279   2.061 -0.3171  0.7660  0.1955
18416TIP3    H176663   3.850   3.266   2.090  0.1678 -1.2551  0.9038
18416TIP3    H276664   3.962   3.199   2.014  1.0446  1.3225 -0.1583
18417TIP3   OH276665   3.390   4.069   1.741 -0.2418 -0.0183  0.0761
18417TIP3    H176666   3.303   4.082   1.704  0.2199  0.6001 -0.8263
18417TIP3    H276667   3.443   4.140   1.704  0.7862 -0.7190  0.1701
18418TIP3   OH276668   1.028   1.294   0.029  0.0222  0.0414 -0.4141
18418TIP3    H176669   1.038   1.217  -0.028 -0.4278 -0.2555 -0.0985
18418TIP3    H276670   1.010   1.257   0.116  3.0119  0.4118  0.4575
18419TIP3   OH276671   3.264   6.334  14.177  0.8355  0.1891  0.3332
18419TIP3    H176672   3.352   6.355  14.209  0.9742 -0.1927  0.2066
18419TIP3    H276673   3.248   6.244  14.207  0.7858 -0.0124 -0.2797
18420TIP3   OH276674   4.585   5.212   3.702  1.0759 -0.2553  0.5500
18420TIP3    H176675   4.644   5.165   3.761 -0.2599 -1.5208  0.9248
18420TIP3    H276676   4.498   5.201   3.741 -0.0207 -2.0412 -2.1655
18421TIP3   OH276677   1.581   0.577   3.667  0.0112 -0.0922 -0.8563
18421TIP3    H176678   1.574   0.526   3.586 -1.2732 -0.6456 -0.4225
18421TIP3    H276679   1.510   0.544   3.722  0.8048  0.3375  0.4727
18422TIP3   OH276680   6.048   3.039   3.971  0.0801  0.2398 -0.4244
18422TIP3    H176681   5.977   3.094   4.005  0.1581 -0.0117  0.1532
18422TIP3    H276682   6.008   2.989   3.900 -0.1918  0.4741 -0.4382
18423TIP3   OH276683   3.783   1.598   1.169  0.0287  0.5158  0.3889
18423TIP3    H176684   3.838   1.593   1.090 -0.6478  2.2010 -0.2337
18423TIP3    H276685   3.738   1.682   1.161 -1.6493 -0.2294  1.5453
18424TIP3   OH276686   2.587   5.756  14.133 -0.7556 -0.0758  0.6987
18424TIP3    H176687   2.639   5.831  14.103  0.9083 -0.5213  2.2983
18424TIP3    H276688   2.650   5.700  14.179 -2.3333 -1.5370  1.1685
18425TIP3   OH276689   2.668   4.380   6.164  0.0754 -0.4560  0.8037
18425TIP3    H176690   2.672   4.316   6.235 -1.7416 -1.0577  0.4260
18425TIP3    H276691   2.672   4.465   6.207 -1.6165 -0.8019  1.7278
18426TIP3   OH276692   5.601   3.999   5.182 -0.5057 -0.3024 -0.3264
18426TIP3    H176693   5.634   3.921   5.225  0.0498 -0.7829 -1.5887
18426TIP3    H276694   5.508   3.981   5.168 -0.4911 -0.5233 -0.1396
18427TIP3   OH276695   3.245   2.333  14.458 -0.4010 -0.5110  0.3424
18427TIP3    H176696   3.198   2.346  14.540  0.1915  0.5851  0.5276
18427TIP3    H276697   3.337   2.333  14.482 -0.2167 -0.1314 -0.3230
18428TIP3   OH276698   2.906   3.441   0.456 -0.3400  0.0364  0.3565
18428TIP3    H176699   2.872   3.385   0.526  1.6675 -0.5219  0.9487
18428TIP3    H276700   2.977   3.390   0.418 -0.8812  0.6669 -1.6039
18429TIP3   OH276701   2.732   1.349   3.254 -0.6387  0.0695  0.2587
18429TIP3    H176702   2.793   1.278   3.232  0.8294  0.2530  3.1869
18429TIP3    H276703   2.780   1.429   3.231  0.0729  0.1944  2.0031
18430TIP3   OH276704   2.812   0.471  15.008 -0.3032  0.4101 -0.1592
18430TIP3    H176705   2.812   0.538  14.940  0.8507 -1.3966 -2.0638
18430TIP3    H276706   2.752   0.404  14.975  0.8925 -0.8770  0.1659
18431TIP3   OH276707   6.238   3.178   3.326 -0.0889  0.1187  0.8114
18431TIP3    H176708   6.275   3.228   3.254  1.8740 -1.6943  0.4594
18431TIP3    H276709   6.309   3.172   3.390 -0.6396 -1.1873  1.3374
18432TIP3   OH276710   5.399   4.657   4.632  0.0219 -0.1282  0.2660
18432TIP3    H176711   5.454   4.688   4.704  0.2426  0.2205 -0.0476
18432TIP3    H276712   5.310   4.678   4.659  0.0698 -0.3564  0.6110
18433TIP3   OH276713   4.016   0.160   3.372  0.3961 -0.4275 -0.8918
18433TIP3    H176714   4.038   0.110   3.293 -0.3119 -0.9474 -0.7703
18433TIP3    H276715   4.086   0.225   3.379  1.7020 -1.7802 -0.7145
18434TIP3   OH276716   0.043   5.289   3.915  0.8977 -0.1635 -0.3413
18434TIP3    H176717   0.082   5.369   3.881  0.8852 -0.0481 -0.0845
18434TIP3    H276718  -0.050   5.298   3.897  1.0789 -0.7921 -1.6750
18435TIP3   OH276719   1.714   2.287  15.616  0.0407  0.3040 -0.4803
18435TIP3    H176720   1.631   2.274  15.662 -0.3123  3.2433 -0.0755
18435TIP3    H276721   1.690   2.292  15.524  0.0585 -0.7880 -0.5480
18436TIP3   OH276722   3.161   1.137  14.502  0.3571  0.4144 -0.6659
18436TIP3    H176723   3.137   1.134  14.594 -1.2109  0.6727 -1.0228
18436TIP3    H276724   3.200   1.052  14.484 -2.2279 -0.9263 -0.4501
18437TIP3   OH276725   4.595   1.691   4.176  0.1663 -0.2718 -0.1852
18437TIP3    H176726   4.554   1.635   4.110  0.4629 -1.7924  0.8627
18437TIP3    H276727   4.664   1.637   4.214 -0.7898  0.0535  2.2270
18438TIP3   OH276728   4.518   5.961   5.669 -0.3554 -0.6519 -0.0262
18438TIP3    H176729   4.432   5.920   5.664 -0.8860  0.4256 -0.0142
18438TIP3    H276730   4.507   6.032   5.733  0.2300  0.2132 -0.8680
18439TIP3   OH276731   0.947   1.565   2.966 -0.2917 -0.5307  0.5134
18439TIP3    H176732   0.869   1.513   2.945 -1.4987  0.6742  1.8193
18439TIP3    H276733   0.966   1.613   2.885 -1.3650 -0.2820  0.3907
18440TIP3   OH276734   2.074   2.951  16.159  0.5562 -0.4244  0.6814
18440TIP3    H176735   2.011   2.932  16.228  0.3615 -3.0194 -0.1235
18440TIP3    H276736   2.130   2.874  16.154  0.7831 -0.1957 -1.8065
18441TIP3   OH276737   6.219   4.836   2.014 -0.1313 -0.3759  0.1323
18441TIP3    H176738   6.205   4.911   2.071  0.7424  1.0418 -1.4402
18441TIP3    H276739   6.314   4.833   2.000 -0.1065 -2.0080  0.4482
18442TIP3   OH276740   4.970   1.904  13.555 -0.5233  0.1132  0.6716
18442TIP3    H176741   4.885   1.943  13.533 -0.7133 -0.8090 -0.3433
18442TIP3    H276742   4.988   1.934  13.644 -1.2173  1.5028  0.3733
18443TIP3   OH276743   0.133   1.491   0.354  0.7518 -0.1139  0.0919
18443TIP3    H176744   0.212   1.544   0.352  1.5714 -1.3268 -1.1282
18443TIP3    H276745   0.150   1.426   0.422 -0.5319  1.4831  2.0887
18444TIP3   OH276746   0.602   1.431  16.145  0.2243 -0.1202  0.0035
18444TIP3    H176747   0.606   1.367  16.216 -1.4062  0.1268  0.3536
18444TIP3    H276748   0.679   1.487  16.158  0.0182 -0.1558  1.5175
18445TIP3   OH276749   3.509   4.956  10.699  0.0260 -0.2362 -0.4024
18445TIP3    H176750   3.551   4.908  10.627  2.4810 -0.7978  1.2768
18445TIP3    H276751   3.416   4.935  10.691  0.6336 -3.0206 -1.4366
18446TIP3   OH276752   3.443   2.004   5.883  0.3607 -0.1764 -0.3086
18446TIP3    H176753   3.348   2.011   5.875  0.4138  0.2690 -0.5617
18446TIP3    H276754   3.459   1.910   5.897 -0.0556 -0.3568 -1.0213
18447TIP3   OH276755   0.312   0.177   0.023  0.1475 -0.5514  0.2855
18447TIP3    H176756   0.282   0.166  -0.067 -0.9527  0.9283  0.4192
18447TIP3    H276757   0.349   0.265   0.025  0.4040 -0.6719  1.2121
18448TIP3   OH276758   0.660   2.282  12.989  0.4345 -0.4444 -0.4798
18448TIP3    H176759   0.620   2.268  13.075  0.5100 -0.3332 -0.4246
18448TIP3    H276760   0.600   2.241  12.927  0.4001 -0.5614 -0.3702
18449TIP3   OH276761   6.106   0.277   0.741  0.4634  0.5691 -0.1159
18449TIP3    H176762   6.052   0.236   0.808  0.8045  0.7635  0.2813
18449TIP3    H276763   6.189   0.229   0.743 -0.0608 -0.4657 -1.4881
18450TIP3   OH276764   0.860   3.825   6.400 -0.0572 -0.5266  0.2462
18450TIP3    H176765   0.847   3.909   6.444  1.7016  0.0112 -0.1696
18450TIP3    H276766   0.804   3.830   6.323  1.4212  1.1460 -0.8219
18451TIP3   OH276767   0.312   0.946   0.074  0.2235  0.6612  0.0778
18451TIP3    H176768   0.355   0.907   0.150  1.6832  0.1613 -0.9657
18451TIP3    H276769   0.271   1.026   0.108  2.1810  1.2981  1.0969
18452TIP3   OH276770   5.186   1.707   4.805 -0.5784  0.0770  0.3825
18452TIP3    H176771   5.259   1.689   4.864  0.6304  1.4185 -0.6164
18452TIP3    H276772   5.109   1.709   4.861  0.4353  0.6526  1.8108
18453TIP3   OH276773   2.078   5.230  14.761  0.1308 -0.0690  0.5182
18453TIP3    H176774   2.165   5.193  14.745 -0.1093 -0.0124 -1.1340
18453TIP3    H276775   2.077   5.310  14.709 -0.9508 -0.1386  0.4117
18454TIP3   OH276776   5.591   3.373   0.744 -0.3673 -0.1176 -0.2218
18454TIP3    H176777   5.534   3.297   0.742 -1.4791  0.6649  0.4973
18454TIP3    H276778   5.626   3.379   0.655  1.8310 -2.9296  0.3167
18455TIP3   OH276779   4.549   0.115   1.560 -0.1733 -0.0867 -0.1300
18455TIP3    H176780   4.529   0.202   1.595 -1.9613 -0.9164  1.1015
18455TIP3    H276781   4.633   0.092   1.598 -1.2919 -0.2716  2.4026
18456TIP3   OH276782   0.541   1.027   4.721 -0.6306 -0.4861  0.3633
18456TIP3    H176783   0.622   0.979   4.702 -0.4318 -0.1086  0.2503
18456TIP3    H276784   0.537   1.095   4.654  0.2963  1.1533  1.8985
18457TIP3   OH276785   0.083   2.750  16.516  0.0979 -0.1270 -0.1105
18457TIP3    H176786   0.139   2.822  16.546  0.7231 -0.3220 -0.7733
18457TIP3    H276787   0.046   2.781  16.433 -0.4754 -0.1554  0.1302
18458TIP3   OH276788   2.342   3.874  14.960  0.1277 -0.5825 -0.1061
18458TIP3    H176789   2.410   3.811  14.984  2.5221  2.4456  1.7112
18458TIP3    H276790   2.278   3.868  15.032  1.1009  0.0317  0.8395
18459TIP3   OH276791   4.280   0.006  15.583 -0.3028  0.8695  0.2094
18459TIP3    H176792   4.305   0.011  15.491 -0.1273  2.6273  0.3177
18459TIP3    H276793   4.228  -0.074  15.589  0.4655  0.2247 -1.2110
18460TIP3   OH276794   0.418   5.869  14.920  0.0714  0.4514 -0.0561
18460TIP3    H176795   0.496   5.922  14.933  0.6498 -0.7052  1.5142
18460TIP3    H276796   0.353   5.908  14.978  0.6303 -0.7185  1.4474
18461TIP3   OH276797   2.522   1.494  12.078 -0.1207 -0.1745  0.0066
18461TIP3    H176798   2.607   1.454  12.060  0.7201  1.7428 -0.5169
18461TIP3    H276799   2.538   1.555  12.150 -0.9880  0.3727 -0.2368
18462TIP3   OH276800   5.615   6.141  16.819 -0.5920  0.7220  0.0241
18462TIP3    H176801   5.534   6.184  16.847 -0.5804  1.3718 -0.9056
18462TIP3    H276802   5.590   6.050  16.805 -0.7137  0.4788  1.5963
18463TIP3   OH276803   4.907   2.832  12.237  0.0554 -0.0907 -0.4804
18463TIP3    H176804   4.901   2.922  12.268  2.0138  0.7893 -2.3158
18463TIP3    H276805   4.985   2.797  12.281 -0.9741 -1.0926  0.5970
18464TIP3   OH276806   0.981   4.227  16.937 -0.0238 -1.0149 -0.4522
18464TIP3    H176807   0.965   4.144  16.892  0.7519 -1.5329  0.1754
18464TIP3    H276808   0.984   4.203  17.030  1.5695 -0.5478 -0.3475
18465TIP3   OH276809   6.072   5.313  12.755  0.1925  0.4077  0.3596
18465TIP3    H176810   6.090   5.266  12.836 -0.6074 -0.6070 -0.0288
18465TIP3    H276811   6.156   5.322  12.711  0.0850 -2.9409 -0.7602
18466TIP3   OH276812   6.575   3.275   0.182 -0.0293 -0.3907 -0.6005
18466TIP3    H176813   6.525   3.263   0.102  1.0522 -2.1722 -1.0640
18466TIP3    H276814   6.629   3.352   0.166  0.1348 -0.7009 -1.5629
18467TIP3   OH276815   6.633   1.394   1.130  0.6899  0.2047  0.1740
18467TIP3    H176816   6.689   1.472   1.129 -0.2684  1.1012  3.4511
18467TIP3    H276817   6.544   1.428   1.139 -0.0342 -1.2829 -0.8888
18468TIP3   OH276818   0.174   6.040  11.867 -1.3265  0.5315  0.2018
18468TIP3    H176819   0.085   6.072  11.851 -1.0315  1.7689  0.8501
18468TIP3    H276820   0.230   6.116  11.848 -0.4025 -0.2172 -0.1700
18469TIP3   OH276821   2.931   3.043   3.128 -0.1395 -0.0536 -0.1553
18469TIP3    H176822   2.971   3.052   3.042  1.6095  2.9693  0.8180
18469TIP3    H276823   3.004   3.032   3.189 -0.9881  1.6347  1.2839
18470TIP3   OH276824   0.524   1.040   4.413  0.6266 -0.2751 -0.4175
18470TIP3    H176825   0.613   1.004   4.415  0.8992  0.4008  0.4510
18470TIP3    H276826   0.470   0.968   4.382  1.2119 -1.3037  0.8441
18471TIP3   OH276827   4.839   4.016   1.920 -0.3091  0.1060  0.3070
18471TIP3    H176828   4.856   3.923   1.938  0.2961  0.3243  0.9023
18471TIP3    H276829   4.876   4.031   1.833  0.1519 -0.0659  0.4704
18472TIP3   OH276830   0.131   2.996  13.472  0.3222 -0.4140  0.2824
18472TIP3    H176831   0.106   3.052  13.399  1.4898  0.3304  0.4359
18472TIP3    H276832   0.061   2.930  13.476 -0.8478  0.7464 -0.1756
18473TIP3   OH276833   3.737   1.272  12.812 -0.1662  0.2665 -0.4255
18473TIP3    H176834   3.769   1.336  12.748  1.3943 -0.3746 -0.3403
18473TIP3    H276835   3.739   1.317  12.896  0.3657  0.2977 -0.4518
18474TIP3   OH276836   5.596   3.456  16.244  0.6165 -0.2329 -0.7177
18474TIP3    H176837   5.563   3.546  16.246  1.2987  0.0630  1.9644
18474TIP3    H276838   5.642   3.449  16.161 -1.0087  1.2614 -1.8289
18475TIP3   OH276839   3.406   6.285   2.585 -0.2664  0.5877 -0.1485
18475TIP3    H176840   3.480   6.343   2.605  0.3438 -0.0083 -0.6327
18475TIP3    H276841   3.378   6.252   2.670  0.0381  0.8073  0.0402
18476TIP3   OH276842   2.291   0.683   4.921  0.1706 -0.5710  0.3159
18476TIP3    H176843   2.387   0.685   4.925  0.1572 -0.7066  0.7403
18476TIP3    H276844   2.263   0.673   5.012 -0.1812 -2.6893  0.0338
18477TIP3   OH276845   5.341   4.739  12.445 -0.3135 -0.0359 -0.6496
18477TIP3    H176846   5.429   4.743  12.484 -0.3895 -0.7741 -0.3869
18477TIP3    H276847   5.307   4.828  12.456 -1.1276 -0.6043  2.9299
18478TIP3   OH276848   5.152   3.043  13.946 -0.4852 -0.1932  0.8252
18478TIP3    H176849   5.090   2.971  13.960 -3.5271  1.1388 -3.3693
18478TIP3    H276850   5.108   3.120  13.981  0.3572  0.3319  0.7581
18479TIP3   OH276851   2.952   6.425   2.409  0.3966  0.1599 -0.4444
18479TIP3    H176852   2.928   6.444   2.318 -0.9046 -0.7593 -0.3281
18479TIP3    H276853   3.007   6.347   2.403 -0.0073 -0.1301 -0.4262
18480TIP3   OH276854   6.071   5.499  11.252 -0.3993  0.1209 -0.0843
18480TIP3    H176855   6.035   5.412  11.269 -2.4611  0.7933 -0.6681
18480TIP3    H276856   6.125   5.488  11.174  0.9647 -0.9696  0.9444
18481TIP3   OH276857   6.157   4.482   3.044 -0.0601 -0.1711 -0.2731
18481TIP3    H176858   6.165   4.412   2.980 -3.2861  0.0444 -1.0973
18481TIP3    H276859   6.126   4.438   3.124 -1.0959  0.1421 -0.4850
18482TIP3   OH276860   0.534   6.225  15.926  0.1919 -0.3429 -0.1371
18482TIP3    H176861   0.472   6.206  15.855 -0.0872  0.6328 -0.1614
18482TIP3    H276862   0.524   6.318  15.943  1.1816 -0.3069  0.3212
18483TIP3   OH276863   3.255   3.676   5.566 -0.0136  0.3849 -0.2319
18483TIP3    H176864   3.237   3.770   5.553  0.5928  0.3561 -1.4588
18483TIP3    H276865   3.179   3.632   5.527 -0.9113  0.3550  1.4641
18484TIP3   OH276866   2.094   1.555   2.865  0.5889 -0.2773  0.2544
18484TIP3    H176867   2.039   1.541   2.788 -0.7036  1.8923  0.7191
18484TIP3    H276868   2.165   1.610   2.834 -1.5579  3.2504  1.0870
18485TIP3   OH276869   1.009   3.614  10.898 -0.4479  0.4285  0.0096
18485TIP3    H176870   0.946   3.621  10.826  1.6598  2.6522 -1.7668
18485TIP3    H276871   0.989   3.688  10.955  1.1316  1.7862 -1.1280
18486TIP3   OH276872   3.071   5.696   3.988  0.1474  0.7131  0.6197
18486TIP3    H176873   3.009   5.768   3.973  0.0653  0.6605  0.7118
18486TIP3    H276874   3.056   5.669   4.078  0.7623  1.1392  0.8585
18487TIP3   OH276875   1.820   1.495  10.985 -0.3726  0.2659 -0.6261
18487TIP3    H176876   1.727   1.483  11.005 -0.2139 -0.1993 -0.1636
18487TIP3    H276877   1.842   1.420  10.929  0.1183 -0.5196  0.5931
18488TIP3   OH276878   1.794   3.958   2.428  0.6710 -0.4057  0.5871
18488TIP3    H176879   1.758   4.019   2.494 -0.1580 -0.6698  0.3924
18488TIP3    H276880   1.727   3.954   2.360  1.9135  0.5720 -0.7472
18489TIP3   OH276881   4.779   3.576  13.596 -0.2258  0.7448  0.3579
18489TIP3    H176882   4.757   3.585  13.503 -0.0938 -0.6632  0.1741
18489TIP3    H276883   4.695   3.587  13.641 -0.3374  1.1433  0.0642
18490TIP3   OH276884   5.100   1.291  15.649 -0.0325 -0.1405 -0.8195
18490TIP3    H176885   5.191   1.262  15.657 -0.0406 -0.0279 -0.3444
18490TIP3    H276886   5.079   1.331  15.733 -0.0646  1.1372 -1.4080
18491TIP3   OH276887   4.716   1.352  11.576  0.2143  0.3654  0.4459
18491TIP3    H176888   4.682   1.276  11.527  0.3401 -0.4257  1.5337
18491TIP3    H276889   4.776   1.314  11.640 -2.4726  0.8800  3.5647
18492TIP3   OH276890   5.307   0.763  12.488  0.1872  0.4425 -0.2634
18492TIP3    H176891   5.254   0.683  12.491  1.5970 -0.5653 -0.5970
18492TIP3    H276892   5.331   0.771  12.395  0.3003  1.0913 -0.1802
18493TIP3   OH276893   6.722   4.166  12.003 -0.0713  0.0533  0.1187
18493TIP3    H176894   6.809   4.190  12.036  0.4088  0.7372 -1.5254
18493TIP3    H276895   6.711   4.220  11.924 -1.1357 -1.4964 -0.8401
18494TIP3   OH276896   1.335   1.283   3.132  0.0848 -0.0089  0.3738
18494TIP3    H176897   1.270   1.299   3.064 -0.2824  0.6801  0.8851
18494TIP3    H276898   1.284   1.275   3.213  0.7068  1.6861  0.9646
18495TIP3   OH276899   5.487   3.742  14.868  0.3866 -0.2013  0.2524
18495TIP3    H176900   5.482   3.775  14.778  0.0956 -0.3794  0.2028
18495TIP3    H276901   5.422   3.671  14.871  3.2263 -3.1270 -0.6532
18496TIP3   OH276902   0.405   2.700  16.686  0.1102 -0.2115  0.2322
18496TIP3    H176903   0.458   2.690  16.607 -1.7784 -0.2655 -1.1228
18496TIP3    H276904   0.353   2.778  16.670  0.3704  0.3282  1.8829
18497TIP3   OH276905   6.516   4.313  16.775 -0.2156 -0.3127  0.1564
18497TIP3    H176906   6.421   4.316  16.788 -0.3140 -1.0567 -0.3031
18497TIP3    H276907   6.537   4.392  16.725 -0.6473 -0.3077 -0.0199
18498TIP3   OH276908   4.285   0.252  17.307  0.6816  0.3200  0.3642
18498TIP3    H176909   4.239   0.168  17.316 -3.5830  2.0271 -2.3428
18498TIP3    H276910   4.240   0.310  17.368  2.2727  1.1398  0.8072
18499TIP3   OH276911   4.660   3.293  13.774  0.6148 -0.6396 -0.1498
18499TIP3    H176912   4.697   3.381  13.777 -2.9838  1.0380 -0.4008
18499TIP3    H276913   4.649   3.269  13.866  2.7761 -1.4666 -0.0543
18500TIP3   OH276914   0.987   4.124  14.100 -0.0274 -0.0039  0.2169
18500TIP3    H176915   0.950   4.209  14.076  0.8376 -0.1898 -2.0570
18500TIP3    H276916   0.913   4.075  14.137 -0.9675  1.1384 -0.0989
18501TIP3   OH276917   5.480   2.097  15.631 -0.0027 -0.3490  0.3024
18501TIP3    H176918   5.459   2.096  15.537 -1.6718 -2.2802  0.6495
18501TIP3    H276919   5.489   2.190  15.652  0.5590  0.1254 -1.7848
18502TIP3   OH276920   2.182   5.188   4.730 -0.1179 -1.0667 -0.5586
18502TIP3    H176921   2.132   5.269   4.718 -0.6490 -1.2633  0.2218
18502TIP3    H276922   2.262   5.201   4.679  0.3261  0.4281  0.4520
18503TIP3   OH276923   4.587   3.286  13.067 -0.4909  0.1247 -0.0756
18503TIP3    H176924   4.640   3.360  13.036 -2.1108  1.2318 -0.3138
18503TIP3    H276925   4.532   3.323  13.136 -0.2500 -1.2366  0.8761
18504TIP3   OH276926   5.233   5.804   3.317 -0.5385  0.2434  0.2845
18504TIP3    H176927   5.212   5.712   3.298 -0.4103  0.8454 -3.4951
18504TIP3    H276928   5.311   5.822   3.264 -0.9886  2.7026  0.3639
18505TIP3   OH276929   5.763   3.787  15.039 -0.2270  0.4224  0.1862
18505TIP3    H176930   5.834   3.852  15.047  0.7742 -0.7729  1.5566
18505TIP3    H276931   5.776   3.748  14.953 -0.4270  1.5308 -0.3739
18506TIP3   OH276932   2.492   6.119  13.503  0.3105  0.0933 -0.0157
18506TIP3    H176933   2.414   6.127  13.557 -0.2167 -1.9705 -0.3656
18506TIP3    H276934   2.480   6.182  13.432  0.2787  1.7127  1.3725
18507TIP3   OH276935   2.351   1.036   6.045  0.4847 -0.0339 -0.0900
18507TIP3    H176936   2.443   1.021   6.027 -0.0710 -1.5177 -2.0120
18507TIP3    H276937   2.342   1.131   6.048  1.9688  0.1363 -0.4334
18508TIP3   OH276938   1.786   6.460   3.926  0.2383 -0.0357 -0.2083
18508TIP3    H176939   1.758   6.387   3.871 -0.1000  0.2459 -0.4119
18508TIP3    H276940   1.832   6.518   3.866 -1.5621  1.0882 -0.5677
18509TIP3   OH276941   3.380   3.648  16.377  0.0019 -0.2800 -0.6199
18509TIP3    H176942   3.428   3.725  16.346 -0.4255  0.7544  1.1508
18509TIP3    H276943   3.443   3.576  16.371  0.7591  0.4246 -1.2894
18510TIP3   OH276944   1.520   5.457  16.255 -0.7852 -0.3545  0.0628
18510TIP3    H176945   1.468   5.518  16.203 -1.2853 -1.3525 -0.6518
18510TIP3    H276946   1.497   5.371  16.220  0.3678 -0.9107  0.6207
18511TIP3   OH276947   6.428   6.205   3.535  0.4837  0.2543  0.3361
18511TIP3    H176948   6.441   6.250   3.618 -0.4620  1.5793 -0.2020
18511TIP3    H276949   6.354   6.146   3.551  0.4686  0.3176  0.4957
18512TIP3   OH276950   3.138   6.521  12.365  0.5017 -0.0562  0.4708
18512TIP3    H176951   3.139   6.588  12.296 -0.3262 -0.4708  0.0389
18512TIP3    H276952   3.229   6.490  12.369  0.4461 -0.4955 -0.9166
18513TIP3   OH276953   1.950   1.811  17.301  0.6290 -0.3672  0.5618
18513TIP3    H176954   2.015   1.827  17.369  0.5479 -0.6167  0.6976
18513TIP3    H276955   1.974   1.872  17.230  0.2836  0.4066  1.1001
18514TIP3   OH276956   2.743   2.122  17.064  0.5438  0.0517 -0.2358
18514TIP3    H176957   2.705   2.035  17.072  2.6313 -0.9254 -0.3504
18514TIP3    H276958   2.726   2.164  17.149 -1.0003 -0.1900 -0.3904
18515TIP3   OH276959   3.829   4.133  17.110 -0.2220  0.1070  0.2088
18515TIP3    H176960   3.799   4.089  17.189 -0.2565 -0.0141  0.1281
18515TIP3    H276961   3.750   4.167  17.070 -0.5365 -2.0460 -1.1367
18516TIP3   OH276962   3.289   4.683   4.186 -0.0628  0.3332  0.3912
18516TIP3    H176963   3.313   4.735   4.110  2.6453  0.2066  1.0698
18516TIP3    H276964   3.359   4.698   4.250 -0.2875 -2.4081  1.4586
18517TIP3   OH276965   3.585   1.890  17.167  0.1033  0.1414  0.7322
18517TIP3    H176966   3.524   1.951  17.127  1.4793  1.0868 -0.0203
18517TIP3    H276967   3.660   1.889  17.108 -0.8389 -4.3113 -0.7524
18518TIP3   OH276968   3.839   0.789   5.886 -0.3695  0.2753  0.6223
18518TIP3    H176969   3.762   0.732   5.878  0.4238 -0.7571  0.2135
18518TIP3    H276970   3.858   0.815   5.796 -1.1362  1.7803  0.8613
18519TIP3   OH276971   3.855   4.091  15.709  0.1195 -0.3375  0.0677
18519TIP3    H176972   3.906   4.055  15.637  1.6694 -0.2189  1.0528
18519TIP3    H276973   3.893   4.052  15.788 -0.5271  0.6901  0.9207
18520TIP3   OH276974   5.602   0.158  13.034 -0.4790  0.0491 -0.0024
18520TIP3    H176975   5.631   0.173  12.943  0.7424 -1.8902 -0.0140
18520TIP3    H276976   5.555   0.237  13.058 -1.1025  0.5051 -2.4386
18521TIP3   OH276977   4.790   2.533   2.623  0.1303  0.6107  0.2023
18521TIP3    H176978   4.703   2.498   2.642 -0.4278  1.6832 -0.3356
18521TIP3    H276979   4.850   2.472   2.667 -0.8991  0.0728  0.9007
18522TIP3   OH276980   2.672   2.383  15.917  0.2456  0.2204  0.4355
18522TIP3    H176981   2.689   2.289  15.904  3.4387  0.5415  1.4655
18522TIP3    H276982   2.650   2.415  15.830  0.9927 -1.1823 -0.3133
18523TIP3   OH276983   1.437   4.612  11.962 -0.5177 -0.3195  0.5919
18523TIP3    H176984   1.525   4.576  11.976 -0.3089  0.1386  0.4836
18523TIP3    H276985   1.381   4.562  12.021 -0.1644 -0.5314  0.7549
18524TIP3   OH276986   0.027   5.625   0.741  0.1262 -0.0793 -0.3873
18524TIP3    H176987   0.110   5.639   0.696  1.4647 -0.3806  1.8286
18524TIP3    H276988   0.035   5.538   0.779 -0.1931  0.7725  1.7775
18525TIP3   OH276989   6.103   3.430   0.503  0.4532 -0.0220  0.1773
18525TIP3    H176990   6.138   3.410   0.416 -1.9452  0.6921 -1.0435
18525TIP3    H276991   6.011   3.404   0.498  0.0284  0.9225  2.1974
18526TIP3   OH276992   2.527   1.151  15.062 -0.1119  0.2916  0.0915
18526TIP3    H176993   2.583   1.228  15.051 -1.5523  1.1572 -1.6981
18526TIP3    H276994   2.532   1.130  15.155  0.7475  2.2084  0.5200
18527TIP3   OH276995   1.212   2.618  12.710 -0.8180 -0.1865 -0.0195
18527TIP3    H176996   1.271   2.686  12.675 -0.5935 -0.5787 -0.4070
18527TIP3    H276997   1.143   2.610  12.645 -1.0552 -0.0573  0.2146
18528TIP3   OH276998   1.431   1.340   3.574 -0.3452  0.1072  0.2665
18528TIP3    H176999   1.361   1.317   3.635 -0.0215  1.6284  1.2581
18528TIP3    H277000   1.387   1.389   3.505 -0.5858 -0.8963 -0.3045
18529TIP3   OH277001   0.147   4.432  13.786  0.1916 -0.8486  0.0296
18529TIP3    H177002   0.111   4.395  13.705  1.2790  0.9489 -1.3508
18529TIP3    H277003   0.097   4.512  13.800 -0.3747 -1.4203  1.5094
18530TIP3   OH277004   5.782   4.395   0.972  0.4544 -0.2377 -0.3194
18530TIP3    H177005   5.742   4.313   1.003  1.4057 -0.3031  0.8173
18530TIP3    H277006   5.772   4.455   1.046  0.2226  0.5174 -0.9628
18531TIP3   OH277007   1.060   1.175  11.530 -0.3523  0.1428  0.0400
18531TIP3    H177008   0.991   1.212  11.586 -1.6630 -1.4813 -0.4176
18531TIP3    H277009   1.015   1.154  11.448  0.3329 -2.2294  0.2118
18532TIP3   OH277010   5.525   6.364  13.047 -0.2239 -0.1955  0.0342
18532TIP3    H177011   5.575   6.440  13.017 -1.8248  0.5825 -0.8068
18532TIP3    H277012   5.446   6.401  13.087 -0.9520 -1.3985 -0.2361
18533TIP3   OH277013   4.615   2.538  12.095  0.3895  0.0759 -0.1384
18533TIP3    H177014   4.577   2.455  12.066  0.1106 -0.2798  1.1464
18533TIP3    H277015   4.690   2.552  12.038 -1.4835  0.6807 -2.6237
18534TIP3   OH277016   0.330   1.268   3.143 -0.0660  0.4189 -0.5647
18534TIP3    H177017   0.382   1.325   3.201 -0.1996  0.8039 -0.8153
18534TIP3    H277018   0.320   1.187   3.192 -1.1450  1.1202  0.4489
18535TIP3   OH277019   2.181   3.489  15.037  0.4593 -0.0543  0.1729
18535TIP3    H177020   2.261   3.481  14.986  0.2518 -0.3514 -0.1089
18535TIP3    H277021   2.186   3.575  15.078  0.3757  0.4115 -0.7792
18536TIP3   OH277022   3.064   0.554  12.384  0.2004 -0.1466  0.3578
18536TIP3    H177023   3.130   0.492  12.352  0.0257  0.8129 -2.1024
18536TIP3    H277024   2.980   0.509  12.371  0.1452  0.1428 -0.3123
18537TIP3   OH277025   6.413   2.919  17.328  0.5482  0.0568 -0.3068
18537TIP3    H177026   6.467   2.997  17.314 -1.5574  1.4142 -1.4202
18537TIP3    H277027   6.323   2.948  17.310 -0.2838 -2.7526 -1.3050
18538TIP3   OH277028   2.964   3.104  16.663  0.2718  0.1626  0.2269
18538TIP3    H177029   3.044   3.078  16.707  0.2643  0.6701  0.5498
18538TIP3    H277030   2.944   3.191  16.698 -0.0137  0.3561 -0.3930
18539TIP3   OH277031   6.296   5.512  13.849  0.0757  0.1996 -0.1448
18539TIP3    H177032   6.319   5.582  13.789  0.2321  0.4686  0.2220
18539TIP3    H277033   6.368   5.449  13.840 -0.0896  0.0599 -0.5096
18540TIP3   OH277034   2.463   4.343  10.553  0.2001  0.1605  0.5450
18540TIP3    H177035   2.384   4.320  10.601  1.5067  0.4489  2.9844
18540TIP3    H277036   2.432   4.369  10.466 -2.2065 -1.0862  0.9593
18541TIP3   OH277037   5.502   1.172   2.086 -0.4894  0.0394  0.3374
18541TIP3    H177038   5.580   1.119   2.080  0.6537  1.5295  1.2675
18541TIP3    H277039   5.533   1.259   2.113 -2.1874  1.3418 -1.5121
18542TIP3   OH277040   2.677   0.601   3.230  0.2837 -0.5222 -0.0749
18542TIP3    H177041   2.643   0.572   3.145 -0.6881 -0.0736  0.1464
18542TIP3    H277042   2.746   0.538   3.251  0.8275 -0.3992 -1.3848
18543TIP3   OH277043   4.391   5.235   0.040 -0.2419  0.1483  0.1195
18543TIP3    H177044   4.451   5.160   0.045  0.9721  1.1248  0.8942
18543TIP3    H277045   4.401   5.279   0.124 -0.9945  1.1419 -0.2922
18544TIP3   OH277046   3.293   4.075  13.605 -0.0333 -0.1776  0.0761
18544TIP3    H177047   3.259   4.005  13.550 -1.5656  0.2144  0.4602
18544TIP3    H277048   3.221   4.095  13.665  0.5197  1.4278  0.2595
18545TIP3   OH277049   0.515   0.349  12.631 -0.3738  0.1574  0.0277
18545TIP3    H177050   0.545   0.436  12.659 -0.0499  0.0473  0.0273
18545TIP3    H277051   0.522   0.351  12.535 -1.5396  0.5552 -0.0612
18546TIP3   OH277052   2.590   3.235   1.752  0.2822 -0.4146 -0.5324
18546TIP3    H177053   2.573   3.329   1.759  0.9625 -0.2561 -0.9379
18546TIP3    H277054   2.555   3.199   1.833 -0.1630  0.1619 -0.4583
18547TIP3   OH277055   0.588   3.390   3.447 -0.7220  0.3275 -0.1649
18547TIP3    H177056   0.502   3.392   3.405 -0.2538 -2.9542 -1.5577
18547TIP3    H277057   0.650   3.376   3.375  0.5129 -1.4384  1.1520
18548TIP3   OH277058   6.201   6.087   5.176  0.1463 -0.1116 -0.2632
18548TIP3    H177059   6.254   6.084   5.256  0.4567 -0.0177 -0.4654
18548TIP3    H277060   6.256   6.132   5.112 -0.9981  2.0032  0.1441
18549TIP3   OH277061   3.008   5.020   2.123 -0.3434 -0.1797  0.6045
18549TIP3    H177062   2.952   5.014   2.045 -0.0759 -0.7417  0.4522
18549TIP3    H277063   3.033   4.930   2.141  2.8474  0.2672 -1.0077
18550TIP3   OH277064   5.094   5.628  15.584  0.6828 -0.3534  0.5403
18550TIP3    H177065   5.090   5.575  15.664 -0.3303 -1.7318 -0.3800
18550TIP3    H277066   5.181   5.667  15.586  0.6458 -0.2694  2.3636
18551TIP3   OH277067   1.010   2.829  13.476 -0.0652  0.7284  0.2545
18551TIP3    H177068   1.044   2.742  13.456  0.4376  0.9551  0.1258
18551TIP3    H277069   0.915   2.819  13.474 -0.0276  0.5527 -1.3758
18552TIP3   OH277070   5.903   4.661  14.402 -0.0655  0.2127 -0.0827
18552TIP3    H177071   5.993   4.667  14.370 -0.4724  0.6758 -1.1940
18552TIP3    H277072   5.888   4.744  14.446  0.2443 -0.1172  0.6637
18553TIP3   OH277073   4.670   4.528   5.805  0.4263 -0.4009 -0.1121
18553TIP3    H177074   4.757   4.515   5.768  0.7209  0.1484  0.3710
18553TIP3    H277075   4.662   4.459   5.872  0.2828 -0.7732 -0.5097
18554TIP3   OH277076   1.821   5.916  16.874  0.1224 -0.3433 -0.0284
18554TIP3    H177077   1.773   5.932  16.956  0.0421 -1.6268  0.1938
18554TIP3    H277078   1.777   5.972  16.810  0.1323  0.6247  0.7674
18555TIP3   OH277079   2.541   3.806  16.138  0.1395  0.2151 -0.2040
18555TIP3    H177080   2.588   3.889  16.124  2.1412 -1.1512 -2.2866
18555TIP3    H277081   2.566   3.779  16.226  1.2956  0.7435 -0.3483
18556TIP3   OH277082   2.535   2.531  14.102  0.6753  0.3121 -0.1797
18556TIP3    H177083   2.497   2.604  14.152  1.4187 -0.4944  1.6653
18556TIP3    H277084   2.587   2.483  14.167  2.5470 -0.2217 -1.9841
18557TIP3   OH277085   0.072   5.567  12.447 -0.3018  0.2676  0.1136
18557TIP3    H177086   0.109   5.644  12.404 -2.3321  1.5930  0.6174
18557TIP3    H277087  -0.021   5.570  12.426 -0.5660 -1.5839  0.8713
18558TIP3   OH277088   5.554   6.738  14.279 -0.1031 -0.1028 -0.2012
18558TIP3    H177089   5.482   6.676  14.267 -0.1628 -0.0656 -0.0494
18558TIP3    H277090   5.511   6.823  14.286 -0.0832 -0.1265  0.3113
18559TIP3   OH277091   4.186   0.597  11.603  0.5148 -0.2846 -0.1751
18559TIP3    H177092   4.207   0.689  11.590 -1.1345  0.1423  0.0089
18559TIP3    H277093   4.130   0.574  11.529  1.1211 -1.2202 -0.3582
18560TIP3   OH277094   2.103   5.327   3.908 -0.2492 -0.3482 -0.4252
18560TIP3    H177095   2.109   5.418   3.936  1.1354 -0.8099  0.9277
18560TIP3    H277096   2.172   5.317   3.842 -0.0600 -0.5266 -0.2042
18561TIP3   OH277097   2.497   0.125  12.151  0.3787 -0.3569  0.1259
18561TIP3    H177098   2.502   0.162  12.062 -1.6503  1.5769  0.7179
18561TIP3    H277099   2.532   0.194  12.207 -1.5438 -0.0954  1.0930
18562TIP3   OH277100   5.390   4.036   4.333 -0.1121 -0.0097  0.7429
18562TIP3    H177101   5.331   4.057   4.406 -0.2038  0.0810  0.6417
18562TIP3    H277102   5.459   4.103   4.339 -0.3542  0.2605  0.4777
18563TIP3   OH277103   6.006   1.462   0.926  0.4044 -0.3419  0.3660
18563TIP3    H177104   6.014   1.543   0.877  0.2465  0.3046  1.3736
18563TIP3    H277105   6.095   1.427   0.930  0.0946 -1.7810 -2.5568
18564TIP3   OH277106   4.519   6.388   5.723  0.0844  0.6809 -0.2384
18564TIP3    H177107   4.472   6.387   5.806  2.3209  0.7256  1.1237
18564TIP3    H277108   4.470   6.329   5.666 -2.0088  1.3384  0.7933
18565TIP3   OH277109   5.861   0.418  16.762  0.1956 -0.1434  0.5734
18565TIP3    H177110   5.843   0.419  16.668 -4.0693  1.8523  1.1779
18565TIP3    H277111   5.911   0.498  16.778 -2.7008  1.8257  0.3766
18566TIP3   OH277112   4.040   4.308   5.210 -0.0649 -0.6719  0.4041
18566TIP3    H177113   3.966   4.332   5.153 -0.0229 -0.6238  0.3692
18566TIP3    H277114   4.061   4.389   5.257  1.1587 -0.1828 -0.9273
18567TIP3   OH277115   0.290   5.735  13.668  0.1296  0.4400 -0.1345
18567TIP3    H177116   0.365   5.716  13.612 -0.1257 -0.9513 -0.0354
18567TIP3    H277117   0.266   5.650  13.706 -0.8254  1.0479  0.6680
18568TIP3   OH277118   1.281   2.970  12.319 -0.2284  0.1913 -0.6186
18568TIP3    H177119   1.370   2.946  12.296  0.0428 -0.0948  0.6796
18568TIP3    H277120   1.278   3.066  12.310  1.0189  0.5483  1.8857
18569TIP3   OH277121   2.172   5.589   1.164 -0.9158 -0.7447  0.0055
18569TIP3    H177122   2.193   5.679   1.189 -0.2792 -0.3458 -1.7786
18569TIP3    H277123   2.243   5.563   1.106 -0.0084 -3.1719  2.0348
18570TIP3   OH277124   1.303   5.765   0.065 -0.1129  0.3876 -0.1663
18570TIP3    H177125   1.228   5.823   0.077 -1.1890 -0.8416 -0.7371
18570TIP3    H277126   1.363   5.789   0.135 -1.2003  1.1614  0.5291
18571TIP3   OH277127   2.392   6.453  14.618  1.1018 -0.2005 -0.2325
18571TIP3    H177128   2.357   6.414  14.698  0.0283 -1.6094 -1.3326
18571TIP3    H277129   2.464   6.509  14.648 -0.0156  0.2406  1.8037
18572TIP3   OH277130   3.030   3.287  13.611  0.7505  0.5268  0.3310
18572TIP3    H177131   3.007   3.293  13.703  0.5815  0.0182  0.3250
18572TIP3    H277132   3.058   3.376  13.587 -0.7973  1.0744  0.4480
18573TIP3   OH277133   0.528   1.309  11.142  0.0835 -0.0624  0.1935
18573TIP3    H177134   0.521   1.336  11.051  2.5746 -3.3452 -1.1643
18573TIP3    H277135   0.470   1.234  11.150 -0.4026  0.4267  1.4553
18574TIP3   OH277136   2.040   4.755   4.010 -0.1959 -0.0712  0.1871
18574TIP3    H177137   1.960   4.771   3.960 -0.0430 -1.3073 -0.4946
18574TIP3    H277138   2.017   4.684   4.070 -0.4741  1.6044  2.1597
18575TIP3   OH277139   0.613   1.840  17.172  0.4767  0.3705  0.9180
18575TIP3    H177140   0.597   1.860  17.264 -0.9574  0.5608  0.6481
18575TIP3    H277141   0.576   1.753  17.160 -0.1749  0.7263  0.3147
18576TIP3   OH277142   5.140   4.240  15.911  0.5022 -0.2643 -0.6925
18576TIP3    H177143   5.051   4.248  15.877 -0.1337  0.0191  0.9602
18576TIP3    H277144   5.171   4.330  15.922  0.3336 -0.3196  0.3410
18577TIP3   OH277145   3.915   4.301  16.529 -0.7352  0.2910 -0.4428
18577TIP3    H177146   4.003   4.315  16.494 -1.9285  1.7076 -3.1715
18577TIP3    H277147   3.901   4.206  16.522  0.4638  0.0859 -0.2111
18578TIP3   OH277148   4.629   4.008   4.703 -0.1608 -0.8401 -0.1853
18578TIP3    H177149   4.721   4.028   4.687 -0.1315 -0.8801 -0.0670
18578TIP3    H277150   4.610   4.048   4.788  0.0247 -1.7092  0.2798
18579TIP3   OH277151   2.268   5.732   2.166  0.2568  0.1026 -0.2402
18579TIP3    H177152   2.317   5.652   2.151 -1.6066 -1.4064  1.1986
18579TIP3    H277153   2.184   5.703   2.202 -0.2184  2.7225  1.0474
18580TIP3   OH277154   1.923   2.468   3.787 -0.7009 -0.0911 -0.3469
18580TIP3    H177155   1.887   2.556   3.783  0.5547  0.6021  1.9561
18580TIP3    H277156   2.017   2.479   3.773 -0.7278 -1.3217 -1.8309
18581TIP3   OH277157   5.362   4.351  12.318 -0.9894 -0.0427 -0.3397
18581TIP3    H177158   5.291   4.339  12.381 -0.1684  1.3882  0.9235
18581TIP3    H277159   5.354   4.276  12.259  0.3310 -3.5980  3.4665
18582TIP3   OH277160   0.518   2.519  17.156  0.4764  0.4793 -0.1962
18582TIP3    H177161   0.459   2.567  17.098 -0.5668  0.2615  0.6482
18582TIP3    H277162   0.481   2.531  17.243  0.5800 -1.2501  0.1189
18583TIP3   OH277163   4.594   4.437  12.905  0.0880 -0.3274  0.3828
18583TIP3    H177164   4.603   4.368  12.971  0.0318 -1.0208 -0.3179
18583TIP3    H277165   4.683   4.450  12.872 -0.1142 -1.0877 -0.4909
18584TIP3   OH277166   4.594   3.586  14.785  0.1868  0.6508  0.1112
18584TIP3    H177167   4.571   3.678  14.774 -1.1584  0.3856  0.4711
18584TIP3    H277168   4.565   3.544  14.704 -0.7905  0.2784  0.6409
18585TIP3   OH277169   0.781   5.384  16.698 -0.2387  0.3571  0.4763
18585TIP3    H177170   0.708   5.342  16.651  0.2954 -0.0502 -0.0016
18585TIP3    H277171   0.854   5.382  16.636  0.9313 -1.5743  1.8099
18586TIP3   OH277172   5.689   0.189   4.842  0.0557 -0.5203  0.0389
18586TIP3    H177173   5.753   0.260   4.839 -0.0061 -0.3296  1.8600
18586TIP3    H277174   5.621   0.215   4.781 -0.1333  1.1861  0.9078
18587TIP3   OH277175   1.448   4.958  11.690  0.4963  0.4142  0.1752
18587TIP3    H177176   1.517   4.913  11.739  0.2090  0.6956  0.8466
18587TIP3    H277177   1.436   5.041  11.736  0.3257  0.7454 -0.4649
18588TIP3   OH277178   5.192   5.715   0.978  0.1113 -1.1221 -0.0981
18588TIP3    H177179   5.118   5.686   0.925  0.9647 -2.4352 -0.6096
18588TIP3    H277180   5.164   5.700   1.068 -0.6111 -0.6568 -0.2318
18589TIP3   OH277181   2.397   1.968  15.461  0.3768 -0.2097 -0.3578
18589TIP3    H177182   2.370   2.060  15.464  0.9467 -0.0643  1.3922
18589TIP3    H277183   2.316   1.921  15.441 -0.9713  0.3640  3.0297
18590TIP3   OH277184   4.316   5.925  12.193 -0.4719  0.5189  0.1433
18590TIP3    H177185   4.327   5.973  12.275 -1.4394  0.8061  0.1127
18590TIP3    H277186   4.337   5.989  12.125 -2.1481  1.0582  0.0869
18591TIP3   OH277187   3.551   0.457   1.315 -0.0010  0.0139 -0.2934
18591TIP3    H177188   3.477   0.397   1.307 -0.8109  0.9033  0.2848
18591TIP3    H277189   3.544   0.515   1.239 -0.7448  0.9724  0.4680
18592TIP3   OH277190   4.019   3.916  15.864  0.5693  0.2298  0.2914
18592TIP3    H177191   4.055   3.884  15.947 -0.6834  0.0879  0.8025
18592TIP3    H277192   3.958   3.847  15.837 -1.6285  1.7779  1.0312
18593TIP3   OH277193   0.621   0.815  16.946  0.3055 -0.3798 -0.6805
18593TIP3    H177194   0.659   0.749  17.003  0.4514  0.4610  0.2233
18593TIP3    H277195   0.536   0.778  16.920 -2.2119  1.1434  4.1320
18594TIP3   OH277196   6.325   5.621   3.751 -0.2382 -0.1134 -0.2747
18594TIP3    H177197   6.323   5.693   3.688  0.3970  0.5517  0.4383
18594TIP3    H277198   6.388   5.649   3.818 -0.4155 -1.0777  0.3235
18595TIP3   OH277199   0.712   6.381  10.714 -0.2306  0.4936 -0.3744
18595TIP3    H177200   0.668   6.462  10.741 -1.4962 -0.3287  0.0980
18595TIP3    H277201   0.713   6.386  10.618  0.2589  1.3468 -0.3393
18596TIP3   OH277202   5.557   2.744  14.112 -0.1015 -0.0937 -0.2766
18596TIP3    H177203   5.608   2.791  14.178  1.7326 -1.1173 -0.8853
18596TIP3    H277204   5.481   2.711  14.159  0.3884  0.4836  0.9661
18597TIP3   OH277205   6.225   1.532   2.816  0.4459 -0.5492  0.3690
18597TIP3    H177206   6.278   1.580   2.880 -1.9604 -0.6549  2.6281
18597TIP3    H277207   6.256   1.562   2.731  1.6035  2.1059  1.6265
18598TIP3   OH277208   1.087   0.215   0.609  0.3850  0.0065  0.2080
18598TIP3    H177209   1.122   0.258   0.532  0.2960  0.8744  0.6375
18598TIP3    H277210   1.127   0.261   0.683  0.8078 -1.0896  0.6918
18599TIP3   OH277211   2.540   1.489  16.758 -0.6263  0.5275  0.5187
18599TIP3    H177212   2.474   1.495  16.689  0.3706  0.7597 -0.4434
18599TIP3    H277213   2.503   1.539  16.831 -0.6675  2.4090 -0.7194
18600TIP3   OH277214   1.760   4.448  16.100 -0.4239  0.5164  0.4944
18600TIP3    H177215   1.796   4.517  16.155 -1.8169  1.7407 -0.0779
18600TIP3    H277216   1.671   4.435  16.132 -0.9511  0.6057 -0.8452
18601TIP3   OH277217   2.535   6.313   2.991 -0.5701  0.1344 -0.7846
18601TIP3    H177218   2.625   6.300   3.021 -0.2864  1.5209 -0.9621
18601TIP3    H277219   2.499   6.225   2.983 -0.1346 -0.3866  1.9945
18602TIP3   OH277220   2.856   2.806  16.430  0.5518  0.0967  0.0323
18602TIP3    H177221   2.782   2.788  16.373  1.0018 -0.5191 -0.3643
18602TIP3    H277222   2.900   2.881  16.390  0.9067 -0.3768 -0.4750
18603TIP3   OH277223   0.515   5.085   1.858 -0.2939  0.3518 -0.2155
18603TIP3    H177224   0.595   5.132   1.835  0.8141 -0.8912  0.9195
18603TIP3    H277225   0.474   5.138   1.926 -0.3362  0.8926 -0.6619
18604TIP3   OH277226   2.148   0.298   3.220 -0.4793  0.5931  0.4249
18604TIP3    H177227   2.223   0.352   3.197 -0.8911  0.2540 -2.1028
18604TIP3    H277228   2.185   0.222   3.264  0.7311  0.3370 -0.9394
18605TIP3   OH277229   2.823   5.538   1.524 -0.4327 -0.5773 -0.4923
18605TIP3    H177230   2.869   5.461   1.491  1.3654  0.5154 -0.6256
18605TIP3    H277231   2.787   5.580   1.447  1.2010  0.3440 -0.7840
18606TIP3   OH277232   2.745   1.432   3.867  0.1575 -0.0956  0.3786
18606TIP3    H177233   2.695   1.507   3.836  0.5873 -0.3393 -0.9822
18606TIP3    H277234   2.679   1.367   3.891 -0.2416  1.0704  2.6040
18607TIP3   OH277235   0.808   4.609  17.237  0.0075 -0.1479 -0.1090
18607TIP3    H177236   0.867   4.576  17.169  0.6664  0.6425  0.0558
18607TIP3    H277237   0.777   4.693  17.203  0.8915  0.5885  0.8499
18608TIP3   OH277238   5.740   5.000  12.006 -0.4543 -0.2448 -0.5134
18608TIP3    H177239   5.745   5.084  12.053  0.8356  0.3561 -1.6337
18608TIP3    H277240   5.646   4.986  11.991 -0.8588 -0.2213  1.7596
18609TIP3   OH277241   5.362   4.896   5.874  0.1225 -0.3183 -0.0629
18609TIP3    H177242   5.448   4.934   5.857 -0.0612  0.7844  1.2902
18609TIP3    H277243   5.380   4.812   5.915  0.6738  1.2631  3.2388
18610TIP3   OH277244   6.679   6.374  15.420 -0.2583  0.3190 -0.8240
18610TIP3    H177245   6.706   6.464  15.437  0.9057 -0.0708 -0.5673
18610TIP3    H277246   6.668   6.370  15.325 -0.4208  0.7541 -0.8241
18611TIP3   OH277247   5.201   4.463  13.677 -0.3652 -0.1053 -0.1911
18611TIP3    H177248   5.139   4.410  13.627 -0.0492  0.0371 -0.7435
18611TIP3    H277249   5.149   4.536  13.710 -1.7832 -2.5962  3.8536
18612TIP3   OH277250   4.812   3.939   5.289  0.6250 -0.1404  0.1863
18612TIP3    H177251   4.858   3.947   5.205 -1.4761  0.3807 -0.9851
18612TIP3    H277252   4.866   3.990   5.350  2.0539 -0.2900 -0.8980
18613TIP3   OH277253   3.075   2.185   5.370 -0.5197  0.1544 -0.0748
18613TIP3    H177254   3.069   2.183   5.274  1.5150  1.1872 -0.2954
18613TIP3    H277255   3.168   2.200   5.387 -0.9185  0.4817  2.0741
18614TIP3   OH277256   1.881   0.692  15.943  0.2102  0.1500 -0.4052
18614TIP3    H177257   1.911   0.779  15.966 -0.4792 -0.3020  2.7290
18614TIP3    H277258   1.809   0.707  15.881  2.7580  1.4731 -3.2933
18615TIP3   OH277259   2.458   2.103  12.627  0.0990  0.1947 -0.1320
18615TIP3    H177260   2.437   2.087  12.719  1.8069  0.7244  0.3874
18615TIP3    H277261   2.473   2.016  12.591  2.3258  0.0806  0.8846
18616TIP3   OH277262   4.570   1.763  14.566  0.1734 -0.7407 -0.3046
18616TIP3    H177263   4.552   1.755  14.472  1.3946 -1.9860 -0.4615
18616TIP3    H277264   4.500   1.713  14.608 -0.7704  0.3836 -0.4876
18617TIP3   OH277265   0.569   5.264   0.889 -0.0217 -0.1498 -0.2762
18617TIP3    H177266   0.577   5.360   0.889  0.7069 -0.1266  2.5404
18617TIP3    H277267   0.478   5.248   0.913  0.0319 -0.1506 -0.0713
18618TIP3   OH277268   5.350   0.494  14.392  0.7462 -0.0515  0.6604
18618TIP3    H177269   5.291   0.551  14.441  2.7061 -0.5855  3.9022
18618TIP3    H277270   5.304   0.410  14.387  0.0476  0.3332  0.5453
18619TIP3   OH277271   4.918   3.131   1.116 -0.4848 -0.5928  0.3349
18619TIP3    H177272   4.841   3.127   1.173  0.6447  0.2407  2.0061
18619TIP3    H277273   4.916   3.219   1.079 -1.1963 -1.1213 -0.9328
18620TIP3   OH277274   5.149   0.168   0.487  0.4479 -0.4577 -0.4151
18620TIP3    H177275   5.095   0.093   0.510 -0.4266 -0.1937 -1.5392
18620TIP3    H277276   5.225   0.161   0.545 -0.8986 -0.6621  1.4222
18621TIP3   OH277277   5.366   6.378  13.706 -0.0257  0.5784  0.4789
18621TIP3    H177278   5.283   6.412  13.671  0.4622  1.8030  0.4625
18621TIP3    H277279   5.360   6.284  13.693 -1.8814  0.5073  1.4803
18622TIP3   OH277280   0.422   5.002   1.609 -0.1211  0.1360  0.4365
18622TIP3    H177281   0.368   4.936   1.652  1.1573 -0.6205  0.9344
18622TIP3    H277282   0.471   5.043   1.681  0.0201  0.7690 -0.0099
18623TIP3   OH277283   2.829   4.246   5.043  0.3507  0.3124  0.3158
18623TIP3    H177284   2.792   4.180   4.983  1.0016  0.1769  0.0489
18623TIP3    H277285   2.923   4.224   5.047  0.7827  1.8537 -0.6083
18624TIP3   OH277286   5.529   4.862   5.174 -0.1292  0.1294 -0.2393
18624TIP3    H177287   5.605   4.897   5.221  0.0577  0.8892 -1.0836
18624TIP3    H277288   5.490   4.938   5.132 -1.2085 -0.2996 -0.0476
18625TIP3   OH277289   0.703   4.094  15.251  0.3070  0.1375 -0.0132
18625TIP3    H177290   0.645   4.044  15.308  1.5511 -1.1279  0.1897
18625TIP3    H277291   0.767   4.133  15.310 -0.6100  2.0162 -0.1707
18626TIP3   OH277292   3.617   4.650  15.765  0.1528 -0.3289  0.3849
18626TIP3    H177293   3.680   4.723  15.768  1.2914 -1.3079  2.2282
18626TIP3    H277294   3.581   4.647  15.854 -0.1616 -1.7614  0.2229
18627TIP3   OH277295   0.717   0.565  15.736 -0.5235 -0.0069  0.0124
18627TIP3    H177296   0.710   0.644  15.791 -0.1283  0.8387 -1.0987
18627TIP3    H277297   0.654   0.504  15.774  0.1379  0.3214  1.7411
18628TIP3   OH277298   4.125   5.116  17.059  0.1905 -0.1636  0.6317
18628TIP3    H177299   4.146   5.209  17.070  1.4184 -0.3134 -0.2269
18628TIP3    H277300   4.164   5.092  16.975  1.5503 -1.9154  1.6863
18629TIP3   OH277301   5.863   1.665  15.647 -0.0652  0.0610 -0.3594
18629TIP3    H177302   5.890   1.578  15.618 -0.7001  0.0051 -0.7866
18629TIP3    H277303   5.785   1.685  15.596 -0.3357  0.5904  0.2439
18630TIP3   OH277304   1.422   1.052   4.288 -0.3247 -0.0109 -0.8971
18630TIP3    H177305   1.347   1.112   4.291 -0.4956 -0.2473 -0.4191
18630TIP3    H277306   1.389   0.975   4.241 -0.4347 -0.1910 -0.5230
18631TIP3   OH277307   4.363   3.995  17.117 -0.4073  0.5586 -1.0406
18631TIP3    H177308   4.449   3.975  17.081 -1.3500 -0.6950 -2.7936
18631TIP3    H277309   4.379   4.063  17.182  2.1287 -1.0077  0.0996
18632TIP3   OH277310   1.515   1.845  10.749 -0.2209  0.2341  0.3904
18632TIP3    H177311   1.446   1.797  10.702  0.0276 -0.7460  0.9937
18632TIP3    H277312   1.470   1.923  10.782 -1.1207 -0.4993  0.9688
18633TIP3   OH277313   0.467   3.214   1.232 -0.0290 -0.1424  0.6002
18633TIP3    H177314   0.392   3.177   1.279 -1.9581  1.5485 -0.9400
18633TIP3    H277315   0.520   3.138   1.207 -0.9641 -1.3535  2.1547
18634TIP3   OH277316   3.054   2.375   5.580  0.4131  0.3881 -0.0613
18634TIP3    H177317   3.018   2.311   5.641  0.6946  0.3452  0.0584
18634TIP3    H277318   3.060   2.327   5.497 -2.7360  1.2391 -0.9364
18635TIP3   OH277319   6.205   4.333  12.306 -0.2181  0.2030  0.1437
18635TIP3    H177320   6.174   4.275  12.376 -2.1336  0.7205 -0.2018
18635TIP3    H277321   6.293   4.303  12.287 -0.7460 -1.8973  0.7233
18636TIP3   OH277322   5.750   3.811  12.096  0.5215 -0.0311 -0.0181
18636TIP3    H177323   5.785   3.724  12.115 -1.4763 -0.7063  0.8020
18636TIP3    H277324   5.793   3.837  12.015  0.3113 -2.2974 -0.9175
18637TIP3   OH277325   6.492   5.036   3.880 -0.3228 -0.2117  0.2995
18637TIP3    H177326   6.464   4.972   3.946 -0.9427  0.6891  0.9512
18637TIP3    H277327   6.572   4.999   3.842  0.5350 -0.3860  2.1594
18638TIP3   OH277328   4.055   1.351   4.878  0.5310  0.1233  0.1038
18638TIP3    H177329   4.047   1.261   4.846  0.0354 -0.3361  1.4439
18638TIP3    H277330   4.088   1.400   4.803 -1.4424 -0.7103 -1.4206
18639TIP3   OH277331   3.900   0.299  13.456  0.5221  0.2049 -0.8611
18639TIP3    H177332   3.827   0.247  13.489  2.1404 -1.3257  0.4855
18639TIP3    H277333   3.917   0.264  13.368  0.2727 -0.1039 -0.7863
18640TIP3   OH277334   1.468   4.195   4.493 -0.2543 -0.1201  0.7887
18640TIP3    H177335   1.559   4.167   4.484 -0.5704 -0.7852 -0.5221
18640TIP3    H277336   1.432   4.190   4.405 -2.0106 -1.3905  1.5250
18641TIP3   OH277337   5.179   5.319  17.157 -0.1809 -0.0454  0.2795
18641TIP3    H177338   5.233   5.310  17.236  0.6697 -0.2797 -0.3161
18641TIP3    H277339   5.092   5.293  17.185  0.2463 -0.7672  0.9899
18642TIP3   OH277340   5.895   6.426   2.045  0.0126 -0.6402 -0.7220
18642TIP3    H177341   5.913   6.518   2.029  1.3355 -0.9721 -1.3702
18642TIP3    H277342   5.810   6.410   2.004  0.9449 -0.2690 -2.9200
18643TIP3   OH277343   0.553   5.037  12.062  0.4168 -0.7822  0.0736
18643TIP3    H177344   0.472   4.991  12.038  0.0659 -0.0929 -0.0917
18643TIP3    H277345   0.544   5.056  12.155  0.8251 -1.5632  0.2777
18644TIP3   OH277346   0.214   6.322  12.542 -0.1705 -0.0010 -0.0639
18644TIP3    H177347   0.240   6.352  12.455  0.6819  1.3362  0.6155
18644TIP3    H277348   0.254   6.236  12.551  0.1832  0.0800 -0.7860
18645TIP3   OH277349   3.634   2.090   5.105 -0.6287 -0.1352  0.0625
18645TIP3    H177350   3.556   2.142   5.085 -1.3236 -1.0633  0.2811
18645TIP3    H277351   3.667   2.062   5.020 -1.4568 -1.0322  0.0143
18646TIP3   OH277352   1.935   2.578   5.906  0.1347  0.3203 -0.1778
18646TIP3    H177353   2.021   2.615   5.884 -0.0137  0.8754  0.1590
18646TIP3    H277354   1.938   2.488   5.873  1.2422 -0.0224  0.7942
18647TIP3   OH277355   5.644   5.277   5.902 -0.5164 -0.1565  0.3673
18647TIP3    H177356   5.724   5.231   5.878  0.2438  0.6767  1.2412
18647TIP3    H277357   5.605   5.302   5.818 -0.0733 -0.9014 -0.0746
18648TIP3   OH277358   3.925   5.693   1.839 -0.0189 -0.9753  0.0610
18648TIP3    H177359   3.845   5.708   1.789  0.7971  0.9564 -0.7605
18648TIP3    H277360   3.940   5.599   1.832 -1.0313 -1.0538 -1.6159
18649TIP3   OH277361   6.154   0.882   4.181 -0.0582 -0.8719 -1.0787
18649TIP3    H177362   6.093   0.952   4.162 -1.9469 -2.1924 -0.2382
18649TIP3    H277363   6.137   0.816   4.113  1.5683 -0.6297 -1.7661
18650TIP3   OH277364   2.954   2.305   2.289 -0.3186  0.0957 -0.7835
18650TIP3    H177365   3.019   2.247   2.249  0.4919 -0.0781  0.7326
18650TIP3    H277366   2.871   2.258   2.278  0.1457 -0.7730 -0.6685
18651TIP3   OH277367   3.819   5.258  15.977 -0.5066  0.2274  0.0763
18651TIP3    H177368   3.891   5.304  15.933  0.1252 -1.5097 -0.7952
18651TIP3    H277369   3.753   5.245  15.908  0.4287 -2.3821 -0.4604
18652TIP3   OH277370   2.471   5.820  17.205  0.6615 -0.0977 -0.0213
18652TIP3    H177371   2.484   5.727  17.187 -0.1484 -0.0818 -0.7203
18652TIP3    H277372   2.437   5.856  17.124 -2.0806  0.1744  1.1286
18653TIP3   OH277373   1.589   1.307   2.318  0.2494  0.5056  0.1875
18653TIP3    H177374   1.616   1.235   2.375 -0.1049 -0.1246 -0.4263
18653TIP3    H277375   1.559   1.264   2.237  3.8138  1.4742 -1.8404
18654TIP3   OH277376   2.068   1.357   4.030 -0.2397 -0.1174 -0.6770
18654TIP3    H177377   2.101   1.445   4.046 -0.3015 -0.2296  0.1039
18654TIP3    H277378   1.984   1.355   4.077  0.4327 -1.0511  0.5457
18655TIP3   OH277379   3.970   1.660  12.624 -0.3581 -0.5749  0.5504
18655TIP3    H177380   3.883   1.627  12.601  0.2038 -0.7593 -1.5013
18655TIP3    H277381   4.012   1.587  12.670 -0.1758 -1.7308 -1.3403
18656TIP3   OH277382   6.590   2.462   4.372 -0.1868 -0.0503 -0.1245
18656TIP3    H177383   6.677   2.499   4.381  0.6139 -1.6781 -0.7195
18656TIP3    H277384   6.605   2.367   4.366 -2.0708 -0.4512  0.8081
18657TIP3   OH277385   1.623   1.502   6.038 -0.3872  0.3914  0.1749
18657TIP3    H177386   1.677   1.468   6.110  1.8922  1.8073 -0.7584
18657TIP3    H277387   1.606   1.593   6.063 -0.2014  0.6741 -0.7243
18658TIP3   OH277388   2.400   6.470   2.784  0.1991  0.2379  0.1671
18658TIP3    H177389   2.463   6.485   2.713  0.1733  0.1761  0.1304
18658TIP3    H277390   2.450   6.425   2.851  0.0779 -0.2497 -0.0623
18659TIP3   OH277391   0.266   4.083   5.597 -0.0073  0.0677 -0.4959
18659TIP3    H177392   0.253   4.084   5.692 -0.7901  0.2606 -0.6040
18659TIP3    H277393   0.277   4.175   5.573 -1.6208  0.2106 -0.8220
18660TIP3   OH277394   0.018   2.587   5.899  0.1989 -0.0333 -0.5204
18660TIP3    H177395  -0.013   2.544   5.819 -0.6199  0.5909 -0.5496
18660TIP3    H277396   0.099   2.541   5.920  0.0413 -0.7025 -1.2917
18661TIP3   OH277397   5.311   1.983   5.787  0.5487 -0.2755  0.0078
18661TIP3    H177398   5.291   1.977   5.693  0.0881  0.6714  0.0343
18661TIP3    H277399   5.275   1.902   5.824  2.1068 -1.3994 -0.8466
18662TIP3   OH277400   6.359   0.390   5.026 -0.1217  0.0800 -0.3255
18662TIP3    H177401   6.272   0.406   4.989 -0.0182 -0.7964 -0.9581
18662TIP3    H277402   6.341   0.359   5.115 -0.3487  2.9523  0.7331
18663TIP3   OH277403   0.565   2.245  15.234 -0.0488  0.1793  0.0914
18663TIP3    H177404   0.639   2.226  15.176 -0.9259  1.7223 -1.6616
18663TIP3    H277405   0.602   2.241  15.322  1.9219  0.0428 -0.6805
18664TIP3   OH277406   4.530   2.196   4.874 -0.1049 -0.2456  0.1466
18664TIP3    H177407   4.570   2.110   4.883  0.8742  0.2513  0.7326
18664TIP3    H277408   4.541   2.237   4.959 -2.0513 -0.1286  0.3889
18665TIP3   OH277409   5.240   3.222  10.314 -0.4573  0.0898 -0.7812
18665TIP3    H177410   5.318   3.262  10.276  2.1368 -1.3416  2.4552
18665TIP3    H277411   5.231   3.139  10.267 -1.2738  1.0857 -2.4533
18666TIP3   OH277412   2.384   2.454   1.381  0.0406  0.1349  0.0272
18666TIP3    H177413   2.296   2.434   1.351  0.8181 -2.1449 -0.9787
18666TIP3    H277414   2.383   2.548   1.399 -2.6714  0.0793  0.4453
18667TIP3   OH277415   1.380   0.494  12.223  0.3216  0.2147 -0.2052
18667TIP3    H177416   1.353   0.456  12.139  0.9054 -1.3626  0.2855
18667TIP3    H277417   1.470   0.523  12.208 -0.2639  1.8939 -0.7061
18668TIP3   OH277418   5.142   6.596   5.550  0.5879 -0.1697 -0.2933
18668TIP3    H177419   5.113   6.505   5.564  0.1771 -0.0021 -0.0269
18668TIP3    H277420   5.169   6.625   5.637 -0.7265  0.4568 -0.0783
18669TIP3   OH277421   4.296   4.568  13.292  0.0105 -0.2935  0.6453
18669TIP3    H177422   4.296   4.661  13.312  0.1368 -0.0608 -0.3695
18669TIP3    H277423   4.251   4.527  13.366 -1.2780  0.7082  0.4519
18670TIP3   OH277424   0.643   4.120  13.796 -0.3780  0.2858 -0.3049
18670TIP3    H177425   0.691   4.174  13.858 -0.6700 -0.1192  0.2872
18670TIP3    H277426   0.553   4.119  13.829 -0.3271 -0.7670 -0.1502
18671TIP3   OH277427   1.678   5.938   0.691  0.0936  0.0406  0.7988
18671TIP3    H177428   1.699   5.880   0.617 -1.0246  0.7068 -0.0678
18671TIP3    H277429   1.661   6.023   0.651  1.4692  0.9332  2.0349
18672TIP3   OH277430   0.913   2.044   6.150 -0.2665 -0.1466 -0.1729
18672TIP3    H177431   0.904   2.139   6.156  2.6300  0.1882  0.0329
18672TIP3    H277432   1.000   2.025   6.186 -0.4868 -2.8121 -0.8203
18673TIP3   OH277433   1.742   0.361   0.541  0.7123 -0.6372  0.4014
18673TIP3    H177434   1.820   0.310   0.564  1.2369  1.0906  2.9883
18673TIP3    H277435   1.761   0.449   0.574 -1.4437  0.4158 -0.9605
18674TIP3   OH277436   1.928   4.826  13.882  0.0658  0.4505  0.0815
18674TIP3    H177437   1.878   4.749  13.907 -1.2756  0.9647 -0.8825
18674TIP3    H277438   1.869   4.900  13.897  1.8332  1.5266  2.4380
18675TIP3   OH277439   5.358   5.008  14.658 -0.4081  0.3042  0.4358
18675TIP3    H177440   5.290   4.956  14.701 -0.9138  2.6052  2.7529
18675TIP3    H277441   5.309   5.070  14.603 -0.0154  0.2000 -0.0317
18676TIP3   OH277442   4.978   2.397   5.554  0.0184  0.1777 -0.2750
18676TIP3    H177443   4.988   2.442   5.470  0.0840 -1.3775 -1.1315
18676TIP3    H277444   4.883   2.389   5.565  0.0044  0.6263 -0.0633
18677TIP3   OH277445   2.937   2.351   0.237 -0.4364  0.3509 -0.0035
18677TIP3    H177446   2.938   2.446   0.248  1.6422  0.7962 -2.9156
18677TIP3    H277447   3.029   2.326   0.238 -0.6603 -1.0042 -2.9602
18678TIP3   OH277448   4.731   3.687   6.522 -0.0898 -0.3757  0.0258
18678TIP3    H177449   4.759   3.763   6.470  3.2977 -1.0640  0.5942
18678TIP3    H277450   4.752   3.711   6.612 -0.2189 -1.4988  0.3706
18679TIP3   OH277451   6.260   4.096  14.417 -0.9911  0.4476  0.8319
18679TIP3    H177452   6.298   4.112  14.331 -1.2235 -1.2778  0.3788
18679TIP3    H277453   6.243   4.002  14.419 -3.5488  0.8472  1.7229
18680TIP3   OH277454   6.417   1.712  12.225  0.4035  0.5585 -0.3878
18680TIP3    H177455   6.487   1.700  12.161  2.3182  1.7126  1.3585
18680TIP3    H277456   6.408   1.627  12.267 -0.5021 -0.0630 -1.7711
18681TIP3   OH277457   3.731   2.063  12.568 -0.1620 -0.9099 -0.0082
18681TIP3    H177458   3.647   2.020  12.586 -1.1217  0.5998 -0.6791
18681TIP3    H277459   3.726   2.147  12.614  0.8946 -0.7139 -0.2179
18682TIP3   OH277460   2.996   6.377  11.940  0.1468  0.4008 -0.1525
18682TIP3    H177461   2.901   6.388  11.935 -0.0068 -0.4593  0.6832
18682TIP3    H277462   3.027   6.458  11.980 -0.3346  0.2950  0.4379
18683TIP3   OH277463   5.029   3.336  13.907 -0.1057  0.4942 -0.1653
18683TIP3    H177464   4.957   3.280  13.881  1.7413 -2.0335 -0.2189
18683TIP3    H277465   5.042   3.394  13.832 -0.1277 -1.1331 -1.4974
18684TIP3   OH277466   0.621   1.447  13.064 -0.0227  0.2741 -0.1612
18684TIP3    H177467   0.579   1.482  13.142  0.2579 -0.4765  0.3352
18684TIP3    H277468   0.601   1.353  13.066 -0.1872  0.2738 -1.1055
18685TIP3   OH277469   2.162   5.409   3.231 -0.0493  0.0365 -0.3759
18685TIP3    H177470   2.162   5.440   3.322 -0.2130  0.4557 -0.5144
18685TIP3    H277471   2.084   5.355   3.224  0.0027 -0.0562 -0.2464
18686TIP3   OH277472   5.623   5.635  13.736 -0.1034  0.3748 -0.9391
18686TIP3    H177473   5.671   5.661  13.658 -1.0559 -0.7092 -1.9233
18686TIP3    H277474   5.537   5.676  13.726 -0.5583 -0.5671 -0.9540
18687TIP3   OH277475   4.186   0.971   3.771 -0.0596  0.5488  0.2142
18687TIP3    H177476   4.098   0.933   3.762 -0.0919  0.6805 -0.0343
18687TIP3    H277477   4.230   0.949   3.689  0.8591 -1.3579  1.1336
18688TIP3   OH277478   6.049   2.931  15.386 -0.3490  0.3839  0.1259
18688TIP3    H177479   6.031   2.989  15.313 -3.1170  0.1632  0.5354
18688TIP3    H277480   6.106   2.863  15.349  0.5406  1.7433 -1.0876
18689TIP3   OH277481   3.668   5.280  12.776 -0.3165  0.5908  0.0617
18689TIP3    H177482   3.620   5.266  12.857 -1.0044  1.0288 -0.2625
18689TIP3    H277483   3.611   5.244  12.708  1.2217 -1.8582 -0.0558
18690TIP3   OH277484   2.003   0.094   5.617  0.1058  0.3517  0.4198
18690TIP3    H177485   2.094   0.112   5.643  0.1836  0.7130 -0.0964
18690TIP3    H277486   1.954   0.169   5.649  0.0060  0.2060  0.6072
18691TIP3   OH277487   3.303   6.480  16.052 -0.3074 -0.3002 -0.2292
18691TIP3    H177488   3.231   6.453  16.109 -1.1968  0.1969 -1.0804
18691TIP3    H277489   3.261   6.497  15.967  0.8636 -0.2909 -0.8226
18692TIP3   OH277490   1.067   5.303  13.734 -0.1331  0.3401  0.2026
18692TIP3    H177491   1.009   5.227  13.730 -1.2578  1.1768  0.0638
18692TIP3    H277492   1.016   5.373  13.693 -0.0883  1.7844  2.4969
18693TIP3   OH277493   5.174   3.931  14.439 -0.1654 -0.5581 -0.1356
18693TIP3    H177494   5.170   3.959  14.347  0.1034 -1.6024 -0.4778
18693TIP3    H277495   5.094   3.879  14.452 -0.7893  0.5254  0.5670
18694TIP3   OH277496   6.268   4.804   0.318 -0.0826  0.2745  0.4171
18694TIP3    H177497   6.358   4.836   0.312  0.0121 -0.2283 -1.9364
18694TIP3    H277498   6.220   4.876   0.358  1.0627  1.2495  0.1037
18695TIP3   OH277499   4.215   3.265  17.203  0.0556 -0.3659  0.1378
18695TIP3    H177500   4.146   3.211  17.241  0.0719 -1.5384 -1.3991
18695TIP3    H277501   4.220   3.237  17.111  2.2567 -0.0087  0.0830
18696TIP3   OH277502   5.284   2.805   0.463 -0.0053 -0.5100 -0.2710
18696TIP3    H177503   5.257   2.871   0.526  0.5196 -1.7360  1.2862
18696TIP3    H277504   5.371   2.833   0.435 -0.6442  0.5720 -1.2471
18697TIP3   OH277505   4.447   6.369  14.899 -0.2761  0.3097  0.2500
18697TIP3    H177506   4.367   6.359  14.951 -0.5452  1.9189  0.2065
18697TIP3    H277507   4.477   6.458  14.917  0.2733  0.5118 -1.4254
18698TIP3   OH277508   4.145   3.251   2.262  0.2535  0.0862 -0.1257
18698TIP3    H177509   4.160   3.171   2.212 -0.2944  0.3852 -0.7730
18698TIP3    H277510   4.067   3.290   2.223  0.7958  1.1875 -0.1370
18699TIP3   OH277511   2.640   1.122   3.397 -0.1691  0.2989  0.2269
18699TIP3    H177512   2.688   1.205   3.394  0.0451  0.1516 -1.3446
18699TIP3    H277513   2.615   1.106   3.306  0.5802 -1.7975  0.3468
18700TIP3   OH277514   4.842   0.676  13.265  0.2226 -0.1460  0.3669
18700TIP3    H177515   4.776   0.708  13.203  0.6851 -1.6712 -0.9843
18700TIP3    H277516   4.792   0.641  13.338 -0.4328 -0.3575 -0.1752
18701TIP3   OH277517   0.458   0.140  11.195 -0.3502  0.4160  0.7373
18701TIP3    H177518   0.477   0.113  11.285 -0.3036  0.6875  0.8102
18701TIP3    H277519   0.408   0.067  11.159 -2.6080  1.3250  1.7935
18702TIP3   OH277520   1.820   3.325   2.258 -0.1633 -0.2641 -0.0252
18702TIP3    H177521   1.907   3.349   2.292  0.4852  0.4944 -2.0119
18702TIP3    H277522   1.764   3.319   2.335  1.4154  0.3394  1.2220
18703TIP3   OH277523   1.615   3.579   3.862 -0.0694  0.1017 -0.6947
18703TIP3    H177524   1.599   3.556   3.954  1.0249  0.0825 -0.4954
18703TIP3    H277525   1.609   3.675   3.861 -0.3824  0.0847 -0.6690
18704TIP3   OH277526   4.300   5.502  16.621  0.1064  0.6523  0.4387
18704TIP3    H177527   4.244   5.496  16.544  2.3735 -0.8369 -1.2309
18704TIP3    H277528   4.357   5.425  16.615  1.8917  1.7230  2.3675
18705TIP3   OH277529   2.493   6.242  15.181  0.2382  0.2235 -0.5278
18705TIP3    H177530   2.410   6.202  15.208  0.3902  0.5672  0.4590
18705TIP3    H277531   2.497   6.225  15.086 -2.7489  3.2859 -1.4080
18706TIP3   OH277532   5.555   6.719  16.031 -0.2283 -0.4704 -0.1325
18706TIP3    H177533   5.642   6.682  16.020 -0.3993 -0.6060 -1.1119
18706TIP3    H277534   5.563   6.810  16.002 -0.5663 -0.6796 -0.9059
18707TIP3   OH277535   1.312   2.523   0.025  0.0426 -0.6379 -0.4921
18707TIP3    H177536   1.375   2.549   0.092  0.3205  2.1108 -1.6918
18707TIP3    H277537   1.358   2.458  -0.028  1.2878  0.1092 -0.3705
18708TIP3   OH277538   3.096   4.144   1.713 -0.4259 -0.2698  0.5907
18708TIP3    H177539   3.068   4.074   1.653 -0.0898 -0.7920  1.0325
18708TIP3    H277540   3.035   4.138   1.786 -0.6005  0.1198  0.4795
18709TIP3   OH277541   0.038   2.831  14.586  0.2850 -0.3526 -0.7693
18709TIP3    H177542   0.127   2.864  14.597  0.3974 -0.5611 -1.0259
18709TIP3    H277543   0.021   2.781  14.665  0.0122  0.5337 -0.2553
18710TIP3   OH277544   2.804   6.223   3.070 -0.1476  0.0208 -0.4373
18710TIP3    H177545   2.829   6.236   2.978  0.4842 -0.7860 -0.3953
18710TIP3    H277546   2.885   6.195   3.113 -0.0303  1.9701  0.7401
18711TIP3   OH277547   0.213   1.176  14.845 -0.2251 -1.0268  0.6982
18711TIP3    H177548   0.227   1.229  14.924 -2.7341  1.1951 -0.1846
18711TIP3    H277549   0.118   1.173  14.835 -0.0177  0.3228 -3.1705
18712TIP3   OH277550   0.007   3.771  12.909 -0.4317 -0.1968  0.4228
18712TIP3    H177551   0.020   3.685  12.868  0.5770  0.3528 -0.4709
18712TIP3    H277552  -0.030   3.825  12.840 -2.0302 -0.1538  1.2767
18713TIP3   OH277553   5.182   0.149  11.897 -0.4638 -0.0325 -0.9720
18713TIP3    H177554   5.109   0.209  11.914 -0.5645  0.0412 -1.6189
18713TIP3    H277555   5.141   0.063  11.889 -0.6028  0.1242 -2.1576
18714TIP3   OH277556   0.382   2.627   2.674 -0.0443 -0.3445  0.4260
18714TIP3    H177557   0.300   2.600   2.714 -0.1711 -1.0685 -0.3047
18714TIP3    H277558   0.381   2.723   2.679 -1.4781 -0.2758 -0.6316
18715TIP3   OH277559   6.422   5.127  15.548  0.1235  0.5074 -0.0499
18715TIP3    H177560   6.487   5.196  15.557  1.6093 -1.0872  2.5617
18715TIP3    H277561   6.461   5.066  15.486  0.0788  0.6416 -0.2118
18716TIP3   OH277562   1.401   2.965  14.801 -0.3487  0.5948 -0.0844
18716TIP3    H177563   1.473   3.023  14.826  0.6273  0.0988 -1.5561
18716TIP3    H277564   1.325   3.022  14.793  0.1919  1.3647  0.1803
18717TIP3   OH277565   1.188   3.703  17.350 -0.3107 -0.4305 -0.4169
18717TIP3    H177566   1.244   3.779  17.337 -1.8266  0.6943 -0.5444
18717TIP3    H277567   1.243   3.628  17.325  1.3070  0.5661  0.0170
18718TIP3   OH277568   5.060   3.856  13.708 -0.1118  0.4228  0.0508
18718TIP3    H177569   5.134   3.916  13.715 -0.0889  0.2985  1.0125
18718TIP3    H277570   4.999   3.900  13.649  0.3090  0.9618  0.0112
18719TIP3   OH277571   1.194   2.494   5.076  0.7707 -0.6735  0.1393
18719TIP3    H177572   1.140   2.571   5.090  1.8859 -0.2111  2.5231
18719TIP3    H277573   1.225   2.502   4.986 -1.8474 -0.2042 -0.8055
18720TIP3   OH277574   4.799   4.924   0.328  0.4247 -0.7645  0.1936
18720TIP3    H177575   4.759   5.002   0.291  0.8008 -0.4943  0.3549
18720TIP3    H277576   4.863   4.957   0.391  0.7658 -1.1954  0.0765
18721TIP3   OH277577   2.406   6.303  13.317 -0.3768  0.0869 -0.2356
18721TIP3    H177578   2.376   6.390  13.292 -0.8851  0.2104  0.7437
18721TIP3    H277579   2.337   6.244  13.287  0.3643 -0.0872 -1.6566
18722TIP3   OH277580   2.653   5.023  16.186 -0.1475 -0.0703  0.4036
18722TIP3    H177581   2.633   4.969  16.262  2.5981 -1.8693  0.0196
18722TIP3    H277582   2.662   4.960  16.114 -1.0536  1.4043 -1.0519
18723TIP3   OH277583   6.661   0.666  13.930 -0.2495  0.6459 -0.2402
18723TIP3    H177584   6.684   0.744  13.982 -2.4930  1.5744 -0.5407
18723TIP3    H277585   6.695   0.685  13.843  2.9887 -0.6558  0.5714
18724TIP3   OH277586   1.541   2.392  11.124 -0.1942  0.4477 -0.3429
18724TIP3    H177587   1.523   2.298  11.118 -0.4223  0.4718 -0.0471
18724TIP3    H277588   1.456   2.431  11.143 -0.0158  0.6662  0.0092
18725TIP3   OH277589   3.238   2.556  11.745  0.0504  0.6651 -0.1981
18725TIP3    H177590   3.284   2.579  11.826 -2.5901  3.0682  0.7769
18725TIP3    H277591   3.268   2.621  11.681  2.9220 -1.8427 -1.6581
18726TIP3   OH277592   1.719   1.566   5.317  0.2358  0.3240  0.5597
18726TIP3    H177593   1.810   1.591   5.331  1.0031 -0.8123 -1.8784
18726TIP3    H277594   1.699   1.593   5.227 -1.6678  0.0703  0.8495
18727TIP3   OH277595   6.379   2.778  16.332  0.1821  0.5475  0.1244
18727TIP3    H177596   6.306   2.820  16.378 -1.1566 -2.9283  1.4834
18727TIP3    H277597   6.360   2.794  16.239 -0.5442  2.3483  0.5415
18728TIP3   OH277598   6.052   2.114   3.636  0.2177 -0.2883  0.4194
18728TIP3    H177599   6.064   2.209   3.635  1.6655 -0.1771  4.8634
18728TIP3    H277600   5.959   2.102   3.653 -0.2512  0.1875 -1.5657
18729TIP3   OH277601   1.059   4.615  11.336 -0.5471  0.2116  0.5458
18729TIP3    H177602   0.967   4.591  11.346 -0.6562  0.0107 -0.7349
18729TIP3    H277603   1.061   4.671  11.258  0.2815  1.0442  1.1399
18730TIP3   OH277604   2.501   4.633   3.526  0.5057 -0.3505  0.8608
18730TIP3    H177605   2.575   4.662   3.472  0.8610 -2.0736  0.3656
18730TIP3    H277606   2.435   4.702   3.515  0.7628 -0.3911 -1.3798
18731TIP3   OH277607   3.828   1.405   3.467  0.0155  0.4929  0.6532
18731TIP3    H177608   3.867   1.355   3.539 -0.2454  1.2896  1.3698
18731TIP3    H277609   3.839   1.497   3.494  0.0949  0.8060 -0.4228
18732TIP3   OH277610   0.892   1.335   4.997  0.0308 -0.6247  0.3683
18732TIP3    H177611   0.952   1.286   4.941  0.9743 -1.5760  2.1508
18732TIP3    H277612   0.829   1.270   5.028 -0.0958 -0.2341  0.9413
18733TIP3   OH277613   5.144   4.185  10.330 -0.7651  0.0566 -0.4133
18733TIP3    H177614   5.114   4.110  10.382  0.4496 -0.2886 -0.1751
18733TIP3    H277615   5.126   4.261  10.386  1.5040 -0.3872  1.0768
18734TIP3   OH277616   3.418   3.169  17.343 -0.0513  0.1451 -0.7267
18734TIP3    H177617   3.504   3.143  17.309  0.2893  0.7845 -0.3770
18734TIP3    H277618   3.436   3.245  17.399 -0.6345 -0.6750  0.6264
18735TIP3   OH277619   4.889   4.400  15.170 -0.3148  0.2072  0.3318
18735TIP3    H177620   4.835   4.459  15.117 -1.1407 -0.5423  0.3210
18735TIP3    H277621   4.953   4.364  15.108  0.1085  0.9888  0.3122
18736TIP3   OH277622   5.513   1.540  13.993  0.3164 -0.3075  0.0091
18736TIP3    H177623   5.443   1.562  13.931 -0.2131 -0.9226  0.3840
18736TIP3    H277624   5.494   1.594  14.070  0.2311 -0.4960  0.1216
18737TIP3   OH277625   2.940   6.225  15.126 -0.0685  0.2152  0.0675
18737TIP3    H177626   2.881   6.152  15.147 -0.4956  0.7077  0.6401
18737TIP3    H277627   3.019   6.207  15.176 -0.6529  0.7851  1.2611
18738TIP3   OH277628   5.733   1.140   0.742  0.7085  0.1136 -0.1216
18738TIP3    H177629   5.666   1.174   0.802 -1.7331  0.6002 -2.9386
18738TIP3    H277630   5.795   1.213   0.733  0.8242  0.2317  1.2840
18739TIP3   OH277631   1.501   5.542  15.216  0.5519  0.4975 -0.1009
18739TIP3    H177632   1.542   5.457  15.234 -1.7626 -0.8828 -0.9108
18739TIP3    H277633   1.414   5.534  15.254 -0.4305  1.7407 -1.9717
18740TIP3   OH277634   1.403   0.807   3.130  0.2792  0.1419  0.0671
18740TIP3    H177635   1.402   0.753   3.050 -0.9318  1.4535 -0.8487
18740TIP3    H277636   1.352   0.756   3.193  0.0330 -0.2755 -0.4510
18741TIP3   OH277637   6.012   3.056  14.956  0.1662  0.2640  0.2655
18741TIP3    H177638   6.016   2.970  14.997  2.3694  0.9740  1.7576
18741TIP3    H277639   6.071   3.050  14.881 -1.3988 -0.1197 -0.9691
18742TIP3   OH277640   1.072   4.706  13.318 -0.0494  0.0885 -0.3394
18742TIP3    H177641   1.022   4.625  13.309  1.0680 -0.6673  0.0173
18742TIP3    H277642   1.095   4.729  13.228  4.2113 -3.0355 -0.3779
18743TIP3   OH277643   6.179   3.315  15.217 -0.3181  0.2364  0.3036
18743TIP3    H177644   6.225   3.231  15.212 -1.2653 -0.3030  0.4209
18743TIP3    H277645   6.238   3.371  15.267 -0.2744 -0.7755  1.4457
18744TIP3   OH277646   5.871   2.601   0.167 -0.2634  0.1885 -0.3043
18744TIP3    H177647   5.885   2.659   0.242  1.0644  1.0493 -1.1730
18744TIP3    H277648   5.943   2.538   0.171 -1.3141 -1.0240  0.2415
18745TIP3   OH277649   0.275   2.073   4.379  0.3250  0.6394 -0.1992
18745TIP3    H177650   0.197   2.018   4.381  0.1712  0.8752  0.2925
18745TIP3    H277651   0.336   2.026   4.322 -0.5121  0.9034 -1.3426
18746TIP3   OH277652   2.068   5.369   2.514  0.0582  0.2721 -0.2363
18746TIP3    H177653   2.156   5.335   2.532  1.1060  2.7720 -0.2864
18746TIP3    H277654   2.041   5.324   2.433  0.4561 -1.9103  0.7849
18747TIP3   OH277655   5.881   6.447  11.886  0.4233 -0.0836  0.3913
18747TIP3    H177656   5.869   6.381  11.954  0.0728 -0.0753  0.3373
18747TIP3    H277657   5.873   6.399  11.804 -1.2465  0.2504  0.3268
18748TIP3   OH277658   4.736   2.272   4.655  0.4006 -0.1440 -0.6318
18748TIP3    H177659   4.814   2.323   4.676 -1.2568  2.0468  0.5631
18748TIP3    H277660   4.683   2.275   4.735 -0.5608 -2.3457 -1.0998
18749TIP3   OH277661   0.195   1.400  11.127  0.0855  0.4949 -0.8001
18749TIP3    H177662   0.158   1.440  11.205  1.8310 -0.5087  0.6162
18749TIP3    H277663   0.267   1.458  11.102  0.4905  0.0211 -0.7529
18750TIP3   OH277664   1.771   4.970   1.685 -0.2473  0.0865  0.3207
18750TIP3    H177665   1.683   4.998   1.662  0.6927  2.1417 -1.0427
18750TIP3    H277666   1.825   5.049   1.678  1.6641 -1.0067  1.4929
18751TIP3   OH277667   4.171   1.239  10.605 -0.1734  0.4674  0.2553
18751TIP3    H177668   4.186   1.331  10.626  1.3407  0.6506 -1.3875
18751TIP3    H277669   4.258   1.198  10.610 -0.7516 -0.7829  0.5164
18752TIP3   OH277670   2.493   1.613   3.828 -0.4261  0.2983 -0.1850
18752TIP3    H177671   2.401   1.636   3.812 -0.5796  1.8534  2.4122
18752TIP3    H277672   2.489   1.530   3.875 -0.4543  0.0644 -0.5961
18753TIP3   OH277673   2.534   0.731  12.325 -0.4338 -0.4825 -0.3652
18753TIP3    H177674   2.485   0.768  12.251 -1.0134  1.0056  0.7209
18753TIP3    H277675   2.550   0.805  12.383 -2.1913 -1.9556  2.2304
18754TIP3   OH277676   5.627   4.988   5.857 -0.0393  0.7054  0.9759
18754TIP3    H177677   5.664   4.901   5.842  5.2218  2.6610  0.4777
18754TIP3    H277678   5.647   5.007   5.949 -0.2247  1.7331  0.8107
18755TIP3   OH277679   2.752   0.330  13.207  0.1184 -0.4123 -0.3899
18755TIP3    H177680   2.733   0.392  13.277 -1.3135 -0.2800 -0.8504
18755TIP3    H277681   2.675   0.272  13.205 -1.1618  1.1334 -3.4464
18756TIP3   OH277682   5.772   2.709   4.942 -0.1703 -0.1518  0.7491
18756TIP3    H177683   5.679   2.722   4.923 -0.4741 -2.8963 -0.0906
18756TIP3    H277684   5.777   2.622   4.982  1.9907  0.1254  1.2200
18757TIP3   OH277685   1.269   0.392  11.994 -0.1304  0.2350  0.4037
18757TIP3    H177686   1.180   0.389  12.030 -0.5706 -2.2455 -0.6976
18757TIP3    H277687   1.297   0.301  11.991  1.7214  0.7849 -1.0816
18758TIP3   OH277688   1.157   1.631  14.675 -0.3274 -0.8493  0.3315
18758TIP3    H177689   1.163   1.691  14.749  1.0821 -1.3135  0.6292
18758TIP3    H277690   1.241   1.640  14.630 -0.7450 -1.3797 -0.5833
18759TIP3   OH277691   1.401   3.540   0.748  0.7241 -0.4148 -0.5051
18759TIP3    H177692   1.436   3.460   0.788  2.0348  0.0978 -0.5887
18759TIP3    H277693   1.478   3.595   0.732 -0.0169  0.3284 -1.6606
18760TIP3   OH277694   5.995   1.107   4.107 -0.2120 -0.4596  0.4850
18760TIP3    H177695   5.988   1.134   4.015 -0.2713 -0.5084  0.4752
18760TIP3    H277696   6.015   1.188   4.154  1.3681 -0.6717  0.2408
18761TIP3   OH277697   3.907   2.948   1.707 -0.0670 -0.3090 -0.4087
18761TIP3    H177698   3.910   3.015   1.639 -0.0372  0.8310  0.6750
18761TIP3    H277699   3.814   2.938   1.727 -0.0032  0.2569  0.2161
18762TIP3   OH277700   6.361   5.190   1.240 -0.4234  0.7187 -0.2387
18762TIP3    H177701   6.337   5.108   1.284  0.8958 -0.1636 -1.0754
18762TIP3    H277702   6.332   5.259   1.300 -1.0062 -0.3726  0.7800
18763TIP3   OH277703   4.060   3.155  14.842  0.0291  0.0333 -0.0030
18763TIP3    H177704   4.095   3.098  14.774 -0.3406 -1.0853  0.7090
18763TIP3    H277705   3.981   3.110  14.873 -0.5645  1.1861  0.2411
18764TIP3   OH277706   5.840   3.553   4.599  0.0960  0.3935  0.3376
18764TIP3    H177707   5.802   3.640   4.592  0.9481  0.8349  1.0067
18764TIP3    H277708   5.916   3.564   4.656  0.1576 -0.8070  0.5221
18765TIP3   OH277709   0.814   4.846  14.353 -0.2079  0.3187 -0.3970
18765TIP3    H177710   0.801   4.752  14.361  1.1162  0.0536 -1.1714
18765TIP3    H277711   0.907   4.860  14.368 -0.4890  1.5961  0.3765
18766TIP3   OH277712   4.911   0.674   6.184  0.0838  0.2307  0.1566
18766TIP3    H177713   4.892   0.592   6.229  0.5825  0.8754  1.6107
18766TIP3    H277714   5.006   0.673   6.171  0.2524  1.0221  1.1636
18767TIP3   OH277715   3.759   6.743   6.045  0.8813 -0.0126  0.1770
18767TIP3    H177716   3.702   6.712   5.975  1.4751  1.6027 -1.0874
18767TIP3    H277717   3.847   6.715   6.019  1.1501  0.8885  0.0940
18768TIP3   OH277718   3.293   1.918   2.217 -0.2400 -0.7246  0.2111
18768TIP3    H177719   3.258   1.865   2.289 -0.8827 -3.7084 -2.0761
18768TIP3    H277720   3.385   1.929   2.238 -0.6921 -0.2409  2.1413
18769TIP3   OH277721   2.584   6.741  13.334 -0.2398 -0.2704 -0.1746
18769TIP3    H177722   2.617   6.816  13.383 -1.3209 -0.0321  0.2178
18769TIP3    H277723   2.591   6.668  13.396 -1.5796  0.0253  0.3574
18770TIP3   OH277724   1.980   0.803  14.509  0.4566  0.5595 -0.0859
18770TIP3    H177725   2.019   0.723  14.543 -0.6788 -1.3097 -2.8152
18770TIP3    H277726   1.885   0.789  14.516  0.2387  1.9416 -0.0106
18771TIP3   OH277727   1.118   0.009  12.139 -0.3371 -0.3437  0.5386
18771TIP3    H177728   1.148  -0.069  12.185 -1.9078 -1.0957  0.3358
18771TIP3    H277729   1.177   0.079  12.169  0.8032 -1.4883  1.0667
18772TIP3   OH277730   3.649   5.524   4.618 -0.1090 -0.1537 -0.0815
18772TIP3    H177731   3.744   5.525   4.612 -0.1268 -1.1156 -0.8224
18772TIP3    H277732   3.631   5.496   4.708  0.3401 -1.5665 -0.4014
18773TIP3   OH277733   6.029   0.392  16.094 -0.3156  0.2333 -0.2278
18773TIP3    H177734   5.976   0.445  16.034 -0.3369  2.5171  1.6629
18773TIP3    H277735   5.969   0.326  16.129 -0.6088 -0.3160 -1.6995
18774TIP3   OH277736   6.370   0.259  15.164  0.7924 -0.8398  0.1029
18774TIP3    H177737   6.335   0.344  15.190  2.6373 -0.4560  1.5626
18774TIP3    H277738   6.309   0.228  15.097 -0.5981  1.0730  0.3760
18775TIP3   OH277739   5.291   6.674   0.426 -0.2597  0.4108  0.3157
18775TIP3    H177740   5.350   6.599   0.424 -0.2673  0.3123 -3.1575
18775TIP3    H277741   5.300   6.710   0.514  1.8021 -2.0232  1.2206
18776TIP3   OH277742   5.159   6.593   0.939 -0.6008 -0.7757 -0.2107
18776TIP3    H177743   5.223   6.587   0.868  1.4296 -1.7756  1.5815
18776TIP3    H277744   5.147   6.502   0.968 -1.9971 -0.4709  0.2320
18777TIP3   OH277745   5.500   6.299   4.504 -0.0490 -0.0046  0.5499
18777TIP3    H177746   5.503   6.216   4.551 -1.1611 -0.7454 -0.6480
18777TIP3    H277747   5.592   6.328   4.501  0.4577 -1.5886  0.2602
18778TIP3   OH277748   3.281   0.809  14.880  0.7078 -0.5551  0.0230
18778TIP3    H177749   3.321   0.728  14.849  0.6543 -1.1148  1.3620
18778TIP3    H277750   3.214   0.830  14.815 -1.2564 -3.1385  1.0653
18779TIP3   OH277751   1.446   6.333   6.544  0.6390  0.0203 -0.1624
18779TIP3    H177752   1.466   6.320   6.636 -0.1073  0.0341  0.0027
18779TIP3    H277753   1.527   6.310   6.499  0.9307 -0.2252  0.4767
18780TIP3   OH277754   6.744   6.327  12.101 -0.2615 -0.7948  0.3819
18780TIP3    H177755   6.701   6.273  12.034 -0.9588 -0.3221  0.4425
18780TIP3    H277756   6.749   6.270  12.178  0.9207 -1.4897 -0.1727
18781TIP3   OH277757   6.406   0.604  13.272  0.2179  0.3575  0.3154
18781TIP3    H177758   6.378   0.644  13.354 -0.5463  0.9070 -0.1995
18781TIP3    H277759   6.325   0.595  13.221  0.7332  0.3967 -0.5289
18782TIP3   OH277760   3.800   2.108   3.945  0.5986  1.1478  0.4746
18782TIP3    H177761   3.849   2.065   4.015  0.2762 -0.4876 -0.2553
18782TIP3    H277762   3.812   2.202   3.962  2.0596  0.8018  1.6256
18783TIP3   OH277763   3.615   1.729   5.726  0.3457  0.4034  0.8992
18783TIP3    H177764   3.671   1.666   5.679  0.7998  1.4643 -0.0172
18783TIP3    H277765   3.630   1.812   5.682 -2.3917  0.6537  0.2463
18784TIP3   OH277766   5.816   1.507  15.249  0.5092 -0.1260  0.1738
18784TIP3    H177767   5.907   1.493  15.274 -0.1736 -2.2858  1.6831
18784TIP3    H277768   5.792   1.590  15.291  1.7779  0.5873 -0.4355
18785TIP3   OH277769   0.285   5.413  13.237  0.0544 -0.1406  0.0741
18785TIP3    H177770   0.369   5.446  13.267 -0.5188  0.1123  1.4717
18785TIP3    H277771   0.306   5.353  13.166  1.5895 -1.6880  1.7407
18786TIP3   OH277772   5.666   1.533  13.547  0.2832 -0.1179  0.3305
18786TIP3    H177773   5.574   1.506  13.555  0.9514 -2.7381 -0.0634
18786TIP3    H277774   5.713   1.453  13.527  2.5803  1.3107 -0.3692
18787TIP3   OH277775   0.356   2.438  15.517  0.1562  0.9191 -0.2400
18787TIP3    H177776   0.421   2.478  15.459 -1.5743  0.3004 -2.7470
18787TIP3    H277777   0.280   2.496  15.510 -1.2690 -0.9852 -1.3789
18788TIP3   OH277778   3.111   5.629  14.971 -0.2750  0.3236 -0.0882
18788TIP3    H177779   3.085   5.537  14.972 -1.1880  0.5697 -0.2973
18788TIP3    H277780   3.059   5.670  15.040  0.0590  0.7042 -0.0577
18789TIP3   OH277781   4.206   0.558  12.475  0.5888 -0.4311 -0.7801
18789TIP3    H177782   4.161   0.585  12.394  0.0300 -2.6707 -1.2714
18789TIP3    H277783   4.145   0.584  12.545 -0.3174 -1.1491 -1.2784
18790TIP3   OH277784   5.103   1.235   3.363 -0.0742 -0.3726  0.6250
18790TIP3    H177785   5.118   1.329   3.358  0.6473 -0.4574  1.1451
18790TIP3    H277786   5.183   1.196   3.327 -0.7050 -0.7833 -0.3783
18791TIP3   OH277787   4.892   3.030   0.054  0.3956 -0.2590 -0.4352
18791TIP3    H177788   4.988   3.036   0.058  0.3712 -0.2231  0.2261
18791TIP3    H277789   4.875   2.941   0.025  0.6333 -0.2636 -0.5614
18792TIP3   OH277790   0.165   2.455  14.767 -0.0592  0.1788 -0.1983
18792TIP3    H177791   0.079   2.422  14.741  0.1883 -0.5166 -0.1615
18792TIP3    H277792   0.211   2.469  14.684 -0.3356  0.9188 -0.2325
18793TIP3   OH277793   0.617   4.686   3.078  0.2888 -0.4962 -0.2990
18793TIP3    H177794   0.694   4.737   3.052  1.3207 -2.2610 -0.9045
18793TIP3    H277795   0.629   4.671   3.172  0.8538 -1.0059 -0.4468
18794TIP3   OH277796   0.899   0.283  15.340 -0.0409 -0.1858 -0.2439
18794TIP3    H177797   0.982   0.242  15.317  0.3058 -0.1838  0.9617
18794TIP3    H277798   0.918   0.337  15.416 -1.3591 -1.0335  0.7332
18795TIP3   OH277799   6.130   4.134   4.086 -0.0010  0.6262 -0.1202
18795TIP3    H177800   6.166   4.047   4.101 -0.6015  0.3120 -0.4460
18795TIP3    H277801   6.071   4.149   4.160 -0.0951  0.6439 -0.1974
18796TIP3   OH277802   2.481   4.685  15.795 -0.0550 -0.5565 -0.2698
18796TIP3    H177803   2.488   4.591  15.810 -0.2485 -0.7067 -1.0558
18796TIP3    H277804   2.506   4.697  15.703  2.1886  0.4348  0.4094
18797TIP3   OH277805   1.717   3.760  13.727 -0.3378  0.1912 -0.2741
18797TIP3    H177806   1.663   3.839  13.722  0.2806  0.6898  0.5962
18797TIP3    H277807   1.807   3.793  13.733 -0.0623 -0.5768 -0.0343
18798TIP3   OH277808   5.733   5.442   6.201 -0.0384 -1.0482 -0.0579
18798TIP3    H177809   5.825   5.441   6.173 -0.5511 -0.4173 -1.9788
18798TIP3    H277810   5.687   5.397   6.130 -1.4679  0.7346 -0.3162
18799TIP3   OH277811   1.613   1.803  11.867  0.0648 -0.3033 -0.0228
18799TIP3    H177812   1.681   1.865  11.841  1.3844 -1.3643  0.7514
18799TIP3    H277813   1.652   1.717  11.850 -1.0157 -0.9470  0.6405
18800TIP3   OH277814   1.058   4.748   4.465  0.6049 -0.1545  0.0839
18800TIP3    H177815   1.065   4.794   4.549 -0.3502 -0.6888  0.4674
18800TIP3    H277816   1.056   4.656   4.489 -1.3026 -0.2650 -0.3986
18801TIP3   OH277817   0.969   6.267   5.708 -0.3243  0.3917 -0.1978
18801TIP3    H177818   0.894   6.317   5.678 -2.5541 -3.4903 -1.8469
18801TIP3    H277819   0.980   6.292   5.800 -3.6754  1.1183  0.1253
18802TIP3   OH277820   4.936   2.716  15.233  0.2845  0.2218  0.8124
18802TIP3    H177821   4.849   2.709  15.273  0.2260 -1.6265  0.4239
18802TIP3    H277822   4.981   2.635  15.258  2.2889  1.5414  1.8144
18803TIP3   OH277823   3.628   4.504   0.944 -0.4268  0.3429  0.5687
18803TIP3    H177824   3.607   4.534   1.032  0.1604 -0.9775  1.1905
18803TIP3    H277825   3.697   4.563   0.914  0.1301  0.1468  1.4318
18804TIP3   OH277826   3.677   5.592   5.300 -0.4632 -0.2202  0.2789
18804TIP3    H177827   3.704   5.663   5.242 -0.9235  0.5770  0.9907
18804TIP3    H277828   3.737   5.598   5.374 -0.7507 -0.3031  0.5233
18805TIP3   OH277829   2.118   1.815  12.125  0.0785  0.4166 -0.6226
18805TIP3    H177830   2.131   1.900  12.082  0.1885  0.1627 -1.1036
18805TIP3    H277831   2.025   1.795  12.110 -0.1968  0.9128  0.3601
18806TIP3   OH277832   5.778   0.716  16.301  0.1726  0.3456 -0.1950
18806TIP3    H177833   5.788   0.684  16.212  1.4170 -0.1281  0.1075
18806TIP3    H277834   5.862   0.755  16.323  0.3887 -0.8942  1.3046
18807TIP3   OH277835   0.573   5.031  12.389 -0.1092  0.2126 -0.0792
18807TIP3    H177836   0.564   4.937  12.374  2.0424 -0.4709  2.1170
18807TIP3    H277837   0.515   5.049  12.463  1.3799 -0.0463  1.2300
18808TIP3   OH277838   6.197   5.137  15.957 -0.1597 -0.8127 -0.5688
18808TIP3    H177839   6.124   5.175  15.909  0.2594  0.5162 -0.1889
18808TIP3    H277840   6.270   5.197  15.943  0.4396 -1.2959  0.3308
18809TIP3   OH277841   0.839   1.757   5.471 -0.2284 -0.0289  0.3185
18809TIP3    H177842   0.846   1.673   5.517 -0.2605 -0.5119 -0.5440
18809TIP3    H277843   0.821   1.733   5.380  3.5935  0.7480 -0.8022
18810TIP3   OH277844   3.524   6.421   2.011 -0.5480  0.4319 -0.5314
18810TIP3    H177845   3.600   6.464   1.970 -0.6068  2.0438  0.9040
18810TIP3    H277846   3.456   6.488   2.011 -1.0096 -0.0021  0.8301
18811TIP3   OH277847   1.664   2.565  10.957 -0.4841 -0.0172 -0.1217
18811TIP3    H177848   1.647   2.486  11.009 -0.1854  0.9268  1.4584
18811TIP3    H277849   1.594   2.626  10.982  0.8638  1.2095  0.7927
18812TIP3   OH277850   6.222   3.266   2.640  0.1345  0.3658  0.4413
18812TIP3    H177851   6.239   3.360   2.643  0.4182  0.3214  0.2800
18812TIP3    H277852   6.220   3.245   2.547 -1.2864  0.4476  0.4207
18813TIP3   OH277853   2.771   2.104  11.320 -0.3426 -0.0738  0.1592
18813TIP3    H177854   2.752   2.100  11.226 -2.0681 -0.5298  0.4829
18813TIP3    H277855   2.791   2.196  11.337 -0.9973  0.2014 -0.5047
18814TIP3   OH277856   1.302   1.179   1.163 -0.6409 -0.3697  0.4338
18814TIP3    H177857   1.272   1.107   1.108  0.5417 -1.9637  1.7533
18814TIP3    H277858   1.280   1.258   1.114 -3.1003 -1.5488 -0.5280
18815TIP3   OH277859   1.508   2.059  13.994  0.4363 -0.0893  0.4848
18815TIP3    H177860   1.487   2.152  14.001 -2.1806 -0.6811  1.4864
18815TIP3    H277861   1.471   2.032  13.910 -0.5605 -0.5896  1.0623
18816TIP3   OH277862   2.668   5.454   5.130 -0.7495  0.0452  0.3687
18816TIP3    H177863   2.609   5.427   5.060 -0.7352 -0.5796  0.5891
18816TIP3    H277864   2.651   5.392   5.202 -0.0498  0.0434  0.5450
18817TIP3   OH277865   2.960   4.078  13.447  0.0916  0.6349 -0.2898
18817TIP3    H177866   2.872   4.094  13.481 -0.6601 -1.2842 -1.1750
18817TIP3    H277867   2.978   4.153  13.390 -0.3554  1.7586  1.0145
18818TIP3   OH277868   1.632   5.425  12.306 -0.4111  0.8494  0.1168
18818TIP3    H177869   1.728   5.421  12.301 -0.3735  1.2546  0.4973
18818TIP3    H277870   1.603   5.411  12.216  0.0070  0.7618 -0.0069
18819TIP3   OH277871   2.975   4.355  11.298  0.8209 -0.3736 -0.3640
18819TIP3    H177872   3.028   4.402  11.362  0.7334 -0.0933 -0.4967
18819TIP3    H277873   3.038   4.327  11.231  0.7164  0.5106 -0.8475
18820TIP3   OH277874   6.531   6.678   2.460  0.2877  0.8448  0.3756
18820TIP3    H177875   6.542   6.608   2.397  1.9289  1.1795  0.2500
18820TIP3    H277876   6.437   6.696   2.461 -0.0141 -0.6295 -0.3535
18821TIP3   OH277877   3.261   0.822   0.225 -0.4162 -1.0398 -0.0768
18821TIP3    H177878   3.354   0.835   0.246 -0.5337 -0.4235  0.0951
18821TIP3    H277879   3.250   0.727   0.224 -0.7712 -1.2792  4.4439
18822TIP3   OH277880   3.490   4.085   4.995  0.3692  0.0741  0.3412
18822TIP3    H177881   3.543   4.163   4.981  1.4992 -1.0046 -1.9559
18822TIP3    H277882   3.425   4.086   4.925 -1.0493  0.0400  1.6006
18823TIP3   OH277883   2.285   3.851  12.784  0.0637 -0.3771 -0.3804
18823TIP3    H177884   2.353   3.797  12.826 -0.2801 -0.8480 -0.4255
18823TIP3    H277885   2.319   3.940  12.789  1.3645 -0.7491 -1.6708
18824TIP3   OH277886   4.063   2.494   6.564  0.3430 -0.3499 -0.4103
18824TIP3    H177887   4.037   2.581   6.595  0.3767 -0.2257 -0.7279
18824TIP3    H277888   4.025   2.433   6.628 -0.8518 -0.1819 -0.9389
18825TIP3   OH277889   0.797   1.576   6.758 -0.1495  0.3138 -0.0438
18825TIP3    H177890   0.781   1.491   6.717 -1.2866  0.0661  0.8733
18825TIP3    H277891   0.800   1.557   6.852  0.6275  1.1379  0.1116
18826TIP3   OH277892   1.786   4.387   2.017  0.2615  0.1536 -0.4337
18826TIP3    H177893   1.722   4.318   1.996  0.0603  0.5111 -1.0104
18826TIP3    H277894   1.871   4.347   2.000  0.1290  0.1928 -1.2207
18827TIP3   OH277895   6.470   0.583   2.902  0.1478 -0.3943 -0.9982
18827TIP3    H177896   6.431   0.660   2.858  1.2422 -0.6178 -2.4628
18827TIP3    H277897   6.395   0.528   2.924 -0.5157  0.0861 -1.9446
18828TIP3   OH277898   6.159   2.721   0.971 -0.2114  0.0917 -0.1607
18828TIP3    H177899   6.165   2.802   0.921 -1.1866  0.9302  1.0028
18828TIP3    H277900   6.093   2.669   0.925 -0.5221  0.5182 -0.2032
18829TIP3   OH277901   3.567   5.935   0.945  0.0988  0.0892 -0.0540
18829TIP3    H177902   3.575   6.003   0.878  0.8915 -0.3514 -0.4273
18829TIP3    H277903   3.654   5.933   0.987 -0.4879  0.5987  1.2296
18830TIP3   OH277904   3.393   5.129   2.813 -0.4334  0.7343  0.0880
18830TIP3    H177905   3.368   5.208   2.765  0.7453 -0.2868 -2.3388
18830TIP3    H277906   3.309   5.094   2.845 -1.4419  0.9088 -2.1714
18831TIP3   OH277907   1.843   0.474   2.855  1.0547 -0.3289 -0.1396
18831TIP3    H177908   1.821   0.383   2.834  1.0668 -0.1640 -0.8621
18831TIP3    H277909   1.871   0.470   2.947  2.3205 -1.2781 -0.5434
18832TIP3   OH277910   3.489   4.639   1.622  0.6924  0.0725  0.2525
18832TIP3    H177911   3.507   4.561   1.674 -0.0877  0.1519  0.6460
18832TIP3    H277912   3.488   4.607   1.531 -0.2851 -0.4992  0.4612
18833TIP3   OH277913   0.940   5.695   4.370 -0.0221  0.0714  0.5086
18833TIP3    H177914   0.902   5.781   4.350 -1.5012 -0.3981  1.1446
18833TIP3    H277915   0.997   5.676   4.295 -1.0961  0.8009 -0.5356
18834TIP3   OH277916   4.882   6.498  10.793 -0.1721 -0.0398  0.0845
18834TIP3    H177917   4.867   6.421  10.848  1.7703 -0.4969  0.0480
18834TIP3    H277918   4.971   6.527  10.816 -0.3608  1.3884 -0.8645
18835TIP3   OH277919   1.814   1.503  14.661 -0.0094  0.6159  0.4225
18835TIP3    H177920   1.833   1.557  14.584 -1.1117  1.3984  0.6760
18835TIP3    H277921   1.839   1.557  14.735  1.6333 -0.3710  0.6354
18836TIP3   OH277922   5.518   1.829   0.490 -0.3269  0.4650  0.3587
18836TIP3    H177923   5.582   1.826   0.418 -1.3648 -0.3297 -0.5770
18836TIP3    H277924   5.476   1.915   0.481  0.2490  0.7817  0.6586
18837TIP3   OH277925   3.754   5.097  16.864 -0.0937  0.0402 -1.0373
18837TIP3    H177926   3.798   5.118  16.946 -2.2657  2.0440 -0.2792
18837TIP3    H277927   3.697   5.172  16.847 -1.4014 -1.3216 -3.1959
18838TIP3   OH277928   4.837   6.386   4.894 -0.6806  0.1182 -0.9008
18838TIP3    H177929   4.913   6.340   4.860 -0.4990 -1.5877  1.5383
18838TIP3    H277930   4.762   6.349   4.847 -0.1891  0.3965 -1.9249
18839TIP3   OH277931   2.343   1.917   1.946  0.7914 -0.0696 -0.8397
18839TIP3    H177932   2.394   1.966   2.012 -0.7517  1.0778 -0.4372
18839TIP3    H277933   2.341   1.976   1.870 -1.8128  0.9813 -0.0558
18840TIP3   OH277934   5.789   1.762   4.500  0.2183  0.3358  0.6087
18840TIP3    H177935   5.732   1.692   4.533 -0.9346  1.5666  1.3078
18840TIP3    H277936   5.845   1.785   4.574  1.1777 -0.3731  0.1342
18841TIP3   OH277937   4.373   2.032  14.920 -0.3695  0.6998 -0.1367
18841TIP3    H177938   4.420   2.088  14.859 -0.2858  2.4461  1.4267
18841TIP3    H277939   4.281   2.057  14.910 -0.4941  0.1746 -0.3411
18842TIP3   OH277940   1.270   4.577  11.094  0.2388  0.5468 -0.1116
18842TIP3    H177941   1.209   4.640  11.056  1.0209  0.9705 -0.6886
18842TIP3    H277942   1.216   4.500  11.113 -0.1911  0.3121 -2.1130
18843TIP3   OH277943   3.728   3.792   2.129 -0.2516 -0.2968 -0.5734
18843TIP3    H177944   3.741   3.869   2.074 -2.0624  0.0692 -0.5574
18843TIP3    H277945   3.769   3.815   2.212  1.6072 -0.4575 -1.3828
18844TIP3   OH277946   4.140   6.041   4.703  0.3740  0.2216 -0.2190
18844TIP3    H177947   4.197   6.107   4.744  1.4216 -0.1643 -0.9974
18844TIP3    H277948   4.195   5.962   4.698 -0.3152 -0.2361 -0.7710
18845TIP3   OH277949   4.914   1.774   2.368 -0.3736 -0.7485 -0.3146
18845TIP3    H177950   4.862   1.854   2.371 -0.2112 -0.6655  1.4308
18845TIP3    H277951   4.850   1.703   2.367 -0.5341 -0.6372 -2.8279
18846TIP3   OH277952   4.073   0.535  11.349  0.1049  0.1081 -0.5371
18846TIP3    H177953   4.046   0.444  11.359 -0.2424 -0.0546 -2.5255
18846TIP3    H277954   4.136   0.533  11.277  2.0144  1.1241  1.0144
18847TIP3   OH277955   0.058   0.430   3.864  0.0250  0.8582  0.1594
18847TIP3    H177956  -0.034   0.436   3.835  0.3918  1.9545 -0.8971
18847TIP3    H277957   0.091   0.519   3.853  2.0247 -0.0856 -2.2884
18848TIP3   OH277958   3.026   3.817   3.996 -0.0362 -0.3171  0.2064
18848TIP3    H177959   3.062   3.747   4.051 -1.4329 -1.1355  0.1359
18848TIP3    H277960   3.076   3.895   4.020  1.3017 -1.2581  0.5644
18849TIP3   OH277961   3.196   3.072   1.191 -0.6947 -0.0632  0.9071
18849TIP3    H177962   3.277   3.043   1.150 -0.0464 -1.0232  2.7282
18849TIP3    H277963   3.127   3.049   1.128  0.2114 -1.7727  0.4865
18850TIP3   OH277964   3.618   4.592  16.550  0.1009  0.7569  0.4899
18850TIP3    H177965   3.645   4.508  16.589 -0.0416  0.1512 -0.6735
18850TIP3    H277966   3.539   4.570  16.500  0.9566  1.2315 -1.1410
18851TIP3   OH277967   1.131   4.598   1.873 -0.8597 -0.1876  0.3511
18851TIP3    H177968   1.183   4.677   1.860  0.7882 -1.3335 -0.4830
18851TIP3    H277969   1.085   4.612   1.955  0.2504  1.1977  0.7694
18852TIP3   OH277970   3.805   5.110   1.622 -0.1504 -0.0661 -0.0014
18852TIP3    H177971   3.870   5.110   1.692  0.9578  2.1048 -0.9285
18852TIP3    H277972   3.832   5.038   1.564 -1.0101 -1.7987  1.6392
18853TIP3   OH277973   3.003   5.184   3.889  0.2073 -0.2528  0.2857
18853TIP3    H177974   2.977   5.260   3.837  2.4016 -0.5387 -1.3695
18853TIP3    H277975   3.064   5.218   3.955 -0.1474 -0.3381  0.6627
18854TIP3   OH277976   5.689   5.002   4.733  0.5896 -0.6286  0.1686
18854TIP3    H177977   5.670   5.016   4.640  2.2452  1.5457  0.0715
18854TIP3    H277978   5.654   5.080   4.777 -0.3708 -1.7320  1.4413
18855TIP3   OH277979   1.414   4.080  13.795  0.0210 -0.2399 -0.0546
18855TIP3    H177980   1.479   4.134  13.750  0.7746 -0.1713  1.0921
18855TIP3    H277981   1.341   4.140  13.811  0.5685  0.2790  0.5856
18856TIP3   OH277982   6.280   3.726  14.011 -0.3325  0.0855  0.5420
18856TIP3    H177983   6.340   3.663  14.050 -1.8051 -1.0458  1.0753
18856TIP3    H277984   6.335   3.802  13.990  1.2803 -0.9433  0.8795
18857TIP3   OH277985   3.599   1.847   4.834  0.1179  0.3507  0.1206
18857TIP3    H177986   3.666   1.914   4.849  1.6155 -0.4685 -2.3644
18857TIP3    H277987   3.609   1.786   4.908  1.5724  0.7002  0.2428
18858TIP3   OH277988   6.450   1.806   3.709  0.5981  0.1237 -0.1894
18858TIP3    H177989   6.450   1.807   3.805 -0.5791  0.4442 -0.1819
18858TIP3    H277990   6.475   1.716   3.686  0.0561 -0.1911  0.4243
18859TIP3   OH277991   5.286   0.159   5.664  0.6241 -0.3485 -0.0021
18859TIP3    H177992   5.256   0.088   5.721 -1.9995 -0.2504 -1.1003
18859TIP3    H277993   5.373   0.132   5.636  0.3211 -2.3781  0.8120
18860TIP3   OH277994   3.682   6.635   5.374 -0.0991  0.0091 -0.1656
18860TIP3    H177995   3.639   6.614   5.457 -2.6851  2.1521 -0.8083
18860TIP3    H277996   3.724   6.554   5.347 -1.1477 -1.3843  2.0937
18861TIP3   OH277997   0.719   2.437   4.453  0.0577 -0.2273 -0.4770
18861TIP3    H177998   0.673   2.434   4.369  0.5355 -0.2775 -0.7410
18861TIP3    H277999   0.749   2.528   4.462  1.2889 -0.5544 -1.0713
18862TIP3   OH278000   2.715   5.951   2.879  0.1929 -0.4670  0.2853
18862TIP3    H178001   2.715   6.042   2.850 -0.5867 -0.3399  0.6560
18862TIP3    H278002   2.806   5.933   2.900  0.6215 -0.2667 -1.2765
18863TIP3   OH278003   6.651   5.934  16.827  0.1292  0.0821 -0.3394
18863TIP3    H178004   6.672   5.887  16.746 -0.9157 -0.2511 -0.4260
18863TIP3    H278005   6.557   5.920  16.840  0.4477 -0.7179  1.4645
18864TIP3   OH278006   1.236   2.636  13.566  0.2375  0.0721 -0.2839
18864TIP3    H178007   1.170   2.641  13.635 -0.0980  0.8350 -0.6466
18864TIP3    H278008   1.233   2.545  13.537 -0.8124  0.1479 -0.4461
18865TIP3   OH278009   6.477   4.077   1.475 -0.1394 -0.1037  0.2788
18865TIP3    H178010   6.569   4.081   1.504 -0.4095  2.5456  1.0084
18865TIP3    H278011   6.427   4.111   1.549 -1.3469  1.9748 -1.3970
18866TIP3   OH278012   1.076   3.790  13.570 -1.0232 -0.3744  0.3617
18866TIP3    H178013   1.056   3.714  13.625 -1.8969  0.3772  1.1074
18866TIP3    H278014   1.144   3.758  13.510 -0.3021 -1.3170  1.6206
18867TIP3   OH278015   4.375   5.030   2.105 -0.4612 -0.8404 -0.3080
18867TIP3    H178016   4.375   5.109   2.160 -0.3092 -0.8555 -0.2868
18867TIP3    H278017   4.371   5.063   2.015 -0.9289 -0.8198 -0.2819
18868TIP3   OH278018   3.161   5.360  13.320  0.0147  0.5728 -0.2925
18868TIP3    H178019   3.239   5.319  13.283 -0.8372  0.3047 -1.9075
18868TIP3    H278020   3.114   5.395  13.244 -1.1514  1.2414  0.6883
18869TIP3   OH278021   1.001   1.185   2.459  0.0571 -0.4051 -0.6073
18869TIP3    H178022   0.992   1.266   2.509 -1.3270  0.0453 -1.5260
18869TIP3    H278023   0.959   1.119   2.513  0.4056 -0.3337 -0.2472
18870TIP3   OH278024   1.759   2.680  17.010 -1.0106  0.7492 -0.1553
18870TIP3    H178025   1.781   2.678  16.917 -1.2448  2.7442 -0.2773
18870TIP3    H278026   1.813   2.749  17.047 -1.3642  0.3938  1.0848
18871TIP3   OH278027   1.897   5.361   1.189 -0.5362  0.0018 -0.6880
18871TIP3    H178028   1.855   5.431   1.139  0.1114  0.7039 -0.2661
18871TIP3    H278029   1.858   5.367   1.276 -0.3230 -0.0177 -0.5898
18872TIP3   OH278030   5.609   1.795  14.670  0.8693  0.4637 -0.0403
18872TIP3    H178031   5.659   1.733  14.617  2.2847  0.0074  1.7543
18872TIP3    H278032   5.661   1.808  14.749  0.5496  3.8186 -0.2150
18873TIP3   OH278033   5.886   0.175  10.533  0.7735 -0.2258  0.3373
18873TIP3    H178034   5.802   0.129  10.542  0.1103  0.5980 -1.2369
18873TIP3    H278035   5.920   0.147  10.448  0.6179  1.6630 -0.4168
18874TIP3   OH278036   0.183   6.481   0.654 -0.7668  0.9933 -0.0764
18874TIP3    H178037   0.120   6.521   0.714  0.5729  2.4031  0.4717
18874TIP3    H278038   0.153   6.507   0.566 -0.8595  1.8222  0.1904
18875TIP3   OH278039   1.107   1.959  15.673 -0.2341 -0.4012 -0.0149
18875TIP3    H178040   1.088   2.020  15.745 -1.6461 -1.1773  0.3183
18875TIP3    H278041   1.125   1.876  15.717 -1.4205 -0.9618 -0.5451
18876TIP3   OH278042   4.374   2.409   4.175  0.2112  0.3209 -0.1942
18876TIP3    H178043   4.412   2.331   4.216 -0.4777 -0.5305 -1.1285
18876TIP3    H278044   4.447   2.448   4.127 -0.1038 -1.5761 -2.3792
18877TIP3   OH278045   6.104   2.354  15.472 -0.3531 -0.5818  0.6824
18877TIP3    H178046   6.136   2.282  15.527  1.6032  0.7652  1.3977
18877TIP3    H278047   6.079   2.312  15.390 -0.2073 -2.1958  1.4249
18878TIP3   OH278048   1.509   5.970  12.855 -0.2501 -0.2432 -0.4043
18878TIP3    H178049   1.478   5.920  12.778 -1.4078 -1.8505  1.0240
18878TIP3    H278050   1.464   6.054  12.847  0.7003  0.1527 -2.1736
18879TIP3   OH278051   2.341   6.425   3.947  0.3022 -0.3103  0.5032
18879TIP3    H178052   2.281   6.465   3.884  0.5759 -1.4728 -0.5426
18879TIP3    H278053   2.324   6.331   3.941  1.4167 -0.5697  1.0220
18880TIP3   OH278054   2.218   0.403  16.953 -0.1625  0.1424  0.2072
18880TIP3    H178055   2.249   0.483  16.996 -0.0945 -0.5565  1.5151
18880TIP3    H278056   2.297   0.349  16.943  0.1143  0.9159 -2.2860
18881TIP3   OH278057   6.204   5.080  14.734  0.1392 -0.0096  1.0893
18881TIP3    H178058   6.161   5.011  14.784 -1.5519  0.2766  0.1090
18881TIP3    H278059   6.217   5.151  14.796 -2.1405  0.4320  1.1470
18882TIP3   OH278060   2.159   4.253  17.096 -0.3011 -0.1620 -0.4695
18882TIP3    H178061   2.165   4.219  17.007  1.2248  1.6664 -1.1413
18882TIP3    H278062   2.068   4.237  17.122 -0.5247 -1.5906 -1.9584
18883TIP3   OH278063   3.103   5.803  16.226 -0.1562 -0.3379 -0.0883
18883TIP3    H178064   3.081   5.710  16.216 -0.7881 -0.0495 -1.7612
18883TIP3    H278065   3.018   5.847  16.232  0.0162  0.3839 -2.2558
18884TIP3   OH278066   1.205   0.027  13.690  0.4844 -0.6701 -0.2900
18884TIP3    H178067   1.214   0.112  13.647  0.1465  1.5677  3.6144
18884TIP3    H278068   1.295  -0.000  13.707  0.5702 -0.4160 -0.3310
18885TIP3   OH278069   0.127   4.386  11.550  0.0944  0.6498 -0.3054
18885TIP3    H178070   0.099   4.333  11.625 -0.0427  1.6353  0.3677
18885TIP3    H278071   0.054   4.383  11.489  0.4389 -0.6498 -0.6928
18886TIP3   OH278072   4.294   3.493  16.896  0.4340 -0.0667  0.0098
18886TIP3    H178073   4.306   3.399  16.883  1.2237  0.0800 -0.4231
18886TIP3    H278074   4.290   3.529  16.808 -1.4957  0.1428  0.1416
18887TIP3   OH278075   2.100   5.522   1.405 -0.3674 -0.6382 -0.1329
18887TIP3    H178076   2.017   5.479   1.429 -0.4665 -0.9376 -0.9893
18887TIP3    H278077   2.102   5.518   1.310 -0.7257  1.9076 -0.3001
18888TIP3   OH278078   1.588   3.969   2.247 -0.4580 -0.0939 -0.3684
18888TIP3    H178079   1.517   3.925   2.200  0.8248 -0.6829 -1.8503
18888TIP3    H278080   1.622   4.034   2.185 -0.8232  1.4544  0.9636
18889TIP3   OH278081   1.156   1.691  16.385 -0.0255 -0.1650  0.5723
18889TIP3    H178082   1.243   1.651  16.381  0.2294  0.3761  0.5333
18889TIP3    H278083   1.121   1.664  16.470 -0.1646 -1.0652  0.2411
18890TIP3   OH278084   2.796   0.306   0.870  0.0442 -0.4127  0.2975
18890TIP3    H178085   2.798   0.306   0.774 -1.6667 -0.7954  0.2300
18890TIP3    H278086   2.718   0.255   0.893  0.2708 -0.1011  1.8917
18891TIP3   OH278087   6.037   1.120  16.295 -0.4947  0.2019  0.2532
18891TIP3    H178088   6.129   1.147  16.293 -0.5460  0.3347 -1.0413
18891TIP3    H278089   6.014   1.124  16.388  0.7082  0.4805  0.5698
18892TIP3   OH278090   5.742   3.673   1.939 -0.1049 -0.3092 -0.3703
18892TIP3    H178091   5.798   3.605   1.976 -2.3646 -1.6673  0.7495
18892TIP3    H278092   5.762   3.672   1.845  2.8402  0.4288  0.1348
18893TIP3   OH278093   3.315   0.908   0.568 -0.2353  0.0936  0.0491
18893TIP3    H178094   3.257   0.970   0.613 -0.6483 -1.2487  1.4256
18893TIP3    H278095   3.327   0.946   0.481 -0.5586  2.0541  0.8021
18894TIP3   OH278096   2.763   3.223   6.036  0.2042  0.0254 -0.2556
18894TIP3    H178097   2.750   3.160   6.107  1.5889  0.0191  0.0208
18894TIP3    H278098   2.686   3.212   5.980 -1.3679  0.6194  1.6603
18895TIP3   OH278099   6.191   1.187  15.084 -0.4898 -0.1252 -0.2240
18895TIP3    H178100   6.285   1.168  15.090  0.0511  2.3286  0.2836
18895TIP3    H278101   6.172   1.239  15.162 -1.8448  0.9560 -1.2299
18896TIP3   OH278102   3.133   3.709  12.006  0.1871  0.3887  0.2167
18896TIP3    H178103   3.050   3.713  12.055 -0.3442 -3.1568 -0.1100
18896TIP3    H278104   3.115   3.758  11.926 -1.0967  0.9511  0.8148
18897TIP3   OH278105   3.582   4.649   5.728  0.9038 -0.4293  0.0565
18897TIP3    H178106   3.633   4.590   5.783  1.0885  0.5415  0.9547
18897TIP3    H278107   3.608   4.737   5.756  0.8852  0.0969 -1.4863
18898TIP3   OH278108   0.620   3.954   4.520  0.0787 -0.1614 -0.2084
18898TIP3    H178109   0.525   3.945   4.512 -0.2583  2.6521 -0.4252
18898TIP3    H278110   0.646   3.997   4.439  1.8374 -2.3020 -0.8670
18899TIP3   OH278111   5.802   0.027  15.762  0.4479 -0.3220 -0.7645
18899TIP3    H178112   5.857   0.051  15.687  1.9245  1.0460  0.6837
18899TIP3    H278113   5.864   0.009  15.833 -0.9400 -0.4454  0.4570
18900TIP3   OH278114   1.370   3.204   4.081 -0.5289  0.3396 -0.7408
18900TIP3    H178115   1.369   3.109   4.065 -1.5482  0.1996  0.0647
18900TIP3    H278116   1.445   3.235   4.030  0.7244 -1.0984  0.1273
18901TIP3   OH278117   4.743   1.247   4.477 -0.2870  0.8948  0.6254
18901TIP3    H178118   4.664   1.236   4.530 -0.0032  1.3258  1.1400
18901TIP3    H278119   4.774   1.158   4.461 -2.1887  0.5258 -1.5990
18902TIP3   OH278120   5.402   1.071  10.885  0.6536 -0.0700  0.5975
18902TIP3    H178121   5.481   1.052  10.935  1.0935 -1.7701 -0.6194
18902TIP3    H278122   5.433   1.084  10.795 -0.5207 -2.6393 -0.2900
18903TIP3   OH278123   4.718   2.497  12.817  0.6408 -0.2895 -0.4994
18903TIP3    H178124   4.733   2.590  12.803 -0.9328 -0.0134 -0.5120
18903TIP3    H278125   4.799   2.465  12.855  1.2030  1.0809 -0.5008
18904TIP3   OH278126   4.532   5.066  12.382 -0.7891  0.2728  0.1264
18904TIP3    H178127   4.591   5.014  12.328 -3.1896 -0.6154 -1.8421
18904TIP3    H278128   4.473   5.001  12.422 -0.3891  1.1025  2.1791
18905TIP3   OH278129   2.969   2.424   1.827 -0.3589 -0.0733  0.2852
18905TIP3    H178130   2.895   2.438   1.768  0.3798 -0.3881 -0.7552
18905TIP3    H278131   2.939   2.457   1.912 -0.7605  2.3446 -0.7032
18906TIP3   OH278132   6.677   1.128  13.845 -0.0339  0.0962  0.4443
18906TIP3    H178133   6.631   1.152  13.926  0.1920 -0.3669  0.7168
18906TIP3    H278134   6.738   1.200  13.830  1.9696 -1.1065  2.2704
18907TIP3   OH278135   1.281   2.965   3.424  0.0534  0.3773 -0.3281
18907TIP3    H178136   1.318   3.033   3.367  1.0806 -1.0223 -1.4042
18907TIP3    H278137   1.344   2.892   3.419 -0.7583 -0.4720  1.1815
18908TIP3   OH278138   0.602   5.190   5.241 -0.6059  0.2454  0.1023
18908TIP3    H178139   0.547   5.115   5.217 -0.3938  0.0274  0.2894
18908TIP3    H278140   0.657   5.205   5.164 -0.5231  0.0902  0.1282
18909TIP3   OH278141   3.475   1.431   3.221 -0.4931  0.7170  0.3128
18909TIP3    H178142   3.470   1.518   3.181 -0.1781  0.8919  0.6514
18909TIP3    H278143   3.418   1.376   3.166  0.7069  0.7267 -0.9938
18910TIP3   OH278144   0.055   2.102  11.726  0.0926  0.0017 -0.4787
18910TIP3    H178145   0.147   2.129  11.720 -0.4141  1.6204 -1.4374
18910TIP3    H278146   0.024   2.139  11.808 -0.3513  1.6445 -1.3529
18911TIP3   OH278147   4.570   2.580  16.961  0.5579  0.0367  0.1252
18911TIP3    H178148   4.616   2.616  16.885  0.9530  1.9725  1.2102
18911TIP3    H278149   4.616   2.497  16.979 -1.5173 -2.1830 -3.5190
18912TIP3   OH278150   0.990   4.678  15.025  0.2591  0.1413 -0.5229
18912TIP3    H178151   0.952   4.618  14.960  1.5220 -0.2441 -0.9304
18912TIP3    H278152   1.024   4.751  14.974 -0.3293  0.7083 -0.1185
18913TIP3   OH278153   1.195   2.930   2.347 -0.1878 -0.2404 -0.0893
18913TIP3    H178154   1.231   2.978   2.273 -0.3677 -0.7893 -0.5328
18913TIP3    H278155   1.193   2.995   2.418 -2.5230  1.1127 -1.2609
18914TIP3   OH278156   3.201   4.480   0.457  0.1875 -0.3829 -0.0534
18914TIP3    H178157   3.223   4.391   0.484 -0.1153 -1.2276 -2.3857
18914TIP3    H278158   3.107   4.478   0.440  0.0763  0.5408  0.3735
18915TIP3   OH278159   1.705   2.561  10.677  0.2459  0.3482 -0.4473
18915TIP3    H178160   1.622   2.575  10.631 -0.6033 -2.2766  0.1230
18915TIP3    H278161   1.686   2.582  10.768  0.7787  1.5573 -0.5951
18916TIP3   OH278162   4.182   0.041  12.638  0.9646 -0.1173 -0.6183
18916TIP3    H178163   4.141  -0.020  12.699  0.0603 -2.0389 -2.9877
18916TIP3    H278164   4.178   0.126  12.683 -4.5028 -0.3333  0.0183
18917TIP3   OH278165   4.958   2.906   5.129  0.5605  0.6248 -0.7579
18917TIP3    H178166   4.905   2.915   5.050 -0.4183  1.8582 -0.0010
18917TIP3    H278167   4.937   2.983   5.181  1.8186  0.2677  0.3478
18918TIP3   OH278168   2.857   3.641  16.384  0.2412  0.2634  0.1008
18918TIP3    H178169   2.950   3.645  16.407  0.5109  1.8412 -1.1205
18918TIP3    H278170   2.856   3.625  16.290 -0.6891  1.6561 -0.1448
18919TIP3   OH278171   6.241   6.595   6.117 -0.1126 -0.3920 -0.8038
18919TIP3    H178172   6.220   6.688   6.108 -0.9135 -0.3633  0.8827
18919TIP3    H278173   6.196   6.568   6.197  4.3636 -0.9182  1.9112
18920TIP3   OH278174   0.308   1.929   6.124  0.2215  0.1625 -0.5430
18920TIP3    H178175   0.366   1.854   6.137  0.0991 -0.1770 -1.7800
18920TIP3    H278176   0.238   1.918   6.188  0.7001 -0.2702 -0.0916
18921TIP3   OH278177   5.308   4.228  12.676  0.3310 -0.2352 -0.4162
18921TIP3    H178178   5.311   4.144  12.721  0.0426  0.0271  0.0989
18921TIP3    H278179   5.234   4.221  12.616 -1.0654  0.3931  1.1500
18922TIP3   OH278180   3.920   4.302  12.485  0.1496  0.5198  0.2982
18922TIP3    H178181   3.829   4.276  12.498  0.0238  0.3183 -0.8699
18922TIP3    H278182   3.968   4.259  12.556 -0.8033  1.5517  1.6064
18923TIP3   OH278183   1.722   0.946   0.015  0.3719  0.9819  0.3872
18923TIP3    H178184   1.769   0.891  -0.048 -1.3046  0.3301 -0.3608
18923TIP3    H278185   1.723   0.894   0.096  0.8436  0.9222  0.3436
18924TIP3   OH278186   4.977   2.828   3.951 -0.5091  0.0962  0.2226
18924TIP3    H178187   4.983   2.767   3.878 -1.5815  0.4453 -0.1773
18924TIP3    H278188   5.068   2.850   3.972  0.1268 -3.5975  2.1139
18925TIP3   OH278189   4.947   0.378   6.070 -0.0380 -0.5520  0.3208
18925TIP3    H178190   5.039   0.359   6.089 -0.3607 -2.0538  0.5321
18925TIP3    H278191   4.912   0.412   6.152  0.6822  1.5846 -0.2057
18926TIP3   OH278192   4.501   3.014  16.660  0.3324  0.2513 -0.3165
18926TIP3    H178193   4.463   2.997  16.574 -0.7166  0.8440  0.0057
18926TIP3    H278194   4.570   3.077  16.644 -0.1545  0.6991 -0.6773
18927TIP3   OH278195   4.274   5.915   3.503 -0.3046  0.4120  0.1880
18927TIP3    H178196   4.272   5.998   3.455 -1.0586  1.0445  1.2646
18927TIP3    H278197   4.367   5.901   3.523 -0.3021  1.7433  1.2225
18928TIP3   OH278198   0.735   2.637   5.116 -0.3965 -0.5295  0.2279
18928TIP3    H178199   0.693   2.674   5.193  1.2353 -1.1400  1.4536
18928TIP3    H278200   0.796   2.572   5.150  0.6895 -0.5130 -1.5469
18929TIP3   OH278201   5.414   0.201   4.247 -0.6085 -0.3026  0.5493
18929TIP3    H178202   5.341   0.183   4.187 -1.3487 -0.4745  1.4767
18929TIP3    H278203   5.405   0.136   4.316  1.0227 -0.9501  0.1869
18930TIP3   OH278204   2.648   4.191  15.807 -0.0689 -0.2539  0.6417
18930TIP3    H178205   2.622   4.131  15.738  1.2113 -0.1675  0.0499
18930TIP3    H278206   2.738   4.217  15.784 -0.6331  2.0534  0.7288
18931TIP3   OH278207   2.041   6.743   1.367 -0.2139 -0.0407 -0.4806
18931TIP3    H178208   2.001   6.798   1.299 -1.7733  1.3699  1.4449
18931TIP3    H278209   1.980   6.670   1.377 -0.9402  0.6707  0.5472
18932TIP3   OH278210   3.277   1.531   0.171  0.2844  0.2139 -0.0954
18932TIP3    H178211   3.274   1.452   0.118 -2.2247  0.8149 -1.0016
18932TIP3    H278212   3.267   1.500   0.261  0.8390 -0.5806 -0.2985
18933TIP3   OH278213   5.888   2.048   5.653  0.2445 -0.8930  0.1324
18933TIP3    H178214   5.839   1.977   5.695  0.9361 -2.1781 -1.1583
18933TIP3    H278215   5.822   2.096   5.604 -0.3716 -0.0757  1.6628
18934TIP3   OH278216   1.054   4.977   2.826 -0.4894 -0.0759 -0.3961
18934TIP3    H178217   1.130   5.035   2.833  0.5384 -1.3692 -0.4742
18934TIP3    H278218   1.034   4.974   2.733 -0.7431  0.4031 -0.3563
18935TIP3   OH278219   3.052   3.914  13.676  0.1734  0.3232  0.2721
18935TIP3    H178220   3.044   3.820  13.659 -0.2951  0.5958 -1.1046
18935TIP3    H278221   3.023   3.956  13.595  0.3442  1.6632  0.8800
18936TIP3   OH278222   3.080   3.014   2.206 -0.2100 -0.1210  0.0129
18936TIP3    H178223   3.119   2.979   2.286  2.1351 -0.0651 -1.0163
18936TIP3    H278224   3.006   3.067   2.236  0.7773  0.1313  2.1507
18937TIP3   OH278225   3.789   5.471   4.849 -0.1984  0.1739  0.2682
18937TIP3    H178226   3.880   5.470   4.818 -0.2957 -2.0252 -0.0913
18937TIP3    H278227   3.785   5.400   4.913 -1.2329  1.4643  1.7013
18938TIP3   OH278228   0.797   4.757   2.699 -0.0393  0.4996  0.1736
18938TIP3    H178229   0.822   4.846   2.675  1.6349 -0.0950 -0.3992
18938TIP3    H278230   0.834   4.745   2.787 -1.9109  0.9828  1.0793
18939TIP3   OH278231   3.633   0.226   4.420 -0.4790 -0.2768  0.0018
18939TIP3    H178232   3.724   0.224   4.392 -0.8494 -2.1074 -1.2218
18939TIP3    H278233   3.583   0.215   4.339 -1.8404  1.4378  0.5451
18940TIP3   OH278234   5.898   0.088  17.279  0.0893  0.2819 -0.3939
18940TIP3    H178235   5.990   0.062  17.282  0.5043  1.7236 -0.1514
18940TIP3    H278236   5.863   0.060  17.364  0.1041 -0.8759 -0.7431
18941TIP3   OH278237   4.995   1.881  14.724  0.5248 -0.5067 -0.3631
18941TIP3    H178238   5.039   1.877  14.808  1.0538 -0.0095 -0.6117
18941TIP3    H278239   5.039   1.952  14.677 -1.1857  0.6755 -0.2537
18942TIP3   OH278240   5.138   2.417   5.032  0.1511 -0.0428 -0.1968
18942TIP3    H178241   5.182   2.339   5.066  0.9674  1.1678  1.7200
18942TIP3    H278242   5.209   2.474   5.004 -0.3858  0.4876 -0.4927
18943TIP3   OH278243   4.860   2.250  15.414  0.1294 -0.0807 -0.1666
18943TIP3    H178244   4.788   2.311  15.402  0.0473 -0.0470  0.4380
18943TIP3    H278245   4.830   2.168  15.376  0.0267  0.1108 -0.4951
18944TIP3   OH278246   5.801   4.249   5.157 -0.1638  0.3337  0.1090
18944TIP3    H178247   5.866   4.308   5.194  0.8146  0.1761 -1.2934
18944TIP3    H278248   5.806   4.263   5.062  0.8689 -2.6666 -0.4053
18945TIP3   OH278249   2.376   2.220  15.451 -0.2735  0.2513  0.1044
18945TIP3    H178250   2.295   2.269  15.436  0.4041  1.2901 -0.2537
18945TIP3    H278251   2.387   2.220  15.546  0.4215  1.9877  0.0444
18946TIP3   OH278252   4.271   5.057  12.043  0.1167 -1.2172 -0.1367
18946TIP3    H178253   4.191   5.021  12.081  0.7707 -0.3366  2.2069
18946TIP3    H278254   4.256   5.151  12.040  0.6408 -1.1438 -0.8069
18947TIP3   OH278255   5.265   5.453  11.795 -0.1287  0.3838  0.1200
18947TIP3    H178256   5.197   5.518  11.814 -0.7763 -0.0483 -0.6304
18947TIP3    H278257   5.219   5.384  11.748  0.5810 -0.5553  0.7831
18948TIP3   OH278258   0.639   1.850   5.754  0.0571 -0.2182 -0.7668
18948TIP3    H178259   0.621   1.765   5.713 -1.6062 -1.2577  1.8472
18948TIP3    H278260   0.567   1.906   5.725 -2.2826 -1.5260  1.9778
18949TIP3   OH278261   2.470   2.018   4.243 -0.0273  0.1548 -0.2607
18949TIP3    H178262   2.494   1.964   4.168  3.4530 -1.8308  1.9658
18949TIP3    H278263   2.437   1.956   4.308 -0.7151  1.4659  0.7006
18950TIP3   OH278264   2.313   5.603  10.935 -0.2503  0.2415  0.2787
18950TIP3    H178265   2.403   5.633  10.944 -1.0745  3.0291  0.0039
18950TIP3    H278266   2.261   5.683  10.934 -2.8132 -1.3001  1.1254
18951TIP3   OH278267   1.834   4.015   0.188 -0.0661  0.2075  0.2379
18951TIP3    H178268   1.873   3.986   0.105 -0.4512  0.9825 -0.2245
18951TIP3    H278269   1.749   4.052   0.163 -0.1261  0.5685  0.9600
18952TIP3   OH278270   1.204   6.028   0.129 -0.3818 -0.4714 -0.0480
18952TIP3    H178271   1.179   6.034   0.221  0.8550  0.7727  0.2427
18952TIP3    H278272   1.167   6.107   0.089 -2.3531 -1.8024 -1.0415
18953TIP3   OH278273   5.253   4.692   3.650  0.3471 -0.3500 -0.1590
18953TIP3    H178274   5.275   4.741   3.571 -0.3387  0.5422  0.1835
18953TIP3    H278275   5.338   4.669   3.689  0.7147  1.5812  0.2789
18954TIP3   OH278276   5.472   3.428  12.046 -0.5874  0.0245 -0.7662
18954TIP3    H178277   5.431   3.346  12.073  0.4685  0.5348  2.9395
18954TIP3    H278278   5.401   3.492  12.047 -0.8633 -0.2797 -0.7486
18955TIP3   OH278279   1.112   6.314  15.939  0.1717 -0.7508 -0.1597
18955TIP3    H178280   1.083   6.282  16.025  0.8375  0.1839  0.4456
18955TIP3    H278281   1.042   6.374  15.912  0.5058 -0.1483  0.2892
18956TIP3   OH278282   3.606   2.135  12.884 -0.0919  0.3412 -0.8347
18956TIP3    H178283   3.697   2.158  12.902 -0.5548  1.5754  0.0195
18956TIP3    H278284   3.575   2.096  12.966 -0.5178  0.4950 -0.9239
18957TIP3   OH278285   0.949   0.121   0.956  0.1332  0.1204  0.4425
18957TIP3    H178286   0.896   0.053   0.998 -1.4189  1.1273  0.1812
18957TIP3    H278287   0.968   0.183   1.026 -2.2556  1.6766 -0.1805
18958TIP3   OH278288   3.971   1.336  14.208  0.6145 -0.3084 -0.6310
18958TIP3    H178289   4.059   1.305  14.186  1.2040 -1.8746  3.1599
18958TIP3    H278290   3.985   1.419  14.253  0.3581 -1.0562  0.9171
18959TIP3   OH278291   4.051   0.910  17.242 -0.1956 -0.0457  0.1042
18959TIP3    H178292   4.101   0.985  17.276  1.6756 -0.6457 -1.1497
18959TIP3    H278293   4.004   0.945  17.167  1.2850 -0.2592 -0.9505
18960TIP3   OH278294   0.499   2.850  13.611 -0.1961  0.4750 -0.4718
18960TIP3    H178295   0.580   2.799  13.607  0.4930  1.5186 -0.2417
18960TIP3    H278296   0.449   2.821  13.534  0.1464 -0.5618 -0.3276
18961TIP3   OH278297   4.233   2.621  13.715  0.0593 -0.4876  0.3530
18961TIP3    H178298   4.168   2.554  13.698 -1.1725  1.2820 -2.7637
18961TIP3    H278299   4.301   2.606  13.650  1.7513 -0.9980  2.1672
18962TIP3   OH278300   5.654   1.588  12.216 -0.2182 -0.0432 -0.3638
18962TIP3    H178301   5.621   1.628  12.297 -1.9968  0.0115 -1.0812
18962TIP3    H278302   5.724   1.529  12.246  0.2123  1.1105  1.0479
18963TIP3   OH278303   2.710   4.774   0.231 -0.5219 -0.1662 -0.5964
18963TIP3    H178304   2.654   4.780   0.153 -1.9246 -1.9571  0.2076
18963TIP3    H278305   2.666   4.712   0.288  0.9067  0.4624  1.3059
18964TIP3   OH278306   2.662   4.618   2.448 -0.1849  0.2702  0.8568
18964TIP3    H178307   2.661   4.660   2.533  0.3812  0.8061  0.6065
18964TIP3    H278308   2.651   4.524   2.467 -2.8545  0.6140  1.3370
18965TIP3   OH278309   5.103   4.839  15.514 -0.0602  0.2433 -0.3063
18965TIP3    H178310   5.056   4.781  15.455 -0.0535  1.4353 -1.5177
18965TIP3    H278311   5.127   4.915  15.461  0.2716  1.1964  1.1270
18966TIP3   OH278312   5.312   5.363   0.442 -0.4020  0.2086  0.7566
18966TIP3    H178313   5.217   5.369   0.432 -0.5358 -0.3520  1.6109
18966TIP3    H278314   5.326   5.354   0.536  0.6600  3.0959  0.9867
18967TIP3   OH278315   1.416   4.393   4.800 -0.4174  0.5058 -0.3186
18967TIP3    H178316   1.376   4.426   4.880  0.5754  1.0739 -0.0408
18967TIP3    H278317   1.345   4.347   4.755 -1.3839  1.5052  0.1333
18968TIP3   OH278318   6.118   4.171   2.436 -0.4725  0.4279  0.0374
18968TIP3    H178319   6.184   4.204   2.497  0.2048 -0.6507 -0.0838
18968TIP3    H278320   6.035   4.176   2.484 -0.0515  0.2247  0.7998
18969TIP3   OH278321   2.251   1.712   2.690 -0.1591 -0.2496 -0.3909
18969TIP3    H178322   2.263   1.734   2.597  0.5910 -0.0965 -0.2681
18969TIP3    H278323   2.340   1.692   2.721 -0.3886 -0.1860  0.3220
18970TIP3   OH278324   4.376   6.608   4.630 -0.0317  0.0764  0.3686
18970TIP3    H178325   4.411   6.547   4.565 -0.4494  0.3971 -0.1723
18970TIP3    H278326   4.287   6.577   4.646 -0.3934  0.7750 -0.2236
18971TIP3   OH278327   5.240   3.558  16.658 -0.2659  0.1951  0.3063
18971TIP3    H178328   5.290   3.477  16.648 -0.0692  0.2488  0.8491
18971TIP3    H278329   5.177   3.539  16.727 -1.2653  0.0043 -0.6349
18972TIP3   OH278330   4.784   1.050   2.236  0.1949 -0.4271 -0.0373
18972TIP3    H178331   4.803   1.134   2.196  2.8910  0.1275  2.0351
18972TIP3    H278332   4.727   1.070   2.310  1.5402 -0.2160  0.9817
18973TIP3   OH278333   3.570   2.638   0.650  0.0115 -0.1237 -0.8930
18973TIP3    H178334   3.515   2.664   0.576 -1.8105 -0.5022  0.2661
18973TIP3    H278335   3.537   2.552   0.676  0.5722  0.0250  0.4004
18974TIP3   OH278336   5.428   1.308   3.613 -0.0721  0.1541 -0.0009
18974TIP3    H178337   5.414   1.340   3.524 -0.7375  1.5407  0.5600
18974TIP3    H278338   5.523   1.307   3.624  0.0066  0.2643 -0.6344
18975TIP3   OH278339   5.417   3.410  13.032  0.5434  0.5848  0.5928
18975TIP3    H178340   5.494   3.361  13.063  0.2700 -0.9342 -0.9778
18975TIP3    H278341   5.359   3.413  13.108  1.3944  0.1677  1.2791
18976TIP3   OH278342   1.311   1.622   2.677  0.0456 -0.3595 -0.3608
18976TIP3    H178343   1.389   1.668   2.707  0.4253 -1.4323  0.3539
18976TIP3    H278344   1.245   1.641   2.745 -0.4317  0.7883 -1.1117
18977TIP3   OH278345   1.494   0.717   2.618  0.2705  0.3719 -0.4497
18977TIP3    H178346   1.546   0.637   2.616 -0.4541 -0.1100 -0.5730
18977TIP3    H278347   1.465   0.729   2.528 -1.9219 -0.8014  0.0228
18978TIP3   OH278348   1.781   5.490   5.388  0.7337  0.0743  0.4464
18978TIP3    H178349   1.754   5.411   5.435 -3.1395  1.1429  0.3170
18978TIP3    H278350   1.784   5.558   5.456 -0.8776  0.7810 -0.1544
18979TIP3   OH278351   5.727   1.993   0.655  0.7176 -0.2963 -0.3403
18979TIP3    H178352   5.762   1.930   0.592 -0.2461 -3.0908  1.7215
18979TIP3    H278353   5.799   2.009   0.716  0.7372  0.0478 -0.4510
18980TIP3   OH278354   3.671   3.926   1.112 -0.0302 -0.2854 -0.0471
18980TIP3    H178355   3.577   3.926   1.096  0.0157 -0.2017 -0.3210
18980TIP3    H278356   3.708   3.875   1.040  0.2158  0.4347 -0.4442
18981TIP3   OH278357   4.550   3.243   3.298  0.2050  0.5343 -0.3951
18981TIP3    H178358   4.521   3.163   3.342  0.6759  0.2686 -0.5573
18981TIP3    H278359   4.621   3.277   3.353  0.8922  0.1257 -1.0007
18982TIP3   OH278360   5.672   2.475  14.271 -0.0968 -0.0987  0.8137
18982TIP3    H178361   5.612   2.548  14.282 -0.5875 -0.2083 -0.8867
18982TIP3    H278362   5.615   2.398  14.265  0.3022 -0.3900  0.7020
18983TIP3   OH278363   3.507   2.815   4.180  0.4364  0.2262  0.1623
18983TIP3    H178364   3.568   2.835   4.251 -0.9563  0.8074  1.2565
18983TIP3    H278365   3.493   2.721   4.185 -1.2424  0.5034  2.0935
18984TIP3   OH278366   0.085   5.663  17.252 -0.4211  0.3652  0.5925
18984TIP3    H178367   0.177   5.689  17.262 -0.0327  0.0400 -1.5699
18984TIP3    H278368   0.039   5.744  17.233  0.1389  0.1205 -2.2454
18985TIP3   OH278369   5.703   5.500  17.331 -0.0378 -0.0143  0.3187
18985TIP3    H178370   5.673   5.564  17.266  0.9105 -0.5888 -0.7376
18985TIP3    H278371   5.641   5.427  17.323  0.6817 -0.5403 -0.7455
18986TIP3   OH278372   5.137   5.810   6.222 -0.1550 -0.1113 -0.0004
18986TIP3    H178373   5.187   5.836   6.299 -1.0374 -0.3681  0.6780
18986TIP3    H278374   5.181   5.852   6.149 -1.3058  3.1025  0.9879
18987TIP3   OH278375   1.175   0.039   3.021 -0.5119  0.0312 -0.0272
18987TIP3    H178376   1.086   0.015   3.047 -1.3538  1.0960 -1.7477
18987TIP3    H278377   1.164   0.096   2.945  1.6699 -0.1465 -0.5595
18988TIP3   OH278378   3.091   0.613   5.929  0.2349 -0.2235  0.3211
18988TIP3    H178379   3.084   0.635   6.022  1.3871  2.7586 -0.2013
18988TIP3    H278380   3.183   0.626   5.908 -0.2124  0.2739 -1.4907
18989TIP3   OH278381   0.331   5.492  16.092  0.2638  0.2805  1.2812
18989TIP3    H178382   0.351   5.400  16.076  1.7085  0.8509 -0.5888
18989TIP3    H278383   0.235   5.494  16.101 -0.0434 -1.1467 -0.8098
18990TIP3   OH278384   3.344   6.465  14.515  0.1399  0.4133  0.3407
18990TIP3    H178385   3.413   6.410  14.553  0.4673  1.0984  0.7623
18990TIP3    H278386   3.265   6.412  14.521  0.5143 -0.1417  0.4314
18991TIP3   OH278387   1.457   1.719  16.980 -0.2193  0.5235  0.2512
18991TIP3    H178388   1.479   1.716  17.073  0.4035 -1.1526  0.0842
18991TIP3    H278389   1.539   1.741  16.936 -0.6598  2.0200  0.1014
18992TIP3   OH278390   5.781   3.219  10.228  0.2953 -0.3370  0.1314
18992TIP3    H178391   5.823   3.133  10.225 -0.1212 -0.5316 -0.1734
18992TIP3    H278392   5.850   3.278  10.257  0.9671 -0.5404 -1.0123
18993TIP3   OH278393   5.932   5.349  14.625 -0.0323  0.6764 -0.4791
18993TIP3    H178394   5.980   5.359  14.708 -0.5571 -1.0805  0.0816
18993TIP3    H278395   5.951   5.260  14.597 -0.7174  0.8974 -1.7186
18994TIP3   OH278396   0.491   5.291   2.065 -0.2154 -0.2486 -0.7557
18994TIP3    H178397   0.562   5.349   2.038  0.7433 -1.0588 -0.0403
18994TIP3    H278398   0.448   5.338   2.137  0.1502 -0.1469 -0.6024
18995TIP3   OH278399   2.680   0.012  13.912  0.5767 -0.7679 -0.0045
18995TIP3    H178400   2.693   0.032  14.004 -0.2174  1.2846 -0.2898
18995TIP3    H278401   2.606  -0.049  13.911  0.1128 -0.2363  0.6919
18996TIP3   OH278402   5.268   0.813  12.222 -0.2362 -0.1105 -0.2567
18996TIP3    H178403   5.282   0.907  12.216  1.3748 -0.2614  0.6395
18996TIP3    H278404   5.322   0.775  12.154 -2.0417 -0.3563 -1.6352
18997TIP3   OH278405   2.911   4.663  11.074 -0.1367 -0.0504 -0.4012
18997TIP3    H178406   2.942   4.628  10.991  0.0375 -1.9878  0.4377
18997TIP3    H278407   2.831   4.615  11.093 -0.6425  0.9736  0.1511
18998TIP3   OH278408   4.548   6.072   2.112 -0.4529  0.2757 -0.1635
18998TIP3    H178409   4.464   6.081   2.156 -0.9553 -1.1816 -0.7759
18998TIP3    H278410   4.533   6.108   2.024 -0.1520  0.8903  0.0286
18999TIP3   OH278411   1.136   1.965   5.125  0.5633  0.1335  0.1431
18999TIP3    H178412   1.053   2.005   5.149  0.6698  1.2600 -1.2587
18999TIP3    H278413   1.201   2.010   5.179  0.4250  0.2526  0.2095
19000TIP3   OH278414   2.073   3.284  14.197  0.3618 -0.5884 -0.3111
19000TIP3    H178415   2.082   3.191  14.174 -0.2275 -0.3103 -1.7560
19000TIP3    H278416   1.982   3.304  14.178 -0.4739 -0.4743  3.0867
19001TIP3   OH278417   5.644   3.523   0.003  0.6541 -0.2541  0.2306
19001TIP3    H178418   5.577   3.466  -0.032  0.0741 -1.1801  2.6535
19001TIP3    H278419   5.684   3.473   0.074  1.7838  1.4454  0.8727
19002TIP3   OH278420   1.114   5.856  11.444 -0.4878 -0.6429  0.4536
19002TIP3    H178421   1.130   5.763  11.430 -1.8596 -0.7028 -1.0618
19002TIP3    H278422   1.141   5.897  11.361 -2.7658 -0.1174 -0.1019
19003TIP3   OH278423   1.142   4.354  11.192 -0.4857  0.4525 -0.4833
19003TIP3    H178424   1.122   4.415  11.263 -1.2268 -0.3560  0.0221
19003TIP3    H278425   1.149   4.269  11.235  0.1379  0.1167 -1.2367
19004TIP3   OH278426   5.837   4.410  11.459 -0.2425  0.8169 -0.6735
19004TIP3    H178427   5.758   4.361  11.484  0.5797  0.1011  0.6113
19004TIP3    H278428   5.836   4.488  11.515 -0.5435  1.3423 -1.3782
19005TIP3   OH278429   2.281   5.043   0.156 -0.0615 -0.2463  0.0789
19005TIP3    H178430   2.260   4.953   0.130 -0.7656 -0.2037  0.4722
19005TIP3    H278431   2.196   5.087   0.158  0.2347  0.3135  0.3190
19006TIP3   OH278432   4.212   3.652   1.003 -0.2136  0.3518  0.5618
19006TIP3    H178433   4.134   3.687   1.047 -1.3781  0.4064 -1.4253
19006TIP3    H278434   4.190   3.656   0.910  1.5363 -1.2083  0.0389
19007TIP3   OH278435   1.947   6.458   6.645  0.0717 -0.0160  0.2442
19007TIP3    H178436   1.910   6.547   6.649 -1.0911 -0.3786 -1.3847
19007TIP3    H278437   1.898   6.409   6.711 -0.5536  0.1556 -0.0747
19008TIP3   OH278438   3.015   3.596   2.112  0.1356 -0.2137  0.8088
19008TIP3    H178439   3.079   3.533   2.080  1.5518  1.6160 -0.1343
19008TIP3    H278440   2.933   3.573   2.069  0.6625 -1.3039  0.3797
19009TIP3   OH278441   2.382   5.291  12.842 -0.0471 -0.0107  0.2927
19009TIP3    H178442   2.312   5.253  12.894  0.1015 -0.4722  0.1659
19009TIP3    H278443   2.373   5.249  12.756  0.7623 -0.5505  0.4600
19010TIP3   OH278444   4.536   0.844  16.226  0.3725  0.2543  0.0872
19010TIP3    H178445   4.595   0.846  16.150 -1.6445  0.3437 -1.5532
19010TIP3    H278446   4.498   0.932  16.229 -0.8630 -0.2612  0.1011
19011TIP3   OH278447   6.757   6.304  14.872 -0.1363 -0.3041 -0.0436
19011TIP3    H178448   6.724   6.270  14.955 -1.0510 -0.4709 -0.4662
19011TIP3    H278449   6.814   6.235  14.839  1.1633  0.2381  0.9806
19012TIP3   OH278450   0.588   3.311   4.630 -0.1568  0.2290 -0.0584
19012TIP3    H178451   0.670   3.325   4.678 -0.5408  0.3467  0.5821
19012TIP3    H278452   0.607   3.338   4.541  0.5312  0.1673  0.0641
19013TIP3   OH278453   0.666   0.420   5.418 -0.4880  0.2102 -0.2753
19013TIP3    H178454   0.629   0.438   5.505  0.2712  0.0437  0.0872
19013TIP3    H278455   0.688   0.327   5.421  0.7574  0.4972 -0.1812
19014TIP3   OH278456   2.773   3.021   2.041 -0.2398  0.5430  0.2590
19014TIP3    H178457   2.783   3.039   2.134  1.9477  2.6963 -0.3171
19014TIP3    H278458   2.835   3.080   1.997  0.9866 -2.3955 -2.4026
19015TIP3   OH278459   1.518   0.223  15.736 -0.1184 -0.0075  0.1000
19015TIP3    H178460   1.433   0.245  15.697  0.4453  1.0824 -0.5723
19015TIP3    H278461   1.545   0.303  15.781 -0.3624 -0.9768  2.0978
19016TIP3   OH278462   0.047   3.267   4.799 -0.2666 -0.2361  0.1723
19016TIP3    H178463   0.123   3.302   4.846 -0.1859 -0.9188  0.5799
19016TIP3    H278464   0.027   3.185   4.844 -0.6947 -0.5095 -0.4888
19017TIP3   OH278465   1.894   3.155   4.390 -0.1971  0.4357 -0.1627
19017TIP3    H178466   1.897   3.093   4.463  0.3609 -1.7712 -1.9686
19017TIP3    H278467   1.810   3.137   4.347  0.3766  0.2982 -1.2399
19018TIP3   OH278468   0.636   3.780  11.798 -0.0010  0.3733  0.3997
19018TIP3    H178469   0.595   3.772  11.712  1.0218 -0.7048 -0.0091
19018TIP3    H278470   0.658   3.873  11.805 -0.8436  0.6249 -0.1347
19019TIP3   OH278471   4.741   3.392   0.253 -0.6270 -0.1989 -0.6282
19019TIP3    H178472   4.682   3.366   0.324 -0.7454 -0.9598 -0.9843
19019TIP3    H278473   4.693   3.458   0.205 -0.9391 -0.3664 -0.5502
19020TIP3   OH278474   2.189   6.381   6.711 -0.0343 -0.1618  0.0065
19020TIP3    H178475   2.108   6.416   6.674  0.2747  0.3153 -0.2260
19020TIP3    H278476   2.247   6.457   6.717  0.2659 -0.4303  0.5213
19021TIP3   OH278477   1.555   2.622  12.775  0.4749 -0.5428  0.0531
19021TIP3    H178478   1.621   2.652  12.838  0.5936 -1.8754  0.5905
19021TIP3    H278479   1.510   2.550  12.819 -0.7694 -0.2172 -0.6481
19022TIP3   OH278480   2.028   2.003  13.884  0.4651 -0.6254  0.0642
19022TIP3    H178481   1.947   2.047  13.861 -0.4978 -1.6244  1.4128
19022TIP3    H278482   2.096   2.050  13.834 -0.9290  0.1147 -1.2165
19023TIP3   OH278483   0.130   4.455   2.619  0.3452 -0.1195 -0.1567
19023TIP3    H178484   0.134   4.506   2.538 -2.7179 -2.2509 -1.8366
19023TIP3    H278485   0.056   4.493   2.668  0.2236 -0.7645  0.1768
19024TIP3   OH278486   3.032   4.817   4.949 -0.6041  0.2826  0.0291
19024TIP3    H178487   3.002   4.905   4.971  1.3336  1.7270 -2.5707
19024TIP3    H278488   2.954   4.773   4.914 -1.4296  1.1826  0.6763
19025TIP3   OH278489   2.690   0.025   0.082 -0.0648 -0.2313 -0.7004
19025TIP3    H178490   2.780   0.001   0.104  0.7637  1.6439 -1.7907
19025TIP3    H278491   2.657   0.071   0.159  0.4059  0.2672 -0.7883
19026TIP3   OH278492   3.313   0.473  14.501 -0.0042 -0.2759 -0.1953
19026TIP3    H178493   3.282   0.387  14.475 -1.4240 -0.4176  1.7379
19026TIP3    H278494   3.408   0.470  14.488 -0.2584 -1.3748 -2.0969
19027TIP3   OH278495   3.411   6.354  15.120 -0.3588  0.2957 -0.2150
19027TIP3    H178496   3.336   6.359  15.180 -0.1150  0.1056  0.1127
19027TIP3    H278497   3.444   6.265  15.132  0.0033  0.4253 -0.2577
19028TIP3   OH278498   2.953   1.045   6.592 -0.5026 -0.1607  0.3826
19028TIP3    H178499   2.954   1.052   6.687  0.0362 -0.2291  0.3851
19028TIP3    H278500   2.863   1.066   6.567 -0.2534  1.5327  0.7863
19029TIP3   OH278501   2.393   2.816   1.696  0.3497  0.0725 -0.5330
19029TIP3    H178502   2.454   2.783   1.763 -0.9155  0.8439  1.0850
19029TIP3    H278503   2.437   2.894   1.661  0.2265  0.7947  0.8291
19030TIP3   OH278504   2.700   2.033   2.562 -0.0573  0.0428  0.9752
19030TIP3    H178505   2.783   2.046   2.515 -0.4664  0.5557  0.3716
19030TIP3    H278506   2.676   1.943   2.542 -1.1018  0.7436 -1.3117
19031TIP3   OH278507   1.773   5.599   1.060 -0.1042  0.0897  0.1162
19031TIP3    H178508   1.822   5.680   1.045 -1.3077  1.2711  2.1458
19031TIP3    H278509   1.729   5.582   0.977 -0.5617  2.0546 -0.0743
19032TIP3   OH278510   1.448   2.383  14.329  0.1733  0.9296 -0.1811
19032TIP3    H178511   1.408   2.297  14.346 -0.9182  1.1750 -1.3553
19032TIP3    H278512   1.529   2.364  14.282 -0.4421  0.5446 -1.1199
19033TIP3   OH278513   4.997   1.645  12.534 -0.0911  0.0503 -0.8263
19033TIP3    H178514   4.933   1.712  12.508 -0.6217 -0.4767 -0.9014
19033TIP3    H278515   4.957   1.562  12.507 -1.3292 -0.6927  2.7182
19034TIP3   OH278516   5.119   5.617  12.513 -0.1789 -0.1266  0.0232
19034TIP3    H178517   5.165   5.647  12.434  1.1636 -0.1514  0.7704
19034TIP3    H278518   5.034   5.660  12.508  0.3219  0.8298 -0.8361
19035TIP3   OH278519   3.810   0.790   6.378 -0.2440 -0.1797  0.2143
19035TIP3    H178520   3.762   0.782   6.461  0.3077 -0.1808  0.5360
19035TIP3    H278521   3.741   0.796   6.311 -0.6972 -0.8844  0.6018
19036TIP3   OH278522   5.937   1.551  10.675 -0.1366 -0.5606  0.0824
19036TIP3    H178523   5.897   1.542  10.588 -1.2236 -0.1402  0.5222
19036TIP3    H278524   6.030   1.564  10.657 -0.5131  0.8288 -1.1070
19037TIP3   OH278525   6.123   2.873  13.279  0.0754  0.1418 -0.0334
19037TIP3    H178526   6.169   2.872  13.196 -0.7954 -2.4174 -0.5835
19037TIP3    H278527   6.164   2.803  13.330 -0.6973  0.3477  0.8954
19038TIP3   OH278528   5.740   5.144  11.162  0.4810  0.5435  0.0078
19038TIP3    H178529   5.791   5.132  11.082 -1.4905 -2.2117 -0.9844
19038TIP3    H278530   5.795   5.105  11.230  1.1651  0.7577 -0.4067
19039TIP3   OH278531   1.310   0.294   6.266 -0.0424  0.9180 -0.5935
19039TIP3    H178532   1.350   0.373   6.228 -0.3581  0.6334 -1.5342
19039TIP3    H278533   1.362   0.222   6.231 -0.7690  0.6047 -1.0456
19040TIP3   OH278534   2.736   3.648   0.438  0.0461 -0.1567  0.5496
19040TIP3    H178535   2.770   3.558   0.437 -0.0822 -0.2061 -0.8055
19040TIP3    H278536   2.643   3.638   0.461 -0.3942 -0.5573 -1.2576
19041TIP3   OH278537   4.688   5.253   2.380 -0.4381 -0.5383 -0.3560
19041TIP3    H178538   4.781   5.275   2.379 -0.5800  0.2256  0.9431
19041TIP3    H278539   4.653   5.303   2.454 -2.3311  1.0515 -2.1964
19042TIP3   OH278540   1.383   2.064   0.116  0.1019 -0.2292 -0.0076
19042TIP3    H178541   1.313   2.009   0.082  0.1445 -1.0403  1.1692
19042TIP3    H278542   1.343   2.150   0.127 -0.1265 -0.1509 -1.2972
19043TIP3   OH278543   5.160   5.550   1.808 -0.5665  0.2053 -0.0610
19043TIP3    H178544   5.201   5.620   1.757 -1.1777 -0.1713 -1.0892
19043TIP3    H278545   5.223   5.478   1.804 -0.0453  0.5993  0.7960
19044TIP3   OH278546   2.919   6.691  15.203 -0.0635 -0.3059 -0.3827
19044TIP3    H178547   2.914   6.787  15.196 -0.6427 -0.3720 -0.9171
19044TIP3    H278548   2.911   6.674  15.297  1.4362  0.2359 -0.1158
19045TIP3   OH278549   2.446   0.029  11.497 -0.6829 -0.3858 -0.4784
19045TIP3    H178550   2.377   0.078  11.542 -0.1928  0.7440 -0.9232
19045TIP3    H278551   2.430   0.045  11.404  0.3137  0.0798 -0.5781
19046TIP3   OH278552   5.140   6.640   4.911  0.1328 -0.1972  0.6484
19046TIP3    H178553   5.214   6.633   4.972 -0.4325 -1.7955  1.1922
19046TIP3    H278554   5.069   6.676   4.964  0.0797 -0.0958  0.5092
19047TIP3   OH278555   6.270   5.311   1.685 -0.1927  0.0588  0.0869
19047TIP3    H178556   6.190   5.349   1.648 -0.9942 -1.3887  0.2516
19047TIP3    H278557   6.274   5.223   1.647  1.8712  0.4331 -0.6954
19048TIP3   OH278558   2.234   0.026   3.419 -0.0889  0.6993  0.9243
19048TIP3    H178559   2.193   0.063   3.496 -2.1260  0.8171 -0.1479
19048TIP3    H278560   2.161   0.004   3.361  1.3679  1.3550 -1.2932
19049TIP3   OH278561   3.480   1.608   4.541 -0.7584  0.5185  0.0199
19049TIP3    H178562   3.437   1.688   4.510 -0.4437  0.5352 -0.3812
19049TIP3    H278563   3.469   1.611   4.636 -0.2806  1.3107  0.0578
19050TIP3   OH278564   3.923   4.328  15.781 -0.2347  0.0282 -0.1443
19050TIP3    H178565   3.864   4.350  15.854  0.6418 -0.9164  0.8850
19050TIP3    H278566   3.898   4.239  15.757  2.0055 -1.1698  1.6302
19051TIP3   OH278567   5.473   6.409  12.673 -0.0172 -0.4494  0.2161
19051TIP3    H178568   5.412   6.483  12.673 -1.6337 -1.7248 -0.8121
19051TIP3    H278569   5.517   6.414  12.588 -1.9119 -1.9898 -0.9459
19052TIP3   OH278570   3.117   6.350  13.937  0.4002  0.2232 -0.3335
19052TIP3    H178571   3.140   6.257  13.937 -1.2981 -0.2523  0.8215
19052TIP3    H278572   3.158   6.385  14.016 -2.5264 -0.6287  1.7363
19053TIP3   OH278573   2.927   2.804  14.656  0.1809  0.2806  0.3359
19053TIP3    H178574   2.905   2.729  14.711 -0.9168  0.9758  0.8715
19053TIP3    H278575   2.909   2.774  14.567 -0.5586  0.0076  0.5690
19054TIP3   OH278576   5.888   4.149  16.617 -0.6660  0.2018 -0.1595
19054TIP3    H178577   5.878   4.243  16.633 -1.0166 -0.1159  1.5816
19054TIP3    H278578   5.827   4.107  16.677 -0.5230 -1.1633 -0.9277
19055TIP3   OH278579   1.097   2.425   3.082  0.5362 -0.1769  0.2434
19055TIP3    H178580   1.172   2.474   3.050 -0.2644  0.3631 -0.8775
19055TIP3    H278581   1.117   2.333   3.064  0.6329  0.0214 -0.6854
19056TIP3   OH278582   5.419   5.641  11.608  0.1737 -0.5972 -0.3885
19056TIP3    H178583   5.384   5.687  11.685  1.1388  0.7882 -0.7358
19056TIP3    H278584   5.344   5.594  11.572 -0.2466 -1.4877  1.5255
19057TIP3   OH278585   4.221   3.073   5.630  0.4484  0.2304 -0.1824
19057TIP3    H178586   4.202   3.093   5.722  0.0121 -0.7208 -0.0475
19057TIP3    H278587   4.316   3.079   5.624  0.3902  1.6279 -0.0068
19058TIP3   OH278588   4.083   5.932   0.212 -0.2360  0.0388  0.2743
19058TIP3    H178589   4.140   5.863   0.246 -0.4775  0.2574  1.1561
19058TIP3    H278590   4.037   5.892   0.138  0.1045 -0.5395  0.3700
19059TIP3   OH278591   6.286   0.448  11.347 -0.3808 -0.1190 -0.6167
19059TIP3    H178592   6.288   0.385  11.275 -1.6043 -1.5430  0.5291
19059TIP3    H278593   6.321   0.529  11.310  0.2538 -1.1783 -2.4225
19060TIP3   OH278594   2.465   1.812   3.376 -0.0963  0.1730 -0.2027
19060TIP3    H178595   2.487   1.885   3.433  0.3680 -0.3466  0.2861
19060TIP3    H278596   2.549   1.777   3.347 -0.3203  0.8132 -1.7115
19061TIP3   OH278597   6.084   4.326   1.201  0.0155  0.1126  0.4883
19061TIP3    H178598   6.033   4.391   1.250 -1.2044 -0.5357  0.1416
19061TIP3    H278599   6.067   4.243   1.247  1.9127  0.0722  1.1987
19062TIP3   OH278600   5.112   0.786  16.834  0.0987  0.0827 -0.0523
19062TIP3    H178601   5.156   0.721  16.780  0.9477 -0.2467  0.9790
19062TIP3    H278602   5.048   0.826  16.777 -0.6604 -1.8613 -0.6551
19063TIP3   OH278603   4.085   1.480  10.943 -0.0893  0.0585  1.0931
19063TIP3    H178604   4.124   1.533  11.013  0.3348  1.2716 -0.0337
19063TIP3    H278605   3.994   1.511  10.938  0.1158  0.5921  0.5415
19064TIP3   OH278606   4.847   6.558   3.880 -0.0146 -0.6177 -0.4293
19064TIP3    H178607   4.781   6.587   3.816 -1.5177 -1.7829  0.5160
19064TIP3    H278608   4.918   6.523   3.826 -0.9663 -0.9999 -1.4891
19065TIP3   OH278609   4.512   3.418   6.907  0.0104  0.6700 -0.4021
19065TIP3    H178610   4.548   3.359   6.840  0.2300  0.3940 -0.0414
19065TIP3    H278611   4.554   3.503   6.889  0.9049  0.3384  0.0529
19066TIP3   OH278612   4.232   0.864   2.874  0.5031  0.2489 -0.1747
19066TIP3    H178613   4.254   0.945   2.921 -0.2945  0.1912  0.3172
19066TIP3    H278614   4.148   0.837   2.911 -0.0507  0.0788 -1.5005
19067TIP3   OH278615   4.077   6.325  15.454 -0.3162  0.0695 -0.2779
19067TIP3    H178616   4.143   6.269  15.414  0.3626  0.6642  0.0061
19067TIP3    H278617   4.050   6.278  15.532 -0.7319 -0.4958 -0.7503
19068TIP3   OH278618   2.221   3.615   1.027  0.1264 -0.5687  0.0957
19068TIP3    H178619   2.203   3.528   1.063  0.5859 -0.0269  1.7264
19068TIP3    H278620   2.234   3.671   1.104 -0.4623  1.0211 -0.9044
19069TIP3   OH278621   6.064   1.709   4.076 -0.6059 -0.6108  0.2065
19069TIP3    H178622   6.092   1.695   3.986 -0.4836 -0.3869  0.2082
19069TIP3    H278623   6.137   1.680   4.130  0.2811  1.4008  0.1767
19070TIP3   OH278624   3.532   4.715   6.767 -0.2353  0.8474  0.6279
19070TIP3    H178625   3.502   4.644   6.711 -1.9603  2.1754 -0.2521
19070TIP3    H278626   3.521   4.794   6.713 -0.8070  2.0503  2.4075
19071TIP3   OH278627   6.360   1.866  10.985  0.6973  0.3125 -0.3549
19071TIP3    H178628   6.289   1.930  10.984  0.8224  0.4461 -0.7282
19071TIP3    H278629   6.434   1.911  10.943  1.2267  0.4377  0.6690
19072TIP3   OH278630   6.104   4.176  11.667  0.6635  0.3462 -0.4087
19072TIP3    H178631   6.101   4.091  11.624  0.9668 -0.3688  0.9274
19072TIP3    H278632   6.012   4.197  11.684  0.5287  0.7090 -1.4924
19073TIP3   OH278633   2.470   6.323   5.795  0.0113  0.4809 -0.1676
19073TIP3    H178634   2.436   6.332   5.706  0.5765  0.6257 -0.3736
19073TIP3    H278635   2.398   6.284   5.844 -0.0676 -0.2578 -0.8507
19074TIP3   OH278636   1.505   1.495  12.320  0.1785  0.5683  0.9460
19074TIP3    H178637   1.574   1.459  12.374  2.3652  0.6494 -1.5688
19074TIP3    H278638   1.547   1.566  12.271 -1.6956  0.7025 -0.6292
19075TIP3   OH278639   6.378   3.461   1.631 -0.2109 -0.1137  0.6003
19075TIP3    H178640   6.363   3.370   1.608  1.3173 -0.5937  1.3308
19075TIP3    H278641   6.358   3.510   1.552  1.3478 -1.3564 -0.6301
19076TIP3   OH278642   3.275   0.959  13.651  0.2008 -0.2511 -0.2020
19076TIP3    H178643   3.362   0.973  13.688  0.2171  2.0585 -0.9738
19076TIP3    H278644   3.283   0.877  13.602  1.7164 -0.4376  0.3023
19077TIP3   OH278645   3.414   6.658  15.089  0.0006  0.1745 -0.2191
19077TIP3    H178646   3.462   6.591  15.041  0.1557  0.2222 -0.1296
19077TIP3    H278647   3.322   6.639  15.071  0.0343 -0.2338  0.0345
19078TIP3   OH278648   1.013   1.994   2.524  0.0424 -0.5152 -0.2133
19078TIP3    H178649   1.034   2.059   2.591 -4.2883  2.0150 -0.9254
19078TIP3    H278650   1.081   2.006   2.458  0.3861  2.1745  0.4898
19079TIP3   OH278651   6.465   3.054   3.456  0.9503 -0.5582  0.0690
19079TIP3    H178652   6.461   2.989   3.526  2.0976 -2.5596 -1.6433
19079TIP3    H278653   6.545   3.104   3.474  1.5554 -1.4436 -0.1069
19080TIP3   OH278654   6.738   5.817  15.103  0.2151 -0.3591 -0.8707
19080TIP3    H178655   6.813   5.825  15.162 -1.6874  1.3527  1.4831
19080TIP3    H278656   6.722   5.722  15.098  1.4283 -0.6379  0.0154
19081TIP3   OH278657   1.162   4.834  13.573 -0.6423  0.1317 -0.2465
19081TIP3    H178658   1.140   4.754  13.526 -1.4153 -0.0875  0.4432
19081TIP3    H278659   1.240   4.868  13.530  0.2510 -1.4823  0.0274
19082TIP3   OH278660   3.083   3.588   4.141  0.4523 -0.2957  0.2679
19082TIP3    H178661   3.019   3.550   4.202  0.7172 -0.6172  0.3495
19082TIP3    H278662   3.156   3.526   4.140 -0.5449 -1.5387 -2.2270
19083TIP3   OH278663   6.396   4.498  11.476  0.6461  0.2350  0.5370
19083TIP3    H178664   6.391   4.579  11.525  2.5351  0.1971  0.8811
19083TIP3    H278665   6.307   4.465  11.474 -0.2696  2.5903 -0.1240
19084TIP3   OH278666   5.353   4.889  16.597  0.1932 -0.5435  0.0271
19084TIP3    H178667   5.386   4.936  16.673  0.7091 -2.0467  0.7826
19084TIP3    H278668   5.416   4.909  16.528 -0.0185  0.4546  0.1060
19085TIP3   OH278669   4.885   4.261  16.249  0.0885  0.3896 -0.4136
19085TIP3    H178670   4.925   4.332  16.300  0.6262 -0.2936  0.1420
19085TIP3    H278671   4.841   4.207  16.315 -0.9756  0.6169 -0.9176
19086TIP3   OH278672   5.825   6.663  16.394 -0.1213 -0.1457  0.2049
19086TIP3    H178673   5.833   6.757  16.407 -2.3323  0.2415 -0.9817
19086TIP3    H278674   5.783   6.631  16.474 -2.0594  0.3498 -0.5765
19087TIP3   OH278675   4.406   0.060  11.212  0.2516 -0.1287 -0.2792
19087TIP3    H178676   4.329   0.084  11.160  0.0982 -0.0930 -0.0328
19087TIP3    H278677   4.378   0.069  11.303  0.6399  0.1818 -0.1893
19088TIP3   OH278678   1.460   6.426  14.032  0.5072  0.7682 -0.3990
19088TIP3    H178679   1.490   6.458  14.117 -0.7264 -0.7467  0.6673
19088TIP3    H278680   1.429   6.504  13.987 -0.8997  1.3600  1.4480
19089TIP3   OH278681   0.683   4.496  16.254  0.2669 -0.1497  0.3636
19089TIP3    H178682   0.670   4.401  16.261 -1.5739  0.1230  1.5006
19089TIP3    H278683   0.777   4.507  16.246  0.4379 -2.1432 -1.3801
19090TIP3   OH278684   4.529   3.431  10.862 -0.4609  0.7923  0.4819
19090TIP3    H178685   4.619   3.462  10.874 -0.6572  0.6522  2.6343
19090TIP3    H278686   4.520   3.359  10.925 -2.5828  1.8867  1.5378
19091TIP3   OH278687   2.102   1.303  17.148 -0.5639  0.2541  0.1776
19091TIP3    H178688   2.196   1.293  17.167 -0.7504 -0.0131  0.9792
19091TIP3    H278689   2.061   1.309  17.234 -1.2806  0.4427 -0.1764
19092TIP3   OH278690   6.655   4.831   3.767  0.2767 -0.1143 -0.8909
19092TIP3    H178691   6.648   4.754   3.711  0.8934 -0.3975 -0.5831
19092TIP3    H278692   6.747   4.857   3.761  0.6185 -0.8183  0.8634
19093TIP3   OH278693   3.281   6.748   2.979  0.1069  0.2963  0.0571
19093TIP3    H178694   3.339   6.790   2.915 -2.0212  0.9702 -1.5578
19093TIP3    H278695   3.243   6.821   3.028 -0.2329 -0.0439  0.3022
19094TIP3   OH278696   3.986   0.687  11.785  0.4387  0.2782  0.1637
19094TIP3    H178697   4.053   0.644  11.731 -0.7244 -0.2826 -0.8697
19094TIP3    H278698   3.933   0.736  11.723 -0.0158  0.8610  0.9942
19095TIP3   OH278699   3.532   0.404  11.767  0.3969  0.7743 -0.1603
19095TIP3    H178700   3.625   0.394  11.745  0.9406  2.0575  1.3140
19095TIP3    H278701   3.513   0.496  11.746 -0.8190  0.2877 -1.3085
19096TIP3   OH278702   2.935   6.252  17.026  0.0206 -0.3853  0.4413
19096TIP3    H178703   2.950   6.158  17.018  1.6232 -0.1555  0.4193
19096TIP3    H278704   2.867   6.260  17.093  0.9059 -1.5244  1.5392
19097TIP3   OH278705   6.118   5.318   5.625  0.4610 -0.1893 -0.3307
19097TIP3    H178706   6.195   5.265   5.644  0.2610 -0.3765 -0.0184
19097TIP3    H278707   6.145   5.407   5.644  0.1689 -0.3970  1.2577
19098TIP3   OH278708   0.476   6.579  16.527  0.7256 -0.0097  0.0821
19098TIP3    H178709   0.396   6.549  16.485  0.9223 -0.7914  0.2437
19098TIP3    H278710   0.459   6.571  16.620  0.0965  2.2322  0.2092
19099TIP3   OH278711   3.464   3.009   1.115 -0.3975  0.2453  0.2207
19099TIP3    H178712   3.465   3.104   1.124  1.1454  0.1788  0.9409
19099TIP3    H278713   3.520   2.991   1.039 -0.4545 -0.1002  0.2554
19100TIP3   OH278714   2.305   5.542   0.188  0.0799  0.4558  0.5579
19100TIP3    H178715   2.311   5.468   0.128 -0.9987  0.9525 -0.1999
19100TIP3    H278716   2.357   5.516   0.264 -2.1016 -2.0978  1.3460
19101TIP3   OH278717   1.886   2.864   1.713  0.6579 -0.0577 -0.4630
19101TIP3    H178718   1.910   2.880   1.622  0.6398 -0.3639 -0.5243
19101TIP3    H278719   1.869   2.770   1.717  2.5512 -0.4156  0.2980
19102TIP3   OH278720   4.340   5.862   1.473  0.0089  0.6300  0.2949
19102TIP3    H178721   4.312   5.891   1.387  0.7248 -0.4217 -0.3142
19102TIP3    H278722   4.417   5.807   1.456 -0.8489 -1.0165  1.4324
19103TIP3   OH278723   1.516   5.529   5.652 -0.0901 -0.1105 -0.5920
19103TIP3    H178724   1.545   5.558   5.566 -0.3281 -2.1458 -1.4142
19103TIP3    H278725   1.458   5.598   5.683  1.4874  1.5504 -1.1939
19104TIP3   OH278726   1.445   4.502  12.422 -0.5704  0.1144 -0.5389
19104TIP3    H178727   1.512   4.440  12.451  1.0926  1.4163 -1.4479
19104TIP3    H278728   1.374   4.492  12.486  1.0808 -0.3003  1.3318
19105TIP3   OH278729   1.884   1.184   5.727 -0.6605 -0.2195  0.0945
19105TIP3    H178730   1.828   1.131   5.784 -1.4014 -0.9192 -1.2224
19105TIP3    H278731   1.954   1.125   5.701 -0.4637  0.0121  0.0997
19106TIP3   OH278732   4.229   2.249   4.960  0.8024 -0.5835 -0.1148
19106TIP3    H178733   4.304   2.201   4.994  0.7408 -0.0366  0.8414
19106TIP3    H278734   4.255   2.341   4.965  0.7374 -0.4760 -1.4520
19107TIP3   OH278735   6.747   1.380  14.317  0.0154 -0.1880 -0.2110
19107TIP3    H178736   6.680   1.312  14.324  0.7999 -1.1098 -1.1614
19107TIP3    H278737   6.829   1.335  14.339  0.2705  1.1048  1.7561
19108TIP3   OH278738   0.795   2.034  14.559 -0.5741 -0.3787  0.4233
19108TIP3    H178739   0.877   2.017  14.512  0.2485  0.8407  1.3476
19108TIP3    H278740   0.733   2.060  14.491  0.1571 -0.1571 -0.1703
19109TIP3   OH278741   3.071   2.217  14.096 -0.4602 -0.2255 -0.0100
19109TIP3    H178742   3.050   2.304  14.131 -1.4307 -0.6812  0.5911
19109TIP3    H278743   3.107   2.170  14.171  2.3400  0.3571 -0.8856
19110TIP3   OH278744   5.280   3.388  12.591  0.1258  0.1060  0.4637
19110TIP3    H178745   5.344   3.348  12.649  0.0468  0.2566  0.6580
19110TIP3    H278746   5.230   3.314  12.556  1.4661 -0.1677 -0.9985
19111TIP3   OH278747   2.448   0.769   5.423 -0.1356 -0.4479  0.0349
19111TIP3    H178748   2.461   0.858   5.390  0.5849 -0.0108  1.4425
19111TIP3    H278749   2.359   0.747   5.396 -1.0604  1.4526  1.3192
19112TIP3   OH278750   5.735   6.288  15.457 -0.0874 -0.2516  0.1054
19112TIP3    H178751   5.652   6.319  15.493  0.3000 -0.9418  1.6854
19112TIP3    H278752   5.801   6.333  15.510  0.6027  0.7247 -1.4938
19113TIP3   OH278753   5.548   3.081   4.248  0.2955  0.3528  0.3626
19113TIP3    H178754   5.575   3.003   4.200  0.9635  0.8868 -0.1625
19113TIP3    H278755   5.616   3.092   4.315 -1.1555 -0.9554  2.1334
19114TIP3   OH278756   2.540   4.659   1.546  0.3086 -0.1719 -0.0180
19114TIP3    H178757   2.600   4.691   1.478  2.0243  0.3347  1.6372
19114TIP3    H278758   2.453   4.683   1.515  1.1106  0.8675 -1.5862
19115TIP3   OH278759   1.918   4.098   5.289  0.9462  0.0001  0.1670
19115TIP3    H178760   1.894   4.181   5.328  0.5446 -0.4419  0.8873
19115TIP3    H278761   2.010   4.108   5.265  0.1781  1.6788 -2.5010
19116TIP3   OH278762   3.591   3.227  16.707 -0.4030 -0.1619  0.2735
19116TIP3    H178763   3.536   3.256  16.779 -1.2479 -1.2924  0.1060
19116TIP3    H278764   3.531   3.190  16.643  0.3294  0.8464 -1.0530
19117TIP3   OH278765   1.430   4.574   2.896  0.1894  0.4646  0.1289
19117TIP3    H178766   1.387   4.611   2.819  1.1917  0.4886 -0.4367
19117TIP3    H278767   1.519   4.552   2.866  0.2857 -0.4300  1.0179
19118TIP3   OH278768   2.209   4.490   6.336 -0.0399  0.0862  0.2419
19118TIP3    H178769   2.180   4.574   6.371 -0.0687  0.1666  0.0272
19118TIP3    H278770   2.184   4.426   6.402 -0.7422  0.1503  0.0433
19119TIP3   OH278771   0.935   0.549  11.079 -0.0154 -1.0257  0.0559
19119TIP3    H178772   1.027   0.544  11.052  0.1572  0.0152  0.3893
19119TIP3    H278773   0.889   0.578  11.001  0.2332  0.2976  0.3707
19120TIP3   OH278774   1.876   4.608  13.005 -0.0447  0.3056  0.3528
19120TIP3    H178775   1.967   4.588  13.025  0.4636 -0.0982 -2.0798
19120TIP3    H278776   1.863   4.698  13.037  1.5165  0.7395 -0.1601
19121TIP3   OH278777   3.774   4.553  14.794 -0.5031 -0.2142  0.1615
19121TIP3    H178778   3.680   4.542  14.809 -0.2449 -1.9576  0.6425
19121TIP3    H278779   3.815   4.481  14.841  1.0771  0.3579 -0.2713
19122TIP3   OH278780   5.526   2.967   1.698  0.1739 -0.1721 -0.0235
19122TIP3    H178781   5.617   2.940   1.707 -0.3301 -2.5533 -1.3284
19122TIP3    H278782   5.512   2.975   1.604 -0.4679  2.2297  0.2098
19123TIP3   OH278783   4.427   2.919   3.876 -0.0713 -0.1608  0.8529
19123TIP3    H178784   4.509   2.959   3.907  1.3576 -1.9329 -0.4252
19123TIP3    H278785   4.361   2.948   3.938  1.5709  1.1461  2.0754
19124TIP3   OH278786   1.560   1.594  13.810  0.1191 -0.0364  0.1439
19124TIP3    H178787   1.509   1.654  13.756 -1.9874 -1.2859  0.6091
19124TIP3    H278788   1.605   1.537  13.748 -1.2987 -0.6706 -0.3503
19125TIP3   OH278789   3.482   1.131   5.271  0.3092  0.4566  0.1441
19125TIP3    H178790   3.577   1.123   5.255  0.4525  0.3198  0.9893
19125TIP3    H278791   3.474   1.122   5.366 -0.8864 -3.4123 -0.1561
19126TIP3   OH278792   0.931   5.278   1.062 -0.2325  0.5535 -0.1289
19126TIP3    H178793   0.932   5.361   1.109  1.3873  0.7978 -0.5391
19126TIP3    H278794   1.008   5.282   1.005 -0.2075 -1.1623 -0.2656
19127TIP3   OH278795   3.080   2.301   3.218  0.9101 -0.2673 -0.2054
19127TIP3    H178796   3.025   2.277   3.292 -0.2813  1.4501 -0.4570
19127TIP3    H278797   3.026   2.284   3.141  1.8611 -1.3467 -0.6619
19128TIP3   OH278798   4.102   0.888  13.884 -0.3153 -0.5622 -0.1438
19128TIP3    H178799   4.151   0.842  13.953 -2.6099 -1.1469  1.1987
19128TIP3    H278800   4.080   0.819  13.821  0.1873 -0.3698 -0.5447
19129TIP3   OH278801   2.664   5.570   4.558  0.0338 -0.2778  0.1038
19129TIP3    H178802   2.569   5.571   4.544  0.0919  0.7551 -0.3533
19129TIP3    H278803   2.680   5.645   4.616  0.6938  0.3131 -0.8103
19130TIP3   OH278804   0.241   0.932   1.971  0.0788 -0.3097 -0.2253
19130TIP3    H178805   0.173   0.872   2.001 -0.2006 -0.2884 -0.7968
19130TIP3    H278806   0.323   0.884   1.983 -0.0166 -0.2707  0.6251
19131TIP3   OH278807   2.376   0.094  13.680 -0.1702  0.3476  0.0549
19131TIP3    H178808   2.412   0.026  13.737 -0.2428 -0.7030 -1.1180
19131TIP3    H278809   2.338   0.047  13.606 -0.1881  1.6665 -0.8234
19132TIP3   OH278810   4.064   5.678  14.588 -0.2133  0.0335 -0.8590
19132TIP3    H178811   4.096   5.752  14.536  0.9232 -0.1174 -0.4192
19132TIP3    H278812   4.071   5.707  14.679 -1.9312  0.1958 -0.7491
19133TIP3   OH278813   2.374   2.429  15.746  0.0812  0.1544  0.1339
19133TIP3    H178814   2.279   2.420  15.756  0.1754 -1.8767 -0.3801
19133TIP3    H278815   2.385   2.514  15.704 -1.5977 -0.0316 -0.7832
19134TIP3   OH278816   4.294   2.882   5.177 -0.2675  0.0699  0.1397
19134TIP3    H178817   4.266   2.973   5.184  0.5423  0.2856  0.6672
19134TIP3    H278818   4.215   2.835   5.148 -0.0487  1.3099 -2.8473
19135TIP3   OH278819   2.357   0.621  12.023 -0.3776 -0.1819  0.6661
19135TIP3    H178820   2.262   0.611  12.025 -0.4290  0.3313  2.2508
19135TIP3    H278821   2.371   0.715  12.021  0.0466 -0.1324  2.8984
19136TIP3   OH278822   3.746   2.359   1.775 -0.6799  0.0022  0.9303
19136TIP3    H178823   3.736   2.338   1.682  0.3414 -0.0515  0.8206
19136TIP3    H278824   3.665   2.327   1.816 -0.6966 -0.9020  0.2240
19137TIP3   OH278825   2.383   1.952   0.293 -0.7363  0.0801  0.3177
19137TIP3    H178826   2.390   1.868   0.337 -0.4682 -0.8684 -1.4308
19137TIP3    H278827   2.470   1.992   0.303 -0.9764  0.3504  1.4758
19138TIP3   OH278828   4.339   4.936   3.206  0.0465  0.1543 -0.4002
19138TIP3    H178829   4.323   5.009   3.147  0.9171  0.6307 -0.0803
19138TIP3    H278830   4.254   4.915   3.244 -0.8572 -1.1726 -2.9062
19139TIP3   OH278831   2.388   4.073  16.563 -0.5871 -0.8685 -0.3220
19139TIP3    H178832   2.387   4.056  16.469  0.8790 -0.9449 -0.3516
19139TIP3    H278833   2.323   4.012  16.600 -0.7113 -1.2819 -1.2085
19140TIP3   OH278834   1.216   1.458  13.276 -0.2723 -0.0337 -0.0042
19140TIP3    H178835   1.299   1.493  13.244 -0.4604  0.6559  0.2562
19140TIP3    H278836   1.180   1.409  13.201 -0.8361  1.7656 -0.9552
19141TIP3   OH278837   2.670   4.406   3.320  0.3989  0.3536  0.3291
19141TIP3    H178838   2.713   4.482   3.360 -0.0268  1.0165 -0.4503
19141TIP3    H278839   2.621   4.367   3.391 -0.5070  1.6323  0.4485
19142TIP3   OH278840   2.642   1.191  15.322 -0.1087  0.0978  0.3686
19142TIP3    H178841   2.662   1.277  15.357  0.8504 -0.1666  0.5041
19142TIP3    H278842   2.725   1.161  15.284  0.1739 -1.6458  2.2010
19143TIP3   OH278843   3.714   5.803   1.701 -0.5331  0.0588  0.0386
19143TIP3    H178844   3.631   5.760   1.717 -0.7361 -0.9983 -3.0618
19143TIP3    H278845   3.696   5.865   1.630  0.9289  1.2349  0.6296
19144TIP3   OH278846   4.058   3.579  12.337  0.4314 -0.8235  0.5147
19144TIP3    H178847   3.981   3.613  12.290  0.2683 -1.8445  0.0077
19144TIP3    H278848   4.123   3.649  12.329 -0.8569  0.6610  2.1428
19145TIP3   OH278849   4.144   4.236  11.925 -0.0559 -0.3792  0.5870
19145TIP3    H178850   4.066   4.202  11.970 -0.2785 -0.2244  0.3182
19145TIP3    H278851   4.152   4.326  11.955  0.6739 -0.7207  1.4856
19146TIP3   OH278852   3.858   2.893   3.269  0.0013 -0.3952 -0.7322
19146TIP3    H178853   3.857   2.845   3.186 -2.1248 -1.4122 -0.1983
19146TIP3    H278854   3.824   2.980   3.247  0.5225 -0.2773 -1.0979
19147TIP3   OH278855   2.657   6.296   4.133  0.0585 -0.4047 -0.5624
19147TIP3    H178856   2.576   6.347   4.137 -0.3168 -0.9417 -1.0798
19147TIP3    H278857   2.716   6.341   4.194 -0.6366 -0.0283 -0.1369
19148TIP3   OH278858   6.432   2.794   2.370  0.5486 -0.2935  0.1620
19148TIP3    H178859   6.526   2.795   2.351  0.5683  0.8847  0.2870
19148TIP3    H278860   6.391   2.817   2.286  0.3399 -1.1549  0.0147
19149TIP3   OH278861   1.265   2.978   5.428 -0.2352  0.7274 -0.5901
19149TIP3    H178862   1.299   2.975   5.517  3.3445  0.5141 -1.7987
19149TIP3    H278863   1.220   2.895   5.416 -0.8407  0.7898  0.9939
19150TIP3   OH278864   6.745   5.528   5.231 -0.9678  0.1687  0.7701
19150TIP3    H178865   6.745   5.437   5.263  0.5120 -0.2153 -0.2460
19150TIP3    H278866   6.800   5.575   5.294 -0.1758 -0.0463  0.2463
19151TIP3   OH278867   5.069   4.623  12.572 -0.3181  0.1723 -0.4577
19151TIP3    H178868   5.150   4.674  12.568 -1.3907  1.9377 -0.5121
19151TIP3    H278869   5.001   4.685  12.546 -1.6470 -1.3984 -0.8415
19152TIP3   OH278870   5.402   1.677  16.657  0.2923 -0.4165 -0.2812
19152TIP3    H178871   5.339   1.607  16.639 -0.4153 -0.0250  0.5715
19152TIP3    H278872   5.435   1.656  16.745  1.3814 -0.6300 -0.7266
19153TIP3   OH278873   3.396   6.555  16.880  0.3385 -0.0831  0.3731
19153TIP3    H178874   3.307   6.565  16.845 -0.1934  2.5931  2.1642
19153TIP3    H278875   3.393   6.474  16.931 -1.4893  0.5614  1.3865
19154TIP3   OH278876   0.037   4.233  16.321 -0.0289  0.0177  0.1239
19154TIP3    H178877   0.011   4.200  16.235 -0.3696  0.8567 -0.1078
19154TIP3    H278878   0.132   4.219  16.325 -0.2306 -1.4485  0.2587
19155TIP3   OH278879   1.329   4.790  15.522  0.6430 -0.1771  0.0833
19155TIP3    H178880   1.382   4.870  15.523 -1.1198  1.0396  1.0352
19155TIP3    H278881   1.391   4.720  15.499  2.8380  1.0501  1.8635
19156TIP3   OH278882   2.782   5.997  15.210  0.2883 -0.3046 -0.5501
19156TIP3    H178883   2.764   5.988  15.303 -0.5938 -3.4496 -0.9405
19156TIP3    H278884   2.707   6.045  15.175  1.5545  2.7474  0.5243
19157TIP3   OH278885   2.505   4.180   4.778 -0.9005 -0.1439  0.1689
19157TIP3    H178886   2.509   4.167   4.873 -1.2611  0.5558  0.2846
19157TIP3    H278887   2.414   4.164   4.756 -0.5123 -1.9068 -0.3169
19158TIP3   OH278888   2.961   6.476  13.518  0.9597  0.5303  0.1866
19158TIP3    H178889   2.982   6.559  13.560  0.7386  0.4482  0.4595
19158TIP3    H278890   2.873   6.455  13.549 -0.3782  1.8403 -2.4122
19159TIP3   OH278891   2.343   5.538  15.512 -0.7447 -0.3887 -0.0439
19159TIP3    H178892   2.388   5.568  15.592  0.5671 -3.4998  0.5315
19159TIP3    H278893   2.411   5.537  15.445 -0.8683 -1.4220 -0.1744
19160TIP3   OH278894   1.929   0.468   3.138  0.6652  0.2715  0.1264
19160TIP3    H178895   1.947   0.538   3.201 -0.5932 -0.6829  1.6247
19160TIP3    H278896   1.990   0.398   3.161 -0.2097 -0.3194  0.7280
19161TIP3   OH278897   4.111   1.335  17.326 -0.6356 -0.2168 -0.1636
19161TIP3    H178898   4.064   1.417  17.307 -0.2690  0.0962  0.2504
19161TIP3    H278899   4.202   1.363  17.339 -0.6166 -0.6201  0.5819
19162TIP3   OH278900   6.713   6.158   4.632 -0.0094  0.4177  0.3203
19162TIP3    H178901   6.793   6.127   4.673  0.2631 -1.4676 -1.4990
19162TIP3    H278902   6.741   6.229   4.574  0.5731 -0.9511 -1.1336
19163TIP3   OH278903   5.353   6.240  13.388  0.2137  0.2012 -0.3480
19163TIP3    H178904   5.291   6.210  13.454  0.9988  0.1249  0.3608
19163TIP3    H278905   5.327   6.331  13.371 -1.0547 -0.2873 -1.2073
19164TIP3   OH278906   3.770   0.368  14.433  0.7609  1.0724 -0.3577
19164TIP3    H178907   3.859   0.399  14.416  2.1202 -1.9044  0.7904
19164TIP3    H278908   3.763   0.364  14.528  1.2663 -3.1541 -0.3012
19165TIP3   OH278909   2.580   3.117  14.453  0.6184  0.1039  0.3975
19165TIP3    H178910   2.664   3.156  14.430  1.1524 -1.6745 -0.8266
19165TIP3    H278911   2.587   3.026  14.426 -1.8716 -0.0010 -0.1577
19166TIP3   OH278912   0.100   6.681  15.405  0.0104 -0.1425 -0.1338
19166TIP3    H178913   0.037   6.709  15.472  0.2382 -0.3752  0.1824
19166TIP3    H278914   0.103   6.754  15.343  2.2591  1.6182  1.8351
19167TIP3   OH278915   1.221   1.394   2.555 -0.2845 -0.3214  0.6517
19167TIP3    H178916   1.190   1.329   2.618 -3.1777 -0.3712 -0.6437
19167TIP3    H278917   1.254   1.466   2.608 -0.5133 -1.2924  2.1656
19168TIP3   OH278918   5.972   5.242  15.816  0.3907 -0.2840  0.2057
19168TIP3    H178919   5.934   5.303  15.753  0.6876 -0.8775 -0.5526
19168TIP3    H278920   5.982   5.294  15.896  0.4823  0.6176 -0.3763
19169TIP3   OH278921   1.546   5.500  14.914  0.3576  0.1145 -0.6564
19169TIP3    H178922   1.484   5.573  14.910 -0.1407 -0.2971 -0.5623
19169TIP3    H278923   1.571   5.494  15.007 -0.4819 -0.5484 -0.4586
19170TIP3   OH278924   3.406   1.246   1.558 -0.0535 -0.6000 -0.2194
19170TIP3    H178925   3.386   1.281   1.645 -0.6151 -1.1445 -0.1230
19170TIP3    H278926   3.322   1.244   1.513 -0.4554 -3.7899  0.4981
19171TIP3   OH278927   6.420   5.461  12.472 -0.4915 -0.5164 -0.3139
19171TIP3    H178928   6.332   5.452  12.435 -1.5460 -0.5072  2.0020
19171TIP3    H278929   6.466   5.382  12.443 -1.5351 -0.9213 -0.9233
19172TIP3   OH278930   2.867   1.945  14.365  0.5664  0.0081 -0.8996
19172TIP3    H178931   2.779   1.977  14.387  0.8581  0.1488  0.1201
19172TIP3    H278932   2.875   1.960  14.271 -0.1279  0.9339 -0.8303
19173TIP3   OH278933   6.054   1.869  13.675 -0.5363  0.2483  0.5517
19173TIP3    H178934   5.981   1.922  13.644 -0.1249  1.2223  1.1973
19173TIP3    H278935   6.018   1.781  13.683 -1.0748  0.2890 -1.1231
19174TIP3   OH278936   0.123   1.329  16.741 -0.6035  0.0750 -0.1043
19174TIP3    H178937   0.062   1.404  16.748  1.0154  1.3692  0.8481
19174TIP3    H278938   0.116   1.285  16.825  0.1614  0.5638  0.2260
19175TIP3   OH278939   1.266   5.146   2.053  0.1586  0.3968 -0.0805
19175TIP3    H178940   1.323   5.193   2.113 -1.7442  1.8930  0.6390
19175TIP3    H278941   1.280   5.054   2.074  2.7793  0.6223 -0.4328
19176TIP3   OH278942   1.034   5.099   2.302  0.3983  0.1229  0.0178
19176TIP3    H178943   1.094   5.172   2.319 -0.4224  0.4852  1.4691
19176TIP3    H278944   0.947   5.137   2.307 -0.0125 -0.6627 -0.7657
19177TIP3   OH278945   3.093   6.413   6.674 -0.7733 -0.5232 -0.5466
19177TIP3    H178946   3.133   6.434   6.758 -1.2005 -0.5004 -0.3491
19177TIP3    H278947   3.021   6.476   6.664  0.5323  0.8308 -1.8865
19178TIP3   OH278948   6.694   4.352   5.349  0.5192 -0.2470  0.3136
19178TIP3    H178949   6.624   4.365   5.286  0.6013 -0.4904  0.1691
19178TIP3    H278950   6.770   4.329   5.296  0.8870  0.6996  0.4138
19179TIP3   OH278951   4.392   3.299   3.620 -0.3447  0.0072  0.5491
19179TIP3    H178952   4.481   3.317   3.651 -0.0867 -0.0170 -0.1668
19179TIP3    H278953   4.380   3.359   3.546  0.1153 -1.9171 -1.1812
19180TIP3   OH278954   4.284   4.265   2.768 -0.3070  0.3716 -0.0204
19180TIP3    H178955   4.266   4.273   2.675 -1.8157 -0.3662  0.1839
19180TIP3    H278956   4.203   4.292   2.811 -0.1576 -0.7662  1.0403
19181TIP3   OH278957   6.507   0.883  11.209 -0.4320 -0.4961  0.3362
19181TIP3    H178958   6.443   0.812  11.205 -1.2566  0.2010  0.9352
19181TIP3    H278959   6.464   0.952  11.258  1.0603 -0.2980  1.4610
19182TIP3   OH278960   0.860   5.076  15.566  0.1434 -0.0341 -0.7269
19182TIP3    H178961   0.868   5.170  15.551  2.1455  0.0892  0.7336
19182TIP3    H278962   0.941   5.052  15.611 -0.3864 -2.4410 -0.9406
19183TIP3   OH278963   4.550   5.779   0.474  0.2410  0.3280  0.1386
19183TIP3    H178964   4.526   5.687   0.476  2.3105 -0.3097 -1.5229
19183TIP3    H278965   4.628   5.785   0.530  1.0083  0.7512 -0.9465
19184TIP3   OH278966   4.259   5.939   4.271 -0.3535 -0.2408 -0.3243
19184TIP3    H178967   4.344   5.973   4.296  0.0655 -1.0264 -0.6460
19184TIP3    H278968   4.212   6.015   4.237 -0.5036  0.6018  1.6352
19185TIP3   OH278969   1.609   4.451  15.603  0.1921  0.3572  0.6225
19185TIP3    H178970   1.539   4.495  15.555 -0.8331 -1.5094  0.3067
19185TIP3    H278971   1.689   4.497  15.576 -0.5957  0.7887 -1.1582
19186TIP3   OH278972   3.536   2.277  16.122 -0.2360  0.3268 -0.9189
19186TIP3    H178973   3.563   2.195  16.080 -1.7751 -0.4135 -0.4988
19186TIP3    H278974   3.546   2.343  16.053 -3.1831 -0.9406 -2.7337
19187TIP3   OH278975   3.339   0.916   6.073  0.2367 -0.2833  0.1628
19187TIP3    H178976   3.301   0.901   6.160 -1.2140 -0.5025 -0.4819
19187TIP3    H278977   3.433   0.916   6.088  0.3091 -4.7736  1.1025
19188TIP3   OH278978   3.696   3.130  14.740  0.1010 -0.4350  0.2792
19188TIP3    H178979   3.674   3.053  14.792 -1.4030 -0.8146 -0.8316
19188TIP3    H278980   3.787   3.116  14.713  0.5637 -0.7306  1.8752
19189TIP3   OH278981   2.091   5.639   0.894  0.0482 -0.2059 -0.1088
19189TIP3    H178982   2.087   5.544   0.881  2.0340 -0.1956 -1.0982
19189TIP3    H278983   2.083   5.651   0.988 -4.0652 -1.0305 -0.1440
19190TIP3   OH278984   6.051   1.772  12.329 -0.1402 -0.1235 -0.1680
19190TIP3    H178985   5.977   1.800  12.383  0.8480  1.8074  0.2903
19190TIP3    H278986   6.128   1.807  12.374  1.2511 -3.2131  0.1008
19191TIP3   OH278987   2.113   0.898  11.525  0.2991  0.1445  0.3504
19191TIP3    H178988   2.183   0.927  11.584  1.1778  0.2246 -0.7073
19191TIP3    H278989   2.158   0.868  11.446 -0.7890 -1.0914  0.1669
19192TIP3   OH278990   0.069   3.189   2.351 -0.3140  0.2499 -0.3033
19192TIP3    H178991   0.036   3.099   2.355 -1.7078  0.7384 -0.1714
19192TIP3    H278992   0.034   3.224   2.270 -0.5082  0.9347  0.0662
19193TIP3   OH278993   1.927   5.240   3.190  0.5965  0.3699 -0.1365
19193TIP3    H178994   1.967   5.189   3.119 -1.8555 -0.0940 -1.2710
19193TIP3    H278995   1.833   5.226   3.180  0.1333 -0.5844  3.8762
19194TIP3   OH278996   4.138   1.482  12.734  0.5447 -0.3508 -0.5507
19194TIP3    H178997   4.102   1.397  12.707  0.4900 -0.5737  0.1896
19194TIP3    H278998   4.223   1.487  12.690  1.0631 -1.3155  0.2858
19195TIP3   OH278999   6.353   6.458  14.597  0.6602  0.1368 -0.3451
19195TIP3    H179000   6.261   6.443  14.576  0.7460  0.7570 -1.1963
19195TIP3    H279001   6.385   6.372  14.626 -0.4763  0.1821  1.1402
19196TIP3   OH279002   0.202   6.146   3.227  0.3761  0.1356 -0.7598
19196TIP3    H179003   0.134   6.210   3.206 -1.0802 -1.1176 -0.1059
19196TIP3    H279004   0.193   6.131   3.321 -0.5062 -2.2444 -1.1523
19197TIP3   OH279005   5.011   4.202   4.667 -0.0772  0.5544 -0.2963
19197TIP3    H179006   4.973   4.234   4.586  0.5031  1.2463 -0.3086
19197TIP3    H279007   4.951   4.133   4.697 -0.7985  0.9517 -0.8078
19198TIP3   OH279008   4.527   5.988   4.270 -0.2686 -0.2246 -0.0776
19198TIP3    H179009   4.544   6.022   4.182 -1.2544  0.3746 -0.0441
19198TIP3    H279010   4.576   5.906   4.273  0.1275 -0.0418 -1.0298
19199TIP3   OH279011   5.346   1.045  16.656 -0.0138  0.2537  0.0117
19199TIP3    H179012   5.395   0.977  16.702  0.1490  1.2888  1.4355
19199TIP3    H279013   5.377   1.127  16.694 -0.5992  1.1042 -1.2796
19200TIP3   OH279014   1.712   3.350  13.713  0.0591  0.4318 -0.1770
19200TIP3    H179015   1.739   3.259  13.719 -0.8162  0.2625  2.6123
19200TIP3    H279016   1.788   3.400  13.742 -0.2140  0.4169  0.5851
19201TIP3   OH279017   4.890   0.567  17.173  0.4388 -0.3379 -0.2537
19201TIP3    H179018   4.969   0.513  17.181  1.3006  0.6958 -1.3535
19201TIP3    H279019   4.905   0.640  17.233  0.1910 -0.2840 -0.2586
19202TIP3   OH279020   3.465   4.216  13.304 -0.0702  0.0855  0.2574
19202TIP3    H179021   3.385   4.181  13.266  1.0379 -0.6084 -1.5528
19202TIP3    H279022   3.514   4.138  13.331 -0.3786  0.5316  2.2487
19203TIP3   OH279023   3.110   2.636  15.407 -0.1458  0.0678  0.1024
19203TIP3    H179024   3.088   2.712  15.460 -1.1991 -1.2106  1.5871
19203TIP3    H279025   3.027   2.612  15.365  0.1615 -0.3022 -0.3005
19204TIP3   OH279026   4.206   3.682   1.652  0.1101  0.6814  0.2148
19204TIP3    H179027   4.293   3.683   1.693  0.1147 -1.0549  0.3279
19204TIP3    H279028   4.145   3.682   1.726  0.0667 -0.0640  0.1843
19205TIP3   OH279029   6.746   6.425   2.533 -0.1785  0.0222 -0.4378
19205TIP3    H179030   6.676   6.450   2.473 -0.9173 -0.1436  0.3441
19205TIP3    H279031   6.717   6.342   2.571 -0.3957  0.7879  1.1733
19206TIP3   OH279032   2.102   2.825   2.370  0.0657 -0.1435 -0.0345
19206TIP3    H179033   2.055   2.742   2.364 -0.8398  0.4273 -1.3887
19206TIP3    H279034   2.050   2.886   2.318  1.0962  1.1018  0.3341
19207TIP3   OH279035   2.477   4.751   6.080 -0.4060 -0.3010  0.2288
19207TIP3    H179036   2.482   4.843   6.106 -0.2493 -0.9487  2.7099
19207TIP3    H279037   2.548   4.708   6.128  0.3494 -1.5457 -1.8708
19208TIP3   OH279038   6.086   0.575   6.092 -0.6848 -0.0344 -0.0112
19208TIP3    H179039   6.063   0.548   6.181  0.0541 -0.9209 -0.0878
19208TIP3    H279040   6.019   0.535   6.037 -0.5453 -0.3370  0.0402
19209TIP3   OH279041   1.252   3.603  11.393 -0.3257  0.6693  0.1127
19209TIP3    H179042   1.190   3.568  11.457 -0.6953  1.7115  0.3423
19209TIP3    H279043   1.337   3.598  11.437 -0.3413 -0.1085  0.0657
19210TIP3   OH279044   5.950   2.655  16.353  0.1778  0.3448 -0.1473
19210TIP3    H179045   5.969   2.748  16.356 -1.4938  0.7059  1.1197
19210TIP3    H279046   5.973   2.622  16.440 -0.9010 -0.0391  0.0101
19211TIP3   OH279047   3.620   1.259   2.703 -0.7388  0.5517 -0.1220
19211TIP3    H179048   3.631   1.219   2.616  0.6784 -1.2799  0.8385
19211TIP3    H279049   3.708   1.288   2.727 -0.3547 -2.0135  2.0360
19212TIP3   OH279050   2.825   3.210  13.423 -0.4130  0.9085 -0.4417
19212TIP3    H179051   2.897   3.222  13.485  1.0457  1.6133 -2.1698
19212TIP3    H279052   2.810   3.116  13.421  1.3849  0.5989 -1.0027
19213TIP3   OH279053   6.278   1.644   1.847  0.1128 -0.0728 -0.1339
19213TIP3    H179054   6.296   1.612   1.758 -0.4803  0.8376 -0.5980
19213TIP3    H279055   6.201   1.595   1.875 -1.5539  1.7176 -1.3251
19214TIP3   OH279056   0.025   3.466  11.632  0.2442 -0.0824  0.5686
19214TIP3    H179057  -0.035   3.391  11.629 -0.2480  0.3485 -1.6105
19214TIP3    H279058  -0.026   3.540  11.600  1.3983  0.7046  0.4598
19215TIP3   OH279059   5.738   3.807   5.878 -0.1498  0.0382  0.5374
19215TIP3    H179060   5.814   3.755   5.905  0.0392  0.4525  0.8059
19215TIP3    H279061   5.772   3.895   5.863 -0.6058  0.2745  0.8464
19216TIP3   OH279062   1.227   5.448  17.085  0.4613 -0.1084  0.2354
19216TIP3    H179063   1.204   5.538  17.062 -2.6433 -0.8746 -0.1735
19216TIP3    H279064   1.264   5.454  17.173 -0.9647  1.4795  0.7884
19217TIP3   OH279065   2.666   1.141   1.332  0.1626  0.1282  0.1290
19217TIP3    H179066   2.750   1.182   1.350  0.8781 -2.0663  2.2981
19217TIP3    H279067   2.606   1.178   1.397 -0.1642  0.5485 -0.4068
19218TIP3   OH279068   1.603   2.984  13.788  0.1650  0.1908  0.1250
19218TIP3    H179069   1.647   3.030  13.860  1.1583 -0.3370 -0.1277
19218TIP3    H279070   1.550   3.052  13.745  0.0002  0.6313  1.0015
19219TIP3   OH279071   4.077   3.516   3.740 -0.4541  0.2514 -0.4803
19219TIP3    H179072   4.158   3.557   3.768 -0.7454  0.2179  0.4459
19219TIP3    H279073   4.088   3.423   3.762 -1.1633  0.4264  0.6726
19220TIP3   OH279074   5.752   1.567  11.920  0.3097  0.4283  0.2592
19220TIP3    H179075   5.834   1.546  11.965  0.2088 -0.7914 -0.0987
19220TIP3    H279076   5.701   1.614  11.986  0.8224  0.1439  0.8781
19221TIP3   OH279077   0.211   2.873  15.221 -0.0030  0.2542  0.1698
19221TIP3    H179078   0.257   2.834  15.296  0.0529  2.0046  1.1009
19221TIP3    H279079   0.272   2.861  15.148  1.9017  2.2289  1.3092
19222TIP3   OH279080   4.438   3.916   2.328  0.0242 -0.2983  0.1449
19222TIP3    H179081   4.344   3.913   2.311 -0.0428  1.2251  0.0514
19222TIP3    H279082   4.471   3.982   2.267  1.0013 -0.1654  0.7981
19223TIP3   OH279083   2.362   6.531  12.984  0.2210 -0.5971 -0.6665
19223TIP3    H179084   2.454   6.555  12.993  0.2599 -0.0202 -2.3063
19223TIP3    H279085   2.346   6.529  12.889 -1.9240  1.1987 -0.4457
19224TIP3   OH279086   0.483   1.590   2.910 -0.3729  0.0358 -0.9827
19224TIP3    H179087   0.443   1.621   2.991 -0.7045 -1.4309 -0.5569
19224TIP3    H279088   0.490   1.668   2.855 -1.0653  0.8661  0.0742
19225TIP3   OH279089   6.167   2.024   6.605  0.0962 -0.2796 -0.3447
19225TIP3    H179090   6.173   2.044   6.512  0.6901 -0.0629 -0.2627
19225TIP3    H279091   6.251   2.052   6.641  0.5343 -1.8891 -0.0314
19226TIP3   OH279092   4.098   2.447   4.181  0.4528 -0.0286 -0.7430
19226TIP3    H179093   4.187   2.442   4.218  0.2998  0.5471 -0.2856
19226TIP3    H279094   4.098   2.527   4.129  1.2295 -1.7362 -3.5948
19227TIP3   OH279095   2.441   6.453  12.664 -0.7591 -0.0350 -0.0076
19227TIP3    H179096   2.357   6.416  12.636  0.6694 -0.3409 -4.8674
19227TIP3    H279097   2.431   6.547  12.652 -1.0919  0.2045  1.8830
19228TIP3   OH279098   6.738   1.613   2.150 -0.0700 -0.8914  0.3809
19228TIP3    H179099   6.681   1.598   2.075  0.3555  0.9660 -0.3706
19228TIP3    H279100   6.786   1.531   2.160 -0.5288 -1.3627 -1.0293
19229TIP3   OH279101   2.355   2.553  13.600  0.3564 -0.6123 -0.0526
19229TIP3    H179102   2.410   2.552  13.678 -1.4698 -2.7770  1.3459
19229TIP3    H279103   2.380   2.474  13.552  0.9431  0.3092 -1.3153
19230TIP3   OH279104   0.576   2.852  11.689  0.3711  0.1798 -0.2634
19230TIP3    H179105   0.539   2.864  11.776 -0.9166 -2.3565 -0.3723
19230TIP3    H279106   0.560   2.935  11.645 -1.1549  0.6936  1.1491
19231TIP3   OH279107   5.988   0.740   0.582  0.1406  0.3341 -0.0699
19231TIP3    H179108   5.935   0.773   0.510 -0.7379 -1.0715 -0.1008
19231TIP3    H279109   5.934   0.672   0.623  1.3782 -0.2016  0.7351
19232TIP3   OH279110   3.112   6.460  16.770 -0.2558  0.0386  0.0276
19232TIP3    H179111   3.120   6.370  16.802 -3.8072 -0.1833  0.7149
19232TIP3    H279112   3.122   6.454  16.675  4.1084 -0.2408  0.3101
19233TIP3   OH279113   3.599   6.105   3.735 -0.1324  0.2424  0.0949
19233TIP3    H179114   3.587   6.198   3.719 -1.7062 -0.2718 -1.9848
19233TIP3    H279115   3.523   6.079   3.787 -0.0233 -0.0063  0.1341
19234TIP3   OH279116   5.503   5.163  15.117 -0.6228 -0.2421  0.0270
19234TIP3    H179117   5.463   5.142  15.033  2.0515  0.5634 -1.5797
19234TIP3    H279118   5.595   5.177  15.096 -0.2362  2.1130  2.7552
19235TIP3   OH279119   0.548   0.315  11.428 -0.1398 -0.2448 -0.1566
19235TIP3    H179120   0.600   0.376  11.479 -0.7861  1.1007 -1.0597
19235TIP3    H279121   0.524   0.363  11.349 -0.0451 -1.9210 -1.2542
19236TIP3   OH279122   4.261   0.297  12.437  0.1066 -0.0720 -0.3857
19236TIP3    H179123   4.248   0.387  12.467 -0.9561 -0.2845 -0.1894
19236TIP3    H279124   4.204   0.288  12.362  2.8960  0.5198 -2.7703
19237TIP3   OH279125   4.206   1.206   5.718  0.0968 -0.3493  0.7345
19237TIP3    H179126   4.224   1.140   5.785 -2.0769  0.4327  2.2260
19237TIP3    H279127   4.152   1.161   5.654  1.3894 -0.8453 -0.0470
19238TIP3   OH279128   0.030   2.149   2.012 -0.0001 -0.3160  0.0170
19238TIP3    H179129  -0.036   2.128   1.945  0.8598  0.0132 -0.9654
19238TIP3    H279130   0.090   2.075   2.010 -0.7057 -0.9648  1.4300
19239TIP3   OH279131   6.390   2.367  15.748  0.2308 -0.1550  0.3447
19239TIP3    H179132   6.340   2.286  15.746 -0.2322  0.1389 -0.1700
19239TIP3    H279133   6.326   2.435  15.725  1.4927 -0.0831 -3.5742
19240TIP3   OH279134   4.932   2.873  13.936  0.0525  0.0592  0.3121
19240TIP3    H179135   4.892   2.932  14.001  0.6468  0.5774  0.2204
19240TIP3    H279136   4.863   2.812  13.913 -0.0188 -0.4808  1.8547
19241TIP3   OH279137   3.108   3.591   4.727  0.4008  0.0639  0.0782
19241TIP3    H179138   3.063   3.632   4.801  0.5278 -1.3688  0.9860
19241TIP3    H279139   3.173   3.656   4.699 -1.7497  1.9614 -0.9071
19242TIP3   OH279140   3.868   0.853   4.830 -0.5413 -0.4569  0.4386
19242TIP3    H179141   3.799   0.906   4.868 -0.3641  2.2855 -2.6089
19242TIP3    H279142   3.946   0.909   4.830 -0.7468  0.2663 -4.3993
19243TIP3   OH279143   1.081   0.909  15.484  0.2885 -0.1656  0.3128
19243TIP3    H179144   1.034   0.900  15.566 -0.8046  1.8471 -0.0293
19243TIP3    H279145   1.060   0.830  15.435 -0.4206 -0.5924  1.2732
19244TIP3   OH279146   3.899   5.720   4.665  0.2173 -0.2595  0.3174
19244TIP3    H179147   3.962   5.741   4.596  1.2152 -3.3667  0.1529
19244TIP3    H279148   3.942   5.652   4.717 -2.2306 -1.1180  1.3715
19245TIP3   OH279149   3.574   5.547  11.609  0.1546  0.1999 -0.0959
19245TIP3    H179150   3.585   5.639  11.633  0.4208  0.1143  0.1200
19245TIP3    H279151   3.505   5.547  11.544 -0.6561  0.4337  0.7391
19246TIP3   OH279152   4.819   6.151   4.265  0.2059  0.1594 -0.1041
19246TIP3    H179153   4.784   6.077   4.215 -0.1059 -0.1069  0.4949
19246TIP3    H279154   4.873   6.110   4.333  2.2022  0.5640 -1.3541
19247TIP3   OH279155   1.043   0.912  13.839 -0.4490  0.3277 -1.1471
19247TIP3    H179156   1.138   0.911  13.835 -0.3560  3.0865 -1.3557
19247TIP3    H279157   1.016   0.827  13.803  1.9174 -1.9096  1.8256
19248TIP3   OH279158   1.457   1.169   5.532  0.4680  0.4406 -0.0872
19248TIP3    H179159   1.506   1.238   5.576  2.7073 -1.7333  1.0151
19248TIP3    H279160   1.523   1.112   5.494 -1.2821 -1.2015 -0.8396
19249TIP3   OH279161   1.812   0.417  16.510  0.8355  0.1887  0.2324
19249TIP3    H179162   1.845   0.383  16.594  0.7834 -1.0749 -0.2317
19249TIP3    H279163   1.771   0.341  16.469  0.1965  0.9810 -0.6147
19250TIP3   OH279164   0.423   1.032  13.735  0.4450  0.0144 -0.3039
19250TIP3    H179165   0.363   1.053  13.663 -0.0127 -0.8640 -0.1916
19250TIP3    H279166   0.406   0.939  13.754  0.1097  0.3903  1.3483
19251TIP3   OH279167   3.350   0.369   2.911 -0.0133 -0.1813  0.4949
19251TIP3    H179168   3.368   0.329   2.997  0.0210  0.7908  0.9571
19251TIP3    H279169   3.316   0.456   2.932  2.8658  1.3165 -0.4731
19252TIP3   OH279170   1.747   5.534   4.961 -0.3089 -0.0449  0.6159
19252TIP3    H179171   1.803   5.509   5.034 -0.5424  0.2920  0.9132
19252TIP3    H279172   1.659   5.540   4.999 -0.6977 -1.4077 -0.0281
19253TIP3   OH279173   4.618   2.860  12.207 -0.0586  0.5807  0.3660
19253TIP3    H179174   4.693   2.807  12.181 -0.4855 -0.1417  0.5952
19253TIP3    H279175   4.550   2.797  12.232 -1.9890  1.0323 -3.0571
19254TIP3   OH279176   0.271   1.638   2.487 -0.2200 -0.2916  0.0352
19254TIP3    H179177   0.189   1.604   2.523  0.1354 -2.2407 -0.8375
19254TIP3    H279178   0.249   1.667   2.398 -0.4111  1.3921  0.6004
19255TIP3   OH279179   6.357   4.777   0.621  0.2620 -0.2087  0.5669
19255TIP3    H179180   6.341   4.751   0.712 -0.1411  0.9920  0.8617
19255TIP3    H279181   6.307   4.714   0.569  1.2318 -1.4730  1.1199
19256TIP3   OH279182   4.669   6.738   5.343 -0.1788  0.0985 -0.2707
19256TIP3    H179183   4.669   6.694   5.428  1.5994  1.3881  0.4569
19256TIP3    H279184   4.761   6.742   5.317 -0.5421  1.0905 -1.5222
19257TIP3   OH279185   6.239   2.348   3.311  0.4001  0.7444  0.4749
19257TIP3    H179186   6.323   2.355   3.357  0.9185  0.4216 -0.3974
19257TIP3    H279187   6.263   2.332   3.220 -0.6261 -0.1255  0.3396
19258TIP3   OH279188   5.506   4.728   4.373 -0.4316 -0.2547 -0.2375
19258TIP3    H179189   5.468   4.702   4.457 -1.2159  1.0070 -0.1777
19258TIP3    H279190   5.432   4.761   4.322 -0.0016 -1.2082 -1.5271
19259TIP3   OH279191   2.222   0.186   3.737 -0.3529 -0.0789 -0.6647
19259TIP3    H179192   2.207   0.200   3.830 -1.1818  0.4625 -0.8719
19259TIP3    H279193   2.229   0.274   3.700  0.3000 -0.2903 -1.0716
19260TIP3   OH279194   2.573   4.206  11.609 -0.3218 -0.2523 -0.1845
19260TIP3    H179195   2.654   4.231  11.565 -0.8270  0.1252 -0.9160
19260TIP3    H279196   2.504   4.248  11.558 -1.1413 -2.3420 -0.9000
19261TIP3   OH279197   3.900   3.483  15.578 -0.6371  0.2961  0.1258
19261TIP3    H179198   3.907   3.482  15.483  1.9382 -1.7184  0.2163
19261TIP3    H279199   3.904   3.391  15.604 -0.0601  0.8375  2.2184
19262TIP3   OH279200   4.555   0.810   0.656  0.3283  0.8917  0.3536
19262TIP3    H179201   4.538   0.833   0.748  0.1468 -1.0161  0.8478
19262TIP3    H279202   4.603   0.727   0.661  0.6856  0.9793 -1.2740
19263TIP3   OH279203   2.110   6.426   4.757  0.1515  0.3423 -0.0443
19263TIP3    H179204   2.108   6.513   4.717 -0.1841  0.5522  0.4213
19263TIP3    H279205   2.128   6.442   4.850 -0.4241 -0.0474  0.1427
19264TIP3   OH279206   5.943   6.078  15.260 -0.1052 -0.7849  0.4579
19264TIP3    H179207   5.863   6.025  15.259 -0.2595 -0.5657  0.7780
19264TIP3    H279208   5.939   6.129  15.179 -0.2884 -0.7828  0.4671
19265TIP3   OH279209   2.096   6.403   2.434  0.7411  0.7730  0.2288
19265TIP3    H179210   2.188   6.384   2.455  0.4802  0.8663  1.5870
19265TIP3    H279211   2.052   6.402   2.519 -0.0881  3.1633 -0.0873
19266TIP3   OH279212   1.008   4.335   1.811 -0.2042 -0.0251 -0.0216
19266TIP3    H179213   1.097   4.349   1.842  0.1823  0.3689 -1.2365
19266TIP3    H279214   0.998   4.240   1.807  0.4482 -0.0771 -0.6083
19267TIP3   OH279215   2.974   5.843   1.855 -0.0635  0.3210 -0.1460
19267TIP3    H179216   3.062   5.847   1.817  0.4146  0.3202  0.9412
19267TIP3    H279217   2.916   5.860   1.781  0.8881  1.4014 -0.6753
19268TIP3   OH279218   3.730   0.090  11.251  0.6000 -0.1542 -0.8842
19268TIP3    H179219   3.715   0.185  11.248 -0.4227 -0.0780  2.2158
19268TIP3    H279220   3.820   0.079  11.222  0.5448  1.6949 -1.9172
19269TIP3   OH279221   3.581   2.144  17.348  0.6420 -0.5051  0.1966
19269TIP3    H179222   3.491   2.175  17.337  1.1126  0.8483 -0.1110
19269TIP3    H279223   3.573   2.051  17.369 -0.8075 -0.4842 -0.1791
19270TIP3   OH279224   0.802   2.628   5.660 -0.0967  0.1164  0.2366
19270TIP3    H179225   0.739   2.699   5.672 -0.4721 -0.6145  4.0369
19270TIP3    H279226   0.887   2.671   5.664 -0.3309  0.6138 -0.0491
19271TIP3   OH279227   1.589   1.711  12.146 -0.1035 -0.4309 -0.3901
19271TIP3    H179228   1.643   1.703  12.067  0.1004  0.0451 -0.3019
19271TIP3    H279229   1.501   1.727  12.112 -0.3898 -2.0905 -0.5593
19272TIP3   OH279230   3.117   5.445   3.675  0.5090  0.2572  0.6258
19272TIP3    H179231   3.173   5.396   3.735  0.1350 -0.4625  0.4013
19272TIP3    H279232   3.045   5.477   3.730  0.0078 -0.6562  0.5168
19273TIP3   OH279233   4.289   0.359  11.648  0.3285  0.1970  0.4402
19273TIP3    H179234   4.344   0.349  11.571 -1.2477 -0.4675 -0.6595
19273TIP3    H279235   4.257   0.449  11.643 -2.7777 -0.8631 -1.9118
19274TIP3   OH279236   5.301   3.238  11.737  0.1576  0.2430 -0.0822
19274TIP3    H179237   5.290   3.322  11.693  0.7731  0.4428  0.1279
19274TIP3    H279238   5.365   3.191  11.683 -0.7078 -0.3750 -0.5846
19275TIP3   OH279239   3.867   2.912   2.959  0.7447  0.1952 -0.0378
19275TIP3    H179240   3.954   2.882   2.933  1.0147 -0.0887  1.1302
19275TIP3    H279241   3.808   2.874   2.894  1.4447  0.0959 -0.6347
19276TIP3   OH279242   4.137   5.103  13.372  0.3685 -0.6418 -0.0533
19276TIP3    H179243   4.132   5.190  13.412 -0.6933 -1.0419  0.7358
19276TIP3    H279244   4.139   5.043  13.447 -0.1919 -1.3500 -0.5945
19277TIP3   OH279245   3.836   4.612  16.820 -0.5543  0.0346  0.5893
19277TIP3    H179246   3.900   4.656  16.876 -1.2636  1.4752  0.3211
19277TIP3    H279247   3.752   4.632  16.861 -0.8744 -1.8482  0.9466
19278TIP3   OH279248   3.112   6.147   0.458 -0.5816  0.1725 -0.4429
19278TIP3    H179249   3.144   6.193   0.535  2.1412  4.1305 -3.5326
19278TIP3    H279250   3.191   6.120   0.411 -1.7804  2.2803 -4.0840
19279TIP3   OH279251   5.384   2.256   3.956 -0.4576 -0.1319 -0.1330
19279TIP3    H179252   5.289   2.266   3.969 -0.7722 -2.2986 -0.3533
19279TIP3    H279253   5.394   2.165   3.929  1.5811  0.4165 -1.4052
19280TIP3   OH279254   0.279   4.867   4.529 -0.2898 -0.2609  0.0123
19280TIP3    H179255   0.351   4.887   4.589  0.6771  2.6777 -1.8782
19280TIP3    H279256   0.201   4.904   4.571 -0.0394 -0.2475  0.4687
19281TIP3   OH279257   4.074   2.969   3.446  0.1784  0.4710  0.1909
19281TIP3    H179258   3.986   2.950   3.416  0.3369  0.4258 -0.2465
19281TIP3    H279259   4.077   2.933   3.535 -0.5183  1.2500  0.5365
19282TIP3   OH279260   5.580   3.696   4.733  0.0294  0.0308  0.0730
19282TIP3    H179261   5.543   3.621   4.686  0.2444 -0.1034  0.1180
19282TIP3    H279262   5.612   3.754   4.664 -0.9551  0.5094  0.0039
19283TIP3   OH279263   6.167   5.177  15.589 -0.0762  0.1626 -0.4977
19283TIP3    H179264   6.152   5.171  15.684 -0.8878 -1.1562 -0.6770
19283TIP3    H279265   6.260   5.160  15.578 -0.4628 -2.7499 -0.1058
19284TIP3   OH279266   6.603   6.199   2.600 -0.3339  0.4980 -0.0119
19284TIP3    H179267   6.636   6.109   2.598 -0.2293  0.5382 -0.1921
19284TIP3    H279268   6.513   6.193   2.567  0.0367  0.6016 -1.0917
19285TIP3   OH279269   0.728   5.445   0.555 -0.6146  0.0167  0.1109
19285TIP3    H179270   0.777   5.418   0.632  0.8872 -1.1037 -1.1773
19285TIP3    H279271   0.786   5.506   0.509 -1.2586  0.2448 -0.4186
19286TIP3   OH279272   0.262   6.060   2.267 -0.2681 -0.2113  0.4816
19286TIP3    H179273   0.181   6.034   2.312 -0.5699  1.8756  1.2311
19286TIP3    H279274   0.234   6.082   2.178 -0.5785  0.6407  0.7780
19287TIP3   OH279275   2.320   1.328  11.136  0.0092 -0.3477  0.3422
19287TIP3    H179276   2.231   1.361  11.125  0.1981  0.0571 -0.0031
19287TIP3    H279277   2.368   1.361  11.060 -0.3030 -3.2642 -1.2899
19288TIP3   OH279278   1.952   6.486   1.944  0.0445  0.6001  1.2085
19288TIP3    H179279   1.988   6.473   1.856 -0.7103 -1.6494  1.1723
19288TIP3    H279280   2.022   6.460   2.003  0.5054  1.9883  1.3176
19289TIP3   OH279281   1.215   1.211   4.996 -0.7921 -0.5038  0.7417
19289TIP3    H179282   1.192   1.139   5.055 -2.7941 -0.6863 -0.1525
19289TIP3    H279283   1.158   1.198   4.920  1.5583 -0.1739 -1.1897
19290TIP3   OH279284   3.864   6.418   0.653 -0.4389  0.5670  0.2298
19290TIP3    H179285   3.812   6.497   0.640  0.0628  0.6914 -1.2608
19290TIP3    H279286   3.928   6.443   0.720 -0.9081  1.0971  0.4922
19291TIP3   OH279287   3.394   2.484  14.720  0.3372 -0.0982  0.3920
19291TIP3    H179288   3.411   2.390  14.728  0.7279 -0.0579  0.0922
19291TIP3    H279289   3.452   2.513  14.649 -3.1617 -0.5636 -3.0583
19292TIP3   OH279290   2.069   4.946  13.655  0.0351 -0.0573  0.1963
19292TIP3    H179291   2.069   5.018  13.717 -1.4077 -0.1968  0.3718
19292TIP3    H279292   2.014   4.879  13.695 -0.0933 -0.5525 -0.7677
19293TIP3   OH279293   1.279   1.343  12.238  0.0807  0.9134 -0.2361
19293TIP3    H179294   1.350   1.382  12.290  1.4182 -1.2806 -0.2947
19293TIP3    H279295   1.324   1.283  12.178 -1.8295 -0.6956 -0.1446
19294TIP3   OH279296   6.305   5.746  12.304  0.3223  0.3505 -0.4328
19294TIP3    H179297   6.272   5.673  12.250  2.2511 -1.2581  0.4362
19294TIP3    H279298   6.263   5.733  12.389  1.6881 -0.6107  0.1273
19295TIP3   OH279299   3.561   2.039   6.719  0.2731  0.3935  0.0417
19295TIP3    H179300   3.563   2.044   6.814 -1.6974  1.7199  0.0721
19295TIP3    H279301   3.503   1.965   6.700  1.7448 -0.7567 -0.1924
19296TIP3   OH279302   4.072   2.988   0.561  0.2416 -0.1183  0.2742
19296TIP3    H179303   3.995   2.945   0.600 -0.6242 -0.2417 -1.5048
19296TIP3    H279304   4.036   3.051   0.500  1.5201 -1.3259 -1.8330
19297TIP3   OH279305   0.191   6.665  11.298 -0.2331 -0.3026 -0.4781
19297TIP3    H179306   0.182   6.572  11.276  1.1435 -0.7200  0.5416
19297TIP3    H279307   0.283   6.674  11.323 -0.6961  1.0142  0.8860
19298TIP3   OH279308   4.366   3.467  15.916  0.2557 -0.0891  0.8493
19298TIP3    H179309   4.416   3.549  15.920 -0.2576  0.2316  0.8245
19298TIP3    H279310   4.276   3.493  15.938 -1.2978  0.5124 -4.6578
19299TIP3   OH279311   3.631   3.420   3.036 -0.3644  0.2367 -0.9077
19299TIP3    H179312   3.547   3.465   3.040 -0.1224  0.8882 -2.5511
19299TIP3    H279313   3.623   3.360   2.962  0.0248 -0.9871  0.0115
19300TIP3   OH279314   5.342   4.004  15.689 -0.4174 -0.1649 -0.3730
19300TIP3    H179315   5.257   4.045  15.675 -0.4337  0.3230  1.0460
19300TIP3    H279316   5.402   4.054  15.632 -0.7237  0.8124  0.1374
19301TIP3   OH279317   4.682   5.453   1.116 -0.3005 -0.3593 -0.0465
19301TIP3    H179318   4.644   5.528   1.071  1.5661  0.6134 -0.0786
19301TIP3    H279319   4.722   5.402   1.046 -0.7123 -0.8963  0.0980
19302TIP3   OH279320   3.935   0.090   4.102 -0.4203 -0.0505  0.6933
19302TIP3    H179321   3.986   0.067   4.180 -1.4002  0.7410  1.5980
19302TIP3    H279322   3.890   0.009   4.079 -0.5397 -0.1614  1.2840
19303TIP3   OH279323   6.521   0.340   0.346 -0.2280 -0.2442 -0.1027
19303TIP3    H179324   6.505   0.398   0.272 -0.7627 -0.1261  0.0992
19303TIP3    H279325   6.557   0.260   0.307 -1.1407 -0.4434 -0.5693
19304TIP3   OH279326   0.580   2.935  15.926  0.1945  0.0475 -0.2095
19304TIP3    H179327   0.659   2.881  15.922 -0.3152 -0.7476  0.2313
19304TIP3    H279328   0.607   3.015  15.970  0.7149 -0.2869  0.0794
19305TIP3   OH279329   0.400   4.416  16.543 -0.5423  0.7774 -0.1998
19305TIP3    H179330   0.418   4.467  16.464  0.2861 -0.5349 -0.8921
19305TIP3    H279331   0.472   4.438  16.602 -1.7910  2.6769  0.7157
19306TIP3   OH279332   3.136   2.390   0.569  0.2686  0.2717 -0.3474
19306TIP3    H179333   3.083   2.346   0.635 -1.1466  2.0189 -0.2438
19306TIP3    H279334   3.157   2.321   0.506 -2.5850 -0.4768 -0.6633
19307TIP3   OH279335   2.306   2.980  11.560  0.2469  0.3418 -0.5380
19307TIP3    H179336   2.284   2.894  11.596  0.2199  0.3004 -0.6525
19307TIP3    H279337   2.227   3.033  11.572  0.2877  0.3716 -0.4035
19308TIP3   OH279338   4.913   5.008   1.868 -0.8239 -0.3233 -0.3105
19308TIP3    H179339   4.960   5.042   1.944  1.0974  0.7996 -1.8900
19308TIP3    H279340   4.859   5.082   1.839 -0.0218 -0.0469 -1.1605
19309TIP3   OH279341   2.391   3.102   0.917  0.2928  0.0697  0.4232
19309TIP3    H179342   2.444   3.136   0.989  0.5406  0.7162 -0.0525
19309TIP3    H279343   2.396   3.007   0.927 -0.4665  0.1480  1.8192
19310TIP3   OH279344   4.371   6.154   0.522 -0.0877  0.0910  1.1346
19310TIP3    H179345   4.453   6.110   0.498 -1.4829 -1.1203 -2.0655
19310TIP3    H279346   4.371   6.234   0.469 -1.6503 -0.7679 -0.2544
19311TIP3   OH279347   6.746   6.023   2.006  0.1368 -1.0445  0.0508
19311TIP3    H179348   6.793   6.103   2.030 -1.3558 -0.8410  2.8187
19311TIP3    H279349   6.812   5.966   1.970  1.7644  0.5286  0.3870
19312TIP3   OH279350   2.265   6.267   5.980  0.1576  0.1835 -0.3282
19312TIP3    H179351   2.272   6.362   5.987 -0.8966  0.2301  0.2327
19312TIP3    H279352   2.176   6.251   5.949  0.3462 -0.6213 -0.4760
19313TIP3   OH279353   5.134   0.187   2.549  0.3803 -0.9339  0.0765
19313TIP3    H179354   5.163   0.107   2.592  2.0047 -0.5207 -0.1724
19313TIP3    H279355   5.110   0.245   2.621  1.2424 -0.9240  0.3783
19314TIP3   OH279356   2.792   6.363  16.763 -0.1197  0.6209  0.0734
19314TIP3    H179357   2.836   6.285  16.731 -1.4117  0.5513 -1.6059
19314TIP3    H279358   2.824   6.373  16.853  3.3191  0.5829 -0.9935
19315TIP3   OH279359   4.477   1.519  15.115  0.3608 -0.0554  0.4570
19315TIP3    H179360   4.398   1.480  15.151  0.8780 -0.9261  0.6731
19315TIP3    H279361   4.529   1.544  15.191  0.3700  0.3613  0.3163
19316TIP3   OH279362   6.119   1.473   6.145 -0.5584 -1.1090 -0.2834
19316TIP3    H179363   6.172   1.393   6.136 -1.5632 -1.5577 -3.6748
19316TIP3    H279364   6.037   1.443   6.185 -1.1150 -1.9633 -1.9531
19317TIP3   OH279365   1.825   2.186   0.794 -0.1599 -0.1980  0.2734
19317TIP3    H179366   1.789   2.148   0.874  1.0822  0.7864  1.3442
19317TIP3    H279367   1.805   2.279   0.800 -0.6266 -0.1917 -0.9172
19318TIP3   OH279368   5.436   0.755   1.920  0.0478  0.0038  0.0662
19318TIP3    H179369   5.515   0.705   1.899 -0.1608  0.4490 -1.9088
19318TIP3    H279370   5.460   0.847   1.904 -0.8357  0.1502 -0.5189
19319TIP3   OH279371   2.693   2.208  15.637  0.3263 -0.6290 -0.5467
19319TIP3    H179372   2.697   2.304  15.635 -2.6585 -0.4269 -1.6061
19319TIP3    H279373   2.760   2.183  15.701  1.4038  2.1159 -0.4464
19320TIP3   OH279374   4.894   0.513  14.022 -0.0039  0.7395  0.0080
19320TIP3    H179375   4.863   0.549  13.939 -0.5202  0.2547 -0.0142
19320TIP3    H279376   4.817   0.512  14.078  0.0088 -0.2732  0.0235
19321TIP3   OH279377   6.179   3.099   0.602 -0.8470  0.0906  0.5006
19321TIP3    H179378   6.259   3.146   0.580 -0.9364  0.3057  0.6317
19321TIP3    H279379   6.161   3.123   0.693 -0.7337 -0.4283  0.6650
19322TIP3   OH279380   5.162   4.932   3.819  0.4287 -0.9216 -0.4439
19322TIP3    H179381   5.161   4.849   3.772 -2.9175 -0.9026 -0.6369
19322TIP3    H279382   5.082   4.931   3.872  1.0101  1.6027  0.6524
19323TIP3   OH279383   0.768   5.408  16.364 -0.1968 -0.7919  0.0831
19323TIP3    H179384   0.732   5.320  16.364  0.3824 -1.0638 -1.1942
19323TIP3    H279385   0.726   5.452  16.437 -1.3455 -1.7843  0.0451
19324TIP3   OH279386   3.394   0.770   1.380 -0.2891 -0.1497 -0.3471
19324TIP3    H179387   3.481   0.745   1.348 -0.7542 -0.1941 -1.6286
19324TIP3    H279388   3.408   0.854   1.424  0.3955 -0.1225 -0.6039
19325TIP3   OH279389   1.023   1.927  10.587 -0.0543  0.6901 -0.2748
19325TIP3    H179390   1.077   1.935  10.666  1.9193  0.6572 -1.5486
19325TIP3    H279391   1.073   1.867  10.531 -1.6826  0.2903 -1.3464
19326TIP3   OH279392   2.139   3.761  16.356  0.7808 -0.2601 -0.2589
19326TIP3    H179393   2.048   3.772  16.382  1.1023  0.0702  0.7690
19326TIP3    H279394   2.142   3.794  16.266 -0.2005 -0.6978 -0.4618
19327TIP3   OH279395   5.580   4.223  15.802 -0.2016  0.3977 -0.8408
19327TIP3    H179396   5.630   4.304  15.802 -1.4986  1.2814  0.7866
19327TIP3    H279397   5.515   4.234  15.732 -0.0802  0.5576 -0.9276
19328TIP3   OH279398   1.509   3.907   4.315  0.2159  0.2586 -0.1749
19328TIP3    H179399   1.437   3.846   4.333  0.5237 -1.2379 -3.2786
19328TIP3    H279400   1.468   3.980   4.268  0.5702 -0.3559 -1.4986
19329TIP3   OH279401   1.187   2.011  11.776 -0.2760  0.7596 -0.8701
19329TIP3    H179402   1.251   2.049  11.836 -1.1006 -1.0196  1.2970
19329TIP3    H279403   1.238   1.957  11.716  0.4260  0.9313 -0.4386
19330TIP3   OH279404   5.161   5.622  13.807 -0.4951 -0.1988 -0.2092
19330TIP3    H179405   5.215   5.573  13.868 -1.0200 -0.6012 -0.0556
19330TIP3    H279406   5.071   5.601  13.833 -0.7529  1.5553  0.4361
19331TIP3   OH279407   3.768   3.600   4.449 -0.1352  0.0885 -0.8736
19331TIP3    H179408   3.716   3.642   4.380 -0.3124  0.3357 -0.5962
19331TIP3    H279409   3.839   3.557   4.403 -0.3374  0.1236 -1.2252
19332TIP3   OH279410   6.436   2.221  13.209 -0.4287  0.3815 -0.6317
19332TIP3    H179411   6.490   2.262  13.141  0.5192 -0.7796 -0.6045
19332TIP3    H279412   6.496   2.166  13.258 -1.6803 -1.2768 -0.8439
19333TIP3   OH279413   5.581   2.476   4.234 -0.3483  0.0849  0.5772
19333TIP3    H179414   5.513   2.430   4.282 -0.0223 -1.5266 -0.4216
19333TIP3    H279415   5.575   2.442   4.145  1.7690 -0.1701  0.4666
19334TIP3   OH279416   3.037   4.656  15.345  0.1976  0.3195 -0.2229
19334TIP3    H179417   2.958   4.666  15.399  0.4985  1.8084 -0.0113
19334TIP3    H279418   3.019   4.579  15.291 -0.9103 -0.0709  0.6497
19335TIP3   OH279419   2.363   1.003  14.057 -0.6225  0.9472  0.3679
19335TIP3    H179420   2.409   1.078  14.093  1.7097  0.2598 -0.9895
19335TIP3    H279421   2.431   0.950  14.016 -2.0336 -2.2717  1.7948
19336TIP3   OH279422   2.733   0.071  16.093 -0.2342  0.6763 -0.1061
19336TIP3    H179423   2.737   0.114  16.007  1.6915 -0.9811 -0.9375
19336TIP3    H279424   2.788   0.126  16.150 -0.1762  0.9008 -0.3754
19337TIP3   OH279425   4.997   3.953  10.836 -0.4676 -0.0172  0.4790
19337TIP3    H179426   5.054   3.967  10.760  0.0525 -0.3954  0.7910
19337TIP3    H279427   4.987   3.858  10.840  1.9791 -0.2823  2.6384
19338TIP3   OH279428   5.177   0.696   5.194  0.3343  0.0752  0.0099
19338TIP3    H179429   5.228   0.743   5.260  2.0363  0.3700 -1.4222
19338TIP3    H279430   5.179   0.604   5.222  0.3325  0.3087  0.7776
19339TIP3   OH279431   6.698   1.416  15.081 -0.2606 -0.2777  0.9185
19339TIP3    H179432   6.645   1.354  15.031 -0.2307 -0.9060  1.6467
19339TIP3    H279433   6.670   1.502  15.050 -0.4027 -0.6505 -0.0073
19340TIP3   OH279434   5.994   1.155  14.832  0.2299 -0.1952  0.0125
19340TIP3    H179435   5.997   1.142  14.927 -0.9009  2.5177  0.4978
19340TIP3    H279436   5.936   1.086  14.800  0.8282 -1.3006  1.2106
19341TIP3   OH279437   6.548   4.916   0.247  0.3038  0.0387  1.0244
19341TIP3    H179438   6.642   4.910   0.264  0.4046 -0.5058  0.3233
19341TIP3    H279439   6.522   5.000   0.285  1.2286  0.5566  0.5397
19342TIP3   OH279440   5.934   4.475  15.168 -0.3872 -0.0110  0.1129
19342TIP3    H179441   5.905   4.391  15.203  3.8490 -1.5061  0.5756
19342TIP3    H279442   5.956   4.527  15.245 -0.9944  0.7894 -0.2295
19343TIP3   OH279443   3.977   0.584  14.357 -0.0447 -0.2303  0.4043
19343TIP3    H179444   4.017   0.564  14.272 -2.1898  0.6517 -0.8983
19343TIP3    H279445   4.037   0.546  14.421  1.4205 -1.3468 -1.5083
19344TIP3   OH279446   1.229   6.175   6.457 -0.4686 -0.4771 -0.8300
19344TIP3    H179447   1.309   6.186   6.510 -0.2989 -0.1333 -1.1466
19344TIP3    H279448   1.158   6.178   6.520 -0.3031  0.5183 -0.6620
19345TIP3   OH279449   4.307   2.451   0.018 -0.3627 -0.0864 -0.0886
19345TIP3    H179450   4.380   2.451   0.080  1.7420 -1.6594 -2.3526
19345TIP3    H279451   4.271   2.540   0.023  2.3893  1.1034  0.4371
19346TIP3   OH279452   4.831   5.463  11.299 -0.1534 -0.0710  0.1265
19346TIP3    H179453   4.925   5.446  11.306 -0.4456 -2.1284 -0.2846
19346TIP3    H279454   4.816   5.478  11.206 -0.0413  1.7883  0.3744
19347TIP3   OH279455   3.822   1.794   1.524  0.3459  0.1211  0.3898
19347TIP3    H179456   3.784   1.802   1.436  2.1203 -1.2927 -0.5597
19347TIP3    H279457   3.746   1.792   1.582 -0.8543  2.1293 -0.9683
19348TIP3   OH279458   5.577   1.665  10.610 -0.5302 -0.1364  0.0719
19348TIP3    H179459   5.524   1.732  10.655  0.2118  0.2109  0.4493
19348TIP3    H279460   5.532   1.583  10.628 -0.5294  0.0600  1.0323
19349TIP3   OH279461   1.073   5.810   0.377 -0.0131 -0.2693  0.0935
19349TIP3    H179462   1.001   5.864   0.410 -0.0517 -0.3341  0.1134
19349TIP3    H279463   1.151   5.847   0.419  0.1279  0.6053 -0.8794
19350TIP3   OH279464   3.028   4.615  12.578 -0.2083 -0.2954  0.0105
19350TIP3    H179465   3.070   4.685  12.629 -0.5989 -0.8587  1.1457
19350TIP3    H279466   3.085   4.539  12.589 -0.0903 -0.3214 -0.7320
19351TIP3   OH279467   1.287   3.031   2.062  0.7734 -0.5682  0.8817
19351TIP3    H179468   1.296   3.119   2.099 -1.8601  0.8498 -1.4706
19351TIP3    H279469   1.357   3.026   1.996  1.2466 -0.4373  1.3694
19352TIP3   OH279470   0.440   1.054   2.413 -0.1454  0.1719 -0.2655
19352TIP3    H179471   0.383   0.977   2.413  0.4436 -0.3689  2.3976
19352TIP3    H279472   0.445   1.080   2.505 -1.6384  4.4727 -1.1974
19353TIP3   OH279473   4.760   5.082   5.278  0.0023  0.1116 -0.5250
19353TIP3    H179474   4.665   5.078   5.288 -0.0461  1.1158 -0.5069
19353TIP3    H279475   4.794   5.068   5.367 -0.0352 -2.3061 -0.8363
19354TIP3   OH279476   2.209   5.058  16.696 -0.0739 -0.1105 -0.0024
19354TIP3    H179477   2.293   5.104  16.705  0.4659 -1.0111 -0.2741
19354TIP3    H279478   2.163   5.106  16.628  0.4787  0.0279 -0.2891
19355TIP3   OH279479   1.225   1.517   3.470 -0.0626 -0.3859 -0.0754
19355TIP3    H179480   1.268   1.585   3.521  1.8366 -2.1373  0.7966
19355TIP3    H279481   1.177   1.464   3.534 -1.9572  0.3593 -0.8024
19356TIP3   OH279482   6.214   2.483   1.462 -0.6578  0.2289 -0.5774
19356TIP3    H179483   6.190   2.502   1.372 -0.4606 -0.7196 -0.8419
19356TIP3    H279484   6.308   2.465   1.459 -0.9183 -1.3181 -0.4682
19357TIP3   OH279485   4.015   1.746   4.528 -0.0623  0.0906 -0.2312
19357TIP3    H179486   3.982   1.788   4.608 -2.2569  0.1703 -1.1149
19357TIP3    H279487   4.054   1.817   4.478 -1.5971  0.7106 -0.6283
19358TIP3   OH279488   4.963   4.959  17.324 -0.1829 -0.0247 -0.3166
19358TIP3    H179489   4.959   4.905  17.403  0.6461 -0.3510 -0.4854
19358TIP3    H279490   4.887   4.931  17.273 -0.7680  0.2394  0.3893
19359TIP3   OH279491   6.750   3.462  16.177 -0.3062 -0.0899  0.4245
19359TIP3    H179492   6.741   3.538  16.119  0.2451 -1.0362 -0.9426
19359TIP3    H279493   6.834   3.475  16.220 -0.9738  0.9074  1.5046
19360TIP3   OH279494   6.561   1.822  14.050 -0.0701 -0.0046 -0.2791
19360TIP3    H179495   6.557   1.814  14.145 -0.7564 -0.4700 -0.3375
19360TIP3    H279496   6.631   1.762  14.024 -0.3493 -0.4024 -0.1222
19361TIP3   OH279497   3.735   2.060   0.237 -0.3594 -0.4828 -0.8230
19361TIP3    H179498   3.806   2.093   0.182  0.2850 -0.5643 -0.0772
19361TIP3    H279499   3.683   2.004   0.180  0.6445 -1.0560 -1.1952
19362TIP3   OH279500   1.050   0.413  16.987 -0.0649 -0.3124  0.7495
19362TIP3    H179501   1.145   0.425  16.989 -0.2877  2.3326  0.0396
19362TIP3    H279502   1.021   0.465  16.912 -2.2698  1.0771  2.4062
19363TIP3   OH279503   1.815   5.193  11.981  0.0726 -0.3055 -0.4042
19363TIP3    H179504   1.866   5.209  12.060 -1.1185  1.8725  0.0222
19363TIP3    H279505   1.775   5.107  11.995  0.8386 -0.4918  0.7969
19364TIP3   OH279506   0.888   6.702  11.790  0.3331 -0.5460 -0.0884
19364TIP3    H179507   0.981   6.711  11.770  0.4992 -1.4897  0.1985
19364TIP3    H279508   0.881   6.617  11.834 -0.5621 -0.1788  0.5095
19365TIP3   OH279509   0.878   6.668   4.438  0.6331  0.1236  0.1165
19365TIP3    H179510   0.795   6.711   4.421  0.6885 -0.2514 -1.1569
19365TIP3    H279511   0.936   6.739   4.468  0.4412  0.7717 -0.9961
19366TIP3   OH279512   3.380   0.972   3.187 -0.2564 -0.0465 -0.3318
19366TIP3    H179513   3.289   0.991   3.208 -0.2075  0.5981 -0.6645
19366TIP3    H279514   3.430   1.036   3.239  0.1218 -1.5612  1.2662
19367TIP3   OH279515   1.077   1.095  10.866 -0.3351  0.4080  0.5324
19367TIP3    H179516   1.103   1.185  10.846 -1.5964  0.3408 -1.6737
19367TIP3    H279517   1.132   1.071  10.940  0.7124  2.6601  0.5827
19368TIP3   OH279518   4.217   0.634  15.940  0.0721  0.1454 -0.1068
19368TIP3    H179519   4.129   0.633  15.904  0.8539  0.3300 -2.1533
19368TIP3    H279520   4.265   0.569  15.889  1.2735  0.5104  0.5219
19369TIP3   OH279521   4.465   4.614  12.161  0.5646  0.0930 -0.1226
19369TIP3    H179522   4.510   4.534  12.188 -1.4633 -1.1931 -0.2857
19369TIP3    H279523   4.399   4.629  12.229 -0.7859  0.1199 -1.3820
19370TIP3   OH279524   1.528   5.967   2.211  0.4358  0.3023  0.2637
19370TIP3    H179525   1.444   5.951   2.168  1.0648 -1.3486 -0.4069
19370TIP3    H279526   1.507   6.030   2.280 -1.1742  0.6370 -0.4648
19371TIP3   OH279527   2.852   4.630  11.477  0.5911 -0.0652  0.0551
19371TIP3    H179528   2.801   4.556  11.442 -0.7562  1.0916 -0.5336
19371TIP3    H279529   2.896   4.594  11.554 -0.1857 -1.4304 -0.0990
19372TIP3   OH279530   3.341   3.983  11.143  0.2041 -0.3203 -0.0110
19372TIP3    H179531   3.432   3.980  11.112  0.5814 -2.0322  1.1544
19372TIP3    H279532   3.295   3.917  11.091 -0.1941 -0.0414 -0.0218
19373TIP3   OH279533   4.787   3.578  15.797  0.0566  0.3158 -0.1800
19373TIP3    H179534   4.858   3.631  15.835 -0.8130  0.1917  1.7227
19373TIP3    H279535   4.790   3.496  15.846 -1.3527  0.2828 -0.1218
19374TIP3   OH279536   2.826   1.201  16.259 -0.2133  0.2909  0.2105
19374TIP3    H179537   2.854   1.201  16.351  1.0323  0.6697 -0.1555
19374TIP3    H279538   2.780   1.118  16.248  2.8181 -1.5462  0.2624
19375TIP3   OH279539   5.703   2.947  15.100 -0.0827 -0.6645 -0.0666
19375TIP3    H179540   5.742   2.861  15.115  0.9108 -0.0502  1.0112
19375TIP3    H279541   5.732   2.972  15.012 -0.2763 -1.3652 -0.3392
19376TIP3   OH279542   3.296   4.261   0.233 -0.4258 -0.5448  0.1445
19376TIP3    H179543   3.270   4.248   0.324  0.2724  1.9701  0.7787
19376TIP3    H279544   3.277   4.353   0.215  2.1881 -0.1559 -1.2680
19377TIP3   OH279545   2.935   6.698   4.549 -0.0206  0.5364  0.2852
19377TIP3    H179546   2.839   6.700   4.554 -0.1577 -2.8620  2.9389
19377TIP3    H279547   2.963   6.748   4.626  0.4302  1.8062 -0.6680
19378TIP3   OH279548   3.007   4.302  12.014  0.0603  0.1340  0.6613
19378TIP3    H179549   3.009   4.360  11.938 -0.4684  0.2889  0.7656
19378TIP3    H279550   3.071   4.233  11.993 -1.0744 -0.6123 -0.5510
19379TIP3   OH279551   2.527   3.161  13.511  0.5074 -0.5083  1.1238
19379TIP3    H179552   2.585   3.206  13.448 -1.3186 -1.1519 -1.1765
19379TIP3    H279553   2.512   3.225  13.580 -0.4563  1.7790 -1.0633
19380TIP3   OH279554   0.724   5.683  13.716  0.1004  0.5525 -0.3094
19380TIP3    H179555   0.648   5.650  13.764 -0.3590  0.3476 -1.1710
19380TIP3    H279556   0.743   5.768  13.757 -1.2661  1.1183 -0.7941
19381TIP3   OH279557   0.904   5.774  13.333  0.5111  0.7563  0.0490
19381TIP3    H179558   0.991   5.806  13.310  0.7312 -0.1009 -0.3720
19381TIP3    H279559   0.845   5.819  13.272  0.7257  0.9461 -0.0184
19382TIP3   OH279560   4.175   1.983   2.626  0.2533  0.9253  0.1307
19382TIP3    H179561   4.146   1.897   2.598  0.9144  0.3381  1.1887
19382TIP3    H279562   4.147   1.990   2.717  0.1312  1.8727  0.0383
19383TIP3   OH279563   0.085   4.519   3.638  0.2642 -0.7493  0.6059
19383TIP3    H179564   0.001   4.562   3.623 -0.3112 -1.8070  0.7004
19383TIP3    H279565   0.064   4.442   3.691  1.4318 -0.4782  1.5110
19384TIP3   OH279566   0.435   4.003   1.338  0.5568 -0.3085 -0.0296
19384TIP3    H179567   0.492   4.004   1.260  0.4949 -2.2803 -0.1547
19384TIP3    H279568   0.411   3.911   1.348 -1.4192  0.2629  0.9105
19385TIP3   OH279569   6.239   5.446   1.922 -0.2549  0.0104 -0.7361
19385TIP3    H179570   6.144   5.457   1.918 -0.2828 -0.1336 -0.4151
19385TIP3    H279571   6.261   5.401   1.840 -0.3741  0.6907 -1.1554
19386TIP3   OH279572   3.896   4.054  11.543  0.5448  0.2701 -0.0298
19386TIP3    H179573   3.897   4.120  11.612  0.6464  0.3804 -0.1386
19386TIP3    H279574   3.917   4.101  11.463  0.4393  0.1390 -0.1363
19387TIP3   OH279575   1.316   4.522  13.493  0.4601 -0.5398  0.4353
19387TIP3    H179576   1.224   4.516  13.520  0.3469 -1.2841 -0.0615
19387TIP3    H279577   1.335   4.435  13.456  1.4469 -0.4874  0.8009
19388TIP3   OH279578   3.280   1.343   5.164 -0.6160  0.4393 -0.3190
19388TIP3    H179579   3.325   1.418   5.203 -1.4620 -0.1366  1.8707
19388TIP3    H279580   3.325   1.267   5.200  0.4066 -0.1952 -2.7188
19389TIP3   OH279581   2.988   2.037   7.009 -0.4918  0.1543  0.1190
19389TIP3    H179582   3.030   2.096   6.946 -0.3917 -0.6473 -0.5873
19389TIP3    H279583   2.900   2.073   7.020 -0.6215  0.1203 -0.7479
19390TIP3   OH279584   5.622   5.773   3.788 -0.1809  0.7050  0.1433
19390TIP3    H179585   5.578   5.785   3.704 -0.4761 -0.2219  0.1540
19390TIP3    H279586   5.661   5.858   3.807  1.1183  0.5457 -1.6184
19391TIP3   OH279587   2.590   0.032  10.690 -0.0372 -0.0305 -0.1576
19391TIP3    H179588   2.499   0.003  10.683  0.1515 -0.7099  0.1193
19391TIP3    H279589   2.639  -0.047  10.712  0.2541  0.7572  2.4488
19392TIP3   OH279590   6.722   4.676   6.073 -0.3865 -0.0411 -0.1623
19392TIP3    H179591   6.667   4.631   6.137  0.5475 -0.5631  0.2969
19392TIP3    H279592   6.788   4.722   6.126  2.0616 -2.6136 -0.7070
19393TIP3   OH279593   3.855   4.455   4.045 -0.0232  0.2562  0.5089
19393TIP3    H179594   3.944   4.466   4.012 -0.4358  0.4268 -0.6132
19393TIP3    H279595   3.864   4.454   4.140  1.4003 -1.6020  0.4118
19394TIP3   OH279596   1.710   3.961  16.987  0.1197 -0.1732 -0.0997
19394TIP3    H179597   1.701   3.959  17.082  0.0251 -0.7669 -0.1164
19394TIP3    H279598   1.804   3.956  16.971  0.3413  2.3251  0.0001
19395TIP3   OH279599   2.125   3.540  15.993  0.3847 -0.1911 -0.3659
19395TIP3    H179600   2.088   3.544  16.081 -0.8201 -1.5902 -0.7725
19395TIP3    H279601   2.186   3.467  15.996  2.3966  1.3970 -0.0171
19396TIP3   OH279602   4.513   1.821  16.822  0.2789  0.2596 -0.1471
19396TIP3    H179603   4.469   1.855  16.899  0.7845  0.6072 -0.0041
19396TIP3    H279604   4.596   1.869  16.819  2.1416 -2.5977  1.4043
19397TIP3   OH279605   3.305   6.682  14.007  0.3038 -0.2999 -0.3068
19397TIP3    H179606   3.352   6.636  13.937  0.1576 -0.2660 -0.4271
19397TIP3    H279607   3.342   6.646  14.088 -0.6543 -1.5023 -0.3796
19398TIP3   OH279608   0.652   5.366   5.463  0.3112 -0.2093 -0.6266
19398TIP3    H179609   0.662   5.342   5.371 -1.0626  0.0336 -0.8612
19398TIP3    H279610   0.631   5.284   5.507  0.6996 -0.2796 -0.5696
19399TIP3   OH279611   6.593   5.878   2.608 -0.7218  0.0908  0.2792
19399TIP3    H179612   6.555   5.816   2.671 -0.2233 -1.2923 -0.7265
19399TIP3    H279613   6.687   5.867   2.617 -0.6244 -1.2823 -1.7237
19400TIP3   OH279614   2.246   2.689   3.174 -0.0960  0.5023 -0.2138
19400TIP3    H179615   2.193   2.623   3.129  0.3150  0.4606 -0.6403
19400TIP3    H279616   2.220   2.772   3.135 -0.2208  0.5364 -0.0585
19401TIP3   OH279617   2.755   6.631  15.569 -0.1485 -0.6444  0.4303
19401TIP3    H179618   2.753   6.726  15.579  0.5080 -0.4238 -1.3202
19401TIP3    H279619   2.663   6.606  15.557 -0.1967 -0.0777 -0.4039
19402TIP3   OH279620   5.056   0.979   5.301  0.1608  0.1835 -0.5268
19402TIP3    H179621   5.147   0.949   5.310  0.3782  0.1868 -2.3673
19402TIP3    H279622   5.004   0.904   5.328  0.7295 -0.7826 -1.9634
19403TIP3   OH279623   4.441   3.468  16.356 -0.4679  0.7084 -0.3657
19403TIP3    H179624   4.510   3.478  16.290  0.3563 -1.8083  0.0120
19403TIP3    H279625   4.487   3.479  16.439 -1.0878  1.7412 -0.1485
19404TIP3   OH279626   5.172   1.217  16.974 -0.3575 -0.2251 -0.0589
19404TIP3    H179627   5.083   1.200  16.944 -1.1626 -0.7417  2.3312
19404TIP3    H279628   5.225   1.149  16.933 -1.2234 -0.4413 -0.8381
19405TIP3   OH279629   1.373   0.311   4.848  0.2319 -0.0559  0.1365
19405TIP3    H179630   1.303   0.267   4.898 -0.0111  1.2543  0.9873
19405TIP3    H279631   1.327   0.372   4.791  0.6276 -0.0840 -0.2151
19406TIP3   OH279632   0.155   3.858   2.549 -0.2394 -0.0801  0.2292
19406TIP3    H179633   0.125   3.930   2.604 -1.3354  0.6473 -1.2538
19406TIP3    H279634   0.237   3.889   2.511 -0.8496  0.5269 -0.6233
19407TIP3   OH279635   5.384   5.471  15.691 -0.0799  0.3006 -0.2514
19407TIP3    H179636   5.456   5.447  15.750 -0.4245  0.9516  0.4536
19407TIP3    H279637   5.381   5.566  15.694 -0.5765  0.3046 -0.7498
19408TIP3   OH279638   3.534   0.276  16.664  0.4285 -0.2605  0.6871
19408TIP3    H179639   3.604   0.243  16.720 -0.2295  0.8417  2.2442
19408TIP3    H279640   3.458   0.223  16.687  0.9841 -2.4685 -2.0609
19409TIP3   OH279641   6.640   5.223  13.442 -0.7331 -0.4957  0.4413
19409TIP3    H179642   6.577   5.288  13.473 -2.1870 -0.2332 -2.6797
19409TIP3    H279643   6.620   5.212  13.349  2.4027 -2.1031 -0.2048
19410TIP3   OH279644   6.417   2.390   6.396 -0.6809  0.0615  0.5153
19410TIP3    H179645   6.331   2.367   6.362 -1.0803  0.6807  1.0892
19410TIP3    H279646   6.415   2.486   6.404  0.9211  0.3853 -1.7878
19411TIP3   OH279647   3.178   5.581   3.220  0.0696  0.4449  0.0835
19411TIP3    H179648   3.197   5.665   3.260 -0.1720  1.0993 -1.1166
19411TIP3    H279649   3.213   5.588   3.131  1.3405 -1.2576  0.3981
19412TIP3   OH279650   5.728   4.505  17.098 -0.1553 -0.4207  0.0695
19412TIP3    H179651   5.778   4.440  17.048 -3.7465 -3.9262  0.5851
19412TIP3    H279652   5.755   4.490  17.189  1.1753  1.0209 -0.0452
19413TIP3   OH279653   3.783   6.360   3.620 -0.4642  0.4649  0.7304
19413TIP3    H179654   3.822   6.329   3.702 -0.4144 -1.4318  0.0218
19413TIP3    H279655   3.692   6.379   3.643 -0.3388  0.3921  1.3088
19414TIP3   OH279656   0.281   1.763  14.844 -0.3467  0.1381  0.5200
19414TIP3    H179657   0.355   1.732  14.896  0.7979  0.7360 -0.6890
19414TIP3    H279658   0.299   1.856  14.830 -1.3719  0.3060  0.2718
19415TIP3   OH279659   0.796   4.897  12.004  0.0403  0.3624 -0.1737
19415TIP3    H179660   0.706   4.926  11.990  0.2400  0.6993 -0.7792
19415TIP3    H279661   0.804   4.890  12.100 -0.3585  1.1738 -0.0753
19416TIP3   OH279662   4.482   0.795   1.509 -0.6153  0.1661 -0.4595
19416TIP3    H179663   4.534   0.868   1.542  0.1445 -1.1820  1.5176
19416TIP3    H279664   4.548   0.729   1.484 -1.2747 -1.3534  1.5470
19417TIP3   OH279665   2.179   3.723   0.761 -0.2095 -0.2628 -0.0303
19417TIP3    H179666   2.263   3.764   0.781 -0.1858 -0.0056 -0.6292
19417TIP3    H279667   2.146   3.693   0.846 -0.2318  1.0038  0.4317
19418TIP3   OH279668   5.649   5.713   4.176  0.2486  0.8438 -0.3466
19418TIP3    H179669   5.708   5.708   4.251  3.5690 -1.9168 -2.7727
19418TIP3    H279670   5.667   5.798   4.136 -0.5754  1.7675  1.1976
19419TIP3   OH279671   5.169   5.891  16.214  0.4258 -0.1442  0.0898
19419TIP3    H179672   5.083   5.898  16.255 -0.2710 -0.3849 -1.2795
19419TIP3    H279673   5.173   5.965  16.153  1.5502  0.3652  0.7593
19420TIP3   OH279674   1.715   3.502   5.189  0.0509 -0.5321  0.0156
19420TIP3    H179675   1.754   3.511   5.102 -0.0089 -0.4351 -0.0017
19420TIP3    H279676   1.629   3.542   5.180 -0.3674 -1.4518 -0.1592
19421TIP3   OH279677   0.711   1.307  16.382  0.2106  0.0665 -0.4430
19421TIP3    H179678   0.707   1.394  16.422 -1.0275 -0.0446 -0.2989
19421TIP3    H279679   0.703   1.246  16.455  0.6180 -0.1744 -0.5926
19422TIP3   OH279680   5.664   2.399   0.299  0.1161 -0.0378 -0.1947
19422TIP3    H179681   5.728   2.463   0.267  0.7222 -1.2682 -1.5725
19422TIP3    H279682   5.596   2.398   0.232 -0.2393 -0.3338  0.1694
19423TIP3   OH279683   1.755   6.293  13.267 -0.1641  0.1363 -0.4389
19423TIP3    H179684   1.692   6.294  13.195 -0.3117  1.0987 -0.3051
19423TIP3    H279685   1.827   6.238  13.235 -0.5254  0.0161 -1.0612
19424TIP3   OH279686   1.714   5.543   3.920 -0.3121  0.7131  0.1630
19424TIP3    H179687   1.688   5.556   3.829  0.7941 -1.6729 -0.5723
19424TIP3    H279688   1.631   5.539   3.969 -0.9896  0.6215 -0.9609
19425TIP3   OH279689   6.649   0.178   1.505  0.2427 -0.0075 -0.6612
19425TIP3    H179690   6.595   0.256   1.500  1.1382  0.7454  0.8109
19425TIP3    H279691   6.736   0.206   1.477  0.0456 -1.0835 -2.5024
19426TIP3   OH279692   3.963   3.351   1.761 -0.0482 -0.2004 -0.8181
19426TIP3    H179693   4.024   3.372   1.689 -0.1907  1.0439 -0.5967
19426TIP3    H279694   4.019   3.312   1.828  0.2447 -0.4957 -1.2227
19427TIP3   OH279695   0.516   0.169   0.862  0.0307  0.1353  0.2130
19427TIP3    H179696   0.483   0.180   0.773 -0.2885  2.0439  0.5413
19427TIP3    H279697   0.557   0.253   0.883  0.3282 -0.3794  1.7859
19428TIP3   OH279698   0.388   0.464  13.862 -0.1380  0.4697  0.0682
19428TIP3    H179699   0.293   0.460  13.847 -0.1180  1.4428 -0.3523
19428TIP3    H279700   0.418   0.375  13.844 -0.8090  0.4258 -0.9008
19429TIP3   OH279701   3.611   6.008   2.905 -0.1986  0.0503 -0.6390
19429TIP3    H179702   3.547   5.977   2.841 -1.9026  0.3438  0.8528
19429TIP3    H279703   3.593   5.957   2.984 -0.1123  1.7025  0.5010
19430TIP3   OH279704   1.161   6.283   6.174 -0.1369  0.1166  0.3517
19430TIP3    H179705   1.209   6.215   6.221  0.4138  0.6342  0.5608
19430TIP3    H279706   1.087   6.303   6.231 -0.2386 -0.2270  0.3432
19431TIP3   OH279707   1.219   3.071  11.411  0.4196 -0.3181  0.1659
19431TIP3    H179708   1.244   3.057  11.320 -0.0115 -0.3387  0.0457
19431TIP3    H279709   1.280   3.138  11.443  1.0694 -0.8673  0.0951
19432TIP3   OH279710   4.043   3.857  14.487  0.3843 -0.1057 -0.2004
19432TIP3    H179711   4.124   3.878  14.534  0.2819  0.1856 -0.1517
19432TIP3    H279712   3.985   3.930  14.506  0.2921 -0.0559 -0.6720
19433TIP3   OH279713   2.078   1.625   0.943  0.6821 -0.0384 -0.2284
19433TIP3    H179714   2.002   1.604   0.997  1.1062  0.5952  0.6396
19433TIP3    H279715   2.148   1.643   1.005  1.0267  1.3061 -0.9468
19434TIP3   OH279716   5.101   0.800  11.610 -0.0804 -0.5212  0.3600
19434TIP3    H179717   5.145   0.795  11.695  1.2438 -0.2193 -0.2867
19434TIP3    H279718   5.074   0.891  11.603  0.0924 -0.4722  0.3238
19435TIP3   OH279719   2.563   5.575   6.573  0.5788  0.1222  0.8827
19435TIP3    H179720   2.552   5.567   6.478 -2.8208  1.6359  1.0040
19435TIP3    H279721   2.607   5.659   6.585 -1.4551  1.2794  0.6353
19436TIP3   OH279722   4.186   2.937   2.361  0.1638  0.7000 -0.5276
19436TIP3    H179723   4.189   3.029   2.389 -1.8625  1.0124 -1.2192
19436TIP3    H279724   4.216   2.939   2.270  2.1272  0.3341  0.0533
19437TIP3   OH279725   3.046   4.513   3.226 -0.2123  0.4476  0.0242
19437TIP3    H179726   3.062   4.593   3.176 -2.1927 -0.0001 -1.4462
19437TIP3    H279727   3.033   4.544   3.316  0.9313  1.5375 -0.1470
19438TIP3   OH279728   0.177   4.252  15.854 -0.6969 -0.2682 -0.0194
19438TIP3    H179729   0.124   4.173  15.858 -0.4094 -0.5229 -1.1507
19438TIP3    H279730   0.132   4.309  15.792 -0.8754  0.4598  0.7439
19439TIP3   OH279731   4.157   4.929  13.580  0.5169 -0.2007 -0.1766
19439TIP3    H179732   4.182   4.930  13.672 -1.1454  1.1077  0.3168
19439TIP3    H279733   4.061   4.921  13.581  0.1013  2.9080 -1.6080
19440TIP3   OH279734   5.279   2.819   3.038  0.2149  0.2079  0.2340
19440TIP3    H179735   5.223   2.852   3.108 -1.2459 -2.8913  0.6831
19440TIP3    H279736   5.233   2.844   2.957 -2.5409 -2.9801  0.5878
19441TIP3   OH279737   3.020   3.524   5.492  0.5155  0.6694  0.3487
19441TIP3    H179738   2.933   3.533   5.452  0.4440  1.0056  0.5800
19441TIP3    H279739   3.023   3.432   5.521  1.3100 -0.1738 -2.1582
19442TIP3   OH279740   4.579   3.220  16.033 -0.1565 -0.1752 -0.4515
19442TIP3    H179741   4.578   3.139  15.982 -1.3253 -0.2638 -0.3118
19442TIP3    H279742   4.506   3.211  16.094  1.0566  0.0406  1.0867
19443TIP3   OH279743   3.062   0.028  14.301  0.1567 -0.0458 -0.2711
19443TIP3    H179744   2.983   0.081  14.311 -0.1671 -0.2490 -1.6157
19443TIP3    H279745   3.127   0.087  14.263  0.0809 -0.3596 -0.8998
19444TIP3   OH279746   2.061   3.813  10.614  0.0476  0.0372  0.8370
19444TIP3    H179747   2.001   3.762  10.669  1.0974 -1.2917  0.8026
19444TIP3    H279748   2.084   3.753  10.543 -0.0798  1.2054 -0.2012
19445TIP3   OH279749   0.356   2.979  15.772 -0.1026  0.4608 -0.3552
19445TIP3    H179750   0.328   3.024  15.852  0.4198  0.5226 -0.2002
19445TIP3    H279751   0.450   2.963  15.786 -0.3685 -1.0954 -0.2096
19446TIP3   OH279752   0.431   0.825  14.526  0.5695 -0.0994  0.2061
19446TIP3    H179753   0.523   0.826  14.551  0.4247 -1.6681  0.9328
19446TIP3    H279754   0.404   0.733  14.536 -0.6500  0.0084 -1.5701
19447TIP3   OH279755   3.651   2.819   4.407  0.0705  0.0277 -0.0267
19447TIP3    H179756   3.681   2.746   4.461 -0.7151 -0.0427  0.3339
19447TIP3    H279757   3.681   2.897   4.454  1.4248 -0.0561 -0.7192
19448TIP3   OH279758   1.980   4.955  15.130 -0.2399  0.6777 -0.3926
19448TIP3    H179759   1.986   4.879  15.073  1.7338 -0.2253  0.9374
19448TIP3    H279760   2.023   5.025  15.081  1.3560 -0.0661 -0.1191
19449TIP3   OH279761   3.726   0.982   0.520  0.2916  0.5395 -0.0181
19449TIP3    H179762   3.782   0.966   0.444  0.2741  1.5466 -0.2608
19449TIP3    H279763   3.639   0.951   0.493  0.7215 -1.1237  0.3965
19450TIP3   OH279764   3.376   5.046   6.391  0.8513  0.0768 -0.3377
19450TIP3    H179765   3.287   5.060   6.424  1.1158  1.2590 -0.0812
19450TIP3    H279766   3.430   5.103   6.445  1.7381 -0.4325 -0.6770
19451TIP3   OH279767   5.489   0.880   4.743 -0.0964 -0.9620  0.0865
19451TIP3    H179768   5.575   0.882   4.702 -0.5699 -0.0175 -0.9209
19451TIP3    H279769   5.453   0.968   4.730 -0.9009 -1.0883  1.1984
19452TIP3   OH279770   4.009   6.069   4.443  0.0270 -0.0922 -0.1704
19452TIP3    H179771   4.078   6.085   4.378  0.0824 -1.2218 -0.4030
19452TIP3    H279772   4.055   6.071   4.527  0.2414 -0.2621 -0.2834
19453TIP3   OH279773   5.462   0.827   3.354  0.0289 -0.2987  0.2419
19453TIP3    H179774   5.500   0.912   3.374 -0.9689  0.2825 -0.3081
19453TIP3    H279775   5.471   0.777   3.435  2.6538 -0.4735 -0.0600
19454TIP3   OH279776   2.652   0.369  12.276 -0.3040 -0.5837 -0.0160
19454TIP3    H179777   2.691   0.349  12.191  1.8911 -0.0953  0.8148
19454TIP3    H279778   2.724   0.405  12.328 -1.8075  0.0270  1.7539
19455TIP3   OH279779   4.479   0.449   2.768 -0.2974 -0.1513 -0.1548
19455TIP3    H179780   4.412   0.517   2.776  0.7527  0.8301  0.7533
19455TIP3    H279781   4.529   0.474   2.690 -1.4399 -1.3344 -1.3061
19456TIP3   OH279782   2.606   5.178   3.311  0.7474  0.4866 -0.4254
19456TIP3    H179783   2.537   5.233   3.274 -2.2652 -1.3215  1.9933
19456TIP3    H279784   2.632   5.120   3.240 -1.4741  0.1324 -1.0183
19457TIP3   OH279785   2.762   6.753   6.756  0.1395  0.6071 -0.2494
19457TIP3    H179786   2.752   6.810   6.680  1.1321  0.1841 -0.7220
19457TIP3    H279787   2.736   6.807   6.830 -0.7794  1.0466 -0.8791
19458TIP3   OH279788   0.833   1.403  13.871  0.0911  0.0038 -0.7343
19458TIP3    H179789   0.853   1.315  13.840 -0.3805 -0.5666  0.5442
19458TIP3    H279790   0.915   1.451  13.860  1.2344 -1.3719  1.2299
19459TIP3   OH279791   4.071   4.609  13.467  0.1564 -0.1453 -0.1632
19459TIP3    H179792   3.994   4.603  13.410 -0.2770 -0.9857  0.4837
19459TIP3    H279793   4.108   4.695  13.448 -1.7276  0.8797  0.4730
19460TIP3   OH279794   6.414   1.624   0.693  0.4234 -0.7257 -0.4872
19460TIP3    H179795   6.478   1.673   0.745  0.4762  0.2372 -1.4078
19460TIP3    H279796   6.454   1.538   0.680  2.0807  0.1901 -1.9339
19461TIP3   OH279797   5.798   0.554  10.822  0.0730 -0.2934  0.3220
19461TIP3    H179798   5.796   0.636  10.872  1.2771 -0.4378  0.6609
19461TIP3    H279799   5.707   0.525  10.820 -0.3251  0.8710  0.4969
19462TIP3   OH279800   2.993   0.027   3.383  0.0089 -0.0595  0.3389
19462TIP3    H179801   3.000  -0.026   3.303  2.9684  0.5322  0.1063
19462TIP3    H279802   2.964  -0.035   3.450 -0.7709 -0.9649 -0.7919
19463TIP3   OH279803   3.346   2.840   1.765 -0.0228  0.0076  0.0689
19463TIP3    H179804   3.421   2.789   1.736  0.0866 -0.1006  0.5418
19463TIP3    H279805   3.272   2.780   1.759  0.0447 -0.0952  0.2755
19464TIP3   OH279806   2.872   6.143   3.747  0.5623  0.4918  0.5335
19464TIP3    H179807   2.930   6.177   3.678 -2.7187 -0.1026 -2.8200
19464TIP3    H279808   2.907   6.056   3.766  1.7598  0.8072 -0.1047
19465TIP3   OH279809   3.385   0.895   1.001  0.4953 -0.5917 -0.5395
19465TIP3    H179810   3.463   0.938   1.036 -0.0318  0.2529 -0.3673
19465TIP3    H279811   3.312   0.945   1.037 -0.0919  0.6945 -3.2637
19466TIP3   OH279812   5.342   1.873   3.031 -0.0659 -0.2619 -0.0130
19466TIP3    H179813   5.251   1.903   3.021  0.1810  2.9385  4.1180
19466TIP3    H279814   5.391   1.921   2.964 -0.9937  1.3068  0.3730
19467TIP3   OH279815   2.677   3.567   2.401 -0.1055  0.1769 -0.0593
19467TIP3    H179816   2.698   3.560   2.494  1.1918  0.3152 -0.3234
19467TIP3    H279817   2.612   3.498   2.386  0.3651 -0.4561  0.7548
19468TIP3   OH279818   4.635   4.740  14.882  0.3977 -0.2451  0.1878
19468TIP3    H179819   4.555   4.694  14.854 -0.3946  0.5544  1.0377
19468TIP3    H279820   4.602   4.819  14.926  1.6681  0.0776  0.5889
19469TIP3   OH279821   0.785   1.880  15.059 -0.2812  0.3660  0.4105
19469TIP3    H179822   0.699   1.898  15.098 -1.0662 -2.8543  0.4186
19469TIP3    H279823   0.779   1.916  14.971 -2.7001 -1.9786 -0.5272
19470TIP3   OH279824   4.849   3.295  13.320  0.0576  0.0671 -0.2017
19470TIP3    H179825   4.828   3.388  13.324 -0.4563 -0.0560  0.0227
19470TIP3    H279826   4.944   3.292  13.312  0.0728  0.6117 -0.2488
19471TIP3   OH279827   0.944   0.351   4.334 -0.2692 -0.3544 -0.4059
19471TIP3    H179828   1.038   0.367   4.340 -0.1970 -0.4629 -1.1470
19471TIP3    H279829   0.937   0.274   4.276 -0.7734 -0.8261  0.2689
19472TIP3   OH279830   1.344   2.287   4.311  0.2737  0.0499  0.0175
19472TIP3    H179831   1.300   2.323   4.388  2.4079  2.3751  0.2890
19472TIP3    H279832   1.411   2.229   4.347 -1.0591 -1.7653 -0.3041
19473TIP3   OH279833   0.237   0.345  16.961 -0.6666 -0.2469  0.5225
19473TIP3    H179834   0.248   0.418  17.022 -0.0457  1.3118 -1.3222
19473TIP3    H279835   0.151   0.309  16.982 -0.1629 -0.2749  2.7610
19474TIP3   OH279836   2.990   0.683   3.125 -0.1230 -0.3490 -0.1935
19474TIP3    H179837   2.928   0.718   3.189  2.1657  2.7699  0.5685
19474TIP3    H279838   2.971   0.731   3.044  0.0683 -0.7565 -0.4841
19475TIP3   OH279839   1.834   4.794   1.127 -0.1578 -0.4731  0.7154
19475TIP3    H179840   1.755   4.740   1.125  0.0038 -0.7092  0.6749
19475TIP3    H279841   1.905   4.734   1.105  0.0756 -0.3358  1.0803
19476TIP3   OH279842   0.026   4.960   4.942 -0.4499  0.9411 -1.0949
19476TIP3    H179843   0.041   5.050   4.914  0.9596  0.9792 -0.2972
19476TIP3    H279844   0.110   4.916   4.927 -1.0305 -0.1634 -1.1862
19477TIP3   OH279845   0.013   6.236   1.278  0.5308  0.1786 -0.0554
19477TIP3    H179846   0.100   6.197   1.273  0.7010  0.6632 -1.3218
19477TIP3    H279847  -0.003   6.248   1.372  0.9995 -1.6952  0.3022
19478TIP3   OH279848   5.999   3.882   0.358  0.4532  0.1434 -0.0214
19478TIP3    H179849   5.957   3.816   0.412  1.4261 -0.4149  0.0593
19478TIP3    H279850   6.002   3.844   0.270  0.5855  0.2783 -0.0770
19479TIP3   OH279851   2.409   5.360  13.251  0.4544  0.1560 -0.7697
19479TIP3    H179852   2.453   5.426  13.198  0.0490  1.4310  0.4417
19479TIP3    H279853   2.423   5.278  13.203  2.0385  0.9021 -1.6634
19480TIP3   OH279854   1.346   0.681  12.793 -0.1666 -0.1579 -0.6416
19480TIP3    H179855   1.264   0.688  12.743  0.9523 -0.0026 -2.5411
19480TIP3    H279856   1.340   0.597  12.838 -1.6811  0.1961 -0.1198
19481TIP3   OH279857   1.156   4.539  15.686  0.2394  0.6260 -0.3627
19481TIP3    H179858   1.215   4.600  15.732 -1.0183  0.6857  1.2710
19481TIP3    H279859   1.088   4.596  15.650  0.6899  0.4667 -1.4951
19482TIP3   OH279860   1.701   6.095  16.283  0.0745  0.0238 -0.3981
19482TIP3    H179861   1.655   6.122  16.204  0.6678 -0.8470 -1.0711
19482TIP3    H279862   1.645   6.123  16.355 -1.8351 -1.5468 -1.1814
19483TIP3   OH279863   2.638   1.878   1.396  0.2994 -0.1672 -0.2734
19483TIP3    H179864   2.655   1.922   1.479 -1.2978 -0.2233  0.1079
19483TIP3    H279865   2.669   1.788   1.410 -0.5720 -0.3633  0.5211
19484TIP3   OH279866   3.723   0.317  14.709  0.1193 -0.7646 -0.0957
19484TIP3    H179867   3.791   0.266  14.665  0.5419  0.6364 -1.1424
19484TIP3    H279868   3.741   0.306  14.802  1.6790 -0.5885 -0.3409
19485TIP3   OH279869   3.534   3.029   2.748  0.3332  0.3175  0.7033
19485TIP3    H179870   3.505   2.989   2.830 -0.8047 -0.4443 -0.0650
19485TIP3    H279871   3.517   2.964   2.681  2.0329  0.6028 -0.0667
19486TIP3   OH279872   4.038   5.917   5.966 -0.5041  0.6737 -0.6626
19486TIP3    H179873   3.996   5.951   5.887 -0.0057  1.2866 -0.6662
19486TIP3    H279874   4.080   5.993   6.006  1.7596 -0.1202 -1.3650
19487TIP3   OH279875   2.005   5.075   5.334  0.1373  0.1414  0.3666
19487TIP3    H179876   2.053   5.008   5.285 -0.4478  0.3555 -0.5082
19487TIP3    H279877   2.073   5.136   5.364  0.3057  1.2815 -2.1499
19488TIP3   OH279878   5.304   1.065  12.162 -0.4393 -0.2819 -0.3796
19488TIP3    H179879   5.372   1.129  12.187 -2.3087  1.3191  0.9194
19488TIP3    H279880   5.223   1.101  12.199 -1.8658 -2.5917 -1.0788
19489TIP3   OH279881   1.942   0.004  13.566  0.5582  0.1885 -0.1231
19489TIP3    H179882   1.916   0.043  13.649 -2.0271  0.6050 -1.0345
19489TIP3    H279883   1.929  -0.090  13.579 -0.5512  0.3119 -0.2492
19490TIP3   OH279884   1.654   4.843   1.420  0.4856  0.2878 -0.7413
19490TIP3    H179885   1.748   4.859   1.413  0.3658  0.5122 -2.3390
19490TIP3    H279886   1.615   4.931   1.420  0.2534  0.1847 -0.5189
19491TIP3   OH279887   1.335   5.490   3.710  0.0300 -0.3287 -0.3428
19491TIP3    H179888   1.294   5.406   3.693 -0.9525 -0.2748  1.5004
19491TIP3    H279889   1.261   5.551   3.720  0.4500 -0.1404  2.5829
19492TIP3   OH279890   3.673   0.139   2.617  0.1778 -0.6041 -0.2866
19492TIP3    H179891   3.618   0.062   2.629 -1.0890  0.4935  1.4605
19492TIP3    H279892   3.684   0.175   2.705  1.0602  1.0002 -0.9967
19493TIP3   OH279893   1.822   0.234   0.861 -0.4327 -0.0791  0.3740
19493TIP3    H179894   1.805   0.328   0.860  0.5227  0.1047 -0.5979
19493TIP3    H279895   1.748   0.197   0.909 -2.0136  0.9530 -1.1113
19494TIP3   OH279896   5.619   5.506   2.425 -0.6261 -0.3163  0.2576
19494TIP3    H179897   5.533   5.542   2.404 -0.2763  1.2194  1.3076
19494TIP3    H279898   5.669   5.580   2.460  1.5661 -0.8426 -1.4894
19495TIP3   OH279899   1.965   0.938  16.015 -0.7218 -0.1243  0.5926
19495TIP3    H179900   1.895   0.976  16.068 -0.3717  0.7799  0.4187
19495TIP3    H279901   1.995   1.010  15.960  1.4376 -0.0467  1.7914
19496TIP3   OH279902   3.768   3.794   2.470  0.6477  0.0595 -0.2315
19496TIP3    H179903   3.722   3.765   2.549  0.4219  0.5304 -0.1868
19496TIP3    H279904   3.853   3.750   2.475  0.5716 -0.0460  0.1891
19497TIP3   OH279905   0.318   4.501  17.361 -0.4247 -0.0501  0.1565
19497TIP3    H179906   0.347   4.499  17.270  1.1943  0.3143  0.6328
19497TIP3    H279907   0.303   4.409  17.383 -1.5984 -0.0829 -0.6887
19498TIP3   OH279908   3.932   1.988   2.044 -0.3972 -0.2113 -0.5209
19498TIP3    H179909   3.999   2.055   2.032  1.6184 -2.4562 -3.6737
19498TIP3    H279910   3.935   1.966   2.137 -0.0943  2.8892  0.3119
19499TIP3   OH279911   0.658   1.606  14.265  0.1900 -0.5062 -0.0501
19499TIP3    H179912   0.613   1.598  14.350 -0.4971  0.8971 -0.2418
19499TIP3    H279913   0.741   1.648  14.286 -0.8229  1.7310 -0.2438
19500TIP3   OH279914   4.153   3.910  11.867  0.4934 -0.4335 -0.1368
19500TIP3    H179915   4.119   3.984  11.817  0.9791  0.2910  0.5570
19500TIP3    H279916   4.096   3.906  11.944  1.7547  0.6161  0.8962
19501TIP3   OH279917   2.268   3.342   1.653  0.2152 -0.2196  0.5018
19501TIP3    H179918   2.190   3.340   1.708  0.3331 -0.4604  0.6623
19501TIP3    H279919   2.299   3.251   1.651  0.1045 -0.2450 -0.1177
19502TIP3   OH279920   6.352   4.475   1.436  0.5667 -0.0291  0.3530
19502TIP3    H179921   6.298   4.400   1.462  0.7607 -0.5566 -0.7406
19502TIP3    H279922   6.442   4.448   1.456  0.6976 -0.3577 -0.6485
19503TIP3   OH279923   0.749   6.286  17.304 -0.2382 -0.0194  0.3200
19503TIP3    H179924   0.754   6.258  17.395  1.4128 -1.1560 -0.0855
19503TIP3    H279925   0.780   6.211  17.253 -2.2582  0.1436 -1.2992
19504TIP3   OH279926   1.087   3.529  14.567 -0.3969 -0.5751 -0.0568
19504TIP3    H179927   1.081   3.470  14.492  2.0647 -1.5569  0.4262
19504TIP3    H279928   1.139   3.603  14.535  1.4071 -1.3943  0.8300
19505TIP3   OH279929   4.999   6.112   5.027 -0.4764  0.1942 -0.1687
19505TIP3    H179930   4.936   6.133   5.096 -0.2271  1.0339 -0.1864
19505TIP3    H279931   4.946   6.106   4.947 -1.0448 -2.5454  0.3257
19506TIP3   OH279932   6.729   4.836  14.683  0.1189  0.4174  0.3604
19506TIP3    H179933   6.733   4.888  14.603  0.5712 -0.0313  0.0892
19506TIP3    H279934   6.635   4.825  14.699 -0.0092 -1.1418 -1.1972
19507TIP3   OH279935   4.968   4.187  16.780 -0.2973  0.0447  0.2960
19507TIP3    H179936   4.925   4.234  16.852 -0.9491 -2.7136  1.8257
19507TIP3    H279937   5.030   4.128  16.822  0.6206 -0.3914 -1.5519
19508TIP3   OH279938   3.414   2.949   0.327  0.0879 -0.2502 -0.1368
19508TIP3    H179939   3.430   3.044   0.328 -2.2305  0.2016  1.2487
19508TIP3    H279940   3.359   2.936   0.249 -0.5098 -0.2489  0.2765
19509TIP3   OH279941   2.737   5.711  17.018 -0.7903 -0.0155  0.1254
19509TIP3    H179942   2.731   5.660  17.098  1.0392 -1.4085 -0.5553
19509TIP3    H279943   2.684   5.663  16.955  1.3913 -1.5313 -0.6755
19510TIP3   OH279944   4.090   0.296  15.298 -0.0057  0.1864  0.3030
19510TIP3    H179945   4.105   0.390  15.285  0.4243 -0.1147 -1.7075
19510TIP3    H279946   4.000   0.291  15.330 -0.1457  1.2714  0.1183
19511TIP3   OH279947   6.705   0.237  16.218 -0.3121 -0.0664  0.2915
19511TIP3    H179948   6.659   0.175  16.275 -0.0474 -0.5891 -0.0522
19511TIP3    H279949   6.797   0.209  16.223 -0.0793  0.7523  0.7008
19512TIP3   OH279950   4.126   6.339  16.804 -0.1489 -0.2408 -0.0749
19512TIP3    H179951   4.191   6.376  16.744  0.6248  0.4208  1.1282
19512TIP3    H279952   4.068   6.412  16.825  0.1151 -0.2308  0.6536
19513TIP3   OH279953   4.416   0.119   5.341 -0.5697  0.8383 -1.1408
19513TIP3    H179954   4.505   0.085   5.348 -0.3028  1.6633 -0.3652
19513TIP3    H279955   4.387   0.092   5.254  0.5189  0.7711 -1.4977
19514TIP3   OH279956   6.538   6.693   1.534 -0.3316  0.3678 -0.3223
19514TIP3    H179957   6.583   6.777   1.532  1.0675 -0.3309  0.4022
19514TIP3    H279958   6.450   6.714   1.566  1.0118  1.2135  3.3918
19515TIP3   OH279959   2.653   6.742   4.590  0.2019  0.5304  0.2229
19515TIP3    H179960   2.576   6.797   4.573 -0.9663 -0.9573  0.4735
19515TIP3    H279961   2.627   6.687   4.664  1.1288 -0.6809 -0.3104
19516TIP3   OH279962   5.963   1.376  11.612 -0.4877 -0.2350 -0.4702
19516TIP3    H179963   5.990   1.449  11.557 -0.6182  0.3148  0.1806
19516TIP3    H279964   5.870   1.393  11.630 -0.3472 -0.1770  0.2513
19517TIP3   OH279965   4.762   0.330   5.368 -0.0788 -0.1289 -0.1840
19517TIP3    H179966   4.816   0.270   5.317  0.9564 -1.4622  2.3244
19517TIP3    H279967   4.767   0.413   5.320  1.7991 -0.9814 -1.5746
19518TIP3   OH279968   2.398   5.014   5.121 -0.0342  0.4170  0.1849
19518TIP3    H179969   2.309   5.038   5.095 -0.2035 -0.4256 -0.0366
19518TIP3    H279970   2.387   4.936   5.174  0.6741 -0.6452 -1.1572
19519TIP3   OH279971   0.069   5.590   2.374 -0.0724  1.0132  0.5543
19519TIP3    H179972   0.045   5.561   2.286  0.2619 -0.2958  0.8628
19519TIP3    H279973   0.165   5.592   2.373 -0.0119 -0.4129  1.2849
19520TIP3   OH279974   4.659   2.129   3.355 -0.6270 -0.2067 -0.3852
19520TIP3    H179975   4.616   2.127   3.441  0.2461 -2.6340  0.0453
19520TIP3    H279976   4.587   2.116   3.293 -1.0821  0.2105  0.0399
19521TIP3   OH279977   5.564   2.905   0.409  0.1455 -0.1821 -0.2306
19521TIP3    H179978   5.507   2.953   0.349 -0.5297 -0.4422  0.1922
19521TIP3    H279979   5.600   2.973   0.466  0.3743 -0.0002 -0.5841
19522TIP3   OH279980   4.477   5.193  15.184 -0.1531 -0.5385 -0.0084
19522TIP3    H179981   4.511   5.262  15.126 -1.5443  0.8857  0.7794
19522TIP3    H279982   4.442   5.240  15.259 -2.2362 -1.9885  0.0253
19523TIP3   OH279983   6.025   5.506   2.264  0.0898  0.1741 -0.0816
19523TIP3    H179984   6.115   5.533   2.249  1.0639 -1.9684  1.3859
19523TIP3    H279985   5.972   5.574   2.223  2.3567  1.3325 -1.2540
19524TIP3   OH279986   2.460   0.780  14.674  0.7500 -0.0376 -0.1638
19524TIP3    H179987   2.380   0.817  14.638  0.9665  0.7667  0.1684
19524TIP3    H279988   2.475   0.828  14.755  1.0859 -0.7987  0.2357
19525TIP3   OH279989   1.820   5.730   1.342  0.4584  0.4306  0.4732
19525TIP3    H179990   1.824   5.656   1.402  4.5587  0.1159  0.0752
19525TIP3    H279991   1.790   5.692   1.259  0.1766 -0.2772  0.8923
19526TIP3   OH279992   4.859   4.091   3.258 -0.2036  0.3985  0.1039
19526TIP3    H179993   4.815   4.062   3.339 -1.2083 -0.2377 -0.6473
19526TIP3    H279994   4.803   4.162   3.225 -0.3427 -0.0152 -0.5501
19527TIP3   OH279995   4.399   2.365  17.178  0.1927 -0.2116 -0.4714
19527TIP3    H179996   4.383   2.385  17.271  1.4463 -1.2421 -0.0026
19527TIP3    H279997   4.383   2.447  17.133  0.6201  0.6052  0.7969
19528TIP3   OH279998   4.451   2.509   1.343  0.2779  0.1143 -0.2028
19528TIP3    H179999   4.371   2.550   1.376 -0.3926 -0.8736 -0.5535
19528TIP3    H280000   4.515   2.581   1.340 -0.7365  1.0432 -0.4276
19529TIP3   OH280001   4.164   3.555  17.270  0.5276 -0.5650 -0.2508
19529TIP3    H180002   4.168   3.474  17.220 -0.9728 -1.6217  1.1949
19529TIP3    H280003   4.150   3.623  17.205  4.3080 -1.0427 -1.7714
19530TIP3   OH280004   3.748   5.703  14.143  0.1488  0.4429 -0.4988
19530TIP3    H180005   3.803   5.644  14.194  1.0654  0.9747 -0.8455
19530TIP3    H280006   3.664   5.659  14.138  0.7156 -0.6725 -0.4582
19531TIP3   OH280007   2.378   5.637  14.013  0.2056 -0.1684  0.0044
19531TIP3    H180008   2.467   5.663  14.037  0.6590 -1.6851  0.0671
19531TIP3    H280009   2.350   5.580  14.085  0.2420 -1.9316 -1.3261
19532TIP3   OH280010   4.454   3.635  13.780 -0.0268  0.4406  0.3705
19532TIP3    H180011   4.533   3.604  13.825 -1.0362 -2.5005  0.3031
19532TIP3    H280012   4.476   3.633  13.687  0.3162  1.3043  0.4170
19533TIP3   OH280013   3.668   3.020   3.638  0.1201  0.3898  0.2795
19533TIP3    H180014   3.599   3.073   3.677  0.5266  0.7931  0.4507
19533TIP3    H280015   3.749   3.067   3.656  0.5814 -0.6906  1.1337
19534TIP3   OH280016   6.491   2.312   5.497 -0.1382 -0.2241  0.5047
19534TIP3    H180017   6.524   2.277   5.414  0.8543 -0.8590  1.1457
19534TIP3    H280018   6.466   2.235   5.548 -2.7180  0.2126  0.0653
19535TIP3   OH280019   5.497   6.457   6.067 -0.1523  0.3090  0.4622
19535TIP3    H180020   5.532   6.371   6.043  0.6574  1.0968 -1.4842
19535TIP3    H280021   5.572   6.504   6.103 -0.0762  0.8257 -0.3395
19536TIP3   OH280022   4.515   0.879   4.649  0.1446 -0.3457  0.1865
19536TIP3    H180023   4.515   0.850   4.740 -0.8134 -0.8737  0.0284
19536TIP3    H280024   4.484   0.970   4.653 -0.2055 -0.4729  0.3570
19537TIP3   OH280025   0.169   1.519  14.832 -0.0348 -0.3711 -0.0082
19537TIP3    H180026   0.215   1.603  14.833  0.2549 -0.5334  0.4012
19537TIP3    H280027   0.191   1.478  14.916 -0.1790 -0.8546 -0.2012
19538TIP3   OH280028   4.982   6.359  16.827  0.1245  0.4697 -0.0880
19538TIP3    H180029   4.931   6.439  16.819 -0.0935  0.2463 -1.1465
19538TIP3    H280030   4.993   6.329  16.736 -0.8398 -1.3454  0.3403
19539TIP3   OH280031   1.092   3.582   0.329 -0.0942 -0.2851 -0.1699
19539TIP3    H180032   1.019   3.644   0.327 -0.3032 -0.5296 -0.0554
19539TIP3    H280033   1.120   3.580   0.420  1.2151  1.1629 -0.4916
19540TIP3   OH280034   0.274   3.453  12.644  0.7253  0.2880 -0.2837
19540TIP3    H180035   0.351   3.509  12.652 -0.1827  2.1915 -3.2241
19540TIP3    H280036   0.308   3.370  12.611  1.6206  0.9548 -1.1152
19541TIP3   OH280037   3.664   4.258  11.554  0.0637  0.3872  0.2911
19541TIP3    H180038   3.732   4.281  11.618 -2.7585  3.0825  2.6363
19541TIP3    H280039   3.671   4.325  11.486  0.8575 -0.4326 -0.4588
19542TIP3   OH280040   6.578   4.971  12.993  0.2740  0.6511 -0.0698
19542TIP3    H180041   6.594   5.044  13.052 -1.8702  0.7966  0.3877
19542TIP3    H280042   6.610   4.894  13.041  0.6548  1.0386  0.3029
19543TIP3   OH280043   6.298   6.244   3.289 -0.1602 -0.4839 -0.0109
19543TIP3    H180044   6.338   6.272   3.371 -1.7194  1.0801  0.2655
19543TIP3    H280045   6.301   6.148   3.292 -1.1254 -0.5009  2.3571
19544TIP3   OH280046   0.810   1.381  12.548  0.4844  0.2421  0.7906
19544TIP3    H180047   0.901   1.390  12.518 -0.0662  0.5372 -0.9113
19544TIP3    H280048   0.816   1.380  12.643  2.2002  1.1180  0.7283
19545TIP3   OH280049   5.844   0.182  16.136  0.5258 -0.8071 -0.5891
19545TIP3    H180050   5.762   0.202  16.091  0.3219 -0.3672 -0.0323
19545TIP3    H280051   5.894   0.129  16.073  0.8429  0.9771 -1.9345
19546TIP3   OH280052   5.053   5.604  13.269  0.1094  0.0103 -0.3363
19546TIP3    H180053   4.966   5.643  13.278 -0.2274 -0.8163  0.0727
19546TIP3    H280054   5.113   5.678  13.276 -0.5770  0.6811 -1.2857
19547TIP3   OH280055   3.701   2.173  11.597  0.2602  0.5954  1.1617
19547TIP3    H180056   3.676   2.081  11.587  0.7454  0.5376  0.3955
19547TIP3    H280057   3.710   2.185  11.692 -0.3460  0.0071  1.3022
19548TIP3   OH280058   6.154   2.312  14.150 -0.0170  0.6005  0.1162
19548TIP3    H180059   6.076   2.260  14.129 -0.3412  1.2250 -0.2960
19548TIP3    H280060   6.123   2.403  14.146  0.1215  0.7948  2.5269
19549TIP3   OH280061   3.545   6.374   3.759  0.0115 -0.1201  0.1260
19549TIP3    H180062   3.546   6.349   3.852  0.8464  0.4682  0.2870
19549TIP3    H280063   3.478   6.441   3.752  0.0870 -0.0211  0.3458
19550TIP3   OH280064   6.539   5.981  12.682 -0.1484  0.2093  0.0795
19550TIP3    H180065   6.460   5.948  12.639  0.3660  0.4399 -1.0856
19550TIP3    H280066   6.605   5.982  12.612  1.1626 -0.9216  1.2422
19551TIP3   OH280067   4.051   4.656  11.124 -0.3702  0.3650 -0.1147
19551TIP3    H180068   4.009   4.571  11.137 -0.4096  0.3535 -0.3271
19551TIP3    H280069   4.086   4.653  11.035  0.4466  0.2156  0.2001
19552TIP3   OH280070   1.977   1.819   0.310  0.3701 -0.3521 -0.3795
19552TIP3    H180071   1.940   1.906   0.297  0.0807 -0.7146 -2.1981
19552TIP3    H280072   1.974   1.806   0.405  0.8455  1.7822 -0.0056
19553TIP3   OH280073   4.856   2.465   4.437 -0.1915  0.4549  0.2467
19553TIP3    H180074   4.887   2.376   4.451 -1.7227  0.1311  1.9127
19553TIP3    H280075   4.761   2.457   4.429 -0.2129  1.7499 -1.5545
19554TIP3   OH280076   2.006   0.155   2.281 -0.3031  0.9717 -0.4030
19554TIP3    H180077   1.927   0.103   2.292 -0.2634  0.8760 -0.5650
19554TIP3    H280078   1.984   0.241   2.318 -0.2355  0.7203  0.2420
19555TIP3   OH280079   1.576   1.781  13.530 -0.0055 -0.4167  0.7873
19555TIP3    H180080   1.598   1.710  13.469  0.9499  1.4100 -1.1106
19555TIP3    H280081   1.577   1.860  13.476 -0.4519  1.1448  2.9453
19556TIP3   OH280082   5.735   5.495  11.041  0.5976 -0.0939 -0.0514
19556TIP3    H180083   5.698   5.565  10.987 -1.9584 -1.6877 -0.5338
19556TIP3    H280084   5.824   5.484  11.008  0.0164  0.8380 -2.1172
19557TIP3   OH280085   4.771   3.952   0.546  0.3807  0.2477 -0.1562
19557TIP3    H180086   4.765   3.860   0.522 -1.5644  0.4354 -0.5498
19557TIP3    H280087   4.862   3.965   0.571  0.3109 -2.2692  1.8220
19558TIP3   OH280088   1.871   3.785  16.404 -0.3898 -0.9873 -0.2070
19558TIP3    H180089   1.876   3.779  16.500 -2.8204 -0.9204 -0.0056
19558TIP3    H280090   1.834   3.872  16.388  0.0206 -0.9920 -1.2113
19559TIP3   OH280091   6.168   2.620  13.879  0.1576  0.0881 -0.0729
19559TIP3    H180092   6.127   2.590  13.961  0.7781 -2.2014 -0.5444
19559TIP3    H280093   6.252   2.575  13.876  1.4990  2.4761 -0.5541
19560TIP3   OH280094   0.886   1.997  12.475 -0.3212 -0.2275  0.0864
19560TIP3    H180095   0.902   2.090  12.459  0.9398 -0.4701 -0.2142
19560TIP3    H280096   0.791   1.988  12.470 -0.3845  0.7821 -1.3041
19561TIP3   OH280097   3.312   3.587   1.243 -0.3732 -0.3138 -0.1036
19561TIP3    H180098   3.398   3.599   1.283 -0.9150  2.4364  0.4262
19561TIP3    H280099   3.285   3.500   1.271  2.2684 -1.3520 -0.4461
19562TIP3   OH280100   1.287   4.128   1.812 -0.1782 -0.1884  0.3771
19562TIP3    H180101   1.259   4.213   1.778  0.9467 -0.3453 -1.0340
19562TIP3    H280102   1.350   4.096   1.747 -0.8770 -2.2841  0.6658
19563TIP3   OH280103   4.619   1.005   0.388  0.2537  0.4709 -0.5730
19563TIP3    H180104   4.669   0.980   0.311 -1.5881 -0.4585 -1.5422
19563TIP3    H280105   4.626   0.931   0.448 -0.0454  0.2883 -0.7616
19564TIP3   OH280106   2.333   6.346   5.555  0.2784 -0.4017  0.2417
19564TIP3    H180107   2.248   6.369   5.592 -1.3719  1.4347 -4.0798
19564TIP3    H280108   2.316   6.271   5.498  1.9545 -1.0352  0.4996
19565TIP3   OH280109   3.540   4.241   0.765  0.2821 -0.9428 -0.3823
19565TIP3    H180110   3.617   4.261   0.818  0.8891 -3.5596 -0.1089
19565TIP3    H280111   3.570   4.250   0.675 -0.4357  2.4066 -0.4020
19566TIP3   OH280112   0.970   0.074   2.021 -0.3573  0.3425 -0.3447
19566TIP3    H180113   1.019  -0.008   2.016 -1.0910 -0.0834 -0.7419
19566TIP3    H280114   1.011   0.122   2.093 -0.4505 -0.7402  0.4625
19567TIP3   OH280115   1.504   6.648  13.266 -0.1625  0.0996  0.0662
19567TIP3    H180116   1.574   6.690  13.216  0.5871 -0.8932  0.2519
19567TIP3    H280117   1.544   6.569  13.302 -1.8211 -1.4162 -1.2316
19568TIP3   OH280118   1.059   6.168  16.423  0.6266  0.4121 -0.4442
19568TIP3    H180119   1.061   6.230  16.496  0.4003  0.2835 -0.3307
19568TIP3    H280120   1.065   6.082  16.464 -1.1862  0.2447 -0.4440
19569TIP3   OH280121   4.563   6.523   3.305 -0.3574 -0.0103  0.0787
19569TIP3    H180122   4.617   6.464   3.253  1.7367  0.9180  1.0464
19569TIP3    H280123   4.609   6.607   3.302 -3.3249  1.7198 -1.4158
19570TIP3   OH280124   4.814   6.608   1.464 -0.1411 -0.9916  0.9588
19570TIP3    H180125   4.843   6.576   1.550 -1.1909 -1.5551  1.1136
19570TIP3    H280126   4.721   6.585   1.460 -0.5245  0.5213  0.3654
19571TIP3   OH280127   3.354   2.950   4.477 -0.4286  0.2258  0.4445
19571TIP3    H180128   3.413   2.974   4.406 -1.2762 -0.7236 -0.6125
19571TIP3    H280129   3.410   2.946   4.555  0.7482  0.0982 -0.3887
19572TIP3   OH280130   1.248   5.655  15.857 -0.2601 -0.7134  0.0957
19572TIP3    H180131   1.231   5.588  15.792  1.8216  0.3472 -1.6838
19572TIP3    H280132   1.210   5.735  15.821 -0.0273 -0.3170  0.7042
19573TIP3   OH280133   2.955   0.183   3.768  0.5165  1.1137  0.1300
19573TIP3    H180134   2.949   0.202   3.861 -0.3349  1.4089  0.0298
19573TIP3    H280135   3.047   0.199   3.745  0.6630  1.3186  0.8545
19574TIP3   OH280136   5.814   3.460  14.969 -0.3321  0.2097 -0.0048
19574TIP3    H180137   5.894   3.498  15.003 -0.6520  0.3802  0.5651
19574TIP3    H280138   5.794   3.511  14.890 -0.2602  0.6184  0.2429
19575TIP3   OH280139   4.901   3.732   3.101  0.2581  0.0103  0.3059
19575TIP3    H180140   4.903   3.816   3.056 -1.1350 -0.5806 -0.9414
19575TIP3    H280141   4.853   3.749   3.182  1.7083  0.8072  1.0449
19576TIP3   OH280142   0.417   2.109  15.795  0.2166  0.1769 -0.3894
19576TIP3    H180143   0.413   2.205  15.788 -0.4392  0.2230  0.4167
19576TIP3    H280144   0.437   2.093  15.887  1.7247 -0.4508 -0.8140
19577TIP3   OH280145   4.908   2.095   5.163  0.0742  0.3103  0.1601
19577TIP3    H180146   4.973   2.131   5.223 -0.8754  2.4012  0.0054
19577TIP3    H280147   4.833   2.074   5.218  0.3698 -0.9010  0.1433
19578TIP3   OH280148   1.275   6.383  12.490  0.6471 -0.5013  0.7901
19578TIP3    H180149   1.266   6.373  12.396 -2.1622 -1.3536  1.0494
19578TIP3    H280150   1.298   6.475  12.502 -4.3958  1.2689 -0.6841
19579TIP3   OH280151   6.567   3.179   1.283 -0.0906 -0.2948 -0.5697
19579TIP3    H180152   6.583   3.141   1.370 -1.1435 -0.2532 -0.3440
19579TIP3    H280153   6.561   3.273   1.299  1.0593 -0.1553 -0.9051
19580TIP3   OH280154   4.988   5.923   1.135  0.5979 -0.4768 -0.3521
19580TIP3    H180155   5.073   5.946   1.099  0.8936  1.1470  1.2305
19580TIP3    H280156   4.994   5.946   1.228 -1.1049 -1.6632  0.1109
19581TIP3   OH280157   5.041   4.317  14.947  0.2078  0.6386 -0.1813
19581TIP3    H180158   4.968   4.322  14.885 -1.1082  0.0781  1.2458
19581TIP3    H280159   5.111   4.274  14.899 -1.5814 -2.0189 -0.6300
19582TIP3   OH280160   4.805   5.248  15.644  0.0720 -0.7668  0.1585
19582TIP3    H180161   4.833   5.256  15.553  3.4425 -1.5805  0.9998
19582TIP3    H280162   4.782   5.156  15.655 -0.0433 -0.7303  0.2353
19583TIP3   OH280163   4.784   0.640  11.300  0.2899 -0.1156 -0.6572
19583TIP3    H180164   4.829   0.556  11.292  1.1191  0.3468 -0.8914
19583TIP3    H280165   4.731   0.647  11.221  2.6449  0.9893 -2.2745
19584TIP3   OH280166   6.678   2.865   4.039 -0.0067  0.1603 -0.2285
19584TIP3    H180167   6.703   2.858   4.131  0.9861  0.8977 -0.4295
19584TIP3    H280168   6.691   2.777   4.003  0.2894  0.0417  0.1687
19585TIP3   OH280169   6.259   4.478   5.342 -0.0401  0.0716  0.8726
19585TIP3    H180170   6.318   4.550   5.322 -1.2526  1.4087  1.8533
19585TIP3    H280171   6.285   4.407   5.282  3.0349  0.2725  1.8157
19586TIP3   OH280172   0.978   5.100  14.948  0.1777 -0.3138  0.2346
19586TIP3    H180173   0.997   5.159  14.874  1.6385 -0.5724  0.3620
19586TIP3    H280174   0.894   5.131  14.982  0.5189  1.1973 -0.1959
19587TIP3   OH280175   4.051   3.623  16.206 -0.5263  0.2733  0.3810
19587TIP3    H180176   4.092   3.538  16.225 -0.6769  0.0048 -0.4515
19587TIP3    H280177   4.082   3.681  16.275 -0.1093 -0.3629  0.7361
19588TIP3   OH280178   2.550   1.656  13.695 -0.1153 -0.4814  0.5379
19588TIP3    H180179   2.637   1.615  13.697 -0.7694 -1.9235  0.5415
19588TIP3    H280180   2.547   1.708  13.775  0.2981 -1.4192  1.1873
19589TIP3   OH280181   5.692   1.277   0.105  0.2141  0.3974 -0.4276
19589TIP3    H180182   5.616   1.236   0.063  1.3478 -0.4277 -1.7707
19589TIP3    H280183   5.717   1.215   0.174 -0.2292  0.5960 -0.0831
19590TIP3   OH280184   2.481   1.629  11.279  0.4052  0.4201 -0.4073
19590TIP3    H180185   2.486   1.533  11.281 -1.5522  0.2641 -1.1010
19590TIP3    H280186   2.565   1.656  11.242  0.8013 -1.0584 -0.6510
19591TIP3   OH280187   0.844   0.348  10.540 -0.2305  0.2343  0.2282
19591TIP3    H180188   0.811   0.311  10.458 -0.3930 -1.5707  1.0699
19591TIP3    H280189   0.773   0.406  10.569 -1.4850 -1.3815  0.5488
19592TIP3   OH280190   1.595   6.716   5.501 -0.0759 -0.1369  0.6532
19592TIP3    H180191   1.585   6.624   5.523 -0.2406 -0.5077 -0.8230
19592TIP3    H280192   1.520   6.735   5.444  0.5053  0.6312  0.1259
19593TIP3   OH280193   5.877   5.809  14.035 -0.0909 -0.3106 -0.2756
19593TIP3    H180194   5.877   5.716  14.055 -0.0744  0.3171  3.3201
19593TIP3    H280195   5.797   5.842  14.077  0.6849  1.4934 -0.1349
19594TIP3   OH280196   0.206   3.777   3.964  0.2596 -0.0285  0.0324
19594TIP3    H180197   0.225   3.863   4.001 -0.1490 -0.3375  1.0048
19594TIP3    H280198   0.250   3.715   4.023 -0.2239 -0.5327 -0.1262
19595TIP3   OH280199   1.696   0.072  15.279  0.1641  0.4142  0.1592
19595TIP3    H180200   1.697   0.081  15.183 -2.8422  3.4542  0.2527
19595TIP3    H280201   1.769   0.126  15.308  0.0719  0.8426 -0.3765
19596TIP3   OH280202   5.476   4.765  10.854  0.1993 -0.7596  0.3921
19596TIP3    H180203   5.519   4.681  10.838 -1.0419 -1.3189 -0.1623
19596TIP3    H280204   5.499   4.787  10.944  2.9495 -0.2053 -0.3512
19597TIP3   OH280205   6.676   3.733  15.693  0.5504 -0.7024  0.2434
19597TIP3    H180206   6.640   3.812  15.652  2.3494  0.3118  0.5295
19597TIP3    H280207   6.692   3.674  15.619  0.2335 -0.3765 -0.0942
19598TIP3   OH280208   3.550   4.365  15.692  0.1386  0.3788  0.0945
19598TIP3    H180209   3.625   4.385  15.637  0.4571  0.2390  0.4721
19598TIP3    H280210   3.563   4.417  15.771 -0.0973  0.2599  0.2141
19599TIP3   OH280211   0.939   3.694  13.026 -0.0589  0.2902  0.4828
19599TIP3    H180212   0.889   3.741  13.093 -0.4262  0.5972  0.0024
19599TIP3    H280213   1.009   3.755  13.001 -0.1883  0.3542  0.2724
19600TIP3   OH280214   6.575   4.324   1.361  0.1458  0.2492  0.2794
19600TIP3    H180215   6.653   4.293   1.315  0.8816 -0.1029  1.7171
19600TIP3    H280216   6.523   4.246   1.376 -0.2877  0.4221 -0.2809
19601TIP3   OH280217   0.829   0.278  14.969 -0.1751 -0.4680 -0.0880
19601TIP3    H180218   0.898   0.219  14.940 -0.2121 -0.2302 -0.6983
19601TIP3    H280219   0.804   0.247  15.055  2.0816  0.6334  1.0517
19602TIP3   OH280220   6.142   0.490   5.278 -0.0322  0.3741  0.1245
19602TIP3    H180221   6.199   0.531   5.343  0.9973  1.8046 -1.6019
19602TIP3    H280222   6.129   0.401   5.311  2.0975  0.4230  1.2641
19603TIP3   OH280223   0.932   1.289  15.008  0.1048 -0.7487  0.1755
19603TIP3    H180224   1.018   1.301  14.968 -0.6021  1.3603 -0.8277
19603TIP3    H280225   0.949   1.288  15.103  1.0905  1.4646  0.0780
19604TIP3   OH280226   0.902   5.624  16.198  0.3843  0.2371 -0.6459
19604TIP3    H180227   0.844   5.572  16.253 -1.0025  0.9956 -1.3362
19604TIP3    H280228   0.861   5.710  16.194  1.1573  0.5774 -1.7720
19605TIP3   OH280229   0.203   3.808  11.891 -0.7300  0.7789 -0.2254
19605TIP3    H180230   0.144   3.735  11.908 -0.3199  0.5087  0.0609
19605TIP3    H280231   0.146   3.880  11.865 -1.0953  0.2034 -1.0408
19606TIP3   OH280232   0.523   0.435  12.340  0.7254  0.4864 -0.0379
19606TIP3    H180233   0.472   0.360  12.311 -0.1432  1.1321 -0.2435
19606TIP3    H280234   0.457   0.501  12.363  1.4625  1.1190  0.3001
19607TIP3   OH280235   0.283   5.748  12.962 -0.2147  0.1867 -0.2551
19607TIP3    H180236   0.262   5.736  12.870  0.7308 -1.5554 -0.2909
19607TIP3    H280237   0.376   5.725  12.968 -0.7210 -1.7020  1.4269
19608TIP3   OH280238   2.225   5.688   2.585 -0.4867  0.4650  0.0960
19608TIP3    H180239   2.313   5.687   2.548 -0.1942  1.7914  0.6797
19608TIP3    H280240   2.238   5.687   2.679 -1.0952  0.6715  0.1906
19609TIP3   OH280241   4.296   4.833  12.858 -0.4601  0.1556 -0.2689
19609TIP3    H180242   4.307   4.743  12.825 -0.3392 -0.9707  2.5153
19609TIP3    H280243   4.248   4.878  12.789  0.3468 -1.7530 -2.2141
19610TIP3   OH280244   0.306   5.865  16.728  1.0508 -0.0990 -0.2291
19610TIP3    H180245   0.245   5.936  16.746 -0.3937 -1.4632  0.4289
19610TIP3    H280246   0.339   5.884  16.640  0.4374  1.1913 -0.2025
19611TIP3   OH280247   5.094   1.588   0.521 -0.7014  0.4096  0.0239
19611TIP3    H180248   5.167   1.623   0.470  0.0128 -0.3691  0.4773
19611TIP3    H280249   5.059   1.517   0.466 -2.9134  2.4844 -1.4444
19612TIP3   OH280250   2.627   6.533  11.330  0.1796 -0.6558 -0.4746
19612TIP3    H180251   2.642   6.542  11.424  2.0390  0.0412 -0.7947
19612TIP3    H280252   2.683   6.600  11.291 -1.6039  0.0040 -2.0344
19613TIP3   OH280253   3.546   6.314  14.621  0.0177  0.2663 -0.3131
19613TIP3    H180254   3.507   6.343  14.704  2.7444 -0.7691  1.4785
19613TIP3    H280255   3.617   6.255  14.647 -0.1730 -1.5725 -3.5063
19614TIP3   OH280256   0.639   5.493   3.737 -0.1998 -0.5652  0.2660
19614TIP3    H180257   0.614   5.578   3.702 -0.1223 -0.7071 -0.1302
19614TIP3    H280258   0.645   5.508   3.832  1.4556  0.3061  0.0762
19615TIP3   OH280259   2.386   2.589  13.211  0.6037  0.5159  0.3822
19615TIP3    H180260   2.379   2.533  13.289 -0.1998  0.6761  0.4337
19615TIP3    H280261   2.314   2.563  13.155  0.2837  1.4152  0.3523
19616TIP3   OH280262   6.586   4.632   3.580 -0.1334  0.2624 -0.2723
19616TIP3    H180263   6.498   4.620   3.616  0.6114 -2.5954  0.8304
19616TIP3    H280264   6.586   4.582   3.499  1.2752 -2.4381  1.2743
19617TIP3   OH280265   5.448   0.314  15.091  0.1210  0.1439 -0.1644
19617TIP3    H180266   5.492   0.381  15.039 -0.7050  1.2676  0.5284
19617TIP3    H280267   5.387   0.273  15.030 -0.6063  1.2310 -0.2062
19618TIP3   OH280268   5.050   1.240  14.364 -0.0151  0.5485  0.2064
19618TIP3    H180269   5.071   1.151  14.394 -0.5074  0.8444  1.5001
19618TIP3    H280270   5.035   1.231  14.270 -1.0789 -0.9273  0.4863
19619TIP3   OH280271   3.288   1.094   0.275 -0.0983  0.1274  0.5332
19619TIP3    H180272   3.262   1.008   0.241  0.1509 -0.0491  0.7849
19619TIP3    H280273   3.229   1.156   0.232  0.4488 -0.0545 -0.5090
19620TIP3   OH280274   5.411   5.111  13.591 -0.1942  0.1332 -0.1829
19620TIP3    H180275   5.432   5.144  13.503  0.6708 -1.4034 -0.6037
19620TIP3    H280276   5.479   5.149  13.647 -0.4487  0.7200 -0.2657
19621TIP3   OH280277   0.536   3.282   0.417 -0.1755  0.3072 -0.2309
19621TIP3    H180278   0.478   3.307   0.489 -0.2027 -0.7396  0.1313
19621TIP3    H280279   0.617   3.330   0.434  0.8228 -1.9562  2.1030
19622TIP3   OH280280   5.846   3.859  16.743  0.2679  0.3525  0.6065
19622TIP3    H180281   5.931   3.830  16.710  0.4828  1.5014  0.1000
19622TIP3    H280282   5.868   3.910  16.821  0.0682  0.8509  0.3383
19623TIP3   OH280283   1.020   4.810  12.870  0.5448 -0.3930  0.0175
19623TIP3    H180284   1.095   4.814  12.810 -0.8131  0.2905 -1.7146
19623TIP3    H280285   0.944   4.805  12.813 -0.8271  0.1912  1.7099
19624TIP3   OH280286   0.845   0.860   2.025 -0.0921 -0.8572 -0.0178
19624TIP3    H180287   0.848   0.874   2.120  0.6581  0.1363 -0.1766
19624TIP3    H280288   0.815   0.944   1.990  1.2015 -0.6967 -0.7718
19625TIP3   OH280289   5.381   3.892  10.702 -0.4718  0.3620 -0.1759
19625TIP3    H180290   5.358   3.829  10.634 -1.1450  0.9337 -0.4971
19625TIP3    H280291   5.384   3.976  10.656  2.6596  0.3229 -0.2382
19626TIP3   OH280292   4.854   0.657   0.865 -0.1941  0.2378  0.2412
19626TIP3    H180293   4.833   0.730   0.923 -0.8807  0.4755 -0.2911
19626TIP3    H280294   4.782   0.595   0.877  0.4445 -0.4093  0.7748
19627TIP3   OH280295   6.311   4.378   0.489  0.6184  0.8859 -0.6869
19627TIP3    H180296   6.392   4.429   0.487  1.4895 -0.4342 -0.2291
19627TIP3    H280297   6.309   4.332   0.405  1.0861 -0.1666 -0.1384
19628TIP3   OH280298   4.190   1.017  15.575  0.2338 -0.2382  0.4814
19628TIP3    H180299   4.239   0.968  15.641  2.3366 -0.3296 -1.0497
19628TIP3    H280300   4.235   1.101  15.568 -1.1062  0.5084  0.4700
19629TIP3   OH280301   6.298   2.291  13.683  0.2223 -0.6936 -0.2397
19629TIP3    H180302   6.205   2.311  13.695  0.3582  0.3073 -0.7098
19629TIP3    H280303   6.323   2.244  13.763 -1.2145 -3.1057 -1.1149
19630TIP3   OH280304   4.747   1.462   0.701 -0.0987 -0.3967 -0.1061
19630TIP3    H180305   4.710   1.375   0.691 -2.1036 -0.2539  3.8524
19630TIP3    H280306   4.675   1.521   0.679  0.7100  0.2453 -1.1102
19631TIP3   OH280307   2.672   4.795   6.587  0.2849  0.2002 -0.0656
19631TIP3    H180308   2.749   4.851   6.581  1.6691 -1.6540 -0.2957
19631TIP3    H280309   2.680   4.752   6.672  0.3330 -1.1401 -0.7251
19632TIP3   OH280310   5.558   0.193  14.563  0.2432  0.3355  0.2464
19632TIP3    H180311   5.602   0.112  14.538 -2.5356 -1.3495  0.3378
19632TIP3    H280312   5.581   0.256  14.494  0.9298 -1.1017 -0.8849
19633TIP3   OH280313   0.981   5.971   6.150 -0.2181  0.0734 -0.3438
19633TIP3    H180314   0.983   6.065   6.163 -0.3676  0.2106 -1.2131
19633TIP3    H280315   0.955   5.935   6.235 -0.1625  0.8112 -0.0064
19634TIP3   OH280316   4.276   5.899   5.775  0.2474 -0.1433 -0.3465
19634TIP3    H180317   4.335   5.889   5.850  0.2809 -0.1015 -0.3671
19634TIP3    H280318   4.188   5.897   5.814  0.2741  2.1965  0.0116
19635TIP3   OH280319   1.308   0.029  14.353  0.2019 -0.0371 -0.3424
19635TIP3    H180320   1.320   0.082  14.431 -0.0606  0.4025 -0.5960
19635TIP3    H280321   1.224  -0.016  14.367 -0.9033  1.6398 -1.2595
19636TIP3   OH280322   3.892   4.752  11.755 -0.3823  0.3434  0.1565
19636TIP3    H180323   3.981   4.729  11.780 -0.3794 -0.5220 -0.5941
19636TIP3    H280324   3.886   4.846  11.771  0.5719  0.3605  0.4734
19637TIP3   OH280325   4.213   3.938   3.307 -0.3872 -0.1472  0.5560
19637TIP3    H180326   4.209   3.842   3.300  0.3669 -0.0939 -1.3721
19637TIP3    H280327   4.244   3.966   3.221 -0.8612  1.8664  1.0035
19638TIP3   OH280328   3.256   5.835   3.286  0.7411  0.7854 -0.0614
19638TIP3    H180329   3.215   5.919   3.264 -2.0481  0.5656  3.4649
19638TIP3    H280330   3.285   5.846   3.377 -0.2280 -2.1935  0.6965
19639TIP3   OH280331   2.352   3.870  17.149 -0.0876 -0.2862 -0.1606
19639TIP3    H180332   2.304   3.788  17.154 -2.8093  1.0212 -2.2987
19639TIP3    H280333   2.357   3.889  17.055  0.7985  1.8156  0.2586
19640TIP3   OH280334   3.109   4.649  16.528 -0.3919  0.4820 -0.1257
19640TIP3    H180335   3.101   4.667  16.622 -1.2298 -0.3559 -0.0302
19640TIP3    H280336   3.044   4.706  16.487  0.9421  1.9171 -0.3544
19641TIP3   OH280337   1.717   6.415  13.924 -0.7252  0.7074 -0.6717
19641TIP3    H180338   1.726   6.508  13.945 -2.0234  0.5194  0.9747
19641TIP3    H280339   1.627   6.394  13.950 -0.0842 -1.2730  0.0703
19642TIP3   OH280340   4.308   3.509   3.483 -0.3693  0.0891  0.7099
19642TIP3    H180341   4.259   3.580   3.441 -2.8738 -1.2610  1.1418
19642TIP3    H280342   4.321   3.539   3.573 -0.1308  0.6026  0.5061
19643TIP3   OH280343   4.954   6.137   2.001  0.1533 -0.1007 -0.2219
19643TIP3    H180344   4.913   6.141   1.914 -0.4686  0.5432  0.0865
19643TIP3    H280345   4.881   6.147   2.062  0.7787  1.2357  0.3460
19644TIP3   OH280346   2.280   2.412   6.006  0.3495  0.1579 -0.7829
19644TIP3    H180347   2.294   2.318   6.023 -0.1039  0.2034 -0.1002
19644TIP3    H280348   2.277   2.451   6.093  0.5338  0.8114 -1.0702
19645TIP3   OH280349   6.004   5.110  11.945  0.9362  0.6186 -0.0261
19645TIP3    H180350   5.920   5.075  11.977  1.0032  1.2818  0.9217
19645TIP3    H280351   6.052   5.032  11.916  0.9576 -0.0843  1.7413
19646TIP3   OH280352   3.242   1.832   6.259 -0.0008 -0.0464 -0.1680
19646TIP3    H180353   3.253   1.747   6.215 -1.2599  0.6034 -1.8546
19646TIP3    H280354   3.160   1.823   6.308 -1.5071  0.9268 -2.3654
19647TIP3   OH280355   0.006   4.778   1.087 -0.1848 -0.3259 -0.1178
19647TIP3    H180356   0.015   4.730   1.169 -2.0049  2.6442  2.0531
19647TIP3    H280357   0.045   4.864   1.105 -1.4749  0.7501 -2.0206
19648TIP3   OH280358   4.876   0.284   3.859 -0.9015  0.3150  0.0636
19648TIP3    H180359   4.907   0.354   3.916  2.3861 -0.3676 -0.6317
19648TIP3    H280360   4.925   0.207   3.888 -2.0882 -0.9534 -1.1742
19649TIP3   OH280361   6.578   5.581  12.117  0.5578  0.1145 -0.2022
19649TIP3    H180362   6.483   5.571  12.113  0.4178  1.5989 -1.7019
19649TIP3    H280363   6.609   5.500  12.157 -1.2861 -0.6297 -0.1849
19650TIP3   OH280364   1.472   1.348  10.692  0.0781 -0.7651  0.3873
19650TIP3    H180365   1.405   1.397  10.739  0.3777 -1.8416  1.9787
19650TIP3    H280366   1.530   1.416  10.656 -1.2537  0.1320 -0.1424
19651TIP3   OH280367   3.910   2.229  16.254  0.5129 -0.6066 -0.2639
19651TIP3    H180368   3.987   2.282  16.272 -0.4817  0.0502  2.6561
19651TIP3    H280369   3.902   2.171  16.331 -1.8124 -0.7021 -0.5064
19652TIP3   OH280370   3.871   3.001  17.045 -0.1218 -0.3097  0.3298
19652TIP3    H180371   3.866   2.947  16.966 -3.0058 -1.1491  0.9913
19652TIP3    H280372   3.902   3.086  17.013 -0.7446 -0.7592 -1.6424
19653TIP3   OH280373   2.400   0.999  13.336 -0.2277  0.4642  0.5477
19653TIP3    H180374   2.389   1.073  13.277 -0.2697  0.0729  0.0654
19653TIP3    H280375   2.432   0.928  13.281  1.4784  0.5851  1.3025
19654TIP3   OH280376   1.419   3.185   4.793  0.0141  0.0503  0.1127
19654TIP3    H180377   1.402   3.239   4.716 -1.4114 -0.2364  0.1806
19654TIP3    H280378   1.414   3.245   4.867 -0.5351  0.0211  0.1079
19655TIP3   OH280379   2.184   0.913   3.046 -0.1911  0.2456 -0.0421
19655TIP3    H180380   2.170   1.004   3.020  2.6639  0.6144 -0.6492
19655TIP3    H280381   2.226   0.920   3.132  3.7635 -0.1326 -1.7331
19656TIP3   OH280382   0.191   4.908  11.777 -0.0146  0.1524  0.1635
19656TIP3    H180383   0.286   4.911  11.761 -0.2400  0.9834 -1.2502
19656TIP3    H280384   0.153   4.908  11.689 -1.3787  2.8903  0.6355
19657TIP3   OH280385   2.551   6.574   3.300 -0.2215  0.0945 -0.3867
19657TIP3    H180386   2.465   6.545   3.269 -0.9516  0.5464  1.1418
19657TIP3    H280387   2.596   6.493   3.323 -0.1116 -0.1665 -1.4784
19658TIP3   OH280388   0.755   6.077   1.837 -0.1115 -0.1303 -0.1991
19658TIP3    H180389   0.755   6.041   1.748  0.0415 -0.4999 -0.0522
19658TIP3    H280390   0.667   6.059   1.870 -0.2668  0.2825 -0.3842
19659TIP3   OH280391   0.452   3.604  17.298  0.2889 -0.5796 -0.6611
19659TIP3    H180392   0.489   3.692  17.302 -0.0077 -0.3408 -2.4692
19659TIP3    H280393   0.503   3.553  17.361  2.5711  0.1373 -1.8418
19660TIP3   OH280394   1.529   2.186   2.773 -0.6403 -0.5232  0.6818
19660TIP3    H180395   1.520   2.105   2.823  1.3976 -1.0607  0.2422
19660TIP3    H280396   1.533   2.159   2.682  0.2890  0.0208  0.5414
19661TIP3   OH280397   1.383   0.417  14.276  0.1809  0.0260 -0.3967
19661TIP3    H180398   1.335   0.335  14.265 -1.5168  0.6717  1.5544
19661TIP3    H280399   1.320   0.485  14.254  0.2100  0.8894  1.8533
19662TIP3   OH280400   1.815   4.996   4.246 -0.8304 -0.5995  0.1720
19662TIP3    H180401   1.875   4.982   4.320 -1.0006 -2.5342  0.0006
19662TIP3    H280402   1.778   4.910   4.230 -3.0793  0.3965 -0.2645
19663TIP3   OH280403   3.480   4.384  16.821 -0.4769  0.4876  0.4964
19663TIP3    H180404   3.499   4.359  16.912 -0.5540  1.2593  0.7396
19663TIP3    H280405   3.564   4.374  16.776 -0.2563  0.7920  0.8249
19664TIP3   OH280406   5.373   5.767  13.705  0.2444 -0.2813  0.1417
19664TIP3    H180407   5.309   5.700  13.728  0.1308 -0.1185  0.3040
19664TIP3    H280408   5.360   5.781  13.611  0.9522 -1.1993 -0.0968
19665TIP3   OH280409   1.293   2.064   5.350  0.1744 -0.4635  0.2240
19665TIP3    H180410   1.369   2.113   5.383 -1.3589  1.6396  0.8896
19665TIP3    H280411   1.277   1.997   5.417  1.8279 -1.4151 -0.2859
19666TIP3   OH280412   2.190   3.222   1.985 -0.0559  0.0653 -0.1559
19666TIP3    H180413   2.120   3.280   1.955  0.0208 -0.1242 -0.7349
19666TIP3    H280414   2.190   3.150   1.920 -1.3455 -1.5342  1.5073
19667TIP3   OH280415   5.403   0.990  13.839  0.0547 -0.5268  0.3777
19667TIP3    H180416   5.485   1.002  13.793  0.2417  1.0823  1.0707
19667TIP3    H280417   5.428   0.962  13.927 -0.2164 -1.4003  0.1933
19668TIP3   OH280418   3.983   6.355  12.348  0.3902  0.2474  0.3487
19668TIP3    H180419   3.905   6.325  12.301  1.4368  0.1190 -1.3776
19668TIP3    H280420   4.032   6.405  12.283  1.6791  0.4701  1.4587
19669TIP3   OH280421   5.716   1.247  13.416 -0.0224 -0.0779  0.1775
19669TIP3    H180422   5.804   1.261  13.451  0.5432 -1.0260 -0.7811
19669TIP3    H280423   5.730   1.191  13.339 -1.4613 -0.1928 -0.0262
19670TIP3   OH280424   3.994   5.823  14.818  0.2132 -0.0137 -0.3767
19670TIP3    H180425   4.043   5.821  14.900  0.6874  1.4669 -0.5888
19670TIP3    H280426   3.922   5.762  14.831  1.6612 -1.6726  0.2322
19671TIP3   OH280427   6.731   0.700  13.187 -0.3247 -0.4066 -0.4802
19671TIP3    H180428   6.752   0.608  13.204  4.8535  0.9150  2.2492
19671TIP3    H280429   6.697   0.732  13.270  0.9882  0.7828 -0.3759
19672TIP3   OH280430   3.231   0.916  15.128 -0.2197  0.3076  0.2991
19672TIP3    H180431   3.253   1.009  15.115 -1.6039  0.2781 -3.1636
19672TIP3    H280432   3.264   0.873  15.049 -1.1039 -1.8951  1.0765
19673TIP3   OH280433   5.092   0.481  16.707 -0.2564  0.0663 -0.4434
19673TIP3    H180434   5.049   0.501  16.624 -1.4191  0.0691  0.1249
19673TIP3    H280435   5.183   0.463  16.684 -0.1230  1.8333 -1.4872
19674TIP3   OH280436   2.744   6.591  12.211 -0.3256 -0.0499 -0.6861
19674TIP3    H180437   2.654   6.617  12.226 -0.4910 -0.2232 -1.3385
19674TIP3    H280438   2.767   6.538  12.288 -0.5565  0.5319 -0.2060
19675TIP3   OH280439   5.468   3.127  15.746 -0.1542 -0.4982 -0.3994
19675TIP3    H180440   5.465   3.218  15.717  0.6253 -0.4883 -0.4725
19675TIP3    H280441   5.521   3.083  15.681  2.7374 -0.2106  1.5615
19676TIP3   OH280442   1.261   2.602   3.998 -0.0371 -0.3736 -0.3221
19676TIP3    H180443   1.333   2.561   4.046 -1.2868 -1.8028  0.4007
19676TIP3    H280444   1.184   2.590   4.053 -0.8202  1.3816 -0.9386
19677TIP3   OH280445   6.057   0.072  15.110  0.1777 -0.6457 -0.4558
19677TIP3    H180446   6.109   0.016  15.168  1.3533  1.8123  1.0537
19677TIP3    H280447   6.120   0.107  15.047 -0.3239 -0.2427 -0.7411
19678TIP3   OH280448   6.685   4.208   5.695 -0.3734  0.1345  0.2249
19678TIP3    H180449   6.631   4.211   5.616 -0.5477  1.8143  0.3658
19678TIP3    H280450   6.648   4.137   5.747 -2.0437  0.8172  0.0224
19679TIP3   OH280451   1.390   5.710   5.327  0.0889  0.4224  0.1593
19679TIP3    H180452   1.379   5.635   5.385  3.9732  0.1092  0.7320
19679TIP3    H280453   1.330   5.776   5.362 -0.2639 -0.9619  2.3555
19680TIP3   OH280454   3.873   4.135   3.022  0.0586 -0.1102 -0.6439
19680TIP3    H180455   3.818   4.070   3.066 -0.1965 -1.2619 -2.5556
19680TIP3    H280456   3.955   4.089   3.005 -0.1702  0.0023 -2.1340
19681TIP3   OH280457   0.791   3.820  17.061  0.1640 -0.6937 -0.2702
19681TIP3    H180458   0.801   3.905  17.017  0.8444 -0.8547 -0.4378
19681TIP3    H280459   0.810   3.756  16.992 -1.7478 -1.0417 -0.5390
19682TIP3   OH280460   1.281   5.165  13.586 -0.0684 -0.0053 -0.0919
19682TIP3    H180461   1.214   5.226  13.618  0.1477  1.6092 -2.4634
19682TIP3    H280462   1.347   5.164  13.655 -1.6523 -0.2133  1.4820
19683TIP3   OH280463   3.336   1.076  15.631 -0.2635 -0.2175 -0.2192
19683TIP3    H180464   3.367   1.007  15.690  2.6549 -1.1357 -2.5323
19683TIP3    H280465   3.287   1.030  15.563  0.7709  0.0584 -1.1929
19684TIP3   OH280466   6.015   4.952   0.796 -0.0584  0.3508  0.0067
19684TIP3    H180467   5.998   4.891   0.868 -0.0364  0.2153 -0.1030
19684TIP3    H280468   5.936   4.950   0.743 -0.3968  1.0618  0.4659
19685TIP3   OH280469   4.369   4.178   3.479  0.2563  0.2262  0.2077
19685TIP3    H180470   4.447   4.214   3.522  0.8424  0.6841 -1.1788
19685TIP3    H280471   4.354   4.094   3.523  2.2101 -0.4031 -0.2102
19686TIP3   OH280472   0.882   6.006  16.728  0.2256 -0.3146 -0.4179
19686TIP3    H180473   0.829   5.932  16.760 -0.3666 -0.3837 -1.5159
19686TIP3    H280474   0.855   6.080  16.782 -0.7886 -0.4212 -0.7578
19687TIP3   OH280475   4.302   4.621  16.718 -0.2289  0.9407  0.2770
19687TIP3    H180476   4.258   4.638  16.634  1.2639  1.0684 -0.5064
19687TIP3    H280477   4.280   4.530  16.738  0.4433  0.4796 -0.9289
19688TIP3   OH280478   0.649   0.797   5.748 -0.0322  0.0471 -0.3443
19688TIP3    H180479   0.674   0.757   5.666  1.2040 -2.3237  1.0859
19688TIP3    H280480   0.720   0.774   5.809 -1.5678  0.4996  1.7349
19689TIP3   OH280481   0.455   1.857   3.494 -0.0194 -0.3200  0.1761
19689TIP3    H180482   0.458   1.786   3.559  0.7220 -0.2333  0.2490
19689TIP3    H280483   0.366   1.891   3.500  0.1581 -0.0085  1.4885
19690TIP3   OH280484   0.899   6.514  13.023 -0.0238 -0.5057 -0.0516
19690TIP3    H180485   0.978   6.563  13.047  1.1835 -1.8640 -1.0827
19690TIP3    H280486   0.849   6.508  13.105 -0.0483  2.0243  0.2076
19691TIP3   OH280487   4.814   2.161  11.568 -0.4389  0.5899  0.5574
19691TIP3    H180488   4.730   2.141  11.528  0.4768 -0.0567 -1.1551
19691TIP3    H280489   4.862   2.210  11.501  1.5630 -1.4798  0.3434
19692TIP3   OH280490   1.261   2.345   3.455 -0.1369 -0.0205  0.2687
19692TIP3    H180491   1.204   2.411   3.415  0.5423  0.1135 -0.5276
19692TIP3    H280492   1.316   2.394   3.516  2.5148  0.8214 -2.5279
19693TIP3   OH280493   1.356   3.740   0.457  0.4949 -0.8705  0.6015
19693TIP3    H180494   1.305   3.802   0.404  1.2617 -0.3661  0.4384
19693TIP3    H280495   1.304   3.659   0.456  1.6818 -1.8120 -3.2054
19694TIP3   OH280496   5.830   1.567   1.733  0.6441 -0.1005  0.3231
19694TIP3    H180497   5.757   1.626   1.754 -0.4346 -1.2756  0.0152
19694TIP3    H280498   5.836   1.569   1.637  0.5772 -0.5004  0.3080
19695TIP3   OH280499   4.272   5.132   3.006 -0.4048  0.4052 -0.3462
19695TIP3    H180500   4.205   5.195   3.033 -0.2414  0.6733 -0.5552
19695TIP3    H280501   4.341   5.186   2.968  0.2130  0.1836  0.4415
19696TIP3   OH280502   4.727   2.823  12.704 -0.0702  0.5114 -0.3887
19696TIP3    H180503   4.681   2.895  12.748  1.5255  0.4942  1.4256
19696TIP3    H280504   4.782   2.866  12.639  0.9974  1.0058  0.7955
19697TIP3   OH280505   4.267   3.214   0.838  0.0947  0.2284  0.1330
19697TIP3    H180506   4.257   3.162   0.917 -0.5230 -1.1573 -0.8086
19697TIP3    H280507   4.324   3.287   0.864 -0.8102  0.3125  2.0412
19698TIP3   OH280508   0.982   5.288  12.752  0.5859 -0.4712 -0.2666
19698TIP3    H180509   0.951   5.364  12.702 -0.6393 -1.2688 -0.7464
19698TIP3    H280510   1.036   5.326  12.822  1.1401  0.7541 -1.3125
19699TIP3   OH280511   3.361   4.049   4.406  0.4504 -0.2388  0.2041
19699TIP3    H180512   3.345   4.110   4.335 -1.2054 -0.0852  0.6697
19699TIP3    H280513   3.370   3.964   4.364 -0.2038 -0.1018 -0.2113
19700TIP3   OH280514   2.349   5.132  11.384  0.5506 -0.1260 -0.4179
19700TIP3    H180515   2.415   5.100  11.446 -0.1718 -1.2306 -0.1810
19700TIP3    H280516   2.399   5.184  11.321  1.8739 -2.0629 -1.0544
19701TIP3   OH280517   1.140   4.207   2.334 -0.4238  0.0397 -0.4290
19701TIP3    H180518   1.099   4.232   2.251 -1.3193  1.4030  0.3826
19701TIP3    H280519   1.107   4.119   2.351  0.2689 -0.5224 -1.8023
19702TIP3   OH280520   2.109   2.402  16.513 -0.2925  0.0703  0.0690
19702TIP3    H180521   2.058   2.329  16.477  0.8118 -0.4810 -0.4116
19702TIP3    H280522   2.077   2.479  16.465  0.6588 -0.5495 -1.6445
19703TIP3   OH280523   3.600   5.270  13.501  0.4500 -0.3055 -0.2345
19703TIP3    H180524   3.538   5.216  13.453 -0.5795  1.7572 -1.3390
19703TIP3    H280525   3.564   5.274  13.590 -0.5133  0.0981 -0.6273
19704TIP3   OH280526   0.166   3.602  17.283  0.3423 -0.3124  0.0862
19704TIP3    H180527   0.262   3.607  17.277  0.2174  1.1521 -1.2963
19704TIP3    H280528   0.144   3.663  17.353  0.3467  0.6361 -0.7119
19705TIP3   OH280529   5.304   1.003  15.882  0.5919  0.1485 -1.2483
19705TIP3    H180530   5.364   0.930  15.892 -0.6121 -0.5715  1.4211
19705TIP3    H280531   5.348   1.077  15.924  0.7465  0.3336 -1.7266
19706TIP3   OH280532   0.342   1.148  15.706 -0.0924  0.0222  0.3684
19706TIP3    H180533   0.408   1.156  15.637 -0.9816 -1.0320 -0.6530
19706TIP3    H280534   0.307   1.237  15.715 -2.9273 -0.4192 -3.6651
19707TIP3   OH280535   1.577   5.266   4.099 -0.1542  0.0568 -0.1874
19707TIP3    H180536   1.550   5.263   4.008 -0.5259 -0.3799 -0.0693
19707TIP3    H280537   1.495   5.268   4.148  0.0294 -0.5526  0.1586
19708TIP3   OH280538   1.797   6.468  15.567 -0.2468  0.4219  0.2120
19708TIP3    H180539   1.791   6.434  15.657 -0.3276 -1.1331 -0.3407
19708TIP3    H280540   1.745   6.406  15.515 -0.7983  1.7099 -0.8163
19709TIP3   OH280541   5.830   4.422  17.382  0.1070 -0.3613 -0.0890
19709TIP3    H180542   5.922   4.435  17.405  0.0049  0.6036 -0.1921
19709TIP3    H280543   5.781   4.467  17.451 -0.2299  1.1069 -1.2322
19710TIP3   OH280544   0.779   2.126   0.438  0.5489 -0.4736 -0.1250
19710TIP3    H180545   0.700   2.097   0.391  0.8226  1.7018 -2.1025
19710TIP3    H280546   0.777   2.076   0.520 -3.3097  0.0041  0.2852
19711TIP3   OH280547   6.003   3.790  11.349  0.1193  0.5873 -0.5942
19711TIP3    H180548   5.934   3.766  11.412 -0.4443 -2.1201 -2.1051
19711TIP3    H280549   5.957   3.799  11.266  1.3118  0.8050 -1.2475
19712TIP3   OH280550   3.918   1.516  15.610  0.1785 -0.0540 -0.1380
19712TIP3    H180551   3.895   1.457  15.681 -0.7947  0.8337  0.3092
19712TIP3    H280552   3.835   1.555  15.582  0.2975 -1.4284 -2.7447
19713TIP3   OH280553   5.208   5.623  14.942 -0.0736  0.5221 -0.8819
19713TIP3    H180554   5.196   5.701  14.996 -0.2606 -0.7355  0.9874
19713TIP3    H280555   5.121   5.603  14.909 -0.2462  0.4004 -0.3523
19714TIP3   OH280556   5.706   4.968  13.209 -0.0755 -0.0985  0.2671
19714TIP3    H180557   5.768   4.938  13.275 -0.9530 -2.1372  0.2344
19714TIP3    H280558   5.760   4.992  13.134  0.7607 -0.0960  0.8542
19715TIP3   OH280559   0.248   3.565  16.205  0.2581  1.0700 -0.0344
19715TIP3    H180560   0.261   3.494  16.142 -0.8998  1.0057 -0.2255
19715TIP3    H280561   0.260   3.523  16.290 -1.0156  0.4791 -0.1200
19716TIP3   OH280562   5.439   1.512   3.891 -0.4273  0.2217 -0.2293
19716TIP3    H180563   5.511   1.539   3.949 -0.1520  1.7869 -1.2421
19716TIP3    H280564   5.425   1.420   3.912  3.1819 -0.7214 -1.3312
19717TIP3   OH280565   5.937   1.064   3.263  0.6499  0.0137  0.0250
19717TIP3    H180566   5.938   1.039   3.170  1.0321 -1.7356  0.4551
19717TIP3    H280567   5.983   1.147   3.266  0.3586  0.2523 -1.3896
19718TIP3   OH280568   2.473   6.119  13.102 -0.6484  0.0712  0.4558
19718TIP3    H180569   2.397   6.145  13.153 -1.4701 -1.5357  0.1264
19718TIP3    H280570   2.545   6.120  13.164 -0.5088  3.2709  0.4162
19719TIP3   OH280571   6.137   4.197  13.078  0.1458 -0.4137 -0.0063
19719TIP3    H180572   6.203   4.185  13.146  0.1391 -0.3631  0.0082
19719TIP3    H280573   6.088   4.114  13.078 -0.1599 -0.2342  0.3754
19720TIP3   OH280574   4.278   5.165  14.275  0.1436  0.4101 -0.3931
19720TIP3    H180575   4.373   5.175  14.284  0.1130  0.8595 -0.5497
19720TIP3    H280576   4.248   5.148  14.364  0.3325  0.6070 -0.2905
19721TIP3   OH280577   3.884   2.188  12.886 -0.2788  0.0818  0.6809
19721TIP3    H180578   3.914   2.275  12.912 -1.2093  1.4925 -2.5001
19721TIP3    H280579   3.965   2.136  12.878  0.7223  1.7884 -1.0132
19722TIP3   OH280580   5.203   2.899  13.441  0.4132 -0.2937 -0.0184
19722TIP3    H180581   5.227   2.991  13.432 -1.0880  0.2413  0.9778
19722TIP3    H280582   5.187   2.887  13.535 -0.1143 -1.3667 -0.2235
19723TIP3   OH280583   4.844   1.331   2.544  0.4266  0.5309  0.1387
19723TIP3    H180584   4.869   1.410   2.592  2.6633 -0.0811  0.0991
19723TIP3    H280585   4.918   1.314   2.484 -0.1660 -1.3483 -0.1478
19724TIP3   OH280586   0.487   6.262  16.634 -0.2830 -0.1172 -0.1312
19724TIP3    H180587   0.443   6.298  16.557 -0.7299 -0.5311 -0.0763
19724TIP3    H280588   0.566   6.220  16.599 -0.9256 -1.0652 -0.4874
19725TIP3   OH280589   6.517   5.301   3.793  0.3076  0.4461 -0.2447
19725TIP3    H180590   6.512   5.205   3.786  0.7140  0.3862  0.2646
19725TIP3    H280591   6.435   5.326   3.834  0.9301  0.1473  1.2394
19726TIP3   OH280592   0.871   6.101   3.230 -0.3223  0.2578 -0.2256
19726TIP3    H180593   0.897   6.145   3.311 -1.7880 -0.4603  0.6720
19726TIP3    H280594   0.780   6.126   3.217 -0.0657  0.5239 -1.8027
19727TIP3   OH280595   4.140   4.715   4.457 -0.2204 -0.5502  0.4584
19727TIP3    H180596   4.192   4.780   4.503  0.2371  0.6733 -1.6711
19727TIP3    H280597   4.058   4.761   4.437  1.1678  0.5456 -3.5869
19728TIP3   OH280598   1.310   2.638  12.363  0.1527 -0.0143 -0.0023
19728TIP3    H180599   1.315   2.670  12.272  2.0148 -0.5820 -0.1391
19728TIP3    H280600   1.359   2.703  12.413 -0.5067  0.0686  0.5457
19729TIP3   OH280601   2.432   4.998   2.423  0.0088 -0.2844 -0.1638
19729TIP3    H180602   2.501   5.027   2.483  1.2615  0.4817 -1.8714
19729TIP3    H280603   2.359   4.974   2.480  1.3197 -0.1654  1.6745
19730TIP3   OH280604   5.305   2.165  15.962  0.1915  0.1353 -1.0164
19730TIP3    H180605   5.333   2.101  16.028 -1.5528 -0.5580 -0.8781
19730TIP3    H280606   5.231   2.210  16.003 -0.4071  0.2510 -2.1920
19731TIP3   OH280607   1.891   6.107  10.859 -0.5057 -0.2608 -0.0687
19731TIP3    H180608   1.944   6.185  10.847 -1.5888  0.2992 -1.5314
19731TIP3    H280609   1.854   6.089  10.772 -1.4681 -1.5213  0.5582
19732TIP3   OH280610   0.847   0.768  11.713 -0.5927  0.4743 -0.3571
19732TIP3    H180611   0.803   0.699  11.763 -1.6250  0.5250 -1.1562
19732TIP3    H280612   0.863   0.838  11.777 -3.6855  1.3891 -0.4085
19733TIP3   OH280613   2.454   4.039  12.976  0.2183  0.2745  0.1764
19733TIP3    H180614   2.536   4.009  13.016 -0.4154  0.0815  1.3531
19733TIP3    H280615   2.446   4.130  13.004  0.5221  0.6075 -0.7708
19734TIP3   OH280616   0.199   1.359  16.106 -0.2021  0.0536  0.2190
19734TIP3    H180617   0.173   1.389  16.193  1.1666  2.0945 -0.0018
19734TIP3    H280618   0.270   1.297  16.122 -0.9298 -0.7080  0.5773
19735TIP3   OH280619   5.879   2.255   4.196 -0.3155 -0.5924  0.1367
19735TIP3    H180620   5.912   2.166   4.210  1.0202 -0.2652 -0.7178
19735TIP3    H280621   5.793   2.243   4.155 -0.6686 -1.4750  1.0908
19736TIP3   OH280622   2.095   6.576   0.527  0.6395 -0.5736  0.6997
19736TIP3    H180623   2.097   6.497   0.474 -1.6074  0.1868 -0.6649
19736TIP3    H280624   2.184   6.609   0.525  0.8988 -1.2456 -1.6081
19737TIP3   OH280625   4.643   5.872  17.019  0.1084  0.7694  0.5091
19737TIP3    H180626   4.611   5.940  17.078 -0.1665  1.1654 -0.0879
19737TIP3    H280627   4.737   5.889  17.012 -0.3793  3.1103 -2.1221
19738TIP3   OH280628   4.924   3.173   3.880 -0.3826  0.2000 -0.1279
19738TIP3    H180629   4.908   3.078   3.882 -2.2188  0.4482 -1.1241
19738TIP3    H280630   4.900   3.203   3.968 -0.8290 -0.1095 -0.1402
19739TIP3   OH280631   6.457   0.001   6.444 -0.2371 -0.2259  0.1034
19739TIP3    H180632   6.445   0.078   6.500 -0.5951 -0.8210  0.8641
19739TIP3    H280633   6.370  -0.038   6.437  0.4359 -2.5472  2.6766
19740TIP3   OH280634   4.957   6.245  11.818 -0.2654  0.1314  0.4223
19740TIP3    H180635   4.973   6.198  11.736 -1.0187  1.5529 -0.5894
19740TIP3    H280636   4.885   6.305  11.798  0.5747  1.6461  1.6710
19741TIP3   OH280637   5.682   0.333   4.153 -0.1470  0.3604 -0.7479
19741TIP3    H180638   5.598   0.298   4.182 -0.0472  1.4635  0.9814
19741TIP3    H280639   5.666   0.426   4.137  1.0631  0.9509  1.1758
19742TIP3   OH280640   4.636   4.751  13.601  0.2633 -0.5072 -0.0303
19742TIP3    H180641   4.580   4.732  13.526  0.0300 -0.2022  0.0637
19742TIP3    H280642   4.679   4.833  13.578 -1.1279  0.5391  0.8900
19743TIP3   OH280643   3.721   5.738  12.216 -0.3836  0.2869  0.7643
19743TIP3    H180644   3.729   5.754  12.310  0.4804  1.4890  0.5059
19743TIP3    H280645   3.674   5.654  12.210  2.0628 -1.3251  2.3010
19744TIP3   OH280646   5.605   2.944  15.911 -0.3699  0.0628  0.0879
19744TIP3    H180647   5.575   3.016  15.857  0.0875  0.5589  0.4836
19744TIP3    H280648   5.529   2.921  15.966 -1.3285 -1.4315 -1.7465
19745TIP3   OH280649   2.552   3.402  12.163 -0.4829  0.2532  0.2043
19745TIP3    H180650   2.564   3.496  12.179  0.4862  0.3762 -1.0580
19745TIP3    H280651   2.633   3.375  12.119 -0.5482 -1.2851  0.9693
19746TIP3   OH280652   1.479   4.038   5.613  0.1631 -0.3542 -0.4298
19746TIP3    H180653   1.548   4.065   5.552  1.0034  0.0536  0.6803
19746TIP3    H280654   1.414   3.996   5.557  0.1566  1.3900 -1.8422
19747TIP3   OH280655   3.274   5.902  12.107  0.2797  0.3081 -0.2662
19747TIP3    H180656   3.303   5.993  12.110 -0.2591  0.4574  1.4143
19747TIP3    H280657   3.273   5.880  12.014  0.0629  2.1294 -0.7259
19748TIP3   OH280658   0.231   2.294  13.970 -0.2259 -0.2983  0.0863
19748TIP3    H180659   0.326   2.299  13.955 -0.3148 -1.1214 -0.8431
19748TIP3    H280660   0.202   2.221  13.916 -1.1564 -1.1114  1.6262
19749TIP3   OH280661   4.906   3.322   6.532 -0.4177  0.5432  0.1424
19749TIP3    H180662   4.893   3.239   6.578  0.7827 -0.7565 -1.7408
19749TIP3    H280663   4.917   3.387   6.602 -0.8884 -0.9410  1.6569
19750TIP3   OH280664   6.202   5.493  16.208  0.1507 -0.0966  0.1637
19750TIP3    H180665   6.125   5.472  16.261 -0.3724  0.3148 -0.4376
19750TIP3    H280666   6.207   5.588  16.209  2.4357 -0.0801  2.7635
19751TIP3   OH280667   2.490   3.925  12.234  0.1864 -0.0740 -0.0349
19751TIP3    H180668   2.555   3.989  12.204 -0.7037  1.7227  1.6658
19751TIP3    H280669   2.415   3.939  12.176  0.4143 -0.4206 -0.4180
19752TIP3   OH280670   6.278   1.906  12.410  0.1092  0.0508 -0.0747
19752TIP3    H180671   6.322   1.866  12.335 -3.1338  0.6517 -2.5193
19752TIP3    H280672   6.280   2.000  12.391  1.7613  0.5400  2.1748
19753TIP3   OH280673   2.545   2.249   5.797 -0.6093  0.0036  0.2624
19753TIP3    H180674   2.632   2.275   5.768 -0.3182 -1.3317 -0.1596
19753TIP3    H280675   2.554   2.235   5.892 -0.7143  1.1332  0.4505
19754TIP3   OH280676   1.194   6.241  11.427 -0.2106 -0.3287  0.6573
19754TIP3    H180677   1.195   6.290  11.510 -1.4875  0.7215  0.0902
19754TIP3    H280678   1.245   6.295  11.367 -2.9418  1.2193 -0.4106
19755TIP3   OH280679   3.278   0.659   2.635  0.6000  0.1326 -0.4805
19755TIP3    H180680   3.348   0.594   2.627  0.4625  0.1887 -2.7391
19755TIP3    H280681   3.323   0.741   2.653  1.0008 -0.1085 -0.3810
19756TIP3   OH280682   2.911   4.767   0.820  0.3219 -0.0189 -0.0273
19756TIP3    H180683   2.993   4.730   0.789  0.2841 -1.6926  1.6825
19756TIP3    H280684   2.937   4.827   0.890  0.1892  1.0149 -0.8420
19757TIP3   OH280685   0.565   4.651  15.740  0.5469  0.2647  0.2235
19757TIP3    H180686   0.485   4.686  15.779  0.2816  0.4144 -0.4429
19757TIP3    H280687   0.618   4.729  15.720  0.5984  0.2025  0.1164
19758TIP3   OH280688   3.155   5.701   2.118  0.1713  0.6335 -0.7619
19758TIP3    H180689   3.217   5.744   2.060 -0.1783  1.5578 -0.4660
19758TIP3    H280690   3.151   5.610   2.086  0.1375  1.0711 -2.0406
19759TIP3   OH280691   3.462   4.242   5.440 -0.4386 -0.1273 -0.0473
19759TIP3    H180692   3.540   4.258   5.388  0.7026 -2.1150  0.9144
19759TIP3    H280693   3.402   4.196   5.381 -1.0059  1.5722 -0.8418
19760TIP3   OH280694   5.798   5.658  12.160  0.2833 -0.0504  0.1571
19760TIP3    H180695   5.872   5.711  12.129 -0.9650  2.0261  0.5499
19760TIP3    H280696   5.759   5.624  12.080  2.0244 -1.7947 -0.0320
19761TIP3   OH280697   6.513   5.570  14.513  0.5085  0.2279  0.2766
19761TIP3    H180698   6.448   5.640  14.522  0.8015  0.7413 -1.3213
19761TIP3    H280699   6.492   5.508  14.582 -1.4906  0.5432 -0.0113
19762TIP3   OH280700   3.568   3.889   5.546  0.2981 -0.0799 -0.0605
19762TIP3    H180701   3.517   3.867   5.468  1.3080 -1.0742 -0.4557
19762TIP3    H280702   3.508   3.942   5.599 -1.1167 -1.1034 -0.5646
19763TIP3   OH280703   0.563   0.438   1.349  0.1514  0.5567  0.0432
19763TIP3    H180704   0.625   0.472   1.284 -1.1540  1.7391 -0.6350
19763TIP3    H280705   0.483   0.488   1.334 -0.7313 -0.3816  1.4223
19764TIP3   OH280706   5.580   3.375  15.389  0.5493  0.4202  0.5240
19764TIP3    H180707   5.613   3.285  15.387  1.5024  0.7548 -1.4434
19764TIP3    H280708   5.643   3.422  15.443  0.5683  0.0944  0.7939
19765TIP3   OH280709   4.014   1.519   2.311 -0.5260 -0.0906  0.0122
19765TIP3    H180710   3.947   1.534   2.244 -1.4118 -1.2021  0.6037
19765TIP3    H280711   4.034   1.426   2.304  1.1384  0.2624 -0.2847
19766TIP3   OH280712   2.798   3.023   2.324  0.0556 -0.0654 -0.5592
19766TIP3    H180713   2.859   2.968   2.372 -0.5500  1.1254  1.7235
19766TIP3    H280714   2.811   3.111   2.359 -3.8869  0.0612  1.2070
19767TIP3   OH280715   0.267   5.137   4.434  0.5070 -0.1311  0.1511
19767TIP3    H180716   0.227   5.050   4.425  0.9356 -0.1708 -2.0624
19767TIP3    H280717   0.238   5.169   4.519 -2.2736 -1.1598 -0.3108
19768TIP3   OH280718   2.180   3.907   5.185 -0.2433 -0.5579  0.7560
19768TIP3    H180719   2.109   3.874   5.240 -0.0513 -1.2935  0.5818
19768TIP3    H280720   2.214   3.828   5.142  0.4062 -0.1520  0.5261
19769TIP3   OH280721   1.928   3.701   2.061  0.2549 -0.2854  0.7843
19769TIP3    H180722   1.893   3.785   2.032 -0.7896 -0.9956 -0.0875
19769TIP3    H280723   1.854   3.640   2.054  1.2361 -1.4852  0.4473
19770TIP3   OH280724   0.032   2.827   1.676 -0.0385  0.1925  0.4313
19770TIP3    H180725  -0.009   2.893   1.732 -1.0987  0.6527 -0.8105
19770TIP3    H280726   0.119   2.814   1.713 -0.8498  0.0947  2.4500
19771TIP3   OH280727   6.642   5.696   1.651 -0.1840 -0.2131  0.4016
19771TIP3    H180728   6.693   5.681   1.730  1.7421  3.1044 -0.0425
19771TIP3    H280729   6.571   5.754   1.679 -1.7801 -2.0353  0.3299
19772TIP3   OH280730   3.832   4.709  14.163 -0.0343 -0.6549  0.2099
19772TIP3    H180731   3.906   4.769  14.156  0.2658 -0.8798  1.2187
19772TIP3    H280732   3.850   4.641  14.098  0.8639 -0.9126  0.7035
19773TIP3   OH280733   2.710   5.392  13.373  0.0490  0.8878  0.1534
19773TIP3    H180734   2.734   5.395  13.280 -1.2702  1.7320 -0.1854
19773TIP3    H280735   2.703   5.299  13.393 -1.6465  0.6976 -1.1570
19774TIP3   OH280736   0.090   0.494  13.321 -0.3848 -0.5061  0.6986
19774TIP3    H180737   0.115   0.569  13.375 -1.0209 -1.1991  1.9949
19774TIP3    H280738   0.161   0.487  13.257 -0.6255  1.5777  0.1060
19775TIP3   OH280739   0.393   4.459   5.101  0.4688 -0.5316 -0.1749
19775TIP3    H180740   0.363   4.446   5.011  0.2058  1.6474 -0.4468
19775TIP3    H280741   0.317   4.438   5.155 -0.7570  2.1311 -0.7202
19776TIP3   OH280742   3.723   4.620  15.501  0.4489 -0.3251  0.6309
19776TIP3    H180743   3.802   4.568  15.511  0.7365  0.2161  1.3081
19776TIP3    H280744   3.664   4.588  15.569  0.6428  0.2448  1.0777
19777TIP3   OH280745   5.763   5.817  12.376  0.4776 -0.5059 -0.1228
19777TIP3    H180746   5.782   5.760  12.300  0.2182 -0.3340 -0.3185
19777TIP3    H280747   5.675   5.850  12.359  0.8454  0.4109 -0.2929
19778TIP3   OH280748   2.289   3.479  12.099  0.0410 -0.5380 -0.1742
19778TIP3    H180749   2.268   3.573  12.105  0.5426 -0.4592  0.3832
19778TIP3    H280750   2.375   3.471  12.140 -0.7402 -1.5021  1.3741
19779TIP3   OH280751   4.248   1.836  13.935 -0.3996  0.0925 -0.0507
19779TIP3    H180752   4.215   1.860  13.849 -0.5303  2.0943  0.5235
19779TIP3    H280753   4.310   1.905  13.958 -1.0162  0.0887  1.8172
19780TIP3   OH280754   5.938   6.105   0.522 -0.2846  0.4604  0.0473
19780TIP3    H180755   5.906   6.019   0.551 -4.7132  1.8943  0.2895
19780TIP3    H280756   5.963   6.091   0.431 -0.1405 -1.2440  0.3026
19781TIP3   OH280757   6.058   4.029   5.687 -0.8339 -0.1804 -0.3034
19781TIP3    H180758   6.030   4.080   5.611  0.5700  0.4149 -0.4510
19781TIP3    H280759   6.093   4.094   5.748  1.2947 -0.9398 -0.6305
19782TIP3   OH280760   6.314   0.830   4.377 -0.0888  1.0174  0.0289
19782TIP3    H180761   6.269   0.882   4.443 -0.4573  0.9051 -0.1353
19782TIP3    H280762   6.277   0.859   4.294 -0.3522  0.4351 -0.0590
19783TIP3   OH280763   3.247   5.930   1.757  0.2589  0.4918  0.4102
19783TIP3    H180764   3.311   5.861   1.739  1.3535  1.6115 -0.1790
19783TIP3    H280765   3.272   5.963   1.844 -0.1867  0.2386  0.6387
19784TIP3   OH280766   4.102   4.636   3.277  0.1625  0.7150 -0.5805
19784TIP3    H180767   4.038   4.567   3.259 -0.7348  0.9214  1.5295
19784TIP3    H280768   4.179   4.588   3.307 -1.4522  0.5014  3.9234
19785TIP3   OH280769   3.922   4.942   1.365  0.0975  0.2169  0.0903
19785TIP3    H180770   3.935   4.921   1.458 -2.1598 -3.2357 -0.1871
19785TIP3    H280771   3.999   4.907   1.321  0.3690  0.2978  0.4982
19786TIP3   OH280772   0.359   1.501   5.242 -0.8187  0.1664 -0.0471
19786TIP3    H180773   0.376   1.542   5.327  0.6838  0.6973 -0.5742
19786TIP3    H280774   0.336   1.411   5.262 -0.6193  0.3270  0.9251
19787TIP3   OH280775   5.880   0.417  11.375  0.3004  0.3524  0.1901
19787TIP3    H180776   5.850   0.503  11.405  0.1527  1.5927 -3.1632
19787TIP3    H280777   5.933   0.436  11.298  0.0792 -2.5956 -0.7861
19788TIP3   OH280778   0.337   2.780   5.199 -0.3253  0.3337 -0.9357
19788TIP3    H180779   0.422   2.824   5.193 -0.1791 -0.1036 -2.3239
19788TIP3    H280780   0.301   2.784   5.111  0.4098 -3.6527 -1.5848
19789TIP3   OH280781   3.353   4.531   0.063  0.5068 -0.5783 -0.6768
19789TIP3    H180782   3.259   4.535   0.083  0.3874  1.7311 -1.4092
19789TIP3    H280783   3.357   4.535  -0.032  1.3769  1.4562 -0.5859
19790TIP3   OH280784   6.388   0.139   0.744  0.5647 -0.0878  0.0218
19790TIP3    H180785   6.440   0.064   0.774 -0.3539 -0.3820  0.9142
19790TIP3    H280786   6.393   0.202   0.817 -0.0819  0.0031 -0.0122
19791TIP3   OH280787   6.551   2.017   5.073 -0.5112  0.0117  0.1015
19791TIP3    H180788   6.574   2.055   4.988 -0.4348  0.4581  0.3209
19791TIP3    H280789   6.456   2.014   5.073 -0.5038 -2.1798 -0.9587
19792TIP3   OH280790   0.756   4.431   1.950 -0.3459 -0.2680 -0.4868
19792TIP3    H180791   0.836   4.403   1.905 -0.5823  1.3025 -2.0179
19792TIP3    H280792   0.685   4.386   1.904 -0.3753 -1.6608  0.8710
19793TIP3   OH280793   5.511   5.956  12.077 -0.3803  0.1859 -0.7528
19793TIP3    H180794   5.504   5.860  12.085 -1.0267  0.2912  0.1809
19793TIP3    H280795   5.431   5.982  12.032  0.0937  0.2416 -1.5852
19794TIP3   OH280796   0.948   4.067  16.230  0.6244  0.2095 -0.2794
19794TIP3    H180797   1.023   4.009  16.215  2.3765  2.3445 -0.1551
19794TIP3    H280798   0.981   4.136  16.287 -0.9720  2.1065 -1.5083
19795TIP3   OH280799   5.496   3.975  14.449  0.1915 -0.1357 -0.2555
19795TIP3    H180800   5.558   4.048  14.442  0.1798 -0.0821  0.1768
19795TIP3    H280801   5.476   3.951  14.358 -0.3379  0.8570 -0.4155
19796TIP3   OH280802   6.496   5.102   0.875  0.8585  0.0903 -0.2841
19796TIP3    H180803   6.530   5.168   0.935  1.3781 -0.6848  0.3018
19796TIP3    H280804   6.404   5.092   0.900  0.9887  0.0068  0.1725
19797TIP3   OH280805   0.679   3.604   4.235  0.0640  0.2808 -0.3564
19797TIP3    H180806   0.599   3.624   4.283  0.4899  0.7055  0.1936
19797TIP3    H280807   0.699   3.683   4.185  0.7789  0.6281  0.4405
19798TIP3   OH280808   4.526   1.186  13.997  0.8946  0.5278 -0.2461
19798TIP3    H180809   4.572   1.151  13.921  1.1112 -2.7741  1.2744
19798TIP3    H280810   4.577   1.156  14.072 -1.4568  0.2663  1.3379
19799TIP3   OH280811   5.812   2.486   4.332  0.2543  0.1266 -0.7174
19799TIP3    H180812   5.850   2.414   4.282  0.3768  0.1988 -0.7269
19799TIP3    H280813   5.724   2.496   4.296 -0.1377 -0.6824 -0.0446
19800TIP3   OH280814   2.048   1.266  11.594  0.3861 -0.1403 -0.2348
19800TIP3    H180815   2.086   1.353  11.583  0.5615 -0.1779  0.0717
19800TIP3    H280816   2.034   1.235  11.504  1.0893 -0.1268 -0.3587
19801TIP3   OH280817   4.829   4.235  13.793 -0.1865  0.2076  0.4305
19801TIP3    H180818   4.911   4.211  13.836 -0.9798 -0.4152  1.6503
19801TIP3    H280819   4.842   4.326  13.765  0.8867  0.1362  0.6372
19802TIP3   OH280820   0.473   0.124   3.451 -0.4079 -0.2072 -0.1273
19802TIP3    H180821   0.473   0.220   3.443 -0.5731 -0.0769  1.1773
19802TIP3    H280822   0.403   0.106   3.515  0.6908 -1.0680  0.8791
19803TIP3   OH280823   2.000   6.138  14.386 -0.4764 -0.8238  0.1384
19803TIP3    H180824   2.011   6.098  14.300 -0.8883 -1.2447  0.2799
19803TIP3    H280825   1.939   6.081  14.432 -0.6652 -0.3192  0.5265
19804TIP3   OH280826   0.574   2.805  17.352  0.2090  0.5163 -0.4117
19804TIP3    H180827   0.614   2.731  17.306  0.9319 -0.6302  1.9091
19804TIP3    H280828   0.558   2.772  17.440 -3.4491  1.7850 -0.4459
19805TIP3   OH280829   1.419   4.474   4.319 -0.0966 -0.3093  0.4659
19805TIP3    H180830   1.456   4.501   4.234 -0.0614 -1.9459 -0.0742
19805TIP3    H280831   1.494   4.444   4.369 -0.1705  0.3077  0.9581
19806TIP3   OH280832   0.093   0.369   1.103 -0.1680 -0.3930 -0.1544
19806TIP3    H180833   0.007   0.335   1.128 -1.1562  1.1847 -1.2772
19806TIP3    H280834   0.133   0.298   1.052 -1.2395 -0.7467 -0.5254
19807TIP3   OH280835   1.723   1.831   3.371 -0.0901  0.0676 -0.1621
19807TIP3    H180836   1.670   1.762   3.331 -1.5796  0.3803  1.1625
19807TIP3    H280837   1.684   1.912   3.340 -0.8344  0.3071  1.2796
19808TIP3   OH280838   6.195   2.600   4.670 -0.2819 -0.6072  0.3158
19808TIP3    H180839   6.282   2.560   4.660 -0.5098 -0.6313 -2.2303
19808TIP3    H280840   6.206   2.690   4.639 -0.4459  0.5471  3.2823
19809TIP3   OH280841   4.060   4.599  16.555  0.3530 -0.0727 -0.3377
19809TIP3    H180842   4.033   4.690  16.568  2.5959  0.6497 -0.3336
19809TIP3    H280843   3.996   4.547  16.604 -1.3621  1.4157 -0.8770
19810TIP3   OH280844   3.140   1.889   3.957  0.0154  0.1468  0.1725
19810TIP3    H180845   3.196   1.943   4.012  1.1497 -0.0557 -0.7524
19810TIP3    H280846   3.122   1.811   4.009  1.8650 -0.4864 -0.0664
19811TIP3   OH280847   1.468   0.217  12.223 -0.0612 -0.0729  0.0232
19811TIP3    H180848   1.564   0.219  12.221 -0.0593 -0.0335 -1.8051
19811TIP3    H280849   1.442   0.309  12.229  0.0434  0.0110 -0.6382
19812TIP3   OH280850   4.432   2.281  14.748 -0.0627  0.5079  0.2602
19812TIP3    H180851   4.443   2.198  14.701  0.1933  0.4130  0.4863
19812TIP3    H280852   4.518   2.300  14.784 -0.1759  0.7569  0.4038
19813TIP3   OH280853   1.313   5.334  14.827  0.4592  0.1506 -0.3842
19813TIP3    H180854   1.379   5.398  14.851 -0.3525  0.4416  1.2989
19813TIP3    H280855   1.346   5.251  14.862  0.0540  0.2606  0.2835
19814TIP3   OH280856   5.026   1.511  13.736 -0.1467  0.4042  0.0534
19814TIP3    H180857   5.019   1.416  13.738 -3.4731  0.5426  0.7533
19814TIP3    H280858   5.037   1.537  13.828 -2.7285  0.7513  0.3329
19815TIP3   OH280859   5.668   3.232  11.337 -0.0980 -0.1098 -0.3706
19815TIP3    H180860   5.719   3.225  11.418  0.6333 -0.0207 -0.8226
19815TIP3    H280861   5.717   3.292  11.282 -1.1349  0.6531 -0.4850
19816TIP3   OH280862   3.310   5.849  11.353 -0.0981 -0.0547 -0.3361
19816TIP3    H180863   3.303   5.842  11.257 -1.6743  0.4914 -0.2988
19816TIP3    H280864   3.227   5.889  11.379 -0.4673 -1.8612  1.4428
19817TIP3   OH280865   3.946   0.135   2.532 -0.0626 -0.1059  0.6437
19817TIP3    H180866   3.851   0.152   2.531  0.0442  0.5251 -0.8105
19817TIP3    H280867   3.954   0.047   2.494  0.0556  0.6542 -1.1429
19818TIP3   OH280868   2.437   1.639  16.985  1.1469  0.1041 -0.1294
19818TIP3    H180869   2.342   1.637  16.974  1.3100 -2.0146 -1.8535
19818TIP3    H280870   2.452   1.612  17.076  0.1047 -0.2064 -0.0443
19819TIP3   OH280871   4.466   5.733   6.644  0.1009 -0.0582 -0.4549
19819TIP3    H180872   4.378   5.763   6.622 -0.0524 -0.5115 -0.4906
19819TIP3    H280873   4.524   5.789   6.594 -0.1658  0.3273 -0.3342
19820TIP3   OH280874   0.634   1.733  11.776  0.0233  0.1845 -0.1862
19820TIP3    H180875   0.715   1.707  11.819 -1.1054 -1.5861  1.0356
19820TIP3    H280876   0.617   1.822  11.807  0.1445 -0.4181  1.7380
19821TIP3   OH280877   6.293   5.829  16.198 -0.3094 -0.5258  0.0972
19821TIP3    H180878   6.321   5.898  16.138 -1.9180  1.1555  1.1806
19821TIP3    H280879   6.370   5.772  16.206  1.6888  2.0249  0.4162
19822TIP3   OH280880   1.941   5.313  13.650 -0.3838  0.1792  0.0090
19822TIP3    H180881   1.907   5.402  13.655  0.4577  0.5463 -0.4926
19822TIP3    H280882   1.888   5.271  13.582  0.5922  0.9612 -1.2840
19823TIP3   OH280883   2.717   5.048  13.061 -0.0967  0.3054 -0.4091
19823TIP3    H180884   2.760   4.987  13.001  0.0545  0.9825 -1.0112
19823TIP3    H280885   2.738   5.134  13.026 -0.6588  0.6937  0.1841
19824TIP3   OH280886   5.843   1.340   2.121 -0.1766 -0.2694 -0.0739
19824TIP3    H180887   5.829   1.432   2.097 -0.8947 -0.8857 -2.1817
19824TIP3    H280888   5.763   1.316   2.168 -0.1777  0.0495  0.0945
19825TIP3   OH280889   5.091   0.846  11.895  0.2416  0.0498 -0.0720
19825TIP3    H180890   5.122   0.936  11.905 -0.5011  0.4412 -1.1174
19825TIP3    H280891   5.058   0.822  11.982 -2.4562  1.9314 -0.4425
19826TIP3   OH280892   6.745   3.692  15.200 -0.0370 -0.4715 -0.0516
19826TIP3    H180893   6.684   3.669  15.271 -1.0103 -0.7120 -0.9512
19826TIP3    H280894   6.725   3.630  15.130  3.0676 -2.3713  0.5463
19827TIP3   OH280895   2.558   6.367  17.004 -0.1631 -0.1776  0.3623
19827TIP3    H180896   2.559   6.442  17.063  1.2433 -0.4400  0.7194
19827TIP3    H280897   2.626   6.308  17.038  0.7270 -0.3144 -1.5158
19828TIP3   OH280898   3.527   2.007   4.605  0.1501  0.8788 -0.1067
19828TIP3    H180899   3.448   1.989   4.555  0.3108  1.9492 -0.7743
19828TIP3    H280900   3.518   1.954   4.684 -1.5206  1.4603  0.1242
19829TIP3   OH280901   3.963   5.731  11.116  0.5830 -0.2475  0.0297
19829TIP3    H180902   3.955   5.763  11.026  0.6206 -0.4182 -0.0354
19829TIP3    H280903   4.001   5.644  11.107  0.4388 -0.3284  0.2010
19830TIP3   OH280904   6.142   4.981   5.349 -0.2925 -0.1609 -0.2537
19830TIP3    H180905   6.068   5.030   5.387 -0.9448 -0.3937 -1.1746
19830TIP3    H280906   6.218   5.036   5.366 -0.6368 -0.0096  0.8973
19831TIP3   OH280907   2.072   6.554   1.689 -0.0767  0.5617  0.2222
19831TIP3    H180908   2.120   6.597   1.618 -1.3731  0.9904 -0.4238
19831TIP3    H280909   2.097   6.461   1.682  0.7533  0.7899  0.0012
19832TIP3   OH280910   3.590   4.833  14.251 -0.8012  0.3216 -0.4615
19832TIP3    H180911   3.684   4.816  14.257 -1.0548 -0.7793  1.1379
19832TIP3    H280912   3.582   4.928  14.259  0.1916  0.4667 -1.1119
19833TIP3   OH280913   4.255   2.246   1.209  0.4493  0.9030 -0.0373
19833TIP3    H180914   4.346   2.236   1.179  1.0611  2.5271  1.1405
19833TIP3    H280915   4.245   2.181   1.278 -0.0159 -0.7808 -1.6249
19834TIP3   OH280916   5.494   2.277   0.771  0.2879 -0.5696 -0.1063
19834TIP3    H180917   5.436   2.349   0.748  1.3107 -0.1588 -1.5482
19834TIP3    H280918   5.491   2.219   0.695  0.6215 -1.2769  0.4165
19835TIP3   OH280919   5.306   4.804  15.191  0.1194  0.4791 -0.4257
19835TIP3    H180920   5.348   4.882  15.227 -0.1372  0.6731 -0.5408
19835TIP3    H280921   5.222   4.836  15.158  0.5423  0.3931 -1.6171
19836TIP3   OH280922   5.349   4.713   2.316  0.7428  0.7146 -0.0230
19836TIP3    H180923   5.264   4.705   2.359  0.9611  0.6471  0.4079
19836TIP3    H280924   5.403   4.760   2.380  1.0927  0.5541 -0.2014
19837TIP3   OH280925   5.202   3.860   3.337  0.5460 -0.4858  0.0635
19837TIP3    H180926   5.255   3.879   3.414 -1.7246  1.4601  1.2826
19837TIP3    H280927   5.137   3.797   3.367 -1.2006  1.3007  0.2008
19838TIP3   OH280928   6.043   3.913   0.828  0.0474  0.0504 -0.6707
19838TIP3    H180929   5.976   3.980   0.842 -0.7929 -0.6601 -1.1650
19838TIP3    H280930   6.125   3.962   0.829 -0.3512  0.7859  1.1254
19839TIP3   OH280931   1.014   4.629  14.499  0.1289  0.3524 -0.1649
19839TIP3    H180932   1.024   4.672  14.584 -0.3233  0.5203 -0.1916
19839TIP3    H280933   1.079   4.670  14.443  1.3421 -0.6837  0.4483
19840TIP3   OH280934   0.657   0.755  10.494  0.3378 -0.1069  0.4756
19840TIP3    H180935   0.687   0.830  10.546 -0.5937  0.2260  0.5650
19840TIP3    H280936   0.570   0.781  10.464  0.0462 -1.1204  0.4128
19841TIP3   OH280937   1.487   2.389  12.890  0.4050  0.3508  0.3059
19841TIP3    H180938   1.431   2.344  12.827  0.7379 -0.7328  0.7668
19841TIP3    H280939   1.500   2.326  12.961  0.0393  1.5367  1.4785
19842TIP3   OH280940   2.267   0.928  12.750  0.0489  0.1864 -0.2789
19842TIP3    H180941   2.359   0.901  12.754  0.0385  0.2050  0.0877
19842TIP3    H280942   2.229   0.896  12.832 -0.5754 -0.9260 -0.9730
19843TIP3   OH280943   3.101   1.011  16.221 -0.1080 -0.0546  0.2445
19843TIP3    H180944   3.031   0.966  16.269  0.5179  0.4306  1.6763
19843TIP3    H280945   3.150   1.058  16.289  0.7259  0.8015 -0.9080
19844TIP3   OH280946   5.427   3.501  13.359 -0.0397  0.3225 -0.2706
19844TIP3    H180947   5.363   3.482  13.291 -1.5483 -1.8675  1.6015
19844TIP3    H280948   5.404   3.589  13.389 -0.3073  0.7048 -1.5247
19845TIP3   OH280949   2.990   2.843  13.995  0.4735  0.1748  0.2236
19845TIP3    H180950   3.014   2.927  14.033  0.3515  0.6224 -0.6608
19845TIP3    H280951   2.895   2.847  13.983  0.5528  0.1796 -0.4394
19846TIP3   OH280952   1.424   0.433  13.320 -0.2735  0.1716  0.2402
19846TIP3    H180953   1.486   0.368  13.353  1.5030  1.4522 -0.3749
19846TIP3    H280954   1.403   0.488  13.396 -1.8307 -1.0982  0.7749
19847TIP3   OH280955   6.711   3.480  14.141  0.6030 -0.1160 -0.0339
19847TIP3    H180956   6.740   3.409  14.083  1.0712 -0.4578  0.6135
19847TIP3    H280957   6.763   3.556  14.114  1.5785 -0.5327  0.6096
19848TIP3   OH280958   1.202   4.357  12.942  0.4132 -0.4192  0.2011
19848TIP3    H180959   1.258   4.325  12.872  0.1485 -0.3386 -0.0499
19848TIP3    H280960   1.255   4.423  12.987  1.3016 -1.7979  1.2793
19849TIP3   OH280961   3.172   4.472  15.000 -0.3138  0.3461  0.3421
19849TIP3    H180962   3.079   4.449  15.003 -0.2558  0.0420 -0.1007
19849TIP3    H280963   3.174   4.558  14.957 -0.3817  0.3268  0.3008
19850TIP3   OH280964   4.174   1.048   4.191 -0.0012  0.1201  0.3951
19850TIP3    H180965   4.192   0.983   4.122  0.6600 -1.2544  1.7798
19850TIP3    H280966   4.109   1.107   4.153 -1.3314 -1.8914 -0.6527
19851TIP3   OH280967   6.724   5.407  15.346  0.4635  0.0318 -0.2635
19851TIP3    H180968   6.720   5.335  15.284 -1.6763  0.6091 -0.8802
19851TIP3    H280969   6.816   5.433  15.347  1.2083 -2.3661 -0.3623
19852TIP3   OH280970   4.960   2.696  13.603 -0.2186 -0.0421 -0.5789
19852TIP3    H180971   5.049   2.663  13.620 -0.7175 -0.1043  2.5296
19852TIP3    H280972   4.925   2.637  13.536  1.9206 -0.2279 -1.6270
19853TIP3   OH280973   5.447   1.527   1.554  0.1521  0.0642  0.1549
19853TIP3    H180974   5.440   1.534   1.649  1.3350  0.3955  0.2356
19853TIP3    H280975   5.439   1.618   1.523 -0.8138 -0.1066 -0.1118
19854TIP3   OH280976   5.955   2.594   2.751  0.1382 -0.0446  0.6115
19854TIP3    H180977   5.902   2.626   2.679 -0.7394 -1.4902  0.5757
19854TIP3    H280978   5.929   2.647   2.826 -0.2712  0.2488  0.2604
19855TIP3   OH280979   2.195   6.318   0.276  0.2460 -0.2841 -0.3554
19855TIP3    H180980   2.192   6.407   0.240 -0.1881  0.5104  1.5322
19855TIP3    H280981   2.170   6.262   0.202  0.7386  1.1246 -1.6434
19856TIP3   OH280982   2.879   3.576   4.557 -0.7339 -0.6936 -0.2541
19856TIP3    H180983   2.964   3.591   4.597 -1.3840 -0.3675  1.0273
19856TIP3    H280984   2.839   3.506   4.610 -1.3824 -0.6459 -0.6651
19857TIP3   OH280985   3.738   3.479  17.241 -0.4855 -0.1944  0.2060
19857TIP3    H180986   3.786   3.496  17.322  0.2025 -0.2558 -0.1780
19857TIP3    H280987   3.803   3.439  17.183 -1.1784 -0.9107 -0.0938
19858TIP3   OH280988   1.500   3.589  13.321 -0.3813 -0.1566  0.0723
19858TIP3    H180989   1.437   3.662  13.323  0.1795  0.3498 -0.4319
19858TIP3    H280990   1.551   3.599  13.401 -0.0515  0.2288 -0.1884
19859TIP3   OH280991   4.019   2.091   3.639  0.0149 -0.1783  0.6331
19859TIP3    H180992   4.066   2.174   3.640 -0.2525 -0.0293  0.7839
19859TIP3    H280993   4.038   2.053   3.553  1.3290 -0.6425  1.1049
19860TIP3   OH280994   2.482   4.018  15.657  0.1979 -0.0459 -0.2231
19860TIP3    H180995   2.390   4.041  15.652  0.2541  0.1834 -0.2438
19860TIP3    H280996   2.484   3.923  15.663 -0.0067 -0.1610 -1.5561
19861TIP3   OH280997   1.455   3.289  13.410  0.7523 -0.2255  0.2179
19861TIP3    H180998   1.419   3.263  13.495 -1.8952  1.1879 -0.3697
19861TIP3    H280999   1.419   3.376  13.395  2.5778  0.2822 -1.6070
19862TIP3   OH281000   0.402   4.337   5.553  0.3184 -0.2417 -0.5012
19862TIP3    H181001   0.444   4.420   5.577 -0.3636  1.0433 -3.2531
19862TIP3    H281002   0.415   4.331   5.458 -0.6837 -2.7188 -0.5395
19863TIP3   OH281003   0.730   4.188   0.969 -0.2348  0.1575  0.2280
19863TIP3    H181004   0.707   4.166   0.879  1.2924 -0.6080  0.0004
19863TIP3    H281005   0.812   4.236   0.963  0.3588 -0.6748  1.2576
19864TIP3   OH281006   1.782   4.638   4.829  0.3461  0.2722 -0.0718
19864TIP3    H181007   1.753   4.720   4.869 -0.5487  0.6512 -1.4335
19864TIP3    H281008   1.875   4.652   4.812  0.5233  0.4636  0.9717
19865TIP3   OH281009   3.558   5.092   6.611  0.1125  0.1783  0.2968
19865TIP3    H181010   3.475   5.139   6.625  0.6190  1.3031 -0.3208
19865TIP3    H281011   3.619   5.132   6.673  0.5048  0.1923 -0.0954
19866TIP3   OH281012   1.374   4.676   4.151 -0.4337 -0.9766  0.1928
19866TIP3    H181013   1.314   4.689   4.078 -1.4098 -2.2049  0.7458
19866TIP3    H281014   1.329   4.712   4.227 -0.9262 -2.7324  0.7838
19867TIP3   OH281015   0.739   0.898  12.649 -0.4111 -0.8197 -0.3641
19867TIP3    H181016   0.779   0.870  12.732 -2.0421 -2.2646 -0.0173
19867TIP3    H281017   0.798   0.966  12.617  0.4347 -0.4090  1.8305
19868TIP3   OH281018   0.389   2.300  14.655  0.7348  0.3113 -0.1611
19868TIP3    H181019   0.431   2.249  14.724  0.3975 -0.5093 -0.5492
19868TIP3    H281020   0.423   2.389  14.667  0.9142  0.1214  0.8678
19869TIP3   OH281021   3.782   3.522   6.829  0.7109 -0.6821  0.2939
19869TIP3    H181022   3.823   3.439   6.805  1.4900  0.0294 -0.9533
19869TIP3    H281023   3.799   3.579   6.754  0.4639  0.6955  1.2599
19870TIP3   OH281024   5.826   3.549   2.528 -0.0355  0.3849 -0.2134
19870TIP3    H181025   5.805   3.627   2.478 -0.3481 -0.3678 -1.2956
19870TIP3    H281026   5.815   3.575   2.620  0.1016  1.6580 -0.5445
19871TIP3   OH281027   0.289   5.203   3.562  0.0760  0.2292 -0.3526
19871TIP3    H181028   0.203   5.171   3.589  0.0882  0.5544  0.0799
19871TIP3    H281029   0.351   5.146   3.608  0.0962 -0.3830 -1.1219
19872TIP3   OH281030   3.438   6.436   4.620  0.1918  0.3804  0.1308
19872TIP3    H181031   3.510   6.419   4.560  1.6086 -0.2076  1.9128
19872TIP3    H281032   3.418   6.529   4.608 -0.3282  0.0312 -1.9972
19873TIP3   OH281033   2.586   6.260  16.631 -0.4789  0.2131  0.4131
19873TIP3    H181034   2.636   6.325  16.680 -1.0234  1.1202 -0.2187
19873TIP3    H281035   2.648   6.227  16.565  0.1543 -0.7766  1.4695
19874TIP3   OH281036   5.896   1.922  15.569 -0.4118  0.1331 -0.1964
19874TIP3    H181037   5.886   1.839  15.614 -1.3887  1.7559  2.8778
19874TIP3    H281038   5.988   1.924  15.542 -0.7976 -2.6185 -2.0406
19875TIP3   OH281039   5.465   3.733   3.486  0.5111 -0.1075 -0.2862
19875TIP3    H181040   5.547   3.718   3.533 -0.8269 -0.3475  2.1235
19875TIP3    H281041   5.414   3.791   3.543 -1.7060 -1.4250 -0.8010
19876TIP3   OH281042   5.946   1.539   4.703  0.3248  0.3584  0.7326
19876TIP3    H181043   5.852   1.538   4.721  0.1697 -1.4698  0.0027
19876TIP3    H281044   5.969   1.632   4.701 -1.0335  0.8224  2.9795
19877TIP3   OH281045   3.937   3.303  16.435  0.4335  0.2158 -0.1505
19877TIP3    H181046   4.016   3.277  16.388  0.9155  1.3963 -0.0284
19877TIP3    H281047   3.948   3.267  16.522  1.5803  1.6049  0.3290
19878TIP3   OH281048   6.753   5.213  15.174  0.7405 -0.2339 -0.1907
19878TIP3    H181049   6.728   5.123  15.194 -0.3475  0.1211  0.1545
19878TIP3    H281050   6.844   5.207  15.146  0.7144 -1.4264 -0.0939
19879TIP3   OH281051   1.944   1.672   3.728  0.1541 -0.4982  0.4231
19879TIP3    H181052   1.984   1.585   3.738  0.7452 -0.3248 -0.3164
19879TIP3    H281053   2.018   1.731   3.715 -0.2388  0.1395  0.9912
19880TIP3   OH281054   4.035   3.450  13.685 -0.1740 -0.2681  0.1061
19880TIP3    H181055   4.108   3.499  13.722 -0.4835  0.2086  0.0947
19880TIP3    H281056   3.968   3.450  13.753  0.4052 -2.0600  0.7303
19881TIP3   OH281057   5.174   4.898  12.072 -0.1466 -0.1837  0.1137
19881TIP3    H181058   5.166   4.880  11.978 -0.5092 -1.9763  0.4501
19881TIP3    H281059   5.268   4.906  12.087 -0.1204  0.9224 -0.5125
19882TIP3   OH281060   4.347   2.768   0.257 -0.1999 -0.2887  0.8822
19882TIP3    H181061   4.342   2.841   0.195  0.9546 -1.3231 -0.5144
19882TIP3    H281062   4.325   2.806   0.342 -0.6605  1.4389  0.0300
19883TIP3   OH281063   6.082   0.795  11.719  0.3477  0.3829 -0.0078
19883TIP3    H181064   6.022   0.856  11.761  0.8496  1.0720 -0.2843
19883TIP3    H281065   6.029   0.716  11.705 -0.4112  0.8788  0.0038
19884TIP3   OH281066   4.595   5.720   1.799 -0.1812  0.1282  0.0101
19884TIP3    H181067   4.586   5.659   1.727  2.3487 -0.1455 -0.1832
19884TIP3    H281068   4.634   5.668   1.870  1.5643  1.3490  0.0056
19885TIP3   OH281069   1.905   3.505   6.186  0.2414 -0.3910  0.6693
19885TIP3    H181070   1.948   3.505   6.272  1.3142 -0.1644  0.1478
19885TIP3    H281071   1.930   3.589   6.147  1.2754 -1.2439 -0.5911
19886TIP3   OH281072   2.422   0.479  14.550 -0.1114 -0.0754 -0.3586
19886TIP3    H181073   2.402   0.565  14.587 -0.2908 -0.3776  0.2608
19886TIP3    H281074   2.396   0.486  14.458 -0.4881  0.4087 -0.2195
19887TIP3   OH281075   3.407   1.143   3.601  0.5727 -0.3433  0.2755
19887TIP3    H181076   3.468   1.074   3.625  0.3527 -0.7420 -0.3008
19887TIP3    H281077   3.422   1.212   3.666  0.2890 -1.2180  1.2888
19888TIP3   OH281078   0.663   1.789   0.786 -0.3074 -0.0426  0.0963
19888TIP3    H181079   0.671   1.882   0.807  1.0933 -0.3436  1.0617
19888TIP3    H281080   0.749   1.765   0.752 -0.6906 -0.9602 -0.2463
19889TIP3   OH281081   2.649   3.915  15.242  0.4097  0.4658  0.3609
19889TIP3    H181082   2.561   3.895  15.275  0.2515 -0.8379 -0.7969
19889TIP3    H281083   2.694   3.952  15.318 -0.6700 -0.2553  1.3956
19890TIP3   OH281084   4.439   6.700  17.178  0.0126 -0.0838 -0.0928
19890TIP3    H181085   4.487   6.618  17.192 -0.0349  0.0309  0.8120
19890TIP3    H281086   4.482   6.763  17.236 -0.0865  0.4846 -0.6232
19891TIP3   OH281087   1.904   2.373  13.557 -0.2832  0.0476 -0.3037
19891TIP3    H181088   1.976   2.396  13.617 -1.1058  1.3899  0.2294
19891TIP3    H281089   1.947   2.353  13.474  0.6982  1.4400 -0.1693
19892TIP3   OH281090   5.183   6.089  15.282  0.5012  0.3124 -0.5501
19892TIP3    H181091   5.121   6.117  15.349  0.6892 -0.4034 -0.0600
19892TIP3    H281092   5.265   6.073  15.330  0.7047  0.0267 -0.9843
19893TIP3   OH281093   1.126   4.813  12.196 -0.4280  0.0789 -0.4559
19893TIP3    H181094   1.050   4.865  12.224 -1.3476 -0.2145 -2.2298
19893TIP3    H281095   1.116   4.729  12.240  0.3740  0.9250  1.4337
19894TIP3   OH281096   2.027   5.848  15.802 -0.3782 -0.3969  0.1688
19894TIP3    H181097   2.011   5.931  15.759  1.3282 -0.7927 -1.3653
19894TIP3    H281098   2.019   5.783  15.732  0.8232 -1.2430  0.7899
19895TIP3   OH281099   0.082   3.112   3.778  0.1140 -0.4765 -0.1109
19895TIP3    H181100  -0.008   3.088   3.801 -0.4712 -0.3586 -2.1137
19895TIP3    H281101   0.137   3.060   3.836 -1.2372 -0.1713  1.5116
19896TIP3   OH281102   0.182   0.690   4.109  0.3279 -0.3235  0.0420
19896TIP3    H181103   0.092   0.669   4.133  0.3225  0.4838  0.7681
19896TIP3    H281104   0.235   0.626   4.156  0.1426 -0.7164 -0.2816
19897TIP3   OH281105   3.413   3.579   2.254 -0.0678 -0.1791  0.2613
19897TIP3    H181106   3.390   3.501   2.304  3.0074  0.4070  2.8887
19897TIP3    H281107   3.467   3.547   2.182 -2.5415 -0.7716 -1.4860
19898TIP3   OH281108   4.861   6.176   0.663  0.3996 -0.3008 -0.3454
19898TIP3    H181109   4.839   6.260   0.621 -0.9354 -0.1357  0.6229
19898TIP3    H281110   4.820   6.110   0.608  2.4149 -0.4507 -1.7578
19899TIP3   OH281111   4.513   0.396   4.669 -0.0932 -1.3065  0.0102
19899TIP3    H181112   4.427   0.374   4.706 -0.5679 -0.2744 -0.4166
19899TIP3    H281113   4.525   0.488   4.693  0.6915 -1.3195 -0.3363
19900TIP3   OH281114   6.200   1.676  14.093  0.1155  0.1249  0.0157
19900TIP3    H181115   6.248   1.751  14.057 -1.0366  1.2813  0.8017
19900TIP3    H281116   6.213   1.683  14.188  0.4659 -1.0205  0.0649
19901TIP3   OH281117   1.960   2.451   5.367  0.2936 -0.6596  0.1614
19901TIP3    H181118   2.054   2.433   5.378  0.3154 -0.9081 -0.3700
19901TIP3    H281119   1.929   2.380   5.310  0.1303  0.3147 -1.0088
19902TIP3   OH281120   3.649   6.138   6.049  0.3379  0.3398 -0.2704
19902TIP3    H181121   3.633   6.184   6.131 -0.2631 -0.3757  0.0296
19902TIP3    H281122   3.565   6.098   6.027  1.1225 -1.7582  0.2173
19903TIP3   OH281123   1.094   4.771   0.329  0.4030  0.9082 -0.2005
19903TIP3    H181124   1.121   4.859   0.302 -0.5604  1.0158 -0.8543
19903TIP3    H281125   1.024   4.747   0.268  0.4002 -0.1690  0.1984
19904TIP3   OH281126   3.448   5.967  14.318 -0.6246  0.2970  0.4800
19904TIP3    H181127   3.383   6.034  14.296 -0.3094  0.4921  0.1243
19904TIP3    H281128   3.464   5.921  14.236 -1.8475 -1.1447  0.9940
19905TIP3   OH281129   6.453   6.606  14.905 -0.1083  0.1372 -0.1328
19905TIP3    H181130   6.510   6.567  14.839 -1.1532 -1.2521 -0.2808
19905TIP3    H281131   6.508   6.617  14.982  0.3297 -1.3710 -0.2031
19906TIP3   OH281132   6.569   3.025   4.548 -0.0441 -0.1830  0.0167
19906TIP3    H181133   6.651   3.052   4.588 -1.4777  1.6145  2.0054
19906TIP3    H281134   6.557   3.085   4.475  0.4247 -0.5002 -0.3266
19907TIP3   OH281135   6.731   4.660  13.867 -0.1989 -0.4567  0.0005
19907TIP3    H181136   6.702   4.644  13.957  0.6065 -0.1372  0.3223
19907TIP3    H281137   6.761   4.751  13.868 -4.1409  1.0983 -1.6422
19908TIP3   OH281138   0.428   3.943  12.036  0.8031 -0.0323 -0.0855
19908TIP3    H181139   0.436   4.027  11.991 -0.2298  0.2660  0.2675
19908TIP3    H281140   0.398   3.883  11.969 -0.6826  0.4008  0.1666
19909TIP3   OH281141   3.085   2.234  15.727 -0.2607  0.5611 -0.2670
19909TIP3    H181142   3.174   2.261  15.747 -0.1811 -0.4623  0.8447
19909TIP3    H281143   3.081   2.142  15.754 -1.7581  0.6945  0.0513
19910TIP3   OH281144   3.868   6.370  14.986  0.8591  0.1148  0.3335
19910TIP3    H181145   3.897   6.371  15.077 -0.5931  0.6853  0.8246
19910TIP3    H281146   3.840   6.460  14.970 -1.8170 -0.6449  0.3380
19911TIP3   OH281147   6.241   4.174  14.725  0.2002 -0.3241 -0.4294
19911TIP3    H181148   6.227   4.255  14.773 -1.3404 -0.2486 -0.9440
19911TIP3    H281149   6.277   4.202  14.641 -0.0502 -0.1951 -0.4946
19912TIP3   OH281150   5.896   0.611  12.431  0.3359  0.1346 -0.2108
19912TIP3    H181151   5.880   0.680  12.495 -0.7255 -0.7291  0.4904
19912TIP3    H281152   5.978   0.636  12.389  0.1938  1.5860  0.3257
19913TIP3   OH281153   2.156   4.397   0.804  0.1118  0.8614  0.1351
19913TIP3    H181154   2.085   4.335   0.818  0.3277  1.1278  3.1175
19913TIP3    H281155   2.225   4.368   0.864  1.1117  2.6440 -0.0871
19914TIP3   OH281156   2.476   3.009  15.158 -0.1920  0.0466  0.0405
19914TIP3    H181157   2.563   2.969  15.160  0.8942  2.2777  1.0285
19914TIP3    H281158   2.486   3.086  15.102 -2.1807 -0.9173 -1.7579
19915TIP3   OH281159   3.646   2.520  11.719  0.6878  0.4696  0.1189
19915TIP3    H181160   3.714   2.474  11.768  0.2777  0.2475  0.4783
19915TIP3    H281161   3.575   2.457  11.711 -0.0144  1.1392  0.9073
19916TIP3   OH281162   0.486   5.071  16.736 -0.5733 -0.7296  0.1682
19916TIP3    H181163   0.411   5.092  16.681 -2.0078 -0.5526  2.0710
19916TIP3    H281164   0.482   4.975  16.746  1.7204 -1.2444 -2.6991
19917TIP3   OH281165   3.068   5.410  12.938  0.4645  0.1216  0.8293
19917TIP3    H181166   3.141   5.468  12.958  1.7604 -1.0596 -0.2346
19917TIP3    H281167   3.077   5.338  13.001  2.2949 -1.6956 -1.3133
19918TIP3   OH281168   5.346   3.329  16.588 -0.3559  0.7489  0.2054
19918TIP3    H181169   5.327   3.252  16.641 -0.6593  1.1325  0.6540
19918TIP3    H281170   5.436   3.316  16.559 -0.7864 -0.3610 -0.7180
19919TIP3   OH281171   1.648   3.443  16.171 -0.2941  0.4356 -0.2617
19919TIP3    H181172   1.570   3.449  16.117  0.4479 -0.8434 -1.5534
19919TIP3    H281173   1.691   3.361  16.143  1.0574  0.6638  0.9959
19920TIP3   OH281174   5.673   4.758   3.173 -0.5355 -0.3811  0.0078
19920TIP3    H181175   5.686   4.839   3.223 -0.1314 -0.1296 -0.4912
19920TIP3    H281176   5.594   4.774   3.121 -0.0224  0.0042 -0.6756
19921TIP3   OH281177   3.546   2.269   0.339  0.1312  0.3272 -0.2110
19921TIP3    H181178   3.623   2.216   0.320  0.0654 -0.4684  1.5833
19921TIP3    H281179   3.524   2.249   0.430 -1.8564  0.9688 -0.4903
19922TIP3   OH281180   1.329   1.786  12.643 -0.4795  0.6434 -0.2439
19922TIP3    H181181   1.310   1.722  12.711 -1.1781  0.2078 -0.8335
19922TIP3    H281182   1.243   1.823  12.621  0.0233  2.7329  0.9827
19923TIP3   OH281183   6.053   0.349  15.244 -0.0098  0.1577  0.3693
19923TIP3    H181184   6.030   0.426  15.191  0.4506 -0.6050 -0.9804
19923TIP3    H281185   6.067   0.280  15.180  0.8397 -0.7353  1.4929
19924TIP3   OH281186   5.775   3.797  14.581 -0.3706 -0.0690  0.3171
19924TIP3    H181187   5.784   3.730  14.514 -2.1760  0.3590 -0.4043
19924TIP3    H281188   5.794   3.879  14.536  0.1720  0.0633  0.7788
19925TIP3   OH281189   2.579   1.874   3.740  0.0751  0.0390 -0.0148
19925TIP3    H181190   2.563   1.806   3.806 -0.3231 -0.2137 -0.3741
19925TIP3    H281191   2.504   1.933   3.747  0.8531  0.9642  0.9270
19926TIP3   OH281192   6.242   0.907   5.500 -0.1075 -0.2128 -0.1659
19926TIP3    H181193   6.315   0.911   5.562  0.6590 -0.2680 -1.0607
19926TIP3    H281194   6.219   0.814   5.496 -0.3754 -0.1717  0.2669
19927TIP3   OH281195   0.279   4.782   0.635 -0.1210  0.5835 -1.1281
19927TIP3    H181196   0.289   4.840   0.711  1.4635  0.4673 -1.1988
19927TIP3    H281197   0.368   4.751   0.618 -0.9190 -2.0182 -0.9944
19928TIP3   OH281198   5.121   3.364  15.701 -0.1040 -0.2478 -0.0931
19928TIP3    H181199   5.134   3.302  15.629  1.0555 -0.5087  0.3172
19928TIP3    H281200   5.138   3.450  15.662  2.0258 -0.4932  0.1595
19929TIP3   OH281201   0.499   2.542  14.620  0.4519  0.2895 -0.6585
19929TIP3    H181202   0.593   2.527  14.608  0.0973 -0.2308 -3.4449
19929TIP3    H281203   0.492   2.635  14.643  1.7020 -0.0772  1.4378
19930TIP3   OH281204   3.192   5.186   0.883  0.1714 -0.0193 -0.3311
19930TIP3    H181205   3.157   5.156   0.799 -0.8282 -0.2354  0.1428
19930TIP3    H281206   3.120   5.174   0.945  0.7770  0.4568  0.4963
19931TIP3   OH281207   1.607   3.755   0.033  0.3276 -0.6897  0.1342
19931TIP3    H181208   1.598   3.773   0.126 -0.3281 -0.9437  0.1241
19931TIP3    H281209   1.523   3.781  -0.005  1.8438  3.3482 -1.0435
19932TIP3   OH281210   6.540   3.938   1.200 -0.1993 -0.3444  0.0481
19932TIP3    H181211   6.523   3.904   1.113 -0.5972  0.2849 -0.1243
19932TIP3    H281212   6.623   3.897   1.226  0.8250  0.7891 -1.3232
19933TIP3   OH281213   5.412   3.181   0.639  0.0765  0.0349 -0.2018
19933TIP3    H181214   5.357   3.113   0.677 -0.2770  0.7318  0.5550
19933TIP3    H281215   5.471   3.133   0.580 -0.5357 -0.8540 -0.1161
19934TIP3   OH281216   6.422   6.674  14.421 -0.1981  0.7341  0.0055
19934TIP3    H181217   6.480   6.628  14.361 -0.2739  1.0563 -0.3278
19934TIP3    H281218   6.390   6.607  14.481  1.6717  0.8175  1.1507
19935TIP3   OH281219   6.511   5.061   6.163  0.1598  0.0571 -0.1032
19935TIP3    H181220   6.456   5.068   6.240  1.1283 -1.9520  0.8767
19935TIP3    H281221   6.599   5.047   6.198  0.4579 -2.1277 -1.4741
19936TIP3   OH281222   1.843   5.538   3.400  0.0979  0.2500 -0.3808
19936TIP3    H181223   1.765   5.483   3.386  1.2245 -1.4356 -0.3357
19936TIP3    H281224   1.855   5.583   3.317 -0.3495 -0.2647 -0.7344
19937TIP3   OH281225   4.820   0.166   2.533 -0.1769  0.4297 -0.2871
19937TIP3    H181226   4.825   0.257   2.559  0.3505  0.2709  0.1982
19937TIP3    H281227   4.840   0.166   2.439 -2.5577  1.0569 -0.8468
19938TIP3   OH281228   4.948   5.534  14.818 -0.5942  0.4655  0.3919
19938TIP3    H181229   4.882   5.542  14.887 -1.1155  0.0924 -0.0621
19938TIP3    H281230   4.900   5.505  14.741  0.4246 -2.4068  0.6825
19939TIP3   OH281231   0.125   5.094  13.352  0.4667  0.6023  0.5909
19939TIP3    H181232   0.204   5.147  13.339 -0.3479  1.7450  0.1110
19939TIP3    H281233   0.070   5.147  13.409  0.0310 -0.1904  0.9231
19940TIP3   OH281234   3.665   2.787  13.824  0.3267  0.9561  0.0678
19940TIP3    H181235   3.680   2.729  13.750 -3.1737 -0.6433  0.4167
19940TIP3    H281236   3.688   2.874  13.791  1.9291 -0.0806 -1.7773
19941TIP3   OH281237   5.851   3.226   6.121  0.1108 -0.3780  0.3170
19941TIP3    H181238   5.797   3.202   6.197  0.2036 -2.5831 -0.2325
19941TIP3    H281239   5.914   3.290   6.155 -1.3235  0.4543  1.5213
19942TIP3   OH281240   6.387   3.342  11.852  0.1286 -0.2776 -0.8280
19942TIP3    H181241   6.342   3.386  11.779  1.8026  0.5880 -1.3792
19942TIP3    H281242   6.387   3.407  11.922  0.1278 -0.4454 -0.6730
19943TIP3   OH281243   0.459   5.978   6.131 -0.2912  0.2804 -0.0055
19943TIP3    H181244   0.533   5.918   6.146  0.3280  1.6647  3.2604
19943TIP3    H281245   0.382   5.922   6.137  0.3403 -1.0448 -2.6187
19944TIP3   OH281246   5.555   5.683   4.934 -0.4303  0.5986 -0.0647
19944TIP3    H181247   5.559   5.763   4.987  0.6103  1.3454 -1.1996
19944TIP3    H281248   5.641   5.643   4.944 -0.0450  0.9987 -1.5155
19945TIP3   OH281249   0.516   3.062   0.261  0.5325  0.8841  0.6489
19945TIP3    H181250   0.531   3.144   0.308  0.7971 -0.2816  2.7144
19945TIP3    H281251   0.448   3.083   0.197  0.9374  2.8075  0.8026
19946TIP3   OH281252   4.583   1.102  12.974  0.2812 -0.2682 -0.5023
19946TIP3    H181253   4.518   1.139  12.915  0.7978 -1.4429 -1.8385
19946TIP3    H281254   4.531   1.059  13.043 -0.3884 -1.3573 -1.6510
19947TIP3   OH281255   3.992   1.400  15.916 -0.1235 -0.2062  0.6320
19947TIP3    H181256   3.913   1.384  15.969 -0.1325 -0.8095  0.4344
19947TIP3    H281257   4.006   1.494  15.925 -0.8793 -0.0834  0.6544
19948TIP3   OH281258   3.842   4.973   6.171  0.2269 -0.1770 -0.4347
19948TIP3    H181259   3.917   4.947   6.225  2.5170  1.3582 -2.6183
19948TIP3    H281260   3.800   5.044   6.220  2.0688  0.9816 -0.4190
19949TIP3   OH281261   5.333   4.372   1.404  0.4480 -0.3339  0.3427
19949TIP3    H181262   5.389   4.343   1.332  0.0771  0.1629 -0.1607
19949TIP3    H281263   5.312   4.292   1.452  1.3169 -0.5653  0.3450
19950TIP3   OH281264   3.226   6.149   6.733 -0.2700  0.1424 -0.1316
19950TIP3    H181265   3.161   6.220   6.740 -0.5933 -0.1896  0.2432
19950TIP3    H281266   3.206   6.091   6.806  1.2466  0.6793  0.7614
19951TIP3   OH281267   2.024   4.691   3.377  0.1819  0.0661 -0.1357
19951TIP3    H181268   1.948   4.645   3.341  0.4199 -0.1261 -0.3927
19951TIP3    H281269   2.079   4.711   3.301 -0.5617  2.0086 -0.2103
19952TIP3   OH281270   6.023   6.529  14.754  0.2637  0.2159  0.2060
19952TIP3    H181271   5.954   6.548  14.817  0.3709 -0.3087  0.4791
19952TIP3    H281272   6.100   6.509  14.807  1.2570  2.8843 -0.0476
19953TIP3   OH281273   0.923   3.622   4.394 -0.0704  0.2330  0.1087
19953TIP3    H181274   0.982   3.550   4.373  0.0177 -0.0350  1.1806
19953TIP3    H281275   0.845   3.605   4.342  1.3095  1.4341 -2.5383
19954TIP3   OH281276   0.775   5.824  11.506 -0.1307 -0.2328  0.2171
19954TIP3    H181277   0.726   5.890  11.459  0.6056 -0.2934 -0.6612
19954TIP3    H281278   0.813   5.769  11.438 -0.1868 -1.1596  0.9188
19955TIP3   OH281279   3.622   0.603  14.380 -0.3030 -0.4703 -0.2037
19955TIP3    H181280   3.600   0.575  14.292  1.1967 -1.7396 -0.2280
19955TIP3    H281281   3.717   0.597  14.384 -0.0721  2.3118  0.6372
19956TIP3   OH281282   3.797   2.068  13.647  0.4951  0.2293  1.2053
19956TIP3    H181283   3.818   2.079  13.555  0.0065 -0.5109  0.9975
19956TIP3    H281284   3.760   2.152  13.674 -0.1274  0.1776  0.5193
19957TIP3   OH281285   0.893   1.067   3.695  0.4306 -0.1702 -0.3193
19957TIP3    H181286   0.947   1.147   3.698 -0.8062  0.6830  1.0803
19957TIP3    H281287   0.917   1.024   3.613  1.3540  1.4932 -0.9701
19958TIP3   OH281288   1.824   4.306   1.610  0.1010  0.1373 -0.0474
19958TIP3    H181289   1.906   4.344   1.641 -0.0530  0.2315  0.2484
19958TIP3    H281290   1.849   4.222   1.572  0.1789 -0.4201  1.1990
19959TIP3   OH281291   1.157   0.620  10.370  0.1991  0.3019 -0.3109
19959TIP3    H181292   1.168   0.645  10.461 -2.0358  0.1224  0.0828
19959TIP3    H281293   1.175   0.526  10.368  0.9961  0.4475 -0.2267
19960TIP3   OH281294   0.269   0.846   2.400  0.0843 -0.5300 -0.0800
19960TIP3    H181295   0.258   0.835   2.494 -1.7045 -1.2375 -0.3307
19960TIP3    H281296   0.194   0.900   2.374  1.5918  1.3146 -0.8468
19961TIP3   OH281297   2.955   0.477   5.746 -0.1374  0.7258  0.1616
19961TIP3    H181298   2.984   0.388   5.765  0.4986  0.7075 -0.8092
19961TIP3    H281299   2.998   0.532   5.812 -2.1486  0.1438  2.0961
19962TIP3   OH281300   4.511   0.222   0.201 -1.0379 -0.3773  0.4410
19962TIP3    H181301   4.546   0.133   0.200  1.3236  0.4873  0.1125
19962TIP3    H281302   4.512   0.247   0.293 -1.2512 -0.5190  0.4823
19963TIP3   OH281303   4.998   4.079  12.575  0.1168  0.1560 -0.3059
19963TIP3    H181304   4.954   4.101  12.493 -0.4614  1.2966  0.2948
19963TIP3    H281305   4.935   4.104  12.643  0.4429 -1.1043  0.4849
19964TIP3   OH281306   2.102   2.453   6.253 -0.1566  0.3928  0.3388
19964TIP3    H181307   2.062   2.472   6.338 -0.1149 -1.4463  0.8000
19964TIP3    H281308   2.041   2.395   6.209  1.1210 -1.0001  0.3138
19965TIP3   OH281309   3.248   6.484  11.750  0.0008  0.2421  0.2577
19965TIP3    H181310   3.248   6.478  11.845 -1.8639 -0.5405  0.2506
19965TIP3    H281311   3.183   6.552  11.730 -0.3291 -0.2749 -0.4769
19966TIP3   OH281312   1.888   5.812   3.537 -0.1561 -0.5758  0.1444
19966TIP3    H181313   1.815   5.830   3.597 -0.1079 -1.6181  0.5276
19966TIP3    H281314   1.899   5.717   3.540  2.9064 -0.2832  2.0906
19967TIP3   OH281315   0.362   4.700   2.388 -0.0781  0.3653  0.0552
19967TIP3    H181316   0.314   4.741   2.460 -0.9785  0.1041 -0.3791
19967TIP3    H281317   0.452   4.690   2.421 -0.3222  0.8454  0.8912
19968TIP3   OH281318   0.039   3.702   3.458 -0.1449  0.0562  0.4506
19968TIP3    H181319   0.022   3.614   3.490  0.4183  0.3593  1.6539
19968TIP3    H281320   0.011   3.759   3.531 -1.3311  0.9235 -0.6333
19969TIP3   OH281321   0.086   0.945   1.739 -0.0376  0.4975  0.0757
19969TIP3    H181322   0.104   1.020   1.684  0.5002 -1.5357 -2.7125
19969TIP3    H281323   0.171   0.920   1.775  0.1121  0.1524 -0.5027
19970TIP3   OH281324   1.715   1.601   0.079 -0.4762  0.5796  0.0853
19970TIP3    H181325   1.791   1.587   0.136 -0.5162 -1.0732 -0.2187
19970TIP3    H281326   1.707   1.696   0.074  0.9957  0.7910  0.8830
19971TIP3   OH281327   3.405   5.185   0.629  0.0555  0.0286  0.3723
19971TIP3    H181328   3.335   5.197   0.693 -0.6381  0.1241 -0.3933
19971TIP3    H281329   3.452   5.269   0.629  0.5310 -0.2190  1.2855
19972TIP3   OH281330   3.001   0.398  16.511  0.3973 -0.4292  0.3687
19972TIP3    H181331   3.018   0.385  16.418  0.0413  0.5226  0.1640
19972TIP3    H281332   2.911   0.428  16.516  0.4605 -0.3192  1.0056
19973TIP3   OH281333   5.138   4.933  14.854  0.0572 -0.3719 -0.4788
19973TIP3    H181334   5.140   4.889  14.769  2.7597  0.1726 -0.8024
19973TIP3    H281335   5.114   4.865  14.916 -0.4936 -1.1301 -1.4977
19974TIP3   OH281336   2.344   5.282  16.385 -0.1146  0.2135  0.0700
19974TIP3    H181337   2.381   5.256  16.470 -0.8277 -0.6669  0.1271
19974TIP3    H281338   2.356   5.205  16.329  0.0125  0.6557 -0.5193
19975TIP3   OH281339   0.182   2.755  11.147  0.5163  0.1823 -0.2150
19975TIP3    H181340   0.215   2.728  11.061  0.8422 -3.1234  0.8093
19975TIP3    H281341   0.261   2.761  11.202  0.2144  1.2697  0.1277
19976TIP3   OH281342   3.572   2.882   3.915  1.0043 -0.4137 -0.5144
19976TIP3    H181343   3.654   2.928   3.899 -0.3370  2.9498  1.1516
19976TIP3    H281344   3.574   2.860   4.008  0.8616 -2.3057 -0.9146
19977TIP3   OH281345   5.389   5.189   3.103 -0.2320  0.2968  0.5240
19977TIP3    H181346   5.439   5.267   3.078  0.3727  0.1001  1.0729
19977TIP3    H281347   5.362   5.206   3.193  0.4175 -0.3672  0.8574
19978LIG     O181348   3.236   3.007   0.872  0.3860  0.5790 -0.1700
19978LIG     O281349   3.200   3.217   0.761  0.0947  0.2674  0.0792
19978LIG     O381350   3.110   3.260   0.970  0.4172 -0.2564  0.0230
19978LIG     O481351   3.237   2.916   0.564 -0.3781  0.0557 -0.7523
19978LIG     O581352   2.960   2.864   0.675 -0.1388  0.1865 -0.7078
19978LIG     O681353   3.414   3.415   0.830 -0.4162  0.7634 -0.2205
19978LIG     O781354   3.137   3.495   0.694 -0.0627  0.6140 -0.2289
19978LIG     O881355   2.944   3.564   0.867 -0.4865  0.1588 -0.4182
19978LIG     O981356   3.442   3.139   0.580  0.9278  0.0309  0.4018
19978LIG    O1081357   2.973   2.971   1.038  0.1013  0.0792 -0.1503
19978LIG    O1181358   2.805   3.204   0.966 -0.0915 -0.2889 -0.6043
19978LIG     C181359   3.257   3.090   0.752 -0.2354 -0.1745 -0.2844
19978LIG     C281360   3.170   3.018   0.640  0.2870  0.2353 -0.4947
19978LIG     C381361   3.053   2.960   0.733 -0.8879  0.2224  0.4540
19978LIG     C481362   3.128   2.913   0.851  0.0420 -0.1207  0.5570
19978LIG     C581363   3.223   3.268   0.888  0.0331  0.4109  0.3155
19978LIG     C681364   3.280   3.408   0.884 -0.2807  0.2330 -0.0198
19978LIG     C781365   3.169   3.506   0.835 -0.7550 -0.3280 -0.2350
19978LIG     C881366   3.049   3.482   0.916  0.5971 -0.3424  0.2780
19978LIG     C981367   3.001   3.337   0.925 -0.5122 -0.6789  0.1049
19978LIG    C1081368   3.407   3.100   0.717  0.1646  0.3757  0.1362
19978LIG    C1181369   3.051   2.869   0.975 -0.5654 -0.8884  0.0997
19978LIG    C1281370   2.870   3.322   1.003 -0.7601  0.4025 -1.0601
19978LIG     H181371   3.136   3.097   0.571 -0.0604  0.2866 -0.2706
19978LIG     H281372   2.993   3.048   0.763  2.0475  2.6059 -0.1995
19978LIG     H381373   3.188   2.828   0.813  0.1832  0.1186  0.2379
19978LIG     H481374   3.310   3.214   0.933  0.0407 -0.5397 -0.7992
19978LIG     H581375   3.299   3.440   0.988 -0.8881 -0.1822  0.2203
19978LIG     H681376   3.209   3.608   0.854 -0.0738 -1.0859  2.9128
19978LIG     H781377   3.069   3.507   1.022  0.2838 -0.0737  0.2753
19978LIG     H881378   2.982   3.293   0.824  1.7698  0.0278 -0.6932
19978LIG     H981379   3.461   3.170   0.783  0.8422 -0.5501  0.5889
19978LIG    H1081380   3.449   2.997   0.722 -0.7054 -0.0805 -1.2614
19978LIG    H1181381   2.990   2.779   0.950 -1.5868 -0.3080  0.4320
19978LIG    H1281382   3.132   2.836   1.044  0.0502 -0.5885 -0.4659
19978LIG    H1381383   2.885   3.322   1.113 -1.4821 -1.6161 -0.9295
19978LIG    H1481384   2.801   3.404   0.975 -0.4050  0.8437 -0.6596
19978LIG    H1581385   3.304   2.957   0.509  0.3802  1.1088  0.8729
19978LIG    H1681386   3.006   2.791   0.635 -1.2236 -0.3347 -1.0345
19978LIG    H1781387   3.439   3.507   0.837  2.5666  0.1296 -1.3438
19978LIG    H1881388   3.050   3.535   0.688 -0.9845 -1.3570 -0.4704
19978LIG    H1981389   2.952   3.655   0.895  1.5574 -0.6749  2.1197
19978LIG    H2081390   3.537   3.156   0.576  1.4913 -2.3479  1.6090
19978LIG    H2181391   2.912   2.935   1.103 -2.2730  1.4158 -1.4918
19978LIG    H2281392   2.863   3.130   0.983 -1.9884 -1.4155  1.5363
   6.76100   6.76100  17.38623
