Title
43188
    1CHL1    C3    1   4.413   0.263   6.190  0.4881 -0.5648 -0.0092
    1CHL1    H3    2   4.412   0.158   6.154 -1.2593  0.4356 -3.2755
    1CHL1    O3    3   4.447   0.276   6.327  0.0716  0.3219 -0.0540
    1CHL1   H3'    4   4.469   0.184   6.346  2.8806  0.3343 -2.4969
    1CHL1    C4    5   4.520   0.336   6.101  0.6781 -0.0549 -0.0049
    1CHL1   H4A    6   4.534   0.441   6.133 -1.6897  0.1650  0.4600
    1CHL1   H4B    7   4.616   0.281   6.116  0.1280 -0.3226  3.1013
    1CHL1    C5    8   4.473   0.338   5.959  0.0431 -0.0861 -0.6960
    1CHL1    C6    9   4.549   0.311   5.856 -0.1005  0.4082  0.2664
    1CHL1    H6   10   4.651   0.279   5.884  0.4506  1.1611 -0.7895
    1CHL1    C7   11   4.512   0.324   5.715 -0.2242 -0.0760  0.2417
    1CHL1   H7A   12   4.603   0.352   5.658 -1.5671  0.0671 -1.9443
    1CHL1   H7B   13   4.470   0.227   5.681  2.0226 -2.0236  2.5536
    1CHL1    C8   14   4.392   0.420   5.696  0.3788  0.2038 -0.0848
    1CHL1    H8   15   4.432   0.523   5.710  1.4790 -0.1387 -0.5547
    1CHL1   C14   16   4.343   0.396   5.552 -0.2801 -0.0491  0.9527
    1CHL1   H14   17   4.305   0.292   5.563 -0.2304  0.1006  2.8004
    1CHL1   C15   18   4.447   0.403   5.437 -0.2490  0.2246  0.1567
    1CHL1  H15A   19   4.509   0.494   5.453  0.4774 -0.4780  1.5798
    1CHL1  H15B   20   4.510   0.311   5.440  0.5290  0.7415  2.7463
    1CHL1   C16   21   4.361   0.426   5.314 -0.4203 -0.3760 -0.5846
    1CHL1  H16A   22   4.411   0.515   5.271  1.0508 -0.5790  0.5993
    1CHL1  H16B   23   4.373   0.339   5.245 -0.7144  0.7926 -2.1722
    1CHL1   C17   24   4.215   0.451   5.364  0.1970  0.0296 -0.5343
    1CHL1   H17   25   4.166   0.351   5.369 -0.7756  0.4634 -1.1349
    1CHL1   C13   26   4.234   0.492   5.511  0.3678  0.4099 -0.3462
    1CHL1   C18   27   4.279   0.636   5.528 -0.0394  0.1586  0.6957
    1CHL1  H18A   28   4.317   0.650   5.631  1.9817 -0.6739  0.1166
    1CHL1  H18B   29   4.350   0.663   5.447 -3.2251  1.8304 -1.7866
    1CHL1  H18C   30   4.197   0.710   5.512 -1.7192 -1.8655 -0.6364
    1CHL1   C12   31   4.107   0.459   5.605 -1.3404 -0.1696  0.4090
    1CHL1  H12A   32   4.023   0.530   5.586 -1.1131  0.1246  0.4965
    1CHL1  H12B   33   4.076   0.355   5.581 -0.3711 -0.2968 -0.3426
    1CHL1   C11   34   4.157   0.471   5.750  0.0042 -0.7101 -0.3967
    1CHL1  H11A   35   4.165   0.581   5.764 -3.5298 -0.4784  0.6367
    1CHL1  H11B   36   4.069   0.450   5.814  1.2318  1.4206  2.1951
    1CHL1    C9   37   4.277   0.386   5.786 -0.5590  0.3192  0.2330
    1CHL1    H9   38   4.242   0.282   5.772  0.1318 -0.4557  3.3267
    1CHL1   C10   39   4.327   0.397   5.938  0.2985  0.3168 -0.0773
    1CHL1   C19   40   4.327   0.546   5.979 -0.2628  0.5840 -0.4301
    1CHL1  H19A   41   4.390   0.604   5.907  0.5180  1.0485  0.5959
    1CHL1  H19B   42   4.224   0.587   5.977 -0.7542 -0.6305 -1.4632
    1CHL1  H19C   43   4.379   0.565   6.075 -0.5356  0.2719 -0.2221
    1CHL1    C1   44   4.227   0.316   6.030  0.5039 -0.2979  0.2836
    1CHL1   H1A   45   4.123   0.354   6.016  0.5849 -0.6939 -1.8836
    1CHL1   H1B   46   4.230   0.219   5.976 -0.5625  0.1391 -0.6325
    1CHL1    C2   47   4.269   0.315   6.174  0.2215  0.9009 -0.3392
    1CHL1   H2A   48   4.192   0.253   6.225 -0.3621  0.9914 -1.0839
    1CHL1   H2B   49   4.253   0.419   6.210  0.8241  0.9754 -0.2765
    1CHL1   C20   50   4.135   0.539   5.269  0.1064 -0.1908 -0.4135
    1CHL1   H20   51   4.178   0.640   5.284  0.9482 -0.5767 -0.1644
    1CHL1   C21   52   3.985   0.538   5.299  0.8769 -0.8317 -0.6163
    1CHL1  H21A   53   3.954   0.581   5.396  1.3885 -1.6844 -0.0613
    1CHL1  H21B   54   3.951   0.432   5.298  0.5351 -0.7932  1.9275
    1CHL1  H21C   55   3.927   0.591   5.220  3.1238  0.2587 -1.6274
    1CHL1   C22   56   4.151   0.505   5.117 -0.4417 -0.0878 -0.3797
    1CHL1  H22A   57   4.257   0.478   5.098 -0.2676  1.8456 -2.7213
    1CHL1  H22B   58   4.095   0.410   5.102 -2.7436  0.8099  1.8464
    1CHL1   C23   59   4.116   0.621   5.027  0.5493 -0.9587  0.8451
    1CHL1  H23A   60   4.010   0.652   5.041  1.4217  2.3804  0.9316
    1CHL1  H23B   61   4.187   0.702   5.056  0.9830 -0.7940 -0.5979
    1CHL1   C24   62   4.124   0.593   4.877  0.2558 -0.0127 -0.0322
    1CHL1  H24A   63   4.226   0.580   4.836  0.8838 -2.8486  2.1131
    1CHL1  H24B   64   4.079   0.493   4.858 -0.7822  0.5428 -0.5866
    1CHL1   C25   65   4.040   0.692   4.791 -0.9196 -0.4276 -0.2840
    1CHL1   H25   66   3.946   0.715   4.844  0.2690  1.3274  1.2113
    1CHL1   C26   67   4.117   0.824   4.765 -0.4613 -0.0942 -0.2113
    1CHL1  H26A   68   4.193   0.810   4.685  1.5699  0.0378  1.6085
    1CHL1  H26B   69   4.049   0.903   4.727 -0.3127 -0.3644 -1.0569
    1CHL1  H26C   70   4.172   0.857   4.856  2.5965  1.8141 -2.5645
    1CHL1   C27   71   3.993   0.628   4.659 -0.1852 -0.1713 -0.5223
    1CHL1  H27A   72   4.081   0.576   4.614  0.7721 -0.1462  1.2432
    1CHL1  H27B   73   3.926   0.543   4.681  1.2176 -0.9380  1.0167
    1CHL1  H27C   74   3.935   0.703   4.601  0.0602  0.6782  0.3051
    2CHL1    C3   75   6.413   1.265   6.369 -0.1618  0.7989  0.3889
    2CHL1    H3   76   6.317   1.216   6.343  0.9462 -1.7293  0.7464
    2CHL1    O3   77   6.435   1.261   6.507  0.4585  0.6148 -0.4618
    2CHL1   H3'   78   6.351   1.285   6.546  1.0032  1.3622  0.2629
    2CHL1    C4   79   6.523   1.180   6.307  0.3563  0.6036 -0.0278
    2CHL1   H4A   80   6.628   1.205   6.335  1.0558  0.9250 -2.6704
    2CHL1   H4B   81   6.504   1.075   6.335 -1.1043  1.2816  1.7448
    2CHL1    C5   82   6.525   1.195   6.151  0.0493 -0.0179 -0.2923
    2CHL1    C6   83   6.517   1.079   6.073 -0.0260 -0.1993 -0.5745
    2CHL1    H6   84   6.502   0.978   6.114 -0.3248 -0.9605 -2.4491
    2CHL1    C7   85   6.495   1.079   5.930 -0.5045 -0.5619  0.1914
    2CHL1   H7A   86   6.559   0.995   5.895  2.5969  1.3565  0.7896
    2CHL1   H7B   87   6.386   1.062   5.917 -1.4231  3.1322  1.7819
    2CHL1    C8   88   6.534   1.221   5.870 -0.3562  0.2850 -0.2166
    2CHL1    H8   89   6.644   1.233   5.873 -0.1032 -1.7620  0.7720
    2CHL1   C14   90   6.493   1.221   5.721  0.6401 -0.0324 -0.0489
    2CHL1   H14   91   6.383   1.213   5.728  0.7109 -0.8757  0.2643
    2CHL1   C15   92   6.544   1.105   5.630  0.3955  0.3855  0.0305
    2CHL1  H15A   93   6.650   1.087   5.656  0.5333 -0.0992 -0.8208
    2CHL1  H15B   94   6.489   1.009   5.641  0.4354  0.4418  0.7567
    2CHL1   C16   95   6.529   1.162   5.483  0.0425  0.2352  1.4812
    2CHL1  H16A   96   6.625   1.129   5.437 -0.6799 -0.6741  0.5843
    2CHL1  H16B   97   6.437   1.127   5.431 -1.4945 -0.5017  4.4571
    2CHL1   C17   98   6.493   1.316   5.505 -0.1454 -0.2621  0.0743
    2CHL1   H17   99   6.382   1.319   5.517 -0.0521 -1.3293  1.6214
    2CHL1   C13  100   6.543   1.346   5.649  0.5768  0.4716 -0.2157
    2CHL1   C18  101   6.697   1.360   5.647 -0.0178 -0.4397 -0.4852
    2CHL1  H18A  102   6.738   1.393   5.745 -2.2985  1.9945 -0.2279
    2CHL1  H18B  103   6.745   1.266   5.612  0.5066  0.1197 -1.3240
    2CHL1  H18C  104   6.728   1.440   5.577 -0.5615 -0.1251 -0.3730
    2CHL1   C12  105   6.471   1.461   5.714  0.3177  0.4023 -0.7672
    2CHL1  H12A  106   6.497   1.563   5.679 -0.2059  1.2834  1.2917
    2CHL1  H12B  107   6.364   1.444   5.693  0.3005  0.4105 -0.6876
    2CHL1   C11  108   6.495   1.471   5.865  0.9836 -0.4133  0.1620
    2CHL1  H11A  109   6.601   1.498   5.885  0.9996  0.9779 -1.5711
    2CHL1  H11B  110   6.434   1.555   5.904  2.2861 -0.1330  1.6862
    2CHL1    C9  111   6.473   1.338   5.950  0.2432 -0.1558 -0.7378
    2CHL1    H9  112   6.365   1.314   5.940  0.2775 -1.3310  1.2333
    2CHL1   C10  113   6.521   1.338   6.097 -0.2668 -1.0067 -0.4926
    2CHL1   C19  114   6.653   1.407   6.112 -0.7151 -0.2111 -0.7600
    2CHL1  H19A  115   6.693   1.401   6.215 -0.8113  2.2404 -0.5251
    2CHL1  H19B  116   6.729   1.359   6.047 -0.3207  0.1795 -0.5915
    2CHL1  H19C  117   6.651   1.518   6.102 -0.5144 -0.0401  0.8515
    2CHL1    C1  118   6.410   1.420   6.177 -0.1748 -0.1146 -0.3316
    2CHL1   H1A  119   6.429   1.527   6.156  0.7846  0.1750  1.6943
    2CHL1   H1B  120   6.305   1.398   6.148 -0.1290 -0.1373 -0.4827
    2CHL1    C2  121   6.423   1.410   6.332  0.1475  0.0313  0.0890
    2CHL1   H2A  122   6.353   1.477   6.387  0.8050  2.4167 -1.7931
    2CHL1   H2B  123   6.518   1.457   6.365 -0.3405  0.6475  0.6555
    2CHL1   C20  124   6.536   1.396   5.384 -0.5505 -0.0211  0.0526
    2CHL1   H20  125   6.643   1.420   5.397 -0.8590  0.7978  1.2950
    2CHL1   C21  126   6.448   1.524   5.382 -0.1264 -0.0314 -0.0370
    2CHL1  H21A  127   6.455   1.566   5.280 -0.0665  0.3902  0.1403
    2CHL1  H21B  128   6.501   1.600   5.443 -0.0191 -1.0731  1.2153
    2CHL1  H21C  129   6.342   1.500   5.406 -0.4287 -1.3806 -2.4341
    2CHL1   C22  130   6.523   1.317   5.256  0.1592  0.9285 -0.8483
    2CHL1  H22A  131   6.584   1.225   5.262  0.8606  1.4509  0.9801
    2CHL1  H22B  132   6.421   1.274   5.251  0.1075  1.0642 -0.9532
    2CHL1   C23  133   6.536   1.377   5.117 -0.3298 -0.2587  0.2270
    2CHL1  H23A  134   6.446   1.433   5.085  0.1523  0.3853 -0.0234
    2CHL1  H23B  135   6.621   1.448   5.128 -1.9022  1.3984  2.7818
    2CHL1   C24  136   6.560   1.270   5.012 -0.4952 -0.4992 -0.3418
    2CHL1  H24A  137   6.659   1.227   5.039  0.9104  2.0533 -1.1566
    2CHL1  H24B  138   6.484   1.190   5.032  1.9088 -2.8275  0.1223
    2CHL1   C25  139   6.572   1.320   4.866 -0.6121 -0.2343 -0.2918
    2CHL1   H25  140   6.479   1.376   4.839  0.0413  2.2325  2.1250
    2CHL1   C26  141   6.690   1.422   4.849  0.0891  0.4257 -0.9966
    2CHL1  H26A  142   6.666   1.519   4.897 -2.2641 -2.2249  3.9910
    2CHL1  H26B  143   6.774   1.373   4.903 -1.3136 -0.5107  0.4282
    2CHL1  H26C  144   6.717   1.436   4.742  0.2563  2.4343 -0.7243
    2CHL1   C27  145   6.588   1.212   4.754  0.6739  0.1202 -0.3594
    2CHL1  H27A  146   6.504   1.140   4.764  1.6191 -1.0186 -0.4962
    2CHL1  H27B  147   6.579   1.273   4.661  0.5802  0.5706 -0.0608
    2CHL1  H27C  148   6.682   1.153   4.751  1.2086  0.9405 -0.1373
    3CHL1    C3  149   0.676   1.536   6.604 -0.1024 -0.0546 -0.3632
    3CHL1    H3  150   0.641   1.642   6.596  1.4789  0.7206  1.8101
    3CHL1    O3  151   0.716   1.522   6.737 -0.3751  0.2800  0.2863
    3CHL1   H3'  152   0.752   1.433   6.748 -0.6532 -0.0959 -1.5713
    3CHL1    C4  153   0.557   1.446   6.576  0.0054  0.5131 -0.8317
    3CHL1   H4A  154   0.577   1.338   6.597 -0.2125  0.7744  0.8907
    3CHL1   H4B  155   0.475   1.469   6.647 -1.3217 -0.4577 -1.9968
    3CHL1    C5  156   0.505   1.459   6.430  0.0399 -0.0975 -0.5791
    3CHL1    C6  157   0.373   1.482   6.407 -0.0288 -0.4879 -0.3204
    3CHL1    H6  158   0.312   1.483   6.498 -0.2246 -0.5309 -0.4500
    3CHL1    C7  159   0.313   1.493   6.273  0.0129  0.4753  0.3055
    3CHL1   H7A  160   0.224   1.427   6.276  0.4013 -0.0206  1.2943
    3CHL1   H7B  161   0.294   1.600   6.250  1.8479  0.2031 -3.2329
    3CHL1    C8  162   0.419   1.447   6.165 -0.9425  0.5837  0.3976
    3CHL1    H8  163   0.418   1.336   6.159 -1.7338  0.6507 -1.3628
    3CHL1   C14  164   0.371   1.496   6.028  0.1508 -0.0923 -0.2502
    3CHL1   H14  165   0.382   1.606   6.042  1.7402 -0.2361 -0.1853
    3CHL1   C15  166   0.225   1.460   5.991 -0.2570 -0.3577  0.1052
    3CHL1  H15A  167   0.196   1.362   6.035  0.0738 -0.7252 -0.4950
    3CHL1  H15B  168   0.157   1.539   6.030 -0.4958 -0.4559 -0.1115
    3CHL1   C16  169   0.223   1.460   5.836  0.5677 -0.0032 -0.2402
    3CHL1  H16A  170   0.207   1.359   5.793  0.9101 -1.2060  2.2720
    3CHL1  H16B  171   0.150   1.535   5.798  0.2324  1.2429  2.5928
    3CHL1   C17  172   0.372   1.497   5.790 -0.7653 -0.0597 -0.4728
    3CHL1   H17  173   0.370   1.608   5.800 -0.3414 -0.1440  0.8115
    3CHL1   C13  174   0.460   1.458   5.913  0.2126  0.0555  0.2100
    3CHL1   C18  175   0.485   1.308   5.908 -0.2121 -0.1776  0.2864
    3CHL1  H18A  176   0.535   1.262   5.995  1.7303  1.8478  0.3130
    3CHL1  H18B  177   0.389   1.254   5.896 -2.1510  2.1768  3.4028
    3CHL1  H18C  178   0.557   1.284   5.827 -0.7857 -3.6102  0.6552
    3CHL1   C12  179   0.596   1.533   5.929  0.0674 -0.2963 -0.4148
    3CHL1  H12A  180   0.673   1.510   5.853 -0.3570 -0.2960 -0.8447
    3CHL1  H12B  181   0.587   1.643   5.938 -1.3344 -0.4094 -0.2861
    3CHL1   C11  182   0.659   1.485   6.069  0.3363  0.4882 -0.4742
    3CHL1  H11A  183   0.685   1.377   6.063  0.2659  0.2796  1.9012
    3CHL1  H11B  184   0.751   1.548   6.077 -0.5822  1.8885 -0.6666
    3CHL1    C9  185   0.565   1.492   6.190  0.2754 -0.6477 -0.1898
    3CHL1    H9  186   0.547   1.600   6.211  0.4440 -0.9319  1.5465
    3CHL1   C10  187   0.615   1.441   6.321  0.1930  0.5275 -0.5624
    3CHL1   C19  188   0.659   1.294   6.309  0.4809 -0.9310  1.1232
    3CHL1  H19A  189   0.696   1.262   6.409  0.4607 -2.1185  0.7590
    3CHL1  H19B  190   0.572   1.233   6.278 -0.8699  1.7157 -0.6610
    3CHL1  H19C  191   0.738   1.272   6.234 -0.1098 -1.4589  0.6518
    3CHL1    C1  192   0.738   1.536   6.369 -0.2476 -0.7482 -0.0776
    3CHL1   H1A  193   0.834   1.538   6.312 -1.2293  0.6131 -1.7618
    3CHL1   H1B  194   0.702   1.640   6.375  2.0274  0.2278 -1.8552
    3CHL1    C2  195   0.789   1.505   6.511  0.6780 -0.0673  0.6870
    3CHL1   H2A  196   0.877   1.568   6.537  2.0488 -1.0388 -1.3447
    3CHL1   H2B  197   0.827   1.404   6.536  3.4633  1.4238  3.1659
    3CHL1   C20  198   0.404   1.457   5.643  0.1691  0.1608 -0.2814
    3CHL1   H20  199   0.413   1.346   5.645 -0.6098  0.0868 -0.4711
    3CHL1   C21  200   0.542   1.516   5.606  0.5191  0.4246  0.1130
    3CHL1  H21A  201   0.545   1.622   5.639 -1.6239  0.1781  1.3225
    3CHL1  H21B  202   0.560   1.512   5.496 -0.7200 -0.5382 -0.0817
    3CHL1  H21C  203   0.616   1.455   5.661  1.6148  0.9970 -0.6996
    3CHL1   C22  204   0.298   1.503   5.542  0.7997 -0.3591  1.2268
    3CHL1  H22A  205   0.226   1.565   5.600  3.2399  1.8299  2.1027
    3CHL1  H22B  206   0.352   1.571   5.473 -0.8199 -0.2198  0.0431
    3CHL1   C23  207   0.230   1.389   5.459 -0.1668 -0.5567  0.5205
    3CHL1  H23A  208   0.224   1.300   5.525 -0.5412 -0.6079  0.4191
    3CHL1  H23B  209   0.127   1.416   5.427  1.1606  3.1012 -1.3295
    3CHL1   C24  210   0.307   1.353   5.334 -0.6026 -0.0997  0.1556
    3CHL1  H24A  211   0.307   1.443   5.269  0.8549 -1.2580 -1.5135
    3CHL1  H24B  212   0.413   1.326   5.355  0.8604  3.1689 -2.1938
    3CHL1   C25  213   0.241   1.240   5.255 -0.2264  0.1273 -0.1193
    3CHL1   H25  214   0.242   1.153   5.323 -0.9553  0.7333  0.6839
    3CHL1   C26  215   0.087   1.266   5.217 -0.3366 -0.2432 -0.2502
    3CHL1  H26A  216   0.072   1.362   5.163 -1.3991 -1.0034 -1.3599
    3CHL1  H26B  217   0.069   1.188   5.140 -1.6916 -1.1112  0.9021
    3CHL1  H26C  218   0.009   1.244   5.292  0.9251 -1.8060  0.6816
    3CHL1   C27  219   0.318   1.211   5.128 -0.3038 -0.3003  0.4005
    3CHL1  H27A  220   0.271   1.119   5.087 -2.2050  0.6794  0.2398
    3CHL1  H27B  221   0.318   1.291   5.051  0.0837 -1.2558 -0.6065
    3CHL1  H27C  222   0.426   1.194   5.145  0.0761 -2.3464 -3.1644
    4CHL1    C3  223   6.574   0.514   6.281 -0.1113 -0.7952  0.4353
    4CHL1    H3  224   6.500   0.434   6.256  1.1640 -2.7197  2.4418
    4CHL1    O3  225   6.590   0.514   6.419 -0.1586 -0.0135  0.4935
    4CHL1   H3'  226   6.677   0.552   6.434 -0.7028  1.3559  0.3619
    4CHL1    C4  227   6.704   0.459   6.211 -0.1917  0.5939 -0.0216
    4CHL1   H4A  228   6.791   0.525   6.234 -0.7223  1.6047 -0.8199
    4CHL1   H4B  229   6.736   0.357   6.242  0.5717  0.8248 -0.0167
    4CHL1    C5  230   6.685   0.462   6.063  0.1331  0.2466 -0.4967
    4CHL1    C6  231   6.713   0.351   5.997 -0.2505 -0.1168 -0.4955
    4CHL1    H6  232   6.746   0.259   6.049  1.9830 -0.1975 -1.9262
    4CHL1    C7  233   6.710   0.350   5.847  0.2522 -0.0638  0.3024
    4CHL1   H7A  234   6.798   0.298   5.803  1.2274 -0.0895  2.1902
    4CHL1   H7B  235   6.614   0.305   5.813  0.6102 -0.5419 -0.1028
    4CHL1    C8  236   6.702   0.487   5.784  0.2272 -0.1126 -0.6608
    4CHL1    H8  237   6.802   0.534   5.792  1.7124 -3.1041 -0.2611
    4CHL1   C14  238   6.676   0.483   5.636 -0.0258 -0.3316 -0.3510
    4CHL1   H14  239   6.572   0.445   5.625  0.6287 -2.0842 -0.8497
    4CHL1   C15  240   6.763   0.386   5.549 -0.3075 -0.0383 -0.4725
    4CHL1  H15A  241   6.868   0.403   5.581 -0.9793  1.7019  0.9546
    4CHL1  H15B  242   6.741   0.278   5.559  1.0092 -0.0835  3.9810
    4CHL1   C16  243   6.737   0.443   5.403  0.0984  0.2444  0.0615
    4CHL1  H16A  244   6.837   0.473   5.363  0.8395 -2.3878 -0.2554
    4CHL1  H16B  245   6.683   0.376   5.333  1.3872  2.1483 -2.9528
    4CHL1   C17  246   6.647   0.572   5.426 -0.3113 -0.0483  0.0483
    4CHL1   H17  247   6.540   0.542   5.422 -0.5779  0.8803 -0.0232
    4CHL1   C13  248   6.678   0.618   5.567 -0.4494 -0.1288  0.1753
    4CHL1   C18  249   6.820   0.690   5.580  0.2053  0.1012  0.5783
    4CHL1  H18A  250   6.866   0.696   5.681 -2.9242 -0.5692  2.1446
    4CHL1  H18B  251   6.897   0.640   5.517 -0.4305 -1.2025  0.8069
    4CHL1  H18C  252   6.816   0.794   5.540 -1.7859 -0.9348 -2.1938
    4CHL1   C12  253   6.570   0.713   5.631 -0.4806 -0.4861 -0.1263
    4CHL1  H12A  254   6.554   0.807   5.574 -0.7170 -0.7488 -0.4991
    4CHL1  H12B  255   6.474   0.660   5.613 -2.1204  2.0700  0.5655
    4CHL1   C11  256   6.599   0.723   5.781 -0.5252  0.1968 -0.1176
    4CHL1  H11A  257   6.694   0.778   5.798  0.7012 -2.4639  2.1999
    4CHL1  H11B  258   6.522   0.788   5.829  0.3072  0.5395  0.7936
    4CHL1    C9  259   6.603   0.586   5.852 -0.1410 -0.3130 -0.6341
    4CHL1    H9  260   6.506   0.533   5.844 -0.2117 -0.6584  1.6135
    4CHL1   C10  261   6.634   0.599   6.001 -0.3138 -0.4099 -0.2450
    4CHL1   C19  262   6.755   0.696   6.020 -0.4203 -0.1417 -0.8569
    4CHL1  H19A  263   6.803   0.692   6.120  0.5670 -0.6318 -1.3369
    4CHL1  H19B  264   6.836   0.654   5.956 -0.3099  0.7065 -1.2956
    4CHL1  H19C  265   6.731   0.804   6.004  1.5989  0.3419 -0.8947
    4CHL1    C1  266   6.513   0.648   6.077  0.4330 -0.1540 -0.5070
    4CHL1   H1A  267   6.481   0.750   6.048  0.2208 -0.0270  0.1585
    4CHL1   H1B  268   6.438   0.570   6.052  1.2745 -1.5137  0.9276
    4CHL1    C2  269   6.533   0.652   6.228 -0.1523 -0.2943 -0.1525
    4CHL1   H2A  270   6.438   0.676   6.280 -0.4578 -2.4500  0.4030
    4CHL1   H2B  271   6.610   0.728   6.254 -1.2475  0.9606 -0.4701
    4CHL1   C20  272   6.649   0.688   5.314 -0.2193 -0.1064 -0.2297
    4CHL1   H20  273   6.671   0.779   5.375  0.6323 -1.9986  2.4974
    4CHL1   C21  274   6.504   0.694   5.260  0.1993  0.0652 -0.9027
    4CHL1  H21A  275   6.472   0.607   5.199 -1.6796  0.7268 -0.9094
    4CHL1  H21B  276   6.481   0.783   5.197 -1.7869 -0.0716 -0.4165
    4CHL1  H21C  277   6.431   0.711   5.342  0.4592  3.2753 -1.1837
    4CHL1   C22  278   6.755   0.663   5.202  1.4543 -0.2652  0.2062
    4CHL1  H22A  279   6.848   0.670   5.262  0.5402 -1.8530  1.8983
    4CHL1  H22B  280   6.742   0.564   5.154  0.1266  1.6658 -3.9325
    4CHL1   C23  281   6.755   0.774   5.093  0.4252 -0.4248 -0.1400
    4CHL1  H23A  282   6.670   0.760   5.024  1.2476 -2.0174 -0.8691
    4CHL1  H23B  283   6.746   0.875   5.140  0.0934 -0.9357  0.9280
    4CHL1   C24  284   6.885   0.765   5.016  0.1500  0.5345 -0.0722
    4CHL1  H24A  285   6.962   0.786   5.094 -1.2075  0.6392  1.2910
    4CHL1  H24B  286   6.897   0.668   4.963 -1.8877  0.4792 -0.5036
    4CHL1   C25  287   6.894   0.870   4.903  0.1232 -0.9093  0.3716
    4CHL1   H25  288   6.895   0.969   4.954  1.6718 -1.9169  2.4448
    4CHL1   C26  289   7.028   0.860   4.828  0.6321 -0.4879  0.1826
    4CHL1  H26A  290   7.020   0.766   4.770 -1.6786 -1.0826  1.3258
    4CHL1  H26B  291   7.037   0.947   4.760 -1.3534 -0.4981 -0.1687
    4CHL1  H26C  292   7.112   0.854   4.900  1.4209  0.7625 -0.5860
    4CHL1   C27  293   6.770   0.858   4.806 -0.5945 -0.5434 -0.3362
    4CHL1  H27A  294   6.783   0.907   4.707 -0.2877 -2.3114 -1.2068
    4CHL1  H27B  295   6.753   0.750   4.785  0.7824 -0.7984 -0.2165
    4CHL1  H27C  296   6.677   0.902   4.849 -0.8548 -1.6914  0.3226
    5CHL1    C3  297   5.742   2.006   6.821 -0.3846  0.2905  0.3478
    5CHL1    H3  298   5.824   2.080   6.807  1.3547 -1.6803 -0.3373
    5CHL1    O3  299   5.739   1.988   6.964  0.3117  0.2595  0.1316
    5CHL1   H3'  300   5.646   1.978   6.986  0.2767  0.7333  0.2031
    5CHL1    C4  301   5.609   2.063   6.768  0.6100 -0.1011 -0.1203
    5CHL1   H4A  302   5.537   1.982   6.790  0.5053  0.3550  1.2631
    5CHL1   H4B  303   5.571   2.155   6.817 -0.3191 -0.7471  0.3833
    5CHL1    C5  304   5.615   2.101   6.618 -1.0914  1.2201  0.4888
    5CHL1    C6  305   5.579   2.215   6.566  0.0765 -1.1359  0.0714
    5CHL1    H6  306   5.534   2.286   6.637 -0.3932 -2.4741  1.1410
    5CHL1    C7  307   5.566   2.245   6.425 -0.3311 -0.3996  0.5645
    5CHL1   H7A  308   5.465   2.283   6.398 -0.7557 -0.7348  1.6181
    5CHL1   H7B  309   5.645   2.317   6.395  2.3377 -1.7694  3.6415
    5CHL1    C8  310   5.600   2.122   6.335  0.6255  0.6847  0.3124
    5CHL1    H8  311   5.506   2.061   6.337 -0.3273  2.0603  3.2075
    5CHL1   C14  312   5.629   2.163   6.191  0.2518 -0.0319  0.2656
    5CHL1   H14  313   5.726   2.218   6.186  1.0144 -1.0827  2.2870
    5CHL1   C15  314   5.540   2.276   6.126 -0.1163 -0.9561  0.2337
    5CHL1  H15A  315   5.430   2.258   6.134  0.0822 -1.7078  1.5638
    5CHL1  H15B  316   5.566   2.375   6.168 -0.2957 -1.0184  0.4907
    5CHL1   C16  317   5.571   2.258   5.975  0.3320 -0.7814 -0.2044
    5CHL1  H16A  318   5.476   2.239   5.920  0.0526  0.1742 -0.0739
    5CHL1  H16B  319   5.617   2.343   5.920 -1.0745  0.2488  0.1511
    5CHL1   C17  320   5.653   2.123   5.960  0.3835 -0.8388 -0.5301
    5CHL1   H17  321   5.754   2.169   5.957 -1.0655  2.8952  1.1304
    5CHL1   C13  322   5.641   2.049   6.095 -0.3849 -0.4552 -0.2986
    5CHL1   C18  323   5.511   1.965   6.080  0.4280 -0.4772  0.3730
    5CHL1  H18A  324   5.529   1.880   6.011 -1.3417 -2.1380  1.8327
    5CHL1  H18B  325   5.482   1.921   6.178 -0.0907  1.8083  1.3023
    5CHL1  H18C  326   5.429   2.027   6.039  0.1337 -1.6787 -0.9236
    5CHL1   C12  327   5.755   1.964   6.150 -1.0494  0.3332  0.4962
    5CHL1  H12A  328   5.758   1.875   6.084  2.2043  2.4197 -2.5604
    5CHL1  H12B  329   5.850   2.021   6.161  0.8914 -2.7632  0.9997
    5CHL1   C11  330   5.736   1.905   6.294  0.1650  0.3665 -0.1749
    5CHL1  H11A  331   5.648   1.836   6.289 -0.2729  0.9336 -0.3989
    5CHL1  H11B  332   5.827   1.855   6.334 -0.6866  0.1443  1.6107
    5CHL1    C9  333   5.703   2.029   6.386 -0.6257  0.0397 -0.4225
    5CHL1    H9  334   5.800   2.082   6.392 -0.0246 -1.0078 -0.6278
    5CHL1   C10  335   5.674   1.982   6.532  1.2727  0.1854  0.1468
    5CHL1   C19  336   5.565   1.864   6.526  0.6341  0.1537  0.1771
    5CHL1  H19A  337   5.475   1.897   6.469  0.4911  0.5351  0.6181
    5CHL1  H19B  338   5.604   1.774   6.474  0.2253 -1.0280  1.8307
    5CHL1  H19C  339   5.524   1.824   6.621 -2.7751  1.6343 -0.4811
    5CHL1    C1  340   5.803   1.917   6.601 -0.7206 -0.3079 -0.3257
    5CHL1   H1A  341   5.831   1.829   6.540  1.1507  0.9237 -1.3268
    5CHL1   H1B  342   5.885   1.989   6.581  0.5331 -1.6558 -0.1830
    5CHL1    C2  343   5.792   1.885   6.747  0.4603  0.5448 -0.7321
    5CHL1   H2A  344   5.887   1.855   6.796 -0.6805 -2.3055 -0.0987
    5CHL1   H2B  345   5.724   1.798   6.757  1.4055  0.0605  3.1532
    5CHL1   C20  346   5.631   2.046   5.833  0.1476 -0.2779  0.0680
    5CHL1   H20  347   5.528   2.005   5.821  0.8652 -1.9972 -0.6199
    5CHL1   C21  348   5.724   1.927   5.811  0.1232  0.0895 -0.2176
    5CHL1  H21A  349   5.721   1.890   5.706  0.2002 -0.0632 -0.1672
    5CHL1  H21B  350   5.685   1.835   5.860 -3.2141  1.2501 -0.4079
    5CHL1  H21C  351   5.827   1.949   5.846 -0.0864 -0.6447  0.9182
    5CHL1   C22  352   5.647   2.140   5.713 -0.0477 -0.1428  0.0278
    5CHL1  H22A  353   5.624   2.247   5.731 -1.9801 -0.3852 -0.8402
    5CHL1  H22B  354   5.752   2.131   5.678 -0.3238 -0.0114 -0.8488
    5CHL1   C23  355   5.570   2.095   5.583  0.4251  0.5141 -0.3741
    5CHL1  H23A  356   5.581   1.985   5.575  2.1727  0.5533  0.7497
    5CHL1  H23B  357   5.466   2.125   5.608  0.3260 -1.4409  1.9367
    5CHL1   C24  358   5.626   2.160   5.454  0.1827  0.2889 -0.1481
    5CHL1  H24A  359   5.641   2.270   5.463  2.0107  0.1897 -1.5067
    5CHL1  H24B  360   5.729   2.123   5.435  0.1394  0.0117  0.1448
    5CHL1   C25  361   5.534   2.128   5.334 -0.4520 -0.7199 -0.0785
    5CHL1   H25  362   5.515   2.019   5.330  0.1125 -0.9151  1.5392
    5CHL1   C26  363   5.405   2.203   5.341  0.6854 -0.1881 -0.1566
    5CHL1  H26A  364   5.339   2.178   5.427 -1.1528 -0.0936 -1.4963
    5CHL1  H26B  365   5.432   2.310   5.354  2.9991 -0.8231  0.7858
    5CHL1  H26C  366   5.334   2.206   5.256 -2.6971  1.7877  2.4921
    5CHL1   C27  367   5.603   2.162   5.206  0.1926 -0.1770 -1.1892
    5CHL1  H27A  368   5.636   2.268   5.220 -0.4985 -0.0058 -0.7854
    5CHL1  H27B  369   5.691   2.097   5.187 -0.0012 -0.8112 -0.0202
    5CHL1  H27C  370   5.522   2.163   5.131 -0.8924  1.1665 -0.0664
    6CHL1    C3  371   6.018   0.944   6.314  0.5971  0.4032  0.6567
    6CHL1    H3  372   5.918   0.990   6.301 -0.0150 -0.7701  1.0893
    6CHL1    O3  373   6.044   0.962   6.447  0.2911  0.7203  0.1097
    6CHL1   H3'  374   6.132   0.925   6.449  0.6789  1.4471 -1.7413
    6CHL1    C4  375   6.025   0.796   6.281  0.0597 -0.7410  0.1507
    6CHL1   H4A  376   6.123   0.754   6.314 -0.6734 -1.7687  1.1314
    6CHL1   H4B  377   5.952   0.732   6.336  1.8798 -2.6792  0.4592
    6CHL1    C5  378   6.010   0.775   6.132 -0.6021  0.4483  0.2412
    6CHL1    C6  379   5.918   0.688   6.084  0.3144  0.2159  0.5825
    6CHL1    H6  380   5.854   0.639   6.159  1.0051 -2.0300 -0.2232
    6CHL1    C7  381   5.891   0.663   5.938 -0.4084  0.0771  0.0315
    6CHL1   H7A  382   5.881   0.553   5.923  0.4374 -0.0055  0.0073
    6CHL1   H7B  383   5.792   0.709   5.915 -1.5496 -1.9475  0.6764
    6CHL1    C8  384   6.003   0.729   5.841  0.3256  1.3450  0.0122
    6CHL1    H8  385   6.091   0.661   5.846 -0.4160  0.3037 -0.8328
    6CHL1   C14  386   5.956   0.725   5.696  0.2769  0.5437  0.4996
    6CHL1   H14  387   5.865   0.787   5.683 -0.4014 -0.8949 -2.4027
    6CHL1   C15  388   5.907   0.588   5.646 -0.0767  0.0283  0.2351
    6CHL1  H15A  389   5.981   0.508   5.669  1.8424  2.1125  1.6873
    6CHL1  H15B  390   5.809   0.558   5.689  0.4204  1.4884  2.5432
    6CHL1   C16  391   5.897   0.599   5.491  0.6552  0.3883  0.2491
    6CHL1  H16A  392   5.940   0.504   5.451 -2.8730 -0.7866 -1.1834
    6CHL1  H16B  393   5.788   0.608   5.468  1.0228  2.2144 -1.0246
    6CHL1   C17  394   5.972   0.741   5.462  0.1776 -0.1960  0.2683
    6CHL1   H17  395   5.881   0.806   5.462 -0.7510 -1.4381  1.0321
    6CHL1   C13  396   6.051   0.780   5.592  1.0061  0.1306  1.3223
    6CHL1   C18  397   6.182   0.696   5.582 -0.1066  0.0198 -0.5639
    6CHL1  H18A  398   6.166   0.600   5.529  0.3051 -0.3365 -0.0497
    6CHL1  H18B  399   6.255   0.748   5.517  1.3250 -1.4408 -0.1850
    6CHL1  H18C  400   6.231   0.680   5.680 -1.1107 -0.6432 -0.1507
    6CHL1   C12  401   6.074   0.925   5.635 -0.3360 -0.5279 -1.0311
    6CHL1  H12A  402   6.142   0.988   5.574 -2.9354  2.3018 -1.2743
    6CHL1  H12B  403   5.982   0.985   5.655  1.0581  0.6041  3.1550
    6CHL1   C11  404   6.136   0.933   5.780 -0.4116  0.1641 -0.3838
    6CHL1  H11A  405   6.236   0.885   5.775 -0.8117 -1.1836  2.4951
    6CHL1  H11B  406   6.153   1.040   5.805 -0.3034  0.6248 -2.2878
    6CHL1    C9  407   6.044   0.862   5.888 -0.1978 -0.0584  0.6598
    6CHL1    H9  408   5.957   0.932   5.891  1.8147  2.6064  0.3375
    6CHL1   C10  409   6.097   0.863   6.033 -0.1917 -0.1400 -0.0392
    6CHL1   C19  410   6.247   0.812   6.027  0.3859 -0.3556 -0.2127
    6CHL1  H19A  411   6.299   0.882   5.959 -2.1798  1.2504 -0.6740
    6CHL1  H19B  412   6.289   0.824   6.129  0.5590 -2.6131  0.0433
    6CHL1  H19C  413   6.258   0.705   5.999 -0.6627 -1.4198  2.9960
    6CHL1    C1  414   6.101   1.013   6.084 -0.4124  0.3849 -0.6317
    6CHL1   H1A  415   6.188   1.065   6.038  1.1204 -0.2252  1.4031
    6CHL1   H1B  416   6.009   1.062   6.045 -1.1774 -2.1193 -2.1609
    6CHL1    C2  417   6.110   1.030   6.236 -0.2038 -0.9030 -0.1725
    6CHL1   H2A  418   6.084   1.135   6.259 -2.5804 -1.1952 -1.2152
    6CHL1   H2B  419   6.218   1.022   6.259  0.0308  0.5766 -0.6850
    6CHL1   C20  420   6.036   0.743   5.322  1.0200 -0.2803 -0.1893
    6CHL1   H20  421   6.120   0.670   5.317  2.7001  1.4723  1.1415
    6CHL1   C21  422   6.081   0.888   5.289 -0.0780  0.3902 -0.4852
    6CHL1  H21A  423   6.128   0.879   5.189  0.8430 -1.6743  0.0995
    6CHL1  H21B  424   6.159   0.918   5.361 -0.9083 -3.0342  2.0657
    6CHL1  H21C  425   5.994   0.956   5.273 -0.8971 -0.5924 -0.3355
    6CHL1   C22  426   5.937   0.678   5.225 -0.4713  0.3004  1.0206
    6CHL1  H22A  427   5.936   0.570   5.251 -2.1467 -0.1905 -0.7979
    6CHL1  H22B  428   5.835   0.715   5.249 -0.8968 -0.1964  0.0504
    6CHL1   C23  429   5.966   0.692   5.075 -0.2281  0.5023  0.1539
    6CHL1  H23A  430   5.959   0.799   5.045 -0.6057  1.1596  2.3719
    6CHL1  H23B  431   6.069   0.655   5.054  0.3851  0.8604  2.2557
    6CHL1   C24  432   5.870   0.618   4.982 -0.0479 -0.3366 -0.3490
    6CHL1  H24A  433   5.825   0.529   5.030 -0.2971 -0.3293 -0.5643
    6CHL1  H24B  434   5.787   0.690   4.962  1.0641  0.1273 -4.0382
    6CHL1   C25  435   5.917   0.585   4.843 -0.2745  0.0497 -0.6775
    6CHL1   H25  436   6.005   0.521   4.865 -1.7434 -1.3484  1.4071
    6CHL1   C26  437   5.814   0.499   4.769  0.1827 -0.3035  0.0060
    6CHL1  H26A  438   5.724   0.564   4.760  0.9907  0.7479 -0.6257
    6CHL1  H26B  439   5.853   0.481   4.667  1.0433  3.5107 -0.4834
    6CHL1  H26C  440   5.788   0.402   4.817 -1.0663 -0.0163 -0.0585
    6CHL1   C27  441   5.956   0.707   4.763  0.4252  0.1930  0.2242
    6CHL1  H27A  442   5.865   0.770   4.751  1.0456  1.2395  0.8231
    6CHL1  H27B  443   6.034   0.772   4.809  0.6796 -0.6554  1.0387
    6CHL1  H27C  444   5.997   0.683   4.663 -2.3045 -1.8249 -0.5345
    7CHL1    C3  445   0.077   6.705   6.297  0.2913 -0.7334  0.0639
    7CHL1    H3  446   0.164   6.638   6.280  0.2074  0.0266 -5.1918
    7CHL1    O3  447   0.075   6.741   6.431 -0.5441 -0.1592 -0.0918
    7CHL1   H3'  448   0.054   6.661   6.480 -2.0747  0.8371  0.9921
    7CHL1    C4  449   0.100   6.823   6.210  0.4756 -0.1255  0.5683
    7CHL1   H4A  450   0.037   6.907   6.247  1.4165  0.3488  1.1430
    7CHL1   H4B  451   0.203   6.858   6.232  0.9324 -0.8677 -0.3419
    7CHL1    C5  452   0.080   6.795   6.064  0.0997 -1.5071  0.2383
    7CHL1    C6  453   0.185   6.816   5.980 -0.4443 -0.1392  0.7991
    7CHL1    H6  454   0.278   6.866   6.013 -0.3399 -0.7387  1.4348
    7CHL1    C7  455   0.184   6.788   5.832 -0.5093 -0.3952  0.7697
    7CHL1   H7A  456   0.226   6.874   5.775 -2.4228 -0.7311 -1.3357
    7CHL1   H7B  457   0.237   6.694   5.808  0.6401 -0.3468  2.9088
    7CHL1    C8  458   0.037   6.764   5.791 -0.1555  0.5080  0.1888
    7CHL1    H8  459  -0.007   6.865   5.779  0.4157  0.6420 -0.9890
    7CHL1   C14  460   0.047   6.704   5.644 -1.5555  0.1838 -0.4480
    7CHL1   H14  461   0.087   6.602   5.661 -3.8226 -0.6219  0.3782
    7CHL1   C15  462   0.139   6.773   5.536  0.3100  0.3799 -0.0997
    7CHL1  H15A  463   0.131   6.883   5.538  0.5571  0.3980 -0.0053
    7CHL1  H15B  464   0.244   6.736   5.541  0.4000  0.8187  1.5251
    7CHL1   C16  465   0.077   6.727   5.406  0.4451  0.6210 -0.5370
    7CHL1  H16A  466   0.046   6.814   5.344  1.4334  1.6567  0.3800
    7CHL1  H16B  467   0.141   6.669   5.337 -2.0862 -1.3613 -1.3994
    7CHL1   C17  468  -0.048   6.631   5.438 -0.3960 -0.0086 -1.2104
    7CHL1   H17  469  -0.003   6.530   5.455 -2.9749 -0.9525  0.4704
    7CHL1   C13  470  -0.087   6.678   5.577  0.3201 -0.7058 -0.1263
    7CHL1   C18  471  -0.171   6.805   5.556 -0.4494 -0.5461  0.4088
    7CHL1  H18A  472  -0.114   6.884   5.502 -0.3026 -0.8449  0.1252
    7CHL1  H18B  473  -0.265   6.789   5.500 -1.7122 -0.2580  2.3319
    7CHL1  H18C  474  -0.203   6.836   5.658  0.7664 -0.2201  0.7101
    7CHL1   C12  475  -0.155   6.571   5.669  0.3614 -0.0776 -0.4919
    7CHL1  H12A  476  -0.253   6.537   5.629 -0.1207  1.5531 -0.7996
    7CHL1  H12B  477  -0.090   6.481   5.662 -0.6819 -1.0271  1.3449
    7CHL1   C11  478  -0.172   6.607   5.816 -0.5622 -0.1063 -0.2968
    7CHL1  H11A  479  -0.249   6.687   5.821  0.1807  0.9680 -3.4834
    7CHL1  H11B  480  -0.206   6.518   5.873 -0.4886 -0.2358 -0.4546
    7CHL1    C9  481  -0.037   6.662   5.872  0.6155  0.5900  0.0723
    7CHL1    H9  482   0.029   6.573   5.871 -1.0807 -0.7220 -0.8050
    7CHL1   C10  483  -0.048   6.717   6.017 -0.8692  0.6687  0.1535
    7CHL1   C19  484  -0.174   6.804   6.035  0.1801  0.1784 -0.4486
    7CHL1  H19A  485  -0.173   6.881   5.955 -2.0439  0.7866  0.0557
    7CHL1  H19B  486  -0.261   6.734   6.038  0.1399  0.2533  0.4605
    7CHL1  H19C  487  -0.174   6.863   6.129  1.0556  1.2472 -1.0966
    7CHL1    C1  488  -0.063   6.599   6.108  0.3282 -0.2062 -0.3077
    7CHL1   H1A  489  -0.157   6.545   6.083  0.7974 -1.2964  0.1958
    7CHL1   H1B  490   0.026   6.535   6.089 -0.8251 -1.5692 -1.2984
    7CHL1    C2  491  -0.054   6.631   6.263  0.5427  0.1142  0.8543
    7CHL1   H2A  492  -0.069   6.532   6.311  1.0464 -0.5622 -0.3471
    7CHL1   H2B  493  -0.140   6.699   6.284  0.9561  0.9091 -0.0061
    7CHL1   C20  494  -0.143   6.613   5.322 -0.0292 -0.7407 -0.4996
    7CHL1   H20  495  -0.199   6.709   5.313 -1.2175 -1.4552 -0.9665
    7CHL1   C21  496  -0.232   6.492   5.348 -1.2528 -0.5224 -0.0875
    7CHL1  H21A  497  -0.299   6.481   5.259  1.0928 -0.8994 -1.9224
    7CHL1  H21B  498  -0.299   6.508   5.435 -0.9070 -1.3947  0.3514
    7CHL1  H21C  499  -0.172   6.402   5.375 -2.0836 -0.7334  1.1446
    7CHL1   C22  500  -0.065   6.597   5.190 -0.5014 -0.8926 -0.3426
    7CHL1  H22A  501   0.011   6.676   5.173 -0.4526 -0.1419  2.6786
    7CHL1  H22B  502  -0.016   6.497   5.191  0.2976 -0.5139  0.4422
    7CHL1   C23  503  -0.145   6.595   5.056  0.6135 -0.6714 -0.0807
    7CHL1  H23A  504  -0.188   6.493   5.064  0.8431 -0.8703 -1.2126
    7CHL1  H23B  505  -0.218   6.677   5.042  1.1179 -0.4040 -1.3242
    7CHL1   C24  506  -0.057   6.595   4.930 -0.7327 -0.2609 -0.5390
    7CHL1  H24A  507  -0.024   6.697   4.904 -2.0587  0.5221  0.6974
    7CHL1  H24B  508   0.034   6.533   4.941 -0.1549  0.8532  1.4790
    7CHL1   C25  509  -0.124   6.545   4.806  0.1337  0.0077  0.2873
    7CHL1   H25  510  -0.161   6.447   4.843  1.2107 -0.0968  1.1163
    7CHL1   C26  511  -0.244   6.632   4.755 -0.0409 -0.1158 -0.0882
    7CHL1  H26A  512  -0.199   6.724   4.712 -1.1974  0.4963 -0.0203
    7CHL1  H26B  513  -0.304   6.587   4.673 -0.8016  1.2042 -0.2796
    7CHL1  H26C  514  -0.323   6.645   4.832  0.0678 -1.0855  0.1989
    7CHL1   C27  515  -0.022   6.505   4.691 -0.1505  0.2197 -0.6143
    7CHL1  H27A  516   0.007   6.594   4.630 -0.9841  0.0335 -1.2922
    7CHL1  H27B  517   0.068   6.452   4.729 -1.2035 -0.7059  0.6581
    7CHL1  H27C  518  -0.073   6.437   4.620  1.3172 -2.7635  1.0296
    8CHL1    C3  519   4.875   0.530   6.158  0.1925  0.4450 -0.6245
    8CHL1    H3  520   4.787   0.463   6.169  0.2342  0.5992  0.9020
    8CHL1    O3  521   4.920   0.551   6.295 -0.9615 -0.4225  0.3786
    8CHL1   H3'  522   5.005   0.595   6.290  0.2264 -2.7053 -0.3723
    8CHL1    C4  523   4.969   0.459   6.070 -0.1337  0.4603 -0.2433
    8CHL1   H4A  524   5.066   0.513   6.079  0.7068 -1.1671  0.9577
    8CHL1   H4B  525   4.993   0.356   6.103 -0.0464  0.4487 -0.3444
    8CHL1    C5  526   4.923   0.458   5.926  0.2283  0.8219 -0.4194
    8CHL1    C6  527   4.931   0.340   5.861  0.5395 -0.1352 -0.6298
    8CHL1    H6  528   4.959   0.246   5.912 -0.4469 -0.2369 -0.2593
    8CHL1    C7  529   4.899   0.326   5.717 -0.6255 -0.6649 -0.1253
    8CHL1   H7A  530   4.971   0.254   5.671  0.3878  0.0870  0.2478
    8CHL1   H7B  531   4.803   0.274   5.695 -0.1859 -0.5815 -2.5749
    8CHL1    C8  532   4.906   0.463   5.640  0.7736  0.0460  0.0914
    8CHL1    H8  533   5.014   0.480   5.619  0.7753 -0.6372 -0.5288
    8CHL1   C14  534   4.843   0.443   5.497  0.4712  0.2930  0.2753
    8CHL1   H14  535   4.737   0.415   5.519  1.0378 -1.6369  0.7525
    8CHL1   C15  536   4.885   0.323   5.411  0.5876 -0.0802 -0.2813
    8CHL1  H15A  537   4.995   0.330   5.402  0.8812 -1.4353  1.6006
    8CHL1  H15B  538   4.840   0.229   5.452 -2.1402  1.2756  0.0367
    8CHL1   C16  539   4.824   0.359   5.278 -0.3223  0.3665  0.0365
    8CHL1  H16A  540   4.899   0.352   5.196 -0.1995  1.7493  0.0103
    8CHL1  H16B  541   4.737   0.294   5.256  1.0553 -1.3023 -0.7736
    8CHL1   C17  542   4.771   0.507   5.287  0.2981  0.2448  0.0803
    8CHL1   H17  543   4.663   0.508   5.311 -0.0446 -1.9325 -1.1207
    8CHL1   C13  544   4.833   0.569   5.416  0.5763 -0.4838 -0.5290
    8CHL1   C18  545   4.987   0.603   5.393 -0.0874 -1.6473  0.3767
    8CHL1  H18A  546   5.030   0.631   5.492  0.4457 -1.5611  0.1198
    8CHL1  H18B  547   5.037   0.517   5.344 -0.3785 -2.3035  1.2056
    8CHL1  H18C  548   4.988   0.687   5.321  0.7316 -0.4985  1.6768
    8CHL1   C12  549   4.758   0.677   5.491 -0.9856 -0.2031  0.4815
    8CHL1  H12A  550   4.761   0.767   5.427 -0.4898 -0.4636  0.1348
    8CHL1  H12B  551   4.649   0.656   5.481 -0.5252 -1.7522 -2.1329
    8CHL1   C11  552   4.814   0.699   5.634  0.5936 -0.3810  0.3918
    8CHL1  H11A  553   4.908   0.758   5.628 -0.3682  1.1579  0.0679
    8CHL1  H11B  554   4.744   0.769   5.684 -0.0741 -2.0355  1.8736
    8CHL1    C9  555   4.830   0.569   5.717 -0.3740  0.1073 -0.3865
    8CHL1    H9  556   4.725   0.534   5.722 -0.3967  0.2622  0.2246
    8CHL1   C10  557   4.878   0.590   5.864  0.4540 -0.7187  0.0520
    8CHL1   C19  558   5.006   0.686   5.858  0.1064  0.3023 -0.1335
    8CHL1  H19A  559   5.069   0.682   5.950  0.9882 -0.1685 -0.7417
    8CHL1  H19B  560   5.075   0.650   5.778 -0.9050 -0.1726 -0.8132
    8CHL1  H19C  561   4.965   0.783   5.824 -1.3522 -1.1884 -3.0709
    8CHL1    C1  562   4.774   0.651   5.959 -0.0703  0.4756 -0.6241
    8CHL1   H1A  563   4.747   0.753   5.923 -2.3823 -0.1400 -0.8349
    8CHL1   H1B  564   4.677   0.596   5.951  0.5987 -0.6232 -1.6072
    8CHL1    C2  565   4.820   0.665   6.104  0.8559 -0.4221  0.0510
    8CHL1   H2A  566   4.730   0.694   6.163 -0.6948 -0.5777 -2.0994
    8CHL1   H2B  567   4.898   0.743   6.117 -0.4435  1.1247 -1.0040
    8CHL1   C20  568   4.791   0.586   5.154  0.5489 -0.0947 -0.3845
    8CHL1   H20  569   4.898   0.591   5.124  0.3106  0.2385 -1.1832
    8CHL1   C21  570   4.733   0.729   5.175 -0.5006 -0.4634 -0.4780
    8CHL1  H21A  571   4.715   0.777   5.077 -1.4048 -1.5266 -0.8478
    8CHL1  H21B  572   4.815   0.783   5.226 -0.6259 -0.3353 -0.4126
    8CHL1  H21C  573   4.637   0.718   5.230 -1.2164  2.3397 -1.0477
    8CHL1   C22  574   4.720   0.529   5.027 -0.2711 -0.4355 -0.3507
    8CHL1  H22A  575   4.749   0.604   4.951 -0.1976 -0.5280 -0.4133
    8CHL1  H22B  576   4.780   0.439   5.005  1.8091  0.8664 -0.3178
    8CHL1   C23  577   4.571   0.509   5.031  1.0105 -0.5417 -0.5535
    8CHL1  H23A  578   4.536   0.434   5.105  0.3894 -1.2432 -1.5516
    8CHL1  H23B  579   4.524   0.606   5.060 -0.2025 -1.6628  1.4112
    8CHL1   C24  580   4.524   0.462   4.891 -0.3146  0.4469  0.6369
    8CHL1  H24A  581   4.414   0.469   4.884 -0.4082 -1.0774  0.2862
    8CHL1  H24B  582   4.569   0.536   4.821 -1.5670  0.9542  0.3564
    8CHL1   C25  583   4.554   0.311   4.855  0.3478  0.4518 -0.3144
    8CHL1   H25  584   4.651   0.279   4.898 -0.2228 -0.6744  0.1980
    8CHL1   C26  585   4.453   0.212   4.923 -0.7382 -0.3298  0.2013
    8CHL1  H26A  586   4.483   0.111   4.887 -0.5545 -0.5018  0.8196
    8CHL1  H26B  587   4.474   0.203   5.032 -1.9699 -3.8269  0.2804
    8CHL1  H26C  588   4.346   0.234   4.903 -1.2496 -1.7394  1.2186
    8CHL1   C27  589   4.557   0.278   4.707  0.1663 -0.2916  0.0882
    8CHL1  H27A  590   4.465   0.306   4.650  0.2655  1.0549  0.5513
    8CHL1  H27B  591   4.644   0.332   4.663 -0.6247  0.6933 -0.3235
    8CHL1  H27C  592   4.586   0.171   4.695 -2.5835 -1.1018 -0.0973
    9CHL1    C3  593   0.102   2.905   6.233  0.0568  0.8336 -0.2739
    9CHL1    H3  594   0.211   2.883   6.225 -0.5815 -2.3310 -1.7012
    9CHL1    O3  595   0.050   2.918   6.363  0.0702  0.4763 -0.0706
    9CHL1   H3'  596   0.114   2.974   6.406 -0.8292  2.7380 -1.4832
    9CHL1    C4  597   0.082   3.041   6.155 -0.4126  0.6882 -0.4581
    9CHL1   H4A  598  -0.027   3.061   6.157 -0.6685 -0.0395  4.5355
    9CHL1   H4B  599   0.136   3.120   6.213  1.7206  0.3028 -1.8233
    9CHL1    C5  600   0.118   3.035   6.006  0.0386  0.3343 -0.1178
    9CHL1    C6  601   0.205   3.114   5.942 -0.4166  0.1359  0.3864
    9CHL1    H6  602   0.256   3.198   5.991  0.5496 -0.3382  0.2252
    9CHL1    C7  603   0.230   3.116   5.794  0.6440 -0.5034  0.5738
    9CHL1   H7A  604   0.241   3.217   5.749  2.2122 -0.2511  1.4694
    9CHL1   H7B  605   0.322   3.056   5.780 -0.1591 -1.7311  0.3648
    9CHL1    C8  606   0.131   3.031   5.712 -0.2117 -0.5354  0.6719
    9CHL1    H8  607   0.033   3.084   5.705  0.3648  0.6920  1.5780
    9CHL1   C14  608   0.186   2.995   5.571  0.0825  0.3556 -0.1592
    9CHL1   H14  609   0.277   2.937   5.598  1.5560  2.6770  0.2543
    9CHL1   C15  610   0.240   3.113   5.486 -0.4704  0.4233 -1.0059
    9CHL1  H15A  611   0.176   3.204   5.484 -1.8362 -0.5103 -1.5822
    9CHL1  H15B  612   0.334   3.157   5.523 -0.1937  0.5605 -1.8548
    9CHL1   C16  613   0.240   3.054   5.346 -0.1829 -0.0315  0.1468
    9CHL1  H16A  614   0.186   3.115   5.270  1.7304 -0.3004 -1.5064
    9CHL1  H16B  615   0.343   3.045   5.306  0.1771  0.2956  0.9902
    9CHL1   C17  616   0.173   2.909   5.352  0.3080 -0.6003  0.7030
    9CHL1   H17  617   0.255   2.838   5.379 -0.2707 -1.7688 -0.5037
    9CHL1   C13  618   0.091   2.916   5.486 -0.2302 -0.0894  0.3842
    9CHL1   C18  619  -0.037   2.994   5.446  0.3529  0.4641  0.0938
    9CHL1  H18A  620  -0.108   2.937   5.382  0.1095  0.5073  0.3229
    9CHL1  H18B  621  -0.102   3.033   5.528  0.2188  1.8512 -0.6499
    9CHL1  H18C  622  -0.016   3.087   5.389  1.0763  0.2832  0.0459
    9CHL1   C12  623   0.067   2.791   5.557 -0.1029  0.6485 -0.9481
    9CHL1  H12A  624  -0.005   2.731   5.498 -1.7296  0.4173  1.1618
    9CHL1  H12B  625   0.157   2.727   5.569 -1.3698 -1.5618 -2.5223
    9CHL1   C11  626   0.012   2.811   5.696  0.3437  0.0837 -0.4580
    9CHL1  H11A  627  -0.090   2.849   5.673  0.2025 -0.5689 -0.9208
    9CHL1  H11B  628  -0.001   2.719   5.756 -0.0727  1.0335  0.9642
    9CHL1    C9  629   0.100   2.904   5.788  0.2210  0.0482  0.2960
    9CHL1    H9  630   0.200   2.860   5.804  1.1982  1.6634 -1.0861
    9CHL1   C10  631   0.042   2.926   5.935  0.4919 -0.1514  0.3023
    9CHL1   C19  632  -0.111   2.945   5.918  0.6720 -0.1116  0.1879
    9CHL1  H19A  633  -0.145   3.005   5.831 -0.9636 -2.2596 -0.7643
    9CHL1  H19B  634  -0.158   2.845   5.906  0.5489 -0.0279 -0.0261
    9CHL1  H19C  635  -0.156   2.975   6.015  0.5046 -2.0620  0.7625
    9CHL1    C1  636   0.058   2.796   6.014  0.3207  0.2821  0.0088
    9CHL1   H1A  637  -0.004   2.717   5.968 -1.4966  1.7821 -0.2321
    9CHL1   H1B  638   0.164   2.762   6.015 -0.0754 -1.1257 -1.7522
    9CHL1    C2  639   0.011   2.801   6.155 -0.3139  0.1686 -0.2675
    9CHL1   H2A  640   0.028   2.712   6.220  0.4303  0.6328  0.1984
    9CHL1   H2B  641  -0.093   2.833   6.172 -0.0902 -0.3237  2.4820
    9CHL1   C20  642   0.110   2.859   5.220 -0.0944  0.3738 -0.8541
    9CHL1   H20  643   0.018   2.918   5.198  0.8866  2.2960 -0.0212
    9CHL1   C21  644   0.069   2.714   5.247 -0.6721 -0.0076 -0.1588
    9CHL1  H21A  645  -0.030   2.719   5.298 -0.2965  0.8273  0.5029
    9CHL1  H21B  646   0.140   2.644   5.294  0.3033  0.0569 -1.4637
    9CHL1  H21C  647   0.045   2.666   5.149  0.6689  0.7725 -0.9092
    9CHL1   C22  648   0.195   2.865   5.093 -0.6255 -1.3800 -0.1981
    9CHL1  H22A  649   0.264   2.951   5.095 -1.2213 -0.9107  0.7720
    9CHL1  H22B  650   0.263   2.778   5.103  0.0584 -0.9023 -0.5899
    9CHL1   C23  651   0.115   2.864   4.961 -1.1008 -0.1538  0.0511
    9CHL1  H23A  652   0.036   2.786   4.968 -0.0594 -1.1315  1.5966
    9CHL1  H23B  653   0.069   2.965   4.959  2.5287  1.6848 -2.3224
    9CHL1   C24  654   0.197   2.845   4.833 -0.3591  1.0458  0.8408
    9CHL1  H24A  655   0.264   2.933   4.820  0.0470  0.5759 -0.4900
    9CHL1  H24B  656   0.254   2.749   4.840  1.5769  2.0232 -0.4771
    9CHL1   C25  657   0.115   2.825   4.697  0.2918 -0.1771  0.2737
    9CHL1   H25  658   0.181   2.833   4.608 -1.8881  0.7388 -1.3513
    9CHL1   C26  659   0.048   2.687   4.694 -0.1262 -0.3327  0.4037
    9CHL1  H26A  660  -0.036   2.680   4.766  0.2256  0.6302  0.9203
    9CHL1  H26B  661   0.009   2.662   4.593  0.1971 -0.5104  0.3217
    9CHL1  H26C  662   0.119   2.611   4.734 -0.3934 -0.9056 -0.1958
    9CHL1   C27  663   0.007   2.934   4.676 -0.1662  0.0546  0.1448
    9CHL1  H27A  664  -0.045   2.928   4.578 -1.0931  2.6479  0.4136
    9CHL1  H27B  665  -0.074   2.916   4.750 -0.2198 -1.0726 -0.1594
    9CHL1  H27C  666   0.041   3.040   4.675 -0.7092  0.2373  0.4754
   10CHL1    C3  667   6.764   3.877   6.510 -0.9115 -0.7020 -0.0077
   10CHL1    H3  668   6.812   3.779   6.495  0.2330 -0.2978  0.8386
   10CHL1    O3  669   6.750   3.925   6.647  0.0453  0.7529  0.4946
   10CHL1   H3'  670   6.670   3.976   6.659 -0.4950 -0.2794  1.4471
   10CHL1    C4  671   6.852   3.986   6.446  0.3893 -1.0923  0.3276
   10CHL1   H4A  672   6.805   4.085   6.465 -0.6664 -1.6320  0.6026
   10CHL1   H4B  673   6.952   3.983   6.495  1.4335 -1.3713 -1.6814
   10CHL1    C5  674   6.863   3.967   6.293  0.2715  0.0069 -0.6014
   10CHL1    C6  675   6.982   3.957   6.234 -0.3382  0.5363 -0.3558
   10CHL1    H6  676   7.075   3.965   6.292  0.0556 -0.8278 -0.7610
   10CHL1    C7  677   6.997   3.950   6.084  0.0138  0.2729 -0.7189
   10CHL1   H7A  678   7.064   4.032   6.050  1.4725  0.0901  1.5451
   10CHL1   H7B  679   7.049   3.857   6.055 -2.1007 -1.5643  0.9814
   10CHL1    C8  680   6.865   3.970   6.010 -0.0795  0.9735 -0.0018
   10CHL1    H8  681   6.843   4.079   6.007 -1.9231  0.6391  0.3462
   10CHL1   C14  682   6.881   3.908   5.866 -0.6408 -0.9194  0.5917
   10CHL1   H14  683   6.907   3.803   5.891  2.6716 -0.1147  0.9074
   10CHL1   C15  684   6.997   3.961   5.781  0.7071  0.4531 -0.8314
   10CHL1  H15A  685   6.995   4.071   5.792  0.6235  0.2749  1.4128
   10CHL1  H15B  686   7.089   3.919   5.827 -1.1350  0.6416  3.5696
   10CHL1   C16  687   6.956   3.905   5.642  0.1899  0.6722 -0.5330
   10CHL1  H16A  688   6.964   3.992   5.574  1.0843  0.6107 -0.5140
   10CHL1  H16B  689   7.030   3.829   5.609  0.7802  0.1568  1.7542
   10CHL1   C17  690   6.812   3.848   5.654  0.3074  0.1710  0.1029
   10CHL1   H17  691   6.824   3.738   5.662 -0.3363  0.0202 -0.8072
   10CHL1   C13  692   6.758   3.905   5.789 -0.6208  0.1948  0.0412
   10CHL1   C18  693   6.709   4.052   5.775 -0.2668  0.1321  0.6226
   10CHL1  H18A  694   6.785   4.107   5.715  0.7126 -0.9068  0.8574
   10CHL1  H18B  695   6.618   4.050   5.712  0.2196 -1.5015 -0.0938
   10CHL1  H18C  696   6.683   4.097   5.873  1.1711  0.1109  1.0471
   10CHL1   C12  697   6.655   3.817   5.859  0.6637  0.3474  0.0206
   10CHL1  H12A  698   6.559   3.818   5.804  0.8861 -0.8893 -0.4427
   10CHL1  H12B  699   6.704   3.717   5.851  2.4777  1.0887  1.1915
   10CHL1   C11  700   6.626   3.868   5.998  0.4957  0.4930 -0.0178
   10CHL1  H11A  701   6.569   3.960   5.971 -1.5334 -0.9590 -0.9519
   10CHL1  H11B  702   6.555   3.795   6.044 -0.9444  1.2410 -0.9596
   10CHL1    C9  703   6.754   3.892   6.081 -0.5220  0.6895 -0.4964
   10CHL1    H9  704   6.798   3.790   6.093 -1.6422  0.2360 -0.1441
   10CHL1   C10  705   6.725   3.953   6.224  0.1124  0.4633 -0.0294
   10CHL1   C19  706   6.643   4.084   6.215  0.3065  1.4306 -0.4134
   10CHL1  H19A  707   6.688   4.152   6.139  2.8020 -0.2492 -0.5986
   10CHL1  H19B  708   6.543   4.059   6.175  0.4972  1.6881 -1.0701
   10CHL1  H19C  709   6.644   4.133   6.314 -0.4758 -0.6362  0.6646
   10CHL1    C1  710   6.631   3.853   6.302 -0.1281 -0.7262 -1.1117
   10CHL1   H1A  711   6.531   3.872   6.257  0.1575  1.5280 -0.9166
   10CHL1   H1B  712   6.666   3.751   6.278  2.4246 -0.3880  0.7901
   10CHL1    C2  713   6.628   3.884   6.452  0.7179  0.1420 -0.1283
   10CHL1   H2A  714   6.564   3.812   6.508 -1.8645  2.4575  0.1159
   10CHL1   H2B  715   6.575   3.979   6.472 -0.8800 -0.7213 -0.0844
   10CHL1   C20  716   6.735   3.876   5.527  0.6218  0.5905  0.5935
   10CHL1   H20  717   6.707   3.984   5.532 -1.9276 -0.0585  1.4054
   10CHL1   C21  718   6.596   3.813   5.536  0.1281 -0.1011  0.4796
   10CHL1  H21A  719   6.618   3.710   5.572  2.6634  0.5002  0.8515
   10CHL1  H21B  720   6.536   3.799   5.444  2.3611  0.5832 -1.1418
   10CHL1  H21C  721   6.524   3.847   5.614  1.7144 -1.6991  2.7749
   10CHL1   C22  722   6.792   3.843   5.398  0.1760  0.2361  0.2755
   10CHL1  H22A  723   6.721   3.875   5.319 -0.2979 -0.9108  0.2143
   10CHL1  H22B  724   6.868   3.921   5.378 -2.2727  3.0689  1.2046
   10CHL1   C23  725   6.841   3.694   5.379 -0.3609 -0.2211 -0.1101
   10CHL1  H23A  726   6.926   3.664   5.444  0.1969 -0.3318 -0.8825
   10CHL1  H23B  727   6.759   3.620   5.392 -1.9018  1.4515  0.1922
   10CHL1   C24  728   6.910   3.686   5.242  0.2101 -0.3650 -0.3095
   10CHL1  H24A  729   6.850   3.738   5.165  0.1045 -1.9692 -1.3722
   10CHL1  H24B  730   7.010   3.732   5.247  0.8307 -1.6148 -0.8360
   10CHL1   C25  731   6.909   3.546   5.191  0.3039 -0.1618 -0.3811
   10CHL1   H25  732   6.800   3.526   5.181 -0.1807  0.5421  2.4922
   10CHL1   C26  733   6.970   3.523   5.047 -0.0272 -0.5883  0.3229
   10CHL1  H26A  734   6.904   3.567   4.970  0.4492 -0.0653  0.2060
   10CHL1  H26B  735   7.065   3.581   5.040  1.4977 -2.7757  1.5331
   10CHL1  H26C  736   6.991   3.415   5.029  0.6012 -0.5120  0.5839
   10CHL1   C27  737   6.988   3.444   5.278 -0.3476 -0.5115  0.0123
   10CHL1  H27A  738   6.970   3.462   5.386 -0.3009 -2.3345  0.3586
   10CHL1  H27B  739   6.958   3.342   5.246  0.4458 -0.7284 -0.0729
   10CHL1  H27C  740   7.096   3.454   5.253 -0.2493 -1.8752 -0.2200
   11CHL1    C3  741   4.196   6.106   5.993  0.2658  0.3638 -0.1789
   11CHL1    H3  742   4.285   6.145   5.939 -1.3664  2.9919 -1.1923
   11CHL1    O3  743   4.221   6.114   6.132 -0.3215 -0.0676  0.1313
   11CHL1   H3'  744   4.280   6.042   6.153 -1.8568 -1.4515 -0.1598
   11CHL1    C4  745   4.078   6.196   5.957 -0.1316 -0.1416 -0.1759
   11CHL1   H4A  746   3.986   6.150   6.000  1.5088 -2.6540  0.8866
   11CHL1   H4B  747   4.099   6.298   5.997 -1.8592  1.2186 -2.5299
   11CHL1    C5  748   4.052   6.194   5.808  0.0893  0.3364 -0.0721
   11CHL1    C6  749   4.058   6.302   5.735  0.8640 -0.0367  0.2540
   11CHL1    H6  750   4.080   6.395   5.790  0.8203 -0.7108  1.4237
   11CHL1    C7  751   4.034   6.316   5.587  0.0118  0.4981  0.4962
   11CHL1   H7A  752   3.965   6.402   5.573  0.9889  1.1906 -0.2463
   11CHL1   H7B  753   4.123   6.346   5.528 -0.7103 -2.3014 -2.2876
   11CHL1    C8  754   3.970   6.193   5.527  0.4183  0.2335 -0.0219
   11CHL1    H8  755   3.860   6.194   5.546  0.3608  2.2590 -0.2585
   11CHL1   C14  756   4.007   6.190   5.376 -0.3130 -0.6447 -0.2913
   11CHL1   H14  757   4.117   6.191   5.363 -0.1698  0.0150  0.8075
   11CHL1   C15  758   3.959   6.311   5.297  0.1200 -1.1776  0.3540
   11CHL1  H15A  759   3.857   6.340   5.331  0.8676  1.1270  0.8719
   11CHL1  H15B  760   4.023   6.401   5.309  0.4318 -1.3124 -0.2750
   11CHL1   C16  761   3.991   6.272   5.152  0.3898 -0.3119 -1.1694
   11CHL1  H16A  762   3.900   6.286   5.090 -1.2629 -0.4679  1.0827
   11CHL1  H16B  763   4.074   6.327   5.104 -0.5251  0.3883 -2.0022
   11CHL1   C17  764   4.018   6.118   5.159  0.8159  0.9786 -0.3219
   11CHL1   H17  765   4.129   6.112   5.163  0.9146  2.2499 -0.7421
   11CHL1   C13  766   3.965   6.072   5.296 -0.5970  0.3861  0.1343
   11CHL1   C18  767   3.810   6.064   5.289 -0.1995  0.5921 -0.6431
   11CHL1  H18A  768   3.785   5.976   5.226 -0.1187 -0.5161  0.8150
   11CHL1  H18B  769   3.755   6.053   5.385 -0.9782  1.1079 -1.0172
   11CHL1  H18C  770   3.754   6.152   5.249 -1.7534 -0.4462 -0.8270
   11CHL1   C12  771   4.030   5.951   5.366  0.3138 -0.8554 -0.3071
   11CHL1  H12A  772   3.994   5.860   5.314  0.7714 -0.9853 -0.3991
   11CHL1  H12B  773   4.139   5.961   5.346  0.2664  1.8526  0.3456
   11CHL1   C11  774   3.993   5.934   5.508 -1.2139  0.5603  0.2656
   11CHL1  H11A  775   3.885   5.913   5.514 -1.3393  1.5524  2.7461
   11CHL1  H11B  776   4.041   5.847   5.557 -1.5941  0.1327 -0.1169
   11CHL1    C9  777   4.035   6.063   5.586  0.3132 -0.3461 -0.8949
   11CHL1    H9  778   4.143   6.080   5.564 -0.1230 -0.1557 -3.1655
   11CHL1   C10  779   4.036   6.053   5.743 -0.0024 -0.5722 -0.3351
   11CHL1   C19  780   3.897   5.987   5.778 -0.7287  0.4095 -0.2491
   11CHL1  H19A  781   3.900   5.884   5.737 -2.9888  0.2443 -0.1301
   11CHL1  H19B  782   3.877   5.991   5.888  0.3743 -1.4222  0.0543
   11CHL1  H19C  783   3.820   6.044   5.722 -0.1887  0.5547 -0.8392
   11CHL1    C1  784   4.151   5.960   5.789 -0.4246  0.4187  0.0248
   11CHL1   H1A  785   4.137   5.851   5.771  1.1921 -0.0533  1.2599
   11CHL1   H1B  786   4.251   5.991   5.752  1.4836  0.3576  4.4649
   11CHL1    C2  787   4.168   5.957   5.950  0.6587 -1.3856  0.7710
   11CHL1   H2A  788   4.253   5.887   5.967  1.3306 -0.8334 -0.2365
   11CHL1   H2B  789   4.070   5.928   5.993  0.7870 -2.0717  0.6156
   11CHL1   C20  790   3.974   6.048   5.031  0.1952  0.7151  0.7540
   11CHL1   H20  791   3.869   6.070   5.004  0.6157  1.6056 -0.2434
   11CHL1   C21  792   4.003   5.899   5.036  0.0978  0.4128  0.6026
   11CHL1  H21A  793   3.981   5.855   4.937  1.0634  1.2811 -0.0216
   11CHL1  H21B  794   3.964   5.841   5.123  1.2791 -1.3506  0.0093
   11CHL1  H21C  795   4.112   5.881   5.050 -0.2491 -1.1315  1.5504
   11CHL1   C22  796   4.054   6.107   4.911  0.0849  0.8720  0.0599
   11CHL1  H22A  797   4.050   6.218   4.916  0.7137  0.8560  1.1125
   11CHL1  H22B  798   4.161   6.080   4.918 -0.4769 -1.0577  3.0584
   11CHL1   C23  799   3.986   6.086   4.772  0.2375 -0.5765  0.2469
   11CHL1  H23A  800   3.963   5.980   4.746 -0.6471 -1.3353  3.6472
   11CHL1  H23B  801   3.887   6.134   4.782  0.4830 -0.3136  1.4591
   11CHL1   C24  802   4.058   6.154   4.653  0.1088  0.3352  0.0072
   11CHL1  H24A  803   3.976   6.177   4.582 -0.0268  2.7965  0.8661
   11CHL1  H24B  804   4.089   6.257   4.679  0.1025  0.4459 -0.4179
   11CHL1   C25  805   4.170   6.069   4.599  0.7164  0.0643  0.9861
   11CHL1   H25  806   4.239   6.045   4.683  3.4866 -0.4670 -1.2875
   11CHL1   C26  807   4.135   5.930   4.547 -0.2119 -0.4456 -0.5582
   11CHL1  H26A  808   4.123   5.856   4.628 -0.8149 -0.3373 -0.5407
   11CHL1  H26B  809   4.053   5.932   4.471 -1.3265  0.2738  0.6244
   11CHL1  H26C  810   4.229   5.896   4.499 -0.5896 -2.3183 -0.0337
   11CHL1   C27  811   4.249   6.147   4.481  0.6940  0.1592  0.1231
   11CHL1  H27A  812   4.284   6.247   4.511  1.2386 -0.2317  0.8071
   11CHL1  H27B  813   4.339   6.091   4.449  1.9780  2.4725 -0.5083
   11CHL1  H27C  814   4.173   6.169   4.403  0.4898 -0.8884  0.0037
   12CHL1    C3  815   5.642   6.539   6.216 -0.2424 -0.0147 -0.0404
   12CHL1    H3  816   5.615   6.647   6.208 -0.8574 -0.1928 -0.4208
   12CHL1    O3  817   5.662   6.526   6.353 -0.4843  0.5496  0.1713
   12CHL1   H3'  818   5.722   6.451   6.362 -0.6244  0.4365  0.1679
   12CHL1    C4  819   5.545   6.435   6.182  0.2575 -0.2120  0.2853
   12CHL1   H4A  820   5.567   6.332   6.217  0.0575 -1.2887 -2.5161
   12CHL1   H4B  821   5.446   6.450   6.229  0.4205 -2.3081  1.4342
   12CHL1    C5  822   5.535   6.433   6.035  0.0850  0.4487  1.1300
   12CHL1    C6  823   5.408   6.442   5.983  0.3234  0.6438 -0.3651
   12CHL1    H6  824   5.326   6.449   6.056 -1.1867 -0.2822 -1.9076
   12CHL1    C7  825   5.373   6.437   5.835  0.1775 -0.5295  0.7868
   12CHL1   H7A  826   5.302   6.352   5.830  0.2244 -0.5637  0.7016
   12CHL1   H7B  827   5.325   6.534   5.807 -0.2773 -0.6769  1.0420
   12CHL1    C8  828   5.494   6.398   5.752 -0.4984 -0.5031  0.0464
   12CHL1    H8  829   5.516   6.289   5.747  1.5621 -0.0985 -1.5807
   12CHL1   C14  830   5.471   6.445   5.605 -1.1617 -0.0063  0.0188
   12CHL1   H14  831   5.457   6.555   5.610  1.3932  0.4779 -1.6618
   12CHL1   C15  832   5.348   6.390   5.532 -0.1482 -0.0417  0.6886
   12CHL1  H15A  833   5.345   6.281   5.553 -0.4998 -0.6618 -2.1583
   12CHL1  H15B  834   5.252   6.432   5.567  0.6853  1.6298  1.0882
   12CHL1   C16  835   5.378   6.416   5.386  0.6508  0.1415  0.0643
   12CHL1  H16A  836   5.381   6.320   5.330 -1.8532  1.7447 -3.1661
   12CHL1  H16B  837   5.297   6.463   5.326  0.0865 -1.4351 -0.4583
   12CHL1   C17  838   5.527   6.470   5.379  0.7282  0.2062  0.2023
   12CHL1   H17  839   5.519   6.581   5.373  0.5570  0.3800  2.7059
   12CHL1   C13  840   5.589   6.432   5.510  0.1225 -0.0401  0.3004
   12CHL1   C18  841   5.634   6.280   5.505  0.3198 -0.0252 -0.0353
   12CHL1  H18A  842   5.704   6.262   5.420 -0.7037  0.4228 -1.0026
   12CHL1  H18B  843   5.675   6.247   5.603  0.3691  0.6196  0.1653
   12CHL1  H18C  844   5.545   6.217   5.484 -2.3265  2.5039  2.6776
   12CHL1   C12  845   5.699   6.523   5.563  0.2497 -0.1297  0.1613
   12CHL1  H12A  846   5.787   6.511   5.496 -0.3790 -2.1455 -0.3685
   12CHL1  H12B  847   5.665   6.629   5.572 -0.5796 -0.2425 -1.3290
   12CHL1   C11  848   5.741   6.485   5.702 -0.1566 -1.1865 -0.7520
   12CHL1  H11A  849   5.790   6.385   5.703  1.6133 -0.5095  3.6654
   12CHL1  H11B  850   5.819   6.555   5.739  1.4533 -2.4673 -1.6161
   12CHL1    C9  851   5.619   6.475   5.806  0.6001 -0.0098  0.1906
   12CHL1    H9  852   5.588   6.581   5.817  0.6065  0.2643 -1.9084
   12CHL1   C10  853   5.661   6.433   5.942  0.1444  0.0718 -0.4343
   12CHL1   C19  854   5.715   6.287   5.945 -0.2948  0.0505 -0.0765
   12CHL1  H19A  855   5.807   6.285   5.883 -0.2726 -0.4460 -0.0338
   12CHL1  H19B  856   5.748   6.258   6.047  1.1657  3.1488  0.4482
   12CHL1  H19C  857   5.637   6.213   5.918 -1.9200  1.2230  1.1901
   12CHL1    C1  858   5.764   6.538   6.006  0.9679  0.6103  0.0643
   12CHL1   H1A  859   5.858   6.515   5.950 -0.5405 -1.2591 -1.8817
   12CHL1   H1B  860   5.736   6.642   5.978  0.0074 -0.3471 -2.9918
   12CHL1    C2  861   5.779   6.519   6.154 -1.0246 -0.2045  0.2698
   12CHL1   H2A  862   5.846   6.601   6.189  1.5063 -1.5442 -1.1700
   12CHL1   H2B  863   5.827   6.423   6.184 -0.6363  0.3098  1.3458
   12CHL1   C20  864   5.588   6.424   5.244 -0.2924 -0.4227  0.3421
   12CHL1   H20  865   5.608   6.315   5.245 -1.8357 -0.7857 -1.5428
   12CHL1   C21  866   5.729   6.493   5.219  0.0030  0.1058  0.0754
   12CHL1  H21A  867   5.706   6.602   5.225 -2.4309 -0.3332 -0.3042
   12CHL1  H21B  868   5.782   6.477   5.123  0.3735 -0.0384  0.3002
   12CHL1  H21C  869   5.799   6.455   5.297  0.2901 -1.1750 -0.7835
   12CHL1   C22  870   5.484   6.443   5.121 -0.3386 -0.4732 -0.2444
   12CHL1  H22A  871   5.392   6.384   5.136 -0.1782 -0.5093  0.6252
   12CHL1  H22B  872   5.448   6.548   5.125  0.8973 -0.0138 -0.4749
   12CHL1   C23  873   5.552   6.420   4.985 -0.0929 -0.4513 -0.3198
   12CHL1  H23A  874   5.627   6.499   4.964  0.1466 -0.0548  1.7975
   12CHL1  H23B  875   5.605   6.322   4.984  0.3261 -0.2588 -2.8114
   12CHL1   C24  876   5.461   6.420   4.868  0.0899 -0.0433  0.0014
   12CHL1  H24A  877   5.386   6.341   4.889 -0.8512  0.8030 -0.1159
   12CHL1  H24B  878   5.389   6.502   4.847  1.8374  1.4681 -0.2759
   12CHL1   C25  879   5.536   6.389   4.736  0.0256 -0.0216 -0.2888
   12CHL1   H25  880   5.586   6.291   4.747 -0.7206 -0.2478  1.4019
   12CHL1   C26  881   5.429   6.370   4.617 -0.6904  0.5396 -0.0757
   12CHL1  H26A  882   5.384   6.471   4.612  0.6716  1.1379 -0.8480
   12CHL1  H26B  883   5.477   6.336   4.523 -2.2802 -0.0816 -0.7087
   12CHL1  H26C  884   5.357   6.288   4.641  1.1961 -1.8055 -1.8486
   12CHL1   C27  885   5.625   6.506   4.693 -0.1895 -0.8454 -0.0277
   12CHL1  H27A  886   5.676   6.489   4.596 -1.2214 -0.2753 -0.6892
   12CHL1  H27B  887   5.559   6.595   4.683  1.0364  0.1169  0.1690
   12CHL1  H27C  888   5.703   6.525   4.770 -1.0529 -2.7131  1.3567
   13CHL1    C3  889   4.792   5.777   6.245 -0.3362  0.3519  0.8511
   13CHL1    H3  890   4.749   5.874   6.280 -2.5675 -0.3963  0.2859
   13CHL1    O3  891   4.838   5.700   6.354 -0.6195  0.8534  0.2710
   13CHL1   H3'  892   4.839   5.776   6.412 -2.5563  0.1774  1.2658
   13CHL1    C4  893   4.697   5.696   6.162 -0.1671  0.4019 -1.0267
   13CHL1   H4A  894   4.734   5.592   6.148 -3.7708 -1.3509  0.9212
   13CHL1   H4B  895   4.602   5.693   6.219  0.4395 -1.6899 -0.0426
   13CHL1    C5  896   4.674   5.760   6.031 -0.0684  0.9698  0.0543
   13CHL1    C6  897   4.546   5.773   5.991  0.5005  0.3216  0.9193
   13CHL1    H6  898   4.461   5.746   6.056  0.0623  0.8742  0.5787
   13CHL1    C7  899   4.505   5.797   5.850 -0.4295 -0.4113 -0.4426
   13CHL1   H7A  900   4.427   5.728   5.811 -0.3666 -0.7183 -0.0359
   13CHL1   H7B  901   4.470   5.902   5.858  0.4843 -0.1450  0.3115
   13CHL1    C8  902   4.629   5.790   5.760  0.1086  0.5508 -0.5866
   13CHL1    H8  903   4.644   5.681   5.743  3.0340  0.9027 -0.7065
   13CHL1   C14  904   4.592   5.859   5.626 -0.1280  0.7434  1.1362
   13CHL1   H14  905   4.581   5.965   5.655  1.0615  0.7036  1.7873
   13CHL1   C15  906   4.461   5.819   5.553  0.0976  0.0265  0.0432
   13CHL1  H15A  907   4.446   5.709   5.555  2.7348 -0.4281 -0.8364
   13CHL1  H15B  908   4.370   5.872   5.589  0.3284 -0.0066  0.6874
   13CHL1   C16  909   4.482   5.864   5.408 -0.5721 -1.2022 -0.4123
   13CHL1  H16A  910   4.429   5.792   5.343 -1.0718  0.0612 -1.4305
   13CHL1  H16B  911   4.436   5.964   5.393  2.3479  0.6790  1.8518
   13CHL1   C17  912   4.643   5.896   5.395 -0.2775 -0.0117 -0.1738
   13CHL1   H17  913   4.658   6.006   5.388 -2.0910  0.4951  2.4057
   13CHL1   C13  914   4.706   5.847   5.524 -0.2319  0.1163 -0.0185
   13CHL1   C18  915   4.744   5.692   5.501  0.4813  0.5895 -0.3430
   13CHL1  H18A  916   4.822   5.674   5.424  0.6139 -1.7124  0.2390
   13CHL1  H18B  917   4.791   5.658   5.596  2.1609 -2.4239 -2.0788
   13CHL1  H18C  918   4.653   5.639   5.465  0.8718 -0.1410 -0.2812
   13CHL1   C12  919   4.831   5.925   5.578 -0.0213  0.4034  0.1280
   13CHL1  H12A  920   4.913   5.919   5.503  0.2168  0.7069  0.3628
   13CHL1  H12B  921   4.796   6.026   5.609 -1.6265 -0.2929  0.6436
   13CHL1   C11  922   4.874   5.867   5.719 -0.1779  0.5404  0.2063
   13CHL1  H11A  923   4.931   5.774   5.697 -1.5283  0.1551 -1.9559
   13CHL1  H11B  924   4.948   5.933   5.771  0.3582  0.7368 -0.7652
   13CHL1    C9  925   4.758   5.855   5.818 -0.1321 -0.1852 -0.2212
   13CHL1    H9  926   4.728   5.959   5.842  0.0345 -0.3424  0.7186
   13CHL1   C10  927   4.800   5.782   5.946 -0.3351 -1.0259 -0.1974
   13CHL1   C19  928   4.863   5.650   5.916 -0.5664 -0.5364  0.2897
   13CHL1  H19A  929   4.792   5.609   5.841 -0.3913  2.3337 -1.6211
   13CHL1  H19B  930   4.963   5.648   5.868 -0.1650  1.3071  0.9618
   13CHL1  H19C  931   4.872   5.580   6.002 -1.9228 -0.1227  0.8010
   13CHL1    C1  932   4.893   5.877   6.034 -0.6331  0.2909  0.0227
   13CHL1   H1A  933   4.991   5.905   5.990 -1.6725  1.7833 -1.4841
   13CHL1   H1B  934   4.843   5.973   6.061  1.0684  1.3129 -0.3274
   13CHL1    C2  935   4.928   5.811   6.173  0.6348 -0.0891  0.0077
   13CHL1   H2A  936   4.987   5.883   6.234  0.8093 -0.6708  0.5373
   13CHL1   H2B  937   4.984   5.718   6.150  0.2492  0.3951 -3.3587
   13CHL1   C20  938   4.695   5.843   5.260 -0.1721 -0.5253  0.7142
   13CHL1   H20  939   4.678   5.734   5.249  0.0380 -0.4314 -0.6973
   13CHL1   C21  940   4.845   5.880   5.241  0.1693 -0.6384  0.2726
   13CHL1  H21A  941   4.877   5.850   5.139 -0.2371 -1.3278  0.3469
   13CHL1  H21B  942   4.913   5.829   5.312  0.0304 -0.3338  0.6248
   13CHL1  H21C  943   4.858   5.990   5.249 -0.7201 -0.5145  0.1044
   13CHL1   C22  944   4.619   5.899   5.137 -1.0919 -0.3120  0.7957
   13CHL1  H22A  945   4.514   5.919   5.167 -1.3147 -2.0319  1.2405
   13CHL1  H22B  946   4.658   5.999   5.107 -0.5433 -1.5029 -3.0464
   13CHL1   C23  947   4.632   5.809   5.007 -0.2064 -0.2500  0.7756
   13CHL1  H23A  948   4.740   5.790   4.987 -0.7936 -1.9181 -1.1954
   13CHL1  H23B  949   4.583   5.714   5.036 -0.0482 -0.2724  0.9675
   13CHL1   C24  950   4.570   5.879   4.883 -0.0161  0.1351 -0.2309
   13CHL1  H24A  951   4.470   5.907   4.921  1.3521  2.0044  2.3096
   13CHL1  H24B  952   4.601   5.986   4.871 -0.0499  0.2127  0.3794
   13CHL1   C25  953   4.568   5.807   4.748 -0.0916  0.3059 -0.0568
   13CHL1   H25  954   4.525   5.705   4.758 -0.6315  0.3053 -2.0611
   13CHL1   C26  955   4.488   5.891   4.647 -0.2377  0.6634  0.0971
   13CHL1  H26A  956   4.381   5.898   4.676 -1.0052 -1.0842 -2.0352
   13CHL1  H26B  957   4.532   5.992   4.660 -0.0068  0.4972  0.6085
   13CHL1  H26C  958   4.495   5.858   4.541  2.9200  0.0255  0.4175
   13CHL1   C27  959   4.709   5.794   4.680  0.0939 -0.2396  0.6160
   13CHL1  H27A  960   4.734   5.900   4.656  0.8437 -0.4732  0.3410
   13CHL1  H27B  961   4.777   5.755   4.759 -0.5713 -1.8792  0.4024
   13CHL1  H27C  962   4.701   5.729   4.591 -2.4868 -0.7826  1.1936
   14CHL1    C3  963   4.565   2.743   6.277  0.6618 -0.1541 -0.1842
   14CHL1    H3  964   4.509   2.649   6.257  0.3388 -0.1618  0.7185
   14CHL1    O3  965   4.520   2.794   6.402  0.0871 -0.1538  0.4079
   14CHL1   H3'  966   4.574   2.873   6.402 -0.3219  0.1304 -0.1236
   14CHL1    C4  967   4.710   2.708   6.285  0.1773  0.2957  0.4721
   14CHL1   H4A  968   4.780   2.789   6.314  1.6771 -1.0823  0.8703
   14CHL1   H4B  969   4.736   2.635   6.365  3.8833  1.3110  0.4007
   14CHL1    C5  970   4.768   2.654   6.151  0.4954 -0.4099  0.4463
   14CHL1    C6  971   4.838   2.542   6.151 -1.0231 -0.4931  0.0954
   14CHL1    H6  972   4.854   2.486   6.244 -3.9465 -0.2527  0.8484
   14CHL1    C7  973   4.896   2.486   6.022  0.7311 -0.2719  0.2562
   14CHL1   H7A  974   4.995   2.438   6.032  1.7442  1.5636 -0.4464
   14CHL1   H7B  975   4.815   2.423   5.980 -0.9164  3.0281 -2.0107
   14CHL1    C8  976   4.907   2.603   5.911 -0.0238 -0.0857  0.0162
   14CHL1    H8  977   4.987   2.675   5.939 -2.3853  2.4003  0.8658
   14CHL1   C14  978   4.940   2.539   5.778  0.1650  0.9884  0.0730
   14CHL1   H14  979   4.857   2.468   5.758  1.0327 -0.6443  1.8979
   14CHL1   C15  980   5.062   2.444   5.770 -0.7129  0.0941  0.2122
   14CHL1  H15A  981   5.156   2.492   5.803 -0.3738  1.2583 -2.1727
   14CHL1  H15B  982   5.035   2.348   5.819 -1.6885  0.6292  0.7467
   14CHL1   C16  983   5.078   2.421   5.618 -0.0916 -0.0166 -0.0250
   14CHL1  H16A  984   5.183   2.440   5.587  0.3671  0.5724  1.7953
   14CHL1  H16B  985   5.056   2.316   5.587 -0.0045 -0.5985  1.7704
   14CHL1   C17  986   4.990   2.523   5.550  0.4941  0.1608  0.4029
   14CHL1   H17  987   4.899   2.462   5.532  1.1751 -1.2061  1.4460
   14CHL1   C13  988   4.943   2.628   5.659 -0.6733  0.1796 -0.3015
   14CHL1   C18  989   5.068   2.725   5.664 -0.0119 -0.0702  0.1226
   14CHL1  H18A  990   5.160   2.663   5.666  0.6341  0.9062  1.5593
   14CHL1  H18B  991   5.059   2.800   5.582 -1.7566 -0.8203 -0.4398
   14CHL1  H18C  992   5.064   2.763   5.768  1.3197 -1.1287  0.5899
   14CHL1   C12  993   4.807   2.695   5.644  0.3989  0.2971  0.9294
   14CHL1  H12A  994   4.807   2.765   5.558 -1.9347 -0.5374  0.1771
   14CHL1  H12B  995   4.731   2.621   5.611  1.2039  0.5423 -1.6508
   14CHL1   C11  996   4.764   2.775   5.772 -0.8710  0.2092  0.1500
   14CHL1  H11A  997   4.826   2.868   5.776 -1.9832  0.9878 -0.3415
   14CHL1  H11B  998   4.657   2.801   5.757 -0.3229  1.1318 -2.7918
   14CHL1    C9  999   4.774   2.678   5.896  0.1811  0.6589  0.2591
   14CHL1    H9 1000   4.703   2.596   5.874  0.3592  0.5791 -0.0158
   14CHL1   C10 1001   4.736   2.751   6.025  0.1433  0.4779 -0.2299
   14CHL1   C19 1002   4.823   2.876   6.045 -0.1023 -0.1352  0.6733
   14CHL1  H19A 1003   4.797   2.949   5.966 -0.9476  0.6048  1.6113
   14CHL1  H19B 1004   4.812   2.921   6.146 -2.4215  1.1298 -0.0835
   14CHL1  H19C 1005   4.931   2.858   6.025 -0.0697  1.6955 -1.0616
   14CHL1    C1 1006   4.584   2.789   6.032 -0.1068  0.3518 -0.5732
   14CHL1   H1A 1007   4.549   2.860   5.954 -0.4607  0.3411 -0.4273
   14CHL1   H1B 1008   4.536   2.691   6.012  1.9543 -1.2749  1.8251
   14CHL1    C2 1009   4.538   2.845   6.166 -0.4225 -0.3742 -0.6220
   14CHL1   H2A 1010   4.430   2.870   6.165 -0.3624 -0.1095 -0.5983
   14CHL1   H2B 1011   4.590   2.941   6.187 -2.4196  0.9035 -1.2647
   14CHL1   C20 1012   5.025   2.565   5.407  0.4993  0.2402 -0.4229
   14CHL1   H20 1013   5.088   2.656   5.411 -2.2317  2.2344 -0.0969
   14CHL1   C21 1014   4.892   2.612   5.340 -0.4755 -0.2475 -0.2678
   14CHL1  H21A 1015   4.799   2.554   5.364 -1.7697  1.3318 -1.2679
   14CHL1  H21B 1016   4.896   2.602   5.230  0.4531 -0.6448 -0.2033
   14CHL1  H21C 1017   4.875   2.720   5.361  1.5289  0.0418  0.0574
   14CHL1   C22 1018   5.096   2.454   5.316 -0.7912 -0.9071 -0.0858
   14CHL1  H22A 1019   5.189   2.419   5.365 -0.7359  0.2679  0.7075
   14CHL1  H22B 1020   5.026   2.369   5.314 -1.3967 -0.4075 -0.4359
   14CHL1   C23 1021   5.112   2.493   5.171  0.3828 -0.1639  0.0328
   14CHL1  H23A 1022   5.021   2.485   5.107  0.1846 -1.1587  0.4262
   14CHL1  H23B 1023   5.151   2.596   5.156 -2.3315  1.2257  1.6101
   14CHL1   C24 1024   5.200   2.391   5.105 -0.1898  0.6183  0.9648
   14CHL1  H24A 1025   5.304   2.409   5.141  0.8454 -1.2283 -0.9268
   14CHL1  H24B 1026   5.172   2.286   5.129 -1.4575  1.1150  1.7600
   14CHL1   C25 1027   5.212   2.416   4.954  0.4469  0.8689  0.8254
   14CHL1   H25 1028   5.105   2.424   4.923 -0.0093 -1.1760  1.6693
   14CHL1   C26 1029   5.288   2.548   4.918  0.4196 -0.0262 -0.0579
   14CHL1  H26A 1030   5.244   2.630   4.978 -1.1958 -0.1980 -0.9644
   14CHL1  H26B 1031   5.394   2.542   4.952  0.5385 -0.8958 -0.5417
   14CHL1  H26C 1032   5.291   2.566   4.808 -1.3558  0.3124 -0.0670
   14CHL1   C27 1033   5.278   2.291   4.881  0.1956 -0.3888 -0.8985
   14CHL1  H27A 1034   5.385   2.288   4.910  0.5212 -1.5340 -2.1122
   14CHL1  H27B 1035   5.224   2.198   4.909  1.4138 -1.5897 -2.3600
   14CHL1  H27C 1036   5.281   2.298   4.770  0.1941 -0.8053 -0.9278
   15CHL1    C3 1037   5.502   1.497   6.224 -0.3223 -0.0043  0.5163
   15CHL1    H3 1038   5.572   1.412   6.232 -0.1472  0.2045  1.2801
   15CHL1    O3 1039   5.480   1.537   6.356  0.8746  0.0173 -0.0127
   15CHL1   H3' 1040   5.417   1.483   6.404  1.5845  0.5678  1.6517
   15CHL1    C4 1041   5.575   1.599   6.139  0.1024 -0.0871 -0.0810
   15CHL1   H4A 1042   5.522   1.695   6.154  0.1245  0.1326 -1.2803
   15CHL1   H4B 1043   5.680   1.614   6.174  0.3050  1.1329 -1.1201
   15CHL1    C5 1044   5.571   1.581   5.985 -0.2986  0.2290 -0.1311
   15CHL1    C6 1045   5.688   1.574   5.919  0.4534 -0.0592 -0.2745
   15CHL1    H6 1046   5.774   1.610   5.977  2.2428 -2.7391 -1.0903
   15CHL1    C7 1047   5.697   1.558   5.773 -0.0644  0.2218  0.6331
   15CHL1   H7A 1048   5.762   1.641   5.737  0.2289 -1.2099 -2.4597
   15CHL1   H7B 1049   5.744   1.458   5.763  0.1787  0.2563  1.3589
   15CHL1    C8 1050   5.561   1.558   5.697  0.2100 -0.1552 -0.6661
   15CHL1    H8 1051   5.533   1.665   5.689  2.2808  0.5820  0.8341
   15CHL1   C14 1052   5.583   1.487   5.565 -0.9319 -0.3003 -0.1813
   15CHL1   H14 1053   5.611   1.382   5.591 -2.4317 -0.4430  0.9541
   15CHL1   C15 1054   5.699   1.540   5.479  0.4645 -0.8191  0.7439
   15CHL1  H15A 1055   5.702   1.650   5.468 -0.0452 -1.0478 -2.7648
   15CHL1  H15B 1056   5.805   1.511   5.497  1.2130  0.2957 -1.5194
   15CHL1   C16 1057   5.654   1.503   5.334 -0.0173  0.2162  0.1524
   15CHL1  H16A 1058   5.658   1.588   5.263  0.9995 -2.5854 -3.4045
   15CHL1  H16B 1059   5.726   1.431   5.291 -1.0331  0.3638 -1.8810
   15CHL1   C17 1060   5.518   1.434   5.348  0.3029 -0.4505  0.6843
   15CHL1   H17 1061   5.548   1.328   5.362  3.2329 -0.1111 -2.0155
   15CHL1   C13 1062   5.458   1.488   5.486 -0.2027  0.0366 -0.8263
   15CHL1   C18 1063   5.402   1.630   5.463 -0.3599  0.5030  0.2962
   15CHL1  H18A 1064   5.318   1.627   5.391  0.5945 -3.4551 -0.9156
   15CHL1  H18B 1065   5.376   1.683   5.557  0.5866 -2.1236  2.1739
   15CHL1  H18C 1066   5.481   1.682   5.404  1.5318 -1.9312  0.5227
   15CHL1   C12 1067   5.360   1.394   5.563 -0.4169  0.4412 -0.0226
   15CHL1  H12A 1068   5.262   1.406   5.510 -0.8273 -0.7931  0.4330
   15CHL1  H12B 1069   5.397   1.290   5.563  1.0975  0.9498 -0.1171
   15CHL1   C11 1070   5.331   1.447   5.707  0.1167 -0.2330  0.6517
   15CHL1  H11A 1071   5.280   1.544   5.692 -1.5753 -1.2069 -0.1774
   15CHL1  H11B 1072   5.255   1.385   5.760 -1.2362  0.9508  0.1465
   15CHL1    C9 1073   5.465   1.478   5.782 -0.6808 -1.1026  0.6050
   15CHL1    H9 1074   5.505   1.376   5.796 -0.2277 -0.8089  1.5823
   15CHL1   C10 1075   5.443   1.536   5.924  0.7453 -0.5479  0.7387
   15CHL1   C19 1076   5.351   1.662   5.921  0.8064  0.5238 -0.6405
   15CHL1  H19A 1077   5.247   1.643   5.887  1.1268  1.1267 -1.9924
   15CHL1  H19B 1078   5.340   1.705   6.023  0.8587 -0.1493 -0.3454
   15CHL1  H19C 1079   5.387   1.745   5.857  0.7393 -0.4104 -1.9255
   15CHL1    C1 1080   5.377   1.428   6.012  0.5432  0.2202 -0.6743
   15CHL1   H1A 1081   5.271   1.413   5.983 -0.5506  1.3184  2.3625
   15CHL1   H1B 1082   5.438   1.336   6.012 -0.6011 -0.5582 -0.3094
   15CHL1    C2 1083   5.361   1.451   6.170 -0.3259  0.3394 -0.8287
   15CHL1   H2A 1084   5.314   1.365   6.223 -0.2852  0.6384 -0.2965
   15CHL1   H2B 1085   5.297   1.539   6.190  1.5980  1.2573  2.1065
   15CHL1   C20 1086   5.434   1.448   5.219 -0.7259 -0.2950  0.0240
   15CHL1   H20 1087   5.405   1.555   5.209  1.6364  0.4106  0.0304
   15CHL1   C21 1088   5.316   1.350   5.234 -0.2057  0.9589  0.1057
   15CHL1  H21A 1089   5.340   1.252   5.280 -3.1270 -0.3561 -0.9686
   15CHL1  H21B 1090   5.257   1.331   5.142  0.1247 -0.9154  0.2546
   15CHL1  H21C 1091   5.238   1.400   5.294 -2.6614 -3.2912  0.8255
   15CHL1   C22 1092   5.516   1.420   5.082  0.3120 -0.6349 -0.0838
   15CHL1  H22A 1093   5.610   1.478   5.085  0.0864 -0.2272  3.3874
   15CHL1  H22B 1094   5.551   1.314   5.085 -1.1492 -1.1342  0.2271
   15CHL1   C23 1095   5.432   1.454   4.951 -0.6079  0.4874  0.6060
   15CHL1  H23A 1096   5.344   1.387   4.938  0.8321 -1.0891 -1.6421
   15CHL1  H23B 1097   5.389   1.555   4.968 -0.6364  0.1514  2.7592
   15CHL1   C24 1098   5.520   1.441   4.821 -0.4567 -0.0926  0.2675
   15CHL1  H24A 1099   5.557   1.337   4.814 -0.9250 -0.1611 -1.6574
   15CHL1  H24B 1100   5.459   1.455   4.729 -0.2835  0.0745  0.1778
   15CHL1   C25 1101   5.639   1.544   4.808 -0.2754 -0.5408  0.1155
   15CHL1   H25 1102   5.692   1.556   4.905  0.5053  1.1924 -0.4726
   15CHL1   C26 1103   5.749   1.492   4.712 -0.7949  0.3537 -0.0880
   15CHL1  H26A 1104   5.792   1.397   4.750  0.1524  1.4489  1.7280
   15CHL1  H26B 1105   5.707   1.473   4.611  0.1382 -1.1081 -0.2220
   15CHL1  H26C 1106   5.833   1.562   4.692  0.4381 -1.1827 -0.4515
   15CHL1   C27 1107   5.603   1.686   4.754  0.0395  0.4181  0.4324
   15CHL1  H27A 1108   5.527   1.744   4.811 -1.8853 -2.6733  1.2734
   15CHL1  H27B 1109   5.700   1.739   4.742  2.6546 -4.1056 -0.7083
   15CHL1  H27C 1110   5.564   1.674   4.651  0.6917 -1.0286  0.3239
   16CHL1    C3 1111   3.642   6.442   6.222 -0.4209  0.0529  0.2071
   16CHL1    H3 1112   3.617   6.550   6.221 -1.4545 -0.1674  0.1532
   16CHL1    O3 1113   3.673   6.413   6.359 -0.7515  0.8682 -0.3594
   16CHL1   H3' 1114   3.709   6.325   6.365 -0.4417  1.1040  1.9758
   16CHL1    C4 1115   3.529   6.361   6.174 -0.4319  0.4656 -0.1422
   16CHL1   H4A 1116   3.535   6.254   6.202  0.7847  0.8447  1.1742
   16CHL1   H4B 1117   3.444   6.396   6.237 -0.3363 -1.1694  0.9476
   16CHL1    C5 1118   3.496   6.371   6.032 -0.2823 -0.3435  0.2563
   16CHL1    C6 1119   3.368   6.389   5.995  0.2287  0.4495 -0.0164
   16CHL1    H6 1120   3.286   6.387   6.067  1.8180  0.2161  1.8732
   16CHL1    C7 1121   3.323   6.398   5.852 -0.3710  0.4700  0.6973
   16CHL1   H7A 1122   3.228   6.349   5.820  0.4019 -1.6137  1.4463
   16CHL1   H7B 1123   3.301   6.506   5.844 -0.0954  0.4974  0.3128
   16CHL1    C8 1124   3.428   6.371   5.738  0.9891  0.0942  0.1894
   16CHL1    H8 1125   3.431   6.262   5.718 -0.4759 -0.0917  0.8374
   16CHL1   C14 1126   3.401   6.439   5.604 -0.5593 -0.6416  0.1385
   16CHL1   H14 1127   3.407   6.547   5.629  2.4186 -0.2628 -1.7008
   16CHL1   C15 1128   3.260   6.423   5.542  0.3495  0.6351  0.0543
   16CHL1  H15A 1129   3.220   6.320   5.550 -1.2314  0.7553 -3.9309
   16CHL1  H15B 1130   3.185   6.485   5.596 -1.1550 -0.3544 -0.8364
   16CHL1   C16 1131   3.278   6.453   5.393 -0.2374  0.2017 -0.0869
   16CHL1  H16A 1132   3.256   6.367   5.326 -2.1332  0.6467 -0.0739
   16CHL1  H16B 1133   3.217   6.541   5.365 -0.2021  0.0789 -0.5605
   16CHL1   C17 1134   3.424   6.502   5.383  0.3879 -0.1147  0.2254
   16CHL1   H17 1135   3.431   6.609   5.415  0.3308 -0.0021 -0.1301
   16CHL1   C13 1136   3.503   6.431   5.495  0.1427  0.4278  0.3971
   16CHL1   C18 1137   3.534   6.287   5.458  0.2269  0.3516 -0.1475
   16CHL1  H18A 1138   3.442   6.233   5.425  1.0285  0.2274 -2.3173
   16CHL1  H18B 1139   3.613   6.281   5.380 -0.5412  3.5284 -1.3368
   16CHL1  H18C 1140   3.581   6.239   5.546 -1.8050 -0.8426  0.3649
   16CHL1   C12 1141   3.633   6.496   5.551 -0.4859 -0.2637 -0.0268
   16CHL1  H12A 1142   3.709   6.479   5.471 -0.0810  2.6362 -0.3743
   16CHL1  H12B 1143   3.613   6.605   5.556 -0.6953 -0.2172 -1.4739
   16CHL1   C11 1144   3.673   6.439   5.687  0.1720  0.5061  0.2157
   16CHL1  H11A 1145   3.717   6.337   5.680  1.0226  0.7915  1.0732
   16CHL1  H11B 1146   3.761   6.498   5.721 -0.2575  1.6169 -0.5431
   16CHL1    C9 1147   3.559   6.424   5.792 -0.1764  0.0977  0.0779
   16CHL1    H9 1148   3.544   6.533   5.808 -0.3637  0.7189 -3.4838
   16CHL1   C10 1149   3.609   6.371   5.931  1.0448 -0.5578  0.3468
   16CHL1   C19 1150   3.658   6.225   5.911 -0.0950 -0.1737 -0.1381
   16CHL1  H19A 1151   3.755   6.220   5.857 -0.1789 -0.3956 -0.2694
   16CHL1  H19B 1152   3.663   6.175   6.010  2.5081 -0.3766 -0.3154
   16CHL1  H19C 1153   3.581   6.174   5.850 -2.6703  2.7886  0.3948
   16CHL1    C1 1154   3.728   6.455   5.985  0.4236 -0.4783 -0.3092
   16CHL1   H1A 1155   3.818   6.432   5.925  1.2643 -0.5600  0.9528
   16CHL1   H1B 1156   3.691   6.558   5.965 -0.0499 -0.3420  1.1082
   16CHL1    C2 1157   3.761   6.423   6.131 -0.0553  0.2445  0.1169
   16CHL1   H2A 1158   3.844   6.489   6.165  1.0382 -0.7934 -0.4360
   16CHL1   H2B 1159   3.807   6.323   6.145 -0.4221  0.2689  1.6721
   16CHL1   C20 1160   3.483   6.497   5.235 -0.7765  0.0448  0.7429
   16CHL1   H20 1161   3.594   6.498   5.246 -0.7512 -2.8955  1.7879
   16CHL1   C21 1162   3.435   6.624   5.165 -0.7291 -0.2151 -0.2164
   16CHL1  H21A 1163   3.325   6.626   5.149 -0.3013 -1.6675 -4.5503
   16CHL1  H21B 1164   3.489   6.622   5.069  3.7322  0.0124  2.0384
   16CHL1  H21C 1165   3.476   6.709   5.224 -0.2338  0.5529 -1.6213
   16CHL1   C22 1166   3.454   6.376   5.146  0.2589 -0.4094 -0.3462
   16CHL1  H22A 1167   3.437   6.286   5.210  0.7502 -1.0934 -1.1583
   16CHL1  H22B 1168   3.367   6.397   5.081  1.1049  3.9328 -0.3717
   16CHL1   C23 1169   3.569   6.336   5.049 -0.5880  0.5758  0.1862
   16CHL1  H23A 1170   3.604   6.427   4.996  0.4195 -0.3207 -0.7495
   16CHL1  H23B 1171   3.651   6.290   5.108 -1.8460 -2.2237 -0.0940
   16CHL1   C24 1172   3.508   6.244   4.942 -0.3442  0.1121  0.3483
   16CHL1  H24A 1173   3.479   6.155   5.002 -1.0233 -0.5066 -0.8671
   16CHL1  H24B 1174   3.413   6.280   4.896  0.7293  0.8123 -1.4316
   16CHL1   C25 1175   3.591   6.182   4.823 -0.0625  0.3742  0.1237
   16CHL1   H25 1176   3.674   6.114   4.852 -1.1722 -0.6108  1.0865
   16CHL1   C26 1177   3.504   6.069   4.747 -0.4564 -0.5956  0.8520
   16CHL1  H26A 1178   3.567   6.022   4.668  1.4212  0.7738  1.4541
   16CHL1  H26B 1179   3.470   5.994   4.822  1.4038 -0.9230  1.4432
   16CHL1  H26C 1180   3.415   6.113   4.699 -1.3044 -2.7502  0.3016
   16CHL1   C27 1181   3.617   6.292   4.725 -0.4620 -0.5033  0.8235
   16CHL1  H27A 1182   3.682   6.264   4.639  0.5676  0.8474  1.1180
   16CHL1  H27B 1183   3.522   6.328   4.682  0.9217  0.9713 -1.1598
   16CHL1  H27C 1184   3.666   6.375   4.781  1.7486 -0.6815 -0.7136
   17CHL1    C3 1185   4.501   4.186   6.213  0.1954 -0.1523  0.9254
   17CHL1    H3 1186   4.482   4.077   6.207  1.7593 -0.3487 -2.1131
   17CHL1    O3 1187   4.493   4.223   6.354  0.0953 -0.1889 -0.2967
   17CHL1   H3' 1188   4.436   4.300   6.343  0.9840  0.3847 -1.0283
   17CHL1    C4 1189   4.640   4.216   6.162  0.3631 -0.2278 -0.7181
   17CHL1   H4A 1190   4.658   4.325   6.178  0.9966 -0.0407 -2.4849
   17CHL1   H4B 1191   4.712   4.155   6.219 -0.4983 -0.6956 -0.1012
   17CHL1    C5 1192   4.652   4.187   6.013 -0.4141 -0.6358  0.0588
   17CHL1    C6 1193   4.741   4.105   5.971 -0.5872  0.1054 -0.5675
   17CHL1    H6 1194   4.807   4.056   6.043 -2.5108 -1.0325  0.4938
   17CHL1    C7 1195   4.774   4.071   5.825 -0.5967 -0.0522  0.0661
   17CHL1   H7A 1196   4.885   4.070   5.818 -0.5531  3.1372 -1.2838
   17CHL1   H7B 1197   4.747   3.968   5.792 -2.3907 -0.1210  1.5703
   17CHL1    C8 1198   4.696   4.168   5.727 -0.7467 -0.8900  0.1007
   17CHL1    H8 1199   4.745   4.268   5.728 -3.7178  0.6711  1.4364
   17CHL1   C14 1200   4.680   4.106   5.586  0.3250  0.5336 -0.4823
   17CHL1   H14 1201   4.622   4.013   5.602  2.8397 -1.0688 -0.1844
   17CHL1   C15 1202   4.807   4.049   5.519 -0.0078 -0.0032 -0.1102
   17CHL1  H15A 1203   4.882   4.131   5.528 -0.4173  0.3533  0.1115
   17CHL1  H15B 1204   4.840   3.958   5.573  0.0800  0.5568  0.7884
   17CHL1   C16 1205   4.760   4.028   5.376 -0.6247 -0.5806 -0.0427
   17CHL1  H16A 1206   4.821   4.104   5.322 -0.1735  0.7112  2.1637
   17CHL1  H16B 1207   4.767   3.925   5.335  0.2755 -0.6967  0.3713
   17CHL1   C17 1208   4.611   4.085   5.361  0.0539  0.1236  0.7915
   17CHL1   H17 1209   4.543   4.001   5.385 -0.3149  0.0576 -0.3857
   17CHL1   C13 1210   4.594   4.184   5.480 -0.2879 -0.5701  1.1544
   17CHL1   C18 1211   4.667   4.316   5.449  0.6902  0.2214  0.0895
   17CHL1  H18A 1212   4.772   4.307   5.414  1.6905  0.7912  2.6773
   17CHL1  H18B 1213   4.614   4.369   5.367  0.5457 -0.0622 -0.0016
   17CHL1  H18C 1214   4.673   4.386   5.535 -0.6060 -1.6739  1.8224
   17CHL1   C12 1215   4.460   4.210   5.538  0.4359  0.0530 -0.3446
   17CHL1  H12A 1216   4.413   4.277   5.463  2.4180  0.2092 -1.5126
   17CHL1  H12B 1217   4.402   4.116   5.550  1.1895 -0.3627  0.1104
   17CHL1   C11 1218   4.468   4.282   5.671 -0.8976  0.6684 -0.7042
   17CHL1  H11A 1219   4.496   4.389   5.660 -0.3677  0.6761  0.5264
   17CHL1  H11B 1220   4.366   4.289   5.716  0.1555 -1.7083  2.4705
   17CHL1    C9 1221   4.556   4.197   5.776 -0.9462 -0.6925  0.2115
   17CHL1    H9 1222   4.502   4.101   5.783  0.3891 -1.4827 -0.0269
   17CHL1   C10 1223   4.549   4.263   5.922  0.6493 -0.1325 -0.3541
   17CHL1   C19 1224   4.576   4.409   5.924  0.0098  0.3915 -0.7556
   17CHL1  H19A 1225   4.675   4.436   5.881  1.3617  0.0244  1.8751
   17CHL1  H19B 1226   4.488   4.468   5.890 -0.1367  0.9976  0.5900
   17CHL1  H19C 1227   4.589   4.455   6.025  0.0413 -1.6480  0.2199
   17CHL1    C1 1228   4.408   4.226   5.980  0.0935  0.3748  0.6134
   17CHL1   H1A 1229   4.331   4.277   5.918  0.7346  3.3841  2.1505
   17CHL1   H1B 1230   4.395   4.115   5.972 -4.3892  0.7751 -0.6246
   17CHL1    C2 1231   4.401   4.266   6.127  0.6593  0.2431  0.2171
   17CHL1   H2A 1232   4.300   4.249   6.169  0.1016 -1.8371 -1.7634
   17CHL1   H2B 1233   4.433   4.372   6.140  2.5902 -0.4518  1.6594
   17CHL1   C20 1234   4.591   4.144   5.217  0.3958  0.2590 -0.0510
   17CHL1   H20 1235   4.636   4.244   5.195 -0.4882 -0.0165 -3.9454
   17CHL1   C21 1236   4.443   4.165   5.185  0.3523  0.1629 -0.0537
   17CHL1  H21A 1237   4.427   4.192   5.079  0.0009 -0.1206 -0.0742
   17CHL1  H21B 1238   4.397   4.251   5.239  0.9923  0.8231 -0.5456
   17CHL1  H21C 1239   4.393   4.071   5.217 -2.1740  1.2271 -0.5923
   17CHL1   C22 1240   4.640   4.046   5.102 -0.3217 -0.0967 -0.0405
   17CHL1  H22A 1241   4.624   4.097   5.005 -0.3380  0.1040  0.0678
   17CHL1  H22B 1242   4.750   4.030   5.105 -0.2862  0.1408 -0.0738
   17CHL1   C23 1243   4.585   3.904   5.100  0.3521  0.6382  0.5807
   17CHL1  H23A 1244   4.584   3.859   5.201 -2.4574 -1.1248 -0.1325
   17CHL1  H23B 1245   4.478   3.903   5.072  0.5774 -1.6091 -0.4572
   17CHL1   C24 1246   4.664   3.797   5.013 -0.2552  1.2702 -0.9393
   17CHL1  H24A 1247   4.763   3.803   5.063 -1.0817  0.7625  0.8318
   17CHL1  H24B 1248   4.628   3.696   5.040 -0.9362  1.9260  0.7739
   17CHL1   C25 1249   4.658   3.812   4.866 -0.1987 -0.1717 -0.4086
   17CHL1   H25 1250   4.686   3.912   4.827 -2.6034  0.8474  0.3003
   17CHL1   C26 1251   4.775   3.731   4.812 -0.0730  0.2946  0.3244
   17CHL1  H26A 1252   4.772   3.743   4.702  2.2938  1.1732  0.2979
   17CHL1  H26B 1253   4.869   3.783   4.842  0.3153 -0.1634 -0.0884
   17CHL1  H26C 1254   4.770   3.623   4.839  1.1338  0.5006  1.5011
   17CHL1   C27 1255   4.522   3.778   4.804 -0.2610 -0.4255 -0.2778
   17CHL1  H27A 1256   4.491   3.683   4.853  2.1998 -0.8687  0.5850
   17CHL1  H27B 1257   4.452   3.861   4.827  0.4618  0.0912  0.1072
   17CHL1  H27C 1258   4.554   3.765   4.699 -1.9603  2.2946 -1.2314
   18CHL1    C3 1259   5.393   5.892   6.178 -0.5348  0.7309 -1.1308
   18CHL1    H3 1260   5.283   5.886   6.188 -0.4618  1.6901  0.4137
   18CHL1    O3 1261   5.468   5.877   6.303  0.1058  0.4328  0.1508
   18CHL1   H3' 1262   5.429   5.799   6.342 -0.0851  0.8353  0.7717
   18CHL1    C4 1263   5.429   5.762   6.088 -0.1796  0.5717 -0.4002
   18CHL1   H4A 1264   5.538   5.740   6.088 -0.1209  0.8533  0.2409
   18CHL1   H4B 1265   5.382   5.672   6.132 -1.3148  1.9532  1.3247
   18CHL1    C5 1266   5.386   5.758   5.941  0.6855 -0.5913 -0.6233
   18CHL1    C6 1267   5.303   5.665   5.891  0.6624 -0.1330  0.0770
   18CHL1    H6 1268   5.279   5.577   5.953  1.2469  0.2080  0.8079
   18CHL1    C7 1269   5.265   5.662   5.746 -0.3479  0.5667  0.8038
   18CHL1   H7A 1270   5.280   5.559   5.707  1.0396  0.8751  0.4532
   18CHL1   H7B 1271   5.158   5.687   5.732 -0.4510 -0.0610  0.4321
   18CHL1    C8 1272   5.351   5.758   5.656  0.1697  0.0077  0.3033
   18CHL1    H8 1273   5.449   5.708   5.649  0.3927  0.6364 -1.4638
   18CHL1   C14 1274   5.296   5.765   5.518  0.3467 -0.6273  0.4675
   18CHL1   H14 1275   5.194   5.808   5.518 -0.0641 -1.5830  0.9646
   18CHL1   C15 1276   5.264   5.632   5.440  0.4787  0.3239 -0.3347
   18CHL1  H15A 1277   5.347   5.562   5.466  0.0039 -1.4214 -3.0656
   18CHL1  H15B 1278   5.172   5.591   5.486  1.6506 -1.2738  0.7193
   18CHL1   C16 1279   5.251   5.682   5.302 -0.4220 -0.3566  0.3845
   18CHL1  H16A 1280   5.325   5.625   5.243  1.0028  0.8846  0.9069
   18CHL1  H16B 1281   5.147   5.669   5.266  0.2156 -2.8436 -0.7850
   18CHL1   C17 1282   5.293   5.834   5.297  0.1497  0.6509  0.4964
   18CHL1   H17 1283   5.195   5.883   5.312 -0.1240  0.2864 -0.0376
   18CHL1   C13 1284   5.372   5.858   5.426 -0.2591  0.6388  0.1848
   18CHL1   C18 1285   5.514   5.805   5.402 -0.5330  0.4907 -0.1883
   18CHL1  H18A 1286   5.519   5.705   5.355  3.7555  1.3746 -2.1443
   18CHL1  H18B 1287   5.566   5.878   5.336  2.4136 -2.1252 -1.0368
   18CHL1  H18C 1288   5.582   5.797   5.490  0.4289  1.6218 -0.8047
   18CHL1   C12 1289   5.373   5.998   5.492  0.4025  0.6517 -0.2053
   18CHL1  H12A 1290   5.420   6.076   5.429  0.8254  1.0541  0.5965
   18CHL1  H12B 1291   5.264   6.017   5.500  0.0522 -1.6459  1.6776
   18CHL1   C11 1292   5.443   5.996   5.628 -0.0365  0.6816 -0.7460
   18CHL1  H11A 1293   5.548   5.960   5.620 -0.7024 -1.4562 -0.4564
   18CHL1  H11B 1294   5.444   6.100   5.668  0.1291  1.0608 -1.7142
   18CHL1    C9 1295   5.371   5.893   5.726  0.8078 -0.1248  0.0425
   18CHL1    H9 1296   5.267   5.927   5.748  0.3461 -2.7739  2.6376
   18CHL1   C10 1297   5.427   5.885   5.869  0.3368 -0.4399  0.0481
   18CHL1   C19 1298   5.587   5.871   5.858 -0.5283 -0.7433 -0.4280
   18CHL1  H19A 1299   5.629   5.954   5.798  0.1320 -1.0776 -0.4413
   18CHL1  H19B 1300   5.641   5.867   5.956  1.1768 -1.8514 -1.3598
   18CHL1  H19C 1301   5.630   5.779   5.813  1.4738  0.3611 -0.9265
   18CHL1    C1 1302   5.382   6.011   5.950  0.6721  0.3656 -0.2562
   18CHL1   H1A 1303   5.414   6.112   5.916 -0.8464  0.6876 -0.8211
   18CHL1   H1B 1304   5.271   6.009   5.955  0.5866  1.8133 -1.0282
   18CHL1    C2 1305   5.431   6.016   6.096  0.0626 -0.1422  0.3234
   18CHL1   H2A 1306   5.391   6.110   6.139  1.0403 -0.1510  1.3266
   18CHL1   H2B 1307   5.541   6.031   6.102 -0.1256  1.3576  0.4055
   18CHL1   C20 1308   5.353   5.870   5.166  0.1376  0.0562  0.3754
   18CHL1   H20 1309   5.446   5.811   5.148 -0.3034 -0.7241  0.6408
   18CHL1   C21 1310   5.377   6.021   5.171 -0.0756 -0.0020  0.1378
   18CHL1  H21A 1311   5.292   6.078   5.212  0.5046  0.3053  0.9527
   18CHL1  H21B 1312   5.397   6.059   5.069  0.5920  1.8395  0.9162
   18CHL1  H21C 1313   5.469   6.043   5.230  0.5682 -1.2212 -0.3674
   18CHL1   C22 1314   5.259   5.832   5.046 -0.3272  0.8945 -0.6695
   18CHL1  H22A 1315   5.213   5.731   5.055  1.4161  0.1106  0.0211
   18CHL1  H22B 1316   5.174   5.902   5.039 -2.2194 -1.1824  0.1788
   18CHL1   C23 1317   5.341   5.824   4.920  0.0050  0.3648  0.3242
   18CHL1  H23A 1318   5.383   5.925   4.900  2.1509 -0.7905 -1.5573
   18CHL1  H23B 1319   5.430   5.757   4.930  0.2652  0.4689 -1.0504
   18CHL1   C24 1320   5.258   5.792   4.794 -0.5654 -0.4715 -0.1707
   18CHL1  H24A 1321   5.223   5.686   4.790  1.5932 -1.2083 -2.4363
   18CHL1  H24B 1322   5.168   5.855   4.777  0.5749  0.3869 -4.0683
   18CHL1   C25 1323   5.339   5.800   4.664  0.5761  0.2320  0.5379
   18CHL1   H25 1324   5.267   5.782   4.582  1.4687 -1.4118  0.0734
   18CHL1   C26 1325   5.407   5.937   4.637  0.2733 -0.4958  0.2786
   18CHL1  H26A 1326   5.324   6.006   4.610 -1.0939 -1.0274  2.8017
   18CHL1  H26B 1327   5.469   5.963   4.725  1.8540  0.3747 -1.0201
   18CHL1  H26C 1328   5.477   5.931   4.551 -0.9995  0.8958 -0.9137
   18CHL1   C27 1329   5.430   5.683   4.637 -0.5870 -0.1754  0.0353
   18CHL1  H27A 1330   5.461   5.684   4.531  0.2647 -1.7697  0.2369
   18CHL1  H27B 1331   5.516   5.693   4.707  0.7548  1.2332 -1.7161
   18CHL1  H27C 1332   5.377   5.587   4.654 -1.1387  0.0473 -0.4237
   19CHL1    C3 1333   3.964   3.885   6.139  0.0030 -0.0800  0.2990
   19CHL1    H3 1334   3.978   3.777   6.119 -1.1680 -0.3517  0.8966
   19CHL1    O3 1335   3.970   3.901   6.281  0.3868 -0.1108 -0.6072
   19CHL1   H3' 1336   3.980   3.995   6.300  0.5562 -0.2463 -0.0122
   19CHL1    C4 1337   4.083   3.964   6.076  0.2586  0.2869 -0.3484
   19CHL1   H4A 1338   4.090   4.073   6.095  2.9338  0.0304  0.6395
   19CHL1   H4B 1339   4.179   3.925   6.118 -0.1407  0.1374  0.4509
   19CHL1    C5 1340   4.075   3.952   5.926 -0.1240 -0.0372 -0.3038
   19CHL1    C6 1341   4.175   3.914   5.846  0.6470  0.4472 -0.4771
   19CHL1    H6 1342   4.267   3.885   5.898  0.9168  2.2472  0.0881
   19CHL1    C7 1343   4.182   3.928   5.696 -0.2903  0.0830  0.2561
   19CHL1   H7A 1344   4.275   3.976   5.658 -1.4966  1.6035 -0.9120
   19CHL1   H7B 1345   4.189   3.823   5.659  0.2684 -0.8960  2.9298
   19CHL1    C8 1346   4.062   4.004   5.638 -0.0032  0.3154  0.2822
   19CHL1    H8 1347   4.087   4.111   5.655  0.0743  0.1220  1.4351
   19CHL1   C14 1348   4.052   3.981   5.487  0.3558 -0.2095 -0.2330
   19CHL1   H14 1349   4.043   3.871   5.474  0.9436 -0.3961  0.8917
   19CHL1   C15 1350   4.183   4.002   5.402 -0.2360 -0.1300  0.0949
   19CHL1  H15A 1351   4.220   4.106   5.418  1.3219 -0.7922  1.1318
   19CHL1  H15B 1352   4.258   3.927   5.436 -1.2400 -0.3673  1.8868
   19CHL1   C16 1353   4.124   3.967   5.263  0.4160 -0.8723 -0.1000
   19CHL1  H16A 1354   4.177   4.029   5.187 -0.0617 -0.8468 -0.4170
   19CHL1  H16B 1355   4.134   3.859   5.239  1.0408 -1.3266  2.0501
   19CHL1   C17 1356   3.971   4.002   5.266  0.6938 -0.5322 -0.0870
   19CHL1   H17 1357   3.926   3.901   5.263  0.1685 -0.3145  0.2841
   19CHL1   C13 1358   3.945   4.055   5.410  0.5569 -0.1070 -0.3777
   19CHL1   C18 1359   3.955   4.207   5.411 -0.0686  0.4654  0.3735
   19CHL1  H18A 1360   3.973   4.251   5.511 -1.1093  0.9580  0.3591
   19CHL1  H18B 1361   4.037   4.241   5.343 -0.3117 -0.4812 -0.4132
   19CHL1  H18C 1362   3.857   4.249   5.381 -0.6947  0.0225  1.7323
   19CHL1   C12 1363   3.809   4.001   5.474 -0.4577 -0.1090 -0.4538
   19CHL1  H12A 1364   3.720   4.050   5.429 -0.2327  0.7332 -0.0027
   19CHL1  H12B 1365   3.792   3.893   5.456  0.9636 -0.4532  0.1305
   19CHL1   C11 1366   3.812   4.028   5.629 -0.6062 -0.0139  0.3645
   19CHL1  H11A 1367   3.811   4.138   5.646 -0.9161 -0.1729  1.5185
   19CHL1  H11B 1368   3.711   4.000   5.666 -1.3280  0.8353 -0.8777
   19CHL1    C9 1369   3.927   3.969   5.709  0.1738  0.0274  0.7494
   19CHL1    H9 1370   3.929   3.860   5.688  0.7675  0.4346 -1.5915
   19CHL1   C10 1371   3.935   3.996   5.863  0.2697  0.9022  0.9403
   19CHL1   C19 1372   3.919   4.149   5.889 -0.1209 -0.1635 -0.7151
   19CHL1  H19A 1373   3.818   4.186   5.864  0.1337  0.7843 -0.3838
   19CHL1  H19B 1374   3.928   4.171   5.997  0.1690 -1.5013 -0.4486
   19CHL1  H19C 1375   3.994   4.201   5.825  2.4440 -1.1065  1.3644
   19CHL1    C1 1376   3.825   3.915   5.937 -0.2765  0.0981  0.9683
   19CHL1   H1A 1377   3.730   3.954   5.896  0.5008  1.0432 -0.0112
   19CHL1   H1B 1378   3.836   3.806   5.921  1.9290 -0.0951  3.1083
   19CHL1    C2 1379   3.832   3.931   6.090 -0.1641  0.2755  0.1288
   19CHL1   H2A 1380   3.749   3.872   6.134  0.7785 -1.1238  0.0905
   19CHL1   H2B 1381   3.807   4.036   6.117 -2.2610 -0.3261  0.7390
   19CHL1   C20 1382   3.915   4.075   5.143  0.1799 -0.4712  0.7265
   19CHL1   H20 1383   3.940   4.183   5.143  3.5705 -1.1220 -1.2341
   19CHL1   C21 1384   3.752   4.066   5.152 -0.8309  1.3645 -0.3232
   19CHL1  H21A 1385   3.731   3.957   5.152 -1.7495  1.4601 -2.8739
   19CHL1  H21B 1386   3.711   4.106   5.057 -1.0959  0.5553 -0.5627
   19CHL1  H21C 1387   3.700   4.099   5.243  0.4231 -0.3282  1.0876
   19CHL1   C22 1388   3.964   4.022   5.009  0.1871 -0.0646  0.6349
   19CHL1  H22A 1389   4.075   4.023   5.011  0.2824 -1.4794 -1.2336
   19CHL1  H22B 1390   3.943   3.915   4.990  0.0286  0.2887 -1.3644
   19CHL1   C23 1391   3.912   4.086   4.880 -0.0702 -0.3670  0.4276
   19CHL1  H23A 1392   3.802   4.085   4.865 -0.0794  0.7375  0.3473
   19CHL1  H23B 1393   3.940   4.193   4.867 -0.9172 -0.3762 -2.0311
   19CHL1   C24 1394   3.977   4.037   4.750  0.5115  0.5443  0.3293
   19CHL1  H24A 1395   4.082   4.071   4.743  0.5684  0.4212  0.5861
   19CHL1  H24B 1396   3.988   3.927   4.752 -1.1694  0.1694 -3.2866
   19CHL1   C25 1397   3.904   4.079   4.627  1.2962  0.4401  0.5723
   19CHL1   H25 1398   3.800   4.038   4.624  2.0772 -1.7991  1.7117
   19CHL1   C26 1399   3.904   4.235   4.622 -0.4160  0.6370 -0.4420
   19CHL1  H26A 1400   3.835   4.271   4.701  0.6964 -0.5323  1.1393
   19CHL1  H26B 1401   4.005   4.256   4.663 -0.3606 -1.7893  0.8622
   19CHL1  H26C 1402   3.881   4.285   4.525 -0.3412  0.6313 -0.4628
   19CHL1   C27 1403   3.971   4.007   4.509 -0.8733 -0.2411  0.3545
   19CHL1  H27A 1404   4.080   4.007   4.531 -0.7509  0.9917 -0.1198
   19CHL1  H27B 1405   3.933   3.904   4.496 -2.7553  0.6385 -2.0031
   19CHL1  H27C 1406   3.960   4.054   4.408  0.3092 -0.3916  0.1439
   20CHL1    C3 1407   1.302   0.297   6.340  0.6259  0.0264 -0.4023
   20CHL1    H3 1408   1.236   0.218   6.298 -1.6409  2.0924 -0.9813
   20CHL1    O3 1409   1.277   0.324   6.475  0.2291  0.2603  0.1227
   20CHL1   H3' 1410   1.339   0.395   6.492 -2.1276  2.2311  1.0291
   20CHL1    C4 1411   1.447   0.243   6.327  0.8005 -0.5003  0.0600
   20CHL1   H4A 1412   1.520   0.303   6.386 -0.1782  1.7815 -0.9596
   20CHL1   H4B 1413   1.436   0.141   6.371 -4.1770 -0.4090 -0.4382
   20CHL1    C5 1414   1.493   0.236   6.179  0.3648  0.0234  0.0065
   20CHL1    C6 1415   1.542   0.117   6.134 -0.2784 -0.3902 -0.6054
   20CHL1    H6 1416   1.573   0.038   6.204  0.0083 -0.3618 -0.7012
   20CHL1    C7 1417   1.592   0.095   5.993  0.8369  0.1905 -0.0771
   20CHL1   H7A 1418   1.691   0.046   5.989  1.1657  0.5578  2.0163
   20CHL1   H7B 1419   1.524   0.029   5.935 -0.5541  0.1103  1.5584
   20CHL1    C8 1420   1.601   0.222   5.910 -0.4224 -0.5621 -0.7484
   20CHL1    H8 1421   1.699   0.262   5.943 -0.6963  0.1150 -0.7386
   20CHL1   C14 1422   1.615   0.198   5.761 -0.5460  0.5432 -0.0500
   20CHL1   H14 1423   1.525   0.140   5.734 -0.6503  0.3290  0.7421
   20CHL1   C15 1424   1.726   0.104   5.715 -0.0511 -0.5768 -0.1020
   20CHL1  H15A 1425   1.824   0.134   5.757  0.9449 -1.1651 -1.8782
   20CHL1  H15B 1426   1.705  -0.002   5.740  0.7709 -0.9665 -0.9892
   20CHL1   C16 1427   1.733   0.128   5.566  0.0241 -0.0782 -0.1045
   20CHL1  H16A 1428   1.833   0.156   5.528  0.2455  0.6160  0.9289
   20CHL1  H16B 1429   1.721   0.041   5.499  0.9146 -1.5240  1.5141
   20CHL1   C17 1430   1.644   0.261   5.529 -0.1775  0.2945 -0.5277
   20CHL1   H17 1431   1.546   0.219   5.499 -0.2501 -1.1352  1.4872
   20CHL1   C13 1432   1.626   0.317   5.671 -0.7534 -0.3204 -0.4099
   20CHL1   C18 1433   1.757   0.398   5.716 -0.2707  0.0651  0.4948
   20CHL1  H18A 1434   1.847   0.337   5.691 -0.5078 -0.0277 -0.1439
   20CHL1  H18B 1435   1.762   0.492   5.657 -0.4806 -0.2864 -0.0977
   20CHL1  H18C 1436   1.753   0.410   5.826 -3.5021  3.0149  0.2101
   20CHL1   C12 1437   1.508   0.403   5.700  0.1340 -0.1229 -0.0414
   20CHL1  H12A 1438   1.520   0.499   5.647  0.4460 -0.5401 -0.7492
   20CHL1  H12B 1439   1.418   0.346   5.668 -1.0507  1.1031  1.0057
   20CHL1   C11 1440   1.490   0.446   5.848 -0.2936  0.3501  0.4927
   20CHL1  H11A 1441   1.577   0.510   5.875 -0.7816  1.0997  0.3153
   20CHL1  H11B 1442   1.395   0.502   5.841 -1.1777 -0.9994  1.2120
   20CHL1    C9 1443   1.488   0.318   5.937 -0.4422  0.1639 -0.6959
   20CHL1    H9 1444   1.396   0.263   5.907 -0.8142  1.8446 -2.8982
   20CHL1   C10 1445   1.462   0.353   6.086  0.7597 -0.2939 -0.0705
   20CHL1   C19 1446   1.550   0.467   6.127  0.3000  0.2428 -0.0984
   20CHL1  H19A 1447   1.657   0.439   6.122  0.2872  0.3383 -3.1693
   20CHL1  H19B 1448   1.526   0.556   6.065  0.2260  0.5815  0.4179
   20CHL1  H19C 1449   1.538   0.492   6.234  1.4690 -0.7087  0.2707
   20CHL1    C1 1450   1.316   0.401   6.112  0.3900  0.0671 -0.4557
   20CHL1   H1A 1451   1.296   0.495   6.056  2.3953  1.6840  1.3564
   20CHL1   H1B 1452   1.238   0.327   6.085 -0.5848  0.1770  1.8406
   20CHL1    C2 1453   1.274   0.421   6.266 -0.3332 -0.1600 -0.1295
   20CHL1   H2A 1454   1.167   0.448   6.276 -0.6436 -1.3991  0.1454
   20CHL1   H2B 1455   1.335   0.503   6.309  0.1095 -0.7309  0.3553
   20CHL1   C20 1456   1.697   0.344   5.416 -0.2683  1.0401  0.6067
   20CHL1   H20 1457   1.783   0.404   5.452  0.3470  0.6236 -0.1398
   20CHL1   C21 1458   1.588   0.432   5.367  0.5210 -0.4185 -0.3664
   20CHL1  H21A 1459   1.505   0.374   5.322  0.5263  0.8876 -2.1436
   20CHL1  H21B 1460   1.622   0.508   5.294 -0.2193  1.3715  1.0619
   20CHL1  H21C 1461   1.542   0.505   5.438  3.1811  1.7676 -0.7110
   20CHL1   C22 1462   1.760   0.247   5.295  0.6639 -0.0726  0.3358
   20CHL1  H22A 1463   1.848   0.182   5.317 -0.0945 -0.5310  2.1976
   20CHL1  H22B 1464   1.686   0.170   5.265  3.3017 -1.7552 -2.3873
   20CHL1   C23 1465   1.788   0.335   5.166 -0.2310 -0.3490  0.1974
   20CHL1  H23A 1466   1.707   0.405   5.138  1.4530  1.7796  0.4292
   20CHL1  H23B 1467   1.875   0.395   5.199 -0.7192  0.7502 -0.4577
   20CHL1   C24 1468   1.837   0.246   5.047  0.9653 -0.1458  0.1151
   20CHL1  H24A 1469   1.924   0.180   5.071  0.9125 -0.7266 -1.2260
   20CHL1  H24B 1470   1.749   0.181   5.026 -1.5729  2.9244  0.5737
   20CHL1   C25 1471   1.896   0.327   4.921  0.5200  0.0823 -0.4256
   20CHL1   H25 1472   1.967   0.403   4.960 -0.2444  0.6691 -0.1203
   20CHL1   C26 1473   1.967   0.232   4.823 -0.5035 -0.2895  0.4240
   20CHL1  H26A 1474   1.895   0.187   4.752 -0.9747  1.5672 -0.3121
   20CHL1  H26B 1475   2.038   0.289   4.760 -0.9716 -0.0034  0.1528
   20CHL1  H26C 1476   2.013   0.140   4.866 -2.6807 -1.7099 -0.1322
   20CHL1   C27 1477   1.781   0.397   4.844  0.2532  0.2245 -0.7562
   20CHL1  H27A 1478   1.833   0.451   4.762  2.8603  2.9124  2.3748
   20CHL1  H27B 1479   1.719   0.323   4.789  3.0186 -0.7364 -2.8232
   20CHL1  H27C 1480   1.720   0.474   4.896 -1.6335 -1.1384 -0.8524
   21CHL1    C3 1481   0.982   6.187   6.313 -0.3685 -0.2288  0.2909
   21CHL1    H3 1482   0.888   6.243   6.291 -1.8298 -2.0745  1.5158
   21CHL1    O3 1483   0.983   6.158   6.449  0.2928  0.3172 -0.6177
   21CHL1   H3' 1484   0.980   6.246   6.487  0.1622 -0.0101  0.1443
   21CHL1    C4 1485   0.969   6.066   6.230 -0.2436 -0.0543 -0.4546
   21CHL1   H4A 1486   1.049   5.991   6.250 -0.2300  0.3869  1.2845
   21CHL1   H4B 1487   0.879   6.011   6.264  0.1211 -0.4923 -0.1847
   21CHL1    C5 1488   0.983   6.099   6.083  0.1373  0.0908  0.4433
   21CHL1    C6 1489   0.889   6.051   5.995  0.2307  0.6199 -0.2296
   21CHL1    H6 1490   0.804   5.988   6.026  1.0320 -0.3035  0.1460
   21CHL1    C7 1491   0.900   6.074   5.850 -0.0683 -0.2052  0.1393
   21CHL1   H7A 1492   0.886   5.976   5.799 -0.7933 -0.0412  0.0195
   21CHL1   H7B 1493   0.820   6.141   5.812  0.0485  0.1216  0.4625
   21CHL1    C8 1494   1.033   6.134   5.801  0.0105 -0.0562  0.0913
   21CHL1    H8 1495   1.110   6.053   5.797 -0.3386 -0.3740 -0.2438
   21CHL1   C14 1496   1.015   6.204   5.663  0.0512 -0.0728 -0.3843
   21CHL1   H14 1497   0.945   6.289   5.675 -0.2452  0.1108 -2.9360
   21CHL1   C15 1498   0.951   6.113   5.559 -0.6634  0.4981  0.6851
   21CHL1  H15A 1499   1.010   6.021   5.540 -0.2689  0.6025  1.3842
   21CHL1  H15B 1500   0.848   6.084   5.588 -0.5878  1.8175  2.4079
   21CHL1   C16 1501   0.975   6.195   5.428 -0.0218  0.4553  0.0165
   21CHL1  H16A 1502   1.017   6.122   5.356  0.0314  0.3667  0.1376
   21CHL1  H16B 1503   0.885   6.244   5.384  0.8537  2.0029 -0.1395
   21CHL1   C17 1504   1.082   6.310   5.465  0.6450 -0.3392  0.1240
   21CHL1   H17 1505   1.012   6.392   5.492 -1.3098 -1.3296 -1.6412
   21CHL1   C13 1506   1.143   6.263   5.605  0.6148  0.6833  0.6035
   21CHL1   C18 1507   1.241   6.144   5.574 -0.3076  0.2827  1.5453
   21CHL1  H18A 1508   1.323   6.197   5.522 -1.6462  0.0789 -0.8746
   21CHL1  H18B 1509   1.277   6.089   5.664 -0.0326 -1.8662  0.1964
   21CHL1  H18C 1510   1.206   6.074   5.495 -0.7428  0.6563  1.4064
   21CHL1   C12 1511   1.201   6.374   5.702  0.2209  0.9950  0.2782
   21CHL1  H12A 1512   1.298   6.412   5.664  0.0597  1.1975  0.0671
   21CHL1  H12B 1513   1.127   6.455   5.688  0.7313  1.4799  0.3915
   21CHL1   C11 1514   1.208   6.323   5.844  0.7816  0.1748  0.4398
   21CHL1  H11A 1515   1.295   6.255   5.829  1.3052  0.7532  0.7920
   21CHL1  H11B 1516   1.245   6.404   5.911  1.8104 -0.5741  0.8051
   21CHL1    C9 1517   1.083   6.242   5.894 -0.2623  0.3886 -0.3183
   21CHL1    H9 1518   0.998   6.310   5.913  0.1809  0.9088 -0.1798
   21CHL1   C10 1519   1.100   6.194   6.043  0.5277  0.0832 -0.0929
   21CHL1   C19 1520   1.233   6.122   6.059 -0.8379  0.1030 -0.4250
   21CHL1  H19A 1521   1.318   6.190   6.039  0.3714 -1.0282  0.6226
   21CHL1  H19B 1522   1.261   6.083   6.159 -2.9706 -1.4465 -0.3624
   21CHL1  H19C 1523   1.238   6.040   5.984  0.6007 -0.1972 -0.0371
   21CHL1    C1 1524   1.108   6.315   6.137  0.0079  0.7095  0.1191
   21CHL1   H1A 1525   1.195   6.382   6.119  2.9177 -2.7907 -0.1551
   21CHL1   H1B 1526   1.016   6.368   6.104 -0.1980  1.5543  1.9507
   21CHL1    C2 1527   1.104   6.276   6.282  0.2682 -0.0034  0.3151
   21CHL1   H2A 1528   1.089   6.364   6.349  4.0299  0.4157  0.7904
   21CHL1   H2B 1529   1.199   6.223   6.305 -0.5883 -0.8901  2.0919
   21CHL1   C20 1530   1.175   6.354   5.349 -0.4885  0.3121  0.4333
   21CHL1   H20 1531   1.264   6.289   5.341 -1.0306 -0.4538  0.5145
   21CHL1   C21 1532   1.222   6.501   5.376  0.5165 -0.6058 -0.3174
   21CHL1  H21A 1533   1.138   6.571   5.359 -0.0769 -1.5926 -1.6104
   21CHL1  H21B 1534   1.306   6.522   5.307  0.3743  0.5473 -0.1468
   21CHL1  H21C 1535   1.263   6.509   5.479 -1.1945 -1.5082  0.4913
   21CHL1   C22 1536   1.104   6.353   5.208 -0.3065  0.7003 -0.6753
   21CHL1  H22A 1537   1.090   6.243   5.193  0.9789  0.1427  1.6393
   21CHL1  H22B 1538   1.004   6.399   5.214  0.0028  1.2692  0.3475
   21CHL1   C23 1539   1.188   6.393   5.092  0.1609  0.0740  0.2613
   21CHL1  H23A 1540   1.221   6.499   5.102  0.8874 -0.0946 -0.2732
   21CHL1  H23B 1541   1.278   6.331   5.073 -0.1043  0.1719 -1.5203
   21CHL1   C24 1542   1.101   6.401   4.963  0.4409  0.6705 -0.3073
   21CHL1  H24A 1543   1.077   6.296   4.936  1.5773 -0.1773  1.7208
   21CHL1  H24B 1544   1.007   6.456   4.981 -0.6166 -1.0978 -0.1845
   21CHL1   C25 1545   1.175   6.462   4.843 -0.3208  0.3606 -0.8365
   21CHL1   H25 1546   1.208   6.565   4.865 -0.7078  0.8112 -2.2236
   21CHL1   C26 1547   1.305   6.385   4.797 -0.1201 -0.0823 -0.1212
   21CHL1  H26A 1548   1.383   6.399   4.875  1.8578 -1.8950 -1.6462
   21CHL1  H26B 1549   1.285   6.275   4.792 -2.5128  0.3161 -0.6487
   21CHL1  H26C 1550   1.341   6.418   4.698  1.3192 -2.1441 -0.3618
   21CHL1   C27 1551   1.072   6.478   4.722  0.8087 -0.1073 -0.8961
   21CHL1  H27A 1552   0.975   6.522   4.752  1.3423  0.7033 -0.3055
   21CHL1  H27B 1553   1.123   6.539   4.645 -0.2584 -0.1087 -1.6221
   21CHL1  H27C 1554   1.052   6.378   4.677 -0.0750 -0.9290  1.1842
   22CHL1    C3 1555   2.940   3.306   6.068 -0.5619  0.1860  0.4492
   22CHL1    H3 1556   2.846   3.334   6.016  0.0292  0.8529 -0.2698
   22CHL1    O3 1557   2.921   3.282   6.207 -0.3941 -0.4599 -0.6504
   22CHL1   H3' 1558   3.001   3.236   6.234  0.7917  3.1333  2.6799
   22CHL1    C4 1559   2.997   3.184   5.996  0.9125 -0.2218 -0.8219
   22CHL1   H4A 1560   3.093   3.160   6.047  1.4847  0.6569 -1.4343
   22CHL1   H4B 1561   2.929   3.099   6.013  1.5695 -0.7770 -0.9301
   22CHL1    C5 1562   3.022   3.210   5.846 -0.7418  0.7112 -0.8803
   22CHL1    C6 1563   2.960   3.136   5.750  0.6839 -0.0074 -0.3086
   22CHL1    H6 1564   2.910   3.041   5.773 -0.7646  0.3591 -1.7286
   22CHL1    C7 1565   2.975   3.157   5.609 -0.2915 -0.1086  1.2702
   22CHL1   H7A 1566   2.999   3.057   5.568 -0.1641  0.6596 -0.6022
   22CHL1   H7B 1567   2.877   3.193   5.573  1.0186  0.8248 -1.6109
   22CHL1    C8 1568   3.094   3.253   5.575 -0.0458 -0.2625  0.3287
   22CHL1    H8 1569   3.193   3.205   5.592  0.3975  0.8787  1.1036
   22CHL1   C14 1570   3.079   3.297   5.430 -0.1839 -0.4226  0.5421
   22CHL1   H14 1571   2.978   3.343   5.427  0.0023 -0.0520 -0.2994
   22CHL1   C15 1572   3.088   3.182   5.327 -0.6930  0.1957 -0.3016
   22CHL1  H15A 1573   3.181   3.125   5.346  1.5776  4.1846  1.6859
   22CHL1  H15B 1574   2.998   3.117   5.314 -1.8560  1.9453 -1.5758
   22CHL1   C16 1575   3.099   3.265   5.195  0.4228 -0.2203 -0.5414
   22CHL1  H16A 1576   3.176   3.221   5.128 -2.2426 -0.7686 -3.5140
   22CHL1  H16B 1577   3.004   3.255   5.138  0.3971 -0.9988 -0.3657
   22CHL1   C17 1578   3.137   3.412   5.242 -0.5088 -0.3485 -0.2251
   22CHL1   H17 1579   3.039   3.465   5.240  0.1170  0.8344 -0.3533
   22CHL1   C13 1580   3.175   3.397   5.387  0.0198  0.7021 -0.0233
   22CHL1   C18 1581   3.324   3.347   5.401 -0.0688  0.5779  0.6986
   22CHL1  H18A 1582   3.343   3.259   5.335 -1.2183 -1.1794  2.6004
   22CHL1  H18B 1583   3.390   3.431   5.371 -0.2456  0.1030 -1.1257
   22CHL1  H18C 1584   3.358   3.318   5.503 -1.0973 -2.4651  0.2807
   22CHL1   C12 1585   3.147   3.523   5.468  0.3200  0.1684  0.0322
   22CHL1  H12A 1586   3.209   3.607   5.430  2.3474 -0.2792  2.0811
   22CHL1  H12B 1587   3.041   3.553   5.458  0.4631  1.3145  1.5488
   22CHL1   C11 1588   3.182   3.491   5.611  0.5050  0.4367 -0.7926
   22CHL1  H11A 1589   3.290   3.466   5.621  0.3867  0.1107 -0.2822
   22CHL1  H11B 1590   3.156   3.579   5.673 -1.6379 -0.7753  0.1598
   22CHL1    C9 1591   3.095   3.373   5.664 -0.5698 -0.3038  0.4173
   22CHL1    H9 1592   2.993   3.412   5.646  0.0182  0.0321 -2.7797
   22CHL1   C10 1593   3.102   3.335   5.814  0.2730 -0.1888 -0.5902
   22CHL1   C19 1594   3.247   3.327   5.871  0.0579  0.5412  0.3377
   22CHL1  H19A 1595   3.286   3.232   5.828 -1.5885  0.1569 -0.3871
   22CHL1  H19B 1596   3.300   3.420   5.841 -1.9896  1.6823  0.0191
   22CHL1  H19C 1597   3.260   3.317   5.980 -2.8417  0.3615  0.7625
   22CHL1    C1 1598   3.032   3.457   5.887  0.6386  0.4352  0.6684
   22CHL1   H1A 1599   3.105   3.540   5.872  0.7528  0.3509  0.7605
   22CHL1   H1B 1600   2.932   3.484   5.848  0.3310 -1.7024 -0.1634
   22CHL1    C2 1601   3.023   3.432   6.046 -0.1151 -0.0230  0.0547
   22CHL1   H2A 1602   2.974   3.523   6.085 -0.0560 -1.2760  3.3452
   22CHL1   H2B 1603   3.118   3.419   6.102 -0.2174 -1.3661 -0.0387
   22CHL1   C20 1604   3.233   3.477   5.133  0.8734 -0.5078 -0.7327
   22CHL1   H20 1605   3.321   3.408   5.125  0.8001 -0.7751  0.6207
   22CHL1   C21 1606   3.280   3.618   5.189 -0.3202  0.2993  0.4410
   22CHL1  H21A 1607   3.199   3.693   5.203 -1.6911 -1.0575  0.0014
   22CHL1  H21B 1608   3.356   3.652   5.115  0.5463 -0.4635  0.9644
   22CHL1  H21C 1609   3.343   3.608   5.280 -1.0660 -0.7816  0.8475
   22CHL1   C22 1610   3.170   3.481   4.990 -0.3509  0.1152  0.4424
   22CHL1  H22A 1611   3.134   3.378   4.967  1.3475 -0.3466 -0.2757
   22CHL1  H22B 1612   3.090   3.559   4.995 -0.4752  0.0119  0.0659
   22CHL1   C23 1613   3.253   3.515   4.869  0.0050 -1.0225 -0.4953
   22CHL1  H23A 1614   3.308   3.606   4.900 -1.4116  0.0996 -1.1835
   22CHL1  H23B 1615   3.332   3.436   4.862 -0.8045 -2.5021  3.8621
   22CHL1   C24 1616   3.187   3.531   4.732 -0.2976 -0.5355 -0.8884
   22CHL1  H24A 1617   3.264   3.516   4.654 -0.6064  1.4466 -1.6375
   22CHL1  H24B 1618   3.109   3.456   4.706 -0.4206 -0.7542  0.0574
   22CHL1   C25 1619   3.130   3.671   4.714 -0.1708  0.1396  0.2825
   22CHL1   H25 1620   3.164   3.737   4.797  0.2135 -0.7565  0.8472
   22CHL1   C26 1621   3.178   3.734   4.583 -0.1901 -0.3659  0.1876
   22CHL1  H26A 1622   3.142   3.679   4.493 -2.1512 -2.5598  2.1764
   22CHL1  H26B 1623   3.132   3.835   4.580  0.1550 -0.2070  0.1696
   22CHL1  H26C 1624   3.289   3.741   4.588 -0.2116  1.2228 -0.6444
   22CHL1   C27 1625   2.978   3.671   4.716 -0.0798 -0.0365 -1.0734
   22CHL1  H27A 1626   2.944   3.770   4.678  1.3655  0.7658 -0.3520
   22CHL1  H27B 1627   2.941   3.598   4.640 -0.7072  1.1448 -1.9393
   22CHL1  H27C 1628   2.920   3.657   4.810 -1.7492 -0.3483 -2.1128
   23CHL1    C3 1629   1.486   1.567   6.532 -0.0898  0.1873  0.9152
   23CHL1    H3 1630   1.494   1.468   6.580  0.3752  0.4087  1.3039
   23CHL1    O3 1631   1.445   1.644   6.645  0.3085 -0.1579 -0.1809
   23CHL1   H3' 1632   1.524   1.670   6.692  1.5880  0.3736 -2.4517
   23CHL1    C4 1633   1.631   1.618   6.489 -0.4282  0.0770 -0.2912
   23CHL1   H4A 1634   1.608   1.725   6.473 -2.2838  0.2131  2.5584
   23CHL1   H4B 1635   1.710   1.603   6.566  0.4387 -0.4011 -1.2537
   23CHL1    C5 1636   1.673   1.555   6.353 -0.2659 -1.1635 -0.4533
   23CHL1    C6 1637   1.791   1.491   6.345  0.5439  0.2626  0.3541
   23CHL1    H6 1638   1.855   1.479   6.434 -0.2542 -0.5969  0.8341
   23CHL1    C7 1639   1.830   1.412   6.223 -0.3095 -0.1350  0.0092
   23CHL1   H7A 1640   1.939   1.424   6.208  0.0428  2.1664  3.3746
   23CHL1   H7B 1641   1.813   1.304   6.243 -0.9144 -0.4019 -1.7514
   23CHL1    C8 1642   1.755   1.449   6.098  0.3880 -0.2402  0.3146
   23CHL1    H8 1643   1.788   1.551   6.069  0.4188  0.1551  1.6959
   23CHL1   C14 1644   1.783   1.348   5.994 -0.4364 -0.0486 -0.3672
   23CHL1   H14 1645   1.739   1.253   6.033 -0.4601  0.4391  0.8644
   23CHL1   C15 1646   1.932   1.320   5.949 -0.2826  0.1524  0.1801
   23CHL1  H15A 1647   1.994   1.411   5.940  1.2795 -0.9387 -0.6180
   23CHL1  H15B 1648   1.974   1.256   6.030 -1.8128 -1.0572  0.0698
   23CHL1   C16 1649   1.923   1.253   5.817  0.2877  0.2643 -0.3547
   23CHL1  H16A 1650   1.983   1.314   5.746 -0.3025  1.0890 -0.1592
   23CHL1  H16B 1651   1.970   1.152   5.822 -1.4511 -0.5205  1.5482
   23CHL1   C17 1652   1.768   1.263   5.780 -0.3932 -0.2589 -0.0929
   23CHL1   H17 1653   1.721   1.178   5.833 -1.7354 -0.0553 -0.9158
   23CHL1   C13 1654   1.714   1.372   5.863 -0.2192 -0.2636  0.5075
   23CHL1   C18 1655   1.740   1.513   5.793 -0.6394 -0.0397  0.0524
   23CHL1  H18A 1656   1.670   1.526   5.707 -1.4547  0.1042  0.7264
   23CHL1  H18B 1657   1.713   1.592   5.866 -0.3444 -0.6562  0.8416
   23CHL1  H18C 1658   1.846   1.522   5.760 -0.1793 -1.5735  1.0286
   23CHL1   C12 1659   1.558   1.368   5.882  0.1090 -0.0719  0.0547
   23CHL1  H12A 1660   1.498   1.399   5.794 -1.9662  1.1164  1.7677
   23CHL1  H12B 1661   1.524   1.267   5.916 -0.3217 -0.9923 -2.8466
   23CHL1   C11 1662   1.520   1.477   5.992  0.1503  0.2260 -0.7494
   23CHL1  H11A 1663   1.536   1.572   5.938 -0.0701  0.6969  0.0033
   23CHL1  H11B 1664   1.411   1.478   6.013  0.4138  0.3152  0.6854
   23CHL1    C9 1665   1.603   1.453   6.121  0.5174  0.4372  0.6366
   23CHL1    H9 1666   1.580   1.350   6.157  0.7506  0.2635  0.2972
   23CHL1   C10 1667   1.570   1.550   6.239  0.3225 -0.5059  0.3857
   23CHL1   C19 1668   1.564   1.696   6.183 -0.3388 -0.8637 -0.6982
   23CHL1  H19A 1669   1.659   1.736   6.140 -1.2702  1.2919 -0.8990
   23CHL1  H19B 1670   1.483   1.717   6.111 -1.5301 -0.1388  0.8034
   23CHL1  H19C 1671   1.536   1.771   6.260 -2.3825 -0.3710 -1.8613
   23CHL1    C1 1672   1.428   1.521   6.290  0.1426  0.4681 -0.0949
   23CHL1   H1A 1673   1.347   1.549   6.220 -0.1080  1.5335  0.5970
   23CHL1   H1B 1674   1.439   1.413   6.315  2.0325  1.1538  2.4540
   23CHL1    C2 1675   1.380   1.581   6.420 -0.3195 -0.2336  0.4749
   23CHL1   H2A 1676   1.286   1.538   6.462 -0.5437 -1.1622 -0.9265
   23CHL1   H2B 1677   1.371   1.691   6.406 -0.2095 -0.4909 -2.1700
   23CHL1   C20 1678   1.718   1.260   5.635  0.9245 -0.1793  0.7230
   23CHL1   H20 1679   1.666   1.351   5.597  2.8587  1.2667  1.3941
   23CHL1   C21 1680   1.608   1.147   5.627  0.4192  0.3860 -0.6205
   23CHL1  H21A 1681   1.585   1.126   5.520  2.6100 -0.2092 -1.0281
   23CHL1  H21B 1682   1.519   1.166   5.691  1.3053 -0.1058  0.8120
   23CHL1  H21C 1683   1.643   1.061   5.688 -0.2087  2.6849  3.3047
   23CHL1   C22 1684   1.838   1.244   5.539  0.1627  0.9735  0.4030
   23CHL1  H22A 1685   1.901   1.335   5.548  0.2259  0.7794  2.5073
   23CHL1  H22B 1686   1.897   1.155   5.569 -2.4228 -0.2493  2.3018
   23CHL1   C23 1687   1.804   1.221   5.392  0.3290  0.0834  0.3776
   23CHL1  H23A 1688   1.903   1.222   5.342  0.3543  2.1578  0.3574
   23CHL1  H23B 1689   1.747   1.126   5.388  0.4395  0.0447 -1.9678
   23CHL1   C24 1690   1.722   1.336   5.328  1.0519 -1.0143 -0.1199
   23CHL1  H24A 1691   1.625   1.357   5.378  1.8515  3.3038 -0.0548
   23CHL1  H24B 1692   1.776   1.433   5.334 -0.7919  0.1954 -1.7146
   23CHL1   C25 1693   1.675   1.317   5.176 -0.6936 -0.1368 -0.1983
   23CHL1   H25 1694   1.762   1.276   5.120 -0.6912 -0.7537  0.2506
   23CHL1   C26 1695   1.569   1.212   5.163 -0.5527  0.1864 -0.0628
   23CHL1  H26A 1696   1.486   1.235   5.232 -0.5628  0.6225 -0.2193
   23CHL1  H26B 1697   1.527   1.203   5.060  3.1270 -1.1198 -1.6694
   23CHL1  H26C 1698   1.609   1.114   5.196 -0.8725 -0.1400 -0.6158
   23CHL1   C27 1699   1.633   1.446   5.110 -0.3967 -0.0503  0.3224
   23CHL1  H27A 1700   1.619   1.443   5.000  3.0056 -1.3748 -0.1913
   23CHL1  H27B 1701   1.535   1.484   5.147 -0.0735  0.6989  0.4277
   23CHL1  H27C 1702   1.708   1.524   5.136 -1.7258  1.1305  0.7827
   24CHL1    C3 1703   3.578   4.319   6.067 -0.5380 -0.0293 -0.1587
   24CHL1    H3 1704   3.671   4.263   6.044 -1.2580 -0.2714 -2.7520
   24CHL1    O3 1705   3.545   4.316   6.206 -0.6608 -0.3885 -0.7438
   24CHL1   H3' 1706   3.497   4.394   6.234  1.0340  1.3843 -2.4066
   24CHL1    C4 1707   3.590   4.467   6.024 -0.4178 -0.2133  0.0983
   24CHL1   H4A 1708   3.494   4.517   6.050 -0.1790 -0.4525  1.5312
   24CHL1   H4B 1709   3.668   4.514   6.088 -0.3704  0.0943 -0.1802
   24CHL1    C5 1710   3.618   4.475   5.878 -0.1171  0.2747  0.3127
   24CHL1    C6 1711   3.730   4.532   5.831  0.8878 -1.2066  0.4501
   24CHL1    H6 1712   3.784   4.590   5.908 -1.2331  0.2173  0.9573
   24CHL1    C7 1713   3.763   4.561   5.691  0.1418 -0.0028  0.5725
   24CHL1   H7A 1714   3.807   4.662   5.681  0.7398 -0.4059 -1.6012
   24CHL1   H7B 1715   3.848   4.495   5.661  1.2740  1.3026  0.8399
   24CHL1    C8 1716   3.653   4.525   5.591  0.5357  0.7181  0.4906
   24CHL1    H8 1717   3.576   4.605   5.594  0.0983  0.3342 -0.2260
   24CHL1   C14 1718   3.705   4.509   5.447  0.2691  0.0491  0.1281
   24CHL1   H14 1719   3.763   4.415   5.446 -1.6145 -1.1880  0.4871
   24CHL1   C15 1720   3.789   4.615   5.377  1.5698  0.0990 -0.6156
   24CHL1  H15A 1721   3.751   4.712   5.416 -1.8282  0.0457 -3.3750
   24CHL1  H15B 1722   3.893   4.611   5.416  1.5396  0.7659 -0.4512
   24CHL1   C16 1723   3.772   4.598   5.228  0.4833  0.3298  0.3117
   24CHL1  H16A 1724   3.737   4.700   5.199 -0.4840  0.5388  2.0979
   24CHL1  H16B 1725   3.874   4.573   5.190 -0.0741 -1.4000 -0.1222
   24CHL1   C17 1726   3.671   4.483   5.208  0.6260  0.0278  0.4449
   24CHL1   H17 1727   3.729   4.389   5.194 -1.5477 -1.3467  0.2634
   24CHL1   C13 1728   3.599   4.473   5.345 -0.3843 -0.1611 -0.6361
   24CHL1   C18 1729   3.491   4.578   5.357  0.9110  0.0989  0.2539
   24CHL1  H18A 1730   3.446   4.575   5.459 -0.3820  1.5912 -0.2333
   24CHL1  H18B 1731   3.525   4.682   5.338  0.1081  0.4521  0.6935
   24CHL1  H18C 1732   3.411   4.564   5.282 -0.4933 -0.2914  1.7744
   24CHL1   C12 1733   3.531   4.337   5.382 -0.4603 -0.2208  0.7469
   24CHL1  H12A 1734   3.438   4.326   5.323 -0.0444  0.6652 -0.1111
   24CHL1  H12B 1735   3.598   4.251   5.357 -0.2397  0.1654 -0.0206
   24CHL1   C11 1736   3.480   4.329   5.530 -0.0452  0.3640 -0.8834
   24CHL1  H11A 1737   3.388   4.389   5.547  1.5856  2.5491  0.9770
   24CHL1  H11B 1738   3.459   4.223   5.556  1.2014  0.6227  1.3907
   24CHL1    C9 1739   3.574   4.397   5.632  0.1155 -0.0603 -0.0516
   24CHL1    H9 1740   3.657   4.323   5.624  0.3227  0.1398  0.2125
   24CHL1   C10 1741   3.522   4.406   5.777 -0.4419 -0.5734  0.8070
   24CHL1   C19 1742   3.401   4.499   5.787  0.8062  0.0605  0.2125
   24CHL1  H19A 1743   3.323   4.457   5.720 -1.1214 -0.4013  2.6058
   24CHL1  H19B 1744   3.359   4.502   5.890  1.8455 -1.1741  0.7008
   24CHL1  H19C 1745   3.413   4.602   5.748 -1.1144 -0.2470 -1.3043
   24CHL1    C1 1746   3.492   4.267   5.835 -0.2677 -0.1617  0.2077
   24CHL1   H1A 1747   3.395   4.243   5.787 -0.9635  1.9593  0.4666
   24CHL1   H1B 1748   3.569   4.195   5.799 -1.2337 -1.1455  0.0733
   24CHL1    C2 1749   3.466   4.260   5.989 -0.1609 -1.0004  0.0991
   24CHL1   H2A 1750   3.454   4.158   6.031 -1.3828 -0.3215  1.5324
   24CHL1   H2B 1751   3.373   4.318   6.008  0.0110 -0.6889  0.0041
   24CHL1   C20 1752   3.583   4.501   5.084 -0.3073 -0.2423 -0.3711
   24CHL1   H20 1753   3.493   4.436   5.090 -0.8934  0.2325 -2.7911
   24CHL1   C21 1754   3.658   4.442   4.969  0.1507  0.1379  0.5991
   24CHL1  H21A 1755   3.665   4.333   4.984  1.5813  0.2454  0.8632
   24CHL1  H21B 1756   3.762   4.480   4.959  0.4877 -1.1747 -1.3751
   24CHL1  H21C 1757   3.604   4.462   4.874  1.0806 -1.3751 -0.2731
   24CHL1   C22 1758   3.534   4.646   5.038  0.3516 -0.4952 -0.4374
   24CHL1  H22A 1759   3.500   4.708   5.123 -0.7579 -0.5853 -0.7966
   24CHL1  H22B 1760   3.619   4.704   4.998  0.0176 -1.1182 -2.1135
   24CHL1   C23 1761   3.433   4.655   4.921  0.2790 -0.2869  0.1132
   24CHL1  H23A 1762   3.477   4.619   4.826  1.4829  0.7454  0.2563
   24CHL1  H23B 1763   3.343   4.593   4.942  0.4791 -0.4999  0.3554
   24CHL1   C24 1764   3.385   4.800   4.908  0.5865 -0.7512  0.1754
   24CHL1  H24A 1765   3.331   4.819   5.003  1.1448  1.7521  0.0503
   24CHL1  H24B 1766   3.476   4.864   4.910  0.1120 -0.0630 -0.0271
   24CHL1   C25 1767   3.279   4.825   4.795  0.9142 -0.0668  0.0997
   24CHL1   H25 1768   3.195   4.760   4.828  1.5978 -0.7135  0.6184
   24CHL1   C26 1769   3.230   4.972   4.796  0.5472 -0.1253 -0.7829
   24CHL1  H26A 1770   3.158   4.991   4.714 -0.0439 -0.4029 -0.3356
   24CHL1  H26B 1771   3.182   4.987   4.896  1.3599  0.8295 -0.5141
   24CHL1  H26C 1772   3.322   5.034   4.785 -0.1396  1.0590 -0.0901
   24CHL1   C27 1773   3.330   4.796   4.660 -0.1063  0.2519  0.4562
   24CHL1  H27A 1774   3.256   4.792   4.578  1.4725  0.4201 -1.0471
   24CHL1  H27B 1775   3.415   4.863   4.631  0.2575 -1.1194 -1.8891
   24CHL1  H27C 1776   3.370   4.693   4.658 -0.7012  0.0268 -0.1364
   25CHL1    C3 1777   0.603   6.561   6.425 -0.0435  0.6567  0.1899
   25CHL1    H3 1778   0.700   6.616   6.418  0.0132  0.5841  0.3815
   25CHL1    O3 1779   0.575   6.548   6.563  0.0388 -0.0560  0.9870
   25CHL1   H3' 1780   0.482   6.526   6.570 -0.0028  0.3291  1.7608
   25CHL1    C4 1781   0.504   6.659   6.366 -0.2400  0.0477  0.0977
   25CHL1   H4A 1782   0.399   6.624   6.377 -1.5033  3.1366 -0.9582
   25CHL1   H4B 1783   0.513   6.755   6.421 -2.0698  0.5972 -0.4753
   25CHL1    C5 1784   0.531   6.679   6.216 -0.6115  0.0982 -0.4899
   25CHL1    C6 1785   0.570   6.797   6.171 -0.0027  0.8858 -0.6927
   25CHL1    H6 1786   0.560   6.886   6.236 -0.5791 -0.0740  0.5694
   25CHL1    C7 1787   0.600   6.820   6.024 -0.3327 -0.1951  0.3279
   25CHL1   H7A 1788   0.546   6.911   5.991 -0.3122 -0.0310  0.7387
   25CHL1   H7B 1789   0.708   6.843   6.021 -0.3662  0.2816  1.8942
   25CHL1    C8 1790   0.571   6.705   5.931 -0.0797  0.7957 -0.2177
   25CHL1    H8 1791   0.463   6.711   5.907 -0.1829 -0.0381  0.0136
   25CHL1   C14 1792   0.645   6.716   5.798 -0.6134 -0.0404 -0.3465
   25CHL1   H14 1793   0.751   6.725   5.831 -0.7693 -0.0000  0.1589
   25CHL1   C15 1794   0.615   6.840   5.722  1.0457 -0.4873  0.4567
   25CHL1  H15A 1795   0.505   6.849   5.725  0.8207 -1.7179 -1.9145
   25CHL1  H15B 1796   0.661   6.929   5.770  1.1379  0.5473 -1.4425
   25CHL1   C16 1797   0.678   6.810   5.581  0.2028 -0.6221 -0.6693
   25CHL1  H16A 1798   0.615   6.850   5.498 -0.5560  2.4787  1.2370
   25CHL1  H16B 1799   0.770   6.872   5.583 -0.1947  0.0260 -1.5560
   25CHL1   C17 1800   0.714   6.658   5.582  0.6359  0.2317  0.4087
   25CHL1   H17 1801   0.816   6.653   5.625  0.3224 -0.5762  1.0866
   25CHL1   C13 1802   0.639   6.594   5.694 -0.1764 -1.0592 -0.1457
   25CHL1   C18 1803   0.492   6.576   5.642  0.0870 -0.1571  0.2898
   25CHL1  H18A 1804   0.429   6.564   5.732  0.4694 -0.3255  0.5340
   25CHL1  H18B 1805   0.455   6.665   5.586 -0.5716 -0.3284  0.4452
   25CHL1  H18C 1806   0.489   6.479   5.588  1.1435  0.1043 -0.2676
   25CHL1   C12 1807   0.687   6.471   5.773  0.0359  0.9880  0.4034
   25CHL1  H12A 1808   0.682   6.383   5.705  3.5043  0.9144  0.0243
   25CHL1  H12B 1809   0.795   6.471   5.801 -0.6412 -1.9017  3.6549
   25CHL1   C11 1810   0.597   6.448   5.898  0.6707 -0.4861 -1.0294
   25CHL1  H11A 1811   0.491   6.429   5.869  0.2997 -1.2368  0.7008
   25CHL1  H11B 1812   0.635   6.356   5.948 -2.9997 -1.8584 -0.4422
   25CHL1    C9 1813   0.603   6.569   5.999 -0.0545 -0.5292  0.0863
   25CHL1    H9 1814   0.713   6.582   6.012 -0.0776  0.6423 -0.6921
   25CHL1   C10 1815   0.541   6.543   6.139  0.2490 -0.4107  0.0446
   25CHL1   C19 1816   0.399   6.495   6.112  0.1124 -0.0520  0.0304
   25CHL1  H19A 1817   0.350   6.447   6.199 -1.6620  0.0534 -0.8707
   25CHL1  H19B 1818   0.334   6.570   6.062  0.5183 -1.6243 -3.1051
   25CHL1  H19C 1819   0.396   6.413   6.037 -0.8525  0.2935 -0.3250
   25CHL1    C1 1820   0.639   6.444   6.212  0.2051  0.7562  0.6632
   25CHL1   H1A 1821   0.647   6.344   6.163  1.9134  0.5210  1.3637
   25CHL1   H1B 1822   0.743   6.482   6.209  1.0728 -1.4999  0.1620
   25CHL1    C2 1823   0.597   6.424   6.355  0.1554 -0.1557  0.2066
   25CHL1   H2A 1824   0.661   6.341   6.393 -1.3786 -0.0740  3.2941
   25CHL1   H2B 1825   0.493   6.386   6.370 -0.0311  0.6830  1.1388
   25CHL1   C20 1826   0.716   6.609   5.439 -0.5073 -0.0249  0.1537
   25CHL1   H20 1827   0.622   6.650   5.397 -1.1280 -0.3819  1.1662
   25CHL1   C21 1828   0.716   6.457   5.421 -0.1332 -0.2049  0.3713
   25CHL1  H21A 1829   0.748   6.430   5.318  0.8405 -2.1472  1.1307
   25CHL1  H21B 1830   0.619   6.413   5.450  1.0017 -1.9514  1.7457
   25CHL1  H21C 1831   0.795   6.427   5.493  0.0421 -0.8211 -0.0721
   25CHL1   C22 1832   0.829   6.678   5.346 -0.0743 -0.1935  0.3551
   25CHL1  H22A 1833   0.858   6.772   5.396 -2.3999  1.4125 -1.0911
   25CHL1  H22B 1834   0.908   6.600   5.343 -0.5342 -0.7973  2.2637
   25CHL1   C23 1835   0.774   6.714   5.210  0.5513 -0.1555 -0.6790
   25CHL1  H23A 1836   0.744   6.620   5.158 -0.2725  0.5909 -1.6072
   25CHL1  H23B 1837   0.681   6.771   5.232  0.8475 -0.2675  0.9443
   25CHL1   C24 1838   0.865   6.765   5.100  0.4478 -0.1816  0.3805
   25CHL1  H24A 1839   0.900   6.869   5.118  1.5567 -0.9517  3.2797
   25CHL1  H24B 1840   0.952   6.696   5.099  1.4236  0.9953 -1.0041
   25CHL1   C25 1841   0.795   6.781   4.961  0.6655 -0.1820  0.2490
   25CHL1   H25 1842   0.755   6.680   4.937  2.3123 -1.0378  0.9814
   25CHL1   C26 1843   0.692   6.884   4.958 -0.3846 -0.5661  0.4933
   25CHL1  H26A 1844   0.744   6.974   4.996  0.4200 -0.7178 -0.2187
   25CHL1  H26B 1845   0.655   6.903   4.855  0.9024  0.7151  0.2248
   25CHL1  H26C 1846   0.602   6.865   5.020 -0.5552 -2.9754 -0.3739
   25CHL1   C27 1847   0.902   6.826   4.857 -0.3836  0.5871  0.5527
   25CHL1  H27A 1848   0.860   6.814   4.755 -0.5681 -0.3792  0.7406
   25CHL1  H27B 1849   0.939   6.925   4.891  1.4177 -0.6802  2.5314
   25CHL1  H27C 1850   0.995   6.765   4.856 -1.2958 -0.8746 -1.0444
   26CHL1    C3 1851   5.591   4.329   6.623 -0.2198  0.3215 -0.1598
   26CHL1    H3 1852   5.668   4.409   6.614 -0.8621  1.0156  0.3706
   26CHL1    O3 1853   5.550   4.299   6.754  0.1963 -0.5094 -0.1836
   26CHL1   H3' 1854   5.502   4.217   6.740 -0.1664 -0.2318 -0.5914
   26CHL1    C4 1855   5.473   4.379   6.545 -0.0955  0.8800  0.4262
   26CHL1   H4A 1856   5.392   4.305   6.560  0.1068  0.9469  2.0764
   26CHL1   H4B 1857   5.433   4.470   6.596  0.5092  0.0586  2.4911
   26CHL1    C5 1858   5.503   4.405   6.397  0.6854 -0.3793  0.6495
   26CHL1    C6 1859   5.477   4.528   6.341  0.3247  0.4465  0.5661
   26CHL1    H6 1860   5.428   4.597   6.411 -0.5177  0.2959  0.1335
   26CHL1    C7 1861   5.502   4.554   6.196  0.3540  0.0939 -0.5613
   26CHL1   H7A 1862   5.419   4.605   6.142  1.0955  0.0861 -1.7545
   26CHL1   H7B 1863   5.576   4.634   6.174 -0.5600  0.8255 -1.0920
   26CHL1    C8 1864   5.541   4.428   6.109 -0.7319 -0.1635 -0.3760
   26CHL1    H8 1865   5.444   4.374   6.101  0.2985 -2.4760  1.5058
   26CHL1   C14 1866   5.594   4.474   5.977 -0.2037 -0.4055 -0.2223
   26CHL1   H14 1867   5.682   4.540   5.994 -0.5417 -0.2622  1.0240
   26CHL1   C15 1868   5.492   4.551   5.897 -0.2938 -0.5443  0.1594
   26CHL1  H15A 1869   5.390   4.509   5.915 -1.0525  1.3920  0.5761
   26CHL1  H15B 1870   5.498   4.653   5.940 -0.6504 -0.7161  0.6234
   26CHL1   C16 1871   5.532   4.531   5.751 -0.1761 -0.4311  0.9363
   26CHL1  H16A 1872   5.446   4.489   5.696 -1.4265  0.5050  2.1126
   26CHL1  H16B 1873   5.562   4.627   5.705  0.5535 -1.4626 -0.8509
   26CHL1   C17 1874   5.651   4.429   5.759  0.5150  0.4636  0.4232
   26CHL1   H17 1875   5.743   4.488   5.781  2.5942 -2.9650  1.8028
   26CHL1   C13 1876   5.630   4.354   5.891 -0.6204 -0.6217 -0.0546
   26CHL1   C18 1877   5.508   4.257   5.869  0.1977  0.0192  0.3254
   26CHL1  H18A 1878   5.419   4.315   5.837 -1.7119 -0.9419  3.5026
   26CHL1  H18B 1879   5.528   4.193   5.780 -2.6200 -1.0302  0.3519
   26CHL1  H18C 1880   5.494   4.196   5.960  1.0171 -1.3802 -0.4478
   26CHL1   C12 1881   5.750   4.289   5.966  0.2082  0.6531  0.0502
   26CHL1  H12A 1882   5.796   4.205   5.910 -1.4461  0.0018 -0.3910
   26CHL1  H12B 1883   5.824   4.367   5.992  0.0276  1.5333 -1.8975
   26CHL1   C11 1884   5.706   4.231   6.094  0.9219  0.1614 -0.2606
   26CHL1  H11A 1885   5.643   4.139   6.092 -2.8973  2.5591  0.0859
   26CHL1  H11B 1886   5.799   4.215   6.153 -0.4541 -1.7014  1.5265
   26CHL1    C9 1887   5.636   4.338   6.185 -0.3941  0.0560 -0.4228
   26CHL1    H9 1888   5.722   4.405   6.207  2.0364 -3.5719  2.1500
   26CHL1   C10 1889   5.579   4.291   6.324 -0.5833  0.3135  0.8768
   26CHL1   C19 1890   5.473   4.185   6.300  0.5949  0.1550  1.2708
   26CHL1  H19A 1891   5.508   4.087   6.261 -2.7106 -0.2317 -1.0886
   26CHL1  H19B 1892   5.406   4.162   6.386 -0.3448 -0.1601  0.4700
   26CHL1  H19C 1893   5.390   4.224   6.238  0.5717  1.1454  1.9018
   26CHL1    C1 1894   5.694   4.238   6.414  0.9366 -0.5905 -0.1685
   26CHL1   H1A 1895   5.732   4.140   6.380 -2.6237 -2.2937  0.3209
   26CHL1   H1B 1896   5.779   4.311   6.412 -0.5897  1.3143  0.9337
   26CHL1    C2 1897   5.648   4.206   6.560 -0.0459 -0.5559 -0.3469
   26CHL1   H2A 1898   5.741   4.179   6.613 -0.1265  0.5520  0.3985
   26CHL1   H2B 1899   5.574   4.123   6.550 -2.0953  1.1249  0.0891
   26CHL1   C20 1900   5.678   4.355   5.629  0.1765 -0.4240 -0.0060
   26CHL1   H20 1901   5.593   4.285   5.610  0.7646 -0.8025 -1.3439
   26CHL1   C21 1902   5.800   4.261   5.643 -0.6355  1.1488  0.8148
   26CHL1  H21A 1903   5.885   4.298   5.705 -0.4271  2.2901 -0.1215
   26CHL1  H21B 1904   5.825   4.229   5.540  0.3302  1.1901  1.0247
   26CHL1  H21C 1905   5.769   4.165   5.689 -2.2772  1.3442  0.1768
   26CHL1   C22 1906   5.684   4.451   5.505 -0.3960  0.8233  0.4322
   26CHL1  H22A 1907   5.592   4.514   5.507 -0.0073  1.3860  1.2612
   26CHL1  H22B 1908   5.774   4.516   5.515 -0.8160  1.5210 -0.2032
   26CHL1   C23 1909   5.699   4.380   5.366  0.4092  0.2114  0.0249
   26CHL1  H23A 1910   5.805   4.347   5.364  0.2372 -0.3409 -1.7532
   26CHL1  H23B 1911   5.628   4.294   5.359  1.1088 -0.2231 -3.6765
   26CHL1   C24 1912   5.670   4.471   5.245  0.1207  0.4024 -0.1792
   26CHL1  H24A 1913   5.567   4.512   5.236 -0.2449 -0.5920 -0.6954
   26CHL1  H24B 1914   5.741   4.557   5.254 -0.0062  0.3993  0.9977
   26CHL1   C25 1915   5.696   4.399   5.112  0.1510 -0.6720  0.0150
   26CHL1   H25 1916   5.791   4.341   5.119 -0.2775 -1.5298 -1.0690
   26CHL1   C26 1917   5.594   4.291   5.078 -0.2380  0.1689  0.2590
   26CHL1  H26A 1918   5.489   4.328   5.073  0.4668  2.1386 -1.8570
   26CHL1  H26B 1919   5.621   4.230   4.988  3.2975 -0.0036  1.2733
   26CHL1  H26C 1920   5.601   4.216   5.160  0.4774 -0.5768 -0.4582
   26CHL1   C27 1921   5.723   4.499   4.990 -0.1523  0.1438 -0.3720
   26CHL1  H27A 1922   5.729   4.453   4.889  0.9009  1.3162 -0.8806
   26CHL1  H27B 1923   5.626   4.553   4.989 -1.6364 -2.3588 -0.3334
   26CHL1  H27C 1924   5.804   4.575   4.997 -0.1085  0.1835 -1.1633
   27CHL1    C3 1925   3.973   2.847   5.921 -0.4153  0.2369  0.4038
   27CHL1    H3 1926   3.928   2.749   5.898 -0.0404  0.5873 -2.0640
   27CHL1    O3 1927   3.937   2.875   6.054  0.5014  0.1337 -0.2802
   27CHL1   H3' 1928   3.987   2.954   6.079  1.3752 -0.4658 -0.0861
   27CHL1    C4 1929   4.127   2.843   5.917  0.4723 -0.1502 -0.4713
   27CHL1   H4A 1930   4.167   2.945   5.932 -0.2321  0.1507 -0.6028
   27CHL1   H4B 1931   4.166   2.797   6.010 -0.7523  1.6718  1.0133
   27CHL1    C5 1932   4.185   2.803   5.778  0.8228  0.0202 -0.6193
   27CHL1    C6 1933   4.271   2.700   5.771 -0.5624  0.1409  0.5794
   27CHL1    H6 1934   4.296   2.640   5.860 -1.1970 -1.3562 -0.2259
   27CHL1    C7 1935   4.322   2.644   5.642 -0.7002 -0.4657 -0.9962
   27CHL1   H7A 1936   4.431   2.621   5.650 -0.3768  1.1042 -0.5711
   27CHL1   H7B 1937   4.259   2.557   5.616 -2.3045  0.2570  0.3281
   27CHL1    C8 1938   4.306   2.746   5.529  0.5671 -0.8288 -0.2586
   27CHL1    H8 1939   4.374   2.831   5.546 -1.4506  1.0695 -1.2235
   27CHL1   C14 1940   4.344   2.684   5.396  1.1162 -0.1115 -0.1314
   27CHL1   H14 1941   4.277   2.596   5.381 -0.3949  0.8400  0.7190
   27CHL1   C15 1942   4.489   2.650   5.379 -0.5377  0.2719  0.0896
   27CHL1  H15A 1943   4.554   2.733   5.415 -0.4745  0.9115 -1.4442
   27CHL1  H15B 1944   4.516   2.550   5.419 -0.8311 -0.8390 -2.3249
   27CHL1   C16 1945   4.502   2.640   5.227 -1.1827  0.3825 -0.1091
   27CHL1  H16A 1946   4.581   2.713   5.199 -0.5787  0.3217  1.3440
   27CHL1  H16B 1947   4.528   2.540   5.187  0.7652  0.4303  0.9208
   27CHL1   C17 1948   4.361   2.676   5.166 -0.5332 -0.0565  0.1354
   27CHL1   H17 1949   4.297   2.585   5.172 -2.1963  1.1261  1.4435
   27CHL1   C13 1950   4.304   2.769   5.277 -0.2424  0.3521  0.7518
   27CHL1   C18 1951   4.375   2.909   5.274 -0.0328 -0.1796 -0.4692
   27CHL1  H18A 1952   4.340   2.962   5.365 -0.5684  0.5293 -1.0656
   27CHL1  H18B 1953   4.485   2.904   5.259  0.2214  0.6630  0.9166
   27CHL1  H18C 1954   4.347   2.963   5.180  1.1757 -0.3125 -0.9210
   27CHL1   C12 1955   4.155   2.798   5.273 -0.2314  0.2324 -0.2818
   27CHL1  H12A 1956   4.134   2.866   5.189  2.4307 -1.5471 -2.5605
   27CHL1  H12B 1957   4.113   2.695   5.264  2.4962 -1.3045  2.6489
   27CHL1   C11 1958   4.100   2.860   5.404 -0.4657  0.1055  0.0474
   27CHL1  H11A 1959   4.142   2.962   5.413 -3.0573  1.2088  0.2844
   27CHL1  H11B 1960   3.989   2.859   5.407 -0.4787 -0.8026 -0.3541
   27CHL1    C9 1961   4.155   2.789   5.531  0.8619 -0.7204  0.4453
   27CHL1    H9 1962   4.094   2.696   5.532  1.3092 -1.0360 -0.6854
   27CHL1   C10 1963   4.116   2.872   5.661 -0.4183  0.2025  0.2512
   27CHL1   C19 1964   4.170   3.017   5.649 -0.1018 -0.2629 -0.0903
   27CHL1  H19A 1965   4.113   3.079   5.576  0.2942 -0.3491 -0.4755
   27CHL1  H19B 1966   4.153   3.070   5.745 -1.3693 -1.5494  0.4367
   27CHL1  H19C 1967   4.272   3.030   5.608 -0.8639  1.1409 -1.6813
   27CHL1    C1 1968   3.962   2.883   5.674  0.3385 -0.7238  0.0696
   27CHL1   H1A 1969   3.941   2.958   5.595  2.2174 -0.1220  0.1039
   27CHL1   H1B 1970   3.926   2.780   5.650 -0.5501 -0.1760 -1.0754
   27CHL1    C2 1971   3.914   2.939   5.813  0.3590 -0.0152 -0.2243
   27CHL1   H2A 1972   3.803   2.935   5.817  0.3635 -0.2517 -0.3454
   27CHL1   H2B 1973   3.943   3.046   5.815 -2.0523  0.7004  1.2127
   27CHL1   C20 1974   4.372   2.718   5.021  0.8394 -0.9264  0.3424
   27CHL1   H20 1975   4.449   2.797   5.013 -0.0939 -0.2383 -3.2287
   27CHL1   C21 1976   4.248   2.788   4.960  0.4410  0.4391 -0.0334
   27CHL1  H21A 1977   4.258   2.792   4.849  1.0298  1.6274  0.0517
   27CHL1  H21B 1978   4.240   2.896   4.985 -0.2855  0.4874 -0.4238
   27CHL1  H21C 1979   4.156   2.729   4.981 -0.6026  0.8669 -2.8824
   27CHL1   C22 1980   4.428   2.596   4.936 -0.1895  0.2110  0.0319
   27CHL1  H22A 1981   4.521   2.558   4.982 -1.5086 -1.5483  1.3848
   27CHL1  H22B 1982   4.352   2.516   4.951  0.7381 -0.7788 -0.4338
   27CHL1   C23 1983   4.470   2.623   4.794 -0.3906 -0.2904  0.0287
   27CHL1  H23A 1984   4.393   2.687   4.746 -2.6630 -0.2327  3.4123
   27CHL1  H23B 1985   4.563   2.684   4.794  0.9630 -2.2639 -0.2126
   27CHL1   C24 1986   4.487   2.488   4.728 -0.2409 -0.4262  0.2061
   27CHL1  H24A 1987   4.552   2.429   4.796 -0.6093 -0.0324  0.9035
   27CHL1  H24B 1988   4.385   2.446   4.737 -0.9390  1.3997  1.2980
   27CHL1   C25 1989   4.532   2.477   4.582  0.6462  0.0456  0.4277
   27CHL1   H25 1990   4.639   2.505   4.567  0.4420 -0.1174 -1.5892
   27CHL1   C26 1991   4.516   2.335   4.529 -0.2462  0.5580  0.0584
   27CHL1  H26A 1992   4.415   2.302   4.560  1.0247 -2.3154  1.5455
   27CHL1  H26B 1993   4.529   2.324   4.419 -0.2654 -1.4033  0.2204
   27CHL1  H26C 1994   4.588   2.262   4.572 -0.4679  0.2226 -0.1363
   27CHL1   C27 1995   4.455   2.569   4.496  0.1796 -0.2972  0.3147
   27CHL1  H27A 1996   4.483   2.549   4.390 -0.2243 -1.9242  0.4902
   27CHL1  H27B 1997   4.346   2.557   4.513 -0.4131  2.4687 -0.8896
   27CHL1  H27C 1998   4.472   2.677   4.517  0.9448 -0.0466 -1.3887
   28CHL1    C3 1999   3.265   0.225   6.475 -0.3582 -0.4165  0.2489
   28CHL1    H3 2000   3.210   0.322   6.473  0.6096  0.1803 -2.7669
   28CHL1    O3 2001   3.277   0.174   6.605 -0.2527 -0.2153 -0.2241
   28CHL1   H3' 2002   3.338   0.100   6.602 -3.1032 -2.7522 -0.4994
   28CHL1    C4 2003   3.181   0.128   6.401 -0.8734  0.2523 -0.3286
   28CHL1   H4A 2004   3.233   0.030   6.412 -1.2245  0.0375 -0.5526
   28CHL1   H4B 2005   3.091   0.111   6.464  1.4409 -0.9680  2.9326
   28CHL1    C5 2006   3.169   0.147   6.252 -0.3384 -0.6975  0.3116
   28CHL1    C6 2007   3.051   0.163   6.191 -0.1040 -0.0615  0.6810
   28CHL1    H6 2008   2.961   0.148   6.252  0.5899 -1.8426  1.3144
   28CHL1    C7 2009   3.039   0.188   6.046  0.2069  0.0168  0.0414
   28CHL1   H7A 2010   2.944   0.136   6.019 -0.8516 -0.1492  3.5884
   28CHL1   H7B 2011   3.022   0.296   6.029  2.5445  0.1747 -1.9415
   28CHL1    C8 2012   3.165   0.152   5.969  0.6563 -0.1426  0.6773
   28CHL1    H8 2013   3.180   0.043   5.981 -0.1682 -0.6825 -2.3025
   28CHL1   C14 2014   3.151   0.194   5.822 -0.4130  0.7027  0.4593
   28CHL1   H14 2015   3.136   0.304   5.823 -1.2737  0.6049 -0.1105
   28CHL1   C15 2016   3.033   0.143   5.743  0.3167  0.6537  1.1429
   28CHL1  H15A 2017   3.020   0.039   5.782 -1.9228  0.7569  0.8267
   28CHL1  H15B 2018   2.940   0.201   5.760  0.0140  0.6508 -0.3045
   28CHL1   C16 2019   3.091   0.146   5.593 -0.1359 -0.4470 -0.6494
   28CHL1  H16A 2020   3.078   0.041   5.558  0.7771 -0.4016 -1.1332
   28CHL1  H16B 2021   3.032   0.216   5.530 -1.0278 -0.7370 -0.1552
   28CHL1   C17 2022   3.240   0.191   5.601  0.7222  0.2085 -0.1990
   28CHL1   H17 2023   3.233   0.301   5.588 -0.7499  0.3530  1.3823
   28CHL1   C13 2024   3.282   0.160   5.745  0.1162 -0.6054 -0.0498
   28CHL1   C18 2025   3.325   0.013   5.760  0.1651 -0.5884  0.4190
   28CHL1  H18A 2026   3.247  -0.049   5.710  0.3152 -0.3653 -0.0994
   28CHL1  H18B 2027   3.427  -0.014   5.727  0.4914  1.6708 -0.6037
   28CHL1  H18C 2028   3.314  -0.022   5.865 -2.7096  0.4230  0.5667
   28CHL1   C12 2029   3.387   0.258   5.794 -0.0346  1.4173 -0.0845
   28CHL1  H12A 2030   3.478   0.229   5.737 -0.3090 -1.7114  0.9089
   28CHL1  H12B 2031   3.360   0.363   5.769 -0.7494  0.5765 -3.3686
   28CHL1   C11 2032   3.410   0.234   5.947 -0.2753  0.5506  0.3214
   28CHL1  H11A 2033   3.459   0.135   5.937 -0.6343  0.1441  2.1748
   28CHL1  H11B 2034   3.489   0.302   5.986 -0.2933  0.9170 -0.2674
   28CHL1    C9 2035   3.284   0.226   6.034  0.8039  0.5885 -0.7072
   28CHL1    H9 2036   3.247   0.331   6.043  2.3333  1.2922 -1.9949
   28CHL1   C10 2037   3.311   0.169   6.176 -0.2458  0.7217  0.8796
   28CHL1   C19 2038   3.381   0.033   6.173  0.1589 -0.1872 -0.3028
   28CHL1  H19A 2039   3.479   0.031   6.120  0.8207 -0.2990  0.8761
   28CHL1  H19B 2040   3.399  -0.000   6.278  1.9253  1.3050 -0.0686
   28CHL1  H19C 2041   3.315  -0.043   6.127 -0.5739 -0.6119  1.3744
   28CHL1    C1 2042   3.387   0.280   6.259 -0.2579  0.4186 -0.7212
   28CHL1   H1A 2043   3.488   0.287   6.212  0.7208 -1.9367  0.8566
   28CHL1   H1B 2044   3.336   0.378   6.251 -0.3850  0.3871 -0.2918
   28CHL1    C2 2045   3.406   0.241   6.410  0.6394  0.3293  0.1200
   28CHL1   H2A 2046   3.456   0.317   6.475 -0.8177 -0.8319  2.7521
   28CHL1   H2B 2047   3.466   0.148   6.418  0.2336  0.1776  1.7403
   28CHL1   C20 2048   3.314   0.128   5.477 -0.0619 -0.5823 -0.0200
   28CHL1   H20 2049   3.334   0.020   5.492 -1.9814 -0.9436  0.2290
   28CHL1   C21 2050   3.453   0.198   5.452  0.4383  0.2756 -0.9894
   28CHL1  H21A 2051   3.434   0.307   5.441 -1.7090  0.1394  0.7843
   28CHL1  H21B 2052   3.500   0.148   5.364  1.2062 -2.9251  1.0577
   28CHL1  H21C 2053   3.525   0.192   5.537 -0.6975  1.7295  0.1245
   28CHL1   C22 2054   3.242   0.135   5.347 -0.1057 -0.4968 -0.6094
   28CHL1  H22A 2055   3.312   0.093   5.272  2.2543  0.2451  1.0461
   28CHL1  H22B 2056   3.147   0.078   5.342  0.8842 -2.1135 -1.8580
   28CHL1   C23 2057   3.210   0.274   5.285 -0.7650  0.5784  0.5931
   28CHL1  H23A 2058   3.198   0.350   5.365  0.6762  2.3746 -0.8251
   28CHL1  H23B 2059   3.301   0.303   5.229 -0.3641 -1.9757 -0.2378
   28CHL1   C24 2060   3.088   0.273   5.193  0.0140 -0.8428  0.3429
   28CHL1  H24A 2061   3.106   0.195   5.116 -0.4158  0.3144 -0.9896
   28CHL1  H24B 2062   2.997   0.241   5.249 -0.2887 -1.2131 -0.3385
   28CHL1   C25 2063   3.059   0.413   5.128  0.0406  0.6126 -0.5324
   28CHL1   H25 2064   2.968   0.390   5.068  0.3270 -5.4246  0.7224
   28CHL1   C26 2065   3.024   0.524   5.235 -1.1187 -0.5867  0.0454
   28CHL1  H26A 2066   2.954   0.481   5.310 -1.0625 -1.4504 -0.3888
   28CHL1  H26B 2067   3.116   0.550   5.290 -1.9929 -2.1920  2.4362
   28CHL1  H26C 2068   3.007   0.627   5.197  3.1473  0.7034  1.0877
   28CHL1   C27 2069   3.165   0.461   5.028 -0.4443 -0.2147 -0.4215
   28CHL1  H27A 2070   3.136   0.565   5.000  1.2042 -0.2942 -2.6986
   28CHL1  H27B 2071   3.261   0.477   5.081  0.1735 -0.4381 -1.4484
   28CHL1  H27C 2072   3.188   0.398   4.940  3.9983 -0.9964  1.0515
   29CHL1    C3 2073   2.149   3.019   3.340  0.3504  0.4955 -0.1679
   29CHL1    H3 2074   2.245   2.963   3.345  0.5912  0.9625  0.6128
   29CHL1    O3 2075   2.115   3.069   3.218  0.0141  0.4037  0.2640
   29CHL1   H3' 2076   2.199   3.091   3.177  2.4237 -2.7209  2.9557
   29CHL1    C4 2077   2.041   2.917   3.373 -0.5971  0.0978  0.0302
   29CHL1   H4A 2078   1.942   2.964   3.359 -1.6467 -1.2238  2.2862
   29CHL1   H4B 2079   2.050   2.829   3.305  0.1034  0.4320 -0.3108
   29CHL1    C5 2080   2.030   2.857   3.514  0.3801  0.5782  0.1820
   29CHL1    C6 2081   2.023   2.732   3.543  0.4706 -1.2232  0.5057
   29CHL1    H6 2082   2.018   2.663   3.458  2.5698 -1.3961  0.4923
   29CHL1    C7 2083   2.012   2.671   3.680  0.2874 -0.3819  0.1639
   29CHL1   H7A 2084   1.924   2.603   3.685 -0.3028  0.3935  0.5549
   29CHL1   H7B 2085   2.104   2.610   3.684  1.1206  0.8729  1.0006
   29CHL1    C8 2086   2.004   2.768   3.793 -0.2888 -0.3373 -0.0469
   29CHL1    H8 2087   1.896   2.793   3.793 -0.7136 -2.0488 -0.6200
   29CHL1   C14 2088   2.045   2.702   3.921  0.1321  0.0699 -0.6584
   29CHL1   H14 2089   2.154   2.683   3.913  0.4098  0.7412  1.0474
   29CHL1   C15 2090   1.985   2.569   3.959 -0.8307 -0.2783 -1.6024
   29CHL1  H15A 2091   1.874   2.568   3.952 -1.2512  2.2573  2.1336
   29CHL1  H15B 2092   2.036   2.488   3.903  1.0208 -2.2250  2.5230
   29CHL1   C16 2093   2.023   2.552   4.114  0.2141 -0.0675  0.2202
   29CHL1  H16A 2094   1.929   2.540   4.171 -0.4403 -1.3649 -1.0610
   29CHL1  H16B 2095   2.092   2.467   4.130  0.9795  0.5265  0.1567
   29CHL1   C17 2096   2.081   2.690   4.148 -0.2464  0.4664 -0.3196
   29CHL1   H17 2097   2.190   2.674   4.137  0.0777 -0.2878  2.9755
   29CHL1   C13 2098   2.039   2.790   4.044  0.2603 -0.4403  0.0661
   29CHL1   C18 2099   1.885   2.836   4.069  0.0817 -0.2346  0.0217
   29CHL1  H18A 2100   1.823   2.762   4.124  0.1659  0.4735  1.0981
   29CHL1  H18B 2101   1.875   2.927   4.132 -3.4123  0.8038 -1.7802
   29CHL1  H18C 2102   1.847   2.869   3.971 -1.8965 -0.9992  0.4880
   29CHL1   C12 2103   2.120   2.916   4.023 -0.0276 -0.0629  0.5354
   29CHL1  H12A 2104   2.111   2.978   4.115  1.5633  2.7905 -1.0781
   29CHL1  H12B 2105   2.229   2.893   4.014  0.6020  2.1785  1.6113
   29CHL1   C11 2106   2.086   2.991   3.889 -0.2024  0.1662  0.6904
   29CHL1  H11A 2107   1.981   3.028   3.890 -0.2694 -0.0121  0.3025
   29CHL1  H11B 2108   2.143   3.083   3.867 -0.3801 -0.1505 -1.2547
   29CHL1    C9 2109   2.089   2.890   3.765  0.2379  0.0260 -0.4432
   29CHL1    H9 2110   2.195   2.858   3.754  0.9288  2.4446 -1.4437
   29CHL1   C10 2111   2.054   2.958   3.626  0.2410  0.4598  0.3369
   29CHL1   C19 2112   1.929   3.043   3.645  0.5126  0.0674 -0.4861
   29CHL1  H19A 2113   1.881   3.080   3.552 -0.2894  1.6373  0.5027
   29CHL1  H19B 2114   1.846   2.977   3.680  1.6867 -0.1639  2.1059
   29CHL1  H19C 2115   1.936   3.125   3.720  1.3824 -0.7314  0.3375
   29CHL1    C1 2116   2.169   3.055   3.588  0.1494 -0.0710  0.3223
   29CHL1   H1A 2117   2.180   3.133   3.667  1.2864  1.3457 -1.1531
   29CHL1   H1B 2118   2.264   2.999   3.594  0.8192  0.9818 -0.1600
   29CHL1    C2 2119   2.149   3.126   3.456 -0.4591 -0.3028  0.4017
   29CHL1   H2A 2120   2.232   3.197   3.433 -1.6195  0.6578 -1.0298
   29CHL1   H2B 2121   2.054   3.183   3.458 -0.0475  0.3823  1.3354
   29CHL1   C20 2122   2.057   2.724   4.301  0.3084 -0.3162 -0.7010
   29CHL1   H20 2123   1.949   2.752   4.301 -0.6115 -3.4616 -2.0446
   29CHL1   C21 2124   2.141   2.842   4.343  0.8541 -1.0430 -0.3018
   29CHL1  H21A 2125   2.227   2.843   4.272  1.2224  0.5454  0.1147
   29CHL1  H21B 2126   2.186   2.837   4.445  0.9875  2.7679 -0.0266
   29CHL1  H21C 2127   2.087   2.939   4.338 -0.1594 -1.5913 -0.1827
   29CHL1   C22 2128   2.079   2.598   4.395 -0.9165 -0.6614  0.1807
   29CHL1  H22A 2129   2.025   2.504   4.368  0.6180 -1.5900  0.1819
   29CHL1  H22B 2130   2.188   2.577   4.386 -0.4717  1.8527 -1.1265
   29CHL1   C23 2131   2.045   2.628   4.543 -0.7958  0.1707 -0.3791
   29CHL1  H23A 2132   2.130   2.688   4.582 -1.1803  0.2409  0.3628
   29CHL1  H23B 2133   1.953   2.690   4.552 -2.9628 -2.6477 -1.4995
   29CHL1   C24 2134   2.031   2.502   4.631 -0.0978  0.0738 -0.1595
   29CHL1  H24A 2135   1.961   2.434   4.577 -1.8112  2.0341 -0.5608
   29CHL1  H24B 2136   2.133   2.461   4.646 -0.1354 -0.1006 -0.3742
   29CHL1   C25 2137   1.985   2.516   4.776  0.6638 -0.4253  0.4526
   29CHL1   H25 2138   2.049   2.586   4.835 -0.3604 -0.7654  2.0515
   29CHL1   C26 2139   1.841   2.574   4.778  0.2965  0.4527  0.5616
   29CHL1  H26A 2140   1.789   2.563   4.876 -0.2540  1.3185  0.3778
   29CHL1  H26B 2141   1.852   2.683   4.760  0.3593  0.0597 -2.1344
   29CHL1  H26C 2142   1.772   2.532   4.702 -0.1640  1.2178  0.5382
   29CHL1   C27 2143   1.991   2.386   4.862 -0.6197 -0.4034 -0.3476
   29CHL1  H27A 2144   1.987   2.408   4.971  1.7258 -1.4366  0.0224
   29CHL1  H27B 2145   1.908   2.319   4.834 -1.1810  0.8883 -1.9020
   29CHL1  H27C 2146   2.089   2.334   4.851  0.5416  1.3198  1.2309
   30CHL1    C3 2147   3.443   5.944   3.131  0.3497 -0.2813 -0.3371
   30CHL1    H3 2148   3.386   6.023   3.184  1.0794 -0.4961  0.7975
   30CHL1    O3 2149   3.453   5.966   2.993  0.0372 -0.0308 -0.0284
   30CHL1   H3' 2150   3.542   5.993   2.970  0.4319 -0.1090  1.2944
   30CHL1    C4 2151   3.584   5.930   3.187  0.3165  0.4085 -0.6315
   30CHL1   H4A 2152   3.646   5.859   3.128 -0.4932  0.3501 -1.4139
   30CHL1   H4B 2153   3.633   6.025   3.157  0.9223 -0.1316 -1.3815
   30CHL1    C5 2154   3.597   5.883   3.332 -0.1229 -0.4404  0.0700
   30CHL1    C6 2155   3.669   5.948   3.425 -0.2386 -0.2912  0.4322
   30CHL1    H6 2156   3.727   6.037   3.394 -0.7778  0.1927  0.8036
   30CHL1    C7 2157   3.686   5.906   3.570  0.3010 -0.1913  0.0944
   30CHL1   H7A 2158   3.794   5.902   3.596  0.0967 -0.2470  0.9521
   30CHL1   H7B 2159   3.635   5.980   3.635  0.4759 -0.5323  0.6208
   30CHL1    C8 2160   3.633   5.764   3.603  0.4115  0.7165  0.5244
   30CHL1    H8 2161   3.711   5.696   3.563  1.0567 -0.1123  3.0363
   30CHL1   C14 2162   3.607   5.741   3.749  1.0351 -0.0785 -0.8065
   30CHL1   H14 2163   3.538   5.825   3.772  1.7601  0.0981  0.9258
   30CHL1   C15 2164   3.718   5.769   3.847 -0.3180  0.3811  0.6468
   30CHL1  H15A 2165   3.818   5.743   3.806 -0.3082  2.0767 -0.4981
   30CHL1  H15B 2166   3.720   5.878   3.871  0.4132  0.3634  0.6851
   30CHL1   C16 2167   3.677   5.703   3.977 -0.0851  0.1574  0.4319
   30CHL1  H16A 2168   3.763   5.636   3.996  0.9674  0.8800 -1.4940
   30CHL1  H16B 2169   3.676   5.773   4.063  0.9458  1.3133 -0.4560
   30CHL1   C17 2170   3.545   5.625   3.954  0.6065  0.0823  0.9382
   30CHL1   H17 2171   3.462   5.694   3.979 -1.0396 -0.3166 -2.8011
   30CHL1   C13 2172   3.538   5.614   3.798  0.2544 -0.2816  0.3600
   30CHL1   C18 2173   3.634   5.501   3.752  0.5526  0.2231 -0.2686
   30CHL1  H18A 2174   3.642   5.499   3.641  0.2992 -1.8169 -0.2964
   30CHL1  H18B 2175   3.737   5.502   3.793  1.2387 -1.3964 -1.7757
   30CHL1  H18C 2176   3.596   5.401   3.783  1.1377  0.6240  1.8511
   30CHL1   C12 2177   3.400   5.612   3.731  0.2471  0.4195  0.9112
   30CHL1  H12A 2178   3.335   5.527   3.761  1.9270 -1.2687 -0.0981
   30CHL1  H12B 2179   3.344   5.703   3.763  0.8363  1.1379 -0.0488
   30CHL1   C11 2180   3.418   5.616   3.575 -0.1126  0.0479  0.0149
   30CHL1  H11A 2181   3.466   5.520   3.549  1.4821  0.5554  0.9332
   30CHL1  H11B 2182   3.315   5.604   3.534  0.3421 -1.9925 -0.6501
   30CHL1    C9 2183   3.498   5.742   3.529  0.4029 -0.5468 -0.1266
   30CHL1    H9 2184   3.435   5.832   3.547 -0.3178 -1.1936  0.6769
   30CHL1   C10 2185   3.515   5.762   3.369  0.0245  0.4599 -0.3882
   30CHL1   C19 2186   3.586   5.639   3.315 -0.3155 -0.5839  0.2045
   30CHL1  H19A 2187   3.689   5.637   3.356 -0.1885  2.4626  0.2369
   30CHL1  H19B 2188   3.537   5.540   3.328  0.9866 -1.7063 -2.7383
   30CHL1  H19C 2189   3.577   5.646   3.205 -0.6344  0.1892  0.2753
   30CHL1    C1 2190   3.375   5.770   3.307  0.5259 -0.2758  0.1223
   30CHL1   H1A 2191   3.331   5.669   3.321 -0.8760 -0.2390 -3.0592
   30CHL1   H1B 2192   3.321   5.847   3.365  0.8120 -0.4860  0.6716
   30CHL1    C2 2193   3.368   5.818   3.153  0.6945 -0.3850 -0.1600
   30CHL1   H2A 2194   3.262   5.831   3.122  0.5531 -1.2237 -0.0515
   30CHL1   H2B 2195   3.413   5.741   3.086  2.0104  1.2308 -1.2095
   30CHL1   C20 2196   3.535   5.503   4.044  0.0339  0.8119 -0.6330
   30CHL1   H20 2197   3.623   5.443   4.013 -1.8950 -1.4770 -1.9681
   30CHL1   C21 2198   3.405   5.412   4.013 -0.5519 -0.3788 -0.0224
   30CHL1  H21A 2199   3.317   5.479   4.024  0.2206  0.5298  0.7510
   30CHL1  H21B 2200   3.401   5.327   4.085 -0.0153 -0.3977 -0.0098
   30CHL1  H21C 2201   3.412   5.366   3.912  2.8415 -3.8494  1.5135
   30CHL1   C22 2202   3.556   5.537   4.197 -0.0366  0.3395 -0.1419
   30CHL1  H22A 2203   3.593   5.448   4.253  0.2206  0.3566 -0.2797
   30CHL1  H22B 2204   3.627   5.623   4.205  0.4056 -0.1160  1.0186
   30CHL1   C23 2205   3.422   5.565   4.278  0.7177  0.7167  0.5055
   30CHL1  H23A 2206   3.368   5.646   4.224  1.2029 -0.6581 -2.1628
   30CHL1  H23B 2207   3.359   5.474   4.271  1.5543  0.0264  1.6331
   30CHL1   C24 2208   3.427   5.590   4.425  0.4160  0.3708  0.3058
   30CHL1  H24A 2209   3.497   5.517   4.472  0.3800 -0.5587 -1.0243
   30CHL1  H24B 2210   3.467   5.693   4.437 -1.5064  1.2119 -0.0633
   30CHL1   C25 2211   3.291   5.599   4.500 -0.0988  1.2935 -0.1280
   30CHL1   H25 2212   3.250   5.498   4.480  1.1676  0.9759 -1.3118
   30CHL1   C26 2213   3.305   5.614   4.654  0.1876  0.2011  0.3226
   30CHL1  H26A 2214   3.363   5.528   4.695 -2.9263 -2.2937 -0.1622
   30CHL1  H26B 2215   3.363   5.707   4.671  1.1238  0.2826 -2.7095
   30CHL1  H26C 2216   3.208   5.615   4.708  0.1956  0.9706  0.3391
   30CHL1   C27 2217   3.190   5.701   4.440  0.3418 -0.4307  0.2197
   30CHL1  H27A 2218   3.183   5.670   4.334 -1.5585  0.6319 -0.0067
   30CHL1  H27B 2219   3.089   5.679   4.480 -0.7013 -0.3019 -2.1861
   30CHL1  H27C 2220   3.208   5.810   4.456  1.7320 -0.3018 -1.8763
   31CHL1    C3 2221   4.068   6.741   2.918  0.4815 -0.0409 -0.1745
   31CHL1    H3 2222   3.989   6.815   2.892  1.2259  0.8185 -0.0513
   31CHL1    O3 2223   4.104   6.681   2.799  0.4045  0.0490  0.1274
   31CHL1   H3' 2224   4.043   6.607   2.790 -2.2432  1.7588  2.5563
   31CHL1    C4 2225   4.193   6.808   2.975 -0.0735 -0.2253 -0.0285
   31CHL1   H4A 2226   4.276   6.735   2.964  0.9118  0.3478  2.7412
   31CHL1   H4B 2227   4.227   6.884   2.901  0.0163 -0.2912 -0.0550
   31CHL1    C5 2228   4.178   6.862   3.117 -0.8000 -0.0653  0.5275
   31CHL1    C6 2229   4.199   6.993   3.138  0.3195 -0.1958 -0.1336
   31CHL1    H6 2230   4.234   7.043   3.047  1.3458 -1.0048 -0.2088
   31CHL1    C7 2231   4.199   7.052   3.276 -0.2887  0.5543  0.1192
   31CHL1   H7A 2232   4.279   7.128   3.288 -0.7409  1.0013  0.3309
   31CHL1   H7B 2233   4.111   7.119   3.289 -0.7218 -0.3330  2.0970
   31CHL1    C8 2234   4.205   6.946   3.391  0.2037  0.0671 -0.4933
   31CHL1    H8 2235   4.309   6.909   3.385 -0.1654 -0.8105 -2.3982
   31CHL1   C14 2236   4.174   7.003   3.530 -0.1149 -0.2990 -0.0048
   31CHL1   H14 2237   4.074   7.050   3.519 -0.1564 -0.3674  0.0913
   31CHL1   C15 2238   4.254   7.113   3.596 -0.0387  0.2847 -0.4255
   31CHL1  H15A 2239   4.363   7.092   3.582 -0.2822 -0.1044 -1.9843
   31CHL1  H15B 2240   4.247   7.211   3.542 -0.9886 -0.7136 -2.2052
   31CHL1   C16 2241   4.219   7.122   3.738  0.1353 -0.2637 -0.4586
   31CHL1  H16A 2242   4.315   7.128   3.793  0.5766 -0.1715 -1.2251
   31CHL1  H16B 2243   4.161   7.208   3.778 -2.0954 -2.4575  1.4186
   31CHL1   C17 2244   4.138   6.988   3.771  0.0206  0.1024 -0.4906
   31CHL1   H17 2245   4.030   7.015   3.760 -0.2305 -0.6615  0.0109
   31CHL1   C13 2246   4.171   6.898   3.645  0.3699 -0.3058  0.0144
   31CHL1   C18 2247   4.300   6.814   3.666  0.3472  0.1053  0.5170
   31CHL1  H18A 2248   4.275   6.709   3.694 -2.3775  0.5762  0.1232
   31CHL1  H18B 2249   4.360   6.811   3.573 -0.1941 -0.7648  0.1796
   31CHL1  H18C 2250   4.355   6.871   3.744  1.5063  1.5165 -1.2555
   31CHL1   C12 2251   4.050   6.807   3.612 -0.1218 -0.3860 -0.0664
   31CHL1  H12A 2252   4.041   6.729   3.691  0.7190 -0.3415  0.0841
   31CHL1  H12B 2253   3.959   6.871   3.608  1.0131  1.3841  1.0795
   31CHL1   C11 2254   4.074   6.741   3.476  0.3919  0.2087  0.5135
   31CHL1  H11A 2255   4.158   6.668   3.477  0.3916  0.0749 -2.0879
   31CHL1  H11B 2256   3.988   6.676   3.449 -1.4475  1.9840  1.8223
   31CHL1    C9 2257   4.099   6.832   3.360 -1.1239 -0.1471  0.3571
   31CHL1    H9 2258   4.005   6.889   3.347  0.3564  2.4128  0.1180
   31CHL1   C10 2259   4.134   6.769   3.225 -0.1170  0.0210  0.5305
   31CHL1   C19 2260   4.252   6.674   3.252 -0.7553 -0.2348 -0.7139
   31CHL1  H19A 2261   4.276   6.634   3.151  0.4611  1.1074 -0.9826
   31CHL1  H19B 2262   4.338   6.727   3.298 -1.5791  1.6315 -1.2568
   31CHL1  H19C 2263   4.232   6.579   3.307  1.9163 -0.5288 -0.1238
   31CHL1    C1 2264   4.015   6.688   3.168 -0.0454  0.1572 -0.2382
   31CHL1   H1A 2265   3.989   6.594   3.221  0.9213 -1.3234 -2.2669
   31CHL1   H1B 2266   3.928   6.757   3.175  1.7948  3.0890 -3.0442
   31CHL1    C2 2267   4.015   6.639   3.016  0.7543 -0.1355 -0.1080
   31CHL1   H2A 2268   3.907   6.615   3.003  0.3828  0.6191  1.3492
   31CHL1   H2B 2269   4.080   6.548   3.013 -1.4061 -1.7896  0.7896
   31CHL1   C20 2270   4.148   6.944   3.920 -0.3037 -0.4660  0.2698
   31CHL1   H20 2271   4.253   6.912   3.938 -0.2258 -0.1224  0.4173
   31CHL1   C21 2272   4.046   6.829   3.957 -0.4998  0.1580  0.6251
   31CHL1  H21A 2273   4.063   6.739   3.894 -1.5896  0.3980 -0.0407
   31CHL1  H21B 2274   3.936   6.841   3.945 -0.2463  2.6216  0.4045
   31CHL1  H21C 2275   4.071   6.784   4.055  1.8405 -3.3752 -1.3618
   31CHL1   C22 2276   4.109   7.063   4.008 -0.0614  0.4752  0.0546
   31CHL1  H22A 2277   4.167   7.152   3.978 -2.1016  1.9914  0.3712
   31CHL1  H22B 2278   4.001   7.090   4.008 -0.2575 -0.0563  2.3095
   31CHL1   C23 2279   4.136   7.028   4.157 -0.2826  0.0506 -0.4247
   31CHL1  H23A 2280   4.087   6.934   4.189  1.3960 -0.6988 -0.0106
   31CHL1  H23B 2281   4.244   7.005   4.166 -0.6422 -1.0572  1.7655
   31CHL1   C24 2282   4.116   7.141   4.259 -0.3340  0.1599  0.1289
   31CHL1  H24A 2283   4.152   7.237   4.216 -0.9248  0.8882  1.2181
   31CHL1  H24B 2284   4.007   7.160   4.272 -0.3485  0.3555 -0.2737
   31CHL1   C25 2285   4.177   7.118   4.393  0.2553 -0.1460  0.2302
   31CHL1   H25 2286   4.190   7.215   4.446  1.3099  0.2588 -0.7317
   31CHL1   C26 2287   4.093   7.022   4.480 -0.2598  0.4775 -0.6007
   31CHL1  H26A 2288   4.110   6.919   4.443 -0.3881 -0.9210  2.8049
   31CHL1  H26B 2289   4.144   7.020   4.579  0.5146 -2.1041 -0.9752
   31CHL1  H26C 2290   3.989   7.051   4.508 -0.9988 -2.0041 -0.5601
   31CHL1   C27 2291   4.322   7.072   4.391 -0.1064 -0.2032 -0.1576
   31CHL1  H27A 2292   4.329   6.962   4.386  1.0802 -0.2122  1.0708
   31CHL1  H27B 2293   4.362   7.113   4.295 -0.6786 -0.6579 -0.5978
   31CHL1  H27C 2294   4.376   7.113   4.479 -0.0957 -0.2023 -0.1645
   32CHL1    C3 2295   0.593   4.292   3.124 -0.0171  0.5500  0.3525
   32CHL1    H3 2296   0.493   4.292   3.173  0.3030 -1.2931  1.0841
   32CHL1    O3 2297   0.597   4.268   2.982  0.5569  0.1455  0.6931
   32CHL1   H3' 2298   0.691   4.274   2.962  0.7719 -0.8702  1.3278
   32CHL1    C4 2299   0.645   4.431   3.145  0.5299 -0.3290 -0.1832
   32CHL1   H4A 2300   0.741   4.453   3.094 -0.2395 -1.0287 -2.0212
   32CHL1   H4B 2301   0.573   4.498   3.092  2.5705  1.8011 -0.4370
   32CHL1    C5 2302   0.664   4.468   3.289  0.0002  0.0323  0.9071
   32CHL1    C6 2303   0.606   4.574   3.353  0.2784 -0.0230  0.1512
   32CHL1    H6 2304   0.534   4.639   3.299 -1.0697 -1.1077  0.6023
   32CHL1    C7 2305   0.642   4.618   3.492 -0.5047  0.2202 -0.0654
   32CHL1   H7A 2306   0.627   4.728   3.505 -2.2110 -0.0254  0.4016
   32CHL1   H7B 2307   0.569   4.567   3.559  0.2835 -0.2677  0.4372
   32CHL1    C8 2308   0.780   4.566   3.527  0.0220 -0.4110 -0.2051
   32CHL1    H8 2309   0.851   4.620   3.460 -1.2641 -1.1191 -2.2423
   32CHL1   C14 2310   0.805   4.586   3.678 -0.0041 -0.3298  0.1502
   32CHL1   H14 2311   0.713   4.547   3.727  1.3908 -0.3415  2.9661
   32CHL1   C15 2312   0.805   4.733   3.735 -0.7099 -0.3535  0.1760
   32CHL1  H15A 2313   0.855   4.796   3.658 -1.7530 -1.1289 -1.2016
   32CHL1  H15B 2314   0.702   4.777   3.730 -0.3081  0.5792 -0.2142
   32CHL1   C16 2315   0.868   4.731   3.872  0.1132  0.1718 -0.0730
   32CHL1  H16A 2316   0.957   4.797   3.876 -0.4236  0.9559 -0.8043
   32CHL1  H16B 2317   0.793   4.757   3.950 -0.7993  3.4974 -1.8903
   32CHL1   C17 2318   0.912   4.583   3.884  0.2691 -0.4614  0.6370
   32CHL1   H17 2319   0.824   4.540   3.935 -0.3234 -0.9740 -0.7901
   32CHL1   C13 2320   0.921   4.526   3.740 -0.6004  0.3373 -0.2232
   32CHL1   C18 2321   1.052   4.577   3.678  0.3405  0.2377  1.0307
   32CHL1  H18A 2322   1.078   4.684   3.694  2.1910  0.0512 -0.3708
   32CHL1  H18B 2323   1.140   4.527   3.724 -0.6895 -0.1488  2.6809
   32CHL1  H18C 2324   1.051   4.567   3.567  1.3387  0.5436  0.9792
   32CHL1   C12 2325   0.900   4.375   3.720  0.5478 -0.2676 -0.2614
   32CHL1  H12A 2326   0.974   4.308   3.768 -1.7247 -1.3535  2.0083
   32CHL1  H12B 2327   0.807   4.332   3.763  1.5806 -2.0907  0.2207
   32CHL1   C11 2328   0.901   4.337   3.571  0.1178  0.3079 -0.3488
   32CHL1  H11A 2329   1.003   4.350   3.529  0.5203  1.2349  0.8602
   32CHL1  H11B 2330   0.891   4.226   3.571 -1.6807  0.4486 -0.4554
   32CHL1    C9 2331   0.786   4.413   3.500  0.0168  0.3020 -0.2199
   32CHL1    H9 2332   0.701   4.365   3.553  0.2748  1.1279  0.9545
   32CHL1   C10 2333   0.768   4.378   3.354 -0.3173  0.0068  1.2226
   32CHL1   C19 2334   0.909   4.399   3.283 -0.8831  0.0716 -0.0898
   32CHL1  H19A 2335   0.909   4.360   3.179 -2.0289 -1.3081  0.3947
   32CHL1  H19B 2336   0.945   4.503   3.295 -0.3284  0.0961 -1.6412
   32CHL1  H19C 2337   0.983   4.326   3.323  1.4511  2.0810 -0.5122
   32CHL1    C1 2338   0.719   4.231   3.333 -0.4284  0.5160 -0.2013
   32CHL1   H1A 2339   0.783   4.158   3.386  0.4508  1.0372 -0.5193
   32CHL1   H1B 2340   0.623   4.222   3.389 -0.6169 -1.5057 -0.7846
   32CHL1    C2 2341   0.683   4.196   3.191 -0.1439  0.0336  0.1114
   32CHL1   H2A 2342   0.643   4.093   3.202 -1.3760  0.6288  1.4930
   32CHL1   H2B 2343   0.777   4.179   3.134  0.1790 -0.5767  0.8035
   32CHL1   C20 2344   1.028   4.565   3.981  1.1186 -0.7610  0.0819
   32CHL1   H20 2345   1.118   4.616   3.939  0.6564  0.3661  0.4250
   32CHL1   C21 2346   1.074   4.423   4.004  0.2594  0.7509  0.4685
   32CHL1  H21A 2347   0.990   4.368   4.050  0.6209  0.5209  0.8619
   32CHL1  H21B 2348   1.158   4.415   4.077 -0.4035 -0.0516  1.1629
   32CHL1  H21C 2349   1.105   4.381   3.906 -1.5226 -0.7248  0.4872
   32CHL1   C22 2350   1.007   4.640   4.123  0.2682 -0.5485 -0.1601
   32CHL1  H22A 2351   0.951   4.736   4.113  1.0076  0.3107  2.8857
   32CHL1  H22B 2352   0.943   4.577   4.187 -3.6770  0.3668 -2.7980
   32CHL1   C23 2353   1.146   4.666   4.183 -0.1601 -0.3261  0.1009
   32CHL1  H23A 2354   1.198   4.573   4.215  1.3460  0.6309  0.5450
   32CHL1  H23B 2355   1.216   4.707   4.107  2.1204 -1.9929  1.1706
   32CHL1   C24 2356   1.150   4.760   4.298  0.3520  0.9831 -0.3907
   32CHL1  H24A 2357   1.125   4.862   4.262 -1.9741  1.1851  1.5612
   32CHL1  H24B 2358   1.077   4.722   4.373  1.2358  0.1707  0.0786
   32CHL1   C25 2359   1.292   4.762   4.369 -0.0210 -0.0522  0.2293
   32CHL1   H25 2360   1.307   4.656   4.400  1.6606  0.8122  2.6557
   32CHL1   C26 2361   1.410   4.810   4.279 -0.1557 -1.1758 -0.6981
   32CHL1  H26A 2362   1.503   4.810   4.339 -0.0449  2.0395 -0.6731
   32CHL1  H26B 2363   1.437   4.731   4.206 -0.6459 -0.7578 -1.3451
   32CHL1  H26C 2364   1.391   4.913   4.240 -1.1604 -0.9546  0.3034
   32CHL1   C27 2365   1.300   4.848   4.501 -0.7615 -0.0912  0.3602
   32CHL1  H27A 2366   1.231   4.807   4.577  0.5399 -0.2497  1.4890
   32CHL1  H27B 2367   1.402   4.856   4.544  0.8661  2.2615 -3.3894
   32CHL1  H27C 2368   1.267   4.953   4.483  1.6424  0.9786  1.7036
   33CHL1    C3 2369   0.106   3.977   3.071  0.4225 -0.0964  0.5527
   33CHL1    H3 2370   0.075   3.878   3.109  1.1881 -1.2564 -1.6561
   33CHL1    O3 2371   0.073   3.982   2.936 -0.0028 -0.0957 -0.1454
   33CHL1   H3' 2372  -0.023   3.978   2.939  0.0562 -1.4034  0.7763
   33CHL1    C4 2373   0.031   4.084   3.152 -0.1072  0.6109 -0.0136
   33CHL1   H4A 2374   0.051   4.185   3.108 -0.3933  1.4559  1.7333
   33CHL1   H4B 2375  -0.076   4.073   3.128  0.0747  0.6067 -0.8624
   33CHL1    C5 2376   0.069   4.076   3.295  0.2476 -0.0115 -0.7103
   33CHL1    C6 2377  -0.016   4.041   3.390  0.5708  0.1360 -0.3864
   33CHL1    H6 2378  -0.121   4.015   3.368  0.6141  0.6288 -1.2311
   33CHL1    C7 2379   0.017   4.027   3.534  0.2796  0.6457  0.5947
   33CHL1   H7A 2380  -0.069   4.065   3.594 -0.1702 -0.0256  0.3706
   33CHL1   H7B 2381   0.032   3.922   3.565 -0.4878  0.3924  0.1257
   33CHL1    C8 2382   0.147   4.111   3.562  0.1747 -0.5152  0.2912
   33CHL1    H8 2383   0.115   4.215   3.536 -1.0836 -1.0989 -0.6173
   33CHL1   C14 2384   0.186   4.075   3.705  0.3096 -0.2292  0.1503
   33CHL1   H14 2385   0.205   3.966   3.714 -0.2196 -0.3134  0.2596
   33CHL1   C15 2386   0.084   4.112   3.820 -0.1674  0.5361 -0.4720
   33CHL1  H15A 2387   0.024   4.204   3.804 -1.4099  0.1751  1.7589
   33CHL1  H15B 2388   0.007   4.031   3.825  0.5876 -0.2236 -0.8008
   33CHL1   C16 2389   0.170   4.125   3.950  0.3890 -0.0459 -0.2288
   33CHL1  H16A 2390   0.152   4.226   3.993  1.3760  0.1649 -0.2876
   33CHL1  H16B 2391   0.145   4.052   4.030 -0.6372 -0.7255 -1.1379
   33CHL1   C17 2392   0.318   4.109   3.898 -0.0565 -0.0896 -0.1671
   33CHL1   H17 2393   0.339   4.000   3.901 -0.6840 -0.2060  2.3377
   33CHL1   C13 2394   0.319   4.139   3.750  0.3076  0.1225  0.6007
   33CHL1   C18 2395   0.322   4.290   3.743  0.0534 -0.3872 -0.3162
   33CHL1  H18A 2396   0.428   4.322   3.759  0.1864 -1.6559  1.7682
   33CHL1  H18B 2397   0.276   4.331   3.651 -0.6081  3.5450  1.5584
   33CHL1  H18C 2398   0.265   4.321   3.833  0.1277 -2.6365  0.5827
   33CHL1   C12 2399   0.428   4.076   3.661  0.0921  0.4622 -0.3754
   33CHL1  H12A 2400   0.519   4.138   3.674  0.0173  0.4353  0.3200
   33CHL1  H12B 2401   0.449   3.970   3.687  0.7988  0.9180  1.0189
   33CHL1   C11 2402   0.398   4.104   3.519  0.8311  0.2853  1.0588
   33CHL1  H11A 2403   0.395   4.215   3.511  0.2071  0.2844  1.3007
   33CHL1  H11B 2404   0.462   4.050   3.446 -1.2172 -0.8288  0.0300
   33CHL1    C9 2405   0.257   4.060   3.474  0.1294  0.0919  0.4776
   33CHL1    H9 2406   0.265   3.949   3.481  1.6286  0.2178  1.2407
   33CHL1   C10 2407   0.223   4.101   3.325 -0.0934  0.2594 -0.1877
   33CHL1   C19 2408   0.247   4.249   3.299  0.0144  0.6315 -0.4544
   33CHL1  H19A 2409   0.176   4.306   3.362  1.1724 -0.8847  2.4308
   33CHL1  H19B 2410   0.350   4.283   3.325 -0.5739  2.5803 -0.5543
   33CHL1  H19C 2411   0.235   4.274   3.192 -1.2527  0.5575 -0.3375
   33CHL1    C1 2412   0.306   4.008   3.228  0.1123 -1.1266 -0.0368
   33CHL1   H1A 2413   0.413   4.039   3.230  0.2489 -1.6122  2.5551
   33CHL1   H1B 2414   0.301   3.909   3.278  1.1800 -2.1914 -1.8999
   33CHL1    C2 2415   0.257   3.997   3.086 -0.2372 -0.4959 -0.1281
   33CHL1   H2A 2416   0.311   3.916   3.031  0.8175 -1.0236  1.6099
   33CHL1   H2B 2417   0.269   4.097   3.040 -0.1464 -0.7174 -0.5994
   33CHL1   C20 2418   0.421   4.175   3.999 -0.3828  0.1178 -0.0234
   33CHL1   H20 2419   0.408   4.285   4.000 -0.1576  0.1802  2.0806
   33CHL1   C21 2420   0.562   4.147   3.949  0.0403 -0.1072  0.2996
   33CHL1  H21A 2421   0.566   4.036   3.943  0.0052 -0.0377 -1.3594
   33CHL1  H21B 2422   0.651   4.191   3.998  1.3306 -2.3960  0.1526
   33CHL1  H21C 2423   0.589   4.187   3.849  3.1639  0.6278  1.3217
   33CHL1   C22 2424   0.407   4.124   4.143  0.1589  0.2337 -0.1281
   33CHL1  H22A 2425   0.304   4.155   4.170  0.9108  1.2845  1.7196
   33CHL1  H22B 2426   0.403   4.013   4.146  0.8390  0.1923 -0.4256
   33CHL1   C23 2427   0.496   4.181   4.250  0.0007  0.5402 -0.4451
   33CHL1  H23A 2428   0.598   4.173   4.207  0.1820  1.5009 -0.2048
   33CHL1  H23B 2429   0.474   4.287   4.270  0.5489  0.4198  0.9546
   33CHL1   C24 2430   0.499   4.090   4.372  0.3440 -0.3963  0.0755
   33CHL1  H24A 2431   0.506   3.985   4.338 -0.6554 -0.7256  0.8357
   33CHL1  H24B 2432   0.584   4.102   4.443 -0.5308 -1.5678  1.3828
   33CHL1   C25 2433   0.368   4.099   4.464  0.0601 -0.9642 -0.0928
   33CHL1   H25 2434   0.279   4.115   4.400 -1.3801  2.9073  2.5249
   33CHL1   C26 2435   0.357   3.964   4.539 -0.2816 -0.1442  0.4099
   33CHL1  H26A 2436   0.450   3.943   4.595 -0.4536 -1.2352  0.3150
   33CHL1  H26B 2437   0.276   3.955   4.615  0.4809 -1.8865  1.0596
   33CHL1  H26C 2438   0.340   3.879   4.469 -2.8584  0.8858 -0.3493
   33CHL1   C27 2439   0.368   4.218   4.557 -0.8323  0.2666 -0.2190
   33CHL1  H27A 2440   0.416   4.303   4.503 -1.5678  0.6778 -0.2497
   33CHL1  H27B 2441   0.280   4.256   4.613 -0.1939  2.1376 -0.3901
   33CHL1  H27C 2442   0.437   4.199   4.642  0.2286 -0.1366 -1.1549
   34CHL1    C3 2443   2.871   5.738   3.181  0.6679 -0.2577  0.7591
   34CHL1    H3 2444   2.828   5.839   3.196  1.0440  0.1764 -0.9793
   34CHL1    O3 2445   2.909   5.710   3.044  0.1579  0.3212  0.4549
   34CHL1   H3' 2446   2.905   5.615   3.033  2.7051  0.1816  0.2106
   34CHL1    C4 2447   3.003   5.720   3.265 -0.6007  0.7074 -0.2797
   34CHL1   H4A 2448   3.052   5.628   3.227  0.5821 -0.3909  3.5007
   34CHL1   H4B 2449   3.060   5.812   3.239 -0.6787  1.4137  1.8775
   34CHL1    C5 2450   2.984   5.704   3.418  0.2731 -0.2697  0.3816
   34CHL1    C6 2451   3.062   5.774   3.501  0.2006 -0.0180 -0.2467
   34CHL1    H6 2452   3.138   5.849   3.475 -0.5001  1.3619  1.4812
   34CHL1    C7 2453   3.068   5.752   3.644  1.8730  0.9726 -0.1629
   34CHL1   H7A 2454   3.165   5.709   3.675  0.9677  0.9736  3.0886
   34CHL1   H7B 2455   3.071   5.841   3.710  2.8705  1.6020 -1.0401
   34CHL1    C8 2456   2.982   5.634   3.692  0.5709 -0.1980 -0.0234
   34CHL1    H8 2457   3.043   5.546   3.664 -0.8649 -0.1580 -3.8635
   34CHL1   C14 2458   2.955   5.648   3.842  0.8109 -0.1428  0.0489
   34CHL1   H14 2459   2.882   5.731   3.837 -2.4517 -2.6253  2.0946
   34CHL1   C15 2460   3.062   5.688   3.949  0.2624  0.0456 -0.4065
   34CHL1  H15A 2461   3.156   5.636   3.922  0.3219 -0.1551  0.1757
   34CHL1  H15B 2462   3.072   5.799   3.949 -0.6925  0.1536  0.7517
   34CHL1   C16 2463   3.007   5.637   4.080  0.3520 -0.9845  0.2945
   34CHL1  H16A 2464   3.075   5.558   4.117  1.9530 -1.0817 -2.5404
   34CHL1  H16B 2465   3.000   5.714   4.159  2.2161  0.4631 -0.8786
   34CHL1   C17 2466   2.864   5.586   4.045  0.2354 -0.3703 -0.9390
   34CHL1   H17 2467   2.794   5.672   4.043 -0.6059 -0.9388  1.0965
   34CHL1   C13 2468   2.874   5.536   3.897  0.1366 -0.8581 -0.8380
   34CHL1   C18 2469   2.954   5.406   3.890 -0.2259 -0.3020  0.8344
   34CHL1  H18A 2470   2.895   5.317   3.920 -1.0337  0.2347  0.8812
   34CHL1  H18B 2471   2.983   5.381   3.785  0.5046  0.7143  0.7815
   34CHL1  H18C 2472   3.048   5.414   3.948  3.2297 -1.6613 -3.9633
   34CHL1   C12 2473   2.734   5.513   3.823  0.4503 -0.3079  0.4526
   34CHL1  H12A 2474   2.696   5.416   3.862 -1.2910 -0.1719 -0.7883
   34CHL1  H12B 2475   2.667   5.592   3.862  0.0426 -0.0003 -0.8129
   34CHL1   C11 2476   2.754   5.504   3.672 -0.9350  0.3200 -0.1730
   34CHL1  H11A 2477   2.808   5.408   3.656  1.9121  1.8897 -0.5480
   34CHL1  H11B 2478   2.660   5.517   3.614 -0.7951  0.8590 -0.2828
   34CHL1    C9 2479   2.850   5.620   3.618 -0.2716  0.1197 -0.3274
   34CHL1    H9 2480   2.802   5.720   3.624 -0.6181 -0.1162  1.9570
   34CHL1   C10 2481   2.880   5.609   3.467  0.2335  0.0482  0.1351
   34CHL1   C19 2482   2.936   5.467   3.428  0.5133  0.4590 -0.3193
   34CHL1  H19A 2483   2.982   5.455   3.327  2.1465  1.0230  0.3170
   34CHL1  H19B 2484   3.010   5.429   3.502 -2.4862 -1.0100  2.1609
   34CHL1  H19C 2485   2.857   5.390   3.441  1.7147 -0.5554  1.6081
   34CHL1    C1 2486   2.749   5.643   3.378  0.5708 -0.8811 -0.2720
   34CHL1   H1A 2487   2.674   5.569   3.412 -0.9703  0.8408  0.2635
   34CHL1   H1B 2488   2.712   5.742   3.412  2.2330 -1.1559  2.6605
   34CHL1    C2 2489   2.760   5.636   3.226 -0.6377  0.4903  0.6567
   34CHL1   H2A 2490   2.661   5.669   3.190 -0.4763  0.9255  0.6046
   34CHL1   H2B 2491   2.779   5.536   3.182  1.3444  1.5898 -1.1565
   34CHL1   C20 2492   2.798   5.493   4.150  0.1444 -0.3508  0.0775
   34CHL1   H20 2493   2.716   5.451   4.088  0.1406  0.7252 -0.6785
   34CHL1   C21 2494   2.729   5.580   4.257 -0.1737 -0.0162  0.4213
   34CHL1  H21A 2495   2.670   5.658   4.205  1.9738  1.5542  0.2002
   34CHL1  H21B 2496   2.813   5.632   4.308  0.9230  0.3146 -1.6209
   34CHL1  H21C 2497   2.662   5.525   4.326  3.5929 -2.0820  2.7938
   34CHL1   C22 2498   2.881   5.383   4.213 -0.0858 -0.0250  0.4464
   34CHL1  H22A 2499   2.941   5.339   4.131 -2.2347  0.2362 -1.3631
   34CHL1  H22B 2500   2.953   5.430   4.284  0.1138  0.7578 -0.2570
   34CHL1   C23 2501   2.793   5.286   4.298  0.2017 -0.4521 -1.0452
   34CHL1  H23A 2502   2.737   5.349   4.369  0.4143  1.4015 -2.4419
   34CHL1  H23B 2503   2.709   5.235   4.246 -1.4216  1.0784 -0.0374
   34CHL1   C24 2504   2.873   5.189   4.389 -0.5454  0.5293  1.1272
   34CHL1  H24A 2505   2.908   5.098   4.335 -1.2738  0.8591  0.0892
   34CHL1  H24B 2506   2.967   5.234   4.427 -1.0207 -0.4746  3.7440
   34CHL1   C25 2507   2.800   5.142   4.512  0.1141 -0.1870 -0.5601
   34CHL1   H25 2508   2.705   5.089   4.488  0.2918 -0.6224 -0.3098
   34CHL1   C26 2509   2.883   5.039   4.590  0.2457 -0.6544  0.3179
   34CHL1  H26A 2510   2.893   4.943   4.535  0.1995  0.3176 -1.4534
   34CHL1  H26B 2511   2.986   5.077   4.607  0.2363 -1.1824  1.6605
   34CHL1  H26C 2512   2.827   5.009   4.681 -1.3412  0.4915 -0.2487
   34CHL1   C27 2513   2.787   5.256   4.621 -0.8979 -0.9017  0.2262
   34CHL1  H27A 2514   2.750   5.353   4.581  0.5567  1.2249  3.6007
   34CHL1  H27B 2515   2.713   5.218   4.695 -1.0057  1.0598  1.1941
   34CHL1  H27C 2516   2.889   5.270   4.662 -0.8863 -0.5627  0.0829
   35CHL1    C3 2517   1.025   0.532   3.038 -0.1344 -0.5789 -0.3930
   35CHL1    H3 2518   0.943   0.608   3.037 -0.2768 -0.7182  0.3835
   35CHL1    O3 2519   1.067   0.476   2.914 -0.0555 -1.0046 -0.0032
   35CHL1   H3' 2520   0.986   0.461   2.864  0.3107  1.3333 -1.4264
   35CHL1    C4 2521   1.150   0.605   3.100  0.3699 -0.0188 -0.4928
   35CHL1   H4A 2522   1.231   0.529   3.100  2.8146  2.4457 -0.9194
   35CHL1   H4B 2523   1.198   0.678   3.031  1.2093  0.0773  0.1730
   35CHL1    C5 2524   1.123   0.661   3.241  0.1976  0.1788 -0.4781
   35CHL1    C6 2525   1.130   0.790   3.273  0.6594 -0.2738  0.0468
   35CHL1    H6 2526   1.175   0.859   3.200  2.3335 -2.1636 -0.7901
   35CHL1    C7 2527   1.102   0.838   3.412  0.4219 -0.3320  0.8447
   35CHL1   H7A 2528   1.169   0.919   3.447  0.5168 -0.6597  1.4306
   35CHL1   H7B 2529   0.997   0.874   3.413  0.2519 -0.8113  0.8227
   35CHL1    C8 2530   1.109   0.719   3.509 -0.2656 -0.4404 -0.9755
   35CHL1    H8 2531   1.214   0.686   3.527  0.9034  2.9857 -0.6554
   35CHL1   C14 2532   1.069   0.782   3.643  0.1605  0.1488  0.2588
   35CHL1   H14 2533   0.969   0.827   3.626  0.2089  0.2647  0.2818
   35CHL1   C15 2534   1.150   0.899   3.700  0.1297  0.3844 -0.3038
   35CHL1  H15A 2535   1.258   0.874   3.704 -0.1962 -1.2335 -0.9651
   35CHL1  H15B 2536   1.141   1.000   3.655 -2.6560  0.0769 -0.6359
   35CHL1   C16 2537   1.111   0.899   3.843  0.1343 -0.1433  0.0500
   35CHL1  H16A 2538   1.204   0.889   3.903 -0.4509 -2.0980  0.6811
   35CHL1  H16B 2539   1.063   0.998   3.860  0.5069 -0.1403  1.1783
   35CHL1   C17 2540   1.017   0.773   3.867 -0.5058  0.1128  0.1347
   35CHL1   H17 2541   0.917   0.811   3.837 -0.5454 -0.8839 -1.0638
   35CHL1   C13 2542   1.055   0.679   3.756  0.0253  0.2772 -0.0393
   35CHL1   C18 2543   1.191   0.611   3.788 -1.0972 -0.5750 -0.2162
   35CHL1  H18A 2544   1.237   0.563   3.699  0.7038 -0.6840  0.7250
   35CHL1  H18B 2545   1.261   0.689   3.825 -0.4118 -1.3153  0.0713
   35CHL1  H18C 2546   1.177   0.547   3.878  2.4121  1.8530  2.3610
   35CHL1   C12 2547   0.955   0.578   3.713  0.1403  0.1915 -0.6439
   35CHL1  H12A 2548   0.941   0.502   3.793  2.5982  0.9482  0.6008
   35CHL1  H12B 2549   0.854   0.624   3.707 -1.0137 -2.2545 -1.4836
   35CHL1   C11 2550   0.996   0.504   3.582  0.3819 -0.2078 -0.1033
   35CHL1  H11A 2551   1.095   0.463   3.611  1.3528  2.4901  0.7538
   35CHL1  H11B 2552   0.917   0.428   3.562 -1.6105  1.6657  0.2807
   35CHL1    C9 2553   1.015   0.608   3.468  0.8575  0.5982  0.6606
   35CHL1    H9 2554   0.920   0.663   3.450 -0.4224 -1.3132  1.2057
   35CHL1   C10 2555   1.063   0.552   3.334  0.3012  0.5510 -0.3651
   35CHL1   C19 2556   1.167   0.446   3.366 -0.1145  0.3084  0.0124
   35CHL1  H19A 2557   1.249   0.478   3.434  0.4156  0.2604 -0.5998
   35CHL1  H19B 2558   1.120   0.354   3.409 -1.2934 -0.2638 -2.3499
   35CHL1  H19C 2559   1.223   0.417   3.275  0.8190  2.7086 -0.2409
   35CHL1    C1 2560   0.950   0.476   3.264 -0.4165 -0.1633 -0.0898
   35CHL1   H1A 2561   0.896   0.399   3.323  1.6956 -3.3316 -1.9660
   35CHL1   H1B 2562   0.873   0.554   3.252  0.0966  0.7806  2.1828
   35CHL1    C2 2563   0.976   0.421   3.123 -0.1440  0.3893  0.0430
   35CHL1   H2A 2564   0.884   0.366   3.094  1.5332 -2.3395 -0.5049
   35CHL1   H2B 2565   1.055   0.342   3.125  0.0456  0.5673 -0.2755
   35CHL1   C20 2566   1.010   0.728   4.012  0.2391 -0.7211 -0.6092
   35CHL1   H20 2567   1.107   0.685   4.046  0.9744  1.9629  1.0156
   35CHL1   C21 2568   0.899   0.618   4.026  0.1827  0.1508 -0.3557
   35CHL1  H21A 2569   0.931   0.527   3.971 -1.1451 -0.5340 -0.0374
   35CHL1  H21B 2570   0.801   0.646   3.981 -0.1451 -0.5110 -0.0639
   35CHL1  H21C 2571   0.872   0.582   4.127 -0.7925 -1.5148 -1.1620
   35CHL1   C22 2572   0.969   0.851   4.108 -0.1266  0.3130  0.4511
   35CHL1  H22A 2573   1.041   0.932   4.083  0.2810 -0.2954 -0.4068
   35CHL1  H22B 2574   0.876   0.897   4.068 -0.3300  1.3218  2.0234
   35CHL1   C23 2575   0.972   0.831   4.258  0.2708 -0.3465 -0.4878
   35CHL1  H23A 2576   0.935   0.928   4.299  0.8165 -1.0912  1.9059
   35CHL1  H23B 2577   0.896   0.754   4.284  1.5973 -2.3011 -2.1042
   35CHL1   C24 2578   1.113   0.816   4.322 -0.2159  0.3713  1.0152
   35CHL1  H24A 2579   1.168   0.735   4.270  1.0815  0.2353  2.5308
   35CHL1  H24B 2580   1.166   0.911   4.298  1.2690 -1.1944 -2.6450
   35CHL1   C25 2581   1.110   0.780   4.466 -0.2205 -0.7186 -0.1961
   35CHL1   H25 2582   1.216   0.762   4.493  0.2370  0.1485 -1.3084
   35CHL1   C26 2583   1.064   0.893   4.557 -0.1505  0.0697 -0.2958
   35CHL1  H26A 2584   0.956   0.910   4.534  0.3326 -0.1575 -2.9612
   35CHL1  H26B 2585   1.080   0.880   4.667  1.4680 -1.0013 -0.6224
   35CHL1  H26C 2586   1.119   0.984   4.526 -0.3345 -0.5381 -2.5288
   35CHL1   C27 2587   1.034   0.648   4.491  0.3294  0.1467 -0.0625
   35CHL1  H27A 2588   1.031   0.622   4.599 -2.5954 -0.8494 -0.3020
   35CHL1  H27B 2589   0.927   0.645   4.461 -0.5414  0.4708  2.6700
   35CHL1  H27C 2590   1.082   0.561   4.442 -1.7023 -1.9386  1.4317
   36CHL1    C3 2591   3.633   0.230   2.945  0.9124  0.3018 -0.4360
   36CHL1    H3 2592   3.538   0.173   2.937  0.5393  0.4643  1.8975
   36CHL1    O3 2593   3.692   0.252   2.820 -0.2755 -0.0603  0.5790
   36CHL1   H3' 2594   3.777   0.285   2.848 -0.5941  0.7075  0.6532
   36CHL1    C4 2595   3.592   0.362   3.006  0.4611  0.6179  0.3426
   36CHL1   H4A 2596   3.679   0.428   2.985 -0.3376  1.2041 -1.3107
   36CHL1   H4B 2597   3.513   0.410   2.944 -0.8862  0.3219  1.7732
   36CHL1    C5 2598   3.548   0.358   3.152  0.2635  0.6720 -0.3434
   36CHL1    C6 2599   3.425   0.411   3.187 -0.4912 -0.0469 -0.0257
   36CHL1    H6 2600   3.373   0.472   3.111 -1.1554 -0.4051  0.1354
   36CHL1    C7 2601   3.371   0.415   3.332 -0.5043 -0.1482  0.2001
   36CHL1   H7A 2602   3.325   0.512   3.360 -0.1907  0.2528 -0.6489
   36CHL1   H7B 2603   3.294   0.336   3.318  1.1980 -1.5002 -2.2673
   36CHL1    C8 2604   3.484   0.376   3.439 -0.4217 -0.1598 -0.2313
   36CHL1    H8 2605   3.556   0.460   3.452  0.5553 -1.2488  1.8713
   36CHL1   C14 2606   3.413   0.340   3.569 -0.1132  0.2590  1.1741
   36CHL1   H14 2607   3.361   0.245   3.543  0.9793 -0.3531  1.1835
   36CHL1   C15 2608   3.316   0.437   3.629  0.4813 -0.1535 -0.1422
   36CHL1  H15A 2609   3.376   0.530   3.642  0.2890 -0.2898  2.0760
   36CHL1  H15B 2610   3.225   0.463   3.572  0.4586 -0.0070 -0.0380
   36CHL1   C16 2611   3.297   0.370   3.771  0.5444  0.2015 -0.1717
   36CHL1  H16A 2612   3.290   0.448   3.850 -0.4231  0.8442 -0.8789
   36CHL1  H16B 2613   3.200   0.318   3.761  0.9581 -0.3330 -1.7265
   36CHL1   C17 2614   3.412   0.269   3.790  0.4604 -0.6138  0.0736
   36CHL1   H17 2615   3.368   0.171   3.759 -0.2526  0.8242 -3.9339
   36CHL1   C13 2616   3.513   0.297   3.679  0.9777  0.0775 -0.3351
   36CHL1   C18 2617   3.609   0.413   3.716 -0.0374  0.6071  0.1769
   36CHL1  H18A 2618   3.683   0.425   3.634 -0.3870  0.9192 -0.0973
   36CHL1  H18B 2619   3.561   0.513   3.726  2.5248  2.0156 -0.6229
   36CHL1  H18C 2620   3.669   0.392   3.807  1.3847  1.7557 -0.4456
   36CHL1   C12 2621   3.594   0.171   3.631 -0.0061  0.5216 -0.5386
   36CHL1  H12A 2622   3.670   0.149   3.709 -0.1675  4.9740  1.1939
   36CHL1  H12B 2623   3.526   0.087   3.607  0.4826 -0.2792  0.7483
   36CHL1   C11 2624   3.662   0.207   3.493  0.0915 -0.7193 -0.9392
   36CHL1  H11A 2625   3.749   0.271   3.519  1.7110 -3.2583  0.2566
   36CHL1  H11B 2626   3.697   0.112   3.446  0.5181 -1.1903  0.2819
   36CHL1    C9 2627   3.564   0.258   3.391 -0.3898  0.0319 -0.1986
   36CHL1    H9 2628   3.491   0.174   3.390  0.4839 -0.7477 -0.6209
   36CHL1   C10 2629   3.635   0.271   3.250 -0.0160 -0.3467  0.8547
   36CHL1   C19 2630   3.772   0.338   3.267  0.3760 -0.3920 -0.9211
   36CHL1  H19A 2631   3.757   0.429   3.328  3.1526 -0.0171 -0.6784
   36CHL1  H19B 2632   3.840   0.264   3.314 -1.0550 -0.9562  0.3464
   36CHL1  H19C 2633   3.823   0.379   3.177  1.3054  2.1980  0.6966
   36CHL1    C1 2634   3.660   0.127   3.180  0.8094 -1.1510  0.1832
   36CHL1   H1A 2635   3.739   0.072   3.235  0.3760 -1.8578  0.1119
   36CHL1   H1B 2636   3.564   0.071   3.175 -0.1170  0.3934  0.1307
   36CHL1    C2 2637   3.719   0.146   3.040 -0.3272 -0.0519 -0.5561
   36CHL1   H2A 2638   3.716   0.044   2.997 -2.7201  0.0816 -0.8726
   36CHL1   H2B 2639   3.824   0.181   3.040 -0.9346  1.9015 -0.7494
   36CHL1   C20 2640   3.444   0.255   3.937 -0.0671  0.1950  0.4344
   36CHL1   H20 2641   3.488   0.349   3.974  1.7221 -0.9843  1.4418
   36CHL1   C21 2642   3.540   0.133   3.959  0.0848 -0.5993  0.4143
   36CHL1  H21A 2643   3.565   0.128   4.067 -0.5695  0.0146  0.6010
   36CHL1  H21B 2644   3.636   0.134   3.904  0.0323 -2.4003  0.2363
   36CHL1  H21C 2645   3.500   0.033   3.931  1.9630 -1.0902 -0.6694
   36CHL1   C22 2646   3.312   0.231   4.018  0.2207  0.1697 -0.5018
   36CHL1  H22A 2647   3.249   0.323   4.020  1.3156  0.9549 -0.9849
   36CHL1  H22B 2648   3.261   0.150   3.962  0.1467 -0.2341  0.1363
   36CHL1   C23 2649   3.321   0.183   4.160  0.4943  0.3100 -0.4182
   36CHL1  H23A 2650   3.355   0.078   4.155 -2.9621 -0.8980 -2.0722
   36CHL1  H23B 2651   3.393   0.242   4.220 -0.3230  1.5720 -0.6281
   36CHL1   C24 2652   3.189   0.185   4.237  0.0076  0.4094  0.0178
   36CHL1  H24A 2653   3.146   0.287   4.231 -2.9525 -0.7678 -0.2939
   36CHL1  H24B 2654   3.123   0.109   4.189  0.8408 -0.9357  0.9356
   36CHL1   C25 2655   3.219   0.155   4.388 -0.7439 -0.5382  0.6025
   36CHL1   H25 2656   3.309   0.212   4.417 -2.2210  1.9052  0.6938
   36CHL1   C26 2657   3.101   0.189   4.471  0.0845 -0.2568 -0.1307
   36CHL1  H26A 2658   3.066   0.294   4.464  1.0382  0.0455 -0.5056
   36CHL1  H26B 2659   3.019   0.124   4.432 -0.2682  0.7325 -1.0894
   36CHL1  H26C 2660   3.118   0.154   4.575 -1.4755 -1.7594 -0.3234
   36CHL1   C27 2661   3.245   0.004   4.404  0.2172  0.4455 -0.2195
   36CHL1  H27A 2662   3.270  -0.008   4.511  1.0627 -3.7562 -0.7010
   36CHL1  H27B 2663   3.152  -0.053   4.386 -1.1006  1.6633  2.2856
   36CHL1  H27C 2664   3.328  -0.041   4.346  0.2482 -1.2641  1.0983
   37CHL1    C3 2665   6.399   4.816   3.021  0.5496  0.0261  0.0221
   37CHL1    H3 2666   6.366   4.712   3.041  0.7565  0.1070  0.7974
   37CHL1    O3 2667   6.400   4.845   2.878 -0.2750 -0.3096  0.0206
   37CHL1   H3' 2668   6.478   4.901   2.870  0.0708 -0.8878 -0.7995
   37CHL1    C4 2669   6.290   4.906   3.084  1.1082 -0.7328  0.1522
   37CHL1   H4A 2670   6.313   5.008   3.046  0.4897 -0.1952  1.1721
   37CHL1   H4B 2671   6.191   4.879   3.042  1.1507 -0.6163 -0.0212
   37CHL1    C5 2672   6.279   4.909   3.239 -0.2581 -0.9815 -0.2083
   37CHL1    C6 2673   6.161   4.897   3.305  0.1364  0.2340 -0.1142
   37CHL1    H6 2674   6.065   4.900   3.250 -0.1261  0.7862  0.3710
   37CHL1    C7 2675   6.161   4.892   3.454  0.5729  0.5627 -0.4452
   37CHL1   H7A 2676   6.072   4.951   3.484 -0.7024 -0.9192 -1.1700
   37CHL1   H7B 2677   6.153   4.785   3.484  0.9186  0.4934 -0.5911
   37CHL1    C8 2678   6.284   4.947   3.529  0.1062 -0.5696  1.8221
   37CHL1    H8 2679   6.272   5.057   3.520  1.1047 -0.3791  2.6210
   37CHL1   C14 2680   6.295   4.918   3.675  0.1404 -0.6651  0.0416
   37CHL1   H14 2681   6.313   4.809   3.684  0.6284 -0.7834 -1.9448
   37CHL1   C15 2682   6.170   4.960   3.747  0.1038 -0.1799  0.0322
   37CHL1  H15A 2683   6.141   5.062   3.715  0.0369 -0.1852  0.0776
   37CHL1  H15B 2684   6.079   4.898   3.736  0.5524 -0.8042 -0.2546
   37CHL1   C16 2685   6.217   4.952   3.898  0.3469 -0.2470  0.2115
   37CHL1  H16A 2686   6.173   5.040   3.949 -0.2280 -1.0872  1.2053
   37CHL1  H16B 2687   6.175   4.858   3.940 -2.5525 -1.0463 -3.8442
   37CHL1   C17 2688   6.370   4.955   3.892 -0.3009  0.0403  0.1860
   37CHL1   H17 2689   6.405   4.853   3.918 -0.0435 -0.5293 -2.1774
   37CHL1   C13 2690   6.413   4.975   3.745 -0.4931 -0.3707 -0.2849
   37CHL1   C18 2691   6.414   5.130   3.725  0.1908 -0.6398  0.5645
   37CHL1  H18A 2692   6.424   5.162   3.620  2.3149  2.8549  1.6677
   37CHL1  H18B 2693   6.327   5.190   3.761  0.0187 -2.2272  3.1114
   37CHL1  H18C 2694   6.504   5.174   3.773 -0.7273  0.7920  1.0422
   37CHL1   C12 2695   6.543   4.910   3.692 -0.5963  0.1025 -0.0907
   37CHL1  H12A 2696   6.635   4.958   3.732  0.2650 -1.1953 -0.4256
   37CHL1  H12B 2697   6.539   4.801   3.713  0.3575 -0.0238 -0.5189
   37CHL1   C11 2698   6.547   4.927   3.531  0.8137 -0.3173 -0.2609
   37CHL1  H11A 2699   6.566   5.035   3.516  1.0922 -0.4164 -0.6348
   37CHL1  H11B 2700   6.637   4.874   3.494  1.3590  0.3057  0.1508
   37CHL1    C9 2701   6.413   4.891   3.460  0.1017  0.2520  0.3307
   37CHL1    H9 2702   6.403   4.782   3.478  2.0169  0.1388  0.8846
   37CHL1   C10 2703   6.416   4.923   3.305 -0.7724  0.4819  0.2925
   37CHL1   C19 2704   6.441   5.079   3.280 -0.2118 -0.3028 -0.2509
   37CHL1  H19A 2705   6.364   5.139   3.332 -1.0314  0.8337 -2.6204
   37CHL1  H19B 2706   6.539   5.115   3.317 -0.1696  0.4589 -1.0768
   37CHL1  H19C 2707   6.433   5.101   3.171 -1.1607  0.2619 -0.0804
   37CHL1    C1 2708   6.522   4.824   3.238 -0.0129 -0.2579 -0.1953
   37CHL1   H1A 2709   6.619   4.829   3.293 -1.1311  1.3148  1.8128
   37CHL1   H1B 2710   6.478   4.725   3.262 -0.2289  0.3453  2.1971
   37CHL1    C2 2711   6.528   4.845   3.084 -0.7424  0.5801 -0.2688
   37CHL1   H2A 2712   6.608   4.778   3.046 -0.7233 -1.0925  2.4552
   37CHL1   H2B 2713   6.571   4.945   3.062  1.8090 -0.5231 -0.7454
   37CHL1   C20 2714   6.430   5.041   4.000 -0.6487  1.3017  1.2959
   37CHL1   H20 2715   6.406   5.150   3.992 -2.9848  0.7186 -1.6150
   37CHL1   C21 2716   6.581   5.013   4.008  0.5122  0.4323 -0.1280
   37CHL1  H21A 2717   6.639   5.084   3.944  2.8676 -1.1385  0.1156
   37CHL1  H21B 2718   6.588   4.913   3.961 -1.2966  0.0809  0.3022
   37CHL1  H21C 2719   6.611   5.006   4.115 -0.4778 -1.3409  0.0643
   37CHL1   C22 2720   6.367   5.004   4.137  1.2202  0.1125 -0.3875
   37CHL1  H22A 2721   6.411   5.078   4.207 -0.0076  1.3939 -0.9185
   37CHL1  H22B 2722   6.257   5.020   4.142  1.0147 -1.1928 -0.3145
   37CHL1   C23 2723   6.398   4.860   4.180 -0.2004  0.3697 -0.8038
   37CHL1  H23A 2724   6.354   4.800   4.098  0.4978 -1.4140  0.0659
   37CHL1  H23B 2725   6.508   4.845   4.186 -0.0139  1.7672 -0.4891
   37CHL1   C24 2726   6.332   4.827   4.318  0.4409 -0.2462  0.1966
   37CHL1  H24A 2727   6.348   4.902   4.398 -0.4625 -1.9076  2.0204
   37CHL1  H24B 2728   6.223   4.837   4.302  0.4444 -1.6357 -0.8702
   37CHL1   C25 2729   6.382   4.699   4.382  0.2964 -0.3120 -0.4465
   37CHL1   H25 2730   6.492   4.714   4.380  0.4382 -1.0912  0.8718
   37CHL1   C26 2731   6.319   4.692   4.518 -1.0402  0.5715 -0.3123
   37CHL1  H26A 2732   6.365   4.608   4.574  1.3043  1.7586 -0.3066
   37CHL1  H26B 2733   6.344   4.776   4.586 -1.3038  0.2170  0.2312
   37CHL1  H26C 2734   6.209   4.689   4.507 -1.0544 -2.8746 -0.1473
   37CHL1   C27 2735   6.354   4.572   4.309  0.5260 -0.2831  0.1628
   37CHL1  H27A 2736   6.387   4.488   4.373  1.4361  0.1404  0.2607
   37CHL1  H27B 2737   6.243   4.565   4.302  0.5410  0.1111 -0.6532
   37CHL1  H27C 2738   6.394   4.571   4.205  0.2547  2.1030 -0.0361
   38CHL1    C3 2739   1.778   5.984   2.978  0.1936  0.1013  0.7811
   38CHL1    H3 2740   1.887   5.967   2.967  0.1452 -0.3956  1.0573
   38CHL1    O3 2741   1.724   5.976   2.847  0.0489  0.1251 -0.1040
   38CHL1   H3' 2742   1.744   6.054   2.795 -3.6644  0.0615 -1.9713
   38CHL1    C4 2743   1.714   5.877   3.069  0.7336 -0.1760 -0.3160
   38CHL1   H4A 2744   1.605   5.873   3.052  0.0246  0.2238  3.3368
   38CHL1   H4B 2745   1.749   5.775   3.045 -1.3685 -1.5867  2.1209
   38CHL1    C5 2746   1.727   5.898   3.217  0.3118 -0.2646 -0.2528
   38CHL1    C6 2747   1.766   5.801   3.300  0.0302  0.8921 -0.0898
   38CHL1    H6 2748   1.780   5.698   3.263 -0.7067  0.9885 -0.6542
   38CHL1    C7 2749   1.779   5.812   3.447 -0.0358 -0.6832 -0.1032
   38CHL1   H7A 2750   1.742   5.725   3.505 -1.3303  0.0307  0.1784
   38CHL1   H7B 2751   1.888   5.818   3.468  0.1550 -0.0436 -1.2004
   38CHL1    C8 2752   1.715   5.943   3.505 -0.1924  0.2716 -0.4975
   38CHL1    H8 2753   1.607   5.916   3.503 -0.6852  2.1081  0.0602
   38CHL1   C14 2754   1.759   5.962   3.653  0.0726  0.2529  0.4962
   38CHL1   H14 2755   1.870   5.959   3.645  0.4187 -2.2428  3.6909
   38CHL1   C15 2756   1.749   5.846   3.753 -0.0307 -0.0418  0.0115
   38CHL1  H15A 2757   1.647   5.802   3.754  0.8068 -2.1442 -0.6076
   38CHL1  H15B 2758   1.817   5.758   3.745 -1.0177 -0.9416  1.2627
   38CHL1   C16 2759   1.787   5.918   3.879 -0.1438 -0.0098 -0.1583
   38CHL1  H16A 2760   1.702   5.900   3.947 -0.0188  0.4197  0.1210
   38CHL1  H16B 2761   1.882   5.887   3.927 -0.3213 -0.2110  0.0622
   38CHL1   C17 2762   1.783   6.070   3.860 -0.6421 -0.3819 -0.1603
   38CHL1   H17 2763   1.887   6.101   3.836 -0.8672  0.3372 -0.2243
   38CHL1   C13 2764   1.713   6.084   3.725  1.1179 -0.5847 -0.6240
   38CHL1   C18 2765   1.554   6.079   3.753  0.1309 -0.1984 -0.0230
   38CHL1  H18A 2766   1.507   6.047   3.658 -1.5153  1.5210  0.1616
   38CHL1  H18B 2767   1.528   6.007   3.833  1.9649 -0.1387  0.6803
   38CHL1  H18C 2768   1.514   6.178   3.783  1.2710  0.0028  0.9116
   38CHL1   C12 2769   1.754   6.197   3.637  0.6296  0.1016 -0.3875
   38CHL1  H12A 2770   1.730   6.296   3.680  0.7128  0.2403 -0.6592
   38CHL1  H12B 2771   1.865   6.193   3.630  0.6578  0.9226 -0.4328
   38CHL1   C11 2772   1.691   6.190   3.491 -0.2782 -0.3149  0.1821
   38CHL1  H11A 2773   1.581   6.203   3.498 -0.2314  0.1013  0.1496
   38CHL1  H11B 2774   1.736   6.277   3.438  0.4238 -0.1035  1.0933
   38CHL1    C9 2775   1.737   6.066   3.418  0.1463 -0.1594 -0.3828
   38CHL1    H9 2776   1.847   6.078   3.408  0.9587 -3.3051  2.5865
   38CHL1   C10 2777   1.696   6.042   3.268  0.3890 -0.3358  0.1844
   38CHL1   C19 2778   1.550   6.062   3.261  0.4080 -1.0929  0.2307
   38CHL1  H19A 2779   1.523   6.169   3.279  0.4239 -1.0113 -0.2342
   38CHL1  H19B 2780   1.499   6.049   3.164 -1.5209  1.6280  0.7372
   38CHL1  H19C 2781   1.493   6.007   3.339 -1.2713 -0.6398 -0.6298
   38CHL1    C1 2782   1.789   6.125   3.180 -0.8896 -0.1464 -0.1273
   38CHL1   H1A 2783   1.789   6.233   3.206  0.0791 -0.1333 -0.1635
   38CHL1   H1B 2784   1.894   6.090   3.184 -1.5058 -2.1963 -0.3924
   38CHL1    C2 2785   1.744   6.121   3.031  0.3566 -0.3395  0.6101
   38CHL1   H2A 2786   1.804   6.193   2.972  0.0746  0.1151  0.8740
   38CHL1   H2B 2787   1.638   6.150   3.016  1.0022  3.8824  2.5349
   38CHL1   C20 2788   1.738   6.164   3.973  0.3872  0.1424 -0.1741
   38CHL1   H20 2789   1.627   6.166   3.980  0.3126  0.7604 -1.3449
   38CHL1   C21 2790   1.779   6.306   3.956 -0.2696 -0.4019 -0.5409
   38CHL1  H21A 2791   1.760   6.364   4.049 -1.1311 -0.2765 -0.7883
   38CHL1  H21B 2792   1.727   6.360   3.874 -1.0710 -1.4881 -0.7668
   38CHL1  H21C 2793   1.887   6.305   3.932 -0.0343 -0.1858  0.4411
   38CHL1   C22 2794   1.791   6.118   4.108  0.1759  0.0819 -0.1580
   38CHL1  H22A 2795   1.791   6.009   4.127  0.4393  0.1428  0.2061
   38CHL1  H22B 2796   1.899   6.148   4.108  0.0894  0.4096  0.6029
   38CHL1   C23 2797   1.721   6.187   4.238  0.6439 -0.2421  0.2038
   38CHL1  H23A 2798   1.719   6.298   4.235  0.7800 -0.2368  0.2523
   38CHL1  H23B 2799   1.612   6.168   4.239 -0.3957  4.4435  0.8669
   38CHL1   C24 2800   1.786   6.145   4.374  0.3313 -0.2998  0.8431
   38CHL1  H24A 2801   1.745   6.047   4.404  0.3833 -0.2687  1.0182
   38CHL1  H24B 2802   1.893   6.124   4.353  0.4072 -0.5632  1.4726
   38CHL1   C25 2803   1.763   6.240   4.494  0.2539  0.1219  0.2468
   38CHL1   H25 2804   1.796   6.340   4.457 -0.3672  0.0815 -0.4445
   38CHL1   C26 2805   1.618   6.231   4.538 -0.4966  0.1645  0.2566
   38CHL1  H26A 2806   1.597   6.292   4.629 -1.0387  1.6369 -0.8096
   38CHL1  H26B 2807   1.558   6.262   4.450  2.6343 -0.0687 -2.0947
   38CHL1  H26C 2808   1.593   6.126   4.564 -1.1085  0.1838 -0.2439
   38CHL1   C27 2809   1.865   6.203   4.605  0.6924 -0.2591  0.4597
   38CHL1  H27A 2810   1.830   6.110   4.655 -1.1731  0.4618  0.5705
   38CHL1  H27B 2811   1.966   6.186   4.561  0.8190  1.9717 -0.2331
   38CHL1  H27C 2812   1.878   6.287   4.677  0.2022  2.4257 -2.3383
   39CHL1    C3 2813   2.115   5.576   2.818 -0.2378 -0.0493 -0.3150
   39CHL1    H3 2814   2.158   5.474   2.817 -0.9388 -0.3471 -0.6385
   39CHL1    O3 2815   2.050   5.599   2.689  0.2181  0.0484  0.0382
   39CHL1   H3' 2816   1.999   5.679   2.703  2.6309  1.9036 -1.0888
   39CHL1    C4 2817   2.002   5.577   2.923 -0.4943 -0.1710  0.0742
   39CHL1   H4A 2818   1.957   5.678   2.912  1.3795  0.6592 -0.3100
   39CHL1   H4B 2819   1.917   5.509   2.899 -0.5189 -0.0753 -0.1147
   39CHL1    C5 2820   2.052   5.572   3.067  0.4300 -0.4659  0.5267
   39CHL1    C6 2821   2.012   5.474   3.147  0.0117 -0.1433 -0.0189
   39CHL1    H6 2822   1.929   5.411   3.111  0.7103 -1.5792  0.7800
   39CHL1    C7 2823   2.059   5.461   3.286 -0.7215  0.0237  0.0261
   39CHL1   H7A 2824   1.977   5.423   3.351 -0.4689 -1.4516 -0.4780
   39CHL1   H7B 2825   2.133   5.378   3.284 -0.7297  0.0282 -1.1897
   39CHL1    C8 2826   2.120   5.590   3.341  1.1751 -0.4713  0.0951
   39CHL1    H8 2827   2.037   5.663   3.346  0.3532 -0.9692 -3.7731
   39CHL1   C14 2828   2.171   5.567   3.484 -0.1114 -0.1414  0.1207
   39CHL1   H14 2829   2.248   5.487   3.484 -0.6509 -0.6885 -0.9627
   39CHL1   C15 2830   2.070   5.520   3.591 -0.4398  0.5156  0.7460
   39CHL1  H15A 2831   1.988   5.594   3.584 -0.9189 -0.1459 -3.2946
   39CHL1  H15B 2832   2.029   5.418   3.577  0.5328  0.4163 -2.1387
   39CHL1   C16 2833   2.140   5.545   3.733 -0.1282 -0.1302 -0.1904
   39CHL1  H16A 2834   2.075   5.601   3.803  0.2186  1.3972 -1.0436
   39CHL1  H16B 2835   2.157   5.446   3.780 -1.8030  0.0175  0.8002
   39CHL1   C17 2836   2.271   5.627   3.691 -0.3945  0.1119 -0.5928
   39CHL1   H17 2837   2.350   5.551   3.673 -0.8212 -1.3502  2.7827
   39CHL1   C13 2838   2.240   5.691   3.552 -0.3441  0.0176 -0.2264
   39CHL1   C18 2839   2.151   5.814   3.575  0.0457  0.3251 -0.3608
   39CHL1  H18A 2840   2.074   5.783   3.648 -0.1392 -0.7082 -0.9787
   39CHL1  H18B 2841   2.212   5.904   3.601  1.7773 -0.5138 -1.2944
   39CHL1  H18C 2842   2.110   5.834   3.473 -1.0597  2.1639  0.3975
   39CHL1   C12 2843   2.353   5.728   3.463  0.3739  0.4591  0.3927
   39CHL1  H12A 2844   2.408   5.819   3.496 -1.5092  0.8338  2.8183
   39CHL1  H12B 2845   2.429   5.647   3.457 -0.1752  0.0456 -1.2926
   39CHL1   C11 2846   2.317   5.758   3.313  0.5841  0.8245  0.3643
   39CHL1  H11A 2847   2.271   5.859   3.310  2.1398  1.5795  0.5890
   39CHL1  H11B 2848   2.411   5.753   3.254 -0.5762 -0.8730 -1.4912
   39CHL1    C9 2849   2.219   5.655   3.245 -0.9695  0.4345  0.7462
   39CHL1    H9 2850   2.288   5.568   3.236 -2.8193 -1.4674  3.2074
   39CHL1   C10 2851   2.161   5.682   3.104 -0.0927  0.0380  0.4110
   39CHL1   C19 2852   2.099   5.822   3.117 -0.4021  0.0229 -0.3716
   39CHL1  H19A 2853   2.030   5.828   3.203  0.1287  0.5376  0.0277
   39CHL1  H19B 2854   2.178   5.900   3.127  0.3732 -0.8538  0.6217
   39CHL1  H19C 2855   2.055   5.854   3.020 -0.9774 -0.2124 -0.1894
   39CHL1    C1 2856   2.267   5.680   2.994  0.0149  0.2822 -0.2069
   39CHL1   H1A 2857   2.347   5.754   3.017  0.2190 -0.6690  2.5962
   39CHL1   H1B 2858   2.313   5.580   3.006 -1.7087 -0.6598 -1.1630
   39CHL1    C2 2859   2.217   5.688   2.846 -0.3232 -1.0505  0.2161
   39CHL1   H2A 2860   2.303   5.664   2.779 -0.1704  1.2933 -0.5151
   39CHL1   H2B 2861   2.189   5.793   2.824  0.0457 -0.8370  0.7340
   39CHL1   C20 2862   2.320   5.712   3.810  1.0897  0.1907  0.1220
   39CHL1   H20 2863   2.248   5.794   3.828  0.2748 -0.3395 -0.6653
   39CHL1   C21 2864   2.449   5.785   3.783 -0.2488 -0.3532  0.1961
   39CHL1  H21A 2865   2.527   5.724   3.733  1.4459 -0.9807  3.3346
   39CHL1  H21B 2866   2.483   5.815   3.884 -1.4649 -0.7945  0.7618
   39CHL1  H21C 2867   2.443   5.879   3.724 -0.6849 -0.0933  0.6352
   39CHL1   C22 2868   2.326   5.620   3.941  0.7193  0.5927  0.2326
   39CHL1  H22A 2869   2.245   5.544   3.951 -1.2820  2.6272  0.1296
   39CHL1  H22B 2870   2.423   5.565   3.940  2.3824  3.3493  0.2603
   39CHL1   C23 2871   2.324   5.696   4.070  0.4770 -0.4229  0.5030
   39CHL1  H23A 2872   2.362   5.622   4.145 -1.2789 -0.4232  1.4597
   39CHL1  H23B 2873   2.384   5.789   4.070 -0.6217  0.4492 -3.3736
   39CHL1   C24 2874   2.191   5.746   4.126  0.6330 -0.1816  0.4971
   39CHL1  H24A 2875   2.136   5.813   4.057 -1.8748 -0.1405  2.3927
   39CHL1  H24B 2876   2.120   5.661   4.138  1.0615 -0.6263 -0.0799
   39CHL1   C25 2877   2.195   5.812   4.272  0.2055  0.0696  0.2108
   39CHL1   H25 2878   2.236   5.736   4.342  0.9191 -0.6506 -0.9554
   39CHL1   C26 2879   2.281   5.936   4.262  0.2017  0.4623 -0.6654
   39CHL1  H26A 2880   2.246   6.012   4.189  1.4788  0.2061 -1.5892
   39CHL1  H26B 2881   2.280   5.973   4.366  0.5313  0.3238 -0.6110
   39CHL1  H26C 2882   2.384   5.910   4.228  0.4734  1.2648 -0.4873
   39CHL1   C27 2883   2.058   5.849   4.313 -0.6268  0.4926 -0.0550
   39CHL1  H27A 2884   2.016   5.933   4.252 -1.4404  0.4866  0.4880
   39CHL1  H27B 2885   1.991   5.762   4.327 -1.8441  1.2509 -0.8926
   39CHL1  H27C 2886   2.086   5.884   4.414 -0.9629 -0.2156  0.2842
   40CHL1    C3 2887   4.713   3.227   2.489  0.1656 -0.4977  0.0541
   40CHL1    H3 2888   4.640   3.147   2.512 -1.3301 -0.0202 -2.5798
   40CHL1    O3 2889   4.736   3.222   2.351  0.0346  0.2925 -0.1645
   40CHL1   H3' 2890   4.812   3.163   2.341  1.3295  1.6423  1.1630
   40CHL1    C4 2891   4.646   3.368   2.510  0.5315  0.0058 -0.0536
   40CHL1   H4A 2892   4.712   3.450   2.476 -0.1817  0.4884 -0.2810
   40CHL1   H4B 2893   4.558   3.371   2.443  0.6854  2.1635 -0.2287
   40CHL1    C5 2894   4.606   3.390   2.655 -0.4214  0.0235 -0.0985
   40CHL1    C6 2895   4.480   3.421   2.701  0.3889  0.2049  0.1892
   40CHL1    H6 2896   4.396   3.436   2.632  1.5121  2.2870 -0.8070
   40CHL1    C7 2897   4.451   3.454   2.839  0.5868 -0.0243  0.1595
   40CHL1   H7A 2898   4.379   3.539   2.830  0.7449  0.0533 -0.3625
   40CHL1   H7B 2899   4.390   3.370   2.878  0.5622 -0.5290 -0.9431
   40CHL1    C8 2900   4.575   3.484   2.926 -0.0407 -0.7321  0.1582
   40CHL1    H8 2901   4.609   3.585   2.892 -0.8724 -0.5559 -0.1804
   40CHL1   C14 2902   4.549   3.475   3.068 -0.5085 -0.5504 -0.1670
   40CHL1   H14 2903   4.516   3.371   3.089  0.0229 -0.3144  2.0873
   40CHL1   C15 2904   4.434   3.559   3.129 -0.5069  0.7175  0.3445
   40CHL1  H15A 2905   4.453   3.666   3.105  0.3105  0.5580  0.2369
   40CHL1  H15B 2906   4.330   3.541   3.094 -0.4670  1.5665 -0.2526
   40CHL1   C16 2907   4.443   3.540   3.280 -0.4213 -1.0885 -0.5455
   40CHL1  H16A 2908   4.421   3.640   3.322  0.5346 -0.9714 -0.3103
   40CHL1  H16B 2909   4.367   3.470   3.321 -1.9892  1.7115  1.6552
   40CHL1   C17 2910   4.583   3.476   3.308  0.3091 -0.1542 -0.1197
   40CHL1   H17 2911   4.572   3.366   3.305  0.9431 -0.1923 -1.2857
   40CHL1   C13 2912   4.661   3.495   3.170 -0.0812 -0.3962  0.1198
   40CHL1   C18 2913   4.719   3.636   3.175  0.5462  0.3309 -0.4217
   40CHL1  H18A 2914   4.643   3.712   3.202 -0.3371 -0.1845 -1.3815
   40CHL1  H18B 2915   4.806   3.640   3.243  1.1805  3.8158 -1.2489
   40CHL1  H18C 2916   4.753   3.668   3.074  0.8379 -4.6867 -2.2125
   40CHL1   C12 2917   4.776   3.398   3.138 -0.1396 -0.1951  0.2299
   40CHL1  H12A 2918   4.856   3.413   3.214  0.1418 -0.2060 -0.0647
   40CHL1  H12B 2919   4.732   3.298   3.159  0.4741 -0.3796  0.6568
   40CHL1   C11 2920   4.814   3.396   2.989 -0.0169 -0.2455  0.4254
   40CHL1  H11A 2921   4.863   3.492   2.962  1.3115 -1.4492 -1.7926
   40CHL1  H11B 2922   4.894   3.320   2.974 -0.5403 -1.1285  1.9305
   40CHL1    C9 2923   4.689   3.379   2.895 -0.2746 -0.4301 -0.0122
   40CHL1    H9 2924   4.638   3.281   2.910 -0.7662 -0.2510 -0.5245
   40CHL1   C10 2925   4.737   3.383   2.745  0.2987  0.2904  0.0403
   40CHL1   C19 2926   4.826   3.507   2.703  0.0634 -0.6518 -0.2372
   40CHL1  H19A 2927   4.909   3.505   2.777 -0.0111 -1.6923 -0.1582
   40CHL1  H19B 2928   4.867   3.501   2.601  0.0139 -3.4015 -0.1809
   40CHL1  H19C 2929   4.772   3.603   2.718  2.9173  0.7759  1.6757
   40CHL1    C1 2930   4.804   3.247   2.717  0.3311  0.4676  0.1212
   40CHL1   H1A 2931   4.903   3.243   2.767  0.2767  4.3523  0.8394
   40CHL1   H1B 2932   4.740   3.165   2.757  0.4058  0.3554  0.0124
   40CHL1    C2 2933   4.839   3.219   2.569  0.7495  0.3210  0.2134
   40CHL1   H2A 2934   4.886   3.119   2.565  0.0031 -0.0958  1.2562
   40CHL1   H2B 2935   4.913   3.298   2.544  1.6630 -0.0602  1.5687
   40CHL1   C20 2936   4.645   3.518   3.443 -0.1950 -0.8563  0.1776
   40CHL1   H20 2937   4.649   3.629   3.441 -0.9431 -0.8362 -0.6687
   40CHL1   C21 2938   4.785   3.458   3.461 -0.0058  0.1276 -0.1167
   40CHL1  H21A 2939   4.785   3.349   3.439 -1.7488  0.3986 -1.6618
   40CHL1  H21B 2940   4.825   3.487   3.561 -2.8761  2.0755  0.5835
   40CHL1  H21C 2941   4.848   3.508   3.385  0.4050 -1.3457 -0.7966
   40CHL1   C22 2942   4.537   3.472   3.545  0.3422 -0.0645 -0.2495
   40CHL1  H22A 2943   4.436   3.516   3.531  0.1480 -0.4054  0.0839
   40CHL1  H22B 2944   4.546   3.361   3.552  1.5034  0.1151  1.9763
   40CHL1   C23 2945   4.575   3.524   3.687 -0.0295  0.8093  0.3864
   40CHL1  H23A 2946   4.668   3.473   3.722 -1.0326 -0.0757  1.8777
   40CHL1  H23B 2947   4.591   3.631   3.664  1.8192  0.6945  0.9247
   40CHL1   C24 2948   4.464   3.497   3.788  0.3189 -0.3520  0.4330
   40CHL1  H24A 2949   4.368   3.547   3.761  0.9676  0.5020 -0.3383
   40CHL1  H24B 2950   4.440   3.391   3.764 -0.1269 -0.3755  0.9603
   40CHL1   C25 2951   4.506   3.514   3.931 -0.6129 -0.3241 -0.9706
   40CHL1   H25 2952   4.608   3.474   3.948 -0.5179  0.7123  1.1698
   40CHL1   C26 2953   4.524   3.666   3.956  0.1454 -0.1310 -0.0124
   40CHL1  H26A 2954   4.429   3.721   3.935  0.7241  0.6738 -0.5810
   40CHL1  H26B 2955   4.549   3.673   4.064 -1.0279 -2.0025  0.4283
   40CHL1  H26C 2956   4.607   3.699   3.891 -2.2177 -0.0933 -3.2396
   40CHL1   C27 2957   4.397   3.456   4.017  0.5387 -0.1462 -0.0168
   40CHL1  H27A 2958   4.411   3.478   4.125 -1.1725 -0.0466  0.2192
   40CHL1  H27B 2959   4.295   3.488   3.986  0.4701 -0.2086  0.1451
   40CHL1  H27C 2960   4.390   3.346   4.006 -2.2090 -0.1215  0.6521
   41CHL1    C3 2961   3.213   1.407   3.231  0.2117  0.0870  0.8463
   41CHL1    H3 2962   3.133   1.483   3.224  0.1462  0.0625  1.2721
   41CHL1    O3 2963   3.241   1.353   3.096  0.8814  0.6089 -0.0440
   41CHL1   H3' 2964   3.273   1.432   3.053  0.3452  1.6267  1.3207
   41CHL1    C4 2965   3.350   1.469   3.270  0.7186 -0.4717  0.2590
   41CHL1   H4A 2966   3.431   1.404   3.231  0.4742  0.0902 -1.2541
   41CHL1   H4B 2967   3.348   1.563   3.211 -1.7618  1.1808  2.7181
   41CHL1    C5 2968   3.372   1.513   3.413 -0.2154  0.0325  0.2796
   41CHL1    C6 2969   3.406   1.633   3.450  0.4110 -0.6465 -0.2836
   41CHL1    H6 2970   3.427   1.716   3.380  1.4386  0.7132  1.5466
   41CHL1    C7 2971   3.441   1.675   3.589 -0.1142  0.1026 -1.0216
   41CHL1   H7A 2972   3.533   1.738   3.589  0.7881 -1.1351 -2.2540
   41CHL1   H7B 2973   3.362   1.739   3.635  0.7770  1.7643 -1.6974
   41CHL1    C8 2974   3.454   1.553   3.684 -0.5919  0.2923 -0.2626
   41CHL1    H8 2975   3.541   1.490   3.656 -2.0605 -3.0148  1.9103
   41CHL1   C14 2976   3.470   1.588   3.834 -0.3332 -1.1733  0.7608
   41CHL1   H14 2977   3.388   1.660   3.855  3.0253  2.8265  1.6922
   41CHL1   C15 2978   3.598   1.673   3.868  0.3301 -0.3749  0.2374
   41CHL1  H15A 2979   3.692   1.632   3.825  0.3420 -0.1802  0.0779
   41CHL1  H15B 2980   3.588   1.779   3.840  1.7089 -0.9720 -2.9160
   41CHL1   C16 2981   3.599   1.657   4.018  0.0031 -0.1001  0.5323
   41CHL1  H16A 2982   3.701   1.623   4.047  0.3934  0.2541 -0.3960
   41CHL1  H16B 2983   3.588   1.760   4.058  1.0910  0.1885  0.1397
   41CHL1   C17 2984   3.494   1.553   4.062 -0.2723  0.5645 -0.6935
   41CHL1   H17 2985   3.402   1.605   4.096 -1.5692 -1.4527 -1.0250
   41CHL1   C13 2986   3.470   1.474   3.930 -0.1007  0.0803 -0.2036
   41CHL1   C18 2987   3.585   1.374   3.895  0.3225  0.3350  0.7868
   41CHL1  H18A 2988   3.587   1.284   3.959  1.4352  0.0827  0.4232
   41CHL1  H18B 2989   3.594   1.350   3.786  0.7856  1.5023  0.5464
   41CHL1  H18C 2990   3.678   1.434   3.911 -0.4226  2.0247 -0.7585
   41CHL1   C12 2991   3.333   1.402   3.914  0.3736 -0.4934 -0.4807
   41CHL1  H12A 2992   3.339   1.321   3.990 -1.5382 -0.0189  0.2284
   41CHL1  H12B 2993   3.251   1.475   3.930  0.2403 -0.9481  1.0409
   41CHL1   C11 2994   3.317   1.346   3.772  0.6475  0.4084  0.2769
   41CHL1  H11A 2995   3.395   1.268   3.769 -0.1719 -0.4663  1.2355
   41CHL1  H11B 2996   3.214   1.308   3.752 -0.1353  2.8373 -0.8308
   41CHL1    C9 2997   3.330   1.461   3.663 -0.5675  0.8576 -0.5119
   41CHL1    H9 2998   3.243   1.530   3.659 -0.1248  1.3564 -2.0183
   41CHL1   C10 2999   3.332   1.403   3.515  0.2572  0.4546  0.0507
   41CHL1   C19 3000   3.432   1.286   3.501 -0.5636 -0.5822  0.5636
   41CHL1  H19A 3001   3.417   1.209   3.579  1.8748 -1.8634 -0.1311
   41CHL1  H19B 3002   3.425   1.239   3.401  0.1989  0.2065  0.1239
   41CHL1  H19C 3003   3.540   1.313   3.495 -0.6640 -0.4122 -0.8161
   41CHL1    C1 3004   3.188   1.353   3.468 -0.2129 -0.4029 -0.1093
   41CHL1   H1A 3005   3.163   1.269   3.535  0.3824 -0.8813 -0.4820
   41CHL1   H1B 3006   3.123   1.439   3.498  1.1606  0.3830  0.7168
   41CHL1    C2 3007   3.164   1.299   3.329  0.2874 -0.6253 -0.0089
   41CHL1   H2A 3008   3.060   1.270   3.305 -0.1409  1.0023 -0.2377
   41CHL1   H2B 3009   3.236   1.216   3.310 -0.3553 -1.0985 -0.4136
   41CHL1   C20 3010   3.537   1.475   4.189  0.3600  0.3409 -0.2044
   41CHL1   H20 3011   3.639   1.432   4.174 -0.1334 -1.3605  1.0249
   41CHL1   C21 3012   3.435   1.365   4.232  0.1902  0.5833  0.6404
   41CHL1  H21A 3013   3.329   1.399   4.232  0.5802  1.8878 -0.4318
   41CHL1  H21B 3014   3.449   1.336   4.338 -1.2574 -2.5961  0.0741
   41CHL1  H21C 3015   3.452   1.276   4.168 -1.7086 -0.6273  1.7297
   41CHL1   C22 3016   3.565   1.576   4.309  0.4704 -0.4021  1.0412
   41CHL1  H22A 3017   3.625   1.664   4.279 -0.2168  0.3347  1.7937
   41CHL1  H22B 3018   3.467   1.614   4.343 -0.3633 -1.3134 -0.2310
   41CHL1   C23 3019   3.634   1.522   4.433  0.2305  0.0239 -0.2247
   41CHL1  H23A 3020   3.631   1.414   4.460  0.1268 -0.1239 -0.8193
   41CHL1  H23B 3021   3.742   1.543   4.418  0.6390 -2.3640 -0.9670
   41CHL1   C24 3022   3.593   1.616   4.550 -0.1919  0.1502 -0.4551
   41CHL1  H24A 3023   3.636   1.718   4.540  1.1669 -0.5098 -1.8610
   41CHL1  H24B 3024   3.482   1.616   4.558 -0.5116 -1.0457 -3.6553
   41CHL1   C25 3025   3.652   1.561   4.683  0.6128 -0.4236 -0.0912
   41CHL1   H25 3026   3.624   1.633   4.763 -2.7668 -3.7395  2.0656
   41CHL1   C26 3027   3.570   1.431   4.727  0.5606 -0.7082 -0.2035
   41CHL1  H26A 3028   3.581   1.402   4.833  1.9845 -0.0084 -0.1470
   41CHL1  H26B 3029   3.467   1.453   4.692  0.8964 -0.3168 -0.9597
   41CHL1  H26C 3030   3.603   1.344   4.666 -1.2674 -0.2833 -1.9188
   41CHL1   C27 3031   3.801   1.540   4.696  0.1398  0.1230 -0.0378
   41CHL1  H27A 3032   3.859   1.630   4.667 -0.4943  0.3586 -0.5989
   41CHL1  H27B 3033   3.831   1.513   4.799  0.2667  0.2207 -0.0493
   41CHL1  H27C 3034   3.824   1.448   4.637  0.6507 -0.9281  1.7231
   42CHL1    C3 3035   5.431   4.811   2.799 -0.7678  0.0215  1.1450
   42CHL1    H3 3036   5.437   4.922   2.801  2.1694 -0.0455  1.6567
   42CHL1    O3 3037   5.404   4.775   2.664 -0.2391  0.0036 -0.0824
   42CHL1   H3' 3038   5.485   4.809   2.624  0.0579  0.6524  1.0457
   42CHL1    C4 3039   5.562   4.750   2.854 -0.0148 -0.8503  0.1568
   42CHL1   H4A 3040   5.572   4.639   2.848  1.0624 -0.8881  1.8385
   42CHL1   H4B 3041   5.649   4.787   2.795 -1.3257 -0.2316 -1.4546
   42CHL1    C5 3042   5.577   4.776   3.002 -0.6363 -0.5805  0.2350
   42CHL1    C6 3043   5.682   4.842   3.052 -0.1137  0.3246  0.6040
   42CHL1    H6 3044   5.761   4.867   2.979  0.8134 -2.0616  0.7054
   42CHL1    C7 3045   5.723   4.834   3.203  0.3595 -0.6050  0.6362
   42CHL1   H7A 3046   5.816   4.775   3.216  0.6343 -0.4422 -0.4813
   42CHL1   H7B 3047   5.748   4.939   3.230  0.9008  0.2136 -2.6297
   42CHL1    C8 3048   5.615   4.767   3.289 -0.7363 -0.0193  0.6663
   42CHL1    H8 3049   5.645   4.660   3.289  1.1369  0.4731  0.6203
   42CHL1   C14 3050   5.623   4.804   3.437 -0.0653  0.3885 -0.0364
   42CHL1   H14 3051   5.585   4.907   3.446 -0.7132  0.0152  2.1945
   42CHL1   C15 3052   5.756   4.799   3.510 -0.1488 -0.5220 -0.3684
   42CHL1  H15A 3053   5.824   4.715   3.484  0.9000 -0.0201  0.6614
   42CHL1  H15B 3054   5.809   4.894   3.488 -0.5877  1.0696  4.3998
   42CHL1   C16 3055   5.723   4.787   3.660  0.3246 -0.2230 -0.3896
   42CHL1  H16A 3056   5.773   4.696   3.701  3.2831  1.0885 -0.8750
   42CHL1  H16B 3057   5.765   4.878   3.707 -1.7501  0.5369  0.0619
   42CHL1   C17 3058   5.571   4.769   3.674  0.1626  0.5976  0.0748
   42CHL1   H17 3059   5.533   4.873   3.683  0.4532  0.5487  2.2160
   42CHL1   C13 3060   5.531   4.721   3.536 -0.1024  0.2560  0.6967
   42CHL1   C18 3061   5.554   4.562   3.521  0.6464  0.9505  0.2910
   42CHL1  H18A 3062   5.641   4.547   3.589  2.0835 -0.2999 -1.7429
   42CHL1  H18B 3063   5.469   4.511   3.571  0.4406  1.2588  0.2550
   42CHL1  H18C 3064   5.587   4.508   3.430 -1.6049 -1.7586  0.9766
   42CHL1   C12 3065   5.388   4.761   3.489 -0.9080 -0.4389 -0.4293
   42CHL1  H12A 3066   5.307   4.718   3.551 -1.8193 -0.3473 -1.5312
   42CHL1  H12B 3067   5.386   4.869   3.517  0.3976 -0.9526  1.9163
   42CHL1   C11 3068   5.366   4.727   3.346  0.6401  0.2879 -0.2774
   42CHL1  H11A 3069   5.358   4.617   3.351  2.3135  0.1759  0.7751
   42CHL1  H11B 3070   5.266   4.748   3.304  0.9208 -0.3828 -1.3149
   42CHL1    C9 3071   5.472   4.782   3.242  0.3496 -0.1059 -0.1253
   42CHL1    H9 3072   5.454   4.891   3.247 -1.2402 -0.3783  0.9478
   42CHL1   C10 3073   5.452   4.730   3.091 -1.2773  0.2144 -0.0024
   42CHL1   C19 3074   5.454   4.573   3.090 -0.0963  0.6191 -0.4994
   42CHL1  H19A 3075   5.425   4.532   2.991 -0.1032  1.2528 -0.7640
   42CHL1  H19B 3076   5.551   4.531   3.123 -0.9528 -1.1172 -0.1011
   42CHL1  H19C 3077   5.372   4.547   3.161 -1.8870  1.2746 -2.2268
   42CHL1    C1 3078   5.323   4.781   3.030 -0.5186  0.2282  0.2695
   42CHL1   H1A 3079   5.230   4.741   3.074 -1.1865  2.6530  1.2188
   42CHL1   H1B 3080   5.322   4.890   3.052  3.1054  0.2512  0.9085
   42CHL1    C2 3081   5.316   4.756   2.881 -0.4196 -0.5648 -0.7672
   42CHL1   H2A 3082   5.216   4.789   2.846 -0.6404 -0.8243 -0.3737
   42CHL1   H2B 3083   5.319   4.648   2.852  1.9027 -0.6150 -0.5242
   42CHL1   C20 3084   5.536   4.697   3.802 -0.1819 -0.1431 -0.0842
   42CHL1   H20 3085   5.578   4.595   3.804 -0.3727 -0.2212 -0.0300
   42CHL1   C21 3086   5.385   4.681   3.808 -0.1883  0.7392  0.2690
   42CHL1  H21A 3087   5.349   4.602   3.738 -1.1271  0.0338  1.5071
   42CHL1  H21B 3088   5.334   4.776   3.782 -0.1124  1.4882  2.7088
   42CHL1  H21C 3089   5.340   4.644   3.902  0.0866  0.0340  0.1339
   42CHL1   C22 3090   5.583   4.764   3.936  0.1321 -0.2531  0.0668
   42CHL1  H22A 3091   5.694   4.768   3.934  0.0918  1.5566 -0.3412
   42CHL1  H22B 3092   5.543   4.868   3.943  0.2473 -0.3148  3.1837
   42CHL1   C23 3093   5.549   4.690   4.064 -0.5189  0.9906  1.0265
   42CHL1  H23A 3094   5.442   4.660   4.066 -0.4994  0.9489  1.5299
   42CHL1  H23B 3095   5.608   4.596   4.066 -1.2675  0.5011  0.7083
   42CHL1   C24 3096   5.580   4.783   4.177 -0.0357  0.9694 -0.1235
   42CHL1  H24A 3097   5.685   4.817   4.169  1.2490 -2.2193  1.3878
   42CHL1  H24B 3098   5.518   4.875   4.172 -1.4871  0.0343  0.0355
   42CHL1   C25 3099   5.554   4.729   4.322  0.5867  0.0334 -0.1384
   42CHL1   H25 3100   5.568   4.816   4.389 -1.2992  1.0220 -0.9334
   42CHL1   C26 3101   5.404   4.678   4.349 -0.3365  0.3676  0.6131
   42CHL1  H26A 3102   5.382   4.656   4.456  1.2351 -2.0313  0.5253
   42CHL1  H26B 3103   5.324   4.736   4.299 -0.5332 -0.8891 -0.6123
   42CHL1  H26C 3104   5.410   4.588   4.285  1.0624  1.4453 -0.8438
   42CHL1   C27 3105   5.649   4.616   4.365 -0.6219 -0.3828  0.2081
   42CHL1  H27A 3106   5.624   4.581   4.468  0.6903 -0.5009  0.5047
   42CHL1  H27B 3107   5.633   4.533   4.292  0.3098  0.6806 -1.2543
   42CHL1  H27C 3108   5.749   4.662   4.348 -0.3051 -0.8945  0.6421
   43CHL1    C3 3109   2.161   0.549   3.191 -0.5660  0.2547  0.0170
   43CHL1    H3 3110   2.202   0.649   3.216 -0.9083  0.4891 -0.3596
   43CHL1    O3 3111   2.174   0.521   3.053  0.3890 -0.4004  0.6280
   43CHL1   H3' 3112   2.266   0.492   3.045  0.8279  1.3863 -2.8317
   43CHL1    C4 3113   2.230   0.444   3.266 -0.6424 -0.2972 -0.3155
   43CHL1   H4A 3114   2.179   0.347   3.246 -0.3152 -0.0331 -2.8120
   43CHL1   H4B 3115   2.335   0.442   3.229  0.2344  1.1393  1.9129
   43CHL1    C5 3116   2.215   0.466   3.417  0.1102 -0.7943 -0.2011
   43CHL1    C6 3117   2.324   0.493   3.493  0.2118 -0.2155 -0.2847
   43CHL1    H6 3118   2.425   0.501   3.450  0.3534  1.5203  0.3052
   43CHL1    C7 3119   2.315   0.527   3.637 -0.5077 -0.3754  0.5556
   43CHL1   H7A 3120   2.401   0.490   3.696  3.5540  1.9952 -3.2766
   43CHL1   H7B 3121   2.326   0.636   3.654  0.7476 -0.4997  0.6019
   43CHL1    C8 3122   2.181   0.490   3.700 -0.7411  0.5442  0.4538
   43CHL1    H8 3123   2.186   0.379   3.704  0.0636  0.5356 -0.5387
   43CHL1   C14 3124   2.176   0.556   3.840 -0.0925  0.4732 -0.0238
   43CHL1   H14 3125   2.180   0.665   3.824  0.2214  0.3941 -0.5031
   43CHL1   C15 3126   2.293   0.542   3.935 -0.0537  0.7365  0.4119
   43CHL1  H15A 3127   2.349   0.446   3.932 -3.4717 -1.5045  1.4256
   43CHL1  H15B 3128   2.358   0.629   3.914 -1.3388  1.1499 -2.3873
   43CHL1   C16 3129   2.237   0.554   4.075  0.8717 -0.0177 -0.2520
   43CHL1  H16A 3130   2.235   0.455   4.127  0.7832  0.6973  1.1509
   43CHL1  H16B 3131   2.275   0.638   4.136 -1.3681  1.0565 -0.2438
   43CHL1   C17 3132   2.087   0.600   4.045 -0.1650 -0.5988 -0.6685
   43CHL1   H17 3133   2.091   0.708   4.021 -0.6229  0.0080  1.7853
   43CHL1   C13 3134   2.047   0.524   3.915  0.6123  0.0637  0.1712
   43CHL1   C18 3135   2.046   0.373   3.944  0.6786  0.4532 -0.3908
   43CHL1  H18A 3136   2.140   0.333   3.987 -0.0570 -1.4497 -0.4675
   43CHL1  H18B 3137   1.956   0.346   4.003  0.8296  1.2733  0.2327
   43CHL1  H18C 3138   2.030   0.315   3.850  0.2631  2.8648 -1.8840
   43CHL1   C12 3139   1.928   0.570   3.838 -0.9605  0.4788  0.2629
   43CHL1  H12A 3140   1.834   0.544   3.890 -1.3673  3.3265  1.1454
   43CHL1  H12B 3141   1.929   0.681   3.838 -0.6644  0.4944  1.8981
   43CHL1   C11 3142   1.925   0.508   3.694 -0.6064 -0.0697  0.6847
   43CHL1  H11A 3143   1.902   0.401   3.713 -0.9061 -0.4428 -1.4853
   43CHL1  H11B 3144   1.843   0.562   3.641  0.7636  3.0142  1.4305
   43CHL1    C9 3145   2.061   0.525   3.615  0.7649  0.4894  0.1328
   43CHL1    H9 3146   2.078   0.634   3.604  0.7475  0.4906  0.1190
   43CHL1   C10 3147   2.066   0.471   3.470  0.4764 -0.5178  0.2761
   43CHL1   C19 3148   1.994   0.329   3.459 -0.0121 -0.0381  0.2883
   43CHL1  H19A 3149   2.046   0.254   3.522  1.0641 -0.4839 -1.0802
   43CHL1  H19B 3150   1.889   0.340   3.494  0.0866 -1.0741  0.9506
   43CHL1  H19C 3151   1.987   0.288   3.356 -0.2205 -1.9324  1.0156
   43CHL1    C1 3152   1.997   0.578   3.378 -0.0901 -0.7671  0.0403
   43CHL1   H1A 3153   1.888   0.566   3.399  0.1597 -0.9741  1.2491
   43CHL1   H1B 3154   2.027   0.682   3.402 -3.2506 -0.0543  1.4148
   43CHL1    C2 3155   2.013   0.555   3.227  0.6556  0.4829  0.5364
   43CHL1   H2A 3156   1.966   0.644   3.180  1.9904  1.7106  1.4207
   43CHL1   H2B 3157   1.955   0.471   3.184 -0.0391  0.5949  1.2346
   43CHL1   C20 3158   1.994   0.594   4.171  0.3285 -0.3833  0.3566
   43CHL1   H20 3159   1.968   0.488   4.192 -0.6597 -0.3676 -0.6747
   43CHL1   C21 3160   1.853   0.665   4.146  0.4237  0.6739  0.3551
   43CHL1  H21A 3161   1.787   0.590   4.097  2.0486 -0.0460 -0.7960
   43CHL1  H21B 3162   1.866   0.754   4.080 -0.7762 -0.0866 -0.9647
   43CHL1  H21C 3163   1.806   0.702   4.240 -0.0895 -0.8652  0.7314
   43CHL1   C22 3164   2.060   0.659   4.294 -0.0352  0.3165 -0.3436
   43CHL1  H22A 3165   1.984   0.638   4.372  0.7967  1.5743  0.8545
   43CHL1  H22B 3166   2.150   0.600   4.322 -0.2743 -0.2125 -0.6647
   43CHL1   C23 3167   2.085   0.810   4.291 -0.2618 -0.0606  0.3042
   43CHL1  H23A 3168   2.156   0.846   4.212 -0.8679  0.7752  0.1272
   43CHL1  H23B 3169   1.990   0.859   4.262 -0.3261 -0.8730 -0.9433
   43CHL1   C24 3170   2.137   0.866   4.422 -0.6408  0.0379 -0.8772
   43CHL1  H24A 3171   2.074   0.836   4.509 -0.7815  1.2300 -0.5538
   43CHL1  H24B 3172   2.239   0.832   4.450 -1.7642 -1.2231  2.0351
   43CHL1   C25 3173   2.142   1.022   4.422 -0.8554  0.3007 -0.1474
   43CHL1   H25 3174   2.040   1.054   4.392 -0.0521  2.6949 -0.5606
   43CHL1   C26 3175   2.162   1.080   4.564  0.0931 -0.6338 -0.2382
   43CHL1  H26A 3176   2.255   1.062   4.622 -0.1177  3.4199  1.6578
   43CHL1  H26B 3177   2.162   1.190   4.552 -0.2421 -0.4453  1.3650
   43CHL1  H26C 3178   2.075   1.062   4.629  1.3693 -0.1086  1.6881
   43CHL1   C27 3179   2.243   1.087   4.330 -0.2925  0.2348  0.9779
   43CHL1  H27A 3180   2.251   1.195   4.354  0.1965  0.3163  0.4788
   43CHL1  H27B 3181   2.338   1.030   4.323  0.7887  1.7395  2.7542
   43CHL1  H27C 3182   2.196   1.086   4.229  0.8289 -1.3734  0.4314
   44CHL1    C3 3183   6.125   6.496   2.779 -0.4645 -0.5559  0.5512
   44CHL1    H3 3184   6.223   6.446   2.792 -0.5290 -0.6649  0.6167
   44CHL1    O3 3185   6.112   6.538   2.643 -0.2651 -0.1589  0.0018
   44CHL1   H3' 3186   6.184   6.596   2.617  0.7867 -1.1493  0.6584
   44CHL1    C4 3187   6.016   6.394   2.811 -0.6385  0.0090  0.0119
   44CHL1   H4A 3188   5.921   6.449   2.798 -0.8797 -0.3264  0.3452
   44CHL1   H4B 3189   6.021   6.313   2.736  0.7535  0.4823 -0.4486
   44CHL1    C5 3190   6.027   6.355   2.960  0.1224 -0.3178  0.6098
   44CHL1    C6 3191   6.046   6.231   2.999 -0.3010  0.0070  0.0326
   44CHL1    H6 3192   6.059   6.161   2.916 -0.3830  0.2782 -0.2119
   44CHL1    C7 3193   6.024   6.179   3.143 -0.5401 -0.3282 -0.0241
   44CHL1   H7A 3194   5.970   6.082   3.147 -2.2927  0.3721 -3.1324
   44CHL1   H7B 3195   6.127   6.161   3.180  0.3777  1.7680 -1.3577
   44CHL1    C8 3196   5.967   6.296   3.231 -0.5845  0.9968  0.3156
   44CHL1    H8 3197   5.857   6.301   3.214 -0.6142 -1.5496 -0.8259
   44CHL1   C14 3198   5.988   6.270   3.377 -0.8242  0.0763 -0.2650
   44CHL1   H14 3199   6.099   6.259   3.380 -1.0925 -3.3960  0.7767
   44CHL1   C15 3200   5.932   6.133   3.426  0.0511 -0.2468 -0.2452
   44CHL1  H15A 3201   5.833   6.119   3.379  0.1291 -0.0062 -0.4840
   44CHL1  H15B 3202   6.000   6.054   3.387  1.6334  0.6704  0.5277
   44CHL1   C16 3203   5.920   6.149   3.577  0.4837  0.2347 -1.0766
   44CHL1  H16A 3204   5.812   6.146   3.602  0.7479  1.1534  0.2660
   44CHL1  H16B 3205   5.983   6.070   3.622  2.0279 -0.2549 -3.8252
   44CHL1   C17 3206   5.990   6.290   3.610  0.0652 -0.4824 -0.0945
   44CHL1   H17 3207   6.097   6.261   3.608 -0.1912 -1.7696 -4.5478
   44CHL1   C13 3208   5.961   6.371   3.480 -0.6551  0.0362  0.4670
   44CHL1   C18 3209   5.807   6.411   3.487  0.6991 -0.3230  1.2511
   44CHL1  H18A 3210   5.748   6.318   3.496  0.4278 -0.3225 -0.1856
   44CHL1  H18B 3211   5.800   6.480   3.574  3.3460  0.8717  0.6140
   44CHL1  H18C 3212   5.775   6.457   3.391  2.9102 -1.1548  0.0331
   44CHL1   C12 3213   6.052   6.487   3.450 -0.2312 -0.6811 -0.1939
   44CHL1  H12A 3214   6.031   6.573   3.518 -0.6778 -0.7026 -0.2977
   44CHL1  H12B 3215   6.160   6.465   3.444 -0.4979 -2.5790  1.1375
   44CHL1   C11 3216   6.020   6.536   3.311  0.5328 -0.5797  0.2879
   44CHL1  H11A 3217   5.921   6.584   3.299 -0.3182 -2.0529  1.1624
   44CHL1  H11B 3218   6.097   6.612   3.287  0.3568 -0.7290 -0.8269
   44CHL1    C9 3219   6.041   6.424   3.201 -0.2845 -1.0499  0.6947
   44CHL1    H9 3220   6.151   6.406   3.203 -0.0178  0.5506  2.3130
   44CHL1   C10 3221   6.016   6.474   3.055  0.0109 -0.0139 -0.0717
   44CHL1   C19 3222   5.869   6.527   3.038  0.2858 -0.2489 -0.0512
   44CHL1  H19A 3223   5.807   6.439   3.064  1.3048 -1.5309 -1.8003
   44CHL1  H19B 3224   5.863   6.617   3.104  1.2002  0.0296 -0.3409
   44CHL1  H19C 3225   5.839   6.563   2.937  2.7462  0.8858 -0.4317
   44CHL1    C1 3226   6.115   6.582   3.020  0.0526  0.2390 -0.0814
   44CHL1   H1A 3227   6.125   6.667   3.092  0.6636 -0.2748  0.4595
   44CHL1   H1B 3228   6.212   6.531   3.040  1.3076  2.6216  0.3014
   44CHL1    C2 3229   6.116   6.626   2.868 -0.2866  0.1250  0.1861
   44CHL1   H2A 3230   6.209   6.681   2.842 -0.7728  1.1186  0.4915
   44CHL1   H2B 3231   6.021   6.665   2.828 -1.3279 -3.5670 -1.4073
   44CHL1   C20 3232   5.948   6.348   3.748  0.9255 -0.5476  0.2338
   44CHL1   H20 3233   5.839   6.368   3.734  0.7778  0.6696  2.6372
   44CHL1   C21 3234   6.017   6.478   3.784  0.3374  0.2901 -0.0161
   44CHL1  H21A 3235   6.022   6.560   3.708  3.2368  0.2475  0.0039
   44CHL1  H21B 3236   6.123   6.456   3.809  0.2351 -0.6432 -0.3509
   44CHL1  H21C 3237   5.969   6.523   3.873 -2.0207  0.3889 -1.2574
   44CHL1   C22 3238   5.958   6.255   3.874  0.2374 -0.6827  0.0471
   44CHL1  H22A 3239   5.904   6.163   3.843  1.5138 -0.7909 -2.0346
   44CHL1  H22B 3240   6.066   6.231   3.876  0.2162 -0.8082 -0.2566
   44CHL1   C23 3241   5.893   6.302   4.003 -0.0791 -0.7257  0.0061
   44CHL1  H23A 3242   5.956   6.386   4.041 -0.3853  0.4673 -2.0214
   44CHL1  H23B 3243   5.792   6.337   3.975 -0.0154 -1.8569 -1.7906
   44CHL1   C24 3244   5.893   6.189   4.109 -0.0303 -0.0063  0.3753
   44CHL1  H24A 3245   5.840   6.102   4.063  1.6497  0.7544 -3.3912
   44CHL1  H24B 3246   5.998   6.166   4.134  0.1594  1.3469  0.8741
   44CHL1   C25 3247   5.837   6.236   4.247  0.4914 -0.5132  0.3575
   44CHL1   H25 3248   5.907   6.317   4.278 -0.0491  0.6847 -1.4033
   44CHL1   C26 3249   5.700   6.320   4.239 -0.6649 -0.0338  0.0038
   44CHL1  H26A 3250   5.718   6.418   4.189  1.1102  0.0855  0.7744
   44CHL1  H26B 3251   5.619   6.259   4.194  0.3265 -0.6065 -1.0719
   44CHL1  H26C 3252   5.671   6.350   4.342 -1.3689  1.8606 -0.7126
   44CHL1   C27 3253   5.824   6.122   4.348  0.5204  0.3718 -1.1291
   44CHL1  H27A 3254   5.759   6.043   4.305 -2.5202  1.4469  1.1179
   44CHL1  H27B 3255   5.918   6.081   4.391 -0.3971 -0.9622 -0.2866
   44CHL1  H27C 3256   5.755   6.158   4.428 -0.5691  0.6903 -2.1855
   45CHL1    C3 3257   0.245   0.187   2.886  0.5321  0.0783  0.0912
   45CHL1    H3 3258   0.212   0.293   2.893  3.7282  1.0953  1.5436
   45CHL1    O3 3259   0.229   0.145   2.751  0.7529 -0.4802 -0.2948
   45CHL1   H3' 3260   0.280   0.064   2.752  0.0849 -0.9431  2.2989
   45CHL1    C4 3261   0.397   0.182   2.916 -0.3198  0.0239 -0.3406
   45CHL1   H4A 3262   0.427   0.078   2.888 -1.1403  0.1188 -1.6628
   45CHL1   H4B 3263   0.456   0.246   2.848 -0.1084  0.5634  0.3447
   45CHL1    C5 3264   0.426   0.230   3.054 -0.2866 -0.2595  0.0541
   45CHL1    C6 3265   0.516   0.325   3.086 -0.1870  0.5468 -0.8407
   45CHL1    H6 3266   0.563   0.389   3.010  2.3295  0.6589  0.7154
   45CHL1    C7 3267   0.548   0.378   3.222 -0.0928  0.0710 -0.3698
   45CHL1   H7A 3268   0.658   0.382   3.240 -0.1373 -1.3270  0.3860
   45CHL1   H7B 3269   0.513   0.481   3.242  2.8630  1.2862 -0.9488
   45CHL1    C8 3270   0.496   0.279   3.332 -0.9921 -0.5711 -0.8243
   45CHL1    H8 3271   0.570   0.197   3.321  0.3812  0.7301 -1.6363
   45CHL1   C14 3272   0.499   0.344   3.473  0.4352 -0.4834 -0.2313
   45CHL1   H14 3273   0.425   0.426   3.478 -1.2682 -2.0076  0.9301
   45CHL1   C15 3274   0.627   0.414   3.521 -0.4057 -0.6739 -0.4059
   45CHL1  H15A 3275   0.709   0.347   3.485 -0.5381 -0.3642 -1.3195
   45CHL1  H15B 3276   0.644   0.516   3.480 -0.9628  0.3761  1.8246
   45CHL1   C16 3277   0.620   0.408   3.676  0.1260  0.1349  0.2408
   45CHL1  H16A 3278   0.694   0.342   3.726 -0.7165  0.1401  1.5393
   45CHL1  H16B 3279   0.634   0.512   3.711 -3.3507  1.4112 -1.6862
   45CHL1   C17 3280   0.482   0.352   3.713 -0.3800 -0.2832  0.0445
   45CHL1   H17 3281   0.406   0.431   3.694 -1.4126 -1.7554 -2.5244
   45CHL1   C13 3282   0.457   0.256   3.592  0.4973 -0.0418  0.2484
   45CHL1   C18 3283   0.548   0.133   3.603  0.4666  0.3140  0.6654
   45CHL1  H18A 3284   0.647   0.135   3.653  0.5222  0.4570  0.5512
   45CHL1  H18B 3285   0.488   0.061   3.663  1.3362  0.6302  1.9500
   45CHL1  H18C 3286   0.558   0.080   3.505 -0.1165  0.6060  0.4430
   45CHL1   C12 3287   0.312   0.216   3.558 -1.0954  0.4343 -0.0860
   45CHL1  H12A 3288   0.282   0.155   3.646 -0.1182 -0.3626 -0.2819
   45CHL1  H12B 3289   0.270   0.319   3.555 -0.8336  0.5564  0.3288
   45CHL1   C11 3290   0.300   0.150   3.420  0.5179 -0.2660 -0.1255
   45CHL1  H11A 3291   0.337   0.045   3.418  1.7621  0.1593 -2.2561
   45CHL1  H11B 3292   0.195   0.128   3.391  1.3236 -2.9219 -1.3512
   45CHL1    C9 3293   0.358   0.234   3.303 -0.2693  0.1772  0.1172
   45CHL1    H9 3294   0.298   0.327   3.288  0.8474  0.7733 -0.8157
   45CHL1   C10 3295   0.337   0.166   3.167  0.3307 -0.3707  0.2384
   45CHL1   C19 3296   0.391   0.022   3.170  0.0414 -0.3219 -0.0691
   45CHL1  H19A 3297   0.325  -0.034   3.241  2.8409 -3.0923  0.5743
   45CHL1  H19B 3298   0.376  -0.038   3.078 -0.5880 -3.1565  1.7367
   45CHL1  H19C 3299   0.500   0.016   3.188  0.1683 -1.4398 -1.0731
   45CHL1    C1 3300   0.178   0.167   3.127 -0.5657 -0.2945  0.1044
   45CHL1   H1A 3301   0.107   0.112   3.192 -0.7156  0.6698  0.7877
   45CHL1   H1B 3302   0.138   0.270   3.136 -0.8773 -0.3755 -0.3187
   45CHL1    C2 3303   0.160   0.116   2.990 -0.5305 -0.2248  0.8432
   45CHL1   H2A 3304   0.054   0.121   2.957 -0.5913 -0.2895  1.0298
   45CHL1   H2B 3305   0.191   0.010   2.977  1.1128  0.3033  0.1753
   45CHL1   C20 3306   0.470   0.291   3.855 -0.0540  0.0976 -0.3733
   45CHL1   H20 3307   0.509   0.187   3.860  1.0103  0.5465  3.1130
   45CHL1   C21 3308   0.315   0.290   3.898  0.2161  0.3986  0.6049
   45CHL1  H21A 3309   0.254   0.254   3.811  0.8010  1.0569 -0.0874
   45CHL1  H21B 3310   0.297   0.396   3.925  0.4132  1.0561 -1.6209
   45CHL1  H21C 3311   0.302   0.219   3.983 -0.8508 -1.0261 -0.6768
   45CHL1   C22 3312   0.539   0.371   3.963  0.7101 -0.6604 -0.3406
   45CHL1  H22A 3313   0.648   0.386   3.950  0.7858 -1.5436 -0.7519
   45CHL1  H22B 3314   0.488   0.466   3.993  2.6558  0.3554 -0.0629
   45CHL1   C23 3315   0.540   0.289   4.093 -0.4256  0.2747  0.0747
   45CHL1  H23A 3316   0.439   0.245   4.107 -0.8946  1.4626  0.4789
   45CHL1  H23B 3317   0.610   0.203   4.081  1.0015  1.2588  0.9465
   45CHL1   C24 3318   0.575   0.372   4.218  0.2966  1.1142  0.0308
   45CHL1  H24A 3319   0.679   0.410   4.203  1.4093 -1.3864  0.9395
   45CHL1  H24B 3320   0.507   0.460   4.226  1.2088  1.9844 -1.2978
   45CHL1   C25 3321   0.575   0.289   4.351  0.0562 -0.2658  0.4885
   45CHL1   H25 3322   0.627   0.192   4.332  1.1654  0.6656 -1.6062
   45CHL1   C26 3323   0.655   0.370   4.451  0.7786  0.4369  0.0957
   45CHL1  H26A 3324   0.758   0.386   4.413  0.7495 -0.7497 -0.5068
   45CHL1  H26B 3325   0.617   0.472   4.475  2.8401  0.9561  1.3996
   45CHL1  H26C 3326   0.661   0.322   4.551  2.5529  1.8727  0.7411
   45CHL1   C27 3327   0.431   0.275   4.404  0.5225  0.2747 -0.5403
   45CHL1  H27A 3328   0.383   0.374   4.421 -2.2079 -0.9520 -0.5168
   45CHL1  H27B 3329   0.351   0.237   4.336 -1.4171  4.8594 -1.2075
   45CHL1  H27C 3330   0.430   0.225   4.503 -0.2912 -0.6291 -0.9841
   46CHL1    C3 3331   3.911   1.324   2.989 -0.5244  0.8972 -0.0380
   46CHL1    H3 3332   3.999   1.392   2.983  1.1198 -1.0109  1.0360
   46CHL1    O3 3333   3.854   1.313   2.858 -0.1517 -0.3091 -0.0960
   46CHL1   H3' 3334   3.761   1.311   2.880 -0.4599  2.3926 -0.8082
   46CHL1    C4 3335   3.942   1.183   3.041  0.5870  0.2997 -0.1076
   46CHL1   H4A 3336   3.849   1.122   3.040  0.2086  0.8681 -1.0199
   46CHL1   H4B 3337   4.015   1.135   2.973 -0.0344  0.3919 -0.8468
   46CHL1    C5 3338   3.990   1.191   3.185  0.2769  0.0573 -0.1304
   46CHL1    C6 3339   4.102   1.135   3.230 -0.1143 -0.9275 -0.2748
   46CHL1    H6 3340   4.171   1.077   3.168  0.9385 -1.0907  1.0205
   46CHL1    C7 3341   4.142   1.127   3.374  0.3816 -0.5195 -1.0567
   46CHL1   H7A 3342   4.178   1.027   3.405  2.1706  0.2301 -0.5875
   46CHL1   H7B 3343   4.226   1.197   3.398  1.3496 -1.8299 -0.5343
   46CHL1    C8 3344   4.022   1.149   3.475 -0.3873 -0.2251 -0.8291
   46CHL1    H8 3345   3.956   1.059   3.474 -0.2993 -0.2896 -1.0974
   46CHL1   C14 3346   4.071   1.162   3.621  0.3338  0.1885  0.3187
   46CHL1   H14 3347   4.160   1.228   3.620  0.2318  0.3356 -1.0190
   46CHL1   C15 3348   4.126   1.034   3.690  0.0172 -0.2797  0.0201
   46CHL1  H15A 3349   4.044   0.960   3.683  2.7869 -3.5159 -0.3387
   46CHL1  H15B 3350   4.222   0.993   3.654 -1.9202 -4.2199 -1.2307
   46CHL1   C16 3351   4.141   1.086   3.833 -0.0616 -0.3914 -0.4734
   46CHL1  H16A 3352   4.098   1.021   3.913 -0.4176 -0.6198 -0.8452
   46CHL1  H16B 3353   4.249   1.096   3.856 -0.1212 -1.3806  0.3765
   46CHL1   C17 3354   4.061   1.220   3.851 -0.1515 -0.3403  0.0888
   46CHL1   H17 3355   4.135   1.299   3.828  1.0531 -1.5427 -0.3189
   46CHL1   C13 3356   3.969   1.220   3.726 -0.3802  0.8079 -0.2785
   46CHL1   C18 3357   3.842   1.134   3.754  0.0139  0.4966 -0.2574
   46CHL1  H18A 3358   3.773   1.114   3.669 -0.6333  3.0538 -0.3902
   46CHL1  H18B 3359   3.865   1.040   3.810 -2.7167  0.7782  1.5058
   46CHL1  H18C 3360   3.777   1.185   3.828 -0.0427 -1.3595  1.0387
   46CHL1   C12 3361   3.918   1.353   3.674 -0.5521  0.6676 -0.2262
   46CHL1  H12A 3362   3.846   1.402   3.744 -0.0083 -0.9408  1.5529
   46CHL1  H12B 3363   4.002   1.426   3.671  0.8043 -0.8503 -0.4736
   46CHL1   C11 3364   3.848   1.334   3.537  0.5102 -0.0312 -0.1176
   46CHL1  H11A 3365   3.766   1.260   3.549  1.7180 -1.5881 -1.0419
   46CHL1  H11B 3366   3.798   1.424   3.497 -0.2984 -0.4916 -0.1689
   46CHL1    C9 3367   3.942   1.275   3.428 -0.3450  0.2278 -0.3373
   46CHL1    H9 3368   4.014   1.359   3.414 -2.2232  2.0859  0.6576
   46CHL1   C10 3369   3.889   1.261   3.285 -0.7138 -0.2418  0.7364
   46CHL1   C19 3370   3.764   1.174   3.278  0.5142  0.4478  0.5035
   46CHL1  H19A 3371   3.783   1.073   3.319  0.3460 -0.2700 -1.0781
   46CHL1  H19B 3372   3.691   1.218   3.350  1.6613  2.7670  0.3694
   46CHL1  H19C 3373   3.709   1.162   3.181 -1.2826  0.3791  1.4825
   46CHL1    C1 3374   3.865   1.408   3.227 -0.0843 -0.7191  0.8522
   46CHL1   H1A 3375   3.794   1.472   3.284 -0.0127 -0.5748  0.7798
   46CHL1   H1B 3376   3.961   1.464   3.227  0.2510 -1.2827  1.0626
   46CHL1    C2 3377   3.814   1.407   3.080  0.3382 -0.0227 -0.1402
   46CHL1   H2A 3378   3.802   1.509   3.039 -1.7733 -0.7885 -1.6346
   46CHL1   H2B 3379   3.710   1.369   3.067  0.4876 -0.0794 -1.2386
   46CHL1   C20 3380   4.001   1.248   3.981  0.7863 -0.0482  0.2281
   46CHL1   H20 3381   3.913   1.180   3.992  0.2098  0.7551  0.6552
   46CHL1   C21 3382   3.970   1.399   3.992 -0.4768 -0.3227  0.0853
   46CHL1  H21A 3383   4.072   1.442   4.003 -0.4988  0.3431 -1.8920
   46CHL1  H21B 3384   3.915   1.426   4.085 -0.6061 -0.5856  0.0870
   46CHL1  H21C 3385   3.943   1.444   3.894  2.5653 -2.4464 -1.8842
   46CHL1   C22 3386   4.098   1.204   4.098  0.2791  0.3386  0.2961
   46CHL1  H22A 3387   4.138   1.101   4.107  1.3160  0.7958  1.1717
   46CHL1  H22B 3388   4.187   1.269   4.085 -1.7749  3.8505  2.0893
   46CHL1   C23 3389   4.058   1.240   4.242  0.1787  0.1802  0.9089
   46CHL1  H23A 3390   4.136   1.186   4.301  0.1912  0.3764  1.0716
   46CHL1  H23B 3391   4.056   1.348   4.265 -2.8910  1.0439 -2.4871
   46CHL1   C24 3392   3.913   1.182   4.276 -0.3820  0.0994 -0.4615
   46CHL1  H24A 3393   3.856   1.259   4.219  4.3749  3.2836 -1.5463
   46CHL1  H24B 3394   3.900   1.081   4.233 -3.1082 -0.7203  1.9324
   46CHL1   C25 3395   3.871   1.170   4.431 -0.0694 -0.6007  0.3412
   46CHL1   H25 3396   3.880   1.273   4.472  0.8952  0.1529 -1.6231
   46CHL1   C26 3397   3.716   1.151   4.440 -0.1596  0.4230 -0.1865
   46CHL1  H26A 3398   3.683   1.051   4.403 -2.7331  2.2097 -3.1550
   46CHL1  H26B 3399   3.680   1.163   4.545  0.7683 -3.3622  0.7160
   46CHL1  H26C 3400   3.675   1.227   4.371 -2.7339 -0.3729  0.3339
   46CHL1   C27 3401   3.948   1.056   4.493 -0.3568  0.2177 -0.1723
   46CHL1  H27A 3402   3.954   0.975   4.417 -0.4907  1.2852 -1.3748
   46CHL1  H27B 3403   4.052   1.082   4.523 -1.0351  0.6340  1.9280
   46CHL1  H27C 3404   3.890   1.019   4.580  2.6204 -0.1704  1.7911
   47CHL1    C3 3405   2.073   1.507   3.005  0.8687  0.0126  0.0646
   47CHL1    H3 3406   2.178   1.542   2.994  1.0420  0.1778  1.8370
   47CHL1    O3 3407   2.015   1.475   2.880  0.2194 -0.0782 -0.3180
   47CHL1   H3' 3408   1.927   1.440   2.892  0.1563  0.2324  0.1693
   47CHL1    C4 3409   2.071   1.379   3.102  0.5297  0.2446  0.4095
   47CHL1   H4A 3410   1.964   1.349   3.094  0.6578 -0.4656  1.2674
   47CHL1   H4B 3411   2.137   1.300   3.061 -0.2630  0.7986 -2.1523
   47CHL1    C5 3412   2.101   1.426   3.245 -0.1281 -0.0206  0.4135
   47CHL1    C6 3413   2.208   1.375   3.311 -0.2229 -0.2133 -0.2221
   47CHL1    H6 3414   2.273   1.301   3.262  0.8587  0.1861  0.5767
   47CHL1    C7 3415   2.237   1.394   3.458 -0.3987  0.4618 -0.1674
   47CHL1   H7A 3416   2.264   1.294   3.498  1.6842  0.1991 -2.0381
   47CHL1   H7B 3417   2.331   1.448   3.483 -0.5076  0.6817 -0.2327
   47CHL1    C8 3418   2.125   1.465   3.535 -0.4534  0.6478 -0.1583
   47CHL1    H8 3419   2.052   1.384   3.554  0.1052  0.5299  1.7907
   47CHL1   C14 3420   2.175   1.513   3.669  0.3250 -0.9023 -0.6530
   47CHL1   H14 3421   2.262   1.580   3.656  0.4214 -0.5271  1.5126
   47CHL1   C15 3422   2.232   1.407   3.768 -1.3740 -0.5269 -0.4540
   47CHL1  H15A 3423   2.155   1.326   3.773 -3.6186  1.4969  3.9891
   47CHL1  H15B 3424   2.328   1.370   3.727  0.5680  2.2898  1.2127
   47CHL1   C16 3425   2.249   1.493   3.894  0.0524 -0.2235 -0.0670
   47CHL1  H16A 3426   2.201   1.436   3.977 -0.0887  0.0562  0.0443
   47CHL1  H16B 3427   2.355   1.517   3.917 -0.0441 -0.2514  0.4250
   47CHL1   C17 3428   2.174   1.629   3.881  0.6285  1.1809  0.9946
   47CHL1   H17 3429   2.250   1.695   3.833  1.4471 -1.3675 -1.4425
   47CHL1   C13 3430   2.083   1.601   3.755  0.1246  0.5847  0.0210
   47CHL1   C18 3431   1.962   1.527   3.804  0.1159  0.0903 -0.8805
   47CHL1  H18A 3432   1.882   1.589   3.851  0.0336  0.3149 -1.3154
   47CHL1  H18B 3433   1.911   1.463   3.729  0.7172 -0.9592 -0.4179
   47CHL1  H18C 3434   1.988   1.461   3.890 -1.5398  0.0002 -0.4108
   47CHL1   C12 3435   2.041   1.715   3.668 -0.5232 -0.3840  0.0533
   47CHL1  H12A 3436   1.960   1.774   3.715 -0.0605 -0.0485  0.4520
   47CHL1  H12B 3437   2.124   1.785   3.642  0.3460 -1.1187  0.7456
   47CHL1   C11 3438   1.984   1.673   3.529  0.2820 -0.2477  0.6805
   47CHL1  H11A 3439   1.890   1.619   3.554 -0.3231 -0.4745 -1.8764
   47CHL1  H11B 3440   1.973   1.758   3.458 -0.2271 -0.5597  0.3751
   47CHL1    C9 3441   2.075   1.576   3.451  0.0390  0.1675 -0.0533
   47CHL1    H9 3442   2.170   1.627   3.428  1.7975 -2.1693  1.5947
   47CHL1   C10 3443   2.017   1.536   3.308  0.7637  0.1261  0.4798
   47CHL1   C19 3444   1.876   1.481   3.320 -0.5053 -0.0622 -0.3323
   47CHL1  H19A 3445   1.797   1.551   3.356  0.1627  0.1724  0.7213
   47CHL1  H19B 3446   1.839   1.446   3.221 -1.2244  2.3043 -0.9828
   47CHL1  H19C 3447   1.876   1.399   3.394 -2.3792  1.3920  1.3732
   47CHL1    C1 3448   2.025   1.653   3.207  0.0759 -0.2369 -0.2633
   47CHL1   H1A 3449   1.953   1.735   3.228 -1.4317 -1.7141  0.5987
   47CHL1   H1B 3450   2.132   1.683   3.199  0.3876 -1.7304 -3.2202
   47CHL1    C2 3451   1.985   1.621   3.063  0.3433 -0.3605 -0.0324
   47CHL1   H2A 3452   2.002   1.715   3.007 -0.0907 -0.1583  0.1663
   47CHL1   H2B 3453   1.878   1.591   3.056  0.3957 -0.6419  0.3462
   47CHL1   C20 3454   2.114   1.681   4.009  0.1806 -0.0850 -0.2206
   47CHL1   H20 3455   2.045   1.601   4.045  0.9981 -1.4127 -1.4808
   47CHL1   C21 3456   2.044   1.816   3.974 -0.1168 -0.4999  0.5424
   47CHL1  H21A 3457   1.998   1.865   4.063 -1.5173  0.1905 -0.5378
   47CHL1  H21B 3458   1.957   1.794   3.909 -0.0349  0.6667  0.0283
   47CHL1  H21C 3459   2.113   1.887   3.924 -1.5672  0.5891  0.0523
   47CHL1   C22 3460   2.213   1.705   4.124  0.4188  0.6000 -0.4403
   47CHL1  H22A 3461   2.249   1.601   4.142 -0.0323  0.7445  1.5259
   47CHL1  H22B 3462   2.303   1.766   4.102  0.7166  0.9308  1.4972
   47CHL1   C23 3463   2.157   1.760   4.249 -0.0104 -0.6131 -0.8295
   47CHL1  H23A 3464   2.139   1.870   4.240 -0.8690 -0.6939 -0.2575
   47CHL1  H23B 3465   2.070   1.706   4.290  0.0042  0.3794  0.5721
   47CHL1   C24 3466   2.266   1.755   4.362 -0.2050 -0.0201 -0.0530
   47CHL1  H24A 3467   2.361   1.804   4.331 -1.0953  1.5684 -0.4094
   47CHL1  H24B 3468   2.223   1.815   4.446 -0.0298  2.0051 -1.3424
   47CHL1   C25 3469   2.304   1.615   4.417 -0.2661 -0.3859 -0.1462
   47CHL1   H25 3470   2.359   1.561   4.336  0.0323 -0.2915 -0.0100
   47CHL1   C26 3471   2.403   1.632   4.538  0.3727  0.1639 -0.1093
   47CHL1  H26A 3472   2.444   1.531   4.559  0.3478  0.8565  4.1579
   47CHL1  H26B 3473   2.488   1.698   4.511  0.8107  0.0076  0.8319
   47CHL1  H26C 3474   2.349   1.664   4.630  3.0651  0.2743  1.5686
   47CHL1   C27 3475   2.180   1.540   4.468  0.3726  0.2320  0.3246
   47CHL1  H27A 3476   2.101   1.531   4.390  1.9232 -0.3633 -1.2355
   47CHL1  H27B 3477   2.211   1.438   4.499 -1.5032 -0.3683  0.3575
   47CHL1  H27C 3478   2.138   1.584   4.562 -2.2373 -0.6036 -0.3607
   48CHL1    C3 3479   3.568   5.273   3.216 -1.2245  0.3493 -0.3919
   48CHL1    H3 3480   3.644   5.350   3.241 -2.7954  1.2839  1.7775
   48CHL1    O3 3481   3.505   5.304   3.092  0.1918 -0.3810 -0.2296
   48CHL1   H3' 3482   3.413   5.279   3.097  0.2135 -0.4529 -0.1958
   48CHL1    C4 3483   3.638   5.137   3.200  0.4114 -0.6021 -1.2039
   48CHL1   H4A 3484   3.558   5.069   3.164  0.4912  0.1544 -2.9295
   48CHL1   H4B 3485   3.715   5.138   3.120  2.5397 -2.5968  0.6839
   48CHL1    C5 3486   3.692   5.085   3.333 -0.0480 -0.6060  0.7807
   48CHL1    C6 3487   3.817   5.038   3.353  0.3685  0.5242  0.5562
   48CHL1    H6 3488   3.885   5.040   3.267 -0.1515 -0.7959  0.0879
   48CHL1    C7 3489   3.872   4.993   3.481  0.0224  0.1013 -0.4189
   48CHL1   H7A 3490   3.936   4.902   3.480 -1.8179 -1.4030  2.6110
   48CHL1   H7B 3491   3.945   5.066   3.522  0.9041  0.0245 -1.8138
   48CHL1    C8 3492   3.773   4.980   3.597 -0.2424  0.0861  0.3119
   48CHL1    H8 3493   3.730   4.879   3.578  1.1294 -0.4248 -0.2126
   48CHL1   C14 3494   3.848   4.970   3.726  0.6577  0.3171  0.1935
   48CHL1   H14 3495   3.896   5.069   3.743 -0.9424  1.3457 -0.9774
   48CHL1   C15 3496   3.956   4.862   3.741  0.0983  0.1969  0.0940
   48CHL1  H15A 3497   3.906   4.766   3.718 -0.7069  0.2810  1.3986
   48CHL1  H15B 3498   4.048   4.869   3.678 -0.3464 -0.6986 -0.6768
   48CHL1   C16 3499   3.984   4.854   3.892 -0.0470 -0.3471  0.7360
   48CHL1  H16A 3500   3.981   4.745   3.910  2.2835 -0.9784 -1.9303
   48CHL1  H16B 3501   4.084   4.896   3.917 -0.3036  0.1408  0.9546
   48CHL1   C17 3502   3.865   4.923   3.962  0.1378 -0.3586  0.2699
   48CHL1   H17 3503   3.904   5.023   3.989 -1.7733  1.1547 -2.1094
   48CHL1   C13 3504   3.758   4.952   3.848  0.0443  0.1020  0.0862
   48CHL1   C18 3505   3.669   4.827   3.839 -0.2167 -1.6386 -0.1889
   48CHL1  H18A 3506   3.608   4.832   3.747  0.3915  0.3890 -0.5265
   48CHL1  H18B 3507   3.731   4.735   3.831 -0.3198 -1.5804 -2.0249
   48CHL1  H18C 3508   3.597   4.820   3.923  2.0485 -1.2602  1.9229
   48CHL1   C12 3509   3.668   5.073   3.861 -0.1970 -0.4286  0.3520
   48CHL1  H12A 3510   3.606   5.063   3.953  0.3337 -0.9620  0.6541
   48CHL1  H12B 3511   3.733   5.161   3.882  0.6018 -0.9167 -0.0355
   48CHL1   C11 3512   3.585   5.099   3.731  0.0612  1.1007  0.4520
   48CHL1  H11A 3513   3.509   5.021   3.709  0.8537  0.3262  0.3946
   48CHL1  H11B 3514   3.535   5.198   3.739 -2.7578 -0.2040 -0.0368
   48CHL1    C9 3515   3.673   5.086   3.596  0.6507  0.5978 -0.0077
   48CHL1    H9 3516   3.739   5.176   3.603  1.8359 -0.2190 -0.4163
   48CHL1   C10 3517   3.596   5.102   3.464  0.1952  0.2365  0.3482
   48CHL1   C19 3518   3.498   4.982   3.453  0.2044  0.6741  0.7223
   48CHL1  H19A 3519   3.404   4.999   3.511 -0.9222 -1.2253 -0.4518
   48CHL1  H19B 3520   3.457   4.971   3.351  0.2553  1.2679  0.6351
   48CHL1  H19C 3521   3.542   4.890   3.497 -1.9471  0.1897  2.0412
   48CHL1    C1 3522   3.529   5.243   3.463  0.3373  0.2176  0.3299
   48CHL1   H1A 3523   3.452   5.243   3.543 -1.2922 -2.1850 -1.1186
   48CHL1   H1B 3524   3.601   5.327   3.471  0.3958  0.3340 -1.1087
   48CHL1    C2 3525   3.463   5.272   3.323  0.1314 -0.0636  0.5166
   48CHL1   H2A 3526   3.411   5.369   3.337  1.6724  0.9298 -0.3574
   48CHL1   H2B 3527   3.386   5.199   3.291  0.2765 -0.1363  0.3277
   48CHL1   C20 3528   3.826   4.853   4.088 -0.0759  0.3748 -0.7195
   48CHL1   H20 3529   3.782   4.754   4.063  1.4540 -0.3928 -0.5542
   48CHL1   C21 3530   3.712   4.922   4.160 -0.4177  1.2706 -0.3293
   48CHL1  H21A 3531   3.701   4.893   4.267  0.1977 -0.6181 -0.7406
   48CHL1  H21B 3532   3.612   4.903   4.117 -0.3582  0.6553 -0.2074
   48CHL1  H21C 3533   3.740   5.030   4.159  2.3327  0.6579  0.2377
   48CHL1   C22 3534   3.946   4.834   4.188  0.0708 -0.0869  0.4644
   48CHL1  H22A 3535   3.900   4.788   4.278 -1.4745  0.1161 -0.1810
   48CHL1  H22B 3536   4.018   4.764   4.140  0.7313  0.7180  0.2542
   48CHL1   C23 3537   4.020   4.962   4.239 -0.0620  0.8245  0.2008
   48CHL1  H23A 3538   4.060   5.013   4.149 -0.9097 -0.8957 -1.1966
   48CHL1  H23B 3539   3.949   5.037   4.279  0.0513  1.3169 -0.4908
   48CHL1   C24 3540   4.130   4.936   4.344 -0.4194  0.0418  0.3416
   48CHL1  H24A 3541   4.163   5.034   4.383  0.1576  0.0991 -0.2865
   48CHL1  H24B 3542   4.095   4.874   4.429 -1.0942  1.6545  1.2851
   48CHL1   C25 3543   4.258   4.860   4.296 -0.3276 -0.0928 -0.0791
   48CHL1   H25 3544   4.244   4.749   4.298 -0.2611 -0.0910  0.9395
   48CHL1   C26 3545   4.304   4.902   4.157  0.3686 -0.4623 -0.4193
   48CHL1  H26A 3546   4.329   5.010   4.143  0.5888 -0.2720  1.2211
   48CHL1  H26B 3547   4.395   4.842   4.134  0.1219 -1.0388  0.1055
   48CHL1  H26C 3548   4.235   4.875   4.074 -0.9756  2.0453 -0.2137
   48CHL1   C27 3549   4.371   4.898   4.390  0.4256 -0.5213  0.5251
   48CHL1  H27A 3550   4.457   4.828   4.379  0.4546 -0.5808  1.0996
   48CHL1  H27B 3551   4.391   5.007   4.379 -0.4402  0.1545  4.2801
   48CHL1  H27C 3552   4.339   4.880   4.494  0.9664  0.4785  0.8739
   49CHL1    C3 3553   6.522   0.075   2.827 -0.0378 -0.4604  0.1973
   49CHL1    H3 3554   6.627   0.095   2.797 -0.3338  1.6829  0.4677
   49CHL1    O3 3555   6.445   0.054   2.709  0.4576  0.2819 -0.0237
   49CHL1   H3' 3556   6.427   0.144   2.680 -0.7778  0.1263  0.2164
   49CHL1    C4 3557   6.522  -0.056   2.899  0.3536 -0.2764 -0.4221
   49CHL1   H4A 3558   6.418  -0.095   2.893 -0.0901  0.7535  0.3526
   49CHL1   H4B 3559   6.587  -0.129   2.846 -0.1461 -0.7965 -0.3332
   49CHL1    C5 3560   6.566  -0.051   3.044 -0.4286  0.5399  0.3625
   49CHL1    C6 3561   6.668  -0.131   3.094 -0.5681 -0.3530 -0.0680
   49CHL1    H6 3562   6.713  -0.204   3.026  1.8940  0.9971 -0.0041
   49CHL1    C7 3563   6.707  -0.136   3.243 -0.3302  0.4707 -0.0799
   49CHL1   H7A 3564   6.735  -0.242   3.262 -2.5043 -0.7413 -2.7399
   49CHL1   H7B 3565   6.799  -0.080   3.268 -1.6479  2.6551  0.1120
   49CHL1    C8 3566   6.614  -0.064   3.341 -0.1645 -0.0767 -0.0293
   49CHL1    H8 3567   6.521  -0.123   3.354  1.3091 -2.5915 -0.3073
   49CHL1   C14 3568   6.675  -0.028   3.481 -0.0915 -0.2573 -0.0237
   49CHL1   H14 3569   6.773   0.020   3.461  0.1799  0.4644  2.6428
   49CHL1   C15 3570   6.727  -0.147   3.562  0.4068  0.9767  0.4676
   49CHL1  H15A 3571   6.668  -0.240   3.567 -0.2252  1.3868  0.7727
   49CHL1  H15B 3572   6.825  -0.181   3.521  0.6251  3.2727 -1.1186
   49CHL1   C16 3573   6.735  -0.096   3.706 -0.2811 -0.3342  0.3079
   49CHL1  H16A 3574   6.666  -0.156   3.768 -2.0208 -0.4581 -1.6212
   49CHL1  H16B 3575   6.840  -0.092   3.743  0.4002  3.9791 -1.4734
   49CHL1   C17 3576   6.676   0.049   3.712  0.3791  0.7996  0.5790
   49CHL1   H17 3577   6.768   0.110   3.696  0.9642 -0.5999 -1.9218
   49CHL1   C13 3578   6.597   0.065   3.575  0.3105 -0.0078 -0.2969
   49CHL1   C18 3579   6.453  -0.006   3.590 -0.2683  0.5241 -0.0244
   49CHL1  H18A 3580   6.391   0.061   3.654 -0.5611 -0.9624  1.3181
   49CHL1  H18B 3581   6.402  -0.021   3.493  0.0654  2.2654 -0.5185
   49CHL1  H18C 3582   6.454  -0.098   3.652 -2.3435  2.8715  3.9523
   49CHL1   C12 3583   6.591   0.199   3.506 -0.4019  0.3884  0.1710
   49CHL1  H12A 3584   6.528   0.276   3.555 -2.2183 -0.2512 -1.0550
   49CHL1  H12B 3585   6.693   0.243   3.499 -0.7095  1.5951  2.4244
   49CHL1   C11 3586   6.516   0.176   3.365  0.0730 -0.1229  0.0769
   49CHL1  H11A 3587   6.411   0.148   3.387 -0.4120  2.0552  0.7565
   49CHL1  H11B 3588   6.502   0.273   3.313 -0.1429 -0.8875 -1.3329
   49CHL1    C9 3589   6.584   0.066   3.273  0.1050 -0.0002 -0.5369
   49CHL1    H9 3590   6.682   0.116   3.257 -1.1155  2.4972 -0.7187
   49CHL1   C10 3591   6.507   0.054   3.138  0.3409  0.1609  0.8330
   49CHL1   C19 3592   6.365   0.010   3.177  0.5273  0.2100  0.2759
   49CHL1  H19A 3593   6.312   0.099   3.216 -1.9596 -1.1182  0.1227
   49CHL1  H19B 3594   6.314  -0.023   3.084  2.4656 -0.5691 -0.5667
   49CHL1  H19C 3595   6.358  -0.078   3.246  0.1569 -1.0001 -1.2444
   49CHL1    C1 3596   6.516   0.183   3.055 -0.2622 -0.4116 -0.2217
   49CHL1   H1A 3597   6.454   0.253   3.115  0.8574  0.2896  0.1439
   49CHL1   H1B 3598   6.621   0.220   3.060 -0.1334 -0.8922  0.8936
   49CHL1    C2 3599   6.456   0.177   2.915  0.5828  0.7069 -0.5424
   49CHL1   H2A 3600   6.468   0.274   2.862  2.6430  0.6748 -0.2295
   49CHL1   H2B 3601   6.347   0.159   2.931  0.9625  0.1466  1.8141
   49CHL1   C20 3602   6.611   0.108   3.839  0.3196  0.7569 -0.2350
   49CHL1   H20 3603   6.531   0.038   3.871  1.3947  0.3784  1.8031
   49CHL1   C21 3604   6.556   0.250   3.814  0.2579  0.5311 -0.9435
   49CHL1  H21A 3605   6.511   0.296   3.905  1.7366  2.9582 -1.3464
   49CHL1  H21B 3606   6.468   0.243   3.746  0.1746  2.1728 -1.0357
   49CHL1  H21C 3607   6.628   0.327   3.781  0.9956  0.7896  1.1272
   49CHL1   C22 3608   6.712   0.104   3.956  0.3294 -0.7163  0.4040
   49CHL1  H22A 3609   6.764   0.006   3.946  1.5828  0.2006 -3.5419
   49CHL1  H22B 3610   6.789   0.182   3.943  0.3806 -0.7094  0.7268
   49CHL1   C23 3611   6.648   0.124   4.092  0.7204  0.1196 -0.0719
   49CHL1  H23A 3612   6.649   0.228   4.130 -0.2248 -0.6907  2.3157
   49CHL1  H23B 3613   6.546   0.080   4.100  1.0378 -0.8587 -1.0601
   49CHL1   C24 3614   6.730   0.052   4.205 -0.0073 -0.5368  0.3516
   49CHL1  H24A 3615   6.737  -0.059   4.211 -0.4844 -0.5444  0.8747
   49CHL1  H24B 3616   6.832   0.094   4.194  0.5902 -2.0543 -0.2049
   49CHL1   C25 3617   6.667   0.108   4.340 -0.7196  0.5843 -0.2887
   49CHL1   H25 3618   6.666   0.218   4.331 -1.4676  0.5506 -0.7116
   49CHL1   C26 3619   6.530   0.075   4.376 -0.0660  0.4312  0.4845
   49CHL1  H26A 3620   6.511  -0.033   4.366 -0.0290  0.6056 -2.0089
   49CHL1  H26B 3621   6.512   0.094   4.484  0.6844  0.5471  0.5960
   49CHL1  H26C 3622   6.459   0.125   4.308 -1.8488 -1.6652  0.7113
   49CHL1   C27 3623   6.750   0.053   4.462  0.1118  0.3083  0.2975
   49CHL1  H27A 3624   6.856   0.067   4.432 -0.6423  1.4989 -1.9638
   49CHL1  H27B 3625   6.734   0.113   4.554  1.3679 -1.2968  1.6260
   49CHL1  H27C 3626   6.723  -0.052   4.487  3.5099 -0.6925  0.2842
   50CHL1    C3 3627   4.998   0.607   3.041  0.5163  0.8708 -0.0637
   50CHL1    H3 3628   4.934   0.527   3.083 -1.1521  1.9836 -0.4024
   50CHL1    O3 3629   4.989   0.615   2.898  0.1514  0.7115 -0.2517
   50CHL1   H3' 3630   5.054   0.676   2.864  0.0598  1.4382  0.8168
   50CHL1    C4 3631   4.970   0.749   3.105  0.0220 -1.1069 -0.5750
   50CHL1   H4A 3632   5.032   0.824   3.052 -1.0973  0.9463  0.9095
   50CHL1   H4B 3633   4.865   0.763   3.073 -0.5811 -3.0055  0.4204
   50CHL1    C5 3634   5.002   0.746   3.249  0.2604 -0.1222 -0.8090
   50CHL1    C6 3635   4.908   0.775   3.348  0.6342 -0.7563 -0.5448
   50CHL1    H6 3636   4.806   0.811   3.327 -0.1681 -2.9084 -0.5841
   50CHL1    C7 3637   4.937   0.760   3.495 -0.0103  0.4244  0.4064
   50CHL1   H7A 3638   4.890   0.849   3.543 -0.6003  0.1833  0.2903
   50CHL1   H7B 3639   4.894   0.664   3.530  1.1654 -0.9467 -1.6870
   50CHL1    C8 3640   5.083   0.753   3.540 -0.3339  0.1258 -0.0765
   50CHL1    H8 3641   5.126   0.855   3.530  1.3181 -0.3276  1.7418
   50CHL1   C14 3642   5.100   0.716   3.690 -0.4477  0.6578  0.5088
   50CHL1   H14 3643   5.063   0.612   3.707 -1.0740  0.8025  0.0578
   50CHL1   C15 3644   5.035   0.802   3.794 -0.4789  0.2619  0.4846
   50CHL1  H15A 3645   5.043   0.905   3.752 -2.7604 -0.5898 -2.4587
   50CHL1  H15B 3646   4.929   0.772   3.809  0.4803 -3.1867  1.1779
   50CHL1   C16 3647   5.121   0.769   3.922 -0.3345  0.8909 -0.6391
   50CHL1  H16A 3648   5.166   0.869   3.940  1.6894 -0.2082  0.7157
   50CHL1  H16B 3649   5.070   0.733   4.014  2.8514  2.2555  1.8710
   50CHL1   C17 3650   5.238   0.669   3.879  0.3314 -0.2508 -0.1977
   50CHL1   H17 3651   5.198   0.565   3.888 -1.7669  0.2247 -2.6980
   50CHL1   C13 3652   5.251   0.702   3.728  0.4362  0.2926 -0.6786
   50CHL1   C18 3653   5.329   0.832   3.711 -0.1753 -1.1114  0.2068
   50CHL1  H18A 3654   5.303   0.882   3.616  0.0507 -0.2879  0.5718
   50CHL1  H18B 3655   5.301   0.902   3.793  2.1025  1.0903 -0.7772
   50CHL1  H18C 3656   5.439   0.821   3.699 -0.0235  2.1317 -3.1633
   50CHL1   C12 3657   5.317   0.602   3.639  0.1842  0.1071  0.2939
   50CHL1  H12A 3658   5.427   0.590   3.653  0.8650  2.7575 -1.9914
   50CHL1  H12B 3659   5.263   0.507   3.661 -0.3339  0.3891  0.2424
   50CHL1   C11 3660   5.307   0.627   3.486  1.2636 -0.1329  0.6579
   50CHL1  H11A 3661   5.369   0.717   3.464 -0.1815  0.3653 -1.8639
   50CHL1  H11B 3662   5.342   0.533   3.439 -3.2118 -2.1930  0.9220
   50CHL1    C9 3663   5.158   0.660   3.446  0.1929 -0.2310  0.7529
   50CHL1    H9 3664   5.098   0.567   3.447 -0.5813  0.2453 -0.0413
   50CHL1   C10 3665   5.147   0.693   3.293  0.5839 -0.5195 -0.3875
   50CHL1   C19 3666   5.254   0.798   3.258 -0.7221  0.1799  0.0501
   50CHL1  H19A 3667   5.235   0.848   3.161  0.8728  1.2889  0.2595
   50CHL1  H19B 3668   5.233   0.885   3.323  0.6310  0.7606 -0.2408
   50CHL1  H19C 3669   5.361   0.769   3.264 -0.4051  1.3873  0.4391
   50CHL1    C1 3670   5.161   0.562   3.213 -0.3600  0.2496  0.1105
   50CHL1   H1A 3671   5.261   0.516   3.227 -0.7963 -0.7477 -0.0045
   50CHL1   H1B 3672   5.088   0.489   3.252  0.7452  0.2342  2.2986
   50CHL1    C2 3673   5.144   0.565   3.063 -0.2681 -0.9380 -0.4577
   50CHL1   H2A 3674   5.163   0.467   3.014 -0.2170 -0.7219 -0.8798
   50CHL1   H2B 3675   5.220   0.631   3.017  0.6310 -2.3291 -1.0229
   50CHL1   C20 3676   5.364   0.681   3.971 -1.2651  0.5879 -0.5463
   50CHL1   H20 3677   5.435   0.759   3.936 -0.3917  0.8371  1.6318
   50CHL1   C21 3678   5.447   0.549   3.949  0.2775 -0.3947  0.4224
   50CHL1  H21A 3679   5.389   0.455   3.960  0.7035 -0.7472 -0.2754
   50CHL1  H21B 3680   5.538   0.542   4.013 -1.4200 -1.4996  2.8928
   50CHL1  H21C 3681   5.484   0.555   3.844  0.1811  2.5059  0.4947
   50CHL1   C22 3682   5.337   0.705   4.122 -0.7327  0.6845 -0.9935
   50CHL1  H22A 3683   5.297   0.808   4.133 -0.9218  0.8072 -2.6043
   50CHL1  H22B 3684   5.264   0.632   4.162  0.8395  1.1112  3.1950
   50CHL1   C23 3685   5.455   0.696   4.225  0.3235 -0.0367  0.0247
   50CHL1  H23A 3686   5.495   0.593   4.237 -0.4967 -0.3355  0.2891
   50CHL1  H23B 3687   5.544   0.760   4.208  0.3569  0.1720  0.9195
   50CHL1   C24 3688   5.411   0.738   4.369 -1.0228 -0.1614  0.3518
   50CHL1  H24A 3689   5.398   0.848   4.362 -0.0414 -0.1380 -1.9122
   50CHL1  H24B 3690   5.317   0.681   4.383 -0.6902 -1.0571 -0.9516
   50CHL1   C25 3691   5.508   0.706   4.481  0.1695  0.1703  0.1408
   50CHL1   H25 3692   5.532   0.600   4.459 -0.1259  0.6179 -2.7671
   50CHL1   C26 3693   5.623   0.807   4.473 -0.4220  0.1961 -0.0878
   50CHL1  H26A 3694   5.706   0.777   4.540 -1.4778 -2.6882  0.0687
   50CHL1  H26B 3695   5.651   0.820   4.366  0.8011 -0.5333  0.1359
   50CHL1  H26C 3696   5.602   0.911   4.506  0.6167  0.3092  0.2221
   50CHL1   C27 3697   5.449   0.699   4.627  0.1567 -0.1615  0.4750
   50CHL1  H27A 3698   5.528   0.686   4.705  0.8412  0.9441 -0.0227
   50CHL1  H27B 3699   5.390   0.789   4.651 -2.5696 -1.9661  1.0218
   50CHL1  H27C 3700   5.376   0.616   4.638  1.4522 -1.4989 -0.5463
   51CHL1    C3 3701   0.068   0.846   2.605  0.5311  0.7566  0.2188
   51CHL1    H3 3702   0.139   0.921   2.644 -0.0684  0.9181  1.0366
   51CHL1    O3 3703   0.057   0.857   2.467  0.1646  0.4659  0.2093
   51CHL1   H3' 3704   0.000   0.932   2.449 -0.0045  0.9152  2.3333
   51CHL1    C4 3705   0.113   0.703   2.651 -0.3914 -0.1691 -0.5091
   51CHL1   H4A 3706   0.026   0.650   2.605 -0.2680  0.4521 -1.4886
   51CHL1   H4B 3707   0.209   0.674   2.603  1.3892 -0.8474  3.1633
   51CHL1    C5 3708   0.116   0.698   2.801  0.2440  0.2373  0.6756
   51CHL1    C6 3709   0.234   0.674   2.865  0.4768 -0.6795 -0.8616
   51CHL1    H6 3710   0.323   0.656   2.802  1.1871  0.2860 -0.1600
   51CHL1    C7 3711   0.257   0.672   3.012 -0.1952 -0.2092  0.3965
   51CHL1   H7A 3712   0.335   0.598   3.039  0.4408  0.1482 -0.3883
   51CHL1   H7B 3713   0.295   0.770   3.048  1.7897 -1.2905  1.4348
   51CHL1    C8 3714   0.125   0.657   3.091  0.7705  0.1409  0.0084
   51CHL1    H8 3715   0.091   0.552   3.079  1.7852 -0.1382 -0.4979
   51CHL1   C14 3716   0.141   0.691   3.242  0.2267  0.0002  1.1421
   51CHL1   H14 3717   0.163   0.800   3.238  0.2048 -0.0114 -1.8691
   51CHL1   C15 3718   0.265   0.644   3.319 -0.4529  0.2493 -0.1654
   51CHL1  H15A 3719   0.292   0.542   3.284 -1.8202  0.7687 -2.9797
   51CHL1  H15B 3720   0.350   0.711   3.297 -0.6593  0.4213 -0.4338
   51CHL1   C16 3721   0.224   0.640   3.467 -0.4183 -1.3417 -0.2754
   51CHL1  H16A 3722   0.220   0.535   3.501  0.1759 -1.1281  0.4971
   51CHL1  H16B 3723   0.291   0.700   3.533 -0.0346 -0.9161 -1.0365
   51CHL1   C17 3724   0.082   0.708   3.467 -0.7923  0.0685 -0.1437
   51CHL1   H17 3725   0.096   0.818   3.471  2.5481 -0.2820  1.3761
   51CHL1   C13 3726   0.023   0.667   3.333  0.2507  0.0319 -0.1787
   51CHL1   C18 3727  -0.019   0.518   3.339 -0.4627  0.6976 -0.0147
   51CHL1  H18A 3728  -0.107   0.506   3.406 -0.5228  2.5863  0.3022
   51CHL1  H18B 3729  -0.052   0.480   3.240 -1.9567 -1.8193  1.3515
   51CHL1  H18C 3730   0.066   0.449   3.360  0.0777  1.1747 -0.6128
   51CHL1   C12 3731  -0.083   0.765   3.271  0.3443 -0.3136 -0.2381
   51CHL1  H12A 3732  -0.173   0.750   3.335  0.8000  0.3695  0.5833
   51CHL1  H12B 3733  -0.040   0.864   3.297 -0.5405  0.0301 -0.0550
   51CHL1   C11 3734  -0.110   0.741   3.123  0.3649 -0.3348 -0.3366
   51CHL1  H11A 3735  -0.151   0.638   3.123  2.1579 -1.0826 -0.3024
   51CHL1  H11B 3736  -0.193   0.802   3.084  0.2659 -0.1709  0.1325
   51CHL1    C9 3737   0.021   0.753   3.033  0.3186 -0.4732  0.0303
   51CHL1    H9 3738   0.063   0.855   3.042 -1.1277  0.1186  0.2795
   51CHL1   C10 3739  -0.006   0.735   2.879  0.4621  0.2487 -0.0194
   51CHL1   C19 3740  -0.113   0.622   2.846  0.1571  0.6193  0.2382
   51CHL1  H19A 3741  -0.157   0.622   2.744 -0.5479 -0.5278  0.5185
   51CHL1  H19B 3742  -0.074   0.521   2.870 -1.0836  0.2570  0.8302
   51CHL1  H19C 3743  -0.196   0.645   2.916 -0.9970  0.7145 -1.1083
   51CHL1    C1 3744  -0.063   0.869   2.824 -0.7217  0.9471 -0.1155
   51CHL1   H1A 3745  -0.162   0.896   2.866 -0.5311  0.9638  0.3210
   51CHL1   H1B 3746   0.004   0.954   2.850 -1.0119  0.7610  1.3374
   51CHL1    C2 3747  -0.071   0.864   2.673  0.0459  0.1743 -0.3177
   51CHL1   H2A 3748  -0.110   0.963   2.642 -0.8330 -0.3094 -0.8095
   51CHL1   H2B 3749  -0.152   0.797   2.635 -1.2313  0.2454  2.0987
   51CHL1   C20 3750  -0.002   0.667   3.595 -0.0335  0.1265 -0.9049
   51CHL1   H20 3751  -0.027   0.560   3.588 -0.4638  0.3416 -3.2073
   51CHL1   C21 3752  -0.128   0.746   3.605 -0.1362 -0.1273  0.9259
   51CHL1  H21A 3753  -0.200   0.724   3.524  0.3027  2.6279 -0.2964
   51CHL1  H21B 3754  -0.103   0.854   3.594  1.6645 -0.6039 -0.0695
   51CHL1  H21C 3755  -0.184   0.723   3.699 -1.3350 -0.1578  0.2236
   51CHL1   C22 3756   0.079   0.686   3.727  0.1891 -0.3871  0.2927
   51CHL1  H22A 3757   0.190   0.683   3.722  0.1184 -2.5407 -2.4223
   51CHL1  H22B 3758   0.050   0.787   3.765  0.6316  0.3203 -1.1711
   51CHL1   C23 3759   0.035   0.583   3.832  0.2828  0.1550  0.0864
   51CHL1  H23A 3760  -0.068   0.552   3.803 -0.1700  2.4118 -0.9495
   51CHL1  H23B 3761   0.103   0.497   3.814  0.1919  0.1583 -0.2873
   51CHL1   C24 3762   0.040   0.641   3.975 -0.4348 -0.1952 -0.3097
   51CHL1  H24A 3763   0.139   0.689   3.991 -1.5004  1.3409  2.1362
   51CHL1  H24B 3764  -0.024   0.729   3.996  2.0070  2.1575 -2.0140
   51CHL1   C25 3765   0.034   0.531   4.086 -0.0387  0.1770 -0.0349
   51CHL1   H25 3766   0.050   0.431   4.039  0.1159 -1.2902  2.8935
   51CHL1   C26 3767   0.167   0.529   4.177 -0.5890 -0.0234 -0.3021
   51CHL1  H26A 3768   0.172   0.625   4.233  2.3418 -0.5280  0.4553
   51CHL1  H26B 3769   0.190   0.452   4.254 -0.6785  0.6310  0.3940
   51CHL1  H26C 3770   0.253   0.529   4.106  2.7659 -1.7389  3.3641
   51CHL1   C27 3771  -0.091   0.544   4.165  0.5697 -0.8760 -0.0197
   51CHL1  H27A 3772  -0.181   0.540   4.100  1.1041  1.0183 -0.9353
   51CHL1  H27B 3773  -0.099   0.450   4.223  0.0324 -1.4443 -0.9865
   51CHL1  H27C 3774  -0.099   0.637   4.225 -1.4466  0.4791 -2.1946
   52CHL1    C3 3775   6.578   3.058   2.688  0.0247  0.3137 -1.2171
   52CHL1    H3 3776   6.498   3.136   2.685 -0.5606 -0.3116 -2.3118
   52CHL1    O3 3777   6.642   3.055   2.563  0.2520 -0.0577  0.0399
   52CHL1   H3' 3778   6.726   3.008   2.563  0.7005  0.7154 -0.7668
   52CHL1    C4 3779   6.685   3.083   2.792 -0.6379  0.5570 -0.0779
   52CHL1   H4A 3780   6.770   3.011   2.793 -1.5024 -0.4974  1.5163
   52CHL1   H4B 3781   6.739   3.177   2.768  4.0580 -1.3058  2.0856
   52CHL1    C5 3782   6.627   3.090   2.931 -0.0731  0.3100  0.4623
   52CHL1    C6 3783   6.647   3.192   3.015  0.0678 -0.1685  0.2486
   52CHL1    H6 3784   6.699   3.283   2.981 -0.0604  0.0876  0.7314
   52CHL1    C7 3785   6.589   3.210   3.150  0.0501  0.3954 -0.1110
   52CHL1   H7A 3786   6.665   3.235   3.227 -0.3451 -0.5386  0.6001
   52CHL1   H7B 3787   6.511   3.289   3.158 -2.1579 -1.7881  1.4507
   52CHL1    C8 3788   6.520   3.085   3.205  0.4263  0.1500 -0.1657
   52CHL1    H8 3789   6.600   3.022   3.250 -0.0266 -0.1471  0.2360
   52CHL1   C14 3790   6.428   3.108   3.324 -0.8842  0.0825  0.1984
   52CHL1   H14 3791   6.345   3.160   3.271  0.5325  1.6917 -0.5527
   52CHL1   C15 3792   6.461   3.207   3.435 -0.1114 -0.0111 -0.1299
   52CHL1  H15A 3793   6.562   3.203   3.483 -1.9322 -0.2500  4.1838
   52CHL1  H15B 3794   6.442   3.313   3.409 -1.7545 -0.2400  0.0661
   52CHL1   C16 3795   6.378   3.159   3.561 -0.5006  0.5185  0.1791
   52CHL1  H16A 3796   6.447   3.134   3.645 -1.3887  0.6124  0.9481
   52CHL1  H16B 3797   6.320   3.246   3.597 -0.9548  0.7077 -0.9605
   52CHL1   C17 3798   6.281   3.044   3.498 -0.1236  0.3583 -0.2913
   52CHL1   H17 3799   6.204   3.100   3.441  0.0356  0.7742 -0.1001
   52CHL1   C13 3800   6.366   2.982   3.386 -0.2865  0.3488 -0.8615
   52CHL1   C18 3801   6.474   2.901   3.456 -0.0225 -0.6374 -0.3768
   52CHL1  H18A 3802   6.556   2.877   3.385  0.4833  1.2603 -0.4773
   52CHL1  H18B 3803   6.528   2.948   3.541  0.8083 -1.8512 -0.2049
   52CHL1  H18C 3804   6.438   2.799   3.481 -0.7991 -0.4325 -0.6462
   52CHL1   C12 3805   6.293   2.896   3.278 -0.5470 -0.6211  0.3974
   52CHL1  H12A 3806   6.254   2.807   3.331 -1.9634 -0.6067 -0.5661
   52CHL1  H12B 3807   6.215   2.962   3.234  0.8061  1.4199  0.8980
   52CHL1   C11 3808   6.396   2.862   3.167  0.6477  0.1724  0.3058
   52CHL1  H11A 3809   6.485   2.810   3.208  1.3812  1.3564  0.2616
   52CHL1  H11B 3810   6.334   2.814   3.088  0.9581  1.5904 -0.8396
   52CHL1    C9 3811   6.454   2.997   3.098  0.5652  0.1416 -0.1125
   52CHL1    H9 3812   6.366   3.052   3.059  0.6144 -0.2833 -0.8435
   52CHL1   C10 3813   6.538   2.965   2.971 -0.0551 -0.8914 -0.2809
   52CHL1   C19 3814   6.635   2.850   3.005  0.1738  0.3172 -0.1064
   52CHL1  H19A 3815   6.700   2.872   3.092 -2.9082  0.2048  2.4233
   52CHL1  H19B 3816   6.570   2.764   3.033  0.2096  1.0995  2.6842
   52CHL1  H19C 3817   6.696   2.828   2.915  0.7056 -0.5228  0.4433
   52CHL1    C1 3818   6.444   2.918   2.852  0.4985 -0.0832  0.5968
   52CHL1   H1A 3819   6.413   2.812   2.858 -3.3577  0.7893 -0.9468
   52CHL1   H1B 3820   6.352   2.980   2.846  0.7833  0.3223  0.3217
   52CHL1    C2 3821   6.516   2.920   2.717 -0.1337  0.7066 -0.3096
   52CHL1   H2A 3822   6.452   2.879   2.636 -0.7109  0.5915  0.1965
   52CHL1   H2B 3823   6.599   2.848   2.735  1.4705  2.6479  0.4471
   52CHL1   C20 3824   6.204   2.960   3.598  0.4615  0.4075  0.7706
   52CHL1   H20 3825   6.257   2.866   3.626 -0.2563  0.3630  2.0630
   52CHL1   C21 3826   6.070   2.932   3.532  1.1358  0.8400 -0.1215
   52CHL1  H21A 3827   6.004   3.021   3.539 -1.0441 -0.6419 -0.8322
   52CHL1  H21B 3828   6.014   2.849   3.580 -1.4197  1.7162 -1.4192
   52CHL1  H21C 3829   6.075   2.912   3.423  0.0351 -1.6264  0.2074
   52CHL1   C22 3830   6.177   3.033   3.726  0.8195 -0.7198 -0.7061
   52CHL1  H22A 3831   6.272   3.032   3.783 -0.0447 -0.2981  0.7739
   52CHL1  H22B 3832   6.161   3.139   3.695 -1.0816 -0.9074 -0.4660
   52CHL1   C23 3833   6.057   2.985   3.813 -0.8021 -0.2516 -0.1070
   52CHL1  H23A 3834   5.956   3.001   3.770  0.1484  0.2371 -2.2914
   52CHL1  H23B 3835   6.088   2.879   3.827  0.7309 -0.2135 -2.5567
   52CHL1   C24 3836   6.056   3.058   3.945 -0.1876 -0.5240 -0.4047
   52CHL1  H24A 3837   6.157   3.068   3.990 -0.1581  1.6794 -0.8546
   52CHL1  H24B 3838   6.028   3.163   3.922  2.2138 -0.2860 -2.6978
   52CHL1   C25 3839   5.963   2.995   4.061  0.7148  0.1938  0.2286
   52CHL1   H25 3840   5.977   2.886   4.052  2.7289  0.2672  1.8009
   52CHL1   C26 3841   6.011   3.031   4.203  0.7467 -0.5121 -0.6888
   52CHL1  H26A 3842   6.006   3.142   4.213  0.2905 -0.5921  0.0507
   52CHL1  H26B 3843   5.940   2.982   4.273  0.6852 -1.9598 -1.7217
   52CHL1  H26C 3844   6.116   3.002   4.229  1.6341  1.8043 -1.4378
   52CHL1   C27 3845   5.810   3.022   4.043 -0.7425  0.6072 -0.4894
   52CHL1  H27A 3846   5.749   2.973   4.121 -0.5690  1.5305  0.2401
   52CHL1  H27B 3847   5.786   3.131   4.047 -1.8516  0.3719 -0.5068
   52CHL1  H27C 3848   5.776   3.001   3.939 -0.7687  0.1127 -0.3812
   53CHL1    C3 3849   2.724   0.385   3.169 -0.7112  0.0784  0.0315
   53CHL1    H3 3850   2.618   0.388   3.203 -0.6515 -3.0977  0.8362
   53CHL1    O3 3851   2.726   0.401   3.027  0.5434  0.1098 -0.5852
   53CHL1   H3' 3852   2.818   0.421   3.008  0.7852 -0.2337  0.1690
   53CHL1    C4 3853   2.812   0.493   3.239 -0.0373  0.3727 -0.2728
   53CHL1   H4A 3854   2.918   0.479   3.211 -0.1625 -0.1693 -0.4851
   53CHL1   H4B 3855   2.792   0.597   3.206  0.2218 -0.0677 -1.9195
   53CHL1    C5 3856   2.779   0.471   3.390 -0.5743  0.5235  0.3131
   53CHL1    C6 3857   2.732   0.567   3.468 -0.1530 -0.2966 -0.8786
   53CHL1    H6 3858   2.703   0.668   3.436 -0.0282  0.2126  0.5158
   53CHL1    C7 3859   2.711   0.548   3.617  0.0358  0.5348 -0.1272
   53CHL1   H7A 3860   2.727   0.641   3.675  2.2162 -1.4407  2.6884
   53CHL1   H7B 3861   2.604   0.524   3.635  0.1561 -1.6276 -1.7844
   53CHL1    C8 3862   2.796   0.436   3.674  0.0544  0.1539  0.0844
   53CHL1    H8 3863   2.906   0.454   3.677  0.6881 -2.5265 -2.5742
   53CHL1   C14 3864   2.743   0.402   3.815  0.3107 -0.1777  0.0935
   53CHL1   H14 3865   2.636   0.380   3.794  0.4226 -0.1029 -0.5800
   53CHL1   C15 3866   2.723   0.518   3.915  0.0393  1.0598  0.1903
   53CHL1  H15A 3867   2.814   0.581   3.905  1.9398 -1.5526 -0.1366
   53CHL1  H15B 3868   2.630   0.571   3.885 -0.0968  0.9636  0.4364
   53CHL1   C16 3869   2.709   0.440   4.046  0.6493  0.0212 -0.8478
   53CHL1  H16A 3870   2.791   0.482   4.108  0.8769 -0.6858 -0.6675
   53CHL1  H16B 3871   2.609   0.458   4.092 -0.0895 -0.1152 -2.3368
   53CHL1   C17 3872   2.728   0.286   4.015 -0.1365  0.2623 -0.2697
   53CHL1   H17 3873   2.624   0.253   3.996 -0.1456  0.0106  0.2142
   53CHL1   C13 3874   2.804   0.278   3.876  0.5253  0.0201 -0.3192
   53CHL1   C18 3875   2.954   0.307   3.907 -0.4445 -0.8495  0.2247
   53CHL1  H18A 3876   2.967   0.409   3.948 -0.1264 -0.9976  0.5045
   53CHL1  H18B 3877   2.996   0.236   3.982  0.5888  1.7451  2.2484
   53CHL1  H18C 3878   3.013   0.294   3.813 -1.7910  0.1490 -0.8053
   53CHL1   C12 3879   2.781   0.156   3.794  0.2276 -1.1064 -0.0303
   53CHL1  H12A 3880   2.849   0.082   3.841  1.4395  1.1182  1.9329
   53CHL1  H12B 3881   2.675   0.124   3.799  0.2703 -1.1142  1.1026
   53CHL1   C11 3882   2.830   0.173   3.650 -0.3891 -0.2838  0.5150
   53CHL1  H11A 3883   2.941   0.173   3.654 -0.3511 -0.2864 -0.4659
   53CHL1  H11B 3884   2.780   0.093   3.592 -1.8208 -0.3761  1.8290
   53CHL1    C9 3885   2.776   0.312   3.591  0.2902 -0.2983  0.1877
   53CHL1    H9 3886   2.666   0.298   3.586  0.4045 -0.7672 -2.9615
   53CHL1   C10 3887   2.820   0.333   3.443  0.4397 -0.6533  0.3544
   53CHL1   C19 3888   2.972   0.313   3.430  0.7715 -0.2310  0.4639
   53CHL1  H19A 3889   3.012   0.326   3.328  1.2888 -0.6165  0.6128
   53CHL1  H19B 3890   3.031   0.386   3.490 -0.6359  0.5340  0.9772
   53CHL1  H19C 3891   3.002   0.208   3.450 -0.2171 -0.7270 -0.5301
   53CHL1    C1 3892   2.755   0.226   3.357 -0.3639  0.3321 -0.2601
   53CHL1   H1A 3893   2.803   0.130   3.386  0.1943  1.0350  1.2929
   53CHL1   H1B 3894   2.652   0.212   3.396 -0.0431 -1.0965  0.1502
   53CHL1    C2 3895   2.772   0.248   3.212  0.4602  0.2731  0.6879
   53CHL1   H2A 3896   2.701   0.179   3.161  0.3723  0.7893  0.0998
   53CHL1   H2B 3897   2.872   0.227   3.168 -0.0299  1.5657 -1.1510
   53CHL1   C20 3898   2.763   0.203   4.138 -0.1732  0.1768 -0.3828
   53CHL1   H20 3899   2.864   0.235   4.172 -0.3338 -0.3492  0.6251
   53CHL1   C21 3900   2.752   0.049   4.116 -0.3586  0.2213 -0.3021
   53CHL1  H21A 3901   2.649   0.009   4.105 -0.9243  1.3160  0.8681
   53CHL1  H21B 3902   2.800  -0.008   4.198  0.8939  0.5075 -0.8038
   53CHL1  H21C 3903   2.815   0.015   4.030 -1.0917 -1.5378 -0.1803
   53CHL1   C22 3904   2.676   0.235   4.260  1.0089 -0.8488 -0.4082
   53CHL1  H22A 3905   2.700   0.337   4.296  2.7301 -1.4720  0.3454
   53CHL1  H22B 3906   2.569   0.231   4.230 -0.0967  1.3948  2.7550
   53CHL1   C23 3907   2.687   0.137   4.383  0.1953 -0.5561  0.4268
   53CHL1  H23A 3908   2.639   0.042   4.351 -0.8223  0.7833 -2.3920
   53CHL1  H23B 3909   2.793   0.119   4.411  0.7571 -2.1425 -2.4047
   53CHL1   C24 3910   2.617   0.200   4.503 -1.1702 -0.7250 -0.1832
   53CHL1  H24A 3911   2.687   0.272   4.550 -0.9010 -0.5806 -0.7988
   53CHL1  H24B 3912   2.529   0.263   4.477  0.6250  2.3496  0.7827
   53CHL1   C25 3913   2.573   0.093   4.606 -0.7527  0.0167  0.1979
   53CHL1   H25 3914   2.508   0.020   4.554 -0.5756  0.8037 -1.1684
   53CHL1   C26 3915   2.695   0.010   4.664 -0.2571 -0.6621  0.3058
   53CHL1  H26A 3916   2.748  -0.045   4.584  0.2348  0.6097 -0.2690
   53CHL1  H26B 3917   2.766   0.077   4.717 -0.3122 -1.1331  0.9809
   53CHL1  H26C 3918   2.662  -0.059   4.744  1.9526 -2.3810 -0.1822
   53CHL1   C27 3919   2.486   0.155   4.718 -0.1057  0.2005  0.0341
   53CHL1  H27A 3920   2.424   0.074   4.763  0.3980  0.2040  0.7474
   53CHL1  H27B 3921   2.556   0.197   4.794 -3.1657  1.3628  2.4090
   53CHL1  H27C 3922   2.425   0.236   4.675  0.0836  2.2169  3.2345
   54CHL1    C3 3923   0.270   1.157   2.794 -0.0187 -0.1436  0.9825
   54CHL1    H3 3924   0.250   1.051   2.819 -1.2245 -0.3396 -0.6265
   54CHL1    O3 3925   0.277   1.159   2.650  0.0214  0.1518  0.1524
   54CHL1   H3' 3926   0.266   1.250   2.619 -0.5567 -0.0587 -0.2673
   54CHL1    C4 3927   0.155   1.236   2.848  0.1038  0.7890  0.3725
   54CHL1   H4A 3928   0.163   1.339   2.807 -3.2947  0.5999 -1.1224
   54CHL1   H4B 3929   0.061   1.198   2.802  0.5756  0.5247 -0.3825
   54CHL1    C5 3930   0.141   1.218   2.996  0.4153  0.1421 -0.2194
   54CHL1    C6 3931   0.029   1.157   3.043  0.1389 -0.9209  0.5072
   54CHL1    H6 3932  -0.056   1.149   2.974 -1.9405  3.0216  2.2618
   54CHL1    C7 3933   0.010   1.133   3.190 -0.0736 -0.2316  0.3087
   54CHL1   H7A 3934  -0.091   1.156   3.231 -0.9990 -1.5626 -1.0929
   54CHL1   H7B 3935   0.022   1.023   3.194 -0.8886 -0.4601 -1.7737
   54CHL1    C8 3936   0.123   1.203   3.284  0.4544  0.5571  0.0813
   54CHL1    H8 3937   0.107   1.312   3.277  2.0520  0.8860  0.9942
   54CHL1   C14 3938   0.119   1.153   3.427 -0.3028 -0.2781 -0.4083
   54CHL1   H14 3939   0.144   1.046   3.409 -0.7302 -0.1874 -1.6416
   54CHL1   C15 3940  -0.022   1.140   3.497  0.2776 -0.1829 -0.2667
   54CHL1  H15A 3941  -0.091   1.226   3.490  2.3059  1.4135 -2.1323
   54CHL1  H15B 3942  -0.075   1.053   3.452 -1.6758  0.0030  1.5410
   54CHL1   C16 3943   0.028   1.125   3.640  0.2748 -0.6912  0.1880
   54CHL1  H16A 3944   0.000   1.224   3.682 -0.3101 -1.0978  0.7915
   54CHL1  H16B 3945  -0.029   1.039   3.683  1.6881 -2.4651 -1.3138
   54CHL1   C17 3946   0.182   1.119   3.652 -0.4308  0.4031 -0.4922
   54CHL1   H17 3947   0.217   1.014   3.636  2.6921  1.4847 -1.5980
   54CHL1   C13 3948   0.224   1.199   3.527  0.9479  0.1781 -0.1004
   54CHL1   C18 3949   0.203   1.354   3.554 -0.0769  0.1017 -0.1144
   54CHL1  H18A 3950   0.197   1.410   3.458 -1.0379 -0.3077 -0.3061
   54CHL1  H18B 3951   0.108   1.385   3.604  0.2628 -0.9996  1.2695
   54CHL1  H18C 3952   0.285   1.390   3.619 -1.2610  1.3116  0.7738
   54CHL1   C12 3953   0.364   1.180   3.462  0.1579 -0.0901 -0.1633
   54CHL1  H12A 3954   0.441   1.233   3.522 -0.2719 -1.3547  1.5993
   54CHL1  H12B 3955   0.400   1.075   3.463  2.0698  0.5284 -0.2443
   54CHL1   C11 3956   0.370   1.231   3.313  0.0605 -0.0684  0.0565
   54CHL1  H11A 3957   0.370   1.342   3.310 -1.0932 -0.0465 -3.4402
   54CHL1  H11B 3958   0.465   1.187   3.274  1.4634  0.8130  2.2763
   54CHL1    C9 3959   0.260   1.183   3.216  0.4617 -0.5633 -0.1083
   54CHL1    H9 3960   0.269   1.072   3.210  0.3836 -0.5243 -1.1176
   54CHL1   C10 3961   0.275   1.242   3.071  0.6109 -1.3285 -0.2338
   54CHL1   C19 3962   0.294   1.394   3.083 -0.8547 -0.1552 -0.0209
   54CHL1  H19A 3963   0.267   1.443   2.987 -1.0976  0.0873  0.1699
   54CHL1  H19B 3964   0.233   1.449   3.158 -0.0476  1.2818 -0.3878
   54CHL1  H19C 3965   0.399   1.417   3.110  0.0056  0.5348 -3.4757
   54CHL1    C1 3966   0.398   1.179   3.007  0.0702  0.9038  0.2264
   54CHL1   H1A 3967   0.483   1.215   3.070  1.2661  0.9118 -1.3268
   54CHL1   H1B 3968   0.391   1.071   3.030 -2.0979  1.1488  0.9177
   54CHL1    C2 3969   0.404   1.201   2.860 -0.3098  0.0667 -0.8231
   54CHL1   H2A 3970   0.488   1.143   2.818  0.5507 -0.0238  0.9099
   54CHL1   H2B 3971   0.425   1.306   2.830 -1.1746  0.3797 -0.3739
   54CHL1   C20 3972   0.240   1.162   3.794 -0.5672 -0.6497  0.1407
   54CHL1   H20 3973   0.204   1.266   3.813  0.8628  0.3104 -2.0011
   54CHL1   C21 3974   0.399   1.165   3.783  0.2880 -1.2131  0.2418
   54CHL1  H21A 3975   0.417   1.254   3.719 -0.9500 -0.6260  0.6558
   54CHL1  H21B 3976   0.441   1.071   3.743  3.3195  0.3994 -0.6986
   54CHL1  H21C 3977   0.450   1.180   3.880  0.8230  1.3887 -0.3604
   54CHL1   C22 3978   0.201   1.076   3.911  0.5102  0.1821  0.5475
   54CHL1  H22A 3979   0.092   1.062   3.903 -0.1804  4.2418  0.6235
   54CHL1  H22B 3980   0.256   0.979   3.904  0.2186  0.0507  0.0271
   54CHL1   C23 3981   0.232   1.143   4.046  0.2702 -0.0373  0.0905
   54CHL1  H23A 3982   0.341   1.160   4.046  0.1652  1.2230 -2.6572
   54CHL1  H23B 3983   0.180   1.241   4.037 -2.8937 -1.6919 -1.3716
   54CHL1   C24 3984   0.177   1.050   4.165  0.6501  0.0088  0.8148
   54CHL1  H24A 3985   0.070   1.035   4.138  0.4941  0.3439  1.2338
   54CHL1  H24B 3986   0.222   0.950   4.151  1.5448  0.6030 -0.8796
   54CHL1   C25 3987   0.174   1.111   4.305  0.3295  0.2395  0.3657
   54CHL1   H25 3988   0.120   1.207   4.297 -2.4179 -1.3674 -2.5959
   54CHL1   C26 3989   0.098   1.024   4.409 -0.6598  0.6717  0.2993
   54CHL1  H26A 3990  -0.008   1.004   4.382 -0.8010  3.5510 -1.7352
   54CHL1  H26B 3991   0.152   0.927   4.407  1.8433  1.9434 -2.4894
   54CHL1  H26C 3992   0.105   1.060   4.514  1.0719 -1.4654  0.9997
   54CHL1   C27 3993   0.309   1.139   4.350 -0.3917  0.1823  0.3425
   54CHL1  H27A 3994   0.306   1.165   4.458  1.2529  2.3214 -0.0576
   54CHL1  H27B 3995   0.377   1.055   4.321 -0.5380 -0.2931  1.3622
   54CHL1  H27C 3996   0.345   1.217   4.279  0.4887  0.4687  1.0809
   55CHL1    C3 3997   4.924   1.521   2.941 -0.6556  0.1660  0.1713
   55CHL1    H3 3998   4.909   1.416   2.974  2.0624 -0.4340 -0.2420
   55CHL1    O3 3999   4.893   1.517   2.803 -0.9254 -0.1000 -0.2464
   55CHL1   H3' 4000   4.954   1.457   2.760  0.8935 -1.2238  3.5216
   55CHL1    C4 4001   4.829   1.618   3.011  0.4715 -0.8808 -0.5729
   55CHL1   H4A 4002   4.835   1.716   2.960  0.4111  0.3255  1.6309
   55CHL1   H4B 4003   4.725   1.585   2.995 -0.0336 -1.9611  3.7433
   55CHL1    C5 4004   4.866   1.637   3.157 -0.1013  0.3754 -0.5145
   55CHL1    C6 4005   4.781   1.597   3.254  0.0604 -0.5441  0.3510
   55CHL1    H6 4006   4.683   1.556   3.226 -0.5710 -1.0076  2.9362
   55CHL1    C7 4007   4.810   1.604   3.398  0.7544 -0.3878  0.1657
   55CHL1   H7A 4008   4.718   1.643   3.448  0.3243 -0.1621 -0.7859
   55CHL1   H7B 4009   4.825   1.498   3.428  0.4943 -1.3161 -2.6747
   55CHL1    C8 4010   4.931   1.690   3.431  0.4783 -0.1620  0.9261
   55CHL1    H8 4011   4.914   1.795   3.402  4.0486  0.8728  2.0777
   55CHL1   C14 4012   4.974   1.661   3.576  1.2016  0.2477  0.1621
   55CHL1   H14 4013   4.990   1.551   3.567 -1.1828 -0.1091 -0.1888
   55CHL1   C15 4014   4.870   1.686   3.688 -0.5623  0.0138  0.0678
   55CHL1  H15A 4015   4.822   1.784   3.668  2.2205  1.0497 -2.1841
   55CHL1  H15B 4016   4.789   1.611   3.674 -0.7444  0.2254 -0.0247
   55CHL1   C16 4017   4.952   1.687   3.813  0.2761  0.0508  0.0783
   55CHL1  H16A 4018   4.923   1.766   3.886  0.8169  1.4083 -1.1415
   55CHL1  H16B 4019   4.948   1.588   3.864 -0.4031  0.5651  1.0586
   55CHL1   C17 4020   5.102   1.711   3.773  0.1431  0.5816 -0.3716
   55CHL1   H17 4021   5.146   1.609   3.776 -3.9127 -1.3381 -0.8459
   55CHL1   C13 4022   5.100   1.737   3.618 -0.1602  0.5082 -0.0840
   55CHL1   C18 4023   5.092   1.888   3.597 -0.2116  0.0145 -0.3669
   55CHL1  H18A 4024   5.194   1.929   3.613 -0.8462  1.0121  1.4220
   55CHL1  H18B 4025   5.049   1.914   3.498 -0.3678 -2.1432 -0.9061
   55CHL1  H18C 4026   5.027   1.927   3.679 -0.3272 -0.4244 -0.2482
   55CHL1   C12 4027   5.214   1.687   3.534 -0.4548  0.3510 -0.1891
   55CHL1  H12A 4028   5.309   1.742   3.553 -0.2751  0.0817 -0.3152
   55CHL1  H12B 4029   5.225   1.578   3.548 -2.1426 -0.0666 -1.7228
   55CHL1   C11 4030   5.182   1.704   3.379 -0.3984 -0.1953 -0.2551
   55CHL1  H11A 4031   5.168   1.813   3.360  1.3740 -0.1027 -1.1619
   55CHL1  H11B 4032   5.271   1.678   3.318 -0.3957  1.8278 -1.2006
   55CHL1    C9 4033   5.047   1.641   3.339 -0.1634 -0.0881 -0.1264
   55CHL1    H9 4034   5.051   1.530   3.349 -0.7572 -0.0375  0.8285
   55CHL1   C10 4035   5.016   1.664   3.188 -0.5712  0.1251  0.2067
   55CHL1   C19 4036   5.037   1.815   3.155  0.1766 -0.1411  0.1184
   55CHL1  H19A 4037   4.987   1.884   3.227  3.3042  1.1522  1.2201
   55CHL1  H19B 4038   5.142   1.850   3.149 -0.2516  1.1705 -0.1070
   55CHL1  H19C 4039   4.989   1.828   3.056  0.4669 -1.2102 -0.1792
   55CHL1    C1 4040   5.114   1.578   3.102  0.1189  0.0456 -0.0963
   55CHL1   H1A 4041   5.216   1.623   3.102  0.1892 -0.0669 -1.3992
   55CHL1   H1B 4042   5.117   1.482   3.158  1.7276  1.9318  3.3798
   55CHL1    C2 4043   5.072   1.556   2.956  0.0433 -0.4924  0.0645
   55CHL1   H2A 4044   5.143   1.486   2.907  3.7881  1.9692  1.5339
   55CHL1   H2B 4045   5.084   1.655   2.908 -2.4003  0.3071  0.9568
   55CHL1   C20 4046   5.184   1.797   3.865  0.0998  0.3120 -0.4050
   55CHL1   H20 4047   5.144   1.899   3.851 -2.8447 -0.7603 -0.5005
   55CHL1   C21 4048   5.335   1.785   3.826 -0.0740 -0.0170  0.3366
   55CHL1  H21A 4049   5.347   1.837   3.728  0.6809  1.7903  1.3280
   55CHL1  H21B 4050   5.355   1.678   3.807  0.3639  0.4017 -1.7892
   55CHL1  H21C 4051   5.410   1.819   3.900  2.5720 -3.0052 -0.7411
   55CHL1   C22 4052   5.173   1.753   4.018  0.4855 -0.2856  0.6317
   55CHL1  H22A 4053   5.065   1.734   4.033  0.0759  2.4177  1.7082
   55CHL1  H22B 4054   5.227   1.658   4.042 -1.0569 -1.1260  0.8865
   55CHL1   C23 4055   5.196   1.862   4.116 -0.1399  0.2338  0.3681
   55CHL1  H23A 4056   5.301   1.900   4.116 -0.0410 -0.0015 -1.0224
   55CHL1  H23B 4057   5.130   1.947   4.090 -1.4029 -0.2920  1.7078
   55CHL1   C24 4058   5.156   1.828   4.256 -0.5100  0.0126  0.4106
   55CHL1  H24A 4059   5.061   1.771   4.261  0.0406 -1.1017 -1.1213
   55CHL1  H24B 4060   5.214   1.751   4.311 -1.3773 -1.2033 -0.3348
   55CHL1   C25 4061   5.142   1.949   4.356  0.3616  0.5996 -0.4020
   55CHL1   H25 4062   5.104   1.905   4.450 -0.0693  2.5127  0.3650
   55CHL1   C26 4063   5.281   2.008   4.395 -0.3701 -0.2384 -0.2920
   55CHL1  H26A 4064   5.347   1.938   4.452  0.9010  1.2836  0.1844
   55CHL1  H26B 4065   5.341   2.035   4.305  2.5553 -1.6722  1.0725
   55CHL1  H26C 4066   5.285   2.094   4.465 -0.8211  0.2902 -0.9037
   55CHL1   C27 4067   5.044   2.049   4.305 -0.4280 -0.4690 -0.2096
   55CHL1  H27A 4068   5.083   2.095   4.212 -0.0032  1.4964  0.8790
   55CHL1  H27B 4069   4.950   1.999   4.277  0.3393 -1.2516 -1.4790
   55CHL1  H27C 4070   5.020   2.132   4.375 -2.8684 -2.4258  1.4492
   56CHL1    C3 4071   5.710   0.641   3.027 -0.1017  0.4266  0.3126
   56CHL1    H3 4072   5.807   0.588   3.038 -0.7474 -1.0177 -0.6636
   56CHL1    O3 4073   5.663   0.602   2.902  0.4621  0.4427  0.2228
   56CHL1   H3' 4074   5.675   0.675   2.841 -0.6227  0.6787  0.2614
   56CHL1    C4 4075   5.606   0.615   3.141 -0.3690 -0.2734 -0.3931
   56CHL1   H4A 4076   5.512   0.673   3.125 -0.1305 -0.1197 -1.3001
   56CHL1   H4B 4077   5.580   0.507   3.139  2.4025 -1.0158 -0.5541
   56CHL1    C5 4078   5.666   0.648   3.275 -0.8803  0.3535 -0.6819
   56CHL1    C6 4079   5.658   0.567   3.380  0.2420  0.1740 -0.4771
   56CHL1    H6 4080   5.612   0.468   3.364  0.0956  0.5195 -2.4505
   56CHL1    C7 4081   5.714   0.589   3.517  0.8426  0.1108 -0.0637
   56CHL1   H7A 4082   5.652   0.557   3.603  1.0918 -0.0040  0.0752
   56CHL1   H7B 4083   5.815   0.543   3.523  1.1268  0.4190 -1.8370
   56CHL1    C8 4084   5.736   0.744   3.543  0.6790  0.1683 -0.4735
   56CHL1    H8 4085   5.635   0.786   3.561  0.7913 -0.3750  1.7111
   56CHL1   C14 4086   5.813   0.765   3.674  0.1511 -1.0337 -0.4817
   56CHL1   H14 4087   5.908   0.709   3.670 -0.2505 -1.7024 -0.7708
   56CHL1   C15 4088   5.745   0.713   3.803 -0.5983 -0.0569 -0.4177
   56CHL1  H15A 4089   5.639   0.746   3.803 -0.3398  0.8446  1.1133
   56CHL1  H15B 4090   5.756   0.602   3.810  2.5005  0.1330 -0.7647
   56CHL1   C16 4091   5.833   0.779   3.913  0.4797  0.5300  0.3906
   56CHL1  H16A 4092   5.762   0.828   3.983 -0.8233 -1.3553  0.4729
   56CHL1  H16B 4093   5.905   0.710   3.961  1.9689  0.4643 -1.8201
   56CHL1   C17 4094   5.920   0.886   3.844  0.0207  0.1583  0.5531
   56CHL1   H17 4095   6.017   0.837   3.818 -0.2546  0.3421 -0.8993
   56CHL1   C13 4096   5.851   0.908   3.708 -0.4520 -0.9086  0.3387
   56CHL1   C18 4097   5.730   1.009   3.725  0.5661 -1.1760  0.1651
   56CHL1  H18A 4098   5.648   0.994   3.653 -0.6493  1.2037  0.9717
   56CHL1  H18B 4099   5.685   0.992   3.825  0.6682 -0.8031  0.2743
   56CHL1  H18C 4100   5.756   1.116   3.716 -0.3097 -0.9379  0.4501
   56CHL1   C12 4101   5.940   0.960   3.591 -0.8316 -0.3185 -0.2979
   56CHL1  H12A 4102   5.977   1.064   3.600  0.0414 -0.5698 -0.7734
   56CHL1  H12B 4103   6.029   0.894   3.578 -0.5810  0.0181 -0.3162
   56CHL1   C11 4104   5.878   0.941   3.459  1.3293 -0.0365 -0.3272
   56CHL1  H11A 4105   5.807   1.026   3.448 -1.2159 -2.0400 -0.4395
   56CHL1  H11B 4106   5.954   0.954   3.379  1.3912 -1.9371 -0.6281
   56CHL1    C9 4107   5.812   0.803   3.428 -0.0227 -0.4554  0.1414
   56CHL1    H9 4108   5.898   0.734   3.414 -0.4032 -0.5128 -2.4794
   56CHL1   C10 4109   5.728   0.790   3.292  0.0422  0.0018  0.6594
   56CHL1   C19 4110   5.620   0.897   3.296 -0.2991 -0.1930 -0.5063
   56CHL1  H19A 4111   5.547   0.896   3.212 -1.8462  0.5383  0.7956
   56CHL1  H19B 4112   5.553   0.899   3.384 -1.5650  1.1884 -1.4616
   56CHL1  H19C 4113   5.662   0.997   3.269  0.3967 -0.5420 -0.7525
   56CHL1    C1 4114   5.822   0.816   3.169  0.4397 -0.1183  1.0898
   56CHL1   H1A 4115   5.856   0.921   3.174  2.3180 -0.6376  0.2253
   56CHL1   H1B 4116   5.919   0.761   3.177  1.2847  1.0962 -0.3772
   56CHL1    C2 4117   5.759   0.786   3.034 -0.3693 -0.2112 -0.4503
   56CHL1   H2A 4118   5.838   0.807   2.959 -1.6570  0.9058 -1.5467
   56CHL1   H2B 4119   5.670   0.851   3.032  0.3459  0.7730 -1.5243
   56CHL1   C20 4120   5.952   1.002   3.938  0.6562 -0.4924  0.2878
   56CHL1   H20 4121   5.857   1.053   3.964  0.8414  1.2086 -2.0353
   56CHL1   C21 4122   6.032   1.116   3.873 -0.3175 -0.2226  0.4415
   56CHL1  H21A 4123   6.064   1.195   3.944 -0.2259  0.2741 -0.1412
   56CHL1  H21B 4124   5.970   1.156   3.790  2.1055  2.9119 -0.0880
   56CHL1  H21C 4125   6.123   1.079   3.822 -1.9569 -1.7565 -1.5334
   56CHL1   C22 4126   6.012   0.962   4.074 -0.8150  0.3966  0.2606
   56CHL1  H22A 4127   5.955   0.876   4.116 -1.0648  0.4623  0.0574
   56CHL1  H22B 4128   6.118   0.931   4.060 -1.5000 -1.7383 -0.5435
   56CHL1   C23 4129   6.010   1.066   4.184 -0.3679  0.0775  0.1648
   56CHL1  H23A 4130   6.090   1.139   4.161  0.5021 -0.7982  0.3431
   56CHL1  H23B 4131   5.918   1.129   4.184 -0.7494 -0.4524  0.9411
   56CHL1   C24 4132   6.037   1.025   4.327 -0.7413 -0.5579  0.0379
   56CHL1  H24A 4133   5.947   0.974   4.367 -0.4958 -0.9216  0.1304
   56CHL1  H24B 4134   6.116   0.946   4.330 -2.9385 -2.9019  0.0961
   56CHL1   C25 4135   6.068   1.142   4.431  0.4470  0.5951  0.4227
   56CHL1   H25 4136   6.149   1.211   4.399  0.3946  0.6196  0.3411
   56CHL1   C26 4137   5.948   1.234   4.473 -0.2260 -0.3622  0.0491
   56CHL1  H26A 4138   5.988   1.328   4.517  1.8306 -0.1122 -2.1600
   56CHL1  H26B 4139   5.889   1.259   4.383 -0.4988 -1.9570 -0.2488
   56CHL1  H26C 4140   5.883   1.194   4.555  1.1477 -0.2157  1.2555
   56CHL1   C27 4141   6.114   1.075   4.557 -0.2663 -0.1814 -0.1849
   56CHL1  H27A 4142   6.200   1.008   4.533  0.1357 -0.2281  1.2866
   56CHL1  H27B 4143   6.155   1.161   4.613  0.5058  1.0188 -2.4578
   56CHL1  H27C 4144   6.034   1.013   4.604  0.1968 -0.3321  0.4190
   57SAPC     N 4145   0.274   0.870   6.955  0.2910  0.2959  0.4435
   57SAPC   C12 4146   0.318   0.741   6.881  0.8466 -0.0909  0.0429
   57SAPC  H12A 4147   0.249   0.733   6.799 -0.7472  0.4668  1.2644
   57SAPC  H12B 4148   0.303   0.654   6.942  0.7769 -2.0861 -2.6711
   57SAPC   C13 4149   0.147   0.837   7.016 -0.3181 -0.0500 -0.2710
   57SAPC  H13A 4150   0.157   0.764   7.095 -1.4772  2.1736  2.0845
   57SAPC  H13B 4151   0.111   0.921   7.073  1.9413  0.4101  0.5828
   57SAPC  H13C 4152   0.063   0.802   6.957 -0.0675 -2.6203  0.7285
   57SAPC   C14 4153   0.383   0.913   7.051 -0.5372  0.1780 -0.0245
   57SAPC  H14A 4154   0.366   1.010   7.095  0.9574  0.3446  0.2327
   57SAPC  H14B 4155   0.399   0.840   7.129  0.6771  3.2819  2.8906
   57SAPC  H14C 4156   0.480   0.899   7.006  0.1090 -0.0327  1.3726
   57SAPC   C15 4157   0.239   0.979   6.856 -0.0779  0.0917 -0.9401
   57SAPC  H15A 4158   0.337   1.004   6.817  0.1194 -2.5881 -2.4156
   57SAPC  H15B 4159   0.160   0.959   6.785 -0.5647  0.6877 -0.5714
   57SAPC  H15C 4160   0.203   1.067   6.908 -1.5995 -0.6415 -0.7154
   57SAPC   C11 4161   0.452   0.722   6.813 -0.2912 -0.2582  0.3924
   57SAPC  H11A 4162   0.468   0.801   6.737 -0.4834 -1.2341 -0.7012
   57SAPC  H11B 4163   0.453   0.625   6.757  0.0469  0.1643 -0.3477
   57SAPC     P 4164   0.690   0.800   6.875 -0.6118  0.1562  0.2679
   57SAPC   O13 4165   0.663   0.943   6.912 -0.3678  0.0494 -0.2577
   57SAPC   O14 4166   0.802   0.732   6.935  0.0981  0.2345 -0.2539
   57SAPC   O12 4167   0.557   0.717   6.907 -0.1926  0.4710 -0.3374
   57SAPC   O11 4168   0.698   0.785   6.718 -0.1101 -0.6536 -0.1084
   57SAPC    C1 4169   0.751   0.667   6.659  0.2019  0.0254 -0.0240
   57SAPC    HA 4170   0.861   0.670   6.675  0.4654  2.0656 -1.7881
   57SAPC    HB 4171   0.694   0.582   6.702 -0.9969  0.5571 -0.5120
   57SAPC    C2 4172   0.739   0.671   6.510  0.5778  0.0386  0.1962
   57SAPC    HS 4173   0.759   0.568   6.472 -2.4721  0.5401 -3.3647
   57SAPC   O21 4174   0.825   0.766   6.452 -0.7528  0.5228 -0.2292
   57SAPC   C21 4175   0.955   0.741   6.452 -0.4301 -0.6566  0.1740
   57SAPC   O22 4176   1.014   0.641   6.482  0.2663  0.6648  0.2641
   57SAPC   C22 4177   1.025   0.861   6.380  0.6949 -0.2514  0.4447
   57SAPC   H2R 4178   0.949   0.910   6.315  0.9921 -0.3762  0.0003
   57SAPC   H2S 4179   1.056   0.940   6.452  0.6198  1.0019 -0.8444
   57SAPC    C3 4180   0.596   0.703   6.463  0.3810 -0.2028  0.0616
   57SAPC    HX 4181   0.556   0.788   6.523  1.4029 -0.6233  1.4005
   57SAPC    HY 4182   0.524   0.622   6.485 -0.9311  0.4473 -1.6025
   57SAPC   O31 4183   0.582   0.724   6.321  0.2479  0.1111 -0.0772
   57SAPC   C31 4184   0.575   0.853   6.291  0.2543  1.0472 -0.6359
   57SAPC   O32 4185   0.595   0.947   6.365  0.8552  0.1081  0.2533
   57SAPC   C32 4186   0.529   0.873   6.148  0.7440  0.2041 -0.7200
   57SAPC   H2X 4187   0.464   0.963   6.150 -0.2692 -0.5276  0.4676
   57SAPC   H2Y 4188   0.475   0.783   6.114 -0.5923  0.1759  1.3393
   57SAPC   C23 4189   1.159   0.818   6.327  0.1032 -0.1911 -0.3341
   57SAPC   H3R 4190   1.204   0.748   6.400 -0.9411 -0.8558 -0.3113
   57SAPC   H3S 4191   1.225   0.907   6.316  0.8901 -0.7455 -0.2030
   57SAPC   C24 4192   1.152   0.766   6.179 -0.1846 -0.1445 -0.1681
   57SAPC   H4R 4193   1.074   0.687   6.173  0.3925 -0.6253 -2.5960
   57SAPC   H4S 4194   1.241   0.707   6.147 -0.9481 -0.6718 -1.3897
   57SAPC   C25 4195   1.131   0.879   6.082  0.2176  0.5011 -0.4418
   57SAPC   H5R 4196   1.043   0.941   6.105 -1.0032 -2.3734  3.8936
   57SAPC   C26 4197   1.189   0.895   5.963 -0.1260 -0.3354  0.3986
   57SAPC   H6R 4198   1.167   0.992   5.917 -0.3773 -0.7599 -0.3853
   57SAPC   C27 4199   1.296   0.812   5.896 -0.0818 -0.7629  0.1237
   57SAPC   H7R 4200   1.242   0.721   5.861  0.6822 -1.9137  1.7889
   57SAPC   H7S 4201   1.361   0.772   5.977 -0.8731  0.7926  1.5816
   57SAPC   C28 4202   1.391   0.867   5.793  0.2050 -0.2173  0.2281
   57SAPC   H8R 4203   1.483   0.918   5.826  0.3096  0.2643 -0.7660
   57SAPC   C29 4204   1.364   0.861   5.662 -0.1759  0.4377  0.0809
   57SAPC   H9R 4205   1.438   0.897   5.589  0.2784 -1.7369 -0.6108
   57SAPC  C210 4206   1.243   0.809   5.592 -0.5705  0.1204  0.0638
   57SAPC  H10R 4207   1.219   0.879   5.509  0.3765 -1.1500 -1.3509
   57SAPC  H10S 4208   1.161   0.815   5.667  0.3834  1.9097  1.0075
   57SAPC  C211 4209   1.261   0.669   5.547 -0.2136  0.2137  1.2122
   57SAPC  H11R 4210   1.245   0.600   5.630 -0.9234 -0.6421  0.3888
   57SAPC  C212 4211   1.295   0.633   5.419 -0.0922  0.5178 -0.8135
   57SAPC  H12R 4212   1.314   0.528   5.392  1.3131  1.2022 -2.6688
   57SAPC  C213 4213   1.313   0.727   5.309  0.1074 -0.0373  0.1385
   57SAPC  H13R 4214   1.258   0.823   5.316  0.2561 -0.0103  0.9379
   57SAPC  H13S 4215   1.280   0.682   5.213  1.1191 -0.7666  0.1126
   57SAPC  C214 4216   1.463   0.772   5.305  0.6543 -0.5432 -0.0897
   57SAPC  H14R 4217   1.497   0.816   5.401 -0.8133 -0.2073  0.3006
   57SAPC  C215 4218   1.545   0.770   5.197  0.2781 -0.1565  0.1865
   57SAPC  H15R 4219   1.647   0.810   5.200  0.6096 -0.8732 -1.0320
   57SAPC  C216 4220   1.509   0.701   5.068 -0.6898 -0.3714  1.1561
   57SAPC  H16R 4221   1.415   0.641   5.063 -1.3011  0.6826 -1.0945
   57SAPC  H16S 4222   1.579   0.622   5.031  0.2122  0.2124  1.5878
   57SAPC  C217 4223   1.476   0.811   4.962 -0.6274 -0.8691  0.3577
   57SAPC  H17R 4224   1.466   0.787   4.854  2.4535 -1.5943  0.1715
   57SAPC  H17S 4225   1.554   0.890   4.967 -0.8071 -0.2886 -3.1282
   57SAPC  C218 4226   1.342   0.894   4.984  0.0462  0.3260  0.5038
   57SAPC  H18R 4227   1.327   0.901   5.094  1.7307 -0.0844  0.7798
   57SAPC  H18S 4228   1.257   0.838   4.939 -1.3296  1.7308  1.2574
   57SAPC  C219 4229   1.348   1.028   4.897 -0.4147 -0.7964  0.5952
   57SAPC  H19R 4230   1.368   1.005   4.791  0.9112  0.7263  0.4683
   57SAPC  H19S 4231   1.435   1.076   4.947 -0.5161 -1.3235  1.3078
   57SAPC  C220 4232   1.225   1.113   4.904  0.1195  0.2839  0.1484
   57SAPC  H20R 4233   1.242   1.212   4.857 -0.0364 -0.0256 -0.5621
   57SAPC  H20S 4234   1.207   1.127   5.013 -0.0059  0.2144  0.1367
   57SAPC  H20T 4235   1.134   1.072   4.855  0.1761 -0.4549  0.6443
   57SAPC   C33 4236   0.648   0.927   6.060  0.2359 -0.7566  0.9350
   57SAPC   H3X 4237   0.740   0.865   6.068  0.2819 -0.6333  1.3969
   57SAPC   H3Y 4238   0.689   1.021   6.103  0.5381 -1.1656  1.5538
   57SAPC   C34 4239   0.623   0.944   5.910 -0.1883  0.0501  1.1338
   57SAPC   H4X 4240   0.558   1.033   5.895 -2.2769 -1.6294 -0.3972
   57SAPC   H4Y 4241   0.575   0.860   5.855  0.2673  1.2839 -1.3161
   57SAPC   C35 4242   0.751   0.976   5.833  0.0191 -0.2408  0.1274
   57SAPC   H5X 4243   0.823   0.897   5.865 -0.8652 -0.1814  2.4753
   57SAPC   H5Y 4244   0.804   1.066   5.871 -2.0941  1.0678  0.0938
   57SAPC   C36 4245   0.739   1.000   5.683 -0.3147  0.3358 -0.0608
   57SAPC   H6X 4246   0.676   1.090   5.666 -2.5043 -1.1823 -0.4147
   57SAPC   H6Y 4247   0.677   0.918   5.641  0.7205  0.1011 -1.2015
   57SAPC   C37 4248   0.878   1.014   5.612 -0.2639 -0.3431  0.1223
   57SAPC   H7X 4249   0.943   0.941   5.666  1.1628  1.5116  1.0191
   57SAPC   H7Y 4250   0.924   1.113   5.631 -0.4477 -0.4367  1.1216
   57SAPC   C38 4251   0.858   0.989   5.460 -0.1839  0.4355  0.8659
   57SAPC   H8X 4252   0.794   0.899   5.453  0.7504 -0.1503 -0.6377
   57SAPC   H8Y 4253   0.956   0.979   5.408 -0.4879 -1.1069  0.5556
   57SAPC   C39 4254   0.771   1.096   5.403 -0.2055 -0.0306 -0.3276
   57SAPC   H9X 4255   0.804   1.192   5.447  2.1316 -0.1158 -1.6963
   57SAPC   H9Y 4256   0.661   1.080   5.412 -0.5221  1.8586 -0.2911
   57SAPC  C310 4257   0.785   1.113   5.249 -0.0840  0.7513 -0.7935
   57SAPC  H10X 4258   0.739   1.025   5.199  1.1451  0.2584 -1.0905
   57SAPC  H10Y 4259   0.895   1.102   5.241 -0.0208 -1.0426  1.3465
   57SAPC  C311 4260   0.749   1.259   5.212  0.2481 -0.3418  0.2286
   57SAPC  H11X 4261   0.797   1.343   5.267  1.9145 -0.1965 -1.3527
   57SAPC  H11Y 4262   0.639   1.272   5.216 -0.0502 -2.3841 -0.3143
   57SAPC  C312 4263   0.774   1.293   5.070  0.1520  0.3901  0.3418
   57SAPC  H12X 4264   0.738   1.398   5.061 -1.1311  0.1172  1.6740
   57SAPC  H12Y 4265   0.708   1.227   5.009 -0.0466  2.4376 -1.7969
   57SAPC  C313 4266   0.921   1.272   5.027 -0.6001 -0.5436  0.2873
   57SAPC  H13X 4267   0.935   1.163   5.011  0.5742 -0.3145 -0.3728
   57SAPC  H13Y 4268   0.996   1.317   5.095  1.1036 -1.8122 -0.6580
   57SAPC  C314 4269   0.945   1.350   4.891  0.2033  0.3852 -0.6681
   57SAPC  H14X 4270   1.043   1.401   4.886 -0.3839  1.6186  0.0264
   57SAPC  H14Y 4271   0.878   1.436   4.911 -1.2309 -0.6599 -0.7803
   57SAPC  C315 4272   0.920   1.285   4.757 -0.1378 -0.8600 -0.0855
   57SAPC  H15X 4273   0.819   1.239   4.744  0.2318 -1.0070 -3.2538
   57SAPC  H15Y 4274   1.000   1.209   4.741 -1.4954 -2.0580 -1.6082
   57SAPC  C316 4275   0.922   1.379   4.632  0.3533  0.3554  0.1217
   57SAPC  H16X 4276   0.843   1.457   4.642 -0.7814 -0.6371 -0.7959
   57SAPC  H16Y 4277   0.891   1.321   4.542 -0.5963  0.7170  0.2041
   57SAPC  C317 4278   1.053   1.454   4.600  0.0356  0.0729 -0.3217
   57SAPC  H17X 4279   1.076   1.516   4.690 -0.5490  1.7417 -1.2745
   57SAPC  H17Y 4280   1.030   1.517   4.512 -1.5050 -0.6757 -0.4911
   57SAPC  C318 4281   1.170   1.363   4.564  0.0749 -0.2577  0.1866
   57SAPC  H18X 4282   1.263   1.421   4.549  0.7254 -1.5614 -1.1904
   57SAPC  H18Y 4283   1.148   1.302   4.474 -0.0049 -3.1458  2.0295
   57SAPC  H18Z 4284   1.193   1.286   4.641 -0.5760 -1.4414 -0.7555
   58SAPC     N 4285   4.806   5.930   7.073 -0.3361  0.0504  0.4622
   58SAPC   C12 4286   4.792   6.080   7.067  0.2330  0.0184 -0.5253
   58SAPC  H12A 4287   4.854   6.110   6.983 -1.1394 -1.2727 -2.0534
   58SAPC  H12B 4288   4.841   6.125   7.152 -0.1983  0.0480 -0.2887
   58SAPC   C13 4289   4.792   5.886   6.930  0.1907  0.0628  0.0411
   58SAPC  H13A 4290   4.790   5.778   6.921  2.9446 -0.1210  0.9546
   58SAPC  H13B 4291   4.697   5.931   6.904 -0.4263 -1.2107  0.0028
   58SAPC  H13C 4292   4.863   5.930   6.863  0.5577 -1.2838 -0.4846
   58SAPC   C14 4293   4.944   5.901   7.112 -0.5907  0.6334  0.4725
   58SAPC  H14A 4294   4.975   5.797   7.105 -0.4699  0.6256  1.0833
   58SAPC  H14B 4295   5.003   5.962   7.045 -1.0431 -0.8016 -1.3155
   58SAPC  H14C 4296   4.944   5.942   7.212  0.1911  0.4325  0.5686
   58SAPC   C15 4297   4.708   5.865   7.168 -0.5169 -1.1168 -0.0355
   58SAPC  H15A 4298   4.735   5.901   7.266 -0.3898  2.1629 -1.1337
   58SAPC  H15B 4299   4.609   5.903   7.150 -0.4254 -0.4891  0.7570
   58SAPC  H15C 4300   4.717   5.758   7.163  2.6646 -1.1974  3.4944
   58SAPC   C11 4301   4.654   6.141   7.051  0.7332 -0.1284  0.1094
   58SAPC  H11A 4302   4.678   6.244   7.017  3.2836 -0.4289  0.7963
   58SAPC  H11B 4303   4.615   6.148   7.155 -0.1929 -0.2171 -0.2234
   58SAPC     P 4304   4.423   6.035   6.989  0.0352  0.4231 -0.0289
   58SAPC   O13 4305   4.425   5.955   7.115 -0.2088 -0.0390 -0.8618
   58SAPC   O14 4306   4.343   6.155   6.995  0.2035  0.2367 -0.1550
   58SAPC   O12 4307   4.567   6.078   6.952 -0.3555  0.7194  0.3091
   58SAPC   O11 4308   4.368   5.958   6.869  0.0266 -0.3699  0.5172
   58SAPC    C1 4309   4.381   5.984   6.730  0.2219 -0.1947  0.5117
   58SAPC    HA 4310   4.430   6.082   6.711  2.0133 -1.3523 -1.3089
   58SAPC    HB 4311   4.449   5.901   6.700  1.0917 -0.5841  3.3184
   58SAPC    C2 4312   4.248   5.975   6.651  0.0358 -0.3317 -0.3314
   58SAPC    HS 4313   4.190   6.064   6.681  3.8881  2.2014  0.3507
   58SAPC   O21 4314   4.172   5.855   6.686  0.5128 -0.0521 -0.1913
   58SAPC   C21 4315   4.052   5.836   6.641 -0.0653  0.0196  0.7992
   58SAPC   O22 4316   3.989   5.921   6.579  0.0371 -0.2597  0.0492
   58SAPC   C22 4317   4.001   5.699   6.676  0.0259  0.9134  0.2366
   58SAPC   H2R 4318   4.063   5.645   6.751  1.4850 -1.2087 -2.3198
   58SAPC   H2S 4319   3.905   5.727   6.724 -0.9423 -0.9478 -0.5134
   58SAPC    C3 4320   4.273   5.989   6.499  0.4952  0.3529  0.1412
   58SAPC    HX 4321   4.186   6.003   6.432 -0.7460  0.6901  1.7619
   58SAPC    HY 4322   4.306   5.887   6.470  1.3767  1.1813 -1.8979
   58SAPC   O31 4323   4.371   6.090   6.471 -0.0243  0.0147  0.0509
   58SAPC   C31 4324   4.442   6.076   6.363 -0.1609  0.2893  0.6145
   58SAPC   O32 4325   4.418   5.990   6.277  0.6558 -0.0414  0.0266
   58SAPC   C32 4326   4.555   6.170   6.367  0.0199 -0.5853 -1.0821
   58SAPC   H2X 4327   4.616   6.154   6.459 -1.7592  0.0032  0.2705
   58SAPC   H2Y 4328   4.500   6.263   6.393 -2.1327 -2.1242  0.3257
   58SAPC   C23 4329   3.970   5.618   6.551  0.6037 -0.3885 -0.5038
   58SAPC   H3R 4330   4.055   5.588   6.487  0.1079 -2.1089 -0.4053
   58SAPC   H3S 4331   3.899   5.677   6.489  2.1492  0.2681 -1.7164
   58SAPC   C24 4332   3.900   5.491   6.591 -0.1118 -0.2291  0.6949
   58SAPC   H4R 4333   3.867   5.445   6.495  1.4705  0.2504 -0.1130
   58SAPC   H4S 4334   3.806   5.511   6.647 -1.2464  2.2313 -1.8942
   58SAPC   C25 4335   3.993   5.393   6.662 -0.2778 -0.5470  0.4760
   58SAPC   H5R 4336   4.029   5.421   6.762  1.4804 -2.8738  0.5975
   58SAPC   C26 4337   4.046   5.278   6.612  0.1969  0.0921  0.0110
   58SAPC   H6R 4338   4.113   5.213   6.669 -0.4268  0.2450  0.9280
   58SAPC   C27 4339   4.007   5.222   6.470  0.1525  0.8348 -0.6017
   58SAPC   H7R 4340   4.085   5.151   6.434 -0.1007 -0.4246  1.1947
   58SAPC   H7S 4341   4.012   5.305   6.396  0.2288  0.1344 -1.3895
   58SAPC   C28 4342   3.870   5.156   6.472  0.0432 -0.0332  0.3421
   58SAPC   H8R 4343   3.803   5.186   6.554 -0.8519  0.8147 -0.6793
   58SAPC   C29 4344   3.826   5.102   6.356  0.0395 -0.7166  0.0786
   58SAPC   H9R 4345   3.718   5.083   6.342 -0.2133  1.5517 -1.7683
   58SAPC  C210 4346   3.908   5.078   6.234  0.7835  0.2265 -0.1673
   58SAPC  H10R 4347   3.860   4.990   6.187 -0.3978 -0.3532  2.0008
   58SAPC  H10S 4348   4.012   5.055   6.263  0.5541 -0.2953  0.2420
   58SAPC  C211 4349   3.905   5.203   6.141  0.3525  0.4121  0.6662
   58SAPC  H11R 4350   3.835   5.283   6.167  0.7900  0.2761  2.3689
   58SAPC  C212 4351   3.991   5.212   6.036  0.4310  0.1217  0.3611
   58SAPC  H12R 4352   3.999   5.305   5.977 -0.2815 -0.1136 -0.1191
   58SAPC  C213 4353   4.081   5.099   5.990 -0.0529  0.5153 -0.0044
   58SAPC  H13R 4354   4.030   5.004   6.017 -2.5447  2.0587  1.1339
   58SAPC  H13S 4355   4.174   5.104   6.050  1.3006  0.7784 -2.0384
   58SAPC  C214 4356   4.125   5.129   5.854 -0.1061 -0.5345  0.3206
   58SAPC  H14R 4357   4.221   5.183   5.848  0.6091 -1.7194  0.6471
   58SAPC  C215 4358   4.060   5.092   5.741  0.0849  0.3076  0.6794
   58SAPC  H15R 4359   4.106   5.100   5.641 -2.0475 -0.2049 -0.4110
   58SAPC  C216 4360   3.930   5.022   5.740 -0.1847  1.1685 -0.4195
   58SAPC  H16R 4361   3.864   5.026   5.829 -1.9340  0.9817 -1.6512
   58SAPC  H16S 4362   3.942   4.915   5.711  0.6673  1.3118 -0.6266
   58SAPC  C217 4363   3.845   5.086   5.628 -0.7741  0.0609 -0.0600
   58SAPC  H17R 4364   3.898   5.070   5.532 -1.6077  2.1228 -0.9267
   58SAPC  H17S 4365   3.831   5.196   5.637 -2.6305 -0.0005 -1.5285
   58SAPC  C218 4366   3.706   5.026   5.613  0.1745 -0.2136 -0.6385
   58SAPC  H18R 4367   3.634   5.085   5.674  1.6406  1.6931 -0.6646
   58SAPC  H18S 4368   3.701   4.919   5.645  2.6914  0.0008  0.7576
   58SAPC  C219 4369   3.651   5.044   5.471 -0.1898 -0.1558 -0.5876
   58SAPC  H19R 4370   3.723   5.002   5.397 -3.3795 -0.7435 -3.6592
   58SAPC  H19S 4371   3.654   5.152   5.448  0.4839  0.0848  0.5642
   58SAPC  C220 4372   3.511   4.983   5.447  0.3308  0.5594  0.3241
   58SAPC  H20R 4373   3.504   4.872   5.457  2.5676  0.3977  0.7388
   58SAPC  H20S 4374   3.492   4.993   5.338  1.8519  1.1279  0.0773
   58SAPC  H20T 4375   3.432   5.035   5.504  1.1704  0.9433  1.1558
   58SAPC   C33 4376   4.632   6.187   6.240 -0.0320 -0.1448  0.6617
   58SAPC   H3X 4377   4.619   6.091   6.186  0.8128 -0.7992  1.5889
   58SAPC   H3Y 4378   4.742   6.190   6.254  0.1602  2.0105 -0.8462
   58SAPC   C34 4379   4.592   6.319   6.163 -0.3375 -0.1044 -0.4526
   58SAPC   H4X 4380   4.625   6.402   6.230 -0.8172  0.7094 -1.1972
   58SAPC   H4Y 4381   4.481   6.323   6.157 -0.4217  1.9260  1.2227
   58SAPC   C35 4382   4.648   6.317   6.026 -0.0055  0.0885  0.2580
   58SAPC   H5X 4383   4.749   6.272   6.018  0.7121  1.5113  0.9947
   58SAPC   H5Y 4384   4.662   6.422   5.996  0.8309 -0.3997 -1.1347
   58SAPC   C36 4385   4.552   6.268   5.914 -0.1153  0.0173 -0.2695
   58SAPC   H6X 4386   4.463   6.334   5.912 -0.7190 -0.7236  0.8761
   58SAPC   H6Y 4387   4.517   6.163   5.928 -1.7371  0.7851  1.9807
   58SAPC   C37 4388   4.609   6.281   5.771 -0.4091  0.0420 -0.3927
   58SAPC   H7X 4389   4.672   6.192   5.754 -0.8823 -0.1418 -1.2543
   58SAPC   H7Y 4390   4.661   6.377   5.752 -1.8919  0.5676 -2.0422
   58SAPC   C38 4391   4.499   6.266   5.670 -0.2683 -0.3550 -0.3677
   58SAPC   H8X 4392   4.436   6.357   5.676  1.7475  1.3547 -2.9233
   58SAPC   H8Y 4393   4.433   6.177   5.682  1.1106 -1.3720 -0.0362
   58SAPC   C39 4394   4.549   6.253   5.531  0.2346 -0.1795  1.0009
   58SAPC   H9X 4395   4.609   6.159   5.527  0.4108 -0.0538  0.6596
   58SAPC   H9Y 4396   4.617   6.336   5.499 -2.2268  1.3726 -0.5202
   58SAPC  C310 4397   4.433   6.268   5.428 -0.8582 -0.3196  0.9143
   58SAPC  H10X 4398   4.388   6.367   5.451 -1.9643 -0.4526 -0.5669
   58SAPC  H10Y 4399   4.351   6.195   5.447 -0.5652 -1.5501 -2.0293
   58SAPC  C311 4400   4.468   6.250   5.278  0.4674  0.2950  0.4783
   58SAPC  H11X 4401   4.461   6.145   5.243 -1.5430  0.3898  0.4510
   58SAPC  H11Y 4402   4.578   6.264   5.278  0.5607 -0.3901  0.7052
   58SAPC  C312 4403   4.374   6.334   5.191 -0.3403  0.5822  0.2505
   58SAPC  H12X 4404   4.415   6.437   5.204 -0.9084  1.0583 -1.5126
   58SAPC  H12Y 4405   4.267   6.336   5.224 -0.5899  0.8189 -0.5647
   58SAPC  C313 4406   4.390   6.295   5.046  0.3784 -0.4029  0.0817
   58SAPC  H13X 4407   4.288   6.308   5.006  0.7051  1.3425 -0.2328
   58SAPC  H13Y 4408   4.412   6.187   5.032 -1.5107 -0.5465 -2.5122
   58SAPC  C314 4409   4.488   6.370   4.964 -0.2484  0.2510  0.0707
   58SAPC  H14X 4410   4.586   6.369   5.015  0.3029  2.4020 -0.8353
   58SAPC  H14Y 4411   4.455   6.475   4.974 -1.4258  0.1597 -2.1120
   58SAPC  C315 4412   4.488   6.327   4.819  0.2876  0.1578 -0.3909
   58SAPC  H15X 4413   4.390   6.360   4.779  0.5578  1.3728 -0.0987
   58SAPC  H15Y 4414   4.492   6.217   4.806 -0.4574  0.4247 -4.1394
   58SAPC  C316 4415   4.606   6.384   4.734  0.3739 -0.4525 -0.2849
   58SAPC  H16X 4416   4.696   6.342   4.783 -0.2871 -1.8387 -0.1920
   58SAPC  H16Y 4417   4.617   6.494   4.738  0.0459 -0.2814 -2.6213
   58SAPC  C317 4418   4.607   6.339   4.586 -0.2050  0.9042 -0.3416
   58SAPC  H17X 4419   4.512   6.371   4.537  0.7990  0.9784 -2.3330
   58SAPC  H17Y 4420   4.604   6.228   4.584 -0.2471  0.9133 -0.9406
   58SAPC  C318 4421   4.726   6.380   4.500 -0.2121 -0.0169 -0.2151
   58SAPC  H18X 4422   4.828   6.359   4.540 -0.6951  0.4491  1.3486
   58SAPC  H18Y 4423   4.725   6.490   4.491  2.0204  0.1302  0.6841
   58SAPC  H18Z 4424   4.718   6.322   4.405  1.1439 -1.1382  0.3155
   59SAPC     N 4425   4.184   2.317   6.722  0.3269  0.3521  0.2031
   59SAPC   C12 4426   4.039   2.326   6.660 -1.0794  0.5304  0.4257
   59SAPC  H12A 4427   4.046   2.381   6.567 -2.3380  1.0226  0.6024
   59SAPC  H12B 4428   3.980   2.397   6.716  0.8825  1.3861  1.5053
   59SAPC   C13 4429   4.189   2.249   6.855  0.1391 -0.1901  0.6200
   59SAPC  H13A 4430   4.293   2.228   6.872 -0.1610 -0.5061  2.2044
   59SAPC  H13B 4431   4.145   2.303   6.938  1.9496 -0.6408  1.9490
   59SAPC  H13C 4432   4.132   2.157   6.848 -0.2778 -0.0141  1.5624
   59SAPC   C14 4433   4.272   2.254   6.632  0.5665  0.2789 -0.5913
   59SAPC  H14A 4434   4.372   2.265   6.673  0.0838  0.2068  0.6578
   59SAPC  H14B 4435   4.252   2.151   6.605  0.7676  0.8623 -3.1828
   59SAPC  H14C 4436   4.276   2.308   6.539  0.9602 -0.9639 -1.3194
   59SAPC   C15 4437   4.241   2.458   6.732 -0.0302  0.1123 -0.3281
   59SAPC  H15A 4438   4.176   2.522   6.789  0.2977  2.7111 -2.6643
   59SAPC  H15B 4439   4.334   2.453   6.785  0.2404 -1.4704 -0.8882
   59SAPC  H15C 4440   4.257   2.502   6.635 -0.7304  1.1821  0.0287
   59SAPC   C11 4441   3.951   2.206   6.633 -0.0214  0.6056  0.6872
   59SAPC  H11A 4442   4.011   2.137   6.569 -1.5065 -0.4186  0.3360
   59SAPC  H11B 4443   3.864   2.243   6.573 -0.8717 -0.9422  0.9019
   59SAPC     P 4444   3.785   2.219   6.834  0.5855 -0.3590  0.0858
   59SAPC   O13 4445   3.721   2.124   6.931  0.0968  0.4920 -0.6120
   59SAPC   O14 4446   3.830   2.350   6.883  0.0419 -0.2638 -0.7140
   59SAPC   O12 4447   3.901   2.143   6.748  0.6386  0.4408 -0.2830
   59SAPC   O11 4448   3.678   2.250   6.719 -0.4618 -0.7144  0.3027
   59SAPC    C1 4449   3.630   2.141   6.644  0.5328 -0.0565 -0.3300
   59SAPC    HA 4450   3.706   2.085   6.584 -0.3587 -1.1228 -0.5143
   59SAPC    HB 4451   3.587   2.060   6.706 -0.8496  2.4372  2.1794
   59SAPC    C2 4452   3.513   2.181   6.549 -0.3189 -0.2854  0.5526
   59SAPC    HS 4453   3.467   2.094   6.496 -1.4617  1.3580 -1.2738
   59SAPC   O21 4454   3.551   2.287   6.461  0.3232  0.3141  0.2708
   59SAPC   C21 4455   3.628   2.250   6.361 -0.6778  0.0011 -0.3393
   59SAPC   O22 4456   3.671   2.138   6.336  0.2505  0.6086 -0.5752
   59SAPC   C22 4457   3.637   2.374   6.269 -0.3475  0.5782  0.1545
   59SAPC   H2R 4458   3.540   2.428   6.264 -0.1853  0.8815  0.2354
   59SAPC   H2S 4459   3.705   2.450   6.312 -0.9900  1.2226  0.0595
   59SAPC    C3 4460   3.389   2.238   6.631  0.3193 -0.3243  0.2702
   59SAPC    HX 4461   3.435   2.296   6.714 -2.5033 -0.6903  2.2356
   59SAPC    HY 4462   3.338   2.157   6.688 -3.6291  0.8292 -1.3212
   59SAPC   O31 4463   3.301   2.320   6.558  0.2487  0.0936 -0.1887
   59SAPC   C31 4464   3.224   2.257   6.472  0.1769 -0.8106  0.8068
   59SAPC   O32 4465   3.204   2.138   6.476  0.4460 -0.3215  1.0384
   59SAPC   C32 4466   3.149   2.353   6.374 -0.3569 -0.0852 -0.3208
   59SAPC   H2X 4467   3.227   2.424   6.341  0.0184 -0.4231 -0.1741
   59SAPC   H2Y 4468   3.074   2.404   6.438  0.1559 -0.3003  0.4670
   59SAPC   C23 4469   3.678   2.334   6.122 -0.2617 -0.3901 -0.7954
   59SAPC   H3R 4470   3.584   2.300   6.075 -2.4497  5.9129 -1.9191
   59SAPC   H3S 4471   3.760   2.259   6.127  1.9168  1.9110  0.2149
   59SAPC   C24 4472   3.741   2.443   6.037  0.0945 -0.0712  0.4158
   59SAPC   H4R 4473   3.801   2.408   5.950  0.6771  2.4999 -0.3219
   59SAPC   H4S 4474   3.819   2.493   6.098  0.0265  2.1212 -1.1663
   59SAPC   C25 4475   3.647   2.554   5.998  0.6725  0.4583 -0.1679
   59SAPC   H5R 4476   3.595   2.606   6.080  0.8493 -0.3231  0.4568
   59SAPC   C26 4477   3.623   2.600   5.874 -0.0049  0.1012 -0.3510
   59SAPC   H6R 4478   3.570   2.696   5.866  3.7520  2.5174  1.2302
   59SAPC   C27 4479   3.672   2.538   5.745 -0.8574  1.0907  0.3608
   59SAPC   H7R 4480   3.618   2.442   5.730 -1.5268  1.3653  0.9318
   59SAPC   H7S 4481   3.780   2.521   5.766 -1.0502  0.6046  1.0053
   59SAPC   C28 4482   3.653   2.635   5.629 -0.0355  0.2296  0.0482
   59SAPC   H8R 4483   3.629   2.739   5.655  3.1104  0.1740  4.5576
   59SAPC   C29 4484   3.685   2.595   5.508 -0.0659 -0.5201  0.6583
   59SAPC   H9R 4485   3.693   2.664   5.423  0.9962 -2.3496 -0.8184
   59SAPC  C210 4486   3.750   2.462   5.465 -0.3043  0.6019 -0.1261
   59SAPC  H10R 4487   3.748   2.388   5.547  2.1262 -0.5701 -1.0146
   59SAPC  H10S 4488   3.860   2.474   5.452 -0.4368  3.4850  0.7384
   59SAPC  C211 4489   3.686   2.396   5.342 -0.0342 -0.0775 -0.0176
   59SAPC  H11R 4490   3.594   2.336   5.356 -0.3639  0.0116 -1.6533
   59SAPC  C212 4491   3.725   2.422   5.217  0.4456  0.6300  0.4650
   59SAPC  H12R 4492   3.666   2.368   5.141 -1.2429  0.9877  1.4689
   59SAPC  C213 4493   3.834   2.518   5.175 -0.6427  0.2855 -0.0878
   59SAPC  H13R 4494   3.911   2.458   5.123 -1.8580 -2.6485  1.2268
   59SAPC  H13S 4495   3.874   2.562   5.269 -1.5003 -2.4934  1.7250
   59SAPC  C214 4496   3.788   2.633   5.091  0.4337 -0.3843  0.0884
   59SAPC  H14R 4497   3.718   2.700   5.143 -0.1794 -0.4670 -0.6075
   59SAPC  C215 4498   3.829   2.659   4.968  0.1009  0.2826  0.1723
   59SAPC  H15R 4499   3.780   2.751   4.931 -0.5299  0.1376  0.6253
   59SAPC  C216 4500   3.928   2.592   4.886 -0.4111  0.3114  0.0589
   59SAPC  H16R 4501   3.982   2.517   4.948 -1.4831 -1.4849 -1.0718
   59SAPC  H16S 4502   4.016   2.654   4.860 -0.0738  0.0368  0.5208
   59SAPC  C217 4503   3.881   2.532   4.749 -0.1601  0.0202  0.9815
   59SAPC  H17R 4504   3.821   2.599   4.682 -0.1507 -0.3401  0.6082
   59SAPC  H17S 4505   3.817   2.445   4.776 -3.5531  1.4884 -1.5227
   59SAPC  C218 4506   3.996   2.474   4.655 -0.4868  0.5578  0.1475
   59SAPC  H18R 4507   4.050   2.395   4.712  1.5902  1.7041 -0.1332
   59SAPC  H18S 4508   4.067   2.559   4.643  1.8488 -1.2391  0.5386
   59SAPC  C219 4509   3.951   2.421   4.520  0.2507  0.0241  0.2439
   59SAPC  H19R 4510   3.894   2.500   4.467 -1.2355 -2.0322 -1.4179
   59SAPC  H19S 4511   3.878   2.342   4.551 -1.5842  2.7363  3.4910
   59SAPC  C220 4512   4.058   2.371   4.421 -0.0767 -0.1092 -0.1795
   59SAPC  H20R 4513   4.088   2.267   4.447  0.1355  0.1556  0.6668
   59SAPC  H20S 4514   4.142   2.442   4.429  0.1730 -0.3385 -0.7512
   59SAPC  H20T 4515   4.019   2.375   4.317  0.4118  1.5048 -0.3220
   59SAPC   C33 4516   3.068   2.284   6.262 -0.2089  0.4676  0.2312
   59SAPC   H3X 4517   2.988   2.352   6.226  0.2959  1.2890  0.6296
   59SAPC   H3Y 4518   3.017   2.201   6.314  1.4419 -1.9009 -1.6524
   59SAPC   C34 4519   3.151   2.247   6.138 -0.0862  0.4603  0.4871
   59SAPC   H4X 4520   3.085   2.174   6.087  2.9450 -2.1622 -0.0095
   59SAPC   H4Y 4521   3.238   2.186   6.170 -1.4273 -2.0256 -0.3391
   59SAPC   C35 4522   3.171   2.360   6.039 -0.0651 -0.0557  0.3371
   59SAPC   H5X 4523   3.203   2.447   6.100 -0.1874  0.2031  0.0366
   59SAPC   H5Y 4524   3.069   2.397   6.018 -1.4271 -0.5554  4.9022
   59SAPC   C36 4525   3.261   2.327   5.919  0.2048  0.3415 -0.1985
   59SAPC   H6X 4526   3.359   2.283   5.950 -0.4079 -1.4389 -0.6532
   59SAPC   H6Y 4527   3.283   2.423   5.868 -1.9678  0.9570 -0.0539
   59SAPC   C37 4528   3.193   2.233   5.821  0.2291 -0.1494  0.5742
   59SAPC   H7X 4529   3.123   2.297   5.763  0.3583 -1.2562 -0.8495
   59SAPC   H7Y 4530   3.133   2.151   5.867 -0.7349 -0.0830 -0.5211
   59SAPC   C38 4531   3.298   2.170   5.730 -0.2048 -0.7199 -0.0984
   59SAPC   H8X 4532   3.340   2.088   5.792 -0.6535  0.0704  1.3175
   59SAPC   H8Y 4533   3.388   2.231   5.707 -0.9281 -0.6319 -2.9690
   59SAPC   C39 4534   3.234   2.129   5.597  0.2868 -0.1183  0.2387
   59SAPC   H9X 4535   3.160   2.206   5.567 -0.2476 -0.3744  0.8810
   59SAPC   H9Y 4536   3.176   2.039   5.628  0.3056 -0.2460 -0.0894
   59SAPC  C310 4537   3.335   2.108   5.487  0.7742  0.3604 -0.7729
   59SAPC  H10X 4538   3.423   2.057   5.531  1.3003  0.7682 -1.3339
   59SAPC  H10Y 4539   3.375   2.208   5.458 -1.5541  1.6507  0.1588
   59SAPC  C311 4540   3.290   2.029   5.370  0.1663  0.3558  0.4816
   59SAPC  H11X 4541   3.217   2.085   5.307 -0.0767  0.9759  1.2963
   59SAPC  H11Y 4542   3.226   1.945   5.405 -0.4716  0.6090 -0.0584
   59SAPC  C312 4543   3.406   1.974   5.287  0.0724 -1.0547 -0.0709
   59SAPC  H12X 4544   3.451   1.887   5.339  0.3378  0.5529  2.5351
   59SAPC  H12Y 4545   3.478   2.055   5.263 -0.3981 -0.1916  1.3648
   59SAPC  C313 4546   3.341   1.927   5.155  0.0430 -0.5320  0.6305
   59SAPC  H13X 4547   3.277   2.011   5.119  0.1087 -0.6733  0.1728
   59SAPC  H13Y 4548   3.267   1.845   5.169 -2.4324  1.1502 -1.6693
   59SAPC  C314 4549   3.447   1.890   5.045 -0.2590  0.2255 -0.7460
   59SAPC  H14X 4550   3.493   1.792   5.068 -1.2125 -0.3963 -1.3876
   59SAPC  H14Y 4551   3.517   1.976   5.039  1.2249 -0.6359  2.2604
   59SAPC  C315 4552   3.385   1.883   4.910 -0.3828 -0.2779  0.1244
   59SAPC  H15X 4553   3.317   1.796   4.903 -0.3847 -0.1227 -4.1797
   59SAPC  H15Y 4554   3.459   1.859   4.832 -0.5338 -0.6051  0.0820
   59SAPC  C316 4555   3.294   1.993   4.857 -0.1412  0.6482 -0.9863
   59SAPC  H16X 4556   3.212   1.998   4.932  0.4865 -2.2838  0.0265
   59SAPC  H16Y 4557   3.236   1.962   4.767  0.3283 -1.0814 -0.7295
   59SAPC  C317 4558   3.362   2.129   4.844  0.1464 -0.3298 -0.0339
   59SAPC  H17X 4559   3.451   2.126   4.777  0.0012  0.2924 -0.2570
   59SAPC  H17Y 4560   3.412   2.168   4.935 -2.4135 -1.1381  1.8172
   59SAPC  C318 4561   3.269   2.245   4.790  0.0505 -0.7974 -0.7308
   59SAPC  H18X 4562   3.255   2.230   4.681  1.5967  1.9400 -1.4151
   59SAPC  H18Y 4563   3.318   2.344   4.805 -1.1497 -0.3791  0.6201
   59SAPC  H18Z 4564   3.175   2.243   4.849  0.7070  1.8083  0.5580
   60SAPC     N 4565   3.573   2.659   6.734  0.5452 -0.2072  0.6632
   60SAPC   C12 4566   3.686   2.761   6.746 -1.2549 -0.4778 -0.2255
   60SAPC  H12A 4567   3.679   2.833   6.666 -3.4271 -0.2278  0.1477
   60SAPC  H12B 4568   3.780   2.708   6.741 -1.7759 -1.3316 -1.3023
   60SAPC   C13 4569   3.587   2.583   6.606 -0.4440 -0.5844 -0.1527
   60SAPC  H13A 4570   3.509   2.508   6.605 -1.9665  0.7746  2.9776
   60SAPC  H13B 4571   3.569   2.643   6.518  3.1101 -1.1501 -1.4387
   60SAPC  H13C 4572   3.689   2.547   6.596 -0.4183 -0.1428 -1.7809
   60SAPC   C14 4573   3.589   2.567   6.846  0.4711 -0.3453 -0.2816
   60SAPC  H14A 4574   3.506   2.499   6.858  1.1562 -1.0108  0.8436
   60SAPC  H14B 4575   3.675   2.503   6.836  0.1742 -0.9132  0.6440
   60SAPC  H14C 4576   3.601   2.603   6.947 -1.2697 -0.8544  0.1508
   60SAPC   C15 4577   3.435   2.717   6.739  0.2119  0.2221 -0.3673
   60SAPC  H15A 4578   3.423   2.772   6.831 -0.8357 -2.0553  0.9377
   60SAPC  H15B 4579   3.420   2.785   6.657  2.0865  1.2239  0.0714
   60SAPC  H15C 4580   3.356   2.644   6.748  0.7887 -0.1707  2.4229
   60SAPC   C11 4581   3.680   2.852   6.878  0.1544 -0.2811  0.4577
   60SAPC  H11A 4582   3.771   2.915   6.885  2.4901 -3.2303 -0.7327
   60SAPC  H11B 4583   3.675   2.783   6.965 -1.7739 -0.0034  0.6085
   60SAPC     P 4584   3.541   3.046   6.762 -0.3348 -0.3126 -0.3724
   60SAPC   O13 4585   3.431   3.012   6.670 -0.0207  0.2832  0.5674
   60SAPC   O14 4586   3.528   3.174   6.832 -0.0062  0.1215 -0.6269
   60SAPC   O12 4587   3.560   2.932   6.873  0.1365 -0.0637  0.3084
   60SAPC   O11 4588   3.674   3.046   6.681 -0.6339 -0.7213  0.3303
   60SAPC    C1 4589   3.743   3.164   6.639 -0.1768  0.5130 -1.0270
   60SAPC    HA 4590   3.752   3.242   6.717  1.0297  0.7176 -1.3488
   60SAPC    HB 4591   3.844   3.126   6.609 -0.8567 -0.1981 -2.5292
   60SAPC    C2 4592   3.684   3.228   6.510 -0.5396 -0.1000  0.4545
   60SAPC    HS 4593   3.581   3.269   6.521  0.3329  2.5571 -0.4712
   60SAPC   O21 4594   3.684   3.118   6.417 -0.4229  0.1176  0.4171
   60SAPC   C21 4595   3.578   3.105   6.348 -0.7981 -0.1972  0.6211
   60SAPC   O22 4596   3.485   3.182   6.336 -0.3350  0.5006 -0.3934
   60SAPC   C22 4597   3.597   2.966   6.278 -0.2169 -0.3280 -0.2291
   60SAPC   H2R 4598   3.694   2.977   6.226 -0.2874  0.8842 -0.1490
   60SAPC   H2S 4599   3.602   2.884   6.354 -0.5924  0.9889  1.2853
   60SAPC    C3 4600   3.777   3.337   6.452 -0.0759 -0.6480  0.6503
   60SAPC    HX 4601   3.881   3.300   6.438  0.0065 -0.1878 -0.0261
   60SAPC    HY 4602   3.776   3.415   6.531 -1.6411 -2.2536  2.2951
   60SAPC   O31 4603   3.729   3.407   6.334  0.1486 -0.0873 -0.3240
   60SAPC   C31 4604   3.779   3.369   6.221 -0.0001 -0.1238 -0.5190
   60SAPC   O32 4605   3.878   3.298   6.201 -0.2433  0.3510 -0.0101
   60SAPC   C32 4606   3.719   3.452   6.111 -0.3259  1.2127  0.0535
   60SAPC   H2X 4607   3.781   3.545   6.108  1.2500  0.2000 -0.0234
   60SAPC   H2Y 4608   3.615   3.470   6.146 -0.5304 -1.2316  0.8281
   60SAPC   C23 4609   3.481   2.938   6.180  0.5488  0.4461 -0.7078
   60SAPC   H3R 4610   3.378   2.951   6.220  0.3561 -0.2256 -0.9726
   60SAPC   H3S 4611   3.475   2.827   6.170 -1.0703  0.2870  1.2751
   60SAPC   C24 4612   3.489   3.009   6.042  0.0035 -0.9133  0.4728
   60SAPC   H4R 4613   3.593   3.027   6.007  0.2692  0.2932  1.8115
   60SAPC   H4S 4614   3.444   3.110   6.055 -0.3828 -1.1522  1.0158
   60SAPC   C25 4615   3.407   2.944   5.936  0.8849  0.2086  0.4313
   60SAPC   H5R 4616   3.334   2.870   5.971  0.8946  0.9383  2.1062
   60SAPC   C26 4617   3.432   2.944   5.804 -0.3332  0.4598  0.2802
   60SAPC   H6R 4618   3.362   2.891   5.738  0.0961 -0.1430  0.3055
   60SAPC   C27 4619   3.537   3.025   5.735  0.0942  0.2618  0.1572
   60SAPC   H7R 4620   3.625   2.959   5.718  0.5904  1.0868 -0.5673
   60SAPC   H7S 4621   3.581   3.101   5.803  0.5514 -0.0764  0.2437
   60SAPC   C28 4622   3.498   3.100   5.610  0.2142 -0.6018  0.0474
   60SAPC   H8R 4623   3.393   3.132   5.604 -0.1289 -1.7734 -0.5704
   60SAPC   C29 4624   3.580   3.135   5.509  0.3502  0.3174  0.3643
   60SAPC   H9R 4625   3.542   3.201   5.430  0.5870  1.1959  0.9651
   60SAPC  C210 4626   3.724   3.103   5.494 -0.4182  0.3199  0.4434
   60SAPC  H10R 4627   3.765   3.066   5.590 -0.6924 -0.4624  0.2703
   60SAPC  H10S 4628   3.784   3.193   5.470 -0.4518  0.1377 -0.3708
   60SAPC  C211 4629   3.745   2.993   5.391  0.7884  0.3399 -0.2092
   60SAPC  H11R 4630   3.717   2.891   5.420  1.7282  0.4961  1.3498
   60SAPC  C212 4631   3.791   3.004   5.267  0.4556  0.6850  0.3741
   60SAPC  H12R 4632   3.814   2.915   5.207  2.2575  0.5786  1.1746
   60SAPC  C213 4633   3.815   3.130   5.189  0.4399 -0.2535 -0.1038
   60SAPC  H13R 4634   3.757   3.217   5.225  0.1339 -0.6897  0.4877
   60SAPC  H13S 4635   3.765   3.107   5.092 -1.0854  1.2045  0.3047
   60SAPC  C214 4636   3.960   3.163   5.170  0.5052 -0.2017 -0.5936
   60SAPC  H14R 4637   4.014   3.151   5.265 -0.1666 -1.1285 -0.3122
   60SAPC  C215 4638   4.034   3.193   5.062  0.1473 -0.5512  0.2782
   60SAPC  H15R 4639   4.142   3.204   5.079  0.2279 -0.0346 -0.4918
   60SAPC  C216 4640   3.994   3.197   4.919 -0.5076 -0.2175 -0.2641
   60SAPC  H16R 4641   4.011   3.299   4.881 -1.1941  1.0613  2.5942
   60SAPC  H16S 4642   3.884   3.188   4.912 -0.4835 -0.6068 -0.1787
   60SAPC  C217 4643   4.056   3.095   4.825 -0.0510  0.2350 -0.9465
   60SAPC  H17R 4644   4.047   3.003   4.887 -2.6643  1.7593  1.1268
   60SAPC  H17S 4645   4.159   3.127   4.796  0.4700 -0.4941  0.0399
   60SAPC  C218 4646   3.976   3.077   4.695  0.3664 -0.6462  0.0759
   60SAPC  H18R 4647   4.003   3.156   4.621 -1.4369 -2.4882 -2.6942
   60SAPC  H18S 4648   3.867   3.094   4.705  0.8759  2.7474  1.6428
   60SAPC  C219 4649   4.002   2.936   4.642  0.7756 -0.7791  0.1068
   60SAPC  H19R 4650   3.981   2.861   4.722 -1.0113  0.6394  1.0333
   60SAPC  H19S 4651   4.107   2.927   4.607  0.5053  0.2802 -1.0539
   60SAPC  C220 4652   3.916   2.898   4.521  0.2219  0.0513 -0.8539
   60SAPC  H20R 4653   3.809   2.899   4.552  0.5019 -0.5366  0.1794
   60SAPC  H20S 4654   3.939   2.792   4.497 -0.8779 -0.2256 -0.7658
   60SAPC  H20T 4655   3.931   2.968   4.437  0.0574  0.0161 -0.9142
   60SAPC   C33 4656   3.714   3.375   5.975  1.3090 -0.6902 -0.1861
   60SAPC   H3X 4657   3.654   3.282   5.969 -0.0381  0.1184  0.2084
   60SAPC   H3Y 4658   3.817   3.343   5.949  1.4666 -0.6512  0.3801
   60SAPC   C34 4659   3.673   3.473   5.859  0.3674 -0.1497  0.0223
   60SAPC   H4X 4660   3.738   3.561   5.877  0.2441  0.0487 -0.4864
   60SAPC   H4Y 4661   3.567   3.507   5.868  0.7565  2.4164 -3.1392
   60SAPC   C35 4662   3.706   3.432   5.715  0.8620 -0.6324 -0.0520
   60SAPC   H5X 4663   3.636   3.356   5.675  0.1023  0.4387 -0.8117
   60SAPC   H5Y 4664   3.799   3.371   5.710  0.4290 -1.2768 -3.8010
   60SAPC   C36 4665   3.699   3.547   5.613 -0.3998 -0.0749 -0.3362
   60SAPC   H6X 4666   3.777   3.620   5.643 -1.1320  0.6414 -0.1359
   60SAPC   H6Y 4667   3.597   3.591   5.616 -0.5869 -0.3178 -2.1228
   60SAPC   C37 4668   3.711   3.496   5.469  0.6538  0.6319 -0.1921
   60SAPC   H7X 4669   3.623   3.429   5.457  0.5248  0.8428 -0.4335
   60SAPC   H7Y 4670   3.806   3.444   5.443  0.2909 -0.8223  1.2104
   60SAPC   C38 4671   3.689   3.603   5.364 -0.1187  0.3245 -0.0292
   60SAPC   H8X 4672   3.788   3.652   5.352  0.3330 -0.8253 -1.2147
   60SAPC   H8Y 4673   3.623   3.687   5.394  1.5957  1.8403 -0.3348
   60SAPC   C39 4674   3.663   3.546   5.220  0.6466 -0.8372  0.3499
   60SAPC   H9X 4675   3.565   3.494   5.222 -0.7142  1.5384 -0.9578
   60SAPC   H9Y 4676   3.744   3.478   5.184  1.9102 -0.7002  2.7158
   60SAPC  C310 4677   3.656   3.655   5.118  0.1079  0.2115 -0.1054
   60SAPC  H10X 4678   3.755   3.707   5.122  1.1607 -1.7345  1.0037
   60SAPC  H10Y 4679   3.575   3.727   5.142 -1.0858 -1.6450  1.8042
   60SAPC  C311 4680   3.641   3.596   4.973 -0.6873 -0.5898 -0.0219
   60SAPC  H11X 4681   3.538   3.554   4.979 -1.4549  1.1955  0.1223
   60SAPC  H11Y 4682   3.711   3.510   4.973  0.6736  0.4273  1.7281
   60SAPC  C312 4683   3.657   3.700   4.861  0.3385 -0.7034  0.3457
   60SAPC  H12X 4684   3.756   3.750   4.862 -0.1561  0.5369  3.9516
   60SAPC  H12Y 4685   3.582   3.781   4.862 -0.1620 -1.1648  0.4935
   60SAPC  C313 4686   3.640   3.629   4.724  0.0985  0.2112  0.3037
   60SAPC  H13X 4687   3.537   3.586   4.718 -1.0667  2.6909  1.0571
   60SAPC  H13Y 4688   3.706   3.541   4.740  1.1596  0.5793 -1.6719
   60SAPC  C314 4689   3.664   3.710   4.588 -0.3212  0.0575 -0.4855
   60SAPC  H14X 4690   3.772   3.724   4.565  0.1201  1.2884  1.9688
   60SAPC  H14Y 4691   3.611   3.808   4.587 -1.7971 -0.7222 -1.3755
   60SAPC  C315 4692   3.607   3.634   4.473 -0.3318 -0.8911  0.2396
   60SAPC  H15X 4693   3.596   3.708   4.390 -0.9844  0.4477  1.4640
   60SAPC  H15Y 4694   3.512   3.585   4.501  0.8513 -1.4959  3.7725
   60SAPC  C316 4695   3.709   3.519   4.436 -0.1426 -0.1560  0.3443
   60SAPC  H16X 4696   3.654   3.443   4.376  0.4610 -0.8182  0.6184
   60SAPC  H16Y 4697   3.741   3.471   4.531 -1.3235 -0.4837  0.5881
   60SAPC  C317 4698   3.832   3.563   4.350  0.6628  0.6485  0.4737
   60SAPC  H17X 4699   3.906   3.480   4.345  0.0556  0.0929  0.5465
   60SAPC  H17Y 4700   3.883   3.640   4.411  1.7429  0.6289 -0.3810
   60SAPC  C318 4701   3.804   3.605   4.205  0.5708  0.8181 -0.1791
   60SAPC  H18X 4702   3.750   3.523   4.153  1.7247  0.2220 -0.4619
   60SAPC  H18Y 4703   3.888   3.635   4.140  0.4395  2.2653  0.2902
   60SAPC  H18Z 4704   3.732   3.690   4.212 -1.4243 -0.8772  1.3704
   61SAPC     N 4705   1.278   3.658   6.998 -0.3670 -0.0448  0.2239
   61SAPC   C12 4706   1.256   3.704   6.852 -0.7659 -0.1961  0.2923
   61SAPC  H12A 4707   1.347   3.744   6.810 -1.1620 -1.5600 -2.0713
   61SAPC  H12B 4708   1.202   3.797   6.860 -0.2370  0.0996  0.4687
   61SAPC   C13 4709   1.363   3.539   6.992 -0.1907 -0.2714  0.5988
   61SAPC  H13A 4710   1.400   3.506   7.088  0.4779  2.2164  1.2635
   61SAPC  H13B 4711   1.306   3.461   6.943 -2.3945  2.0557 -0.8183
   61SAPC  H13C 4712   1.447   3.556   6.926  0.7073  1.1280  2.0349
   61SAPC   C14 4713   1.346   3.767   7.076 -0.3772 -0.2990 -0.1985
   61SAPC  H14A 4714   1.364   3.745   7.180 -1.0776  0.8778  0.1899
   61SAPC  H14B 4715   1.433   3.806   7.024 -1.1989  1.0952 -0.5867
   61SAPC  H14C 4716   1.279   3.852   7.079 -1.6898 -1.3572  2.3500
   61SAPC   C15 4717   1.144   3.637   7.057 -0.0346  0.3008 -0.1052
   61SAPC  H15A 4718   1.080   3.724   7.060 -0.7268 -0.1934 -0.3749
   61SAPC  H15B 4719   1.083   3.568   7.001  0.1766  0.8102 -0.9860
   61SAPC  H15C 4720   1.151   3.603   7.159  0.9632  0.3963 -0.1347
   61SAPC   C11 4721   1.204   3.601   6.750 -0.1082  0.4768  0.0716
   61SAPC  H11A 4722   1.274   3.515   6.757  1.8196  2.0304  0.6759
   61SAPC  H11B 4723   1.210   3.643   6.647 -1.1055  1.7240  0.4976
   61SAPC     P 4724   0.967   3.689   6.741 -0.1411  0.3504  0.2026
   61SAPC   O13 4725   0.835   3.622   6.744  0.0783  0.9959  0.5019
   61SAPC   O14 4726   0.978   3.810   6.828 -0.4111  0.4239 -0.2617
   61SAPC   O12 4727   1.065   3.575   6.785 -0.3043 -0.1162  0.0537
   61SAPC   O11 4728   1.006   3.720   6.593  0.7592  0.5374 -0.3319
   61SAPC    C1 4729   0.919   3.695   6.476 -0.1525 -0.6770 -0.3602
   61SAPC    HA 4730   0.821   3.664   6.517  0.9958 -1.1279  2.2226
   61SAPC    HB 4731   0.916   3.794   6.424  1.2762 -0.3000  0.2382
   61SAPC    C2 4732   0.981   3.597   6.377  0.0067 -0.6389 -0.1303
   61SAPC    HS 4733   0.909   3.575   6.296  2.3447  3.2207 -3.6644
   61SAPC   O21 4734   1.027   3.473   6.441 -0.5496 -0.6886 -0.1565
   61SAPC   C21 4735   0.934   3.390   6.492  0.6859 -0.1760  0.5334
   61SAPC   O22 4736   0.812   3.413   6.476 -0.3083 -0.4096 -0.2089
   61SAPC   C22 4737   0.991   3.269   6.565  0.6501 -1.1037 -0.4994
   61SAPC   H2R 4738   1.071   3.300   6.635  0.4117  0.3819 -0.8619
   61SAPC   H2S 4739   0.903   3.235   6.626  1.1011 -1.5519 -0.0836
   61SAPC    C3 4740   1.098   3.661   6.298  0.3002  0.3948 -0.2829
   61SAPC    HX 4741   1.143   3.580   6.238 -0.0665 -0.0972  0.0901
   61SAPC    HY 4742   1.164   3.683   6.385  0.1613 -1.0278  0.2035
   61SAPC   O31 4743   1.073   3.785   6.223  0.1343 -0.2686 -0.8552
   61SAPC   C31 4744   1.018   3.765   6.105 -0.2650 -0.2788  0.4009
   61SAPC   O32 4745   0.984   3.658   6.058  0.8944 -0.3896 -0.2349
   61SAPC   C32 4746   1.000   3.898   6.030 -0.0574 -0.0921  0.0147
   61SAPC   H2X 4747   0.927   3.962   6.085  1.2664  0.8402  0.7673
   61SAPC   H2Y 4748   0.961   3.862   5.933 -1.6933  0.0381  0.5850
   61SAPC   C23 4749   1.037   3.155   6.474 -0.0790  0.3263 -0.3331
   61SAPC   H3R 4750   0.978   3.149   6.380  0.9479 -2.0000 -0.8914
   61SAPC   H3S 4751   1.020   3.058   6.525 -1.2894 -0.2977 -1.8531
   61SAPC   C24 4752   1.178   3.157   6.426  0.3098 -0.2315 -0.2567
   61SAPC   H4R 4753   1.246   3.167   6.514 -0.6860  1.1086  0.3868
   61SAPC   H4S 4754   1.197   3.252   6.372  0.3480 -1.2188 -2.0754
   61SAPC   C25 4755   1.219   3.041   6.342 -0.0216  0.0646  0.2115
   61SAPC   H5R 4756   1.227   2.939   6.383  0.4039 -0.6900 -1.6715
   61SAPC   C26 4757   1.249   3.059   6.211 -0.5228 -0.7017 -0.0126
   61SAPC   H6R 4758   1.263   2.970   6.149 -3.3238 -2.1367  1.2373
   61SAPC   C27 4759   1.252   3.188   6.132 -0.9440 -0.1279 -0.6691
   61SAPC   H7R 4760   1.358   3.220   6.124  0.0507 -2.5189  1.5350
   61SAPC   H7S 4761   1.190   3.269   6.175  0.2115 -0.3440  1.5993
   61SAPC   C28 4762   1.183   3.161   6.001 -0.6380 -0.3416  0.9132
   61SAPC   H8R 4763   1.076   3.146   6.019 -0.2650 -1.3353  2.5331
   61SAPC   C29 4764   1.234   3.187   5.879 -0.4225 -0.1413 -0.6885
   61SAPC   H9R 4765   1.172   3.177   5.789  0.6155  2.0526 -1.7150
   61SAPC  C210 4766   1.378   3.217   5.851  0.3534  0.2949 -0.5194
   61SAPC  H10R 4767   1.428   3.291   5.917  0.0757 -0.4966  0.6037
   61SAPC  H10S 4768   1.374   3.262   5.749 -4.1035 -3.4271 -2.3474
   61SAPC  C211 4769   1.456   3.085   5.833 -0.1229 -0.0958  0.1385
   61SAPC  H11R 4770   1.453   3.017   5.919 -0.8296 -2.9184 -1.9594
   61SAPC  C212 4771   1.531   3.054   5.729  0.5285  0.1061  0.4164
   61SAPC  H12R 4772   1.562   2.949   5.726  0.1064 -0.2041  3.5180
   61SAPC  C213 4773   1.562   3.131   5.599  0.5656 -0.4254 -0.3921
   61SAPC  H13R 4774   1.535   3.238   5.609 -0.0856 -0.4180 -1.8652
   61SAPC  H13S 4775   1.485   3.100   5.525 -0.2333  1.8728 -0.6089
   61SAPC  C214 4776   1.702   3.125   5.552  0.3053 -0.4174 -0.2994
   61SAPC  H14R 4777   1.779   3.141   5.629  1.4215 -1.6081 -1.1124
   61SAPC  C215 4778   1.735   3.085   5.429 -0.5992 -0.3205 -0.2467
   61SAPC  H15R 4779   1.842   3.071   5.408 -0.2764 -1.0602  1.6915
   61SAPC  C216 4780   1.641   3.057   5.317  0.2169  0.5656 -0.6577
   61SAPC  H16R 4781   1.550   3.118   5.332 -0.8004 -1.2603  1.0899
   61SAPC  H16S 4782   1.611   2.950   5.316 -0.4461  0.6186  3.0039
   61SAPC  C217 4783   1.711   3.089   5.183 -0.6297 -0.0456 -0.1181
   61SAPC  H17R 4784   1.809   3.038   5.171  0.6038  1.9508  0.9090
   61SAPC  H17S 4785   1.737   3.197   5.183  0.6783 -0.3197 -1.2806
   61SAPC  C218 4786   1.623   3.053   5.065  0.3221  0.2001 -0.1091
   61SAPC  H18R 4787   1.663   3.108   4.977 -0.5171  1.9218  0.5263
   61SAPC  H18S 4788   1.517   3.084   5.067 -0.1724 -1.4352  0.9292
   61SAPC  C219 4789   1.634   2.911   5.035 -0.1931 -0.7657  0.1595
   61SAPC  H19R 4790   1.579   2.852   5.111  1.7185 -0.5271  1.8113
   61SAPC  H19S 4791   1.736   2.868   5.040 -0.1805 -0.6482  1.2129
   61SAPC  C220 4792   1.587   2.871   4.895 -0.7794 -0.0020 -0.0902
   61SAPC  H20R 4793   1.485   2.909   4.870  0.5124  4.1094  0.1132
   61SAPC  H20S 4794   1.588   2.760   4.903 -0.0262  0.1385  2.8213
   61SAPC  H20T 4795   1.651   2.905   4.811  1.3806  1.0404  1.8649
   61SAPC   C33 4796   1.132   3.983   6.003  0.5202 -0.2113  0.2686
   61SAPC   H3X 4797   1.213   3.925   5.954  0.3860  1.3216 -1.9389
   61SAPC   H3Y 4798   1.158   4.049   6.089 -0.0788  0.8499 -0.3318
   61SAPC   C34 4799   1.102   4.078   5.884 -0.3742 -0.2055 -0.2803
   61SAPC   H4X 4800   1.011   4.139   5.905 -0.6175 -1.1817  1.8032
   61SAPC   H4Y 4801   1.087   4.018   5.792  0.9181  0.4611 -0.9556
   61SAPC   C35 4802   1.218   4.167   5.854  0.6185  0.2048 -0.3032
   61SAPC   H5X 4803   1.304   4.104   5.823 -0.7388 -0.4843 -3.0092
   61SAPC   H5Y 4804   1.232   4.237   5.939 -2.4429 -0.6993  1.0549
   61SAPC   C36 4805   1.192   4.259   5.728 -1.0191 -0.4746 -0.5120
   61SAPC   H6X 4806   1.105   4.326   5.745  1.0606  1.7566  2.6071
   61SAPC   H6Y 4807   1.160   4.188   5.649 -0.6666 -0.5957 -0.5480
   61SAPC   C37 4808   1.311   4.335   5.689  0.0923 -0.4034  0.1131
   61SAPC   H7X 4809   1.396   4.283   5.638 -0.5598 -0.2516 -1.1707
   61SAPC   H7Y 4810   1.356   4.374   5.783  1.9931  0.2068 -0.9950
   61SAPC   C38 4811   1.267   4.452   5.596 -0.3003 -0.4828 -0.1774
   61SAPC   H8X 4812   1.358   4.509   5.567 -0.5422  0.2967  0.5339
   61SAPC   H8Y 4813   1.191   4.523   5.636 -0.4439  1.1661 -3.1185
   61SAPC   C39 4814   1.220   4.395   5.461  0.1848 -0.8129 -0.7988
   61SAPC   H9X 4815   1.118   4.358   5.483 -0.1958  0.7524  0.2378
   61SAPC   H9Y 4816   1.298   4.321   5.432  1.1404 -0.5813  1.0396
   61SAPC  C310 4817   1.213   4.504   5.347  0.7363 -0.7616 -0.5744
   61SAPC  H10X 4818   1.316   4.534   5.320  1.5961 -2.3396  0.8205
   61SAPC  H10Y 4819   1.151   4.587   5.389  1.6826 -0.3898  0.1306
   61SAPC  C311 4820   1.143   4.449   5.224  0.3200 -0.1891 -0.0917
   61SAPC  H11X 4821   1.056   4.516   5.208  1.1043  1.1201  0.9124
   61SAPC  H11Y 4822   1.112   4.346   5.249  1.9694 -1.2426 -2.0769
   61SAPC  C312 4823   1.222   4.455   5.098  0.6900 -0.2890 -0.3060
   61SAPC  H12X 4824   1.246   4.563   5.097 -0.7833  0.0629  0.2209
   61SAPC  H12Y 4825   1.156   4.432   5.012 -1.9310  1.5582  1.1001
   61SAPC  C313 4826   1.350   4.357   5.098  0.0603  0.3952 -0.5584
   61SAPC  H13X 4827   1.319   4.257   5.133  0.8797  0.1251 -0.5862
   61SAPC  H13Y 4828   1.433   4.394   5.162 -1.8226  0.8750  1.7172
   61SAPC  C314 4829   1.415   4.351   4.959  0.3737  0.3218  0.0453
   61SAPC  H14X 4830   1.343   4.348   4.874  1.3401  1.9751 -0.8975
   61SAPC  H14Y 4831   1.481   4.263   4.947 -1.3103 -1.6993  3.9888
   61SAPC  C315 4832   1.481   4.482   4.924  0.1666 -0.2789 -0.0275
   61SAPC  H15X 4833   1.535   4.509   5.017  1.2912  1.1424 -1.0609
   61SAPC  H15Y 4834   1.403   4.559   4.905 -2.0923 -2.8269 -1.8443
   61SAPC  C316 4835   1.576   4.480   4.802 -0.3527 -0.2295  0.5984
   61SAPC  H16X 4836   1.633   4.386   4.790  0.7877  0.5438 -0.3969
   61SAPC  H16Y 4837   1.649   4.562   4.821 -0.2587 -0.4395  1.1312
   61SAPC  C317 4838   1.495   4.509   4.675 -0.2529  0.1764  0.5393
   61SAPC  H17X 4839   1.461   4.615   4.671 -1.1455 -0.1046  0.5245
   61SAPC  H17Y 4840   1.397   4.458   4.683 -1.0077  1.6010  0.8406
   61SAPC  C318 4841   1.572   4.481   4.549 -0.3735  0.5191 -0.2527
   61SAPC  H18X 4842   1.588   4.372   4.533  1.2169  0.8211 -0.9114
   61SAPC  H18Y 4843   1.673   4.526   4.556 -0.9296  1.8964 -0.6479
   61SAPC  H18Z 4844   1.517   4.516   4.458 -0.2756  1.2238 -0.0460
   62SAPC     N 4845   3.069   0.649   7.014  0.0900 -0.0437  0.4780
   62SAPC   C12 4846   3.173   0.611   6.905 -0.1548 -0.4132 -0.1560
   62SAPC  H12A 4847   3.136   0.513   6.878  0.3213 -1.4955  2.8395
   62SAPC  H12B 4848   3.269   0.607   6.953  0.1301  0.0620 -0.6826
   62SAPC   C13 4849   3.113   0.770   7.098  0.6783  0.4727  0.2660
   62SAPC  H13A 4850   3.137   0.856   7.038 -0.3561  1.7190  1.5800
   62SAPC  H13B 4851   3.034   0.801   7.165  0.2960 -0.6254  0.3476
   62SAPC  H13C 4852   3.206   0.748   7.149  0.6146  2.0865  1.1418
   62SAPC   C14 4853   2.939   0.669   6.948  0.0181  0.3733 -0.3212
   62SAPC  H14A 4854   2.919   0.578   6.894 -1.7102 -0.3581  1.3992
   62SAPC  H14B 4855   2.860   0.678   7.022  1.6679 -1.0408  1.7197
   62SAPC  H14C 4856   2.952   0.756   6.886  0.5587  2.1731  2.1410
   62SAPC   C15 4857   3.058   0.527   7.104 -0.2551  1.3776  0.1032
   62SAPC  H15A 4858   3.002   0.455   7.047 -1.1183  1.2431  1.0896
   62SAPC  H15B 4859   3.156   0.493   7.133 -0.1244  2.8203  1.4578
   62SAPC  H15C 4860   2.995   0.549   7.189 -0.5923  0.1369  0.1841
   62SAPC   C11 4861   3.189   0.703   6.781 -0.3155 -0.0753  0.4476
   62SAPC  H11A 4862   3.109   0.690   6.705 -1.2444  0.4552  1.3137
   62SAPC  H11B 4863   3.290   0.688   6.735 -0.0357 -2.3243  1.6240
   62SAPC     P 4864   3.269   0.959   6.777  0.3973  0.4973  0.0429
   62SAPC   O13 4865   3.198   1.088   6.802 -0.4260 -1.1201 -0.5236
   62SAPC   O14 4866   3.401   0.931   6.837  0.4470 -0.0650  0.2823
   62SAPC   O12 4867   3.174   0.845   6.821  0.5988  0.1897 -0.0693
   62SAPC   O11 4868   3.270   0.928   6.627 -0.0886 -0.1535 -0.2259
   62SAPC    C1 4869   3.210   1.016   6.536  0.0240 -0.1468 -0.8928
   62SAPC    HA 4870   3.102   1.030   6.558  0.2206  0.6930 -0.4545
   62SAPC    HB 4871   3.253   1.118   6.538  0.0789 -0.1064 -2.3953
   62SAPC    C2 4872   3.223   0.956   6.396 -0.3092  0.1475 -0.6443
   62SAPC    HS 4873   3.155   1.012   6.329  0.6538  1.2344 -0.7586
   62SAPC   O21 4874   3.193   0.817   6.390  0.8779  0.0274  0.4780
   62SAPC   C21 4875   3.070   0.780   6.413  0.4578 -0.4879 -0.4944
   62SAPC   O22 4876   2.973   0.848   6.431 -0.5144 -0.1021  0.1069
   62SAPC   C22 4877   3.063   0.625   6.411  0.4544  0.6292 -0.5335
   62SAPC   H2R 4878   3.109   0.587   6.505 -0.8923 -1.5967 -0.6883
   62SAPC   H2S 4879   2.954   0.604   6.408  0.2007  1.9076 -2.6022
   62SAPC    C3 4880   3.367   0.987   6.351 -0.0862  0.0915 -0.1093
   62SAPC    HX 4881   3.433   0.948   6.431  0.1116  1.3586  0.3617
   62SAPC    HY 4882   3.372   1.096   6.373  0.3347 -0.3417  2.0751
   62SAPC   O31 4883   3.401   0.957   6.213  0.3436 -0.0124 -0.2296
   62SAPC   C31 4884   3.447   0.833   6.186  0.4231 -0.6446 -0.1739
   62SAPC   O32 4885   3.456   0.740   6.264  0.5841  1.0644 -0.2522
   62SAPC   C32 4886   3.498   0.823   6.041  0.4137  0.5144  0.2757
   62SAPC   H2X 4887   3.588   0.759   6.056 -0.8387 -1.1615  0.9198
   62SAPC   H2Y 4888   3.529   0.917   5.991  1.0452 -0.9573 -2.2468
   62SAPC   C23 4889   3.123   0.564   6.284  0.1617  0.2436  1.2715
   62SAPC   H3R 4890   3.123   0.453   6.279 -4.4122  0.0734  0.8023
   62SAPC   H3S 4891   3.227   0.602   6.273 -0.9690  3.6903  1.3972
   62SAPC   C24 4892   3.047   0.607   6.157  0.5373 -0.0456 -0.5871
   62SAPC   H4R 4893   3.108   0.575   6.070 -0.0548 -0.2603 -0.9312
   62SAPC   H4S 4894   3.052   0.718   6.160 -0.2842 -0.0239  0.9120
   62SAPC   C25 4895   2.899   0.574   6.142 -0.3453  0.4383  0.3382
   62SAPC   H5R 4896   2.848   0.593   6.238  2.1589 -1.9328  2.3307
   62SAPC   C26 4897   2.823   0.540   6.034  0.2701 -0.4688 -0.1203
   62SAPC   H6R 4898   2.714   0.532   6.044  0.4060 -1.0486  1.1093
   62SAPC   C27 4899   2.874   0.533   5.892  0.4919  0.2723  0.1662
   62SAPC   H7R 4900   2.878   0.424   5.874  3.3172 -0.0403  2.0316
   62SAPC   H7S 4901   2.983   0.552   5.879  0.7705 -0.4726  1.2898
   62SAPC   C28 4902   2.791   0.611   5.797 -0.7638  0.0567  0.3819
   62SAPC   H8R 4903   2.783   0.718   5.824 -2.2056 -0.4376  2.0340
   62SAPC   C29 4904   2.741   0.564   5.684  0.1920 -0.8482  0.5020
   62SAPC   H9R 4905   2.701   0.644   5.620  2.2290 -1.0369 -1.0878
   62SAPC  C210 4906   2.731   0.423   5.628  0.0274  0.3692  0.5139
   62SAPC  H10R 4907   2.747   0.346   5.706  0.3376  0.5301  0.6154
   62SAPC  H10S 4908   2.818   0.419   5.558  1.3978  0.7666  2.1157
   62SAPC  C211 4909   2.602   0.384   5.560  0.2859  0.5415 -0.3957
   62SAPC  H11R 4910   2.511   0.433   5.594 -0.7209 -1.6243  0.1995
   62SAPC  C212 4911   2.587   0.295   5.462  0.2047 -0.1450 -0.5630
   62SAPC  H12R 4912   2.486   0.277   5.421  0.8413  0.2964 -2.4145
   62SAPC  C213 4913   2.690   0.211   5.398 -0.2417 -0.4477 -0.4838
   62SAPC  H13R 4914   2.660   0.105   5.403 -2.5821  0.1053 -1.4069
   62SAPC  H13S 4915   2.782   0.220   5.460 -0.7934 -1.0325  0.4520
   62SAPC  C214 4916   2.713   0.267   5.256 -0.2705 -0.3856 -0.0895
   62SAPC  H14R 4917   2.758   0.367   5.265 -1.8783  0.2630  1.1931
   62SAPC  C215 4918   2.683   0.217   5.135 -0.2484  0.9402  0.0376
   62SAPC  H15R 4919   2.706   0.275   5.045 -0.6918 -0.3881 -0.9706
   62SAPC  C216 4920   2.624   0.089   5.095  0.0451  0.2064  0.1383
   62SAPC  H16R 4921   2.555   0.098   5.008 -1.5148  0.2708  1.3331
   62SAPC  H16S 4922   2.551   0.056   5.172 -1.6031 -0.1944 -1.5172
   62SAPC  C217 4923   2.730  -0.018   5.066 -0.3874  0.0512 -0.0506
   62SAPC  H17R 4924   2.798  -0.042   5.151  1.5615  1.5396 -1.1283
   62SAPC  H17S 4925   2.796   0.022   4.987 -0.4327 -1.3514 -0.8348
   62SAPC  C218 4926   2.673  -0.152   5.017 -0.4068 -0.2814  0.0547
   62SAPC  H18R 4927   2.756  -0.216   4.981 -1.9340 -1.2037 -2.0760
   62SAPC  H18S 4928   2.593  -0.145   4.939  1.2672 -0.9059 -1.8142
   62SAPC  C219 4929   2.607  -0.243   5.130  0.8421 -0.2838  0.7738
   62SAPC  H19R 4930   2.521  -0.186   5.171  0.5972 -0.4737  0.5258
   62SAPC  H19S 4931   2.693  -0.250   5.201  1.0888 -0.2127  0.4844
   62SAPC  C220 4932   2.558  -0.379   5.084 -0.6681 -0.2305  0.0609
   62SAPC  H20R 4933   2.515  -0.431   5.172 -0.8877 -0.5874 -0.2502
   62SAPC  H20S 4934   2.642  -0.433   5.036 -0.0656  2.1734 -1.7741
   62SAPC  H20T 4935   2.476  -0.366   5.010  0.1300 -0.5921 -0.9058
   62SAPC   C33 4936   3.397   0.744   5.957  0.1143 -0.0908 -0.2911
   62SAPC   H3X 4937   3.355   0.658   6.013  2.5124 -0.1277  1.5973
   62SAPC   H3Y 4938   3.442   0.695   5.869  0.5344 -1.4682  0.6729
   62SAPC   C34 4939   3.284   0.833   5.904 -0.2970 -0.4892 -0.0446
   62SAPC   H4X 4940   3.328   0.925   5.861  0.4290 -0.3574  0.9312
   62SAPC   H4Y 4941   3.218   0.867   5.987 -1.0630  0.6535 -1.0938
   62SAPC   C35 4942   3.201   0.778   5.781 -0.0985 -0.2144 -0.0015
   62SAPC   H5X 4943   3.121   0.710   5.816  1.0531 -1.7013 -0.1402
   62SAPC   H5Y 4944   3.273   0.723   5.716  3.2888  2.0008  1.5804
   62SAPC   C36 4945   3.142   0.887   5.687 -0.7994 -0.7872 -0.0617
   62SAPC   H6X 4946   3.228   0.945   5.648 -1.1669 -0.7381 -0.8164
   62SAPC   H6Y 4947   3.086   0.968   5.737 -1.4919  0.6587 -2.9661
   62SAPC   C37 4948   3.077   0.834   5.564  0.4467 -0.1543  0.3989
   62SAPC   H7X 4949   2.988   0.773   5.591  1.2488 -2.3856 -1.6348
   62SAPC   H7Y 4950   3.156   0.773   5.517  0.5292 -0.4857  0.9545
   62SAPC   C38 4951   3.021   0.943   5.475 -0.3635 -0.4562 -0.5244
   62SAPC   H8X 4952   3.101   1.017   5.457 -0.2903 -0.5765 -0.7036
   62SAPC   H8Y 4953   2.928   0.977   5.525 -0.7842 -2.0748 -0.1381
   62SAPC   C39 4954   2.970   0.888   5.342 -0.8123  0.5744  0.0654
   62SAPC   H9X 4955   2.881   0.823   5.361 -1.0611  1.0099  0.4095
   62SAPC   H9Y 4956   3.050   0.830   5.292 -2.5484  0.6511 -3.0682
   62SAPC  C310 4957   2.933   1.002   5.244 -0.5701 -0.4457  0.5498
   62SAPC  H10X 4958   3.025   1.065   5.237 -0.5237 -0.5594  0.1122
   62SAPC  H10Y 4959   2.844   1.051   5.289 -2.3262 -1.9540 -1.0896
   62SAPC  C311 4960   2.892   0.930   5.115  0.1220 -0.0054 -0.4235
   62SAPC  H11X 4961   2.792   0.882   5.121 -0.7450  1.6576 -0.8657
   62SAPC  H11Y 4962   2.964   0.850   5.091  0.9302  0.6112 -0.0959
   62SAPC  C312 4963   2.882   1.026   5.002 -0.2808 -0.3880 -0.0472
   62SAPC  H12X 4964   2.985   1.048   4.969 -0.2355 -1.7139 -0.8610
   62SAPC  H12Y 4965   2.829   1.120   5.029 -0.1854 -0.2265 -0.4186
   62SAPC  C313 4966   2.814   0.967   4.871 -0.3835 -0.3384  0.4053
   62SAPC  H13X 4967   2.714   0.929   4.902  0.0956 -0.1663  2.2890
   62SAPC  H13Y 4968   2.880   0.884   4.837  0.4336  1.1362 -1.8561
   62SAPC  C314 4969   2.790   1.064   4.757  0.6097  0.4083  0.0171
   62SAPC  H14X 4970   2.873   1.098   4.691 -0.6721  1.5235 -1.0902
   62SAPC  H14Y 4971   2.754   1.150   4.818  0.8929 -1.1138  2.4387
   62SAPC  C315 4972   2.685   1.014   4.653 -0.1947  0.2261 -0.3561
   62SAPC  H15X 4973   2.619   0.945   4.710 -1.2254 -0.1388 -1.9304
   62SAPC  H15Y 4974   2.736   0.954   4.574  1.1757  0.6887  0.1450
   62SAPC  C316 4975   2.584   1.109   4.587 -0.6558 -0.6620  0.2305
   62SAPC  H16X 4976   2.498   1.149   4.645 -1.0933 -1.1267 -0.0950
   62SAPC  H16Y 4977   2.536   1.046   4.510 -1.6731  2.3713 -1.8033
   62SAPC  C317 4978   2.643   1.230   4.512 -0.9061  0.0666  0.0137
   62SAPC  H17X 4979   2.752   1.224   4.496 -0.6986  0.3877  1.1876
   62SAPC  H17Y 4980   2.624   1.325   4.567  1.9328 -0.1422  1.5431
   62SAPC  C318 4981   2.588   1.245   4.373  0.3629 -0.6605 -0.0015
   62SAPC  H18X 4982   2.591   1.153   4.311 -0.9335  0.0616 -1.1999
   62SAPC  H18Y 4983   2.636   1.330   4.320  0.5970 -0.7202  0.1117
   62SAPC  H18Z 4984   2.483   1.274   4.395  0.9654  2.0831 -0.4180
   63SAPC     N 4985   4.473   3.070   7.131  0.5612  0.1297 -0.2222
   63SAPC   C12 4986   4.581   3.074   7.026 -0.0180 -0.0759 -0.5118
   63SAPC  H12A 4987   4.602   2.977   6.984 -0.5832  0.9052 -3.2555
   63SAPC  H12B 4988   4.673   3.094   7.079  0.6003 -1.1929 -1.1299
   63SAPC   C13 4989   4.533   3.006   7.249 -0.5639  0.0264  0.9247
   63SAPC  H13A 4990   4.461   2.996   7.329 -2.7919  1.6396 -0.7475
   63SAPC  H13B 4991   4.550   2.903   7.221 -1.1383  0.0264  0.5713
   63SAPC  H13C 4992   4.619   3.064   7.279 -1.0580  1.7357 -0.7713
   63SAPC   C14 4993   4.420   3.205   7.179 -0.1407 -0.7454 -1.1471
   63SAPC  H14A 4994   4.361   3.188   7.268  0.8281  0.6657 -0.1797
   63SAPC  H14B 4995   4.506   3.260   7.215 -1.3021 -0.1412  0.8782
   63SAPC  H14C 4996   4.385   3.267   7.098  2.4345 -0.5126 -2.1676
   63SAPC   C15 4997   4.357   2.988   7.080  0.4864  0.2391  0.1993
   63SAPC  H15A 4998   4.311   3.014   6.986  0.3581 -1.7310 -0.3194
   63SAPC  H15B 4999   4.383   2.886   7.055 -0.4778 -0.1957  0.8798
   63SAPC  H15C 5000   4.275   2.983   7.151 -0.2390 -0.6525 -0.6751
   63SAPC   C11 5001   4.580   3.177   6.912 -0.1872 -0.8443  0.0150
   63SAPC  H11A 5002   4.680   3.172   6.863  0.7001  1.8423  1.3425
   63SAPC  H11B 5003   4.591   3.282   6.948  0.1387 -1.3400  1.4171
   63SAPC     P 5004   4.484   3.079   6.691  0.2499 -0.1516 -0.0269
   63SAPC   O13 5005   4.528   2.931   6.708  0.4913 -0.6441  0.0101
   63SAPC   O14 5006   4.354   3.094   6.622 -0.0989  0.4452  0.1759
   63SAPC   O12 5007   4.472   3.161   6.821  0.5474 -0.3582  0.3383
   63SAPC   O11 5008   4.584   3.167   6.608  0.4756 -0.0480 -0.2250
   63SAPC    C1 5009   4.576   3.313   6.602  0.1301  1.0013  0.3358
   63SAPC    HA 5010   4.514   3.355   6.684 -1.6144  0.7377 -0.7881
   63SAPC    HB 5011   4.679   3.354   6.608 -0.3401  2.7977 -2.2471
   63SAPC    C2 5012   4.502   3.359   6.470 -0.9254  0.4815  0.1522
   63SAPC    HS 5013   4.417   3.289   6.460 -0.8152  0.6564 -3.0132
   63SAPC   O21 5014   4.591   3.352   6.349  0.4060  0.0219 -0.7023
   63SAPC   C21 5015   4.520   3.310   6.244 -0.9874  0.1547 -0.1666
   63SAPC   O22 5016   4.409   3.275   6.239 -0.0602  0.1865 -0.0828
   63SAPC   C22 5017   4.592   3.345   6.109 -0.3835  1.4279  0.1552
   63SAPC   H2R 5018   4.623   3.449   6.129  1.0466  1.1222 -0.3377
   63SAPC   H2S 5019   4.687   3.286   6.111 -0.7195  0.8622 -0.3182
   63SAPC    C3 5020   4.430   3.494   6.481 -0.0843 -0.5588 -0.3959
   63SAPC    HX 5021   4.506   3.574   6.497  3.1970 -3.5172 -0.0591
   63SAPC    HY 5022   4.370   3.505   6.573  0.0647  2.4657 -0.5652
   63SAPC   O31 5023   4.349   3.532   6.371  0.3393  0.3215 -0.7670
   63SAPC   C31 5024   4.216   3.516   6.384  0.1579  0.0933  0.0362
   63SAPC   O32 5025   4.164   3.466   6.480 -0.0477 -0.3756  0.0550
   63SAPC   C32 5026   4.134   3.563   6.259 -0.0232  0.6172 -0.4023
   63SAPC   H2X 5027   4.158   3.671   6.263 -1.1770  0.8584  3.1619
   63SAPC   H2Y 5028   4.025   3.554   6.277 -0.1100  1.3046 -0.5836
   63SAPC   C23 5029   4.519   3.301   5.983  0.2638 -0.1266 -0.0141
   63SAPC   H3R 5030   4.424   3.359   5.976 -0.9817 -1.9367  1.1605
   63SAPC   H3S 5031   4.477   3.198   5.985 -0.1595 -0.0742 -2.3421
   63SAPC   C24 5032   4.597   3.320   5.851 -1.3016 -0.1518 -0.3699
   63SAPC   H4R 5033   4.649   3.418   5.857  1.5572 -1.5540 -0.6570
   63SAPC   H4S 5034   4.519   3.330   5.772 -1.1424  1.0249 -0.3838
   63SAPC   C25 5035   4.689   3.202   5.819 -0.5910  0.0730 -0.3905
   63SAPC   H5R 5036   4.742   3.160   5.906 -2.6906 -0.4323  0.7184
   63SAPC   C26 5037   4.708   3.156   5.696 -0.1011 -0.2879  0.3846
   63SAPC   H6R 5038   4.785   3.080   5.676  0.7656  0.4523  0.8284
   63SAPC   C27 5039   4.646   3.207   5.563  0.8084 -0.3743 -0.1362
   63SAPC   H7R 5040   4.702   3.296   5.529  3.4999 -2.0522 -0.3587
   63SAPC   H7S 5041   4.549   3.260   5.579  1.6715  1.7909 -1.7403
   63SAPC   C28 5042   4.620   3.094   5.465  0.5757  0.3463  0.2457
   63SAPC   H8R 5043   4.540   3.026   5.496  1.4360 -1.0091 -0.4027
   63SAPC   C29 5044   4.709   3.044   5.380 -0.1175  0.8591 -0.0090
   63SAPC   H9R 5045   4.678   2.956   5.322  0.5826  0.1570  0.6484
   63SAPC  C210 5046   4.846   3.102   5.350 -0.2118 -0.7490 -0.4189
   63SAPC  H10R 5047   4.921   3.023   5.374 -1.0168 -1.5742 -0.5458
   63SAPC  H10S 5048   4.867   3.187   5.419 -0.2891 -1.1532  0.1176
   63SAPC  C211 5049   4.840   3.158   5.210  0.8358  0.0426  0.2465
   63SAPC  H11R 5050   4.783   3.251   5.192 -0.1348 -0.4261  0.8287
   63SAPC  C212 5051   4.888   3.093   5.102 -0.5125 -0.1053  0.5101
   63SAPC  H12R 5052   4.887   3.147   5.006  0.1632 -0.9212  0.0210
   63SAPC  C213 5053   4.957   2.959   5.089  0.3430  0.2825  0.4313
   63SAPC  H13R 5054   4.978   2.909   5.186  0.8368  0.3949  0.3877
   63SAPC  H13S 5055   5.062   2.978   5.056  1.0440 -0.2087  2.2690
   63SAPC  C214 5056   4.869   2.864   5.016  0.8840  0.2786  0.5131
   63SAPC  H14R 5057   4.788   2.821   5.077  0.8722  0.8224  0.8850
   63SAPC  C215 5058   4.870   2.831   4.883  0.2681 -0.6327 -0.0981
   63SAPC  H15R 5059   4.798   2.762   4.837  1.1474 -1.6469  0.0149
   63SAPC  C216 5060   4.975   2.886   4.789  0.4201 -1.0163 -0.3224
   63SAPC  H16R 5061   5.039   2.806   4.747 -0.6705 -1.2707 -1.5406
   63SAPC  H16S 5062   5.041   2.960   4.839 -0.0156 -1.8577  1.5866
   63SAPC  C217 5063   4.907   2.958   4.658 -0.2308  0.1360  0.2589
   63SAPC  H17R 5064   4.843   3.041   4.695 -0.8408  1.0506 -2.6352
   63SAPC  H17S 5065   4.838   2.880   4.620  0.9645  0.3351 -2.5360
   63SAPC  C218 5066   5.010   2.997   4.548  0.3523 -0.0623  0.4215
   63SAPC  H18R 5067   5.041   2.900   4.504  0.2334 -0.5013  1.2814
   63SAPC  H18S 5068   5.093   3.058   4.590  1.3195  1.2146 -3.0444
   63SAPC  C219 5069   4.948   3.097   4.451 -0.4704 -0.4246 -0.5480
   63SAPC  H19R 5070   4.944   3.199   4.496 -2.8171 -0.5345 -0.4048
   63SAPC  H19S 5071   4.841   3.071   4.433 -0.5765 -2.5521  2.4620
   63SAPC  C220 5072   5.022   3.092   4.319  0.3485 -0.4226  0.9095
   63SAPC  H20R 5073   4.958   3.128   4.236 -0.7283 -1.1257  1.4184
   63SAPC  H20S 5074   5.057   2.990   4.293 -1.3759 -0.7829 -0.1230
   63SAPC  H20T 5075   5.107   3.163   4.324  0.5184 -0.5173 -0.3202
   63SAPC   C33 5076   4.172   3.479   6.137 -0.6212  0.1558  0.2549
   63SAPC   H3X 5077   4.119   3.385   6.161  0.6455  0.1039  3.3600
   63SAPC   H3Y 5078   4.275   3.440   6.128 -0.2877  1.2445 -0.9623
   63SAPC   C34 5079   4.110   3.536   6.011  0.3403 -0.4267  0.3634
   63SAPC   H4X 5080   4.148   3.632   5.970  1.9106 -1.9196 -1.9477
   63SAPC   H4Y 5081   3.999   3.546   6.018  0.6309  2.6880  2.1354
   63SAPC   C35 5082   4.121   3.427   5.890 -0.1483  0.4440  0.3001
   63SAPC   H5X 5083   4.046   3.346   5.905 -0.2364 -0.0519 -2.4275
   63SAPC   H5Y 5084   4.215   3.369   5.901  0.3395  0.9394 -1.1147
   63SAPC   C36 5085   4.101   3.508   5.761  0.2572 -0.0157 -0.1289
   63SAPC   H6X 5086   4.186   3.580   5.765 -1.5603  2.4619 -2.2406
   63SAPC   H6Y 5087   4.003   3.560   5.763 -0.0648 -0.4174 -2.4080
   63SAPC   C37 5088   4.104   3.435   5.631 -0.2442  0.2346  0.0660
   63SAPC   H7X 5089   4.007   3.384   5.616  0.3696 -0.5458 -1.4834
   63SAPC   H7Y 5090   4.181   3.355   5.631  0.2403  0.6776  1.1137
   63SAPC   C38 5091   4.124   3.541   5.519 -0.7145  0.0366  0.5354
   63SAPC   H8X 5092   4.224   3.586   5.532  0.2103 -2.0336  0.9603
   63SAPC   H8Y 5093   4.043   3.615   5.531 -2.4027 -1.2664 -1.8352
   63SAPC   C39 5094   4.111   3.481   5.379  0.3485  0.5234 -0.0168
   63SAPC   H9X 5095   4.008   3.439   5.370 -0.3271  2.0583  0.2514
   63SAPC   H9Y 5096   4.177   3.393   5.365 -0.5531 -0.1359 -0.1980
   63SAPC  C310 5097   4.129   3.582   5.263 -0.5075 -0.8493  0.1073
   63SAPC  H10X 5098   4.227   3.634   5.262 -1.4849  1.1683 -2.8223
   63SAPC  H10Y 5099   4.055   3.661   5.288  1.6828  0.9413  1.2522
   63SAPC  C311 5100   4.097   3.535   5.126 -0.1642  0.1800 -0.0305
   63SAPC  H11X 5101   4.004   3.476   5.115 -1.0397  1.9347 -3.4527
   63SAPC  H11Y 5102   4.179   3.473   5.084  0.8696  1.3476  0.2081
   63SAPC  C312 5103   4.080   3.648   5.027 -0.2489 -0.2398 -0.1084
   63SAPC  H12X 5104   4.174   3.707   5.022 -0.2682  0.1161  2.3583
   63SAPC  H12Y 5105   3.998   3.712   5.066 -0.6237 -1.2629  0.8461
   63SAPC  C313 5106   4.038   3.603   4.886 -0.2696  0.1040 -0.2327
   63SAPC  H13X 5107   3.992   3.688   4.831  2.9760  0.9820 -1.8528
   63SAPC  H13Y 5108   3.950   3.537   4.896 -1.5789  2.1007  2.5518
   63SAPC  C314 5109   4.146   3.545   4.794 -0.1401 -0.9508 -0.1694
   63SAPC  H14X 5110   4.194   3.465   4.854 -1.5986 -0.3594  1.8988
   63SAPC  H14Y 5111   4.224   3.617   4.763 -0.4444 -0.2600  0.6335
   63SAPC  C315 5112   4.091   3.489   4.669 -0.4331  0.0576  0.4161
   63SAPC  H15X 5113   4.051   3.568   4.602 -1.2257 -1.1101 -0.5371
   63SAPC  H15Y 5114   4.010   3.416   4.689  0.0853  0.3072  3.9535
   63SAPC  C316 5115   4.200   3.427   4.582 -0.1733 -0.4143 -0.5520
   63SAPC  H16X 5116   4.222   3.327   4.623  2.8789  0.9700  1.6226
   63SAPC  H16Y 5117   4.292   3.489   4.576  0.6196 -1.4651  0.3155
   63SAPC  C317 5118   4.150   3.401   4.439  0.2457  0.2425  0.0418
   63SAPC  H17X 5119   4.118   3.502   4.406 -1.0210 -0.6022 -1.4088
   63SAPC  H17Y 5120   4.068   3.327   4.438  0.6251 -0.1956  0.5673
   63SAPC  C318 5121   4.269   3.356   4.350 -0.0608  0.1577  0.0482
   63SAPC  H18X 5122   4.304   3.255   4.377 -0.3552  0.5746  2.1801
   63SAPC  H18Y 5123   4.350   3.432   4.353  0.0491  0.0101  1.1827
   63SAPC  H18Z 5124   4.233   3.353   4.245 -1.7263  1.6252  0.5179
   64SAPC     N 5125   4.086   4.551   7.384 -0.1966  0.2253 -0.2765
   64SAPC   C12 5126   4.040   4.414   7.331 -0.1568 -0.2028 -0.3095
   64SAPC  H12A 5127   3.972   4.364   7.399  0.8440 -0.3553  0.6088
   64SAPC  H12B 5128   4.125   4.350   7.317 -1.6512 -2.0017 -1.6374
   64SAPC   C13 5129   3.972   4.644   7.392  0.3905 -0.5518 -0.5091
   64SAPC  H13A 5130   3.935   4.653   7.291  0.0586  1.0617 -0.2737
   64SAPC  H13B 5131   3.885   4.600   7.439 -1.2665  0.5021 -2.4207
   64SAPC  H13C 5132   4.005   4.740   7.430 -1.1649 -0.3568  0.4530
   64SAPC   C14 5133   4.140   4.527   7.520 -0.3705  0.2500  0.5448
   64SAPC  H14A 5134   4.068   4.519   7.600 -0.6161 -1.5032  0.1906
   64SAPC  H14B 5135   4.190   4.431   7.515  0.3725  0.4423  2.8592
   64SAPC  H14C 5136   4.213   4.599   7.553  2.5140 -1.9695 -0.6301
   64SAPC   C15 5137   4.198   4.609   7.294  0.5934 -0.0695  0.1392
   64SAPC  H15A 5138   4.258   4.687   7.338 -0.2452  1.0111 -0.5840
   64SAPC  H15B 5139   4.266   4.528   7.273  1.4465 -0.0968  2.7153
   64SAPC  H15C 5140   4.144   4.638   7.205  0.9235  0.9720  0.2622
   64SAPC   C11 5141   3.978   4.427   7.190  0.9324 -0.1554  1.0094
   64SAPC  H11A 5142   3.871   4.447   7.211  0.4555 -2.8001  1.5211
   64SAPC  H11B 5143   3.982   4.323   7.149  3.3060  0.2697  0.0235
   64SAPC     P 5144   3.938   4.617   7.018  0.7958 -0.2966  0.3232
   64SAPC   O13 5145   3.813   4.640   7.096 -0.0209 -0.3491  0.5186
   64SAPC   O14 5146   4.015   4.739   6.982  0.4010 -0.3984  0.4955
   64SAPC   O12 5147   4.035   4.520   7.096  0.0630 -0.0105 -0.1888
   64SAPC   O11 5148   3.911   4.526   6.893  0.4224  0.3174  0.2170
   64SAPC    C1 5149   4.017   4.493   6.799 -0.1485  0.0841 -0.1501
   64SAPC    HA 5150   4.111   4.493   6.858 -2.0366 -1.0447  3.1187
   64SAPC    HB 5151   4.000   4.394   6.752 -0.9456  1.0159 -1.9460
   64SAPC    C2 5152   4.034   4.595   6.686  0.2245 -0.4265 -0.6536
   64SAPC    HS 5153   4.044   4.697   6.730 -3.3768  1.0276 -2.7677
   64SAPC   O21 5154   3.920   4.582   6.588  0.3590  0.0396 -0.2860
   64SAPC   C21 5155   3.855   4.685   6.582  0.7315 -0.2443 -0.1957
   64SAPC   O22 5156   3.877   4.793   6.635 -0.0346 -0.0206 -0.2202
   64SAPC   C22 5157   3.737   4.675   6.482 -0.0934  0.9918 -0.1026
   64SAPC   H2R 5158   3.778   4.604   6.407  0.4090 -0.0323  1.1030
   64SAPC   H2S 5159   3.649   4.620   6.523  0.1387  0.3264 -0.4861
   64SAPC    C3 5160   4.157   4.563   6.604 -0.5326  1.3051  0.2110
   64SAPC    HX 5161   4.147   4.472   6.542  0.7272  1.0161  0.3985
   64SAPC    HY 5162   4.237   4.525   6.672 -1.6992  0.9355  1.4197
   64SAPC   O31 5163   4.205   4.664   6.517 -0.0138  0.0748 -0.6507
   64SAPC   C31 5164   4.262   4.768   6.563  0.3414 -0.1199 -0.7702
   64SAPC   O32 5165   4.266   4.801   6.681  0.2567 -0.0967  0.1253
   64SAPC   C32 5166   4.318   4.846   6.439  0.0509  0.7402  0.2465
   64SAPC   H2X 5167   4.234   4.848   6.367  0.3409 -1.8607 -0.2705
   64SAPC   H2Y 5168   4.401   4.792   6.388 -1.5585 -0.3223 -1.3634
   64SAPC   C23 5169   3.686   4.810   6.419  0.2768  0.4823 -0.9027
   64SAPC   H3R 5170   3.768   4.877   6.385  0.6631  0.0934 -0.7503
   64SAPC   H3S 5171   3.630   4.867   6.497  1.4630  1.2920 -0.6106
   64SAPC   C24 5172   3.607   4.777   6.293 -0.0805  0.0020  0.0906
   64SAPC   H4R 5173   3.542   4.690   6.315  2.0382 -1.7552 -0.3159
   64SAPC   H4S 5174   3.681   4.746   6.215  0.9159  1.8138  0.2531
   64SAPC   C25 5175   3.524   4.896   6.252 -0.7759  0.1837  0.4853
   64SAPC   H5R 5176   3.458   4.932   6.333 -0.8724  0.5420  0.2481
   64SAPC   C26 5177   3.518   4.961   6.133 -0.0604 -0.8492 -0.1863
   64SAPC   H6R 5178   3.445   5.043   6.123 -0.0524 -0.6976  0.8797
   64SAPC   C27 5179   3.581   4.921   6.003  0.0617 -0.0876  0.7338
   64SAPC   H7R 5180   3.671   4.862   6.029 -1.8666 -3.2549  0.6865
   64SAPC   H7S 5181   3.620   5.017   5.963 -2.2517  0.4893 -0.2934
   64SAPC   C28 5182   3.503   4.850   5.892  0.3300 -0.0889 -0.1889
   64SAPC   H8R 5183   3.524   4.742   5.899 -0.3130 -0.2651 -0.8150
   64SAPC   C29 5184   3.410   4.904   5.810  0.3928  0.0241  0.5093
   64SAPC   H9R 5185   3.352   4.839   5.743 -0.7157  0.4419  1.0485
   64SAPC  C210 5186   3.380   5.053   5.801 -0.3772 -0.8609  0.1025
   64SAPC  H10R 5187   3.377   5.080   5.693  1.8785 -0.2368  0.1343
   64SAPC  H10S 5188   3.464   5.111   5.844 -0.2189 -1.0068 -0.0051
   64SAPC  C211 5189   3.249   5.089   5.873 -0.3502 -0.3037 -0.6118
   64SAPC  H11R 5190   3.254   5.124   5.977 -1.8143  2.4824 -1.3934
   64SAPC  C212 5191   3.118   5.088   5.824 -0.7625 -0.2491  0.0161
   64SAPC  H12R 5192   3.028   5.112   5.882 -2.5841 -0.5121 -2.5205
   64SAPC  C213 5193   3.079   5.058   5.681  0.3192 -0.1780 -0.7447
   64SAPC  H13R 5194   3.150   4.995   5.622 -1.6886 -0.5282 -2.9302
   64SAPC  H13S 5195   3.067   5.152   5.623  1.4554 -0.4572 -1.4763
   64SAPC  C214 5196   2.939   4.981   5.677 -0.5610 -0.1707 -0.6819
   64SAPC  H14R 5197   2.939   4.871   5.675  1.4494 -0.2072 -2.3539
   64SAPC  C215 5198   2.822   5.043   5.665  0.1966  1.0603  0.0392
   64SAPC  H15R 5199   2.730   4.986   5.648  1.3101 -1.2061  1.2094
   64SAPC  C216 5200   2.810   5.192   5.673  0.1837 -0.5002  0.4167
   64SAPC  H16R 5201   2.774   5.232   5.576  0.6251 -1.1165 -0.0066
   64SAPC  H16S 5202   2.901   5.249   5.701 -0.6432  1.3237 -0.4395
   64SAPC  C217 5203   2.696   5.243   5.770 -0.0768  0.1119 -0.5433
   64SAPC  H17R 5204   2.720   5.218   5.876 -2.6336 -5.0850 -0.8558
   64SAPC  H17S 5205   2.598   5.192   5.754 -0.9735  0.1708  3.4997
   64SAPC  C218 5206   2.678   5.394   5.747  0.0680  0.1914  0.6269
   64SAPC  H18R 5207   2.634   5.413   5.647  0.1572 -2.2300  0.0664
   64SAPC  H18S 5208   2.781   5.436   5.754 -0.5101  1.8329 -0.2559
   64SAPC  C219 5209   2.569   5.465   5.839 -0.4777  0.0042 -0.4502
   64SAPC  H19R 5210   2.563   5.412   5.936 -0.0344  0.3553 -0.2322
   64SAPC  H19S 5211   2.469   5.456   5.790 -0.9927 -1.5474  0.7712
   64SAPC  C220 5212   2.602   5.612   5.874  0.3810 -0.1730  0.0437
   64SAPC  H20R 5213   2.613   5.661   5.776 -2.2860 -0.0583 -0.2753
   64SAPC  H20S 5214   2.697   5.623   5.931  1.8938  0.6344 -2.4800
   64SAPC  H20T 5215   2.525   5.665   5.934  1.2400 -0.1569  1.1633
   64SAPC   C33 5216   4.365   4.991   6.469 -0.7658  0.2892 -0.6237
   64SAPC   H3X 5217   4.446   4.992   6.545 -0.2175 -0.4240 -1.1931
   64SAPC   H3Y 5218   4.279   5.049   6.510  0.1530  0.3408  1.3752
   64SAPC   C34 5219   4.419   5.068   6.349 -0.3161 -0.5521  0.0202
   64SAPC   H4X 5220   4.328   5.078   6.285 -0.2208 -3.2872 -0.6669
   64SAPC   H4Y 5221   4.497   5.009   6.297 -0.5383 -2.1375  1.4184
   64SAPC   C35 5222   4.457   5.213   6.374 -0.0315  0.0936 -0.1910
   64SAPC   H5X 5223   4.511   5.216   6.470 -1.1561  0.0907  0.4670
   64SAPC   H5Y 5224   4.368   5.277   6.394  0.4611  0.3223  1.3744
   64SAPC   C36 5225   4.554   5.272   6.276  0.2631 -0.1916  0.5455
   64SAPC   H6X 5226   4.654   5.236   6.308 -0.4777 -1.5607  1.4248
   64SAPC   H6Y 5227   4.559   5.379   6.303  0.8069 -0.7697  2.9545
   64SAPC   C37 5228   4.521   5.248   6.127  1.1563 -0.2607  0.1891
   64SAPC   H7X 5229   4.411   5.263   6.127  1.3101  1.1957  2.5996
   64SAPC   H7Y 5230   4.541   5.142   6.098 -0.5902 -0.6509  0.2894
   64SAPC   C38 5231   4.596   5.348   6.039 -0.0658 -0.3456 -0.7049
   64SAPC   H8X 5232   4.695   5.359   6.088 -0.0827 -1.7139 -0.3121
   64SAPC   H8Y 5233   4.546   5.446   6.030  0.6559 -0.0018 -1.0607
   64SAPC   C39 5234   4.611   5.289   5.905  0.7580  0.1626  0.5216
   64SAPC   H9X 5235   4.666   5.193   5.918  0.9356  0.0839 -0.6986
   64SAPC   H9Y 5236   4.673   5.353   5.839  0.0430 -0.6583 -0.9835
   64SAPC  C310 5237   4.476   5.265   5.834 -0.2732 -0.0381 -0.0719
   64SAPC  H10X 5238   4.412   5.356   5.828  0.5532  0.6500  1.1927
   64SAPC  H10Y 5239   4.419   5.191   5.894  0.6908 -0.8926 -0.1924
   64SAPC  C311 5240   4.497   5.224   5.684 -0.1600 -0.6402 -0.3960
   64SAPC  H11X 5241   4.470   5.116   5.677  1.0738 -0.9500 -0.7467
   64SAPC  H11Y 5242   4.606   5.240   5.667  0.2489 -2.3524  0.3594
   64SAPC  C312 5243   4.411   5.304   5.589 -0.2870 -0.0523  0.1010
   64SAPC  H12X 5244   4.423   5.413   5.607 -1.7927 -0.1450  2.1259
   64SAPC  H12Y 5245   4.305   5.277   5.607  0.4793 -2.9461  0.7474
   64SAPC  C313 5246   4.435   5.276   5.441 -0.2500 -0.7245 -0.5277
   64SAPC  H13X 5247   4.359   5.346   5.400 -1.4847 -0.7528  1.5786
   64SAPC  H13Y 5248   4.395   5.176   5.415 -2.5087  0.1997 -0.8803
   64SAPC  C314 5249   4.575   5.296   5.394 -0.5537 -0.2674 -0.1251
   64SAPC  H14X 5250   4.630   5.201   5.414 -1.3546 -0.5554  0.8586
   64SAPC  H14Y 5251   4.618   5.379   5.453  0.1178 -0.3774 -0.4582
   64SAPC  C315 5252   4.582   5.321   5.242  0.2702 -0.9887  0.5576
   64SAPC  H15X 5253   4.489   5.374   5.211 -0.2311 -1.4941  1.1591
   64SAPC  H15Y 5254   4.575   5.225   5.187 -0.1394 -0.4017 -0.4527
   64SAPC  C316 5255   4.695   5.410   5.203 -0.5331 -0.2005 -0.2541
   64SAPC  H16X 5256   4.783   5.354   5.242  0.8627  0.6674 -2.0035
   64SAPC  H16Y 5257   4.688   5.507   5.257  0.5736 -0.5034  0.4579
   64SAPC  C317 5258   4.709   5.438   5.062  0.1919  0.2053  0.0770
   64SAPC  H17X 5259   4.635   5.516   5.035  1.1714  1.7134  1.6446
   64SAPC  H17Y 5260   4.697   5.344   5.004  3.0025 -0.5146  0.5043
   64SAPC  C318 5261   4.848   5.489   5.017  1.0182 -0.5100  0.2276
   64SAPC  H18X 5262   4.836   5.526   4.913  1.0713  1.2676  0.8088
   64SAPC  H18Y 5263   4.929   5.415   5.033  0.5178 -0.8435  1.3565
   64SAPC  H18Z 5264   4.861   5.584   5.073 -0.8477 -0.8828  1.4127
   65SAPC     N 5265   1.893   1.665   2.519  0.3405  0.7947  0.0157
   65SAPC   C12 5266   1.890   1.796   2.583  0.1051 -0.1089  0.2538
   65SAPC  H12A 5267   1.791   1.820   2.620 -0.3116  0.0640 -0.9226
   65SAPC  H12B 5268   1.896   1.864   2.499 -1.5092 -0.3402 -0.0881
   65SAPC   C13 5269   1.855   1.552   2.609 -0.4478 -0.6927 -0.3311
   65SAPC  H13A 5270   1.858   1.463   2.548  1.0347  0.8212 -2.5923
   65SAPC  H13B 5271   1.918   1.532   2.694 -2.0115 -0.9561  0.8194
   65SAPC  H13C 5272   1.761   1.571   2.660 -0.4035 -0.8533 -0.1877
   65SAPC   C14 5273   1.798   1.662   2.393 -0.7484 -0.1406  0.1209
   65SAPC  H14A 5274   1.798   1.563   2.349 -0.0175 -0.4021  0.6925
   65SAPC  H14B 5275   1.697   1.696   2.414 -1.7523 -2.3971 -0.6608
   65SAPC  H14C 5276   1.837   1.731   2.320 -1.3928  0.3302  0.2087
   65SAPC   C15 5277   2.032   1.626   2.468 -0.0957  0.2241 -0.5792
   65SAPC  H15A 5278   2.069   1.700   2.398 -0.3355  1.0804  0.1745
   65SAPC  H15B 5279   2.107   1.621   2.546  0.8192 -0.8426 -1.4908
   65SAPC  H15C 5280   2.036   1.533   2.414 -0.1221 -0.9881  1.4089
   65SAPC   C11 5281   1.997   1.823   2.696  0.0354  0.2649  0.7415
   65SAPC  H11A 5282   1.992   1.733   2.760  2.5104 -0.2400  0.3239
   65SAPC  H11B 5283   1.967   1.914   2.752 -0.6110  1.8905 -2.0373
   65SAPC     P 5284   2.182   1.970   2.585 -0.3230 -0.1577  0.4525
   65SAPC   O13 5285   2.273   1.920   2.476 -0.0109  0.0387  0.0765
   65SAPC   O14 5286   2.073   2.052   2.541 -0.1407 -0.2704  0.4483
   65SAPC   O12 5287   2.129   1.845   2.655  0.7200  0.2778  0.6871
   65SAPC   O11 5288   2.271   2.046   2.696  0.3867 -0.2156  0.6683
   65SAPC    C1 5289   2.216   2.112   2.809 -0.3080 -0.2351 -0.3787
   65SAPC    HA 5290   2.282   2.200   2.823 -0.1766 -0.3727 -0.1340
   65SAPC    HB 5291   2.120   2.157   2.777  0.2874  0.9485 -0.5292
   65SAPC    C2 5292   2.213   2.027   2.938  0.5136  0.3896 -0.2876
   65SAPC    HS 5293   2.161   1.930   2.929 -2.2309  1.7327  0.0289
   65SAPC   O21 5294   2.160   2.108   3.042  0.5511  0.5960  0.3423
   65SAPC   C21 5295   2.043   2.059   3.083 -0.2190 -1.0315  0.3190
   65SAPC   O22 5296   1.980   1.967   3.030 -0.2021  0.8522  0.0133
   65SAPC   C22 5297   1.984   2.128   3.203 -0.7853  0.5723 -0.1405
   65SAPC   H2R 5298   2.014   2.235   3.199  0.5891  0.1706 -1.0222
   65SAPC   H2S 5299   1.874   2.120   3.192 -1.0119  2.1966  0.6531
   65SAPC    C3 5300   2.365   1.987   2.972 -0.5387 -0.3496 -0.1202
   65SAPC    HX 5301   2.420   2.083   2.979 -0.2588 -0.5553  0.6497
   65SAPC    HY 5302   2.404   1.934   2.883  1.5991 -0.5327  0.8554
   65SAPC   O31 5303   2.376   1.909   3.092  0.0944  0.1352 -0.0821
   65SAPC   C31 5304   2.405   1.780   3.082  0.0311 -0.3332 -0.1927
   65SAPC   O32 5305   2.415   1.712   2.980 -0.1189  0.2700 -0.1041
   65SAPC   C32 5306   2.421   1.718   3.223  0.1735  0.4029 -0.8984
   65SAPC   H2X 5307   2.516   1.661   3.211 -1.2424 -1.6761 -3.1780
   65SAPC   H2Y 5308   2.343   1.641   3.244  0.9348 -0.1187  0.1203
   65SAPC   C23 5309   2.052   2.079   3.332 -0.1768  0.4009 -0.2796
   65SAPC   H3R 5310   2.146   2.137   3.350 -0.6260  0.5378  1.9419
   65SAPC   H3S 5311   2.080   1.973   3.318 -0.3108  0.5665 -2.0424
   65SAPC   C24 5312   1.960   2.087   3.447  0.0237  0.1444  0.2722
   65SAPC   H4R 5313   2.003   2.029   3.531 -1.0854  0.3971  1.0375
   65SAPC   H4S 5314   1.862   2.041   3.423  0.7107 -0.3953 -1.6351
   65SAPC   C25 5315   1.936   2.231   3.474  0.0776  0.2055  0.5256
   65SAPC   H5R 5316   1.873   2.280   3.399 -0.4129 -0.7076  0.3290
   65SAPC   C26 5317   1.972   2.309   3.577  0.1370 -0.3473  0.3668
   65SAPC   H6R 5318   1.958   2.418   3.574  0.4000 -0.3087  0.5482
   65SAPC   C27 5319   2.056   2.255   3.696 -0.0661  0.3620  0.5955
   65SAPC   H7R 5320   1.995   2.180   3.751  2.0900 -3.3906 -1.6588
   65SAPC   H7S 5321   2.065   2.340   3.767  0.4751 -0.9486  2.1517
   65SAPC   C28 5322   2.187   2.187   3.669 -0.0554 -1.4764  0.4247
   65SAPC   H8R 5323   2.213   2.184   3.562 -1.6306  3.1235 -0.3244
   65SAPC   C29 5324   2.273   2.132   3.759 -0.0417 -0.2764  0.0420
   65SAPC   H9R 5325   2.374   2.106   3.724 -0.3791 -0.5904 -0.7182
   65SAPC  C210 5326   2.248   2.128   3.907  0.5814  0.3675  0.1705
   65SAPC  H10R 5327   2.276   2.032   3.956 -1.2087  0.0421  0.6327
   65SAPC  H10S 5328   2.140   2.129   3.932  0.4626  0.0153 -0.3281
   65SAPC  C211 5329   2.329   2.242   3.972  0.1399  0.0359 -0.1665
   65SAPC  H11R 5330   2.363   2.311   3.894  1.6463 -2.0410 -1.4726
   65SAPC  C212 5331   2.361   2.239   4.104  0.2479 -0.9545 -0.2638
   65SAPC  H12R 5332   2.428   2.321   4.134  1.4164 -2.1613  0.5577
   65SAPC  C213 5333   2.328   2.136   4.208 -0.8234  0.4626 -0.5126
   65SAPC  H13R 5334   2.419   2.090   4.253 -0.9959  1.3760  0.8242
   65SAPC  H13S 5335   2.265   2.053   4.169 -0.2032 -0.2192 -0.1006
   65SAPC  C214 5336   2.247   2.205   4.313 -0.0740  0.7386 -0.2594
   65SAPC  H14R 5337   2.144   2.227   4.284  0.2304  0.5862 -1.4866
   65SAPC  C215 5338   2.274   2.230   4.441  0.0770  0.3765 -0.0936
   65SAPC  H15R 5339   2.195   2.283   4.496  1.3333  4.8364 -2.1082
   65SAPC  C216 5340   2.386   2.195   4.531 -0.2267  0.2810 -0.8877
   65SAPC  H16R 5341   2.413   2.273   4.605  1.7939 -1.7557  0.6759
   65SAPC  H16S 5342   2.476   2.177   4.469 -0.8929 -1.7014 -1.3586
   65SAPC  C217 5343   2.363   2.060   4.608  0.4914 -0.0749 -0.2668
   65SAPC  H17R 5344   2.446   2.023   4.671 -0.6323  0.4259  1.5707
   65SAPC  H17S 5345   2.348   1.989   4.524  0.5579  0.5263 -0.7979
   65SAPC  C218 5346   2.236   2.064   4.689 -0.5608  1.0840  0.0077
   65SAPC  H18R 5347   2.152   2.098   4.625 -1.2685 -2.8373 -1.3954
   65SAPC  H18S 5348   2.244   2.130   4.778  0.2906 -0.4529  1.1091
   65SAPC  C219 5349   2.190   1.923   4.731  0.1274 -0.0931 -0.1765
   65SAPC  H19R 5350   2.267   1.854   4.772 -0.2975  0.5376  1.7816
   65SAPC  H19S 5351   2.147   1.881   4.638  2.7838  2.4509 -2.7744
   65SAPC  C220 5352   2.085   1.932   4.850  0.5432 -0.1948  0.4843
   65SAPC  H20R 5353   2.002   1.990   4.803  1.2581 -2.0551 -3.5200
   65SAPC  H20S 5354   2.132   1.984   4.936 -1.6675  2.1891  0.3775
   65SAPC  H20T 5355   2.049   1.830   4.870  1.5830 -0.7019 -0.1198
   65SAPC   C33 5356   2.435   1.821   3.336 -0.3220  0.0020 -0.0658
   65SAPC   H3X 5357   2.336   1.871   3.351  1.5068  3.2838  2.5648
   65SAPC   H3Y 5358   2.517   1.892   3.313  0.7404 -0.7370  1.3361
   65SAPC   C34 5359   2.486   1.755   3.471  0.1583 -0.0719 -0.2783
   65SAPC   H4X 5360   2.594   1.729   3.471  0.8037  2.3629  0.3378
   65SAPC   H4Y 5361   2.429   1.662   3.490  1.7930 -0.9247  0.7330
   65SAPC   C35 5362   2.471   1.841   3.594  0.3905  0.1028 -0.9640
   65SAPC   H5X 5363   2.368   1.882   3.590  0.2148 -0.3974 -1.7772
   65SAPC   H5Y 5364   2.537   1.928   3.574 -0.0789  0.2707 -1.8383
   65SAPC   C36 5365   2.504   1.780   3.728  0.1538 -0.2634  0.6069
   65SAPC   H6X 5366   2.603   1.731   3.717  0.2137 -0.4700  1.9344
   65SAPC   H6Y 5367   2.420   1.713   3.751 -0.1275  1.3772  5.4946
   65SAPC   C37 5368   2.514   1.886   3.843  0.7152 -0.2570  0.3987
   65SAPC   H7X 5369   2.410   1.904   3.878 -0.7711 -0.1616 -3.5183
   65SAPC   H7Y 5370   2.545   1.987   3.808 -0.7317  0.6177  1.5207
   65SAPC   C38 5371   2.606   1.842   3.957  0.3297  0.6737 -0.2226
   65SAPC   H8X 5372   2.710   1.857   3.923  1.7408 -0.9655  2.9742
   65SAPC   H8Y 5373   2.580   1.734   3.970 -0.3496  0.6753 -1.4097
   65SAPC   C39 5374   2.588   1.920   4.088 -0.1011  0.1953  0.0282
   65SAPC   H9X 5375   2.483   1.898   4.116 -0.4151  1.2786 -0.2747
   65SAPC   H9Y 5376   2.597   2.026   4.056  1.2492 -0.0559 -0.5193
   65SAPC  C310 5377   2.694   1.887   4.199 -0.6100 -0.1078  0.5952
   65SAPC  H10X 5378   2.783   1.893   4.132  0.3886 -0.6170  1.8329
   65SAPC  H10Y 5379   2.683   1.791   4.253  0.5779 -0.2566  0.6148
   65SAPC  C311 5380   2.728   2.001   4.302  0.2719  0.3625 -0.1203
   65SAPC  H11X 5381   2.645   2.010   4.375  0.7977  2.7272  0.2987
   65SAPC  H11Y 5382   2.722   2.096   4.244 -4.5998  0.5038  0.2386
   65SAPC  C312 5383   2.859   1.973   4.364 -0.9423 -0.6337 -0.1766
   65SAPC  H12X 5384   2.934   1.982   4.283 -1.9361  0.2903 -1.0157
   65SAPC  H12Y 5385   2.866   1.868   4.401  2.3215 -0.5916 -0.3994
   65SAPC  C313 5386   2.900   2.065   4.478 -0.2611 -0.4744 -0.7886
   65SAPC  H13X 5387   2.902   2.172   4.448 -0.7524 -0.1765  0.1747
   65SAPC  H13Y 5388   3.005   2.038   4.501 -0.5319 -1.3740 -0.5818
   65SAPC  C314 5389   2.817   2.067   4.604  0.3839 -0.1533  0.2890
   65SAPC  H14X 5390   2.826   1.967   4.652 -2.0399  0.5316  2.3695
   65SAPC  H14Y 5391   2.714   2.091   4.571  1.2125 -0.9057 -3.2463
   65SAPC  C315 5392   2.854   2.175   4.708 -0.4022  0.8213 -0.0498
   65SAPC  H15X 5393   2.964   2.175   4.724 -0.0534  0.4280 -2.2001
   65SAPC  H15Y 5394   2.804   2.145   4.803 -1.0829 -1.9616 -1.1778
   65SAPC  C316 5395   2.832   2.317   4.661 -0.0415  0.1737 -0.3665
   65SAPC  H16X 5396   2.722   2.329   4.653 -0.5777 -1.8156  2.3971
   65SAPC  H16Y 5397   2.874   2.345   4.563 -0.0656  0.1536 -0.3829
   65SAPC  C317 5398   2.881   2.422   4.763 -0.4878  0.6935  0.2741
   65SAPC  H17X 5399   2.867   2.524   4.720  0.7965  1.6402  1.9708
   65SAPC  H17Y 5400   2.990   2.409   4.777 -0.8746 -1.7804  1.3717
   65SAPC  C318 5401   2.825   2.418   4.903  0.0204  0.1520 -0.7121
   65SAPC  H18X 5402   2.877   2.492   4.967  1.6732 -2.3278  0.9572
   65SAPC  H18Y 5403   2.834   2.324   4.961 -0.2664 -0.1556 -1.1561
   65SAPC  H18Z 5404   2.717   2.445   4.893 -0.7401 -1.8427  1.3375
   66SAPC     N 5405   4.485   4.288   2.165 -0.1974  0.3490 -0.4868
   66SAPC   C12 5406   4.569   4.182   2.100  0.2821  0.4061  0.3480
   66SAPC  H12A 5407   4.517   4.180   2.005 -1.4128  1.4240  1.2044
   66SAPC  H12B 5408   4.550   4.089   2.150 -0.0971 -1.6670 -3.2939
   66SAPC   C13 5409   4.341   4.238   2.171  0.5653 -0.3424  0.3411
   66SAPC  H13A 5410   4.345   4.150   2.233 -4.0394 -1.6693 -0.9004
   66SAPC  H13B 5411   4.282   4.321   2.208  0.5817  0.4552 -1.3119
   66SAPC  H13C 5412   4.313   4.217   2.069 -0.4626 -0.8871  0.7256
   66SAPC   C14 5413   4.531   4.301   2.311 -0.5645  1.0167 -0.0492
   66SAPC  H14A 5414   4.495   4.215   2.366  0.4732 -1.7306 -3.3109
   66SAPC  H14B 5415   4.638   4.296   2.324 -0.9729  0.2494  4.3048
   66SAPC  H14C 5416   4.502   4.396   2.352  2.0373  1.0032  2.1041
   66SAPC   C15 5417   4.479   4.422   2.102 -0.9117  0.1293 -0.2212
   66SAPC  H15A 5418   4.581   4.458   2.102 -1.5014  1.8678 -0.1359
   66SAPC  H15B 5419   4.436   4.413   2.003  1.7899 -4.0964 -1.2983
   66SAPC  H15C 5420   4.435   4.494   2.168  0.8150  0.9956  0.0552
   66SAPC   C11 5421   4.714   4.214   2.072 -0.4533  0.3926 -0.1660
   66SAPC  H11A 5422   4.718   4.322   2.044 -2.9061  0.5576 -0.1220
   66SAPC  H11B 5423   4.775   4.157   2.000  3.6175 -0.3615  3.4868
   66SAPC     P 5424   4.813   4.045   2.247 -0.2106 -0.1048 -0.6072
   66SAPC   O13 5425   4.691   3.963   2.248  0.6232 -0.4364  0.0664
   66SAPC   O14 5426   4.933   3.995   2.174  0.3495 -0.2254 -0.4515
   66SAPC   O12 5427   4.784   4.199   2.193 -0.2582  0.6133  0.0569
   66SAPC   O11 5428   4.848   4.056   2.399  0.4327  0.3845 -0.6133
   66SAPC    C1 5429   4.767   4.150   2.480 -0.0240 -0.1777 -0.0324
   66SAPC    HA 5430   4.757   4.246   2.426 -0.6119 -0.8984 -1.2566
   66SAPC    HB 5431   4.664   4.110   2.487 -0.9593  1.8568 -1.2792
   66SAPC    C2 5432   4.830   4.185   2.615  0.4601 -0.2101 -0.1417
   66SAPC    HS 5433   4.923   4.232   2.578 -0.0315 -0.7240 -2.1706
   66SAPC   O21 5434   4.839   4.061   2.681  0.0372 -0.0940  0.2363
   66SAPC   C21 5435   4.962   4.025   2.717 -0.3149 -0.4044 -0.6596
   66SAPC   O22 5436   5.063   4.093   2.696  0.2900 -0.0906 -0.3322
   66SAPC   C22 5437   4.959   3.903   2.803  0.1206  0.4200  0.0794
   66SAPC   H2R 5438   4.937   3.936   2.907  1.9121  3.8549 -0.4668
   66SAPC   H2S 5439   4.881   3.832   2.769 -0.6111  2.1893 -2.1744
   66SAPC    C3 5440   4.747   4.294   2.703  0.4122 -0.0459  0.2396
   66SAPC    HX 5441   4.664   4.231   2.741  1.4457 -1.8717 -0.4341
   66SAPC    HY 5442   4.700   4.361   2.628  0.0830 -0.5982 -0.0551
   66SAPC   O31 5443   4.817   4.354   2.817 -0.6433 -0.7154 -0.0183
   66SAPC   C31 5444   4.917   4.441   2.778 -1.0957 -0.7843  0.8197
   66SAPC   O32 5445   4.933   4.480   2.665 -0.0734 -0.5961  0.5678
   66SAPC   C32 5446   5.020   4.453   2.896 -0.2607 -0.8923 -0.1619
   66SAPC   H2X 5447   5.052   4.559   2.900  0.0572 -1.0169  0.9988
   66SAPC   H2Y 5448   5.100   4.381   2.869  0.5909 -0.7129  1.7484
   66SAPC   C23 5449   5.096   3.828   2.814 -0.6904 -0.1594 -0.6087
   66SAPC   H3R 5450   5.166   3.898   2.864 -1.5420  1.1014 -1.1236
   66SAPC   H3S 5451   5.133   3.821   2.709  3.1418 -0.6237  0.6551
   66SAPC   C24 5452   5.094   3.694   2.896 -0.7732 -0.0690  0.1397
   66SAPC   H4R 5453   5.061   3.609   2.832 -1.6999 -1.7238  2.6422
   66SAPC   H4S 5454   5.028   3.686   2.985 -0.0441 -1.9295  0.5544
   66SAPC   C25 5455   5.242   3.661   2.933  0.1150 -0.3251 -0.1406
   66SAPC   H5R 5456   5.317   3.628   2.860 -0.0063  0.0879 -0.4597
   66SAPC   C26 5457   5.278   3.688   3.064  0.8320  0.2704  0.9480
   66SAPC   H6R 5458   5.370   3.638   3.098  0.8805 -1.0243 -0.9099
   66SAPC   C27 5459   5.193   3.735   3.182  0.0779  0.4084  0.4914
   66SAPC   H7R 5460   5.104   3.670   3.195  1.7811 -2.2997 -0.5785
   66SAPC   H7S 5461   5.159   3.840   3.167  0.1186  0.5957  1.6249
   66SAPC   C28 5462   5.258   3.727   3.315 -0.8604 -0.3393  0.5582
   66SAPC   H8R 5463   5.321   3.639   3.331  1.0465  1.0384  1.0013
   66SAPC   C29 5464   5.221   3.793   3.430  0.5712 -0.4201  0.4002
   66SAPC   H9R 5465   5.269   3.763   3.525  1.0723 -0.2011  0.2206
   66SAPC  C210 5466   5.119   3.904   3.441  0.2809  0.2502  0.1316
   66SAPC  H10R 5467   5.099   3.955   3.345 -0.9479 -1.3962 -0.5406
   66SAPC  H10S 5468   5.159   3.963   3.526 -0.5439  0.5076  0.3474
   66SAPC  C211 5469   4.984   3.849   3.475 -0.3139 -0.3848  0.1407
   66SAPC  H11R 5470   4.930   3.797   3.393  0.8781 -0.3934 -0.6626
   66SAPC  C212 5471   4.924   3.869   3.589 -0.0940  0.2068  0.7591
   66SAPC  H12R 5472   4.823   3.827   3.592 -0.3666  0.6553 -0.9823
   66SAPC  C213 5473   4.975   3.940   3.711 -0.2418 -0.2540  0.3863
   66SAPC  H13R 5474   4.930   4.041   3.722  0.4548 -0.0297  1.4347
   66SAPC  H13S 5475   5.082   3.967   3.700 -0.4722  1.3254  1.6054
   66SAPC  C214 5476   4.955   3.851   3.833  0.4537 -0.1216 -0.2346
   66SAPC  H14R 5477   4.851   3.849   3.868  0.5325 -0.3834 -0.0171
   66SAPC  C215 5478   5.048   3.783   3.906  0.3567  0.0473  0.1823
   66SAPC  H15R 5479   5.028   3.719   3.993  3.1146 -1.8590 -0.4610
   66SAPC  C216 5480   5.190   3.771   3.865  0.2155 -0.6792  0.0206
   66SAPC  H16R 5481   5.205   3.809   3.761  2.1923  0.1301  0.5572
   66SAPC  H16S 5482   5.222   3.665   3.851 -1.4760 -1.0022 -1.7527
   66SAPC  C217 5483   5.290   3.841   3.958  0.6863 -0.5786 -0.0647
   66SAPC  H17R 5484   5.254   3.946   3.959  0.2153 -0.7271 -0.8558
   66SAPC  H17S 5485   5.390   3.847   3.911 -1.1931  0.4407 -4.3384
   66SAPC  C218 5486   5.296   3.780   4.103 -0.0146  0.1103 -0.6128
   66SAPC  H18R 5487   5.336   3.677   4.115  1.2290  0.8106  1.9478
   66SAPC  H18S 5488   5.194   3.790   4.145 -0.8975 -0.9657 -2.3558
   66SAPC  C219 5489   5.392   3.860   4.196 -0.3361  0.4704  0.1807
   66SAPC  H19R 5490   5.372   3.829   4.301  0.0444 -0.4352 -0.0063
   66SAPC  H19S 5491   5.369   3.968   4.187  2.0389  1.0331  0.4272
   66SAPC  C220 5492   5.541   3.832   4.167 -0.4607 -0.7479 -0.4614
   66SAPC  H20R 5493   5.563   3.859   4.061  1.0234 -0.1050 -0.0185
   66SAPC  H20S 5494   5.570   3.729   4.197 -0.7998 -1.4343 -2.3508
   66SAPC  H20T 5495   5.597   3.907   4.227  2.8741 -2.7090 -0.8457
   66SAPC   C33 5496   4.954   4.442   3.033  0.3491 -0.7048 -0.9968
   66SAPC   H3X 5497   4.937   4.335   3.056  0.6775 -0.2107  2.0081
   66SAPC   H3Y 5498   4.851   4.484   3.029  0.6210  0.0010 -0.8289
   66SAPC   C34 5499   5.049   4.482   3.155 -0.0303 -0.6821  0.3908
   66SAPC   H4X 5500   5.047   4.592   3.161 -1.1329 -0.6626 -0.1395
   66SAPC   H4Y 5501   5.152   4.447   3.131 -0.2931  0.4575 -2.8397
   66SAPC   C35 5502   4.987   4.419   3.289  0.1313 -0.1918 -0.0647
   66SAPC   H5X 5503   4.970   4.310   3.281 -1.7617 -0.0128  0.9778
   66SAPC   H5Y 5504   4.887   4.462   3.309 -0.2476 -2.1920  3.0163
   66SAPC   C36 5505   5.068   4.446   3.421 -0.1209 -0.0649  1.0602
   66SAPC   H6X 5506   5.079   4.556   3.429  1.0911  0.1077 -1.7200
   66SAPC   H6Y 5507   5.175   4.417   3.418  0.2219  1.2003  0.4667
   66SAPC   C37 5508   5.003   4.380   3.545 -0.0992 -0.0037  0.1364
   66SAPC   H7X 5509   5.011   4.269   3.546 -0.3094 -0.0226  1.9353
   66SAPC   H7Y 5510   4.897   4.412   3.549 -0.3181 -0.4854 -1.3100
   66SAPC   C38 5511   5.076   4.428   3.671  0.9946 -0.1130 -0.2058
   66SAPC   H8X 5512   5.073   4.539   3.673 -0.7161 -0.1171 -1.1386
   66SAPC   H8Y 5513   5.180   4.393   3.684  1.1881  0.1122 -1.0921
   66SAPC   C39 5514   5.008   4.364   3.796  0.2408  0.0909  0.0311
   66SAPC   H9X 5515   5.005   4.253   3.794  1.1323  0.0626 -1.4707
   66SAPC   H9Y 5516   4.907   4.408   3.807  0.1043  0.2755 -1.6339
   66SAPC  C310 5517   5.085   4.401   3.922 -0.3846 -0.2828 -0.3895
   66SAPC  H10X 5518   5.096   4.511   3.938 -1.5430 -0.5887  3.5498
   66SAPC  H10Y 5519   5.187   4.359   3.911 -1.4477 -2.5549 -2.4334
   66SAPC  C311 5520   5.011   4.361   4.052  0.2073  0.2534  0.2155
   66SAPC  H11X 5521   5.054   4.264   4.084 -1.4602 -0.7611 -0.5175
   66SAPC  H11Y 5522   4.903   4.343   4.039  0.0147  1.3947  0.0988
   66SAPC  C312 5523   5.028   4.448   4.174 -0.4274  0.3443  1.5811
   66SAPC  H12X 5524   4.975   4.546   4.172  0.6568  0.9482  0.9818
   66SAPC  H12Y 5525   5.135   4.477   4.184  0.7356 -3.2552  0.8881
   66SAPC  C313 5526   5.014   4.378   4.308  0.9690  0.0817  0.9750
   66SAPC  H13X 5527   5.080   4.289   4.319 -0.0793 -0.8345  0.1390
   66SAPC  H13Y 5528   4.906   4.356   4.325  1.0366  1.1554  3.1125
   66SAPC  C314 5529   5.071   4.472   4.414 -0.7463 -0.3735  0.0010
   66SAPC  H14X 5530   5.031   4.573   4.391 -2.1151 -0.4366  1.9193
   66SAPC  H14Y 5531   5.182   4.471   4.416 -0.7337 -0.4539 -0.4340
   66SAPC  C315 5532   5.015   4.443   4.553 -0.4285  0.2384  0.3763
   66SAPC  H15X 5533   4.908   4.413   4.551 -0.4956  0.4900 -0.8262
   66SAPC  H15Y 5534   5.021   4.538   4.610  1.7189 -1.1419  2.6393
   66SAPC  C316 5535   5.095   4.331   4.625  0.4106  0.0281 -0.2778
   66SAPC  H16X 5536   5.198   4.371   4.635 -0.0088  1.2664 -0.6403
   66SAPC  H16Y 5537   5.094   4.239   4.562 -1.9179 -1.5414  1.8729
   66SAPC  C317 5538   5.043   4.296   4.762  0.2622  0.2249  0.3329
   66SAPC  H17X 5539   4.935   4.273   4.749  0.0142  0.9623  1.0274
   66SAPC  H17Y 5540   5.030   4.384   4.829 -0.8762 -0.0495  0.4835
   66SAPC  C318 5541   5.130   4.185   4.822 -0.5049 -0.9345  0.6723
   66SAPC  H18X 5542   5.106   4.157   4.926 -1.1625  0.2655  0.8708
   66SAPC  H18Y 5543   5.236   4.220   4.826 -1.2743  1.5132  1.7700
   66SAPC  H18Z 5544   5.129   4.093   4.760  0.6129 -0.9672  0.6831
   67SAPC     N 5545   1.654   3.596   2.563 -0.3928  0.5839 -1.2332
   67SAPC   C12 5546   1.732   3.462   2.577 -0.2604  0.1133  0.6058
   67SAPC  H12A 5547   1.795   3.482   2.663 -0.4865  1.1923  0.5363
   67SAPC  H12B 5548   1.801   3.444   2.496 -1.5259  0.8363 -0.6814
   67SAPC   C13 5549   1.551   3.603   2.672 -0.1188  0.0479  0.1058
   67SAPC  H13A 5550   1.591   3.595   2.772  1.4250  0.2128 -0.4744
   67SAPC  H13B 5551   1.498   3.698   2.672  2.2738  1.4478  0.3555
   67SAPC  H13C 5552   1.479   3.525   2.650  0.7956 -0.2347 -2.1907
   67SAPC   C14 5553   1.744   3.710   2.566 -0.2892  0.3116  0.0473
   67SAPC  H14A 5554   1.831   3.694   2.504 -0.7778 -0.7738 -0.3914
   67SAPC  H14B 5555   1.687   3.788   2.518  0.0136  1.4013  1.3782
   67SAPC  H14C 5556   1.765   3.745   2.666  0.4043  1.1884 -0.3855
   67SAPC   C15 5557   1.578   3.603   2.438  0.0117  0.0878  0.2547
   67SAPC  H15A 5558   1.650   3.614   2.358 -0.1475 -1.3570 -0.1172
   67SAPC  H15B 5559   1.538   3.504   2.420  2.0160 -0.6119 -0.7535
   67SAPC  H15C 5560   1.498   3.675   2.433 -0.3139 -0.1937  1.1714
   67SAPC   C11 5561   1.658   3.330   2.592 -0.2890 -0.1488  0.1229
   67SAPC  H11A 5562   1.618   3.329   2.695  0.0065  0.2010  0.2428
   67SAPC  H11B 5563   1.727   3.243   2.577 -1.0111 -0.4355 -1.7677
   67SAPC     P 5564   1.480   3.170   2.509 -0.0321  0.2674  0.4073
   67SAPC   O13 5565   1.352   3.185   2.443  0.8166  0.6465  0.5562
   67SAPC   O14 5566   1.568   3.056   2.469 -0.3517  0.2122 -0.1393
   67SAPC   O12 5567   1.551   3.315   2.498 -0.2560 -0.4040  0.8012
   67SAPC   O11 5568   1.445   3.165   2.665  0.3330 -0.6520 -0.1067
   67SAPC    C1 5569   1.351   3.277   2.699  0.5462  0.9150  0.2000
   67SAPC    HA 5570   1.394   3.378   2.686 -0.2606  1.1591 -0.7432
   67SAPC    HB 5571   1.265   3.271   2.629  1.5584  0.3457 -1.0315
   67SAPC    C2 5572   1.290   3.254   2.838 -0.0493  0.1236  1.1366
   67SAPC    HS 5573   1.225   3.340   2.861 -0.4771  0.0668  0.1515
   67SAPC   O21 5574   1.386   3.244   2.946  0.0279 -0.2453 -0.0828
   67SAPC   C21 5575   1.461   3.348   2.973 -0.7661 -0.2047  0.0843
   67SAPC   O22 5576   1.453   3.462   2.931  0.6258  0.3628  0.0154
   67SAPC   C22 5577   1.572   3.314   3.073  0.0135 -0.1504 -0.3455
   67SAPC   H2R 5578   1.640   3.238   3.028 -0.9017 -0.2302 -1.6459
   67SAPC   H2S 5579   1.630   3.406   3.095 -0.3382 -0.5674  2.7824
   67SAPC    C3 5580   1.205   3.130   2.838  0.3268  0.0189  0.4439
   67SAPC    HX 5581   1.271   3.046   2.806  2.0962  1.4721  0.1476
   67SAPC    HY 5582   1.128   3.137   2.759  0.5844 -0.8199  0.1042
   67SAPC   O31 5583   1.145   3.112   2.968  0.0543 -0.2789 -0.6437
   67SAPC   C31 5584   1.206   3.027   3.053 -0.1496 -0.0696  0.2052
   67SAPC   O32 5585   1.305   2.962   3.029 -0.0514 -0.4280  0.3573
   67SAPC   C32 5586   1.129   3.011   3.181 -0.7543 -0.7463 -0.1705
   67SAPC   H2X 5587   1.170   2.923   3.234 -1.0572 -0.4079  0.6392
   67SAPC   H2Y 5588   1.018   2.999   3.175 -0.6636 -1.6342 -0.1260
   67SAPC   C23 5589   1.516   3.276   3.216 -0.6924  0.1115  0.1412
   67SAPC   H3R 5590   1.455   3.184   3.207 -0.8750  0.3620 -1.4946
   67SAPC   H3S 5591   1.450   3.361   3.244 -1.2596 -0.7067  1.3954
   67SAPC   C24 5592   1.624   3.253   3.320 -0.4227  0.2703  0.2926
   67SAPC   H4R 5593   1.654   3.356   3.349 -1.9480  1.2052 -1.2783
   67SAPC   H4S 5594   1.711   3.192   3.286 -0.7459 -0.2147  0.3358
   67SAPC   C25 5595   1.567   3.198   3.449 -0.6933  0.0963 -0.8975
   67SAPC   H5R 5596   1.508   3.106   3.431  1.2643 -1.0209 -1.9560
   67SAPC   C26 5597   1.574   3.246   3.579  0.0424  0.1154  0.7335
   67SAPC   H6R 5598   1.541   3.189   3.667 -0.4657  2.3579  2.0952
   67SAPC   C27 5599   1.653   3.371   3.620  0.6499  0.3035  0.6512
   67SAPC   H7R 5600   1.620   3.402   3.721 -0.0992  1.1100  0.1775
   67SAPC   H7S 5601   1.620   3.459   3.561 -0.2022  0.3237  1.1447
   67SAPC   C28 5602   1.797   3.351   3.608 -0.0770 -0.4364 -0.1345
   67SAPC   H8R 5603   1.825   3.306   3.512  0.9186 -0.0945 -0.0192
   67SAPC   C29 5604   1.896   3.401   3.687  0.1002 -0.4272 -0.3275
   67SAPC   H9R 5605   2.003   3.387   3.668  0.1681 -1.7763  0.8885
   67SAPC  C210 5606   1.878   3.477   3.822  0.1312 -0.9375 -0.3750
   67SAPC  H10R 5607   1.773   3.508   3.839  0.8825  1.8044 -0.3211
   67SAPC  H10S 5608   1.942   3.567   3.832 -2.3392  0.6801  2.7282
   67SAPC  C211 5609   1.927   3.396   3.940  0.4420  0.2342 -0.0403
   67SAPC  H11R 5610   2.034   3.399   3.964  0.8734 -2.9452 -1.0937
   67SAPC  C212 5611   1.857   3.329   4.033  0.5343  0.0487 -0.8666
   67SAPC  H12R 5612   1.910   3.283   4.117 -2.1633  0.7772  1.3758
   67SAPC  C213 5613   1.710   3.306   4.049 -0.1188  0.5878  1.1686
   67SAPC  H13R 5614   1.669   3.325   3.948  2.9965  1.0935 -0.1162
   67SAPC  H13S 5615   1.664   3.382   4.117  0.2822  0.3815  1.6783
   67SAPC  C214 5616   1.672   3.163   4.095  0.0789 -0.0611  0.2683
   67SAPC  H14R 5617   1.693   3.090   4.015 -3.7697 -0.5535 -0.4842
   67SAPC  C215 5618   1.617   3.132   4.210  0.8150  0.5160  0.3473
   67SAPC  H15R 5619   1.582   3.030   4.230  1.3504  0.4775  1.1136
   67SAPC  C216 5620   1.595   3.231   4.317  0.2077 -0.6667 -0.5195
   67SAPC  H16R 5621   1.493   3.274   4.322  0.7507  0.5458  1.4071
   67SAPC  H16S 5622   1.672   3.312   4.316  1.0917 -1.4909 -1.2498
   67SAPC  C217 5623   1.619   3.174   4.456  0.3703 -0.3172  0.4268
   67SAPC  H17R 5624   1.574   3.073   4.467  3.1551 -1.8545 -1.1077
   67SAPC  H17S 5625   1.561   3.242   4.521  0.7084  0.6497 -0.2528
   67SAPC  C218 5626   1.768   3.163   4.495  0.4381 -0.0461 -0.8186
   67SAPC  H18R 5627   1.809   3.255   4.542  0.9511 -0.9512  0.5758
   67SAPC  H18S 5628   1.833   3.145   4.406  0.8574 -0.5852 -0.4137
   67SAPC  C219 5629   1.805   3.048   4.593  0.2620  0.0977  0.1720
   67SAPC  H19R 5630   1.753   3.060   4.691 -0.4433  0.7893 -0.2764
   67SAPC  H19S 5631   1.915   3.051   4.610  0.2674  0.3639  0.0939
   67SAPC  C220 5632   1.778   2.906   4.538 -0.5500  0.1795  0.0965
   67SAPC  H20R 5633   1.837   2.837   4.602 -2.7105 -1.9374 -0.0480
   67SAPC  H20S 5634   1.813   2.904   4.432 -0.0539 -1.4474  0.2645
   67SAPC  H20T 5635   1.669   2.884   4.547 -0.4248  0.0642  1.4358
   67SAPC   C33 5636   1.166   3.133   3.276  0.7434 -0.2061  0.0659
   67SAPC   H3X 5637   1.132   3.222   3.218 -2.1816 -0.4367  1.2627
   67SAPC   H3Y 5638   1.272   3.128   3.307  0.5840 -2.6666  0.4036
   67SAPC   C34 5639   1.083   3.136   3.407  0.0131 -0.1348 -0.3754
   67SAPC   H4X 5640   0.978   3.156   3.375  0.2799 -0.8250 -1.7832
   67SAPC   H4Y 5641   1.123   3.219   3.469  0.3436 -0.3203 -0.3376
   67SAPC   C35 5642   1.081   2.996   3.475  0.1344  0.0945 -0.2080
   67SAPC   H5X 5643   1.179   2.942   3.472  0.0538 -0.0864  0.3325
   67SAPC   H5Y 5644   0.993   2.941   3.437 -0.0001 -0.2201  0.5463
   67SAPC   C36 5645   1.059   3.016   3.626  0.4760  0.0618  0.2360
   67SAPC   H6X 5646   0.951   3.019   3.653 -0.5624 -1.9274 -3.0449
   67SAPC   H6Y 5647   1.103   3.116   3.647 -2.0977  0.8898  2.3258
   67SAPC   C37 5648   1.142   2.922   3.716 -0.2889 -0.5773  0.0644
   67SAPC   H7X 5649   1.252   2.933   3.704 -0.5246  2.4292 -0.0873
   67SAPC   H7Y 5650   1.122   2.820   3.676  0.3819 -1.5690  2.0905
   67SAPC   C38 5651   1.113   2.926   3.866 -0.0799 -0.2278 -0.0614
   67SAPC   H8X 5652   1.155   2.834   3.910  0.7232 -0.3351 -1.0197
   67SAPC   H8Y 5653   1.002   2.923   3.871 -0.2987 -0.2831 -2.9792
   67SAPC   C39 5654   1.157   3.052   3.931 -0.0573 -0.5165  0.2644
   67SAPC   H9X 5655   1.105   3.134   3.878  1.8222  0.3176 -0.3951
   67SAPC   H9Y 5656   1.266   3.064   3.913 -0.1609 -0.1614 -0.1333
   67SAPC  C310 5657   1.143   3.065   4.079 -0.2721 -0.3355  0.4190
   67SAPC  H10X 5658   1.039   3.088   4.111 -0.3463 -0.9091  0.5974
   67SAPC  H10Y 5659   1.200   3.151   4.120 -1.1068  2.0556 -2.9580
   67SAPC  C311 5660   1.196   2.940   4.162  0.3140  0.4988  0.0940
   67SAPC  H11X 5661   1.301   2.928   4.126 -0.0552  0.5224 -1.0353
   67SAPC  H11Y 5662   1.145   2.846   4.131  1.9548 -0.4322  0.0909
   67SAPC  C312 5663   1.178   2.959   4.311  0.0134 -0.2838  0.7581
   67SAPC  H12X 5664   1.071   2.976   4.339 -0.3966 -0.0757 -0.8359
   67SAPC  H12Y 5665   1.237   3.047   4.343 -0.0178 -0.6860  1.9727
   67SAPC  C313 5666   1.240   2.836   4.387  0.4101 -0.1767 -1.0621
   67SAPC  H13X 5667   1.334   2.800   4.339  0.5951  1.6595 -2.1735
   67SAPC  H13Y 5668   1.157   2.763   4.394  1.3376 -1.0764  1.8273
   67SAPC  C314 5669   1.290   2.870   4.528  0.2169 -0.5149 -0.7401
   67SAPC  H14X 5670   1.205   2.901   4.593  0.7155  2.6556 -1.4200
   67SAPC  H14Y 5671   1.364   2.952   4.543 -1.6113  0.8196  1.6856
   67SAPC  C315 5672   1.352   2.746   4.595  0.1556 -0.2751 -0.2131
   67SAPC  H15X 5673   1.397   2.779   4.691  0.9932  1.3046 -1.1137
   67SAPC  H15Y 5674   1.432   2.704   4.530 -0.1678 -0.6584 -0.3651
   67SAPC  C316 5675   1.249   2.633   4.620  0.2535 -0.4690 -0.1321
   67SAPC  H16X 5676   1.214   2.587   4.525 -0.3875 -1.4603  0.5668
   67SAPC  H16Y 5677   1.168   2.696   4.662  0.0682  1.0507 -2.6108
   67SAPC  C317 5678   1.293   2.524   4.712  0.6547  0.4082  0.0056
   67SAPC  H17X 5679   1.318   2.558   4.815  0.5994 -0.7858  0.4192
   67SAPC  H17Y 5680   1.385   2.476   4.673 -0.0742  0.5264 -1.9525
   67SAPC  C318 5681   1.196   2.406   4.714 -0.0232  0.5360 -1.4010
   67SAPC  H18X 5682   1.101   2.435   4.763  0.3605 -0.8687  0.2489
   67SAPC  H18Y 5683   1.224   2.321   4.780 -1.3796  0.6392 -0.6475
   67SAPC  H18Z 5684   1.175   2.365   4.613 -0.9446 -1.0444 -0.6186
   68SAPC     N 5685   4.016   5.087   2.147  0.0960  0.8439 -0.3892
   68SAPC   C12 5686   4.092   5.129   2.030 -0.0379  0.9344  0.0828
   68SAPC  H12A 5687   4.119   5.233   2.032  0.4673  0.9942 -3.5958
   68SAPC  H12B 5688   4.021   5.133   1.949 -0.2138  2.1007  0.2766
   68SAPC   C13 5689   3.886   5.158   2.172  0.0538 -0.3311  0.2697
   68SAPC  H13A 5690   3.824   5.168   2.084  1.3361  3.5428 -0.4160
   68SAPC  H13B 5691   3.831   5.102   2.245 -1.3648  0.5492 -0.0964
   68SAPC  H13C 5692   3.883   5.259   2.211 -0.9238  0.0042 -0.6379
   68SAPC   C14 5693   3.983   4.941   2.129  0.0872 -0.0109  0.2287
   68SAPC  H14A 5694   4.069   4.881   2.104  1.6239  1.1416  2.3810
   68SAPC  H14B 5695   3.951   4.905   2.226  0.9198 -0.8208  0.2159
   68SAPC  H14C 5696   3.908   4.918   2.055  0.9335 -0.7409 -0.4140
   68SAPC   C15 5697   4.100   5.100   2.270 -0.0612 -0.0467 -0.0773
   68SAPC  H15A 5698   4.129   5.203   2.283 -2.2511  0.6437 -0.2456
   68SAPC  H15B 5699   4.048   5.069   2.359  2.7434 -0.8768  1.3779
   68SAPC  H15C 5700   4.196   5.052   2.255  0.6198  1.0044  0.8580
   68SAPC   C11 5701   4.215   5.035   1.981  0.1126  0.8251  0.4301
   68SAPC  H11A 5702   4.235   5.086   1.884  1.7391  2.0344  1.3561
   68SAPC  H11B 5703   4.197   4.926   1.971  3.2871  0.2421 -0.1427
   68SAPC     P 5704   4.459   5.098   2.018  0.0706 -0.2644 -0.1217
   68SAPC   O13 5705   4.520   5.000   1.918  0.0696  0.1666 -0.5891
   68SAPC   O14 5706   4.450   5.236   1.977  0.0723 -0.7030  0.4427
   68SAPC   O12 5707   4.325   5.054   2.077 -0.0685 -1.1255  0.3245
   68SAPC   O11 5708   4.555   5.091   2.148  0.3109 -0.7548 -0.3368
   68SAPC    C1 5709   4.507   5.152   2.267  0.0702  0.0394  0.0693
   68SAPC    HA 5710   4.589   5.220   2.296  1.0857 -0.5415 -1.2934
   68SAPC    HB 5711   4.415   5.209   2.242 -0.4959 -1.0490 -0.4288
   68SAPC    C2 5712   4.466   5.056   2.386 -0.1044 -0.0610  0.5804
   68SAPC    HS 5713   4.373   5.002   2.358  1.3652 -1.8072 -1.2099
   68SAPC   O21 5714   4.446   5.147   2.499 -0.1595  0.4845 -0.1498
   68SAPC   C21 5715   4.352   5.104   2.586  0.1565  0.1105  0.7969
   68SAPC   O22 5716   4.280   5.009   2.576 -1.0092  0.1584  0.1458
   68SAPC   C22 5717   4.347   5.196   2.702 -0.3773  0.7610  1.0219
   68SAPC   H2R 5718   4.449   5.211   2.742  0.0970 -0.5552  0.3425
   68SAPC   H2S 5719   4.314   5.299   2.677 -1.1735  0.6215  1.4398
   68SAPC    C3 5720   4.571   4.948   2.418 -0.8663 -0.1231 -0.1151
   68SAPC    HX 5721   4.658   5.009   2.450 -0.5948 -0.9013  0.6911
   68SAPC    HY 5722   4.593   4.891   2.325 -2.3624  2.7277 -2.3728
   68SAPC   O31 5723   4.543   4.867   2.531  0.0681 -0.1324  0.5245
   68SAPC   C31 5724   4.457   4.772   2.501  0.0633 -0.4452  0.1063
   68SAPC   O32 5725   4.401   4.755   2.394 -0.3466 -1.0002 -0.0843
   68SAPC   C32 5726   4.428   4.683   2.621 -0.0339 -0.3282  0.2242
   68SAPC   H2X 5727   4.391   4.585   2.583 -2.1774  1.0546 -1.5137
   68SAPC   H2Y 5728   4.347   4.723   2.685 -1.1647 -1.6766 -0.2957
   68SAPC   C23 5729   4.255   5.139   2.814  0.0592 -0.0894  0.1517
   68SAPC   H3R 5730   4.309   5.056   2.866  0.0839 -0.0894  0.1262
   68SAPC   H3S 5731   4.162   5.106   2.763  0.8168 -0.4967 -1.0229
   68SAPC   C24 5732   4.222   5.247   2.917  0.1111  0.1454  0.1386
   68SAPC   H4R 5733   4.162   5.205   3.001 -0.4661  1.3259  0.3461
   68SAPC   H4S 5734   4.149   5.319   2.875 -1.2280  0.3848  2.6619
   68SAPC   C25 5735   4.339   5.320   2.973 -0.1348  0.4522 -0.2868
   68SAPC   H5R 5736   4.383   5.395   2.906 -0.4111  1.0107  0.1508
   68SAPC   C26 5737   4.400   5.287   3.093 -0.2140 -0.2053  0.7660
   68SAPC   H6R 5738   4.485   5.346   3.128 -0.9034  1.1354  0.2443
   68SAPC   C27 5739   4.353   5.188   3.200 -0.0268  0.0580 -0.6033
   68SAPC   H7R 5740   4.270   5.124   3.163 -2.5690  1.5567  2.0784
   68SAPC   H7S 5741   4.299   5.258   3.267 -0.7615  0.8358 -1.9751
   68SAPC   C28 5742   4.464   5.108   3.256  0.1894  0.3015  0.0333
   68SAPC   H8R 5743   4.557   5.104   3.198 -0.6183  3.7154 -1.7888
   68SAPC   C29 5744   4.465   5.050   3.373  0.2291 -0.1830 -0.2728
   68SAPC   H9R 5745   4.557   4.996   3.401 -0.4986 -0.2383  2.2286
   68SAPC  C210 5746   4.346   5.056   3.469  0.0298 -1.0233  0.2655
   68SAPC  H10R 5747   4.256   5.018   3.417  0.3434  1.4793 -2.3741
   68SAPC  H10S 5748   4.323   5.161   3.493  1.0552 -0.8482  0.5558
   68SAPC  C211 5749   4.364   4.975   3.595 -0.8756 -0.3804  0.0482
   68SAPC  H11R 5750   4.294   4.893   3.614  0.0823 -0.8988  1.4975
   68SAPC  C212 5751   4.455   4.998   3.701 -0.0901  0.0897 -0.5034
   68SAPC  H12R 5752   4.469   4.917   3.774  2.5139 -1.9998 -3.0590
   68SAPC  C213 5753   4.537   5.119   3.726 -0.3005  0.0220 -0.0353
   68SAPC  H13R 5754   4.553   5.176   3.632 -1.0887 -1.0291 -0.8177
   68SAPC  H13S 5755   4.638   5.083   3.754 -0.3770  1.4635  2.4333
   68SAPC  C214 5756   4.483   5.213   3.839 -0.1040 -0.2799  0.0770
   68SAPC  H14R 5757   4.409   5.286   3.802  0.7746  0.5940 -0.0009
   68SAPC  C215 5758   4.512   5.208   3.967  0.2211  0.8023 -0.0544
   68SAPC  H15R 5759   4.460   5.277   4.035  0.4095  1.1876 -0.2987
   68SAPC  C216 5760   4.621   5.120   4.029  0.5862  0.2272  0.7712
   68SAPC  H16R 5761   4.661   5.045   3.958 -2.5363 -0.4638 -0.4269
   68SAPC  H16S 5762   4.587   5.057   4.113  0.7515 -0.6398  0.2041
   68SAPC  C217 5763   4.735   5.216   4.061 -0.3671 -0.1034 -0.6335
   68SAPC  H17R 5764   4.804   5.149   4.116  0.0602  0.7797 -0.0759
   68SAPC  H17S 5765   4.703   5.301   4.125  1.4811  0.8504 -0.9002
   68SAPC  C218 5766   4.807   5.274   3.941 -0.1425 -0.5855 -0.0822
   68SAPC  H18R 5767   4.744   5.355   3.896  2.5695  1.5652 -0.2906
   68SAPC  H18S 5768   4.822   5.200   3.859 -1.9290 -0.2582 -0.7544
   68SAPC  C219 5769   4.943   5.325   3.987 -0.1348  0.5427 -0.1399
   68SAPC  H19R 5770   4.982   5.234   4.037 -2.7714 -0.9578 -0.6260
   68SAPC  H19S 5771   4.918   5.408   4.057  0.8533  0.6647  0.0894
   68SAPC  C220 5772   5.033   5.381   3.881 -0.0216  1.0203 -0.1575
   68SAPC  H20R 5773   4.981   5.464   3.829 -0.0496  0.1572 -1.5365
   68SAPC  H20S 5774   5.068   5.313   3.801 -0.3496 -1.5466  1.7507
   68SAPC  H20T 5775   5.131   5.414   3.920  1.3655 -0.4121 -2.2527
   68SAPC   C33 5776   4.551   4.650   2.706  0.5911 -0.1515 -0.5423
   68SAPC   H3X 5777   4.610   4.741   2.734  0.9118 -0.5296  0.0332
   68SAPC   H3Y 5778   4.616   4.586   2.643 -1.6366 -0.0923 -3.0596
   68SAPC   C34 5779   4.518   4.576   2.844  0.0212  1.0479 -0.2899
   68SAPC   H4X 5780   4.527   4.465   2.837 -2.1187  0.8506 -0.3593
   68SAPC   H4Y 5781   4.408   4.587   2.851 -0.6797 -3.2902 -1.1587
   68SAPC   C35 5782   4.593   4.634   2.959 -0.6694 -0.1136  0.2313
   68SAPC   H5X 5783   4.586   4.744   2.955 -1.6153 -0.1906 -0.7900
   68SAPC   H5Y 5784   4.703   4.616   2.955 -0.8254 -1.3126  0.8114
   68SAPC   C36 5785   4.537   4.582   3.092 -0.0619 -0.2810  0.8773
   68SAPC   H6X 5786   4.567   4.475   3.087  2.1776  0.3498 -2.3008
   68SAPC   H6Y 5787   4.428   4.603   3.085  0.6227  3.6412 -0.4568
   68SAPC   C37 5788   4.607   4.653   3.210 -0.2612  0.4423  0.1865
   68SAPC   H7X 5789   4.579   4.761   3.216  2.0164  1.3120 -2.6291
   68SAPC   H7Y 5790   4.716   4.641   3.188  0.2322 -0.4922  2.8120
   68SAPC   C38 5791   4.586   4.582   3.342  0.0019  0.0909  0.4281
   68SAPC   H8X 5792   4.600   4.473   3.324 -0.2759 -0.0858  1.2784
   68SAPC   H8Y 5793   4.483   4.604   3.377 -0.1527  3.3115 -1.6233
   68SAPC   C39 5794   4.684   4.636   3.451  0.2230 -0.4122  0.1877
   68SAPC   H9X 5795   4.684   4.747   3.452  3.5039 -0.2538 -1.9348
   68SAPC   H9Y 5796   4.784   4.604   3.415 -0.1523 -3.5450  1.5500
   68SAPC  C310 5797   4.649   4.569   3.589  0.6319  0.1463  0.0735
   68SAPC  H10X 5798   4.731   4.576   3.663  1.4770  1.0672 -0.9095
   68SAPC  H10Y 5799   4.625   4.462   3.573  0.6507 -0.1672  1.9520
   68SAPC  C311 5800   4.534   4.629   3.659  0.2982 -0.5781 -0.4610
   68SAPC  H11X 5801   4.444   4.647   3.597 -2.3295  2.6604  3.6421
   68SAPC  H11Y 5802   4.564   4.735   3.678 -1.1346 -0.0018 -1.1953
   68SAPC  C312 5803   4.494   4.570   3.792 -0.1836  0.0828  1.1705
   68SAPC  H12X 5804   4.445   4.472   3.773 -0.0383 -0.0874  1.6597
   68SAPC  H12Y 5805   4.410   4.625   3.842 -1.9162 -1.1451 -0.2605
   68SAPC  C313 5806   4.593   4.551   3.907  0.1282  0.3653 -0.0489
   68SAPC  H13X 5807   4.633   4.645   3.951  2.4315  0.2778 -1.7711
   68SAPC  H13Y 5808   4.683   4.496   3.871  1.0708  1.8564 -0.0493
   68SAPC  C314 5809   4.521   4.485   4.024  0.2010  0.3101  0.6182
   68SAPC  H14X 5810   4.464   4.394   3.996  0.0296  0.6691 -0.2140
   68SAPC  H14Y 5811   4.444   4.555   4.063  0.1901  0.2785  0.6535
   68SAPC  C315 5812   4.607   4.458   4.153  0.0930  0.2013  0.3563
   68SAPC  H15X 5813   4.711   4.439   4.119 -0.3043 -1.3625 -0.0538
   68SAPC  H15Y 5814   4.574   4.365   4.204  2.3314  0.2998  2.1298
   68SAPC  C316 5815   4.604   4.575   4.248  0.0883 -0.1718 -0.3564
   68SAPC  H16X 5816   4.510   4.593   4.304  1.1162  1.3471  0.9842
   68SAPC  H16Y 5817   4.619   4.666   4.187 -1.1092  0.0381 -0.3478
   68SAPC  C317 5818   4.706   4.571   4.359  0.0380  0.8161  0.0151
   68SAPC  H17X 5819   4.809   4.567   4.317 -0.0746 -2.0877 -0.1845
   68SAPC  H17Y 5820   4.687   4.481   4.422  1.9055  0.7269  0.4958
   68SAPC  C318 5821   4.694   4.686   4.457  0.9532 -0.1739 -0.1807
   68SAPC  H18X 5822   4.589   4.710   4.484  0.6325  1.3769 -2.5313
   68SAPC  H18Y 5823   4.729   4.781   4.410  2.2965  1.2678  3.4139
   68SAPC  H18Z 5824   4.762   4.657   4.540  0.3891 -2.0881 -0.3389
   69SAPC     N 5825   3.533   0.381   2.413 -0.5009 -0.5038 -0.0633
   69SAPC   C12 5826   3.625   0.269   2.382 -0.9050  0.2275 -0.0975
   69SAPC  H12A 5827   3.639   0.250   2.277  1.8559  1.7267 -0.0954
   69SAPC  H12B 5828   3.575   0.181   2.423 -1.3470 -1.1835 -3.3594
   69SAPC   C13 5829   3.581   0.506   2.339  0.2316 -0.1987  0.1666
   69SAPC  H13A 5830   3.549   0.516   2.236 -0.2775 -0.7265  0.2689
   69SAPC  H13B 5831   3.536   0.586   2.395  1.4125  1.1765 -0.7832
   69SAPC  H13C 5832   3.688   0.517   2.337  0.1491  1.3078  1.7435
   69SAPC   C14 5833   3.398   0.350   2.354  0.1372  1.1837  0.5252
   69SAPC  H14A 5834   3.344   0.276   2.411  0.8219  0.5835  0.4081
   69SAPC  H14B 5835   3.331   0.433   2.340 -2.4330 -0.8441  0.0044
   69SAPC  H14C 5836   3.409   0.307   2.256 -0.8542  1.0279  0.4707
   69SAPC   C15 5837   3.530   0.397   2.566 -0.1406 -0.5322 -0.0919
   69SAPC  H15A 5838   3.533   0.500   2.598  0.4358 -0.9995  1.4722
   69SAPC  H15B 5839   3.439   0.356   2.608  0.0323  0.3916  1.2398
   69SAPC  H15C 5840   3.610   0.345   2.616 -0.4819  0.2377  1.3013
   69SAPC   C11 5841   3.770   0.296   2.439  0.2584 -0.4273  0.4752
   69SAPC  H11A 5842   3.821   0.198   2.433  0.6448 -0.2049  0.1057
   69SAPC  H11B 5843   3.759   0.320   2.547 -1.7270  0.3500  0.1508
   69SAPC     P 5844   3.976   0.457   2.447  0.3690  0.0119  0.3049
   69SAPC   O13 5845   4.087   0.360   2.430 -0.2687  0.4099 -0.2228
   69SAPC   O14 5846   3.985   0.587   2.381 -0.2505  0.0911 -0.0573
   69SAPC   O12 5847   3.853   0.391   2.377 -0.0915 -0.1441 -0.0552
   69SAPC   O11 5848   3.929   0.467   2.594  0.1912 -0.0493 -0.0598
   69SAPC    C1 5849   3.850   0.573   2.644  0.3479  0.7405 -0.1866
   69SAPC    HA 5850   3.791   0.612   2.558  0.5129 -0.2648 -0.7652
   69SAPC    HB 5851   3.779   0.525   2.714 -0.1866 -1.1433 -1.9325
   69SAPC    C2 5852   3.931   0.679   2.722  0.2417  0.6306 -0.2370
   69SAPC    HS 5853   4.005   0.713   2.647 -1.2734 -1.7169 -2.9616
   69SAPC   O21 5854   3.991   0.607   2.832 -0.9227 -0.1336 -0.3383
   69SAPC   C21 5855   4.079   0.688   2.898 -0.2513 -0.5492  0.3680
   69SAPC   O22 5856   4.117   0.797   2.847 -0.3300 -0.2138  0.2315
   69SAPC   C22 5857   4.112   0.638   3.032  0.0871 -0.2735 -0.0868
   69SAPC   H2R 5858   4.153   0.535   3.028  0.5626 -0.0801 -0.1696
   69SAPC   H2S 5859   4.187   0.704   3.081  1.1248 -1.7011  0.2968
   69SAPC    C3 5860   3.825   0.783   2.776  0.1541  0.1420  0.2791
   69SAPC    HX 5861   3.787   0.842   2.690 -1.9888  1.0796  1.7724
   69SAPC    HY 5862   3.874   0.860   2.840 -0.4685  0.7720  0.0096
   69SAPC   O31 5863   3.710   0.730   2.842  0.4096 -0.3976  0.4565
   69SAPC   C31 5864   3.627   0.819   2.904  0.6415 -0.4594 -0.2022
   69SAPC   O32 5865   3.654   0.937   2.916  0.1301 -0.5334 -0.4434
   69SAPC   C32 5866   3.508   0.742   2.972  0.8341  0.5784  0.5761
   69SAPC   H2X 5867   3.550   0.641   2.993 -0.9498 -0.3487 -0.0380
   69SAPC   H2Y 5868   3.437   0.731   2.888  0.7825 -0.0175  0.6910
   69SAPC   C23 5869   3.980   0.620   3.119  0.0500 -0.4782 -0.2624
   69SAPC   H3R 5870   4.020   0.547   3.192  4.5144  1.9420  0.0984
   69SAPC   H3S 5871   3.901   0.584   3.049 -0.9392  1.4841 -0.2241
   69SAPC   C24 5872   3.944   0.751   3.196  0.7520  0.0671  0.3470
   69SAPC   H4R 5873   3.846   0.725   3.241 -0.4831  2.1333 -0.9924
   69SAPC   H4S 5874   3.922   0.842   3.135  0.6449  0.1328  0.4847
   69SAPC   C25 5875   4.042   0.791   3.295 -0.7940  0.2142 -0.3822
   69SAPC   H5R 5876   4.115   0.865   3.258 -1.7047  1.7020  0.6469
   69SAPC   C26 5877   4.038   0.751   3.426 -0.4369 -0.6631 -0.3339
   69SAPC   H6R 5878   4.108   0.797   3.497 -0.6681  0.8215 -1.0227
   69SAPC   C27 5879   3.941   0.649   3.494 -0.5908  0.1180  0.8394
   69SAPC   H7R 5880   4.006   0.570   3.537  0.3141 -0.5566 -1.6149
   69SAPC   H7S 5881   3.879   0.598   3.418 -1.0973  0.7619  0.8117
   69SAPC   C28 5882   3.849   0.713   3.585  0.2912 -0.5623  0.4063
   69SAPC   H8R 5883   3.785   0.787   3.535  1.0594  0.4373  0.8768
   69SAPC   C29 5884   3.843   0.703   3.718  0.5632  0.5351 -0.3458
   69SAPC   H9R 5885   3.775   0.765   3.779  1.1096  0.7959  0.0094
   69SAPC  C210 5886   3.933   0.620   3.808  0.2423  0.6520  0.0532
   69SAPC  H10R 5887   4.035   0.664   3.801  1.2558 -1.2834  1.5911
   69SAPC  H10S 5888   3.946   0.522   3.757  0.3996  0.4022  0.5742
   69SAPC  C211 5889   3.895   0.597   3.955  0.5854  0.2740  0.0837
   69SAPC  H11R 5890   3.795   0.553   3.972  0.4923 -0.5054 -2.1186
   69SAPC  C212 5891   3.964   0.639   4.060  0.1939 -0.3741 -0.3372
   69SAPC  H12R 5892   3.904   0.646   4.152 -0.9542 -0.8427 -1.0337
   69SAPC  C213 5893   4.097   0.721   4.055  0.5226  0.1625 -0.0231
   69SAPC  H13R 5894   4.122   0.761   3.955  0.9918  0.0047  0.0274
   69SAPC  H13S 5895   4.175   0.643   4.070 -1.3884 -2.1721 -1.5008
   69SAPC  C214 5896   4.116   0.823   4.166 -0.3053  0.3926  0.0152
   69SAPC  H14R 5897   4.047   0.908   4.154  1.0300  1.3739 -1.0617
   69SAPC  C215 5898   4.203   0.827   4.266  0.6009 -0.4575  0.0606
   69SAPC  H15R 5899   4.190   0.907   4.340 -0.0955 -1.3192  0.8892
   69SAPC  C216 5900   4.316   0.729   4.284  0.6221 -0.1091 -0.4315
   69SAPC  H16R 5901   4.380   0.716   4.194  0.4594 -1.0571 -0.4153
   69SAPC  H16S 5902   4.276   0.629   4.311  0.8226  1.1116  5.9329
   69SAPC  C217 5903   4.415   0.767   4.398  0.2609 -0.4275 -0.2267
   69SAPC  H17R 5904   4.362   0.803   4.489  0.4010 -1.0951  0.1321
   69SAPC  H17S 5905   4.468   0.856   4.359 -0.0092 -0.5596 -0.9093
   69SAPC  C218 5906   4.517   0.649   4.425 -0.1527 -0.1871  0.1182
   69SAPC  H18R 5907   4.572   0.626   4.331  0.8065 -0.6023  0.7699
   69SAPC  H18S 5908   4.456   0.561   4.458  3.5614 -2.3996  1.6372
   69SAPC  C219 5909   4.611   0.695   4.533  0.4016 -0.1348  0.4441
   69SAPC  H19R 5910   4.657   0.606   4.581 -0.0515 -1.2531 -1.0969
   69SAPC  H19S 5911   4.550   0.747   4.609 -1.2258  0.1652 -1.0069
   69SAPC  C220 5912   4.723   0.785   4.479  0.3779 -0.0400  0.2977
   69SAPC  H20R 5913   4.687   0.881   4.436 -0.8479 -1.0426 -0.9716
   69SAPC  H20S 5914   4.776   0.740   4.393 -0.7805 -0.6871 -0.0957
   69SAPC  H20T 5915   4.796   0.801   4.561  0.1018 -2.0795  1.0064
   69SAPC   C33 5916   3.432   0.815   3.090  0.4070  0.4131 -0.5469
   69SAPC   H3X 5917   3.358   0.744   3.133  1.5971  1.1004  3.0255
   69SAPC   H3Y 5918   3.383   0.910   3.061 -2.8414 -0.5507  1.3513
   69SAPC   C34 5919   3.523   0.817   3.216 -0.2386 -0.4508  0.5698
   69SAPC   H4X 5920   3.615   0.874   3.195 -0.1593 -0.9731 -0.5658
   69SAPC   H4Y 5921   3.559   0.713   3.230 -0.1454 -0.7809 -1.7578
   69SAPC   C35 5922   3.443   0.872   3.331  0.3871  0.3094 -0.7536
   69SAPC   H5X 5923   3.344   0.823   3.341 -0.3680  1.6722 -1.2209
   69SAPC   H5Y 5924   3.421   0.981   3.326  3.6105  1.1297  0.2155
   69SAPC   C36 5925   3.519   0.858   3.464  0.4304 -0.8993 -0.6200
   69SAPC   H6X 5926   3.596   0.938   3.467 -0.1392 -0.3614  1.6874
   69SAPC   H6Y 5927   3.577   0.764   3.470  0.6287 -0.7002  1.6908
   69SAPC   C37 5928   3.425   0.878   3.590  0.7183 -0.0431  0.1351
   69SAPC   H7X 5929   3.362   0.786   3.601 -1.4433  1.2995 -0.3714
   69SAPC   H7Y 5930   3.372   0.972   3.566  2.2069  1.0122  0.8581
   69SAPC   C38 5931   3.499   0.888   3.718 -0.4653 -0.2040  0.4598
   69SAPC   H8X 5932   3.571   0.972   3.709  1.5681 -1.8258  0.7579
   69SAPC   H8Y 5933   3.551   0.791   3.733 -0.0917  0.0959  1.1670
   69SAPC   C39 5934   3.399   0.891   3.828  0.5765  0.4024 -0.9779
   69SAPC   H9X 5935   3.334   0.804   3.849 -1.2687  2.4854  3.0337
   69SAPC   H9Y 5936   3.330   0.976   3.809 -1.9275 -0.6094  2.6949
   69SAPC  C310 5937   3.453   0.935   3.974 -0.2035  0.4004 -0.5611
   69SAPC  H10X 5938   3.365   0.991   4.011  2.0932  3.8777  0.1645
   69SAPC  H10Y 5939   3.524   1.020   3.963 -2.4329  2.2998 -1.1717
   69SAPC  C311 5940   3.507   0.818   4.061 -0.0596  0.4700  0.2243
   69SAPC  H11X 5941   3.583   0.752   4.014 -0.7919 -3.5001  3.9835
   69SAPC  H11Y 5942   3.420   0.751   4.077  1.2626 -2.0359 -2.2074
   69SAPC  C312 5943   3.561   0.879   4.194  0.5516 -0.9198 -0.5705
   69SAPC  H12X 5944   3.487   0.950   4.236  0.6155 -0.2358 -1.5783
   69SAPC  H12Y 5945   3.644   0.947   4.163  1.4502 -2.9066 -2.8038
   69SAPC  C313 5946   3.619   0.780   4.289 -0.0203 -0.0910  0.0138
   69SAPC  H13X 5947   3.709   0.822   4.340  0.7959 -0.7250 -0.8697
   69SAPC  H13Y 5948   3.651   0.686   4.240  2.5195  0.9686 -0.5250
   69SAPC  C314 5949   3.517   0.723   4.399  0.4309  0.5750  0.3413
   69SAPC  H14X 5950   3.415   0.753   4.366 -0.9639 -3.0178  0.9832
   69SAPC  H14Y 5951   3.538   0.772   4.497 -1.4776 -0.3939  1.2863
   69SAPC  C315 5952   3.520   0.570   4.403  0.1097 -0.9987  0.0787
   69SAPC  H15X 5953   3.490   0.533   4.302 -1.4115  0.2863  0.0289
   69SAPC  H15Y 5954   3.444   0.545   4.480 -0.1560  0.1268  0.1969
   69SAPC  C316 5955   3.654   0.509   4.449 -0.1952 -0.0563 -0.2056
   69SAPC  H16X 5956   3.679   0.560   4.545  1.5082  0.1301 -0.6980
   69SAPC  H16Y 5957   3.737   0.542   4.382  1.4629 -2.7132  0.3822
   69SAPC  C317 5958   3.653   0.361   4.455 -0.4385  0.2772  0.7076
   69SAPC  H17X 5959   3.753   0.327   4.490 -0.9497 -1.4966  0.5183
   69SAPC  H17Y 5960   3.615   0.317   4.361 -0.7139  0.4415  0.7405
   69SAPC  C318 5961   3.560   0.304   4.559 -0.1793 -0.9644 -1.0648
   69SAPC  H18X 5962   3.451   0.328   4.552 -0.0577 -0.4086 -1.1209
   69SAPC  H18Y 5963   3.591   0.336   4.661 -0.6253  0.5509 -1.3740
   69SAPC  H18Z 5964   3.560   0.193   4.562  0.6621 -0.9545 -0.1804
   70SAPC     N 5965   4.055   5.992   2.113  0.7469 -0.4534 -0.1497
   70SAPC   C12 5966   4.148   5.918   2.210  0.1127  0.3479  0.1816
   70SAPC  H12A 5967   4.248   5.935   2.175  1.1019 -1.0682  2.1395
   70SAPC  H12B 5968   4.129   5.814   2.190 -1.6267  1.0789 -2.6936
   70SAPC   C13 5969   4.113   6.121   2.080  0.2694 -0.3143 -0.7054
   70SAPC  H13A 5970   4.141   6.182   2.164 -2.1042  2.1540 -1.5733
   70SAPC  H13B 5971   4.204   6.104   2.023  0.1826 -0.1683 -0.8868
   70SAPC  H13C 5972   4.041   6.185   2.030  1.4051  0.3213 -1.6015
   70SAPC   C14 5973   4.043   5.922   1.983 -0.0021 -0.2989  0.1447
   70SAPC  H14A 5974   4.036   5.814   1.992 -0.1806 -0.2895  0.1305
   70SAPC  H14B 5975   3.958   5.956   1.924 -2.0159  0.8507  3.4494
   70SAPC  H14C 5976   4.133   5.931   1.924  0.4120 -1.7589  0.4987
   70SAPC   C15 5977   3.912   6.015   2.167  0.7037 -0.5893  0.3707
   70SAPC  H15A 5978   3.872   5.915   2.182  0.9815 -0.7790 -0.1454
   70SAPC  H15B 5979   3.916   6.080   2.253 -1.0908  0.7266 -0.4896
   70SAPC  H15C 5980   3.847   6.067   2.099  0.8644 -0.0168  0.6536
   70SAPC   C11 5981   4.150   5.948   2.360 -1.0446 -0.1110 -0.4165
   70SAPC  H11A 5982   4.145   6.058   2.376 -1.2483 -0.3695  1.5865
   70SAPC  H11B 5983   4.250   5.921   2.401 -0.4672 -0.0963 -1.7744
   70SAPC     P 5984   4.038   5.741   2.478  0.0114  0.1859  0.1364
   70SAPC   O13 5985   3.916   5.702   2.550 -0.2178  0.1009  0.1890
   70SAPC   O14 5986   4.070   5.648   2.366  0.1630  0.1890 -0.1431
   70SAPC   O12 5987   4.046   5.892   2.430  0.3687  0.2170 -0.0721
   70SAPC   O11 5988   4.152   5.734   2.579  0.2453  0.7090  0.0746
   70SAPC    C1 5989   4.175   5.829   2.682  0.2778  0.3308  0.2141
   70SAPC    HA 5990   4.286   5.835   2.686  0.3249 -0.5861  0.7579
   70SAPC    HB 5991   4.142   5.930   2.651 -0.7569 -0.8450 -2.8475
   70SAPC    C2 5992   4.118   5.775   2.814 -0.3398  0.0307  0.2864
   70SAPC    HS 5993   4.008   5.765   2.800 -0.4390 -0.0763  1.0867
   70SAPC   O21 5994   4.151   5.874   2.913  0.1007 -0.1711  0.3858
   70SAPC   C21 5995   4.052   5.909   2.996  0.0683 -0.9080  1.1562
   70SAPC   O22 5996   3.941   5.862   2.998  0.0620 -1.0838 -0.2872
   70SAPC   C22 5997   4.097   6.030   3.077  0.0174  0.2830  0.7601
   70SAPC   H2R 5998   4.188   5.997   3.132  0.1084 -1.6395 -0.4391
   70SAPC   H2S 5999   4.137   6.104   3.004  0.2050 -0.6372 -0.0890
   70SAPC    C3 6000   4.174   5.640   2.855  0.1074  0.9484 -0.3470
   70SAPC    HX 6001   4.285   5.641   2.855  0.3388 -2.6693 -3.1154
   70SAPC    HY 6002   4.142   5.566   2.779  3.0214  1.4550 -2.2223
   70SAPC   O31 6003   4.129   5.604   2.988  0.2747 -0.4136  0.2493
   70SAPC   C31 6004   4.004   5.569   3.007  0.7391  0.1803  0.4157
   70SAPC   O32 6005   3.928   5.552   2.914  0.1141 -0.1178 -0.7386
   70SAPC   C32 6006   3.967   5.555   3.151 -0.8713 -1.4435 -0.3417
   70SAPC   H2X 6007   3.871   5.605   3.174  0.6645  0.5020  2.5593
   70SAPC   H2Y 6008   4.050   5.596   3.214 -2.5859  0.5656  0.7287
   70SAPC   C23 6009   3.986   6.092   3.168 -0.0221  0.5079 -0.0520
   70SAPC   H3R 6010   3.998   6.037   3.263  1.8679 -0.9693 -1.0731
   70SAPC   H3S 6011   3.888   6.090   3.115  0.1006  0.9244 -0.3070
   70SAPC   C24 6012   4.010   6.238   3.214  0.5045 -0.0090 -0.1132
   70SAPC   H4R 6013   3.923   6.253   3.281  2.2831  0.1754  2.3138
   70SAPC   H4S 6014   3.996   6.314   3.134 -0.2101 -0.0295 -0.0111
   70SAPC   C25 6015   4.139   6.266   3.278  0.6683  0.4320  0.3321
   70SAPC   H5R 6016   4.219   6.265   3.202 -0.9291  2.7455 -1.5322
   70SAPC   C26 6017   4.179   6.255   3.406  0.0734 -0.7468 -0.0588
   70SAPC   H6R 6018   4.281   6.287   3.431 -0.3828  0.0800  0.8115
   70SAPC   C27 6019   4.094   6.233   3.529  0.7236 -0.2001 -0.2634
   70SAPC   H7R 6020   4.151   6.160   3.591  1.2155  1.0461  0.7991
   70SAPC   H7S 6021   3.992   6.194   3.514  0.9451 -0.4804 -1.1138
   70SAPC   C28 6022   4.083   6.363   3.603  0.4345 -0.4926 -0.2792
   70SAPC   H8R 6023   4.065   6.456   3.546  2.9286  0.1382 -0.1594
   70SAPC   C29 6024   4.100   6.369   3.741 -0.2888 -0.0482 -0.4080
   70SAPC   H9R 6025   4.083   6.466   3.791 -0.9006 -1.5057  2.4003
   70SAPC  C210 6026   4.112   6.244   3.828  0.3267 -0.1851  0.1180
   70SAPC  H10R 6027   4.214   6.205   3.847  0.6925  1.7195  2.6312
   70SAPC  H10S 6028   4.077   6.150   3.780 -0.5196 -1.0403  2.2881
   70SAPC  C211 6029   4.033   6.263   3.954  0.3989  0.0680  0.0203
   70SAPC  H11R 6030   3.933   6.219   3.953  0.2067  0.5043 -0.2155
   70SAPC  C212 6031   4.082   6.305   4.073  0.1095 -0.5489 -0.5932
   70SAPC  H12R 6032   4.007   6.323   4.152  1.4725  0.7260  0.4858
   70SAPC  C213 6033   4.221   6.368   4.087 -0.4624  0.4381  0.5213
   70SAPC  H13R 6034   4.248   6.420   3.992 -2.7240 -0.1525 -0.5181
   70SAPC  H13S 6035   4.291   6.282   4.085  1.1253  1.6983 -0.1342
   70SAPC  C214 6036   4.260   6.452   4.202 -0.7077 -0.1518 -0.2076
   70SAPC  H14R 6037   4.184   6.452   4.281 -0.5683 -3.3863  0.0375
   70SAPC  C215 6038   4.370   6.523   4.222 -0.6394  0.1898  1.0075
   70SAPC  H15R 6039   4.368   6.600   4.300 -1.8504 -0.5629  1.7341
   70SAPC  C216 6040   4.491   6.539   4.133  0.0642 -0.3539  0.1570
   70SAPC  H16R 6041   4.467   6.489   4.037  1.9922 -0.0120 -0.5535
   70SAPC  H16S 6042   4.582   6.491   4.175 -0.0132 -0.0072  0.7315
   70SAPC  C217 6043   4.541   6.685   4.098  0.5770 -0.3903 -0.4741
   70SAPC  H17R 6044   4.459   6.756   4.076  0.9452 -0.5029 -2.3667
   70SAPC  H17S 6045   4.604   6.691   4.006 -0.2605  0.1809 -1.0265
   70SAPC  C218 6046   4.621   6.750   4.217  0.9205 -0.2311 -0.7466
   70SAPC  H18R 6047   4.728   6.723   4.211  0.9138 -0.0491 -1.7005
   70SAPC  H18S 6048   4.583   6.711   4.314 -2.4390  2.0418 -0.9760
   70SAPC  C219 6049   4.611   6.906   4.230  0.3371  0.3863 -0.2811
   70SAPC  H19R 6050   4.508   6.939   4.258  0.4165  0.9416 -0.6150
   70SAPC  H19S 6051   4.639   6.937   4.127  1.1082 -1.3008 -0.5964
   70SAPC  C220 6052   4.701   6.976   4.330  0.4304  0.6344 -0.1030
   70SAPC  H20R 6053   4.807   6.945   4.315  0.1092  0.3218 -2.0634
   70SAPC  H20S 6054   4.679   6.950   4.435  0.7933 -1.0268 -0.4078
   70SAPC  H20T 6055   4.683   7.085   4.333 -1.4186  0.3635 -0.1951
   70SAPC   C33 6056   3.949   5.407   3.209 -0.8537 -0.0289  1.1627
   70SAPC   H3X 6057   4.049   5.364   3.185 -1.0957 -0.1645  0.3829
   70SAPC   H3Y 6058   3.876   5.349   3.150  0.5871 -2.0999  1.3146
   70SAPC   C34 6059   3.917   5.403   3.359 -0.3666 -0.6514  0.0815
   70SAPC   H4X 6060   3.849   5.315   3.369 -1.3883 -0.0115 -0.9121
   70SAPC   H4Y 6061   3.853   5.489   3.388 -1.0451 -1.4259  0.9613
   70SAPC   C35 6062   4.048   5.392   3.435 -0.2746  0.0940  0.0050
   70SAPC   H5X 6063   4.121   5.468   3.402  0.2260  0.2296  1.3530
   70SAPC   H5Y 6064   4.087   5.296   3.395 -0.3918  0.4600 -1.0031
   70SAPC   C36 6065   4.039   5.387   3.587 -0.1444  0.7518  0.6210
   70SAPC   H6X 6066   3.938   5.348   3.615  0.2810 -0.3096  0.7145
   70SAPC   H6Y 6067   4.047   5.483   3.642  0.4419  1.9008 -1.3919
   70SAPC   C37 6068   4.141   5.290   3.648  0.9188 -0.0983  0.1496
   70SAPC   H7X 6069   4.124   5.187   3.609 -2.7558  0.5135 -0.1921
   70SAPC   H7Y 6070   4.244   5.322   3.620 -0.0993  2.5704 -0.8100
   70SAPC   C38 6071   4.123   5.273   3.797 -0.2446 -0.1321 -0.3132
   70SAPC   H8X 6072   4.192   5.197   3.838  0.7600  1.9139  2.0396
   70SAPC   H8Y 6073   4.023   5.237   3.829 -0.3163  0.3125 -0.0341
   70SAPC   C39 6074   4.140   5.407   3.876  0.1427 -0.2026  0.7632
   70SAPC   H9X 6075   4.057   5.475   3.847  0.3977 -1.3043 -3.0926
   70SAPC   H9Y 6076   4.235   5.463   3.863 -0.3188  1.1442  2.7237
   70SAPC  C310 6077   4.136   5.378   4.027 -0.2855  0.1510 -0.1959
   70SAPC  H10X 6078   4.188   5.456   4.086 -0.0414 -0.3472  0.2654
   70SAPC  H10Y 6079   4.204   5.295   4.058 -1.6258 -0.4956  1.1428
   70SAPC  C311 6080   3.991   5.362   4.075  0.4454  0.2451  0.2718
   70SAPC  H11X 6081   3.942   5.267   4.043  0.1841 -0.5780  2.8873
   70SAPC  H11Y 6082   3.934   5.452   4.046 -2.2938 -1.0214  1.3527
   70SAPC  C312 6083   3.989   5.341   4.225 -0.6093 -0.6779 -0.0230
   70SAPC  H12X 6084   4.037   5.426   4.277  0.6149 -2.5117  2.0149
   70SAPC  H12Y 6085   4.060   5.256   4.238 -0.7934 -1.2527 -2.2978
   70SAPC  C313 6086   3.853   5.308   4.284 -0.3740 -0.5455  0.2590
   70SAPC  H13X 6087   3.801   5.232   4.223 -1.5145  1.0228 -0.8032
   70SAPC  H13Y 6088   3.796   5.403   4.268  2.1961  1.0670  0.1136
   70SAPC  C314 6089   3.842   5.276   4.432 -0.9095  0.4521  0.6260
   70SAPC  H14X 6090   3.846   5.363   4.500  0.3399  1.2030 -0.3608
   70SAPC  H14Y 6091   3.919   5.200   4.457 -0.6163  0.3172 -0.6238
   70SAPC  C315 6092   3.702   5.211   4.461 -0.3517  0.3887 -0.3157
   70SAPC  H15X 6093   3.701   5.117   4.402 -2.1353 -1.7503  2.8116
   70SAPC  H15Y 6094   3.620   5.272   4.416 -3.1613 -1.2585  2.1830
   70SAPC  C316 6095   3.674   5.179   4.611 -0.0415 -0.2053  0.2965
   70SAPC  H16X 6096   3.573   5.135   4.630  0.5202 -1.3799  0.6402
   70SAPC  H16Y 6097   3.675   5.275   4.666  0.9336  0.2669 -0.5128
   70SAPC  C317 6098   3.762   5.078   4.678  0.1606  0.5818  0.1530
   70SAPC  H17X 6099   3.749   5.090   4.788 -1.7122  1.7435 -0.1525
   70SAPC  H17Y 6100   3.868   5.100   4.652 -0.3993  2.5285 -0.6863
   70SAPC  C318 6101   3.726   4.925   4.642 -0.8941 -0.3230 -0.1285
   70SAPC  H18X 6102   3.788   4.863   4.710  0.4761  0.7558 -0.3334
   70SAPC  H18Y 6103   3.753   4.911   4.535  0.5562  2.7111 -0.2682
   70SAPC  H18Z 6104   3.621   4.912   4.673 -0.5447  0.4966  1.4807
   71SAPC     N 6105   5.627   3.283   1.957  0.1958  0.3096 -0.0894
   71SAPC   C12 6106   5.493   3.351   2.005  0.0579 -0.0448 -0.0038
   71SAPC  H12A 6107   5.479   3.453   1.973 -0.8163 -0.7723 -2.0880
   71SAPC  H12B 6108   5.500   3.352   2.113 -0.2935 -2.1040  0.0783
   71SAPC   C13 6109   5.618   3.261   1.816 -0.7032 -0.2408  0.0617
   71SAPC  H13A 6110   5.598   3.353   1.763  1.8272 -1.2222 -2.8666
   71SAPC  H13B 6111   5.707   3.217   1.774 -1.9690 -1.3983 -1.5072
   71SAPC  H13C 6112   5.536   3.193   1.798 -1.5306 -0.0061  2.4742
   71SAPC   C14 6113   5.742   3.376   1.995  0.1840  0.1636 -0.3187
   71SAPC  H14A 6114   5.835   3.339   1.954  0.2312  0.7280 -0.7367
   71SAPC  H14B 6115   5.731   3.477   1.959 -1.5714  0.1167  0.0077
   71SAPC  H14C 6116   5.745   3.384   2.103  0.9200  2.6710 -0.4587
   71SAPC   C15 6117   5.650   3.155   2.026 -0.0572 -0.4405 -0.3358
   71SAPC  H15A 6118   5.560   3.096   2.019  0.6923 -1.8567  1.3832
   71SAPC  H15B 6119   5.744   3.108   2.002  1.4837  1.6927  1.1469
   71SAPC  H15C 6120   5.653   3.171   2.133 -0.2968  2.3269 -0.6462
   71SAPC   C11 6121   5.360   3.271   1.976  0.0665  0.6600  0.0680
   71SAPC  H11A 6122   5.353   3.267   1.865 -0.8140 -1.5357  0.1571
   71SAPC  H11B 6123   5.269   3.323   2.013 -0.9146 -1.5775  1.0206
   71SAPC     P 6124   5.315   3.109   2.173  0.2639 -0.5838  0.0796
   71SAPC   O13 6125   5.173   3.088   2.158 -0.2457  0.1602  0.6114
   71SAPC   O14 6126   5.392   2.998   2.222 -0.1043 -0.3983 -0.0771
   71SAPC   O12 6127   5.364   3.135   2.024 -0.7718 -0.1311  0.0675
   71SAPC   O11 6128   5.345   3.246   2.247  0.2214  0.2194  0.1701
   71SAPC    C1 6129   5.450   3.261   2.345 -0.3261  0.6075 -0.7607
   71SAPC    HA 6130   5.530   3.185   2.333 -1.2412 -0.4265 -0.4195
   71SAPC    HB 6131   5.497   3.360   2.325 -0.6650  0.4944 -2.1961
   71SAPC    C2 6132   5.391   3.249   2.490  0.6314  0.0229 -0.4773
   71SAPC    HS 6133   5.463   3.290   2.564 -0.5799  1.1775  0.1168
   71SAPC   O21 6134   5.367   3.110   2.510  0.1519  0.2321 -0.3747
   71SAPC   C21 6135   5.456   3.043   2.580  0.3673 -0.4552 -0.6227
   71SAPC   O22 6136   5.565   3.090   2.615 -0.4959  0.3492 -0.0006
   71SAPC   C22 6137   5.407   2.906   2.609  0.0384 -0.1967 -0.7295
   71SAPC   H2R 6138   5.298   2.892   2.623 -0.3236 -0.1443 -3.0438
   71SAPC   H2S 6139   5.414   2.836   2.522 -2.1289 -0.8463 -0.4238
   71SAPC    C3 6140   5.271   3.337   2.508 -0.0445 -0.3688 -0.2178
   71SAPC    HX 6141   5.179   3.278   2.485 -1.4490 -0.1085  3.8081
   71SAPC    HY 6142   5.281   3.425   2.442 -0.1077 -1.6296 -1.9673
   71SAPC   O31 6143   5.261   3.383   2.643 -0.4487  0.0070  0.0017
   71SAPC   C31 6144   5.200   3.297   2.733  0.3147  0.4264  0.5784
   71SAPC   O32 6145   5.162   3.184   2.704 -0.1447 -0.3103  0.0180
   71SAPC   C32 6146   5.199   3.339   2.874  0.1796 -0.3981 -0.8293
   71SAPC   H2X 6147   5.130   3.424   2.895  1.0401  0.6216 -1.9587
   71SAPC   H2Y 6148   5.301   3.382   2.875  0.8521 -1.9300 -1.2455
   71SAPC   C23 6149   5.483   2.833   2.723  0.2582  0.3612 -0.5756
   71SAPC   H3R 6150   5.528   2.908   2.792  3.0754 -1.8620  0.2025
   71SAPC   H3S 6151   5.568   2.775   2.681  0.8831  1.0680 -0.3138
   71SAPC   C24 6152   5.377   2.742   2.801 -0.8258 -0.2360 -0.1807
   71SAPC   H4R 6153   5.327   2.666   2.737 -1.5298 -0.6495  0.8391
   71SAPC   H4S 6154   5.290   2.801   2.838  1.7543  1.8051  3.2317
   71SAPC   C25 6155   5.452   2.690   2.917 -0.0932 -0.1413 -0.9833
   71SAPC   H5R 6156   5.540   2.627   2.896  1.1446  0.6646  1.4268
   71SAPC   C26 6157   5.419   2.688   3.047 -0.1852 -0.5556 -0.4042
   71SAPC   H6R 6158   5.489   2.639   3.116  2.3986  1.9645 -1.0418
   71SAPC   C27 6159   5.313   2.766   3.113  0.4963 -0.7803  0.1242
   71SAPC   H7R 6160   5.262   2.838   3.045  0.6258 -0.1094  0.7188
   71SAPC   H7S 6161   5.358   2.836   3.187  0.4608 -3.8941  3.3573
   71SAPC   C28 6162   5.215   2.672   3.169  0.7676 -0.3891  0.2300
   71SAPC   H8R 6163   5.187   2.597   3.094  0.7836 -0.0097 -0.1589
   71SAPC   C29 6164   5.157   2.672   3.290 -0.8060  0.4901 -0.3619
   71SAPC   H9R 6165   5.089   2.590   3.318 -0.4588  0.6549  1.0194
   71SAPC  C210 6166   5.177   2.770   3.400  0.8793  0.0183  0.0644
   71SAPC  H10R 6167   5.080   2.808   3.439  1.2037  0.0633  0.8336
   71SAPC  H10S 6168   5.219   2.860   3.350 -1.1739  1.6722  1.1518
   71SAPC  C211 6169   5.268   2.740   3.516 -0.4908 -0.4017  0.1360
   71SAPC  H11R 6170   5.359   2.684   3.493  0.3220  0.0885  1.9943
   71SAPC  C212 6171   5.266   2.803   3.638  1.3123  0.0151  0.3847
   71SAPC  H12R 6172   5.341   2.770   3.712  0.5467 -2.3144  0.2220
   71SAPC  C213 6173   5.155   2.892   3.682 -0.3689  0.0631 -0.2428
   71SAPC  H13R 6174   5.084   2.918   3.600  0.4106  0.5600 -0.7828
   71SAPC  H13S 6175   5.198   2.991   3.710 -1.2142  0.3323  0.1376
   71SAPC  C214 6176   5.087   2.839   3.804  0.1802 -0.0582 -0.5863
   71SAPC  H14R 6177   4.981   2.814   3.792  0.1960  0.1473 -1.1877
   71SAPC  C215 6178   5.136   2.845   3.930 -0.1779 -0.1203 -0.2414
   71SAPC  H15R 6179   5.072   2.802   4.009 -0.4717 -1.0775 -0.9946
   71SAPC  C216 6180   5.276   2.899   3.964  0.2435 -0.3515  0.3073
   71SAPC  H16R 6181   5.319   2.959   3.881 -1.2638 -1.4912 -1.3806
   71SAPC  H16S 6182   5.355   2.823   3.984  1.0271  0.4945  0.5090
   71SAPC  C217 6183   5.277   2.972   4.104 -0.4522 -0.2326 -0.2523
   71SAPC  H17R 6184   5.230   2.917   4.187  0.6788  2.2718  2.2017
   71SAPC  H17S 6185   5.232   3.072   4.086  1.2842  0.3268 -1.7917
   71SAPC  C218 6186   5.419   2.999   4.149 -0.2819 -0.6534 -0.4634
   71SAPC  H18R 6187   5.460   3.056   4.062 -0.6846 -0.7810 -0.7402
   71SAPC  H18S 6188   5.470   2.900   4.145  1.6760  0.3188 -0.6608
   71SAPC  C219 6189   5.435   3.064   4.289 -0.5991 -0.2534 -0.5179
   71SAPC  H19R 6190   5.353   3.138   4.296 -0.9554 -0.3142 -3.0789
   71SAPC  H19S 6191   5.534   3.115   4.299 -1.7405  1.8426  0.8197
   71SAPC  C220 6192   5.407   2.972   4.408 -0.2315  0.2908 -0.0033
   71SAPC  H20R 6193   5.405   3.032   4.501  0.9413  1.4474 -0.6829
   71SAPC  H20S 6194   5.491   2.900   4.408  0.2700  0.7301 -3.0657
   71SAPC  H20T 6195   5.316   2.909   4.404 -0.6229  0.8227  0.3978
   71SAPC   C33 6196   5.190   3.221   2.967  1.1220  0.6362 -0.6789
   71SAPC   H3X 6197   5.263   3.143   2.935  0.6451  0.1305 -0.5451
   71SAPC   H3Y 6198   5.084   3.192   2.983  1.2107  0.1099 -1.0235
   71SAPC   C34 6199   5.252   3.270   3.098 -0.4003 -0.0226 -0.0202
   71SAPC   H4X 6200   5.197   3.358   3.136 -0.3370 -0.1325  0.3325
   71SAPC   H4Y 6201   5.356   3.302   3.076 -0.0841 -1.8108 -1.4174
   71SAPC   C35 6202   5.248   3.157   3.198 -0.1932  0.2991 -0.4046
   71SAPC   H5X 6203   5.284   3.068   3.143  0.1404  0.5559 -0.6035
   71SAPC   H5Y 6204   5.144   3.138   3.234  0.4948  0.2406  1.7070
   71SAPC   C36 6205   5.331   3.175   3.323 -0.5271 -0.0922  0.6287
   71SAPC   H6X 6206   5.436   3.192   3.291 -0.4401  0.5724  1.2391
   71SAPC   H6Y 6207   5.332   3.078   3.377  0.7849  0.3759  1.5097
   71SAPC   C37 6208   5.288   3.280   3.420 -0.2636  0.1968  0.4239
   71SAPC   H7X 6209   5.258   3.376   3.373 -0.5744  0.4345  1.0991
   71SAPC   H7Y 6210   5.374   3.308   3.485  1.3115  1.2671 -1.9762
   71SAPC   C38 6211   5.173   3.239   3.513  0.4089  0.0284  0.2624
   71SAPC   H8X 6212   5.170   3.131   3.537  0.1763  0.0557  0.3529
   71SAPC   H8Y 6213   5.086   3.274   3.454 -0.6029 -0.9636  1.1242
   71SAPC   C39 6214   5.165   3.323   3.644  1.0606 -0.0888  0.4785
   71SAPC   H9X 6215   5.169   3.426   3.602  0.8540  1.2818  3.5652
   71SAPC   H9Y 6216   5.254   3.291   3.702 -0.2308  0.0720  2.6384
   71SAPC  C310 6217   5.042   3.285   3.724 -0.2570 -0.1322 -0.3276
   71SAPC  H10X 6218   5.012   3.181   3.699  2.0679 -1.4041  1.7316
   71SAPC  H10Y 6219   4.960   3.358   3.707  0.7506  1.5867  1.6885
   71SAPC  C311 6220   5.073   3.280   3.873 -0.3760 -0.3370 -0.2441
   71SAPC  H11X 6221   5.173   3.234   3.887 -1.1427 -2.0442 -0.1920
   71SAPC  H11Y 6222   4.996   3.224   3.930 -0.3426  0.2674  0.4101
   71SAPC  C312 6223   5.085   3.423   3.938 -0.2825  0.2348  1.2969
   71SAPC  H12X 6224   5.020   3.492   3.880 -1.5507 -0.9915  1.2091
   71SAPC  H12Y 6225   5.191   3.450   3.916 -0.4342  0.8639  1.3298
   71SAPC  C313 6226   5.044   3.428   4.080 -0.0730  0.2189  0.4153
   71SAPC  H13X 6227   5.097   3.509   4.135  0.8523  0.3831 -0.6858
   71SAPC  H13Y 6228   5.076   3.340   4.140 -2.4172 -1.6621 -0.9118
   71SAPC  C314 6229   4.896   3.459   4.112  0.1965  0.2595  0.0478
   71SAPC  H14X 6230   4.826   3.391   4.058 -0.7247  0.6804  0.6735
   71SAPC  H14Y 6231   4.871   3.560   4.072  0.1170  0.4767  0.6346
   71SAPC  C315 6232   4.854   3.464   4.263 -0.0849  0.0864  0.5775
   71SAPC  H15X 6233   4.903   3.552   4.310 -0.0014  0.7113 -0.6382
   71SAPC  H15Y 6234   4.888   3.369   4.309 -0.9707 -2.4065 -3.4292
   71SAPC  C316 6235   4.703   3.484   4.280  0.5967  0.2602 -0.0906
   71SAPC  H16X 6236   4.652   3.408   4.218  0.5089 -0.4776  0.8660
   71SAPC  H16Y 6237   4.668   3.582   4.241  1.8105  0.4456 -0.7685
   71SAPC  C317 6238   4.658   3.493   4.417  0.5045  1.1958  0.2245
   71SAPC  H17X 6239   4.560   3.545   4.429 -0.6292 -0.9892  1.1868
   71SAPC  H17Y 6240   4.726   3.545   4.488 -0.2812  1.2245  0.9755
   71SAPC  C318 6241   4.629   3.352   4.477 -0.1657 -0.4827 -0.2801
   71SAPC  H18X 6242   4.550   3.291   4.427 -0.0808 -1.3739  0.6250
   71SAPC  H18Y 6243   4.590   3.365   4.580 -2.0362 -1.7111 -0.7797
   71SAPC  H18Z 6244   4.713   3.279   4.472 -0.5090 -0.8359 -3.4032
   72SAPC     N 6245   4.640   2.069   2.424  0.5521 -0.2911 -0.1439
   72SAPC   C12 6246   4.686   2.218   2.407 -0.1474  0.0981  0.6130
   72SAPC  H12A 6247   4.596   2.277   2.405 -2.5188 -3.2924 -0.0625
   72SAPC  H12B 6248   4.722   2.217   2.306  0.1547  0.3638  0.7144
   72SAPC   C13 6249   4.517   2.044   2.347  0.3477 -0.4246  0.2752
   72SAPC  H13A 6250   4.468   1.951   2.372 -1.4157  0.8302  1.8069
   72SAPC  H13B 6251   4.442   2.117   2.373  2.2784  1.5520  0.5509
   72SAPC  H13C 6252   4.544   2.034   2.243  2.9497 -1.3085  0.9586
   72SAPC   C14 6253   4.738   1.976   2.369 -0.6874  0.1231 -0.0980
   72SAPC  H14A 6254   4.770   1.995   2.267  0.3212 -0.4637  0.1025
   72SAPC  H14B 6255   4.833   1.984   2.418  0.7927  1.5371 -2.9066
   72SAPC  H14C 6256   4.705   1.876   2.390  0.0536 -0.7359 -2.6055
   72SAPC   C15 6257   4.617   2.022   2.563 -0.2620 -0.0585 -1.2566
   72SAPC  H15A 6258   4.713   2.017   2.612  0.6023  0.1086 -2.8567
   72SAPC  H15B 6259   4.554   2.097   2.609  3.1562  1.0570  2.1560
   72SAPC  H15C 6260   4.578   1.922   2.567  1.0725 -0.5635  0.0084
   72SAPC   C11 6261   4.792   2.269   2.502  0.4415 -0.7996  0.0162
   72SAPC  H11A 6262   4.778   2.237   2.607 -2.7734  1.8164  0.5374
   72SAPC  H11B 6263   4.790   2.380   2.506 -1.8089 -0.8313  1.2366
   72SAPC     P 6264   4.976   2.281   2.323 -0.1377 -0.5240  0.2376
   72SAPC   O13 6265   5.114   2.228   2.299 -0.6143 -0.2707  0.2198
   72SAPC   O14 6266   4.879   2.256   2.212  0.6019 -0.4072 -0.1163
   72SAPC   O12 6267   4.920   2.219   2.458  0.2120  0.2723  0.6536
   72SAPC   O11 6268   4.980   2.438   2.361 -0.2070 -0.3482  0.6764
   72SAPC    C1 6269   5.100   2.511   2.372 -0.5672  0.1415 -0.1572
   72SAPC    HA 6270   5.195   2.457   2.351  1.9753  3.2404  2.2754
   72SAPC    HB 6271   5.097   2.592   2.296 -0.0638 -1.4841 -1.9727
   72SAPC    C2 6272   5.114   2.579   2.513  0.6573 -0.4428  0.0381
   72SAPC    HS 6273   5.219   2.617   2.512  0.5115 -0.0361 -0.2211
   72SAPC   O21 6274   5.095   2.499   2.632 -0.3469  0.6347  0.1369
   72SAPC   C21 6275   5.171   2.389   2.638  0.3484  0.0636  0.8288
   72SAPC   O22 6276   5.256   2.357   2.557  0.1508  0.0864 -0.2197
   72SAPC   C22 6277   5.151   2.311   2.770  0.2420  0.1887  0.3799
   72SAPC   H2R 6278   5.256   2.292   2.802 -0.2811 -2.1015  0.9312
   72SAPC   H2S 6279   5.085   2.366   2.840 -0.5729  1.5443 -1.3697
   72SAPC    C3 6280   5.037   2.712   2.528  0.4776  0.1400  0.1561
   72SAPC    HX 6281   4.929   2.703   2.508  0.3123  2.2582 -0.1477
   72SAPC    HY 6282   5.078   2.776   2.447  0.3797  1.7220  1.3226
   72SAPC   O31 6283   5.059   2.771   2.656 -0.1240  0.1991 -1.1382
   72SAPC   C31 6284   4.961   2.842   2.707  0.3453  0.0972 -1.1470
   72SAPC   O32 6285   4.847   2.851   2.651 -0.3601  0.0268 -0.3016
   72SAPC   C32 6286   4.998   2.910   2.843  0.2248  0.1511 -0.6069
   72SAPC   H2X 6287   5.061   2.999   2.822 -0.8252  0.8677 -0.8310
   72SAPC   H2Y 6288   5.071   2.845   2.897 -1.3327 -0.6594  0.6180
   72SAPC   C23 6289   5.093   2.164   2.754  0.0640  0.2413 -0.5499
   72SAPC   H3R 6290   5.156   2.115   2.677  0.5000  3.1585 -2.1749
   72SAPC   H3S 6291   4.990   2.166   2.710  0.0532  0.1715 -0.5289
   72SAPC   C24 6292   5.096   2.087   2.886 -0.3174  0.5276  0.2578
   72SAPC   H4R 6293   5.198   2.095   2.931  0.6738 -1.2771 -1.5237
   72SAPC   H4S 6294   5.082   1.978   2.869  0.7566 -0.0641  2.6708
   72SAPC   C25 6295   4.981   2.125   2.978 -0.3285  0.2349  0.9027
   72SAPC   H5R 6296   4.879   2.101   2.946 -0.4359  2.5215 -0.7314
   72SAPC   C26 6297   4.997   2.189   3.099 -0.2121 -0.1960  0.2651
   72SAPC   H6R 6298   4.904   2.212   3.154 -0.0897 -1.6188  1.1281
   72SAPC   C27 6299   5.125   2.249   3.159 -0.2004 -0.3505 -0.1059
   72SAPC   H7R 6300   5.090   2.345   3.201 -0.1315 -1.0637  1.6586
   72SAPC   H7S 6301   5.201   2.279   3.084 -0.4893 -0.5775 -0.5000
   72SAPC   C28 6302   5.193   2.185   3.275  0.1610 -0.9839 -0.3353
   72SAPC   H8R 6303   5.284   2.128   3.253  0.0727 -1.1821 -0.1872
   72SAPC   C29 6304   5.149   2.166   3.404  0.3137 -0.0455 -0.1034
   72SAPC   H9R 6305   5.223   2.127   3.475  0.8524  0.6842 -0.2588
   72SAPC  C210 6306   5.030   2.232   3.465  0.2736 -0.4504 -0.4256
   72SAPC  H10R 6307   4.986   2.158   3.534  0.2441  0.1289  0.1910
   72SAPC  H10S 6308   4.963   2.254   3.379  0.3607  3.2851  0.2675
   72SAPC  C211 6309   5.069   2.353   3.540  0.2384  0.1572 -0.6352
   72SAPC  H11R 6310   5.038   2.449   3.495 -1.2231 -0.4289 -0.9514
   72SAPC  C212 6311   5.122   2.359   3.662  0.6120  0.5759  0.1340
   72SAPC  H12R 6312   5.140   2.463   3.690 -1.8784  0.9028  0.7504
   72SAPC  C213 6313   5.155   2.239   3.755  0.7531 -0.3744 -0.2427
   72SAPC  H13R 6314   5.144   2.148   3.693 -0.5367 -0.5506  0.2176
   72SAPC  H13S 6315   5.088   2.236   3.844  0.4483  0.4758 -0.4270
   72SAPC  C214 6316   5.298   2.246   3.805  0.4923  0.2926  0.2747
   72SAPC  H14R 6317   5.370   2.206   3.732 -0.9700  0.4717 -1.3228
   72SAPC  C215 6318   5.332   2.322   3.906 -0.5001 -0.0325 -0.0065
   72SAPC  H15R 6319   5.436   2.301   3.938 -0.5005 -3.0273 -1.5456
   72SAPC  C216 6320   5.249   2.404   3.997 -0.6607 -0.2958  0.0126
   72SAPC  H16R 6321   5.139   2.400   3.988 -0.8393 -0.4474  1.8237
   72SAPC  H16S 6322   5.267   2.510   3.971  0.0641 -0.3886  0.0924
   72SAPC  C217 6323   5.301   2.367   4.133 -0.0830  0.2330 -0.1661
   72SAPC  H17R 6324   5.409   2.388   4.143 -0.2446  2.0039 -1.5523
   72SAPC  H17S 6325   5.282   2.260   4.158 -0.4471 -0.2558 -2.2894
   72SAPC  C218 6326   5.245   2.464   4.247 -0.1502  0.8968 -0.5144
   72SAPC  H18R 6327   5.135   2.462   4.231 -0.0031  2.8965 -2.2564
   72SAPC  H18S 6328   5.259   2.573   4.230  1.4706  0.7411 -0.3904
   72SAPC  C219 6329   5.276   2.413   4.391  0.1394 -0.6425 -0.2671
   72SAPC  H19R 6330   5.371   2.466   4.412 -0.6573  1.8983 -2.4149
   72SAPC  H19S 6331   5.293   2.303   4.390 -0.8119 -0.8059  0.2726
   72SAPC  C220 6332   5.178   2.454   4.492  0.3608 -0.3019  0.6237
   72SAPC  H20R 6333   5.077   2.413   4.468 -0.0021  1.5218 -1.1861
   72SAPC  H20S 6334   5.167   2.563   4.474  1.2883 -0.4801 -1.2230
   72SAPC  H20T 6335   5.202   2.441   4.600  0.6258 -0.5530  0.5363
   72SAPC   C33 6336   4.889   2.960   2.938  0.4720  0.3954  0.3495
   72SAPC   H3X 6337   4.801   2.901   2.905  1.0872 -1.0989  1.2932
   72SAPC   H3Y 6338   4.870   3.069   2.926  1.4737  0.6607  1.0918
   72SAPC   C34 6339   4.921   2.929   3.084 -0.8013  0.2001  0.4102
   72SAPC   H4X 6340   5.020   2.976   3.102 -0.2663 -0.5378 -0.5019
   72SAPC   H4Y 6341   4.924   2.818   3.089  1.9301  0.1840  0.0189
   72SAPC   C35 6342   4.819   2.988   3.181  0.0707  0.4808 -0.2352
   72SAPC   H5X 6343   4.721   2.938   3.164 -0.6321  0.6702  2.7736
   72SAPC   H5Y 6344   4.804   3.093   3.147  1.7371  1.1440  1.0004
   72SAPC   C36 6345   4.859   2.973   3.331  0.4550  0.3596  0.5227
   72SAPC   H6X 6346   4.946   3.038   3.356 -1.7398  3.0637  1.6369
   72SAPC   H6Y 6347   4.870   2.868   3.367 -1.0104  0.1048  0.2780
   72SAPC   C37 6348   4.742   3.027   3.425 -0.2894  0.1369 -0.0420
   72SAPC   H7X 6349   4.650   2.977   3.389  0.6519 -0.4855 -1.6911
   72SAPC   H7Y 6350   4.743   3.137   3.416  0.5000  0.1304 -0.1416
   72SAPC   C38 6351   4.767   2.985   3.570 -0.6692  0.3795  0.4242
   72SAPC   H8X 6352   4.868   3.018   3.604 -0.8590  1.5912 -0.1333
   72SAPC   H8Y 6353   4.755   2.875   3.576 -2.5749  0.2819 -2.9204
   72SAPC   C39 6354   4.662   3.059   3.659  0.3252 -0.7021  0.1475
   72SAPC   H9X 6355   4.573   2.994   3.646 -0.6378  0.3778  1.1378
   72SAPC   H9Y 6356   4.637   3.163   3.627  0.7629 -0.9468 -1.0315
   72SAPC  C310 6357   4.710   3.060   3.801  0.1475 -0.4155  0.5196
   72SAPC  H10X 6358   4.808   3.112   3.809  0.0841 -0.0154 -1.0467
   72SAPC  H10Y 6359   4.745   2.958   3.826 -0.4034 -0.6924  0.1708
   72SAPC  C311 6360   4.605   3.103   3.908  1.1979  0.0113  0.1370
   72SAPC  H11X 6361   4.513   3.044   3.884  1.6551 -1.0697  0.9443
   72SAPC  H11Y 6362   4.593   3.213   3.904 -0.5491 -0.1232  0.4955
   72SAPC  C312 6363   4.642   3.059   4.052 -0.2349 -0.0952 -0.1880
   72SAPC  H12X 6364   4.732   3.118   4.081 -1.3306  1.6692 -0.2758
   72SAPC  H12Y 6365   4.673   2.952   4.053  0.9591  0.2319  1.5999
   72SAPC  C313 6366   4.529   3.065   4.153  0.3594  0.8150  0.4738
   72SAPC  H13X 6367   4.481   3.164   4.137  1.1997  1.3809  1.3598
   72SAPC  H13Y 6368   4.568   3.064   4.257  0.8615  2.1273  0.3159
   72SAPC  C314 6369   4.421   2.955   4.137 -0.1141  0.5820  0.4418
   72SAPC  H14X 6370   4.460   2.855   4.164  0.1670  0.8099  0.9092
   72SAPC  H14Y 6371   4.399   2.950   4.028  0.4528  0.9018  0.3052
   72SAPC  C315 6372   4.282   2.983   4.201  0.6154  0.2688  0.4104
   72SAPC  H15X 6373   4.257   3.091   4.192 -1.4322 -0.1298  0.7346
   72SAPC  H15Y 6374   4.290   2.969   4.310  0.4726 -2.0860  0.1629
   72SAPC  C316 6375   4.158   2.903   4.147  0.7419 -0.3488 -0.4640
   72SAPC  H16X 6376   4.172   2.873   4.041  2.6602 -0.4123 -0.2108
   72SAPC  H16Y 6377   4.065   2.964   4.139  0.3816 -0.8287  0.0574
   72SAPC  C317 6378   4.119   2.778   4.231 -0.2598 -0.2248 -0.1810
   72SAPC  H17X 6379   4.089   2.809   4.333 -3.3822 -0.3398 -0.9625
   72SAPC  H17Y 6380   4.212   2.719   4.245 -0.1514  0.3559  1.7347
   72SAPC  C318 6381   4.005   2.704   4.171  0.0718  0.2316  0.4459
   72SAPC  H18X 6382   3.959   2.632   4.241  0.5182  0.7819  1.3124
   72SAPC  H18Y 6383   4.041   2.641   4.087  1.0949  0.0575  1.0049
   72SAPC  H18Z 6384   3.924   2.772   4.135  0.2182  0.1592 -0.0295
   73SLPC     N 6385   0.040   1.664   7.094  0.6634  0.5748  0.0178
   73SLPC   C13 6386   0.140   1.566   7.129 -0.2261 -0.4057  0.2068
   73SLPC  H13A 6387   0.105   1.473   7.172  0.3962 -0.0203  1.5767
   73SLPC  H13B 6388   0.193   1.550   7.036 -0.9387  0.2502 -0.3273
   73SLPC  H13C 6389   0.208   1.615   7.196  0.1816 -0.6314 -0.0408
   73SLPC   C14 6390  -0.032   1.622   6.960  0.1225 -0.8587 -0.0937
   73SLPC  H14A 6391  -0.071   1.524   6.985  0.8888 -1.1403  0.0123
   73SLPC  H14B 6392  -0.104   1.697   6.932 -0.1151 -0.7313  0.8199
   73SLPC  H14C 6393   0.030   1.602   6.874 -1.5176 -0.3815 -1.4576
   73SLPC   C15 6394   0.099   1.799   7.072 -0.6461  0.6094 -0.3199
   73SLPC  H15A 6395   0.153   1.844   7.154  2.5033  0.7273 -2.2494
   73SLPC  H15B 6396   0.159   1.808   6.982 -0.8987 -0.0746 -0.5640
   73SLPC  H15C 6397   0.024   1.875   7.059  0.5408  2.0123  0.7046
   73SLPC   C12 6398  -0.076   1.674   7.203  0.4089  0.4309 -0.1896
   73SLPC  H12A 6399  -0.028   1.677   7.300 -2.3544 -0.7412  1.3313
   73SLPC  H12B 6400  -0.130   1.581   7.203  0.9050  0.0667  2.4680
   73SLPC   C11 6401  -0.186   1.780   7.195  0.8258 -0.0913 -0.0518
   73SLPC  H11A 6402  -0.268   1.762   7.268 -0.8213  0.6775 -1.6476
   73SLPC  H11B 6403  -0.227   1.771   7.093 -0.2260  2.2830  0.1170
   73SLPC     P 6404  -0.217   2.040   7.197 -0.3890  0.4179  0.7889
   73SLPC   O13 6405  -0.312   2.064   7.307  0.4514 -0.1974 -0.3402
   73SLPC   O14 6406  -0.121   2.142   7.163  0.1650 -0.0345 -0.1133
   73SLPC   O12 6407  -0.133   1.909   7.213  0.1453  0.6965  0.7040
   73SLPC   O11 6408  -0.293   1.996   7.073  0.8879  0.4934 -0.3227
   73SLPC    C1 6409  -0.410   2.057   7.021  0.0376  0.6073  0.5697
   73SLPC    HA 6410  -0.496   1.991   7.049  1.2690 -1.6187 -0.6176
   73SLPC    HB 6411  -0.423   2.157   7.066  0.1456  1.3821 -1.0487
   73SLPC    C2 6412  -0.407   2.089   6.868 -0.9025 -0.6603  0.6470
   73SLPC    HS 6413  -0.497   2.148   6.839 -0.7467 -0.4025  0.6896
   73SLPC   O21 6414  -0.389   1.976   6.784  0.0870  0.0158  0.2279
   73SLPC   C21 6415  -0.504   1.909   6.775 -0.4913  0.0567  0.7759
   73SLPC   O22 6416  -0.606   1.944   6.838 -0.1572 -0.0133 -0.2836
   73SLPC   C22 6417  -0.493   1.781   6.682 -1.2977 -0.2212 -0.9142
   73SLPC   H2R 6418  -0.383   1.774   6.674 -1.0269  0.9014  1.0479
   73SLPC   H2S 6419  -0.530   1.700   6.749 -0.2200  0.7200  0.8983
   73SLPC    C3 6420  -0.284   2.190   6.842  0.4610 -0.2036  0.5948
   73SLPC    HX 6421  -0.188   2.141   6.866  0.4272 -0.5575  0.0291
   73SLPC    HY 6422  -0.296   2.278   6.908 -0.2999  0.6612 -0.6494
   73SLPC   O31 6423  -0.291   2.238   6.708  0.4267  0.3725 -1.0120
   73SLPC   C31 6424  -0.227   2.167   6.615 -0.9657  0.5665  0.1378
   73SLPC   O32 6425  -0.158   2.066   6.639 -0.0014  0.0215  0.0141
   73SLPC   C32 6426  -0.266   2.212   6.479 -0.9637 -0.6462 -0.1515
   73SLPC   H2X 6427  -0.362   2.268   6.475 -1.0177 -0.7013  0.2818
   73SLPC   H2Y 6428  -0.277   2.123   6.413  1.7427 -2.4590  1.6334
   73SLPC   C23 6429  -0.575   1.786   6.553 -0.4029  0.5920  0.1464
   73SLPC   H3R 6430  -0.678   1.781   6.595 -1.6375 -1.0185 -2.7205
   73SLPC   H3S 6431  -0.568   1.690   6.497  0.9888 -1.2258  3.1670
   73SLPC   C24 6432  -0.541   1.893   6.448 -0.4568  0.5661  0.7004
   73SLPC   H4R 6433  -0.443   1.856   6.410  1.3327  3.1187  2.4888
   73SLPC   H4S 6434  -0.508   1.989   6.493 -1.5724  1.9870 -1.3121
   73SLPC   C25 6435  -0.645   1.912   6.333 -0.6737  0.5179 -0.0592
   73SLPC   H5R 6436  -0.680   2.018   6.338  0.4684  0.8753  0.6296
   73SLPC   H5S 6437  -0.732   1.844   6.345 -1.9181  2.1838  0.8113
   73SLPC   C26 6438  -0.575   1.879   6.201 -0.4355 -0.3748 -0.7698
   73SLPC   H6R 6439  -0.534   1.775   6.196 -2.4025 -1.1478 -2.6349
   73SLPC   H6S 6440  -0.500   1.959   6.187 -0.8005  0.4207  1.5160
   73SLPC   C27 6441  -0.675   1.897   6.084 -0.2983 -0.0231 -0.3401
   73SLPC   H7R 6442  -0.687   2.007   6.080  0.9356  0.2102  1.1558
   73SLPC   H7S 6443  -0.775   1.853   6.102 -0.8479  1.1600 -0.4566
   73SLPC   C28 6444  -0.606   1.843   5.959 -0.7098  0.2342  0.1064
   73SLPC   H8R 6445  -0.583   1.736   5.978 -1.4612  0.5782  3.7076
   73SLPC   H8S 6446  -0.502   1.882   5.957 -0.4020 -0.5790 -0.6436
   73SLPC   C29 6447  -0.693   1.875   5.838 -0.4350  0.3094  0.3381
   73SLPC   H9R 6448  -0.755   1.965   5.855 -1.1182  0.4865 -2.6412
   73SLPC  C210 6449  -0.693   1.814   5.719  0.2760  0.2477 -0.0210
   73SLPC  H10R 6450  -0.774   1.841   5.650  0.8350  0.8729 -0.4447
   73SLPC  C211 6451  -0.611   1.701   5.674  0.3692  0.2221 -0.2140
   73SLPC  H11R 6452  -0.667   1.607   5.660 -1.2818  0.7744  2.1254
   73SLPC  H11S 6453  -0.539   1.672   5.754 -0.9425 -1.4983  0.3868
   73SLPC  C212 6454  -0.528   1.738   5.556  0.0216 -0.3092 -0.6588
   73SLPC  H12R 6455  -0.424   1.759   5.587 -0.4180 -1.7875  2.1536
   73SLPC  C213 6456  -0.558   1.735   5.435  0.2329 -0.2345 -0.3280
   73SLPC  H13R 6457  -0.479   1.762   5.363  2.0843 -0.1076  1.6641
   73SLPC  C214 6458  -0.701   1.725   5.380  0.3201 -0.2312  0.1994
   73SLPC  H14R 6459  -0.784   1.743   5.452 -0.9540  2.4835 -1.7673
   73SLPC  H14S 6460  -0.712   1.625   5.334  3.6419  0.1146 -1.6826
   73SLPC  C215 6461  -0.733   1.844   5.286 -0.5052 -0.7786  1.0643
   73SLPC  H15R 6462  -0.669   1.843   5.194 -0.8927 -0.7659  0.7934
   73SLPC  H15S 6463  -0.716   1.940   5.340 -1.1384  0.1041 -0.2437
   73SLPC  C216 6464  -0.875   1.846   5.230  0.4812 -0.6224  0.4311
   73SLPC  H16R 6465  -0.892   1.953   5.205 -1.4125 -1.0263 -0.1723
   73SLPC  H16S 6466  -0.942   1.831   5.317 -0.8502  3.3535  0.2944
   73SLPC  C217 6467  -0.907   1.766   5.103 -0.4353 -0.7688 -1.0272
   73SLPC  H17R 6468  -1.014   1.788   5.079  0.0908  1.6788 -1.4358
   73SLPC  H17S 6469  -0.894   1.661   5.135  2.1337  0.4357  2.4470
   73SLPC  C218 6470  -0.822   1.795   4.986 -0.4663  0.1086 -0.0584
   73SLPC  H18R 6471  -0.842   1.895   4.941  1.2425  0.0708 -0.9839
   73SLPC  H18S 6472  -0.831   1.715   4.910  3.1576  0.6359 -1.2327
   73SLPC  H18T 6473  -0.713   1.782   5.005 -0.5168  0.0554  0.1971
   73SLPC   C33 6474  -0.164   2.312   6.406 -0.5481  0.0756  0.0091
   73SLPC   H3X 6475  -0.119   2.395   6.463 -2.0387  0.5467  0.5407
   73SLPC   H3Y 6476  -0.233   2.348   6.326 -1.7048 -0.2361  0.8337
   73SLPC   C34 6477  -0.046   2.243   6.337  0.3301 -0.6559 -0.1517
   73SLPC   H4X 6478  -0.081   2.151   6.285 -0.9652  1.5804 -3.6609
   73SLPC   H4Y 6479   0.023   2.219   6.421 -0.6525 -2.3310  0.2240
   73SLPC   C35 6480   0.025   2.327   6.229 -0.6587 -0.1044  0.4599
   73SLPC   H5X 6481   0.102   2.267   6.175 -2.6771 -1.5157 -1.0079
   73SLPC   H5Y 6482   0.075   2.415   6.274 -0.7962 -0.5261  1.4536
   73SLPC   C36 6483  -0.045   2.372   6.097  0.0876 -0.6877 -0.3807
   73SLPC   H6X 6484   0.023   2.439   6.041 -0.0372  0.1300  0.4338
   73SLPC   H6Y 6485  -0.134   2.438   6.106 -0.3678 -0.7198 -3.5979
   73SLPC   C37 6486  -0.089   2.261   6.004 -0.1400  0.2283  0.0656
   73SLPC   H7X 6487  -0.130   2.182   6.070  0.9655 -0.2421  0.2129
   73SLPC   H7Y 6488   0.007   2.215   5.973 -1.3149 -1.4472 -1.2860
   73SLPC   C38 6489  -0.183   2.305   5.887 -0.4140  0.2474 -0.3685
   73SLPC   H8X 6490  -0.134   2.386   5.829  2.7924 -1.6765 -0.5872
   73SLPC   H8Y 6491  -0.274   2.350   5.932  1.3132  3.3756  0.2225
   73SLPC   C39 6492  -0.212   2.190   5.790 -0.5450 -0.0912  0.0781
   73SLPC   H9X 6493  -0.272   2.111   5.841  1.2444  0.1566  2.7526
   73SLPC   H9Y 6494  -0.112   2.149   5.765  0.4565  2.1646  0.2063
   73SLPC  C310 6495  -0.294   2.245   5.665 -0.3237 -0.0459  0.1279
   73SLPC  H10X 6496  -0.252   2.339   5.624  2.1534  0.0032  2.4891
   73SLPC  H10Y 6497  -0.402   2.258   5.690 -0.9315 -0.9240 -1.8189
   73SLPC  C311 6498  -0.293   2.130   5.558  0.0744  0.3999  0.0925
   73SLPC  H11X 6499  -0.328   2.030   5.592 -0.0869 -0.3121 -2.0643
   73SLPC  H11Y 6500  -0.186   2.104   5.539 -0.2324 -0.6462 -0.2627
   73SLPC  C312 6501  -0.364   2.182   5.428  0.1389 -0.0045 -0.6379
   73SLPC  H12X 6502  -0.294   2.260   5.391  0.0876  0.8143  0.9070
   73SLPC  H12Y 6503  -0.463   2.227   5.454 -0.5391 -2.8748  2.4900
   73SLPC  C313 6504  -0.387   2.089   5.307 -0.0933  0.3269 -0.6895
   73SLPC  H13X 6505  -0.463   2.015   5.338 -0.9351  1.7328  0.7696
   73SLPC  H13Y 6506  -0.288   2.050   5.276 -0.9102 -0.2364 -2.8303
   73SLPC  C314 6507  -0.442   2.155   5.181  0.1202  0.5374 -0.7958
   73SLPC  H14X 6508  -0.358   2.214   5.137  1.1585 -1.1965 -1.2774
   73SLPC  H14Y 6509  -0.529   2.215   5.212  0.0868 -0.0595  0.3228
   73SLPC  C315 6510  -0.492   2.067   5.064 -0.6930  0.2172 -0.9072
   73SLPC  H15X 6511  -0.489   2.140   4.980 -1.3563  2.8537  1.2356
   73SLPC  H15Y 6512  -0.595   2.028   5.074 -0.4717 -0.2595 -0.4606
   73SLPC  C316 6513  -0.400   1.945   5.043  0.4183  0.4527  0.3884
   73SLPC  H16X 6514  -0.458   1.871   4.985  3.7550 -0.8631 -1.6040
   73SLPC  H16Y 6515  -0.391   1.886   5.136 -0.6982  1.5836  1.2407
   73SLPC  C317 6516  -0.261   1.975   4.981  0.1625  0.4382 -0.3632
   73SLPC  H17X 6517  -0.208   2.035   5.058 -1.4476  1.1093  0.2773
   73SLPC  H17Y 6518  -0.272   2.055   4.905  1.1947  1.0069  0.0690
   73SLPC  C318 6519  -0.190   1.854   4.912 -0.1291 -0.7972 -0.6561
   73SLPC  H18X 6520  -0.097   1.893   4.865  1.0973  0.6523  2.6544
   73SLPC  H18Y 6521  -0.252   1.805   4.833 -1.0335 -1.1938  0.2743
   73SLPC  H18Z 6522  -0.159   1.774   4.982  0.5481 -1.0734 -1.2515
   74SLPC     N 6523   4.121   0.126   7.322  0.4924 -0.1699 -0.4163
   74SLPC   C13 6524   4.057   0.211   7.424 -0.3228 -0.5706 -0.7182
   74SLPC  H13A 6525   4.034   0.310   7.386  1.0448  0.0089 -0.0955
   74SLPC  H13B 6526   3.960   0.176   7.456  0.4079 -1.3938  0.6915
   74SLPC  H13C 6527   4.115   0.226   7.514  1.8772  2.2734 -2.4396
   74SLPC   C14 6528   4.132  -0.017   7.367  0.3673 -0.3334 -0.0433
   74SLPC  H14A 6529   4.157  -0.009   7.472 -2.7456  0.6086  0.7143
   74SLPC  H14B 6530   4.030  -0.051   7.361  0.6328 -1.7010  2.2970
   74SLPC  H14C 6531   4.194  -0.088   7.313  0.1333 -1.0726  0.6470
   74SLPC   C15 6532   4.265   0.161   7.314 -0.2057 -0.2221  0.4475
   74SLPC  H15A 6533   4.301   0.112   7.225  0.9576  0.2219  0.6527
   74SLPC  H15B 6534   4.284   0.267   7.312  1.3739 -0.4452  1.5102
   74SLPC  H15C 6535   4.319   0.116   7.397  0.1235 -2.3027 -0.8332
   74SLPC   C12 6536   4.051   0.139   7.186  0.1266 -0.1876  0.0490
   74SLPC  H12A 6537   3.952   0.097   7.191  0.1311 -0.1514  0.5446
   74SLPC  H12B 6538   4.116   0.090   7.115  0.4821  0.2697  0.0567
   74SLPC   C11 6539   4.031   0.288   7.133 -0.3684  0.1238 -0.6343
   74SLPC  H11A 6540   3.961   0.337   7.204 -0.1938 -0.8727  0.2479
   74SLPC  H11B 6541   3.979   0.280   7.035 -1.0431 -1.3254 -0.1879
   74SLPC     P 6542   4.242   0.367   7.002 -0.2996  0.2272  0.3013
   74SLPC   O13 6543   4.341   0.480   6.995  0.7430 -0.2535 -0.1554
   74SLPC   O14 6544   4.303   0.228   6.999 -0.6732 -0.4838  0.0151
   74SLPC   O12 6545   4.147   0.368   7.127 -0.0665 -0.3522 -0.2983
   74SLPC   O11 6546   4.157   0.379   6.877  0.2598 -0.0809  0.6782
   74SLPC    C1 6547   4.123   0.485   6.788 -0.2312  0.4349  0.5057
   74SLPC    HA 6548   4.018   0.476   6.753 -0.2714  1.2403  0.4131
   74SLPC    HB 6549   4.137   0.585   6.834  0.0350 -0.3560  2.2196
   74SLPC    C2 6550   4.201   0.482   6.650 -0.5382  0.0037 -0.0737
   74SLPC    HS 6551   4.311   0.488   6.667 -0.0541  0.5487 -2.9865
   74SLPC   O21 6552   4.156   0.592   6.566  0.3512  0.0899  0.1307
   74SLPC   C21 6553   4.221   0.707   6.590  0.6514  0.0142 -0.6614
   74SLPC   O22 6554   4.306   0.726   6.674  0.3813  0.2431  0.5271
   74SLPC   C22 6555   4.169   0.814   6.499  0.0741 -0.5176 -0.8764
   74SLPC   H2R 6556   4.064   0.833   6.531  0.8788  2.0583  0.5570
   74SLPC   H2S 6557   4.237   0.902   6.501 -1.7280  1.0258 -2.6021
   74SLPC    C3 6558   4.182   0.350   6.579  0.0527 -0.6770 -0.0735
   74SLPC    HX 6559   4.244   0.280   6.640  1.1222  0.4029  0.1260
   74SLPC    HY 6560   4.232   0.360   6.481  2.9638  0.6563  1.3998
   74SLPC   O31 6561   4.041   0.312   6.581 -0.5028  0.5860  0.2202
   74SLPC   C31 6562   4.034   0.186   6.566  0.6172  0.3908  0.2473
   74SLPC   O32 6563   4.131   0.115   6.541  0.4658  0.5926  0.1990
   74SLPC   C32 6564   3.891   0.130   6.574  0.6969 -0.2419  0.5023
   74SLPC   H2X 6565   3.814   0.209   6.588 -0.4619 -0.9818 -1.3391
   74SLPC   H2Y 6566   3.889   0.070   6.668 -0.8487 -0.9878  0.0248
   74SLPC   C23 6567   4.165   0.760   6.350  0.2935  0.1413 -0.0286
   74SLPC   H3R 6568   4.082   0.686   6.348 -1.0834  1.6222 -2.2459
   74SLPC   H3S 6569   4.263   0.714   6.326 -0.5390 -1.5444 -0.3621
   74SLPC   C24 6570   4.118   0.866   6.244 -0.1791  0.1106  0.4058
   74SLPC   H4R 6571   4.192   0.946   6.268  0.8377 -1.0300  1.2227
   74SLPC   H4S 6572   4.022   0.921   6.258  0.6876  1.1884  2.7598
   74SLPC   C25 6573   4.121   0.820   6.094 -1.1612 -0.3160 -0.0097
   74SLPC   H5R 6574   4.091   0.712   6.089  2.6376 -1.4771 -0.7657
   74SLPC   H5S 6575   4.226   0.829   6.060 -1.4854  0.4705 -0.8507
   74SLPC   C26 6576   4.031   0.901   6.003 -0.4547  1.1143  0.1093
   74SLPC   H6R 6577   4.024   1.004   6.046  2.8689  1.4764  0.0293
   74SLPC   H6S 6578   3.934   0.849   5.994 -0.5857  1.4004 -0.1308
   74SLPC   C27 6579   4.088   0.919   5.858  0.4808  0.1464 -0.0261
   74SLPC   H7R 6580   4.083   0.819   5.810 -2.3448  1.4620 -2.8756
   74SLPC   H7S 6581   4.189   0.963   5.861  0.4461  0.2143  0.2303
   74SLPC   C28 6582   4.006   1.011   5.764  0.6593 -0.0742 -0.5467
   74SLPC   H8R 6583   4.057   1.022   5.667  0.0628 -1.6947 -1.0847
   74SLPC   H8S 6584   4.017   1.105   5.822  5.2532 -0.5799 -0.2993
   74SLPC   C29 6585   3.863   0.965   5.749  0.0265 -0.5618  0.5325
   74SLPC   H9R 6586   3.808   0.937   5.840 -1.8503 -0.5106 -0.5433
   74SLPC  C210 6587   3.796   0.968   5.634 -0.8711 -0.1259  0.0050
   74SLPC  H10R 6588   3.693   0.931   5.625  0.5135 -4.3342 -0.6669
   74SLPC  C211 6589   3.836   1.024   5.501 -0.1471  0.1557  1.0377
   74SLPC  H11R 6590   3.913   1.105   5.508 -1.1159  1.3416 -1.0118
   74SLPC  H11S 6591   3.750   1.078   5.456  0.8505 -0.1939 -1.4796
   74SLPC  C212 6592   3.870   0.915   5.410 -0.3386  0.1987  0.3242
   74SLPC  H12R 6593   3.926   0.833   5.456  0.0019  0.9428  1.2782
   74SLPC  C213 6594   3.840   0.897   5.278 -0.0861  0.5889  0.0242
   74SLPC  H13R 6595   3.880   0.807   5.229  2.2355  1.3953  0.3254
   74SLPC  C214 6596   3.764   0.988   5.188  0.0345  0.4223  0.8391
   74SLPC  H14R 6597   3.792   1.094   5.206 -1.5002  0.7801  1.2807
   74SLPC  H14S 6598   3.660   0.969   5.224  0.4179 -1.9742  0.8576
   74SLPC  C215 6599   3.769   0.958   5.041  0.0096  0.1985 -0.5759
   74SLPC  H15R 6600   3.722   0.858   5.029 -0.3555  0.1245  1.2460
   74SLPC  H15S 6601   3.876   0.954   5.013  0.9307  0.0242  2.6319
   74SLPC  C216 6602   3.703   1.069   4.960 -0.4855  1.1034  0.3732
   74SLPC  H16R 6603   3.763   1.162   4.963  1.7677 -0.2961  0.5086
   74SLPC  H16S 6604   3.598   1.074   4.998 -1.3130 -0.8895 -1.4910
   74SLPC  C217 6605   3.679   1.044   4.811 -0.0842 -0.3296 -0.2211
   74SLPC  H17R 6606   3.779   1.062   4.766  0.1305 -1.4794 -0.2479
   74SLPC  H17S 6607   3.603   1.119   4.782 -0.8857 -0.5459  1.2474
   74SLPC  C218 6608   3.638   0.911   4.777  0.3346 -0.7247 -0.6633
   74SLPC  H18R 6609   3.708   0.829   4.803 -0.7048 -1.0079  1.4167
   74SLPC  H18S 6610   3.619   0.901   4.668 -1.9123 -0.6970 -0.3256
   74SLPC  H18T 6611   3.547   0.884   4.834  0.3545 -1.9210 -1.1703
   74SLPC   C33 6612   3.857   0.046   6.451  1.2133 -0.0778  0.6446
   74SLPC   H3X 6613   3.772  -0.025   6.450  0.4308  0.7700  2.3482
   74SLPC   H3Y 6614   3.948  -0.012   6.424  0.1904 -0.3412 -2.7699
   74SLPC   C34 6615   3.827   0.136   6.328 -0.4937  0.3517  0.0304
   74SLPC   H4X 6616   3.906   0.214   6.332  2.0023 -2.0219 -0.6927
   74SLPC   H4Y 6617   3.729   0.188   6.331  1.1782  3.7062  2.4098
   74SLPC   C35 6618   3.834   0.051   6.192 -0.4862 -0.2638 -0.2624
   74SLPC   H5X 6619   3.765  -0.035   6.201 -0.1643 -0.5029 -0.0262
   74SLPC   H5Y 6620   3.935   0.005   6.180 -1.2442 -2.7188  1.8551
   74SLPC   C36 6621   3.794   0.133   6.064 -0.0419  0.7876 -1.0655
   74SLPC   H6X 6622   3.876   0.207   6.056  1.9737 -1.1443  0.4201
   74SLPC   H6Y 6623   3.700   0.186   6.090 -0.8807 -1.3714  0.6414
   74SLPC   C37 6624   3.778   0.052   5.942 -0.0051 -0.6102 -0.4533
   74SLPC   H7X 6625   3.679   0.002   5.933  0.2359 -1.1114 -0.3825
   74SLPC   H7Y 6626   3.849  -0.033   5.944  0.8200  0.0871  0.6263
   74SLPC   C38 6627   3.814   0.148   5.827 -0.1302  0.0280  1.0709
   74SLPC   H8X 6628   3.922   0.172   5.838  0.4352 -2.1656  0.8240
   74SLPC   H8Y 6629   3.751   0.239   5.828 -0.3107  0.0061 -1.4912
   74SLPC   C39 6630   3.783   0.077   5.691 -0.0029 -0.3356 -0.4763
   74SLPC   H9X 6631   3.676   0.048   5.692  0.1724 -1.6450 -4.1082
   74SLPC   H9Y 6632   3.850  -0.011   5.694 -1.3943 -1.4586 -1.1571
   74SLPC  C310 6633   3.830   0.159   5.578  0.2432 -0.0832  0.1395
   74SLPC  H10X 6634   3.938   0.175   5.602  0.1276  0.4249  0.3336
   74SLPC  H10Y 6635   3.774   0.254   5.571  1.2318  0.4134 -2.3519
   74SLPC  C311 6636   3.802   0.088   5.443  0.4698  0.5154  0.8457
   74SLPC  H11X 6637   3.696   0.058   5.448  0.4264  0.4393 -0.1801
   74SLPC  H11Y 6638   3.864  -0.002   5.426 -0.5681 -0.1635  0.5718
   74SLPC  C312 6639   3.801   0.174   5.315 -0.1003  0.2675  0.0259
   74SLPC  H12X 6640   3.904   0.212   5.303  0.5627 -2.2315 -3.8491
   74SLPC  H12Y 6641   3.738   0.263   5.336 -0.1352  0.3089 -0.2475
   74SLPC  C313 6642   3.738   0.115   5.184 -0.0125 -0.0396  0.1099
   74SLPC  H13X 6643   3.633   0.083   5.200 -0.0229 -0.0419  0.0411
   74SLPC  H13Y 6644   3.801   0.026   5.164  4.0824  2.4340  0.8000
   74SLPC  C314 6645   3.749   0.203   5.062 -0.4958 -0.1177 -0.3530
   74SLPC  H14X 6646   3.691   0.152   4.982  0.5631 -1.5327 -0.2384
   74SLPC  H14Y 6647   3.853   0.207   5.024 -0.5011  3.6147 -0.3928
   74SLPC  C315 6648   3.681   0.337   5.091 -0.2571 -0.9761  0.2417
   74SLPC  H15X 6649   3.748   0.393   5.160 -2.3066 -0.2623  1.7485
   74SLPC  H15Y 6650   3.585   0.310   5.139 -1.2209  2.6381  0.6216
   74SLPC  C316 6651   3.655   0.429   4.973 -0.4969  0.2379 -0.3176
   74SLPC  H16X 6652   3.591   0.387   4.892  0.9398  0.4128 -1.5816
   74SLPC  H16Y 6653   3.752   0.462   4.929 -0.4421  0.1250 -0.2819
   74SLPC  C317 6654   3.577   0.550   5.013  0.2349 -0.2200 -0.5621
   74SLPC  H17X 6655   3.645   0.634   5.039  0.5253 -0.5155 -0.3604
   74SLPC  H17Y 6656   3.516   0.525   5.102  2.0278 -0.8586  0.5372
   74SLPC  C318 6657   3.478   0.588   4.906 -0.1296 -0.5564  0.2122
   74SLPC  H18X 6658   3.522   0.632   4.814  0.0461 -0.9211  0.1181
   74SLPC  H18Y 6659   3.398   0.651   4.949 -0.8233 -1.4190  0.2144
   74SLPC  H18Z 6660   3.408   0.503   4.888 -1.7004  1.1518 -2.3265
   75SLPC     N 6661   6.409   3.168   7.273 -0.1345  0.7322  0.7282
   75SLPC   C13 6662   6.441   3.028   7.318 -0.4881 -0.0280 -0.3802
   75SLPC  H13A 6663   6.542   2.999   7.292 -0.9279 -1.5918 -0.4570
   75SLPC  H13B 6664   6.423   3.009   7.422  0.0889  0.0761 -0.2573
   75SLPC  H13C 6665   6.387   2.953   7.262 -0.6758 -0.9823  1.0516
   75SLPC   C14 6666   6.519   3.245   7.339 -1.0212  0.4677  0.2957
   75SLPC  H14A 6667   6.604   3.226   7.275 -3.0646 -1.5822 -2.0768
   75SLPC  H14B 6668   6.496   3.350   7.336  0.4881  0.8085 -1.9888
   75SLPC  H14C 6669   6.531   3.204   7.438  2.5455 -2.6682 -1.1807
   75SLPC   C15 6670   6.273   3.199   7.325  0.1376  0.4432  0.0453
   75SLPC  H15A 6671   6.238   3.297   7.295 -1.2972  0.2393  0.9535
   75SLPC  H15B 6672   6.196   3.129   7.295  1.3029 -0.4070 -1.1224
   75SLPC  H15C 6673   6.273   3.198   7.433 -0.3184  0.5833  0.0473
   75SLPC   C12 6674   6.414   3.170   7.119  0.4324  0.0166 -1.1075
   75SLPC  H12A 6675   6.392   3.273   7.093 -0.7150  0.1992  0.4628
   75SLPC  H12B 6676   6.331   3.105   7.094 -0.0493 -0.2693  1.0964
   75SLPC   C11 6677   6.536   3.117   7.038  0.3514 -0.2843 -0.3071
   75SLPC  H11A 6678   6.511   3.118   6.930 -0.8875 -1.8506 -0.0762
   75SLPC  H11B 6679   6.564   3.013   7.062 -0.7393 -0.0352  2.3332
   75SLPC     P 6680   6.681   3.334   6.993  0.2273 -0.0605 -0.5027
   75SLPC   O13 6681   6.564   3.419   7.017 -0.3761  0.0368 -0.4213
   75SLPC   O14 6682   6.806   3.381   7.053 -0.8021  0.1375 -0.6444
   75SLPC   O12 6683   6.658   3.198   7.061  0.4243  0.0545 -0.1712
   75SLPC   O11 6684   6.700   3.312   6.835 -0.0754 -0.4510  0.5249
   75SLPC    C1 6685   6.786   3.219   6.782  0.4716  0.6503 -0.5901
   75SLPC    HA 6686   6.893   3.245   6.767  0.5226  0.3983 -0.6674
   75SLPC    HB 6687   6.795   3.129   6.847 -0.0685  0.1609 -1.1844
   75SLPC    C2 6688   6.733   3.172   6.643  0.6174  0.3042 -0.4397
   75SLPC    HS 6689   6.805   3.089   6.621 -0.9529 -1.8501  1.9015
   75SLPC   O21 6690   6.739   3.276   6.548  0.0937  0.1758  0.4519
   75SLPC   C21 6691   6.861   3.296   6.497  0.2031  0.7060 -0.3475
   75SLPC   O22 6692   6.958   3.224   6.522  0.4910  0.0637  0.1910
   75SLPC   C22 6693   6.862   3.409   6.395  0.4578 -0.3935  0.3961
   75SLPC   H2R 6694   6.789   3.380   6.317 -0.9090 -0.2155  1.5774
   75SLPC   H2S 6695   6.814   3.495   6.447 -2.4084  0.9887 -3.9766
   75SLPC    C3 6696   6.588   3.114   6.647 -0.1101  0.8538  0.0815
   75SLPC    HX 6697   6.529   3.195   6.696 -0.2996  0.1450  1.0507
   75SLPC    HY 6698   6.592   3.024   6.712  0.5507  1.5475  1.0290
   75SLPC   O31 6699   6.550   3.084   6.513 -0.5580  0.0995 -0.0214
   75SLPC   C31 6700   6.416   3.092   6.494  0.4543  0.4992  0.3041
   75SLPC   O32 6701   6.335   3.134   6.575  0.0675 -0.3075 -0.0191
   75SLPC   C32 6702   6.376   3.034   6.355 -0.0972  0.5260  0.2595
   75SLPC   H2X 6703   6.392   2.925   6.360 -0.5025  0.5077  1.5809
   75SLPC   H2Y 6704   6.454   3.073   6.287  0.8332  0.8434  1.4683
   75SLPC   C23 6705   7.001   3.453   6.345 -0.9529 -0.3983 -0.0250
   75SLPC   H3R 6706   7.048   3.364   6.299 -0.5106 -0.5869  0.7730
   75SLPC   H3S 6707   7.055   3.481   6.438  0.9366  0.3099 -1.2873
   75SLPC   C24 6708   6.999   3.585   6.261  0.1190  0.2536  0.3738
   75SLPC   H4R 6709   7.088   3.644   6.293  0.8905  0.5367 -2.0251
   75SLPC   H4S 6710   6.915   3.643   6.304 -0.5129 -1.1822  1.1524
   75SLPC   C25 6711   6.977   3.558   6.113 -0.0767 -0.0270 -0.3521
   75SLPC   H5R 6712   6.939   3.653   6.070 -0.5208 -0.0742 -0.0820
   75SLPC   H5S 6713   6.893   3.486   6.099  0.5361 -1.1696  1.4687
   75SLPC   C26 6714   7.104   3.513   6.041  0.2466  0.0942 -0.0223
   75SLPC   H6R 6715   7.144   3.414   6.072  1.9373  1.3812  2.1955
   75SLPC   H6S 6716   7.178   3.594   6.057  0.1404  0.1299  0.2888
   75SLPC   C27 6717   7.069   3.497   5.891  0.1663  0.0491 -0.8934
   75SLPC   H7R 6718   7.001   3.581   5.863  0.1370 -0.6984 -3.3443
   75SLPC   H7S 6719   7.001   3.410   5.879 -1.2879  0.9055  0.6266
   75SLPC   C28 6720   7.183   3.466   5.793 -0.0228 -0.0444 -0.2735
   75SLPC   H8R 6721   7.213   3.362   5.817  0.0811  0.2927  1.1424
   75SLPC   H8S 6722   7.272   3.524   5.825  2.0266 -2.8292 -0.6111
   75SLPC   C29 6723   7.137   3.495   5.652  0.0467 -1.0788  0.5685
   75SLPC   H9R 6724   7.046   3.445   5.617 -0.9233  1.8052 -1.4082
   75SLPC  C210 6725   7.186   3.590   5.569 -0.7135  0.1450  0.0380
   75SLPC  H10R 6726   7.138   3.595   5.470 -2.3142  0.3069  0.7895
   75SLPC  C211 6727   7.294   3.686   5.587  0.7543  0.0321 -0.4243
   75SLPC  H11R 6728   7.392   3.644   5.553  0.9729  0.4938 -0.3780
   75SLPC  H11S 6729   7.297   3.720   5.693 -1.6503  1.9634 -0.9002
   75SLPC  C212 6730   7.279   3.811   5.504 -0.6282 -0.9359  0.3073
   75SLPC  H12R 6731   7.251   3.898   5.566  1.2176 -0.5950  0.7163
   75SLPC  C213 6732   7.289   3.824   5.369  0.2409  0.1367 -0.1249
   75SLPC  H13R 6733   7.271   3.920   5.320  1.7824 -0.4149 -1.9062
   75SLPC  C214 6734   7.310   3.705   5.275 -0.7250 -0.0321 -0.5085
   75SLPC  H14R 6735   7.226   3.707   5.203 -1.0088  2.9772 -0.2412
   75SLPC  H14S 6736   7.308   3.607   5.327  0.0324  0.5552  0.6748
   75SLPC  C215 6737   7.446   3.701   5.205  0.2865 -1.1024  0.1006
   75SLPC  H15R 6738   7.528   3.724   5.275 -0.4070 -0.7252  0.7957
   75SLPC  H15S 6739   7.446   3.782   5.129  0.2620 -0.3947  0.8498
   75SLPC  C216 6740   7.474   3.563   5.135  0.5134 -0.2580 -0.5759
   75SLPC  H16R 6741   7.388   3.557   5.065  0.4763  0.5947 -0.6120
   75SLPC  H16S 6742   7.463   3.487   5.215 -0.0986  2.3836  2.0434
   75SLPC  C217 6743   7.599   3.557   5.055  0.0413  0.2254 -0.2516
   75SLPC  H17R 6744   7.686   3.552   5.124 -1.3520  1.0093  1.6823
   75SLPC  H17S 6745   7.614   3.652   5.000  2.4348  0.2141  0.2809
   75SLPC  C218 6746   7.588   3.442   4.951 -0.6043 -0.5095  0.3529
   75SLPC  H18R 6747   7.597   3.341   4.996 -2.8587  0.4154  3.2239
   75SLPC  H18S 6748   7.670   3.460   4.879 -0.3946 -0.8220  0.5071
   75SLPC  H18T 6749   7.490   3.444   4.900  0.2217 -1.2596 -1.3327
   75SLPC   C33 6750   6.228   3.059   6.312  0.7209  0.3795 -0.1143
   75SLPC   H3X 6751   6.207   3.166   6.292 -1.6510  0.0851  0.4582
   75SLPC   H3Y 6752   6.161   3.022   6.393 -2.5029  2.4379 -1.6137
   75SLPC   C34 6753   6.189   3.002   6.176 -0.9733 -0.1635  0.5813
   75SLPC   H4X 6754   6.087   3.027   6.141  0.0541  2.0982 -1.0825
   75SLPC   H4Y 6755   6.193   2.893   6.195  1.1236 -0.2948 -0.3079
   75SLPC   C35 6756   6.281   3.047   6.061  0.2160  0.1282 -0.2072
   75SLPC   H5X 6757   6.391   3.031   6.071  0.6039  2.9397  0.9552
   75SLPC   H5Y 6758   6.266   3.157   6.056  0.8594  0.2485  0.3802
   75SLPC   C36 6759   6.229   2.989   5.927 -0.2601 -0.5705  0.7322
   75SLPC   H6X 6760   6.118   2.991   5.923 -0.2697  2.3456 -1.9678
   75SLPC   H6Y 6761   6.247   2.880   5.929  0.0772 -0.6099 -1.4199
   75SLPC   C37 6762   6.291   3.044   5.790 -0.6832  0.6003  0.3817
   75SLPC   H7X 6763   6.400   3.026   5.777 -0.4700  2.5424 -0.9040
   75SLPC   H7Y 6764   6.270   3.153   5.783 -1.6240  0.3453 -1.0404
   75SLPC   C38 6765   6.232   2.952   5.674 -0.8273  0.5938 -0.4123
   75SLPC   H8X 6766   6.121   2.964   5.676 -0.9068 -0.1035  1.5721
   75SLPC   H8Y 6767   6.259   2.848   5.700  4.6312  1.5435 -1.1154
   75SLPC   C39 6768   6.277   2.975   5.532  0.0705  0.2177  0.1137
   75SLPC   H9X 6769   6.383   2.954   5.508  0.6726  2.5565  0.5567
   75SLPC   H9Y 6770   6.260   3.080   5.501  2.6255 -0.1072 -2.8634
   75SLPC  C310 6771   6.182   2.895   5.439 -0.9943 -0.1474 -0.0381
   75SLPC  H10X 6772   6.081   2.935   5.463 -1.2811 -0.9778  0.1705
   75SLPC  H10Y 6773   6.183   2.785   5.447 -0.9045 -0.0503  1.6688
   75SLPC  C311 6774   6.210   2.923   5.291  0.3567 -0.4480  0.1519
   75SLPC  H11X 6775   6.318   2.910   5.266  0.3437  1.7138 -1.2275
   75SLPC  H11Y 6776   6.202   3.031   5.269 -0.5555 -1.1638 -3.8833
   75SLPC  C312 6777   6.109   2.864   5.191 -0.5168 -0.0722  0.4522
   75SLPC  H12X 6778   6.006   2.901   5.213 -1.1652 -1.3692 -0.2558
   75SLPC  H12Y 6779   6.103   2.755   5.211  1.8153 -0.3262  0.0168
   75SLPC  C313 6780   6.154   2.901   5.046 -0.7139  0.0379 -0.2567
   75SLPC  H13X 6781   6.253   2.856   5.023 -0.9363 -0.5599 -0.0595
   75SLPC  H13Y 6782   6.174   3.010   5.041  2.8804 -0.4188  0.7698
   75SLPC  C314 6783   6.062   2.849   4.943  0.6628  0.5442  0.0617
   75SLPC  H14X 6784   5.956   2.863   4.972  0.2659 -0.5655 -0.7819
   75SLPC  H14Y 6785   6.077   2.739   4.933 -2.9864  0.0671 -1.8217
   75SLPC  C315 6786   6.104   2.906   4.810 -0.3161  0.0433 -0.4417
   75SLPC  H15X 6787   6.210   2.878   4.793 -0.6915 -2.8151  1.2617
   75SLPC  H15Y 6788   6.083   3.015   4.811 -0.5349  0.0188  1.2922
   75SLPC  C316 6789   6.016   2.846   4.697 -0.7100  0.2422 -0.1679
   75SLPC  H16X 6790   5.906   2.860   4.705 -1.1687 -2.0821 -1.4400
   75SLPC  H16Y 6791   6.024   2.735   4.690 -1.2376  0.2180 -0.4417
   75SLPC  C317 6792   6.050   2.890   4.553 -0.7242 -0.1739 -0.2218
   75SLPC  H17X 6793   6.027   2.998   4.542  0.6903  0.0285 -1.4432
   75SLPC  H17Y 6794   5.982   2.837   4.482 -0.9347 -0.3131  0.0779
   75SLPC  C318 6795   6.191   2.860   4.505  0.0585 -0.2365  0.1156
   75SLPC  H18X 6796   6.266   2.926   4.554 -0.1978  0.5320 -0.4903
   75SLPC  H18Y 6797   6.205   2.881   4.397  0.5269 -0.5021  0.1243
   75SLPC  H18Z 6798   6.230   2.757   4.513  0.6202  0.0910  2.1769
   76SLPC     N 6799   1.819   3.110   7.309  0.3228  0.2914  0.3640
   76SLPC   C13 6800   1.793   3.235   7.386 -0.2436 -0.1102 -0.0030
   76SLPC  H13A 6801   1.863   3.231   7.468  1.8547 -2.4529 -1.7552
   76SLPC  H13B 6802   1.814   3.321   7.324  1.7493  1.2880  2.4186
   76SLPC  H13C 6803   1.693   3.242   7.425 -0.7301 -1.7703 -0.8254
   76SLPC   C14 6804   1.762   2.995   7.388 -0.5929  0.2470  0.5674
   76SLPC  H14A 6805   1.659   2.998   7.418 -1.2426 -4.3248 -0.4684
   76SLPC  H14B 6806   1.772   2.909   7.323 -1.8644  1.5848 -1.4962
   76SLPC  H14C 6807   1.814   2.982   7.482 -2.3321 -1.0419  1.4091
   76SLPC   C15 6808   1.969   3.089   7.289  0.0244  0.4207  0.0296
   76SLPC  H15A 6809   2.017   3.093   7.386  0.0488 -0.8993  0.0795
   76SLPC  H15B 6810   1.984   2.989   7.254 -0.1153  0.5632 -0.4432
   76SLPC  H15C 6811   1.990   3.163   7.213 -2.7242  0.4093 -0.8634
   76SLPC   C12 6812   1.750   3.134   7.172  0.0042 -0.2402 -0.2101
   76SLPC  H12A 6813   1.803   3.218   7.131 -1.0510  1.1374  1.1235
   76SLPC  H12B 6814   1.646   3.165   7.179 -0.1739 -0.8285 -0.1973
   76SLPC   C11 6815   1.767   3.014   7.069  0.7233  0.3403 -0.1700
   76SLPC  H11A 6816   1.875   2.999   7.049  0.0378 -1.9552 -2.7348
   76SLPC  H11B 6817   1.729   3.044   6.969 -0.0165  0.7881  0.2367
   76SLPC     P 6818   1.752   2.765   7.020  0.1322  0.0330 -0.1150
   76SLPC   O13 6819   1.901   2.753   7.031  0.2632 -0.4286 -0.1970
   76SLPC   O14 6820   1.655   2.646   7.036 -0.0211 -0.7613  0.2232
   76SLPC   O12 6821   1.704   2.890   7.107 -0.2285  0.1911 -0.5990
   76SLPC   O11 6822   1.718   2.821   6.882  0.6509 -0.4990 -0.2616
   76SLPC    C1 6823   1.785   2.787   6.757  0.5971 -0.3218 -0.2891
   76SLPC    HA 6824   1.867   2.716   6.781  0.2527 -0.0104  2.0011
   76SLPC    HB 6825   1.710   2.733   6.695  0.9462  0.2848 -1.2627
   76SLPC    C2 6826   1.841   2.912   6.676 -0.2607 -0.0614 -0.3103
   76SLPC    HS 6827   1.895   2.978   6.747  0.8421  0.4541 -1.5698
   76SLPC   O21 6828   1.734   2.988   6.616 -0.2167  0.0797  0.3275
   76SLPC   C21 6829   1.743   3.116   6.588  0.8084 -0.4080 -0.7018
   76SLPC   O22 6830   1.829   3.195   6.618 -0.6382  0.1382 -0.5577
   76SLPC   C22 6831   1.613   3.152   6.512 -0.1365 -0.3039 -0.3710
   76SLPC   H2R 6832   1.549   3.061   6.511 -0.1512 -0.2934 -0.4114
   76SLPC   H2S 6833   1.567   3.232   6.575 -0.4711  0.4604 -1.5380
   76SLPC    C3 6834   1.938   2.871   6.562  0.0355  0.1590 -0.5137
   76SLPC    HX 6835   2.016   2.808   6.610  0.4699  0.2400 -1.0967
   76SLPC    HY 6836   1.983   2.965   6.523  2.6052 -1.2399 -1.1380
   76SLPC   O31 6837   1.865   2.808   6.461 -0.0537  0.2528 -0.0564
   76SLPC   C31 6838   1.892   2.681   6.441  0.0267  0.3473  0.4536
   76SLPC   O32 6839   1.959   2.605   6.506 -0.3509  0.8520 -0.1276
   76SLPC   C32 6840   1.810   2.645   6.312  0.1946 -0.1698  0.6673
   76SLPC   H2X 6841   1.873   2.661   6.223 -0.8273 -2.5591 -0.5533
   76SLPC   H2Y 6842   1.718   2.708   6.300  0.6277  0.0490 -1.9834
   76SLPC   C23 6843   1.635   3.222   6.379  0.1149 -0.2195  0.2070
   76SLPC   H3R 6844   1.730   3.279   6.389 -1.1116  1.5809  2.3088
   76SLPC   H3S 6845   1.551   3.294   6.367  0.2793 -0.4201 -3.1686
   76SLPC   C24 6846   1.641   3.123   6.261  0.4296 -0.2129 -0.2001
   76SLPC   H4R 6847   1.535   3.115   6.228 -0.3546  1.0150  1.8422
   76SLPC   H4S 6848   1.681   3.025   6.292  0.8085 -0.2160 -0.6764
   76SLPC   C25 6849   1.717   3.177   6.144 -0.4393 -0.2323 -0.1978
   76SLPC   H5R 6850   1.815   3.218   6.177 -0.1700 -0.8944 -0.1695
   76SLPC   H5S 6851   1.658   3.262   6.103 -0.6110 -0.7558 -1.0420
   76SLPC   C26 6852   1.740   3.080   6.026  0.2253 -0.0723 -0.1972
   76SLPC   H6R 6853   1.743   3.138   5.931  1.9785 -3.0372 -2.1052
   76SLPC   H6S 6854   1.643   3.026   6.017  0.2222 -0.6666  2.5291
   76SLPC   C27 6855   1.858   2.991   6.030 -0.4152  0.3789  0.0793
   76SLPC   H7R 6856   1.877   2.937   6.125  0.9731  1.0116  0.1855
   76SLPC   H7S 6857   1.947   3.054   6.009  0.8965 -1.9147 -1.7030
   76SLPC   C28 6858   1.865   2.881   5.915 -0.7403  0.4197  0.6244
   76SLPC   H8R 6859   1.971   2.850   5.915 -0.7955 -0.2459 -3.0128
   76SLPC   H8S 6860   1.842   2.941   5.824 -0.3788  1.8425  1.4400
   76SLPC   C29 6861   1.775   2.764   5.933 -0.4983  0.0413 -0.0905
   76SLPC   H9R 6862   1.759   2.728   6.036  1.8132  1.0550  0.6774
   76SLPC  C210 6863   1.722   2.686   5.837  0.2253  0.5466  0.2618
   76SLPC  H10R 6864   1.652   2.610   5.873  2.2561 -1.7500 -0.3972
   76SLPC  C211 6865   1.735   2.696   5.686  0.4367  0.9465  0.6216
   76SLPC  H11R 6866   1.787   2.794   5.676 -0.9828  1.6474 -0.1463
   76SLPC  H11S 6867   1.638   2.719   5.638  0.4379  2.1384  1.1384
   76SLPC  C212 6868   1.816   2.579   5.623  0.8180  0.0999 -0.6048
   76SLPC  H12R 6869   1.792   2.478   5.660 -2.1736  1.2617  0.9931
   76SLPC  C213 6870   1.913   2.582   5.537  0.3854  0.1608  0.4845
   76SLPC  H13R 6871   1.960   2.486   5.512  1.2955  0.7245 -0.0625
   76SLPC  C214 6872   1.968   2.708   5.469  0.0388 -0.4219  0.1356
   76SLPC  H14R 6873   2.069   2.741   5.502  1.0454 -0.4197 -2.7095
   76SLPC  H14S 6874   1.901   2.794   5.492 -0.5815 -1.0490  0.7142
   76SLPC  C215 6875   1.980   2.688   5.326  0.4501 -0.4901 -0.0870
   76SLPC  H15R 6876   1.883   2.660   5.279 -1.0830  2.0692  1.3712
   76SLPC  H15S 6877   2.045   2.602   5.298  0.2462 -0.4554 -0.6817
   76SLPC  C216 6878   2.033   2.815   5.264 -0.2097 -0.6665  0.1704
   76SLPC  H16R 6879   2.122   2.860   5.314 -1.2614  1.6846  0.0643
   76SLPC  H16S 6880   1.957   2.895   5.279  0.7372 -0.0594  2.0857
   76SLPC  C217 6881   2.059   2.793   5.114 -0.0554  0.7074  0.8342
   76SLPC  H17R 6882   1.961   2.766   5.070 -0.2047  0.0614  1.5292
   76SLPC  H17S 6883   2.125   2.704   5.100 -0.8310 -0.2053  2.6064
   76SLPC  C218 6884   2.102   2.930   5.052 -0.9548  0.2650 -0.2770
   76SLPC  H18R 6885   2.106   2.916   4.941  1.9490  1.5533 -0.4027
   76SLPC  H18S 6886   2.185   2.967   5.115 -0.8195 -0.5072  0.0142
   76SLPC  H18T 6887   2.023   3.008   5.059  0.5361  2.0315 -1.9388
   76SLPC   C33 6888   1.758   2.495   6.299  0.6011  0.7458 -0.7384
   76SLPC   H3X 6889   1.685   2.479   6.216 -0.4122  0.1275  0.2349
   76SLPC   H3Y 6890   1.697   2.459   6.384 -0.6839 -1.2226 -2.3812
   76SLPC   C34 6891   1.874   2.399   6.273  0.1865 -0.0970  0.7337
   76SLPC   H4X 6892   1.837   2.296   6.292 -0.7577 -0.4284 -2.4361
   76SLPC   H4Y 6893   1.950   2.405   6.354  1.2872 -0.4787 -0.2387
   76SLPC   C35 6894   1.914   2.390   6.124  0.3531  0.0789  0.1392
   76SLPC   H5X 6895   1.938   2.490   6.083 -1.2019  0.4961  0.1750
   76SLPC   H5Y 6896   1.834   2.352   6.056  1.0746 -0.2728 -0.5267
   76SLPC   C36 6897   2.048   2.311   6.111  0.1247 -0.0295  0.0375
   76SLPC   H6X 6898   2.031   2.222   6.176  1.0502 -1.1412 -1.1843
   76SLPC   H6Y 6899   2.147   2.349   6.142  0.8204  0.4500 -2.5456
   76SLPC   C37 6900   2.061   2.279   5.958  0.3586 -0.2451 -0.3208
   76SLPC   H7X 6901   2.052   2.378   5.908  0.2377 -0.6023 -1.0089
   76SLPC   H7Y 6902   1.973   2.224   5.917 -0.3986 -0.7619  1.8345
   76SLPC   C38 6903   2.182   2.201   5.914  0.3527 -0.6621  0.4780
   76SLPC   H8X 6904   2.217   2.116   5.977 -1.5817 -0.2917  2.1519
   76SLPC   H8Y 6905   2.259   2.277   5.938 -1.9272  0.9848  3.0897
   76SLPC   C39 6906   2.192   2.171   5.768  0.3919  0.3490  0.5055
   76SLPC   H9X 6907   2.174   2.270   5.720 -2.6667  0.4340  1.6215
   76SLPC   H9Y 6908   2.113   2.098   5.742 -0.0239  0.8676  0.3021
   76SLPC  C310 6909   2.326   2.110   5.728 -0.5377  0.6281  0.4669
   76SLPC  H10X 6910   2.346   2.029   5.802 -4.0021 -0.6481  0.1403
   76SLPC  H10Y 6911   2.402   2.192   5.732 -1.4780  1.5603 -0.4229
   76SLPC  C311 6912   2.340   2.034   5.589 -0.5207 -0.1621 -0.4735
   76SLPC  H11X 6913   2.330   2.111   5.509 -0.2644  1.9154  1.3922
   76SLPC  H11Y 6914   2.262   1.956   5.576  1.1352 -1.6149 -2.6339
   76SLPC  C312 6915   2.476   1.946   5.576 -0.2622 -1.1014  0.1451
   76SLPC  H12X 6916   2.473   1.873   5.660  0.8857 -1.4921 -0.1429
   76SLPC  H12Y 6917   2.557   2.019   5.598 -1.1342  0.5299 -1.8076
   76SLPC  C313 6918   2.497   1.895   5.433  0.1195  0.0120 -0.5602
   76SLPC  H13X 6919   2.503   1.982   5.364  2.0432  0.7796  0.5128
   76SLPC  H13Y 6920   2.406   1.837   5.407 -0.1141 -0.7577  1.7406
   76SLPC  C314 6921   2.613   1.803   5.420  0.3683  0.3121  0.8213
   76SLPC  H14X 6922   2.603   1.718   5.492 -2.3237  0.1906  0.4184
   76SLPC  H14Y 6923   2.711   1.846   5.450  0.2877 -0.3721  2.1389
   76SLPC  C315 6924   2.624   1.747   5.271 -0.5531 -1.1329 -0.5438
   76SLPC  H15X 6925   2.521   1.728   5.235 -1.6998  0.7464  1.5148
   76SLPC  H15Y 6926   2.691   1.660   5.257 -1.7203 -1.6843 -3.5649
   76SLPC  C316 6927   2.699   1.850   5.183  0.0206 -0.3928  0.1826
   76SLPC  H16X 6928   2.667   1.949   5.222 -0.1271  0.1333 -1.2208
   76SLPC  H16Y 6929   2.648   1.843   5.085  1.5895  2.3262 -0.9548
   76SLPC  C317 6930   2.848   1.821   5.169  0.0429  0.1034 -0.2236
   76SLPC  H17X 6931   2.876   1.718   5.136  1.4517 -0.5646  2.7314
   76SLPC  H17Y 6932   2.882   1.825   5.274  0.0608 -0.9292 -0.1829
   76SLPC  C318 6933   2.926   1.915   5.084  0.7905  0.2636 -0.5781
   76SLPC  H18X 6934   2.863   1.947   4.998 -0.6311  3.3713  1.4656
   76SLPC  H18Y 6935   3.014   1.856   5.048 -0.5824 -3.0996  1.1845
   76SLPC  H18Z 6936   2.959   2.009   5.132  1.8230  1.2152 -2.9735
   77SLPC     N 6937   1.094   1.560   6.893 -0.8052  0.0080 -0.1613
   77SLPC   C13 6938   1.012   1.457   6.969 -0.2970  0.3713  0.5036
   77SLPC  H13A 6939   1.022   1.463   7.076  0.5882 -1.7058  0.5839
   77SLPC  H13B 6940   0.907   1.477   6.956 -0.3600 -0.8343 -1.2847
   77SLPC  H13C 6941   1.040   1.354   6.953  1.7217  1.1769 -1.7109
   77SLPC   C14 6942   1.060   1.550   6.750  0.1637  0.1207  0.0915
   77SLPC  H14A 6943   1.129   1.616   6.700 -0.3943  1.1977  0.7177
   77SLPC  H14B 6944   1.070   1.446   6.721 -0.7874 -0.7256  2.5273
   77SLPC  H14C 6945   0.954   1.565   6.732  0.3284  0.7010 -0.4088
   77SLPC   C15 6946   1.242   1.528   6.911  0.0783  0.4244  0.0284
   77SLPC  H15A 6947   1.272   1.438   6.860  0.8352  0.5876  0.1677
   77SLPC  H15B 6948   1.304   1.607   6.873  2.1544 -1.0334  0.2074
   77SLPC  H15C 6949   1.266   1.530   7.016 -0.9671 -1.2247  0.3420
   77SLPC   C12 6950   1.057   1.697   6.949 -0.6792 -0.6609  0.3014
   77SLPC  H12A 6951   1.091   1.772   6.880  2.0817 -2.6349 -0.6646
   77SLPC  H12B 6952   1.108   1.720   7.042 -3.0460  0.0683  1.5080
   77SLPC   C11 6953   0.910   1.725   6.978  0.9739 -0.2744  0.0166
   77SLPC  H11A 6954   0.873   1.654   7.056 -0.7017 -1.9238 -2.1557
   77SLPC  H11B 6955   0.850   1.695   6.889  0.3475 -0.5726  0.5207
   77SLPC     P 6956   0.889   1.979   6.927 -0.1133 -0.3405  0.2072
   77SLPC   O13 6957   0.822   2.093   6.984 -0.1671  0.0106  0.2508
   77SLPC   O14 6958   1.033   1.986   6.885  0.4014 -0.3708 -0.3573
   77SLPC   O12 6959   0.877   1.856   7.017 -0.2522 -0.5134  0.2608
   77SLPC   O11 6960   0.805   1.939   6.800  0.2061 -0.0752  0.7310
   77SLPC    C1 6961   0.749   2.037   6.714  0.0049  0.1595 -1.0092
   77SLPC    HA 6962   0.646   2.065   6.745 -0.0597  0.8104 -1.7731
   77SLPC    HB 6963   0.789   2.140   6.730 -1.9721  1.0637 -1.5395
   77SLPC    C2 6964   0.757   1.994   6.571  0.0591 -0.5229  1.0496
   77SLPC    HS 6965   0.763   2.083   6.504  2.5573 -0.5239  1.1816
   77SLPC   O21 6966   0.649   1.906   6.548 -0.3283  0.4630 -0.3190
   77SLPC   C21 6967   0.538   1.970   6.517 -0.6915  0.1444  0.7200
   77SLPC   O22 6968   0.528   2.093   6.515 -0.3461  0.1737  0.5303
   77SLPC   C22 6969   0.430   1.870   6.482  0.1327  0.9085 -0.0457
   77SLPC   H2R 6970   0.475   1.769   6.473 -0.2982  0.8052 -1.0555
   77SLPC   H2S 6971   0.359   1.863   6.567 -0.1981 -0.5884 -0.4310
   77SLPC    C3 6972   0.885   1.924   6.542 -0.1082 -0.1006  0.8925
   77SLPC    HX 6973   0.861   1.822   6.577 -0.6241 -0.3293 -0.0925
   77SLPC    HY 6974   0.977   1.966   6.588 -0.6885  0.6128  1.4268
   77SLPC   O31 6975   0.907   1.908   6.399 -0.5473  0.3172 -0.6237
   77SLPC   C31 6976   1.002   1.827   6.369  0.7659  0.1440 -0.3190
   77SLPC   O32 6977   1.063   1.751   6.443  0.1324 -0.2234  0.4129
   77SLPC   C32 6978   1.031   1.851   6.225  0.8128  0.2882  0.4385
   77SLPC   H2X 6979   1.052   1.959   6.212  1.7640  0.0690  0.0483
   77SLPC   H2Y 6980   0.937   1.832   6.168 -0.0507 -2.2615  2.4883
   77SLPC   C23 6981   0.350   1.900   6.357 -0.3736  0.7720  0.5699
   77SLPC   H3R 6982   0.328   2.009   6.354 -0.8802  0.6644 -1.6268
   77SLPC   H3S 6983   0.262   1.833   6.353 -0.4344  0.8276  0.9499
   77SLPC   C24 6984   0.438   1.880   6.224  0.0637  0.2487 -0.1655
   77SLPC   H4R 6985   0.404   1.785   6.178  0.7860  1.4602 -3.4603
   77SLPC   H4S 6986   0.546   1.872   6.250 -0.5546 -1.5347  2.1091
   77SLPC   C25 6987   0.404   1.988   6.120 -0.1093 -0.2397 -0.0932
   77SLPC   H5R 6988   0.454   2.085   6.144  0.7130 -0.3615 -1.2290
   77SLPC   H5S 6989   0.301   2.030   6.115 -0.4462 -1.1612 -1.2308
   77SLPC   C26 6990   0.440   1.946   5.974  0.7778  0.5457  0.2476
   77SLPC   H6R 6991   0.420   2.026   5.901  1.2194 -0.5035 -1.0598
   77SLPC   H6S 6992   0.386   1.859   5.931 -1.3662  1.8611  0.1357
   77SLPC   C27 6993   0.588   1.926   5.975 -0.3363  0.1397 -0.4380
   77SLPC   H7R 6994   0.621   1.844   6.041  1.0378 -0.3912 -1.7183
   77SLPC   H7S 6995   0.632   2.021   6.013 -2.3422  0.5979  0.8667
   77SLPC   C28 6996   0.655   1.900   5.841  0.2274  0.6055 -0.2848
   77SLPC   H8R 6997   0.606   1.813   5.791  0.5196 -1.2301  2.4454
   77SLPC   H8S 6998   0.760   1.866   5.850 -0.0279 -0.9983 -2.4262
   77SLPC   C29 6999   0.651   2.030   5.760 -0.8203 -0.0971  0.1318
   77SLPC   H9R 7000   0.725   2.106   5.789 -1.3844  1.0660 -1.3234
   77SLPC  C210 7001   0.595   2.046   5.644  0.0719 -0.1394  0.1405
   77SLPC  H10R 7002   0.607   2.140   5.587  0.9960  0.8391  1.8517
   77SLPC  C211 7003   0.507   1.937   5.585  0.3259 -0.7983 -0.3253
   77SLPC  H11R 7004   0.448   1.907   5.674 -0.7513 -1.0937 -1.1197
   77SLPC  H11S 7005   0.562   1.844   5.556  1.8657 -0.5033  1.4476
   77SLPC  C212 7006   0.406   1.974   5.483  0.1290 -0.3760  0.3100
   77SLPC  H12R 7007   0.304   1.943   5.511 -1.2263  0.5911 -3.0739
   77SLPC  C213 7008   0.416   2.040   5.359  0.2376 -0.3213 -0.0828
   77SLPC  H13R 7009   0.325   2.085   5.317 -0.1090 -0.9424 -0.0136
   77SLPC  C214 7010   0.539   2.105   5.295 -0.3114 -0.5038 -0.1478
   77SLPC  H14R 7011   0.538   2.050   5.198 -1.3735 -0.9517  0.1030
   77SLPC  H14S 7012   0.643   2.101   5.333 -0.2824 -0.0767 -0.1827
   77SLPC  C215 7013   0.507   2.245   5.247 -0.6202 -0.4589 -0.3385
   77SLPC  H15R 7014   0.412   2.251   5.189 -1.3084  4.8594  0.8145
   77SLPC  H15S 7015   0.589   2.283   5.182  2.0549 -0.1391  2.9718
   77SLPC  C216 7016   0.503   2.340   5.363 -0.6735  0.3436  0.1778
   77SLPC  H16R 7017   0.602   2.388   5.380 -1.8903  2.2617  2.5353
   77SLPC  H16S 7018   0.490   2.286   5.459  1.0974  1.0576  0.8732
   77SLPC  C217 7019   0.410   2.462   5.350  0.0834 -0.2270 -0.1127
   77SLPC  H17R 7020   0.404   2.505   5.452 -0.9038 -0.7892  0.0817
   77SLPC  H17S 7021   0.310   2.428   5.314 -1.2456  2.6286  0.5911
   77SLPC  C218 7022   0.476   2.561   5.252 -0.3752  0.0318  0.4983
   77SLPC  H18R 7023   0.582   2.585   5.275 -0.7412  3.0962 -0.5186
   77SLPC  H18S 7024   0.425   2.660   5.256  1.0494  0.7711  1.4192
   77SLPC  H18T 7025   0.481   2.524   5.148 -0.2654  1.5475 -0.0703
   77SLPC   C33 7026   1.145   1.751   6.184  0.5208  0.8988  1.0126
   77SLPC   H3X 7027   1.098   1.651   6.193 -0.2584  0.8792 -2.1996
   77SLPC   H3Y 7028   1.241   1.766   6.238  0.9443  0.5151  0.3879
   77SLPC   C34 7029   1.184   1.771   6.044 -0.1499 -0.2337  1.4002
   77SLPC   H4X 7030   1.269   1.708   6.010 -0.8394  0.0066 -0.9606
   77SLPC   H4Y 7031   1.215   1.877   6.034  0.9918 -0.6665  0.0762
   77SLPC   C35 7032   1.069   1.740   5.940 -0.3200 -0.5609  0.2367
   77SLPC   H5X 7033   0.978   1.801   5.955  1.0185  1.8853 -0.9239
   77SLPC   H5Y 7034   1.046   1.632   5.954 -1.4234 -0.0511  2.9053
   77SLPC   C36 7035   1.118   1.780   5.800  0.6554  0.3527  0.2661
   77SLPC   H6X 7036   1.212   1.728   5.771  0.6140  0.6658 -0.4628
   77SLPC   H6Y 7037   1.144   1.888   5.809 -0.9491  0.6697  1.6091
   77SLPC   C37 7038   1.012   1.755   5.698  0.1656 -0.0734  0.8845
   77SLPC   H7X 7039   0.917   1.801   5.732 -2.2171 -1.9890 -2.5182
   77SLPC   H7Y 7040   0.985   1.647   5.696 -0.0983 -0.0097 -0.9462
   77SLPC   C38 7041   1.027   1.802   5.551  0.9211  0.7121  0.1803
   77SLPC   H8X 7042   1.123   1.765   5.509  0.2083  0.0059 -0.8872
   77SLPC   H8Y 7043   1.009   1.912   5.555 -2.2743  0.2984 -0.0329
   77SLPC   C39 7044   0.916   1.748   5.463 -0.0836  0.0575  0.5518
   77SLPC   H9X 7045   0.821   1.797   5.496  0.5219  1.4345  0.3042
   77SLPC   H9Y 7046   0.912   1.638   5.470  0.3217 -0.3361 -3.4924
   77SLPC  C310 7047   0.941   1.777   5.303 -0.2657 -0.5050 -0.5003
   77SLPC  H10X 7048   1.034   1.723   5.278  0.2179  0.7220 -1.4501
   77SLPC  H10Y 7049   0.952   1.887   5.295  4.3773 -0.8383 -1.3267
   77SLPC  C311 7050   0.838   1.720   5.208  0.9432  0.0623 -0.4930
   77SLPC  H11X 7051   0.825   1.612   5.231 -0.1999  0.6433  1.8370
   77SLPC  H11Y 7052   0.863   1.741   5.101  1.4144 -0.3963 -0.4795
   77SLPC  C312 7053   0.701   1.795   5.224 -0.6460  0.9871  0.6525
   77SLPC  H12X 7054   0.714   1.906   5.223  0.0604  0.9489  2.1775
   77SLPC  H12Y 7055   0.651   1.774   5.320  1.5336 -2.1632  1.2525
   77SLPC  C313 7056   0.603   1.772   5.100 -0.4470  0.0959 -0.2134
   77SLPC  H13X 7057   0.665   1.768   5.008 -0.9582 -0.4498 -0.5373
   77SLPC  H13Y 7058   0.525   1.849   5.084 -2.1364 -1.1989  1.3222
   77SLPC  C314 7059   0.530   1.642   5.115  0.6145 -0.3218 -0.1405
   77SLPC  H14X 7060   0.465   1.651   5.204 -0.9594 -0.3238 -1.2523
   77SLPC  H14Y 7061   0.599   1.556   5.128 -1.2304 -2.1117 -1.5723
   77SLPC  C315 7062   0.432   1.590   5.004  0.2922 -0.8067 -0.3064
   77SLPC  H15X 7063   0.346   1.659   4.989  2.2050  1.0551 -4.2906
   77SLPC  H15Y 7064   0.391   1.495   5.046  1.7688 -1.6246 -0.6375
   77SLPC  C316 7065   0.503   1.580   4.863 -0.3299  0.2555 -0.6273
   77SLPC  H16X 7066   0.613   1.570   4.879 -0.1683  1.7205 -0.7235
   77SLPC  H16Y 7067   0.493   1.674   4.806  2.6694  1.0027 -0.1252
   77SLPC  C317 7068   0.444   1.460   4.781 -0.0991  0.0336 -0.3279
   77SLPC  H17X 7069   0.457   1.370   4.846  1.3409  0.1135 -0.4604
   77SLPC  H17Y 7070   0.489   1.424   4.685 -0.5620 -2.8037  0.4345
   77SLPC  C318 7071   0.300   1.490   4.749 -0.2042 -0.5117 -0.0412
   77SLPC  H18X 7072   0.238   1.408   4.708  0.6983 -0.6175 -1.2345
   77SLPC  H18Y 7073   0.287   1.577   4.681  1.0139  1.5242  2.1666
   77SLPC  H18Z 7074   0.251   1.531   4.841  1.5455  1.4166  0.1104
   78SLPC     N 7075   5.541   5.815   6.749  0.4513  0.4888  0.1450
   78SLPC   C13 7076   5.473   5.942   6.713 -0.6377 -0.1565 -0.1789
   78SLPC  H13A 7077   5.439   6.004   6.795  1.6585  1.7733 -0.5671
   78SLPC  H13B 7078   5.540   6.011   6.663  1.6637 -1.4403  0.9860
   78SLPC  H13C 7079   5.387   5.927   6.650  0.0483  0.4270 -1.2775
   78SLPC   C14 7080   5.644   5.855   6.844 -0.1706  0.6990  0.3566
   78SLPC  H14A 7081   5.689   5.769   6.892  1.3214  0.5514 -1.2411
   78SLPC  H14B 7082   5.723   5.910   6.796  1.6086 -2.1857 -0.2661
   78SLPC  H14C 7083   5.607   5.915   6.926 -0.5527  0.0341  0.6785
   78SLPC   C15 7084   5.595   5.751   6.629 -1.2583 -0.2006  0.1318
   78SLPC  H15A 7085   5.674   5.806   6.581 -0.6361 -0.1932  1.1315
   78SLPC  H15B 7086   5.636   5.654   6.652  3.1236  1.0024 -1.6855
   78SLPC  H15C 7087   5.522   5.735   6.551  0.0609 -1.2233 -0.9507
   78SLPC   C12 7088   5.444   5.718   6.819 -0.9756  0.3601 -0.3608
   78SLPC  H12A 7089   5.390   5.778   6.891 -0.6883 -0.1860  0.3144
   78SLPC  H12B 7090   5.501   5.643   6.872 -0.2981  1.2469  0.1876
   78SLPC   C11 7091   5.331   5.647   6.734 -0.1483 -0.5425  0.2899
   78SLPC  H11A 7092   5.271   5.577   6.794  0.4417 -1.0744  0.2702
   78SLPC  H11B 7093   5.383   5.589   6.654  0.8190 -0.3714  0.7723
   78SLPC     P 7094   5.133   5.829   6.739 -0.4104  0.4254  0.1672
   78SLPC   O13 7095   5.192   5.872   6.870 -0.4883  0.0739 -0.0402
   78SLPC   O14 7096   5.085   5.928   6.640 -0.2024  0.0936 -0.2480
   78SLPC   O12 7097   5.244   5.748   6.669 -0.3392  0.2141 -0.5687
   78SLPC   O11 7098   5.028   5.716   6.765  0.4042 -0.7710 -0.0181
   78SLPC    C1 7099   4.962   5.654   6.652  1.2075 -0.3179  0.4733
   78SLPC    HA 7100   4.860   5.690   6.626  2.2293  0.8309 -2.3696
   78SLPC    HB 7101   5.003   5.671   6.550  1.9049  1.0064  0.9666
   78SLPC    C2 7102   4.955   5.498   6.676 -0.6636  0.0499  0.3277
   78SLPC    HS 7103   5.052   5.465   6.718  0.9588  1.7480 -1.8051
   78SLPC   O21 7104   4.933   5.421   6.560  0.3247  0.7148  0.1579
   78SLPC   C21 7105   5.028   5.419   6.475 -0.2639  0.0512  0.0868
   78SLPC   O22 7106   5.142   5.459   6.496 -0.0186  0.2102  0.7289
   78SLPC   C22 7107   4.985   5.341   6.347 -0.0479 -0.2656 -0.0687
   78SLPC   H2R 7108   5.010   5.235   6.369  0.1448  0.1792  2.0604
   78SLPC   H2S 7109   4.877   5.353   6.325  0.1846  0.3423 -0.9316
   78SLPC    C3 7110   4.848   5.457   6.784  0.1279  0.4260 -0.0457
   78SLPC    HX 7111   4.873   5.518   6.873  1.2816 -0.4972  0.2896
   78SLPC    HY 7112   4.862   5.349   6.804 -1.1397  0.0292 -1.1971
   78SLPC   O31 7113   4.714   5.485   6.749  0.1300 -0.2089  0.6473
   78SLPC   C31 7114   4.637   5.383   6.706 -0.1480 -0.2473  0.7807
   78SLPC   O32 7115   4.670   5.269   6.689 -0.2824  0.3284  0.0776
   78SLPC   C32 7116   4.502   5.451   6.668  0.4700 -0.0950 -0.1056
   78SLPC   H2X 7117   4.470   5.512   6.755 -0.1052  0.4976 -0.7167
   78SLPC   H2Y 7118   4.424   5.373   6.655 -1.2598  1.3086  1.4469
   78SLPC   C23 7119   5.068   5.372   6.222  0.2337 -0.1248 -0.2665
   78SLPC   H3R 7120   5.176   5.351   6.234  0.5702 -0.1666 -2.7779
   78SLPC   H3S 7121   5.045   5.479   6.204 -0.6020 -0.4342 -1.1712
   78SLPC   C24 7122   5.017   5.300   6.102  0.2579  0.6345  0.2427
   78SLPC   H4R 7123   4.907   5.302   6.096  0.1618  1.2080  1.8551
   78SLPC   H4S 7124   5.048   5.193   6.112 -1.7277 -0.2364 -1.9720
   78SLPC   C25 7125   5.076   5.350   5.965 -0.8076 -0.1777  0.3129
   78SLPC   H5R 7126   5.183   5.321   5.955  0.3586  3.8718 -1.1564
   78SLPC   H5S 7127   5.069   5.461   5.956 -0.0511 -0.1039  0.5128
   78SLPC   C26 7128   4.992   5.296   5.845 -0.0063 -0.2566  0.3646
   78SLPC   H6R 7129   4.884   5.301   5.871  0.0076 -2.1745  0.9325
   78SLPC   H6S 7130   5.002   5.186   5.836  0.9569 -0.2112  0.8783
   78SLPC   C27 7131   5.031   5.366   5.708 -0.7967  0.0191  0.1403
   78SLPC   H7R 7132   5.136   5.346   5.677 -0.8331  1.8538 -1.3583
   78SLPC   H7S 7133   5.018   5.475   5.721  1.6719  0.4053 -0.1756
   78SLPC   C28 7134   4.946   5.302   5.588 -0.2073  0.5441 -1.1807
   78SLPC   H8R 7135   4.839   5.316   5.613  0.4757  3.2704  0.6007
   78SLPC   H8S 7136   4.977   5.195   5.589  0.6902  0.7807 -1.6922
   78SLPC   C29 7137   4.980   5.367   5.449 -0.3789 -0.2575 -0.5009
   78SLPC   H9R 7138   4.942   5.470   5.442 -2.2499 -0.9683 -1.5282
   78SLPC  C210 7139   5.045   5.310   5.344  0.3015 -0.6644  0.3329
   78SLPC  H10R 7140   5.063   5.364   5.250 -0.7877  1.0909  1.0797
   78SLPC  C211 7141   5.092   5.167   5.346  0.5744 -0.6938  0.0917
   78SLPC  H11R 7142   5.145   5.146   5.441  1.3909 -1.3259 -0.4830
   78SLPC  H11S 7143   5.170   5.160   5.266  0.3067  1.7472 -0.4717
   78SLPC  C212 7144   4.989   5.055   5.333  0.3297 -0.5103 -0.1202
   78SLPC  H12R 7145   4.943   5.019   5.426  0.5874 -1.0403 -0.1935
   78SLPC  C213 7146   4.925   5.019   5.216  0.0725 -0.3925 -0.3532
   78SLPC  H13R 7147   4.839   4.955   5.238  2.1669 -2.9095  1.2075
   78SLPC  C214 7148   4.959   5.066   5.077 -0.0134 -0.1023  0.6969
   78SLPC  H14R 7149   5.044   5.016   5.025 -0.5822  0.0728 -0.4409
   78SLPC  H14S 7150   4.978   5.175   5.086 -1.3998  0.2044  0.1442
   78SLPC  C215 7151   4.840   5.053   4.979 -0.0163  0.2109  0.1059
   78SLPC  H15R 7152   4.747   5.075   5.036  0.9689 -0.7937  2.2072
   78SLPC  H15S 7153   4.834   4.946   4.952 -0.1864  0.0614  0.7213
   78SLPC  C216 7154   4.856   5.138   4.853 -0.1453  0.1202 -0.0186
   78SLPC  H16R 7155   4.964   5.138   4.825 -0.5862  0.0360 -1.8241
   78SLPC  H16S 7156   4.814   5.239   4.873 -0.2237 -0.0810  0.8898
   78SLPC  C217 7157   4.785   5.080   4.733  0.3679 -0.5844  0.2579
   78SLPC  H17R 7158   4.695   5.036   4.780 -2.0660  0.3958 -3.1092
   78SLPC  H17S 7159   4.846   4.995   4.697  1.3503 -0.2121  0.9955
   78SLPC  C218 7160   4.749   5.172   4.621 -0.3106  0.2225 -0.2285
   78SLPC  H18R 7161   4.837   5.192   4.555 -0.5026 -4.5863 -2.3579
   78SLPC  H18S 7162   4.696   5.267   4.642 -0.4699  0.5952 -2.1481
   78SLPC  H18T 7163   4.678   5.112   4.561 -0.4082  0.5581 -0.4535
   78SLPC   C33 7164   4.502   5.535   6.541 -0.0933  0.8553  0.3416
   78SLPC   H3X 7165   4.518   5.458   6.463 -3.3358  0.4912 -0.0865
   78SLPC   H3Y 7166   4.574   5.620   6.533 -0.4484  1.1183 -0.1345
   78SLPC   C34 7167   4.349   5.568   6.510 -0.0713  0.6079 -0.1642
   78SLPC   H4X 7168   4.311   5.641   6.585  0.9609  1.3025 -0.2975
   78SLPC   H4Y 7169   4.284   5.478   6.514  1.1378 -0.2446  0.7889
   78SLPC   C35 7170   4.321   5.644   6.375  1.2300  0.9875 -0.0964
   78SLPC   H5X 7171   4.404   5.718   6.373  3.0212 -0.7707  2.7037
   78SLPC   H5Y 7172   4.219   5.684   6.391  1.8805  2.3763  0.7835
   78SLPC   C36 7173   4.309   5.556   6.245  0.0839  0.2430  0.8430
   78SLPC   H6X 7174   4.265   5.457   6.269 -0.1741 -0.1836 -1.1860
   78SLPC   H6Y 7175   4.408   5.549   6.195 -0.5053  1.8064 -0.6229
   78SLPC   C37 7176   4.207   5.603   6.144  0.5367 -0.2464  0.0853
   78SLPC   H7X 7177   4.216   5.712   6.125 -2.3750  0.5015  2.1416
   78SLPC   H7Y 7178   4.107   5.583   6.189 -0.4963 -0.2211 -2.0838
   78SLPC   C38 7179   4.229   5.520   6.016  0.6577 -0.1041 -0.7191
   78SLPC   H8X 7180   4.215   5.411   6.031  0.2121  0.0079 -0.2747
   78SLPC   H8Y 7181   4.339   5.528   6.002  0.7664 -0.4516 -0.1125
   78SLPC   C39 7182   4.136   5.573   5.912  0.1179  0.0990  0.5637
   78SLPC   H9X 7183   4.143   5.684   5.911 -0.3349  0.1272  0.0117
   78SLPC   H9Y 7184   4.033   5.543   5.942  0.4355  0.7266  2.4112
   78SLPC  C310 7185   4.154   5.528   5.766 -0.1178 -0.1158  0.0505
   78SLPC  H10X 7186   4.197   5.425   5.760 -1.0796 -0.4903 -0.6448
   78SLPC  H10Y 7187   4.225   5.596   5.716  1.5669 -0.6248  1.6285
   78SLPC  C311 7188   4.012   5.513   5.691  0.1585 -0.1334 -0.5860
   78SLPC  H11X 7189   3.950   5.604   5.711 -1.1310 -1.5702  2.6443
   78SLPC  H11Y 7190   3.958   5.434   5.746  1.0174  1.4562  2.8056
   78SLPC  C312 7191   4.021   5.486   5.542 -0.7929  0.4347 -0.3073
   78SLPC  H12X 7192   3.930   5.540   5.506 -1.3188  0.7347  1.3880
   78SLPC  H12Y 7193   4.015   5.377   5.521  1.7395  0.0889  0.4807
   78SLPC  C313 7194   4.129   5.552   5.461 -0.7625  0.0599  0.0724
   78SLPC  H13X 7195   4.229   5.520   5.497 -0.2810 -0.7976 -1.8705
   78SLPC  H13Y 7196   4.124   5.663   5.473  0.3642  0.4865 -2.6222
   78SLPC  C314 7197   4.108   5.516   5.310  0.1618  0.2108 -0.2747
   78SLPC  H14X 7198   4.021   5.570   5.267  0.5482  0.5630 -0.6240
   78SLPC  H14Y 7199   4.091   5.406   5.300  2.6153 -0.1969 -0.5511
   78SLPC  C315 7200   4.231   5.559   5.223  0.2569 -0.1048 -0.2874
   78SLPC  H15X 7201   4.318   5.496   5.253 -0.6508 -1.1367  0.2317
   78SLPC  H15Y 7202   4.268   5.660   5.251  1.4187 -1.0781  1.9126
   78SLPC  C316 7203   4.203   5.559   5.070 -0.2582  0.6731 -0.1152
   78SLPC  H16X 7204   4.127   5.638   5.053 -0.1897  1.1940  1.7541
   78SLPC  H16Y 7205   4.154   5.461   5.054 -0.8999  1.0153 -0.2796
   78SLPC  C317 7206   4.329   5.567   4.984  0.0948  0.5549  1.0439
   78SLPC  H17X 7207   4.402   5.493   5.024  0.2955 -0.1415 -0.5362
   78SLPC  H17Y 7208   4.364   5.668   5.012 -2.0088  1.1867  1.5517
   78SLPC  C318 7209   4.307   5.549   4.831  0.2833 -0.4375 -0.1982
   78SLPC  H18X 7210   4.250   5.453   4.827  0.6524 -0.8208  2.1067
   78SLPC  H18Y 7211   4.401   5.541   4.772  1.1385 -0.6958  1.1528
   78SLPC  H18Z 7212   4.258   5.632   4.778 -0.2215  0.1779  1.1962
   79SLPC     N 7213   1.994   1.267   6.878 -0.1879 -0.0710 -0.0560
   79SLPC   C13 7214   2.128   1.308   6.921 -0.0120 -0.2585 -0.3042
   79SLPC  H13A 7215   2.195   1.318   6.836 -1.1309 -0.8299 -1.2837
   79SLPC  H13B 7216   2.139   1.408   6.962  2.0295 -0.2626 -0.7340
   79SLPC  H13C 7217   2.175   1.239   6.990  2.4103  0.3374 -1.2413
   79SLPC   C14 7218   1.899   1.229   6.987 -0.2598  0.0916  0.0068
   79SLPC  H14A 7219   1.809   1.181   6.951 -2.7426  3.3634  1.3883
   79SLPC  H14B 7220   1.935   1.146   7.046 -1.1428 -1.4275 -1.4973
   79SLPC  H14C 7221   1.864   1.314   7.043  1.4663 -1.5543  3.9875
   79SLPC   C15 7222   2.007   1.149   6.785  0.2512  0.9895 -0.0193
   79SLPC  H15A 7223   2.028   1.053   6.831 -1.2991  0.6652  0.0844
   79SLPC  H15B 7224   1.907   1.137   6.746 -0.5285  1.2742  1.7918
   79SLPC  H15C 7225   2.069   1.158   6.698  0.3010  0.8704  0.0037
   79SLPC   C12 7226   1.943   1.377   6.784 -0.2235  0.3603 -0.3143
   79SLPC  H12A 7227   1.853   1.343   6.734  0.4181 -1.0799 -0.5553
   79SLPC  H12B 7228   2.023   1.377   6.712  1.6578 -1.0494  1.6726
   79SLPC   C11 7229   1.917   1.521   6.828 -0.5854  0.1094 -0.4240
   79SLPC  H11A 7230   1.883   1.585   6.744  2.9383  2.1445 -0.5183
   79SLPC  H11B 7231   2.015   1.559   6.865  0.2765 -2.1918 -0.1889
   79SLPC     P 7232   1.660   1.516   6.896  0.1440  0.2438 -0.4388
   79SLPC   O13 7233   1.644   1.399   6.813  0.3042 -0.1592  0.0423
   79SLPC   O14 7234   1.594   1.515   7.032 -0.0818  0.6439 -0.8510
   79SLPC   O12 7235   1.817   1.530   6.930  0.4661 -0.4455  0.2669
   79SLPC   O11 7236   1.641   1.647   6.811 -0.0461  0.5619 -0.2421
   79SLPC    C1 7237   1.702   1.773   6.846 -0.4117  0.1421  0.1165
   79SLPC    HA 7238   1.727   1.768   6.954 -3.1616 -0.4895  0.8225
   79SLPC    HB 7239   1.795   1.786   6.787 -1.4537 -2.9403 -2.5118
   79SLPC    C2 7240   1.604   1.895   6.826  0.0290  0.2654 -0.7149
   79SLPC    HS 7241   1.520   1.862   6.891  0.0061 -1.6815 -1.6573
   79SLPC   O21 7242   1.566   1.908   6.689  0.5453 -1.0421 -0.6283
   79SLPC   C21 7243   1.459   1.987   6.665 -0.7953 -0.0777  0.2862
   79SLPC   O22 7244   1.398   2.045   6.753  0.0152  0.0267 -0.2984
   79SLPC   C22 7245   1.423   1.984   6.515  0.9593  0.2035 -0.5269
   79SLPC   H2R 7246   1.508   2.010   6.448 -1.1254  1.6484 -2.7786
   79SLPC   H2S 7247   1.399   1.878   6.490  1.1757  0.3057 -1.1832
   79SLPC    C3 7248   1.670   2.019   6.887 -0.6146 -0.4300  0.5247
   79SLPC    HX 7249   1.709   1.989   6.987  1.6352  0.0934 -0.1485
   79SLPC    HY 7250   1.595   2.099   6.904 -0.5461 -0.5210  1.3048
   79SLPC   O31 7251   1.796   2.060   6.837 -0.1511 -0.0218  0.0907
   79SLPC   C31 7252   1.799   2.122   6.720 -0.0693  0.3717  0.8667
   79SLPC   O32 7253   1.699   2.156   6.654 -0.7479 -0.5554  0.2614
   79SLPC   C32 7254   1.944   2.132   6.675  0.1336  0.5238  0.6999
   79SLPC   H2X 7255   1.983   2.028   6.669  1.0870  0.9048  0.0815
   79SLPC   H2Y 7256   1.993   2.182   6.761  2.1404  0.1512 -0.1761
   79SLPC   C23 7257   1.301   2.073   6.481  0.4174  0.5062 -0.7733
   79SLPC   H3R 7258   1.310   2.174   6.527 -1.6427 -1.0185  3.4678
   79SLPC   H3S 7259   1.220   2.024   6.539  1.7663 -1.2216 -0.2564
   79SLPC   C24 7260   1.262   2.086   6.339  0.1737 -0.4745  0.3967
   79SLPC   H4R 7261   1.159   2.128   6.342  0.5028  0.3065  2.4833
   79SLPC   H4S 7262   1.246   1.985   6.295  2.5946  0.2818 -2.5023
   79SLPC   C25 7263   1.347   2.184   6.255 -0.0964 -0.3406 -0.4875
   79SLPC   H5R 7264   1.454   2.166   6.280 -0.6336 -0.4702  1.9457
   79SLPC   H5S 7265   1.316   2.288   6.279 -1.1540 -1.0620  1.5567
   79SLPC   C26 7266   1.325   2.167   6.102 -0.7047 -0.0862  0.8976
   79SLPC   H6R 7267   1.220   2.180   6.068  0.0695  0.5606 -1.4357
   79SLPC   H6S 7268   1.358   2.064   6.076 -2.1493 -0.2839 -0.3190
   79SLPC   C27 7269   1.421   2.262   6.030 -0.4063  0.0628 -0.1078
   79SLPC   H7R 7270   1.525   2.255   6.069 -1.0965 -0.9050  1.6739
   79SLPC   H7S 7271   1.374   2.360   6.055  1.9456  1.3541 -0.4237
   79SLPC   C28 7272   1.403   2.256   5.877 -0.0849  0.1948 -0.3712
   79SLPC   H8R 7273   1.454   2.340   5.825 -0.4187 -0.9092 -2.6372
   79SLPC   H8S 7274   1.294   2.277   5.873 -0.4010 -0.8630  1.4722
   79SLPC   C29 7275   1.432   2.117   5.824  0.7043 -0.5122  1.0266
   79SLPC   H9R 7276   1.348   2.046   5.816  0.2979  0.1974 -3.8270
   79SLPC  C210 7277   1.543   2.086   5.758 -0.1481 -0.2475 -0.2749
   79SLPC  H10R 7278   1.560   1.985   5.717 -2.4705  0.3208 -2.9188
   79SLPC  C211 7279   1.658   2.176   5.728 -0.5466 -0.4221 -0.0293
   79SLPC  H11R 7280   1.756   2.134   5.761  0.1329 -0.0218 -1.4320
   79SLPC  H11S 7281   1.646   2.275   5.776 -1.4593 -0.1452 -0.7934
   79SLPC  C212 7282   1.674   2.186   5.572  0.4037 -0.5468 -0.8747
   79SLPC  H12R 7283   1.579   2.168   5.519 -1.7375  0.9045  2.1446
   79SLPC  C213 7284   1.788   2.198   5.499 -0.0200  0.0436  0.4116
   79SLPC  H13R 7285   1.783   2.199   5.389 -2.0478 -2.9478  0.3674
   79SLPC  C214 7286   1.931   2.205   5.550 -0.1079 -0.2890 -0.4317
   79SLPC  H14R 7287   1.956   2.129   5.628 -1.4557 -0.3569 -0.0301
   79SLPC  H14S 7288   1.944   2.303   5.600 -0.6580 -0.1416 -0.5662
   79SLPC  C215 7289   2.029   2.191   5.431 -0.0218 -0.4779  0.4660
   79SLPC  H15R 7290   2.132   2.208   5.468 -0.3132  2.8119  0.1323
   79SLPC  H15S 7291   2.016   2.271   5.355  1.7994 -0.6504 -0.0612
   79SLPC  C216 7292   2.039   2.057   5.371 -0.7594  0.5715 -0.2367
   79SLPC  H16R 7293   1.943   2.034   5.319 -0.0996 -1.3512 -0.7091
   79SLPC  H16S 7294   2.048   2.003   5.468 -1.0488 -1.2536 -1.1729
   79SLPC  C217 7295   2.163   2.018   5.280  0.5950  0.1803  0.3982
   79SLPC  H17R 7296   2.245   2.052   5.347 -1.1304  3.7327  0.9598
   79SLPC  H17S 7297   2.183   2.087   5.195  1.7035 -3.3628 -2.4662
   79SLPC  C218 7298   2.162   1.876   5.240 -0.5285  0.7996 -0.0491
   79SLPC  H18R 7299   2.260   1.846   5.197 -0.8085  0.0243 -0.1810
   79SLPC  H18S 7300   2.081   1.850   5.168 -0.5389 -0.4873  0.3903
   79SLPC  H18T 7301   2.153   1.805   5.325 -0.5011  1.3503  0.4197
   79SLPC   C33 7302   1.960   2.191   6.540 -0.0178  0.2238  0.4439
   79SLPC   H3X 7303   1.926   2.296   6.540  3.9241  1.6345  1.5414
   79SLPC   H3Y 7304   1.901   2.130   6.467 -1.1713 -0.1488  1.6446
   79SLPC   C34 7305   2.099   2.204   6.495 -1.0735  0.1142 -0.4295
   79SLPC   H4X 7306   2.107   2.245   6.391  0.0766 -1.2852 -0.9237
   79SLPC   H4Y 7307   2.136   2.102   6.476 -0.4226  0.2787 -0.0663
   79SLPC   C35 7308   2.195   2.271   6.591  0.7687  0.9731 -0.9547
   79SLPC   H5X 7309   2.201   2.222   6.691  2.3905 -0.6708 -1.8048
   79SLPC   H5Y 7310   2.170   2.379   6.606 -2.2427  0.3020 -0.5074
   79SLPC   C36 7311   2.327   2.262   6.530 -0.3660 -0.4094  0.5505
   79SLPC   H6X 7312   2.348   2.165   6.479 -0.4759  0.3693 -1.0174
   79SLPC   H6Y 7313   2.399   2.281   6.612 -0.0217 -2.5443  0.8185
   79SLPC   C37 7314   2.346   2.394   6.455 -0.2053 -0.3755 -0.5283
   79SLPC   H7X 7315   2.361   2.474   6.531  0.3739 -1.1571  0.1969
   79SLPC   H7Y 7316   2.274   2.415   6.373  0.5884  2.5441 -0.5924
   79SLPC   C38 7317   2.477   2.397   6.380 -0.7688  0.4689  0.7392
   79SLPC   H8X 7318   2.488   2.300   6.326  1.5406  0.7470  0.6260
   79SLPC   H8Y 7319   2.555   2.411   6.458  0.0668  3.0983 -0.4388
   79SLPC   C39 7320   2.465   2.509   6.280  1.2096  0.9070 -0.0305
   79SLPC   H9X 7321   2.453   2.605   6.334 -0.2369  0.4917  0.4243
   79SLPC   H9Y 7322   2.383   2.486   6.209  0.7214  0.2583  0.7150
   79SLPC  C310 7323   2.581   2.528   6.176 -0.3779 -0.5626  1.0018
   79SLPC  H10X 7324   2.671   2.546   6.238  0.1043 -2.4201  0.8924
   79SLPC  H10Y 7325   2.568   2.622   6.118 -0.1300  0.3162  2.3497
   79SLPC  C311 7326   2.613   2.411   6.073  0.0553  0.2589 -0.1893
   79SLPC  H11X 7327   2.529   2.405   6.001  0.0371 -0.6290 -0.1025
   79SLPC  H11Y 7328   2.601   2.311   6.121 -0.7682 -1.2550 -3.2868
   79SLPC  C312 7329   2.748   2.430   6.002  0.2133  0.8926 -0.0980
   79SLPC  H12X 7330   2.827   2.425   6.079 -1.0788 -2.7468  1.2112
   79SLPC  H12Y 7331   2.759   2.533   5.962  2.4032  1.3739  1.5710
   79SLPC  C313 7332   2.788   2.311   5.911  0.2622  0.3763 -0.4315
   79SLPC  H13X 7333   2.698   2.248   5.899  0.0387  0.8761 -1.4765
   79SLPC  H13Y 7334   2.859   2.249   5.969 -2.0429 -0.9725  1.1230
   79SLPC  C314 7335   2.832   2.361   5.778 -0.3906 -0.3665 -0.4250
   79SLPC  H14X 7336   2.923   2.424   5.782  0.0805 -1.0286 -0.4528
   79SLPC  H14Y 7337   2.748   2.422   5.738 -1.1572 -0.7269  0.5919
   79SLPC  C315 7338   2.865   2.250   5.678 -0.4461 -0.0995  0.5350
   79SLPC  H15X 7339   2.783   2.176   5.669  0.2727 -0.8190 -0.2534
   79SLPC  H15Y 7340   2.952   2.194   5.718  0.8952  2.3379  1.2268
   79SLPC  C316 7341   2.882   2.304   5.535  0.0363 -0.5627 -0.3561
   79SLPC  H16X 7342   2.982   2.349   5.520  0.3221 -0.9416  0.4013
   79SLPC  H16Y 7343   2.804   2.383   5.532  1.0992  0.5184 -0.2064
   79SLPC  C317 7344   2.866   2.192   5.425 -0.4411 -0.0630  0.2596
   79SLPC  H17X 7345   2.783   2.126   5.455 -0.0569 -0.4805  0.4089
   79SLPC  H17Y 7346   2.963   2.137   5.426  0.3924  1.3423  0.0983
   79SLPC  C318 7347   2.845   2.251   5.290  0.6705  0.3074  0.4874
   79SLPC  H18X 7348   2.937   2.287   5.238  0.8932 -0.9894 -0.0537
   79SLPC  H18Y 7349   2.768   2.330   5.302 -1.4839 -1.4879 -0.7483
   79SLPC  H18Z 7350   2.802   2.171   5.227  0.6578  0.0199  0.8578
   80SLPC     N 7351   2.019   5.170   7.066  0.4090  0.1506 -0.5669
   80SLPC   C13 7352   2.085   5.228   7.192 -0.1372  0.3352 -0.0822
   80SLPC  H13A 7353   2.027   5.311   7.230 -0.1129  0.3203 -0.0127
   80SLPC  H13B 7354   2.074   5.157   7.273 -0.4835  1.4619  0.8905
   80SLPC  H13C 7355   2.191   5.243   7.179  0.1011 -1.7695 -1.0265
   80SLPC   C14 7356   2.017   5.274   6.964 -0.7950 -0.7129 -1.0525
   80SLPC  H14A 7357   1.957   5.362   6.983  1.1940  0.5006 -0.0383
   80SLPC  H14B 7358   2.115   5.317   6.944 -1.5337  1.0709 -1.0506
   80SLPC  H14C 7359   1.979   5.239   6.870  1.1399  0.9795 -2.5751
   80SLPC   C15 7360   1.881   5.116   7.098 -0.9633 -0.4422  0.7536
   80SLPC  H15A 7361   1.813   5.199   7.112 -0.4472  0.3097 -0.8885
   80SLPC  H15B 7362   1.850   5.055   7.014  0.6366 -1.2132  0.6743
   80SLPC  H15C 7363   1.877   5.062   7.191 -3.5806  1.6019  1.9488
   80SLPC   C12 7364   2.117   5.063   7.021 -0.3338 -0.1655  0.7217
   80SLPC  H12A 7365   2.129   4.986   7.097 -1.4770 -0.5307  0.5489
   80SLPC  H12B 7366   2.216   5.105   7.012 -0.6064  0.0872 -1.8945
   80SLPC   C11 7367   2.067   4.983   6.896 -0.0579  0.1348 -0.2712
   80SLPC  H11A 7368   2.153   4.928   6.851  0.7348  0.4848  0.7691
   80SLPC  H11B 7369   2.037   5.066   6.829 -2.2068  0.6821  1.2649
   80SLPC     P 7370   1.982   4.762   7.008 -0.4108 -0.4604  0.2699
   80SLPC   O13 7371   2.105   4.785   7.089 -0.1465 -0.3792  0.1438
   80SLPC   O14 7372   1.856   4.734   7.082 -0.1558  0.0275 -0.2069
   80SLPC   O12 7373   1.948   4.898   6.925  0.1394 -0.0449 -0.3344
   80SLPC   O11 7374   2.004   4.664   6.884  0.3834  0.1049 -0.4253
   80SLPC    C1 7375   1.891   4.639   6.794  0.8232 -0.0829  0.0375
   80SLPC    HA 7376   1.808   4.579   6.838 -0.8708  0.3537 -2.3660
   80SLPC    HB 7377   1.846   4.734   6.757 -0.1564  0.2305  1.9290
   80SLPC    C2 7378   1.935   4.572   6.658  0.0393 -0.2310  0.6155
   80SLPC    HS 7379   1.976   4.656   6.599 -4.8697  1.9758 -0.1744
   80SLPC   O21 7380   1.820   4.527   6.582  0.0023 -0.1432  0.1305
   80SLPC   C21 7381   1.805   4.568   6.458 -0.1223 -0.2539 -0.4495
   80SLPC   O22 7382   1.897   4.606   6.384 -0.1720 -0.0739  0.1240
   80SLPC   C22 7383   1.657   4.546   6.417 -0.2156  0.3212 -0.4254
   80SLPC   H2R 7384   1.636   4.443   6.453 -1.8845  0.2274 -1.5563
   80SLPC   H2S 7385   1.604   4.610   6.490 -1.8334 -2.6871  1.2574
   80SLPC    C3 7386   2.041   4.467   6.687 -0.0902 -0.0140  0.3847
   80SLPC    HX 7387   2.006   4.384   6.752 -0.5768  1.3522  1.9081
   80SLPC    HY 7388   2.116   4.521   6.749 -1.7956  1.9189  0.8489
   80SLPC   O31 7389   2.101   4.418   6.557  0.0321  0.1583 -0.5896
   80SLPC   C31 7390   2.031   4.317   6.509  0.7931 -0.5251  0.3319
   80SLPC   O32 7391   1.941   4.257   6.567  0.0230  0.4871  0.6160
   80SLPC   C32 7392   2.095   4.271   6.377  0.0785 -0.2096 -0.1641
   80SLPC   H2X 7393   2.147   4.174   6.392 -0.6530 -0.6865 -0.6367
   80SLPC   H2Y 7394   2.160   4.353   6.339 -0.9050  1.5827  1.8215
   80SLPC   C23 7395   1.626   4.562   6.271 -0.4524 -0.1483 -0.1026
   80SLPC   H3R 7396   1.680   4.640   6.214  2.2520 -0.5142  1.7787
   80SLPC   H3S 7397   1.517   4.575   6.250 -0.6643 -2.0599 -0.3438
   80SLPC   C24 7398   1.627   4.426   6.194  0.1719 -0.0137  0.0741
   80SLPC   H4R 7399   1.551   4.363   6.246  0.9016  0.6342  2.0105
   80SLPC   H4S 7400   1.713   4.358   6.210 -0.2599 -0.5915 -0.0025
   80SLPC   C25 7401   1.615   4.434   6.045  0.0664  0.6579 -0.0542
   80SLPC   H5R 7402   1.542   4.512   6.012 -0.1605  0.4575 -0.0292
   80SLPC   H5S 7403   1.578   4.338   6.004 -0.4412  1.5755 -1.8221
   80SLPC   C26 7404   1.749   4.423   5.972 -0.1270 -0.4862  0.2133
   80SLPC   H6R 7405   1.823   4.357   6.023 -0.7262 -1.9076 -0.6845
   80SLPC   H6S 7406   1.798   4.522   5.962 -0.8715 -0.1063  0.2737
   80SLPC   C27 7407   1.727   4.377   5.819 -0.1032 -1.2134  0.2065
   80SLPC   H7R 7408   1.652   4.443   5.769  2.7396  0.7870 -1.7149
   80SLPC   H7S 7409   1.673   4.280   5.823 -1.8398 -0.3426 -0.6947
   80SLPC   C28 7410   1.854   4.380   5.736 -0.4446  0.0157 -0.3637
   80SLPC   H8R 7411   1.881   4.487   5.745  0.8111 -0.3785  0.8055
   80SLPC   H8S 7412   1.829   4.369   5.628  1.7862 -1.3821 -0.7904
   80SLPC   C29 7413   1.956   4.282   5.782 -0.4476 -0.4871  0.3259
   80SLPC   H9R 7414   1.974   4.282   5.890 -0.0089 -0.1532  0.2553
   80SLPC  C210 7415   2.023   4.195   5.699 -0.1781  0.0896  0.1745
   80SLPC  H10R 7416   2.108   4.137   5.739 -0.5969  0.0317  1.0007
   80SLPC  C211 7417   1.993   4.174   5.551 -0.4198  0.4260  0.0974
   80SLPC  H11R 7418   2.039   4.259   5.496  2.2689 -0.2007  1.2158
   80SLPC  H11S 7419   1.887   4.193   5.527 -0.1207  0.3150 -1.4349
   80SLPC  C212 7420   2.031   4.046   5.487  0.0701  0.6460  0.2700
   80SLPC  H12R 7421   2.072   3.964   5.548 -3.1992 -2.0887 -0.9049
   80SLPC  C213 7422   2.017   4.019   5.351  0.7727 -0.8524 -0.0179
   80SLPC  H13R 7423   2.061   3.925   5.313  0.8295  0.3630 -3.2359
   80SLPC  C214 7424   1.974   4.115   5.243 -0.3517  0.2888 -0.1144
   80SLPC  H14R 7425   2.066   4.160   5.199  0.4279 -1.5590 -0.4676
   80SLPC  H14S 7426   1.915   4.203   5.277 -2.3035 -1.4241  1.1570
   80SLPC  C215 7427   1.886   4.049   5.133  0.3662 -0.1774  1.0129
   80SLPC  H15R 7428   1.829   4.132   5.085  0.6343 -0.5993 -0.0763
   80SLPC  H15S 7429   1.810   3.982   5.178 -1.3381  0.3347 -0.9185
   80SLPC  C216 7430   1.966   3.971   5.021  0.5935 -0.2112 -0.3217
   80SLPC  H16R 7431   1.993   3.873   5.066  2.1269  0.9516  1.4570
   80SLPC  H16S 7432   2.066   4.017   5.006 -1.0315  3.5732 -0.6131
   80SLPC  C217 7433   1.894   3.954   4.883 -0.3995 -0.2250  0.4349
   80SLPC  H17R 7434   1.858   4.056   4.861  2.3604  0.7728  0.0766
   80SLPC  H17S 7435   1.811   3.882   4.898 -0.5624  0.1083  1.1994
   80SLPC  C218 7436   1.990   3.901   4.776 -0.0120 -0.1970 -0.3566
   80SLPC  H18R 7437   2.031   3.802   4.804 -2.5821 -1.6895 -1.5935
   80SLPC  H18S 7438   2.077   3.969   4.761  0.5124 -0.7426  0.1427
   80SLPC  H18T 7439   1.937   3.898   4.679 -3.3819  0.2918  1.3378
   80SLPC   C33 7440   1.987   4.250   6.269 -0.0569 -0.5641  0.5457
   80SLPC   H3X 7441   1.948   4.351   6.245  1.2142 -0.3128 -0.5395
   80SLPC   H3Y 7442   1.906   4.183   6.308  0.3903 -0.5324  1.5757
   80SLPC   C34 7443   2.037   4.187   6.136 -0.5716 -0.5402  0.5332
   80SLPC   H4X 7444   2.122   4.247   6.097 -2.3532  2.2547  0.7187
   80SLPC   H4Y 7445   1.953   4.193   6.063 -0.2379  0.6368  0.2242
   80SLPC   C35 7446   2.078   4.040   6.143  0.1558 -0.4015  0.3137
   80SLPC   H5X 7447   2.002   3.975   6.191  0.4839 -0.7147  0.4212
   80SLPC   H5Y 7448   2.167   4.043   6.211 -0.9534 -1.2501  1.8763
   80SLPC   C36 7449   2.108   3.985   6.001  0.3760  0.5303  0.1119
   80SLPC   H6X 7450   2.184   4.054   5.957  0.5357 -0.8415 -1.8885
   80SLPC   H6Y 7451   2.011   3.982   5.947  0.4563  1.8014 -0.1248
   80SLPC   C37 7452   2.179   3.848   6.006  0.1537  0.1295  0.4834
   80SLPC   H7X 7453   2.096   3.776   6.023 -1.0026  1.3347  0.0827
   80SLPC   H7Y 7454   2.246   3.850   6.094  0.6413 -0.9945  0.1623
   80SLPC   C38 7455   2.261   3.826   5.884 -0.1750 -0.4104  0.2692
   80SLPC   H8X 7456   2.329   3.740   5.901  0.9320  0.2505 -0.6098
   80SLPC   H8Y 7457   2.329   3.912   5.865  0.8295 -1.0646  0.8509
   80SLPC   C39 7458   2.183   3.788   5.762  0.3229 -0.0536  0.1794
   80SLPC   H9X 7459   2.163   3.874   5.696  1.3476 -1.1775 -1.6737
   80SLPC   H9Y 7460   2.092   3.737   5.801 -0.0285  0.8353  0.5492
   80SLPC  C310 7461   2.259   3.685   5.674  0.2866 -0.0042 -0.4372
   80SLPC  H10X 7462   2.304   3.607   5.739 -0.4539 -0.8404 -0.9260
   80SLPC  H10Y 7463   2.336   3.739   5.613  0.3687  0.6585  0.2264
   80SLPC  C311 7464   2.174   3.614   5.575 -0.3160  0.4719 -0.0045
   80SLPC  H11X 7465   2.113   3.696   5.529  0.8973  0.7267 -1.2346
   80SLPC  H11Y 7466   2.111   3.540   5.628 -3.1551  0.7043 -2.7405
   80SLPC  C312 7467   2.253   3.545   5.459 -0.2755 -0.5943 -0.6897
   80SLPC  H12X 7468   2.183   3.485   5.398 -0.4484 -0.3458 -0.7382
   80SLPC  H12Y 7469   2.323   3.466   5.494  1.4244  0.9863 -0.3582
   80SLPC  C313 7470   2.325   3.647   5.370 -0.6008  0.0114  0.0168
   80SLPC  H13X 7471   2.417   3.693   5.413 -1.4343  1.8152 -0.0235
   80SLPC  H13Y 7472   2.261   3.738   5.359 -0.1219  0.2933 -0.5296
   80SLPC  C314 7473   2.347   3.606   5.224 -0.0105 -0.4041 -0.6778
   80SLPC  H14X 7474   2.257   3.552   5.187 -1.9910  1.7464  0.7119
   80SLPC  H14Y 7475   2.442   3.554   5.200 -0.2529 -0.2776 -1.9841
   80SLPC  C315 7476   2.357   3.731   5.129 -0.1626  1.0338  0.1907
   80SLPC  H15X 7477   2.438   3.799   5.164  0.7986  0.0011  0.0352
   80SLPC  H15Y 7478   2.258   3.782   5.131  0.1331  1.5974  0.6628
   80SLPC  C316 7479   2.391   3.707   4.975 -0.2907 -0.1761  0.2575
   80SLPC  H16X 7480   2.498   3.676   4.976 -0.7971 -2.0080  0.3966
   80SLPC  H16Y 7481   2.387   3.803   4.920 -0.6661 -0.9195 -1.0478
   80SLPC  C317 7482   2.307   3.603   4.905  0.5727 -0.3078  0.3251
   80SLPC  H17X 7483   2.201   3.635   4.918  0.8134  0.6442  0.0168
   80SLPC  H17Y 7484   2.324   3.507   4.957  2.0275  0.3176  1.0721
   80SLPC  C318 7485   2.335   3.590   4.755 -0.0051 -0.0253  1.1215
   80SLPC  H18X 7486   2.439   3.552   4.742  0.4495  1.4290  0.2462
   80SLPC  H18Y 7487   2.330   3.685   4.698 -1.4992  0.3656  1.8616
   80SLPC  H18Z 7488   2.268   3.513   4.712  0.9217  0.5949 -1.6406
   81SLPC     N 7489   1.386   4.120   1.968  0.1084  0.3768 -0.9280
   81SLPC   C13 7490   1.380   4.089   1.827 -0.3116 -0.3641  0.8005
   81SLPC  H13A 7491   1.472   4.112   1.775 -0.6521  0.1897  0.4277
   81SLPC  H13B 7492   1.342   3.993   1.795 -0.0528  0.0867 -0.9430
   81SLPC  H13C 7493   1.308   4.164   1.797  1.2592  1.7041  1.9653
   81SLPC   C14 7494   1.509   4.067   2.035  0.0394  0.3834 -0.6397
   81SLPC  H14A 7495   1.603   4.113   2.009  0.3829 -0.8572 -1.6755
   81SLPC  H14B 7496   1.495   4.082   2.141  1.5009  0.0390 -0.3733
   81SLPC  H14C 7497   1.523   3.964   2.006 -0.2977 -0.5154  2.0709
   81SLPC   C15 7498   1.256   4.076   2.046 -0.0669 -0.7342 -0.4746
   81SLPC  H15A 7499   1.262   4.102   2.151  2.6586 -1.6036 -0.3426
   81SLPC  H15B 7500   1.169   4.128   2.008 -0.0966  0.9493  1.7093
   81SLPC  H15C 7501   1.243   3.970   2.037  1.0047 -0.8130 -1.2038
   81SLPC   C12 7502   1.381   4.274   1.981  0.4620  0.3149 -0.9766
   81SLPC  H12A 7503   1.353   4.298   2.083  0.2045 -0.8988 -0.7431
   81SLPC  H12B 7504   1.306   4.307   1.912 -0.5459 -2.6482 -1.4558
   81SLPC   C11 7505   1.518   4.357   1.958  1.1478 -0.6338  0.7759
   81SLPC  H11A 7506   1.473   4.459   1.966  2.2719  0.0625 -1.0964
   81SLPC  H11B 7507   1.547   4.345   1.851  0.0727 -1.0892  0.5303
   81SLPC     P 7508   1.583   4.384   2.200 -0.2557 -0.1194  0.3700
   81SLPC   O13 7509   1.549   4.526   2.192  0.4273 -0.1371  0.4646
   81SLPC   O14 7510   1.476   4.298   2.256  0.0080 -0.7849  0.2379
   81SLPC   O12 7511   1.621   4.333   2.051 -0.3115  0.1953  0.1459
   81SLPC   O11 7512   1.720   4.357   2.279  0.0911  0.6537 -0.1019
   81SLPC    C1 7513   1.739   4.226   2.328 -0.0398 -0.5420  0.6390
   81SLPC    HA 7514   1.689   4.150   2.264 -1.2264  0.0065  0.8711
   81SLPC    HB 7515   1.848   4.208   2.322 -0.0632 -0.4949 -0.0434
   81SLPC    C2 7516   1.681   4.208   2.475  0.1035 -0.0128  0.1142
   81SLPC    HS 7517   1.570   4.215   2.468  0.1090  0.8475  0.7326
   81SLPC   O21 7518   1.738   4.299   2.564 -0.5989  0.4075 -0.1275
   81SLPC   C21 7519   1.673   4.408   2.586  0.0226  0.5577  0.2689
   81SLPC   O22 7520   1.564   4.432   2.538 -0.5885 -0.2635  0.0321
   81SLPC   C22 7521   1.736   4.493   2.691 -0.3252 -0.1210 -0.1792
   81SLPC   H2R 7522   1.820   4.553   2.650 -0.2755 -0.7365 -0.9980
   81SLPC   H2S 7523   1.651   4.556   2.724  0.4582 -0.7203  3.3500
   81SLPC    C3 7524   1.723   4.072   2.520  0.1913  0.2679  0.1616
   81SLPC    HX 7525   1.832   4.069   2.499  0.5679  0.4709  1.9299
   81SLPC    HY 7526   1.664   4.010   2.449  2.3109 -2.6252  0.7218
   81SLPC   O31 7527   1.690   4.036   2.654  0.0741  0.0336  0.5719
   81SLPC   C31 7528   1.791   4.042   2.744  0.8036  0.1161  0.4596
   81SLPC   O32 7529   1.905   4.080   2.723 -0.1632 -0.2237 -0.0291
   81SLPC   C32 7530   1.735   4.001   2.880  0.1798  0.1110 -0.4052
   81SLPC   H2X 7531   1.630   3.966   2.868 -0.4769  1.7342  0.3485
   81SLPC   H2Y 7532   1.756   4.080   2.955 -0.5735 -1.8661  2.0346
   81SLPC   C23 7533   1.783   4.418   2.817  0.1137  0.7914  0.0991
   81SLPC   H3R 7534   1.847   4.329   2.798 -0.4780  0.5829 -1.0127
   81SLPC   H3S 7535   1.697   4.371   2.869  1.0005 -2.1716 -0.9293
   81SLPC   C24 7536   1.854   4.508   2.911  0.1669  0.1840  0.0925
   81SLPC   H4R 7537   1.939   4.555   2.858 -0.6956  1.5104 -0.1663
   81SLPC   H4S 7538   1.895   4.461   3.003  1.2774 -1.3448 -1.1489
   81SLPC   C25 7539   1.770   4.625   2.968  0.3076 -0.1123 -0.3324
   81SLPC   H5R 7540   1.670   4.586   2.995  0.9113 -2.1369 -0.9018
   81SLPC   H5S 7541   1.757   4.706   2.893  2.8155 -1.0364 -1.8729
   81SLPC   C26 7542   1.844   4.686   3.096  0.0837  0.1924  0.1356
   81SLPC   H6R 7543   1.938   4.734   3.061  0.0287 -1.0575 -1.8674
   81SLPC   H6S 7544   1.881   4.605   3.163 -0.5490 -0.1745  0.0524
   81SLPC   C27 7545   1.751   4.778   3.171 -0.5476  0.1181 -0.7418
   81SLPC   H7R 7546   1.679   4.715   3.226  0.0226  0.5231  0.5004
   81SLPC   H7S 7547   1.699   4.851   3.106 -1.7368  0.9992  1.1123
   81SLPC   C28 7548   1.821   4.879   3.269  0.2602  0.5976 -0.1717
   81SLPC   H8R 7549   1.743   4.944   3.316 -0.8906 -0.2355 -0.8642
   81SLPC   H8S 7550   1.893   4.932   3.203 -0.3171  1.9282  0.2334
   81SLPC   C29 7551   1.917   4.809   3.352 -0.4995  0.4076  0.1929
   81SLPC   H9R 7552   1.992   4.751   3.297 -1.2088 -1.4078  1.0326
   81SLPC  C210 7553   1.920   4.799   3.482  0.1923 -0.5983  0.4276
   81SLPC  H10R 7554   2.010   4.756   3.528  0.6451 -0.7210 -0.5489
   81SLPC  C211 7555   1.844   4.895   3.571  0.3680  0.0354 -0.3605
   81SLPC  H11R 7556   1.829   4.844   3.668 -1.0863  0.2953 -0.4288
   81SLPC  H11S 7557   1.740   4.911   3.536  0.1098  0.4313  0.5595
   81SLPC  C212 7558   1.909   5.024   3.607 -0.1364 -0.0109  0.2046
   81SLPC  H12R 7559   1.890   5.104   3.534 -0.1880  0.5887  0.8607
   81SLPC  C213 7560   1.982   5.066   3.714 -0.1093  0.6239 -1.1229
   81SLPC  H13R 7561   2.009   5.173   3.711 -1.5527  1.0529  0.0640
   81SLPC  C214 7562   2.017   4.988   3.842 -0.0628 -0.8755 -0.0741
   81SLPC  H14R 7563   2.122   4.997   3.878 -0.5115 -2.2579  1.7309
   81SLPC  H14S 7564   1.994   4.880   3.830  2.4061 -1.4213 -0.4568
   81SLPC  C215 7565   1.943   5.042   3.964 -0.1491 -0.9437 -0.8882
   81SLPC  H15R 7566   1.833   5.033   3.948 -0.1092 -0.6849 -1.3350
   81SLPC  H15S 7567   1.975   5.147   3.982 -4.2810  0.7600 -2.2816
   81SLPC  C216 7568   1.979   4.966   4.095  0.1056 -0.0721 -0.3671
   81SLPC  H16R 7569   2.085   4.968   4.128  0.7533 -3.7205 -1.7734
   81SLPC  H16S 7570   1.955   4.858   4.084  0.3184  0.0208 -2.0131
   81SLPC  C217 7571   1.894   5.028   4.209 -0.4163  0.8111  0.2390
   81SLPC  H17R 7572   1.897   5.139   4.202 -0.7836  0.8930  1.2275
   81SLPC  H17S 7573   1.932   4.990   4.306  2.0815 -0.6487 -1.1686
   81SLPC  C218 7574   1.743   4.990   4.207  0.0723  0.7098 -0.1342
   81SLPC  H18R 7575   1.692   5.029   4.298  0.2735 -0.7872  0.6513
   81SLPC  H18S 7576   1.735   4.880   4.212  1.6651  0.6001  3.8466
   81SLPC  H18T 7577   1.700   5.030   4.113  0.4179  1.9371  0.2014
   81SLPC   C33 7578   1.805   3.866   2.929 -0.0657  0.7667  0.1705
   81SLPC   H3X 7579   1.902   3.894   2.976  0.8176 -0.2267 -0.9672
   81SLPC   H3Y 7580   1.825   3.809   2.835 -3.5181 -1.2650  0.4838
   81SLPC   C34 7581   1.719   3.790   3.028  0.0537 -0.2857 -0.8624
   81SLPC   H4X 7582   1.761   3.689   3.046  0.8014 -0.0809 -1.4297
   81SLPC   H4Y 7583   1.616   3.775   2.988  0.5188  1.5632 -3.0112
   81SLPC   C35 7584   1.714   3.856   3.169  0.5986  0.2147  0.6882
   81SLPC   H5X 7585   1.645   3.943   3.162 -0.4565 -0.7354 -1.5942
   81SLPC   H5Y 7586   1.815   3.890   3.201  0.6530  0.5205  0.1934
   81SLPC   C36 7587   1.660   3.763   3.275  0.5754 -0.5521  0.8275
   81SLPC   H6X 7588   1.728   3.676   3.287  0.2053 -1.0459 -0.5531
   81SLPC   H6Y 7589   1.572   3.708   3.238 -1.9003  2.9583  1.0097
   81SLPC   C37 7590   1.634   3.849   3.403 -0.3695  0.3703  0.2095
   81SLPC   H7X 7591   1.531   3.890   3.398 -1.5543 -2.5254 -1.4518
   81SLPC   H7Y 7592   1.693   3.944   3.400 -2.2886  1.6009 -1.2415
   81SLPC   C38 7593   1.656   3.760   3.519  0.0011 -0.0619 -1.1520
   81SLPC   H8X 7594   1.758   3.717   3.534 -0.2374 -0.1709  0.3322
   81SLPC   H8Y 7595   1.584   3.678   3.540  2.1321 -1.4625  1.4935
   81SLPC   C39 7596   1.647   3.846   3.652  0.1772  0.1645 -0.1972
   81SLPC   H9X 7597   1.538   3.868   3.661  0.1533 -0.7896  2.6124
   81SLPC   H9Y 7598   1.699   3.944   3.649 -0.3424  0.4528  0.0028
   81SLPC  C310 7599   1.682   3.756   3.768 -0.2656 -0.2442 -0.0445
   81SLPC  H10X 7600   1.789   3.729   3.763 -0.4408 -1.0556  0.4175
   81SLPC  H10Y 7601   1.626   3.661   3.754 -2.1037  0.5830  1.2217
   81SLPC  C311 7602   1.653   3.829   3.905 -0.3013  1.0852  0.0449
   81SLPC  H11X 7603   1.543   3.847   3.897 -1.1922 -2.7868  1.4736
   81SLPC  H11Y 7604   1.706   3.925   3.920  3.9304 -1.2377  1.4441
   81SLPC  C312 7605   1.675   3.746   4.027 -0.0966  0.0979  0.1758
   81SLPC  H12X 7606   1.784   3.732   4.046  0.2870  0.6603 -1.4284
   81SLPC  H12Y 7607   1.645   3.639   4.019  0.5076 -0.0133 -0.6540
   81SLPC  C313 7608   1.607   3.803   4.158  0.1039 -0.1445 -0.1064
   81SLPC  H13X 7609   1.498   3.796   4.138  0.2897 -1.5876 -0.7932
   81SLPC  H13Y 7610   1.629   3.911   4.172  2.1923 -0.8082  2.5425
   81SLPC  C314 7611   1.661   3.723   4.271 -0.2093  0.4072  0.2089
   81SLPC  H14X 7612   1.772   3.730   4.280 -0.1728 -0.0834  0.1790
   81SLPC  H14Y 7613   1.636   3.616   4.254 -1.5206  0.7657 -0.1891
   81SLPC  C315 7614   1.599   3.763   4.405 -0.4646 -0.5369  0.0051
   81SLPC  H15X 7615   1.605   3.682   4.481  0.2509  0.1805  0.7251
   81SLPC  H15Y 7616   1.493   3.793   4.390 -0.2249 -0.2244 -1.1648
   81SLPC  C316 7617   1.679   3.882   4.467  0.6224 -0.1704  0.0201
   81SLPC  H16X 7618   1.661   3.972   4.405 -2.9160  0.2689  1.4054
   81SLPC  H16Y 7619   1.788   3.860   4.468  0.5100 -0.7863  1.3066
   81SLPC  C317 7620   1.622   3.930   4.603  0.0446  0.4293  0.8484
   81SLPC  H17X 7621   1.669   3.880   4.690  0.0068  0.3754  0.8385
   81SLPC  H17Y 7622   1.515   3.900   4.602  0.1498 -0.0141 -0.6588
   81SLPC  C318 7623   1.635   4.077   4.625  0.5767 -0.6854 -0.4130
   81SLPC  H18X 7624   1.739   4.110   4.609 -0.0796  0.9441 -1.6469
   81SLPC  H18Y 7625   1.594   4.088   4.728  2.0426 -0.5386  0.1674
   81SLPC  H18Z 7626   1.578   4.136   4.549  1.3480  2.6938  1.4103
   82SLPC     N 7627   0.865   4.745   2.311  0.1605 -0.4577  0.4472
   82SLPC   C13 7628   0.880   4.616   2.234  0.3175 -0.8158  0.2377
   82SLPC  H13A 7629   0.792   4.555   2.247  1.8608 -2.9043  1.4304
   82SLPC  H13B 7630   0.900   4.634   2.130 -1.9955  2.4570  0.1971
   82SLPC  H13C 7631   0.959   4.562   2.284  1.0993  0.5880  0.5685
   82SLPC   C14 7632   0.720   4.793   2.288  0.6356 -0.2192 -0.6398
   82SLPC  H14A 7633   0.695   4.798   2.184  2.3729 -0.2876 -1.1010
   82SLPC  H14B 7634   0.644   4.731   2.332  1.1626 -0.2419  0.2930
   82SLPC  H14C 7635   0.703   4.891   2.329  0.9209  1.2240 -3.7215
   82SLPC   C15 7636   0.962   4.853   2.258  0.7354  0.1091  0.1035
   82SLPC  H15A 7637   0.952   4.866   2.151  2.2193  0.3919 -0.0185
   82SLPC  H15B 7638   0.937   4.951   2.296  0.6804 -0.4407  1.5292
   82SLPC  H15C 7639   1.067   4.833   2.276  1.2830  2.1179 -0.6339
   82SLPC   C12 7640   0.879   4.731   2.462  0.7171  0.3567  0.2631
   82SLPC  H12A 7641   0.808   4.656   2.494  1.8543 -1.0283 -0.3398
   82SLPC  H12B 7642   0.842   4.823   2.503  0.4427  1.3653 -2.1040
   82SLPC   C11 7643   1.022   4.697   2.526  0.5955 -0.4676  0.2012
   82SLPC  H11A 7644   1.013   4.704   2.637  0.1440  0.6035  0.1070
   82SLPC  H11B 7645   1.100   4.773   2.508 -0.1906  0.0269 -1.3326
   82SLPC     P 7646   0.997   4.431   2.527 -0.5474 -0.4402 -0.5676
   82SLPC   O13 7647   0.854   4.436   2.512 -0.0071 -0.6405 -0.1410
   82SLPC   O14 7648   1.071   4.327   2.458  0.6838 -0.3620 -0.1261
   82SLPC   O12 7649   1.060   4.569   2.480  0.4370  0.5593  0.3117
   82SLPC   O11 7650   1.033   4.422   2.684 -0.0664  0.4519  0.0360
   82SLPC    C1 7651   1.168   4.397   2.725 -0.0497 -0.0640  0.0265
   82SLPC    HA 7652   1.242   4.439   2.655  1.0333 -1.1508  0.4893
   82SLPC    HB 7653   1.182   4.445   2.824 -2.4946  0.3268  0.2460
   82SLPC    C2 7654   1.198   4.239   2.743  0.3241  0.4275 -0.1329
   82SLPC    HS 7655   1.175   4.187   2.647  0.9252 -0.4429  0.1885
   82SLPC   O21 7656   1.122   4.190   2.860  0.4200 -0.5095 -0.0951
   82SLPC   C21 7657   1.092   4.069   2.853 -0.7347  0.4433  0.1338
   82SLPC   O22 7658   1.108   3.994   2.758 -0.4785  0.3171  0.2008
   82SLPC   C22 7659   1.015   4.023   2.976 -0.1541  0.6851 -0.5802
   82SLPC   H2R 7660   0.929   4.092   2.991 -1.4289 -1.1126  0.8375
   82SLPC   H2S 7661   0.968   3.925   2.951 -1.6933  1.2887 -0.1703
   82SLPC    C3 7662   1.348   4.223   2.764 -0.0720 -0.3607  1.2531
   82SLPC    HX 7663   1.402   4.264   2.676 -2.1385 -0.9718 -0.3891
   82SLPC    HY 7664   1.358   4.113   2.768 -2.8203 -0.6877  0.7268
   82SLPC   O31 7665   1.388   4.304   2.880  0.1538  0.2908  0.1537
   82SLPC   C31 7666   1.411   4.223   2.989  0.3897  0.0974  0.5504
   82SLPC   O32 7667   1.409   4.102   2.993  0.0819 -0.5230  0.8712
   82SLPC   C32 7668   1.438   4.306   3.112 -0.3562 -0.2412 -0.3966
   82SLPC   H2X 7669   1.356   4.378   3.133  0.5155  1.7028 -3.1099
   82SLPC   H2Y 7670   1.527   4.371   3.097  0.9470 -2.0657 -0.8813
   82SLPC   C23 7671   1.108   4.016   3.108  0.3280  0.4853  0.0959
   82SLPC   H3R 7672   1.172   4.103   3.133 -1.5467  2.2215 -0.9155
   82SLPC   H3S 7673   1.181   3.932   3.101 -0.3139 -0.1086  0.3545
   82SLPC   C24 7674   1.035   3.992   3.234  0.1884  0.1723  0.5380
   82SLPC   H4R 7675   0.994   3.889   3.238 -1.3315  0.7333  0.2466
   82SLPC   H4S 7676   0.945   4.058   3.238  0.3764  0.3973  4.0802
   82SLPC   C25 7677   1.122   4.016   3.355 -0.7179  0.6456 -0.0536
   82SLPC   H5R 7678   1.150   4.123   3.354  0.3651  0.3663 -0.5670
   82SLPC   H5S 7679   1.209   3.947   3.348 -1.7212 -0.7575  0.7182
   82SLPC   C26 7680   1.063   3.968   3.488 -0.1744  0.1538  0.0837
   82SLPC   H6R 7681   1.005   3.874   3.478  0.0002  0.1286 -0.7282
   82SLPC   H6S 7682   0.977   4.032   3.518  0.6433  0.8249  1.0581
   82SLPC   C27 7683   1.170   3.969   3.597 -0.8090  0.6805 -0.0980
   82SLPC   H7R 7684   1.231   4.062   3.598  0.4723 -0.1111 -1.4339
   82SLPC   H7S 7685   1.252   3.895   3.583 -0.7258  0.1305  2.6118
   82SLPC   C28 7686   1.100   3.941   3.733  0.6988 -0.0212  1.2807
   82SLPC   H8R 7687   1.037   3.851   3.723  0.2787  0.3237  0.7911
   82SLPC   H8S 7688   1.033   4.024   3.767  1.6896  1.3752 -0.0405
   82SLPC   C29 7689   1.207   3.920   3.840 -0.6279  0.7335 -1.1059
   82SLPC   H9R 7690   1.306   3.923   3.793 -0.2954 -1.7109 -0.6778
   82SLPC  C210 7691   1.182   3.884   3.963 -1.0382  0.4555  0.5976
   82SLPC  H10R 7692   1.269   3.856   4.026 -1.7891  1.4434  2.1394
   82SLPC  C211 7693   1.045   3.869   4.022 -0.5649 -0.4324  0.8469
   82SLPC  H11R 7694   1.049   3.786   4.095  0.3625 -1.2775 -0.1368
   82SLPC  H11S 7695   0.970   3.842   3.945  0.6135 -1.4006  0.0067
   82SLPC  C212 7696   1.004   4.002   4.075 -0.1641  0.3618 -0.6738
   82SLPC  H12R 7697   1.064   4.088   4.042 -0.1457  0.4938 -0.2941
   82SLPC  C213 7698   0.912   4.020   4.165  0.0653 -0.1254 -0.0735
   82SLPC  H13R 7699   0.907   4.123   4.202  1.0401 -0.8330  2.2188
   82SLPC  C214 7700   0.823   3.906   4.211 -0.1331  0.2202  0.7365
   82SLPC  H14R 7701   0.854   3.810   4.164 -0.0966  0.9472 -0.8055
   82SLPC  H14S 7702   0.718   3.928   4.184  0.4057  0.1061 -1.6927
   82SLPC  C215 7703   0.841   3.893   4.362  0.0046 -0.6005 -0.4126
   82SLPC  H15R 7704   0.795   3.972   4.426  0.8526 -1.4210  1.2902
   82SLPC  H15S 7705   0.949   3.883   4.389 -0.1982  2.8614  2.5468
   82SLPC  C216 7706   0.759   3.766   4.415 -0.6077  0.7979 -0.1815
   82SLPC  H16R 7707   0.756   3.681   4.343  0.7416  1.4880 -1.0865
   82SLPC  H16S 7708   0.653   3.801   4.419  0.0086  2.7315  0.5347
   82SLPC  C217 7709   0.802   3.717   4.563  0.2644 -0.1907  0.7448
   82SLPC  H17R 7710   0.791   3.804   4.631 -0.2899  1.8280 -1.7702
   82SLPC  H17S 7711   0.905   3.678   4.548  0.2859  0.5981 -1.5100
   82SLPC  C218 7712   0.715   3.596   4.604 -0.7478  0.3058 -0.5867
   82SLPC  H18R 7713   0.762   3.565   4.699  1.4487  0.1833 -1.6447
   82SLPC  H18S 7714   0.724   3.520   4.523 -1.1819 -0.1617 -0.1982
   82SLPC  H18T 7715   0.609   3.628   4.610 -0.6584  0.2784  3.1648
   82SLPC   C33 7716   1.475   4.212   3.233  0.4768 -0.7871 -0.2050
   82SLPC   H3X 7717   1.583   4.188   3.224  0.6618 -0.1884  0.3349
   82SLPC   H3Y 7718   1.411   4.122   3.227  0.7673 -1.0190  0.1143
   82SLPC   C34 7719   1.456   4.292   3.370 -0.2557  0.3326  0.0472
   82SLPC   H4X 7720   1.352   4.329   3.384  0.1318  0.8746  1.7245
   82SLPC   H4Y 7721   1.508   4.390   3.361  0.4430 -0.1197 -1.0675
   82SLPC   C35 7722   1.500   4.214   3.493  0.1303 -0.9017 -0.3509
   82SLPC   H5X 7723   1.608   4.237   3.509 -0.2832  0.7941  0.1530
   82SLPC   H5Y 7724   1.483   4.105   3.482  0.7985 -1.2750  1.7956
   82SLPC   C36 7725   1.434   4.266   3.622  0.0880  0.2435  0.2167
   82SLPC   H6X 7726   1.324   4.252   3.617 -0.0204  0.4857  1.6292
   82SLPC   H6Y 7727   1.440   4.377   3.614  0.8301  0.1684 -0.4208
   82SLPC   C37 7728   1.487   4.204   3.750 -0.2788  0.1964  0.8768
   82SLPC   H7X 7729   1.594   4.225   3.771  0.1366 -2.9840  2.5376
   82SLPC   H7Y 7730   1.487   4.093   3.748 -0.3973  0.2037  0.1298
   82SLPC   C38 7731   1.395   4.242   3.866 -0.0530  0.0870 -0.6035
   82SLPC   H8X 7732   1.301   4.182   3.866 -0.9862  1.4923 -0.0953
   82SLPC   H8Y 7733   1.359   4.347   3.857 -2.4155 -0.5374  0.6349
   82SLPC   C39 7734   1.460   4.218   3.999 -0.2878 -0.1381  0.2621
   82SLPC   H9X 7735   1.558   4.268   4.003 -1.2851  1.9659 -0.2228
   82SLPC   H9Y 7736   1.488   4.111   4.008 -0.3044 -0.2979 -1.2959
   82SLPC  C310 7737   1.376   4.255   4.119  0.1084 -0.9377  0.3284
   82SLPC  H10X 7738   1.272   4.226   4.096 -0.3747 -1.8958  3.3026
   82SLPC  H10Y 7739   1.375   4.365   4.135 -2.0927 -0.7015 -1.1132
   82SLPC  C311 7740   1.409   4.173   4.243  0.2569 -0.4869 -0.0239
   82SLPC  H11X 7741   1.517   4.168   4.267  0.0063 -0.3996  1.2379
   82SLPC  H11Y 7742   1.395   4.064   4.224  1.9718 -0.6607 -0.4472
   82SLPC  C312 7743   1.348   4.218   4.371 -0.1991  0.0164  0.3791
   82SLPC  H12X 7744   1.270   4.293   4.346  1.4057  1.3939 -0.7169
   82SLPC  H12Y 7745   1.419   4.278   4.433  0.7098 -1.0579  0.4165
   82SLPC  C313 7746   1.273   4.104   4.458 -0.5993 -0.1986  0.2254
   82SLPC  H13X 7747   1.345   4.019   4.446  0.2834  0.5537  0.0744
   82SLPC  H13Y 7748   1.171   4.086   4.417  0.0783 -0.9570 -1.1972
   82SLPC  C314 7749   1.266   4.157   4.599  0.0273  0.5898 -0.0299
   82SLPC  H14X 7750   1.220   4.258   4.594 -2.7501 -0.4991  1.5086
   82SLPC  H14Y 7751   1.365   4.165   4.648 -1.3229  0.4762  2.9061
   82SLPC  C315 7752   1.186   4.066   4.696 -0.4359 -0.4634 -0.1191
   82SLPC  H15X 7753   1.093   4.029   4.648  0.7427 -2.1979 -1.1805
   82SLPC  H15Y 7754   1.157   4.119   4.789 -0.9675 -0.5384 -0.2373
   82SLPC  C316 7755   1.265   3.941   4.745 -0.0549  0.4014  0.3599
   82SLPC  H16X 7756   1.359   3.980   4.789 -0.6296  1.8475  0.3509
   82SLPC  H16Y 7757   1.296   3.887   4.653  2.1431 -1.1447  1.9028
   82SLPC  C317 7758   1.187   3.850   4.836  0.2919  0.5589 -0.2567
   82SLPC  H17X 7759   1.206   3.893   4.937  2.0660 -0.0755 -0.2897
   82SLPC  H17Y 7760   1.246   3.756   4.839 -1.5707 -0.6365  0.7627
   82SLPC  C318 7761   1.031   3.833   4.807  0.5092 -0.4531  0.4528
   82SLPC  H18X 7762   0.980   3.783   4.891 -1.1674  0.6625  0.1450
   82SLPC  H18Y 7763   1.021   3.792   4.704  0.3674 -0.2482  0.3847
   82SLPC  H18Z 7764   0.989   3.935   4.799  0.0601 -0.6979 -0.4866
   83SLPC     N 7765   1.949   4.492   1.932 -0.2587  0.0976 -0.0943
   83SLPC   C13 7766   1.890   4.370   1.996 -0.7614 -0.4136 -0.3532
   83SLPC  H13A 7767   1.890   4.386   2.103 -1.0495  1.2752 -0.5841
   83SLPC  H13B 7768   1.788   4.360   1.962 -1.1447 -0.8294  0.8597
   83SLPC  H13C 7769   1.955   4.287   1.972  2.5868  1.9390 -0.2105
   83SLPC   C14 7770   1.868   4.610   1.960  0.2718  0.2861  0.1506
   83SLPC  H14A 7771   1.903   4.691   1.898 -1.0477  1.2514  0.6177
   83SLPC  H14B 7772   1.762   4.591   1.956  0.0763  1.3527 -0.1490
   83SLPC  H14C 7773   1.895   4.662   2.051 -1.7440  2.2964 -0.3164
   83SLPC   C15 7774   1.943   4.466   1.780 -1.2617 -0.2637 -0.5323
   83SLPC  H15A 7775   1.970   4.558   1.730  1.6514 -0.5432  0.3715
   83SLPC  H15B 7776   2.012   4.387   1.754  0.5200  1.8807 -2.8544
   83SLPC  H15C 7777   1.846   4.445   1.737 -1.2688 -1.3637 -0.0211
   83SLPC   C12 7778   2.093   4.513   1.978 -0.3806 -0.2050  0.3403
   83SLPC  H12A 7779   2.152   4.427   1.948 -0.9695 -1.0452  1.5314
   83SLPC  H12B 7780   2.095   4.515   2.085  0.7378 -3.2710  0.4960
   83SLPC   C11 7781   2.164   4.646   1.929  0.6762 -0.0775 -0.3307
   83SLPC  H11A 7782   2.142   4.661   1.822  0.1945 -2.3715 -0.6177
   83SLPC  H11B 7783   2.272   4.634   1.954  1.0401  0.2753 -1.6498
   83SLPC     P 7784   2.176   4.791   2.158 -0.0186 -0.4258  0.2584
   83SLPC   O13 7785   2.318   4.750   2.171  0.6012 -0.3103  0.5438
   83SLPC   O14 7786   2.144   4.930   2.198 -0.5620 -0.1777 -0.1339
   83SLPC   O12 7787   2.124   4.759   2.014  0.5070  0.2385 -0.4360
   83SLPC   O11 7788   2.088   4.690   2.247 -0.0879  0.0255  0.1334
   83SLPC    C1 7789   1.995   4.749   2.349 -0.6225 -0.8273  0.0693
   83SLPC    HA 7790   1.951   4.842   2.309  1.0520  0.0929  0.2884
   83SLPC    HB 7791   1.909   4.684   2.378 -1.7119 -0.0142 -1.2650
   83SLPC    C2 7792   2.054   4.787   2.486 -0.2971  0.1198 -0.8742
   83SLPC    HS 7793   2.131   4.865   2.468 -2.0765  2.0845 -0.4115
   83SLPC   O21 7794   2.101   4.661   2.545 -0.3932 -0.1050 -0.8658
   83SLPC   C21 7795   2.233   4.652   2.557  0.2843 -0.1170  0.2582
   83SLPC   O22 7796   2.309   4.747   2.547  0.0249  0.6766  0.3964
   83SLPC   C22 7797   2.266   4.506   2.577  0.2636  0.5390 -0.4863
   83SLPC   H2R 7798   2.199   4.459   2.652 -0.6271 -0.9829 -2.1674
   83SLPC   H2S 7799   2.247   4.459   2.478  0.0977  0.9415 -0.6459
   83SLPC    C3 7800   1.948   4.853   2.583 -0.5658 -0.2801 -0.1546
   83SLPC    HX 7801   1.866   4.779   2.575  0.1856 -1.0413 -1.1552
   83SLPC    HY 7802   1.894   4.943   2.549  0.6817 -0.7338 -3.7958
   83SLPC   O31 7803   1.978   4.855   2.722  0.5159 -0.4856 -0.0876
   83SLPC   C31 7804   2.052   4.958   2.758 -0.3268 -0.5708  0.0877
   83SLPC   O32 7805   2.079   5.054   2.692  0.1210  0.1734  0.4471
   83SLPC   C32 7806   2.096   4.937   2.901  0.4040  0.7930  0.0346
   83SLPC   H2X 7807   2.145   4.839   2.916 -1.8533 -0.0932  2.3944
   83SLPC   H2Y 7808   1.999   4.945   2.955 -0.6170  1.2911 -1.7639
   83SLPC   C23 7809   2.416   4.476   2.621  0.1992 -0.3709  0.8089
   83SLPC   H3R 7810   2.474   4.520   2.536 -1.7224  3.7659  1.3930
   83SLPC   H3S 7811   2.429   4.366   2.627 -0.4086 -0.4402  0.9080
   83SLPC   C24 7812   2.476   4.543   2.747 -0.1600 -0.1856  0.0609
   83SLPC   H4R 7813   2.486   4.653   2.734 -0.8338 -0.0643  0.5149
   83SLPC   H4S 7814   2.577   4.497   2.747 -0.8671 -1.8815 -1.4612
   83SLPC   C25 7815   2.398   4.514   2.875  0.4834  0.1317  0.2075
   83SLPC   H5R 7816   2.471   4.503   2.958  0.0306  1.2025  0.7691
   83SLPC   H5S 7817   2.343   4.417   2.869 -0.3977  0.7007 -3.0267
   83SLPC   C26 7818   2.288   4.621   2.910  0.4187 -0.1446 -0.2225
   83SLPC   H6R 7819   2.209   4.623   2.833  1.2474  0.3874 -1.0822
   83SLPC   H6S 7820   2.338   4.718   2.929 -1.1502  0.3233  1.8531
   83SLPC   C27 7821   2.215   4.574   3.040  0.4714  0.0990 -0.3989
   83SLPC   H7R 7822   2.191   4.467   3.020  0.2485  0.0084  0.3079
   83SLPC   H7S 7823   2.116   4.624   3.047  1.3312  1.8718 -0.4138
   83SLPC   C28 7824   2.300   4.602   3.170 -0.3774 -0.1666 -0.2712
   83SLPC   H8R 7825   2.337   4.706   3.180 -1.3377 -0.0172  3.2901
   83SLPC   H8S 7826   2.385   4.531   3.171 -1.0812 -1.0299 -0.2602
   83SLPC   C29 7827   2.210   4.563   3.285  0.2631  0.2247 -0.6234
   83SLPC   H9R 7828   2.119   4.509   3.255 -0.9308  1.1193  1.2152
   83SLPC  C210 7829   2.229   4.592   3.413  0.3830 -0.4608 -0.3284
   83SLPC  H10R 7830   2.162   4.555   3.492  0.7401 -0.9732 -0.2647
   83SLPC  C211 7831   2.355   4.656   3.471 -0.1916  0.4460  0.3553
   83SLPC  H11R 7832   2.433   4.689   3.400  1.2918 -2.7250  0.3217
   83SLPC  H11S 7833   2.416   4.574   3.515 -1.0041 -1.1985 -1.4586
   83SLPC  C212 7834   2.313   4.759   3.566  0.2335 -0.3245 -0.4191
   83SLPC  H12R 7835   2.312   4.863   3.530  0.1873  0.4061  1.5846
   83SLPC  C213 7836   2.282   4.734   3.698 -0.5336  0.2487  0.3067
   83SLPC  H13R 7837   2.246   4.817   3.762 -1.3984 -0.1482  0.3534
   83SLPC  C214 7838   2.287   4.599   3.773 -0.0903  0.3321 -0.4596
   83SLPC  H14R 7839   2.355   4.539   3.710  0.9360 -0.5501  1.3892
   83SLPC  H14S 7840   2.186   4.555   3.786  0.0224  0.1578 -0.1628
   83SLPC  C215 7841   2.346   4.622   3.911 -0.6139  0.5737  0.5216
   83SLPC  H15R 7842   2.330   4.721   3.959 -2.5497 -0.2016  1.5693
   83SLPC  H15S 7843   2.455   4.601   3.910 -0.4875  1.1448  1.4843
   83SLPC  C216 7844   2.280   4.514   4.007 -0.3373 -0.0737  0.1665
   83SLPC  H16R 7845   2.289   4.413   3.961 -0.1391  0.2587 -0.5489
   83SLPC  H16S 7846   2.173   4.543   4.000 -0.7145 -1.4347 -0.1933
   83SLPC  C217 7847   2.317   4.526   4.154  0.3937  1.0442  0.0438
   83SLPC  H17R 7848   2.425   4.509   4.174  0.6922  0.7556 -1.6880
   83SLPC  H17S 7849   2.256   4.448   4.204 -0.0513  1.8556  0.8060
   83SLPC  C218 7850   2.277   4.649   4.242  0.4371 -0.7192 -0.0691
   83SLPC  H18R 7851   2.322   4.649   4.343  0.2233  3.2013  0.2014
   83SLPC  H18S 7852   2.167   4.636   4.255  0.5401  0.1148  1.9335
   83SLPC  H18T 7853   2.308   4.743   4.191 -1.3573 -0.5644 -0.9550
   83SLPC   C33 7854   2.196   5.042   2.946 -0.2558 -0.0553 -0.2311
   83SLPC   H3X 7855   2.166   5.145   2.915  4.8417  1.4729 -1.0004
   83SLPC   H3Y 7856   2.290   5.020   2.892 -0.3908 -0.3640 -0.3392
   83SLPC   C34 7857   2.236   5.041   3.091  0.5235 -0.0544  0.2016
   83SLPC   H4X 7858   2.329   5.098   3.110 -0.1696  0.7012  1.4844
   83SLPC   H4Y 7859   2.251   4.933   3.114  3.3105 -0.2331 -1.8855
   83SLPC   C35 7860   2.128   5.110   3.178  0.0766 -0.8027  0.0274
   83SLPC   H5X 7861   2.027   5.075   3.148 -1.5763  4.3390 -1.4814
   83SLPC   H5Y 7862   2.134   5.218   3.154  1.1689 -0.5514  1.3266
   83SLPC   C36 7863   2.160   5.101   3.328  0.3790  0.2327 -0.8557
   83SLPC   H6X 7864   2.153   4.998   3.369  2.2346  0.3023 -0.2579
   83SLPC   H6Y 7865   2.076   5.153   3.378 -1.4909 -3.2761  0.0428
   83SLPC   C37 7866   2.298   5.145   3.369 -0.2439  0.3843  0.2593
   83SLPC   H7X 7867   2.317   5.239   3.312  4.4292 -2.0854 -2.9994
   83SLPC   H7Y 7868   2.384   5.078   3.345  0.5147  2.1618 -2.4442
   83SLPC   C38 7869   2.312   5.161   3.521  0.4530 -0.1229 -0.1139
   83SLPC   H8X 7870   2.286   5.066   3.572 -0.3753 -0.2372 -0.7219
   83SLPC   H8Y 7871   2.239   5.237   3.557  1.0773  1.1839 -1.5004
   83SLPC   C39 7872   2.447   5.209   3.571 -0.0999  0.5284  0.0028
   83SLPC   H9X 7873   2.456   5.320   3.563  1.3860  0.7013  2.5531
   83SLPC   H9Y 7874   2.532   5.173   3.509 -1.0722 -0.5138 -0.7356
   83SLPC  C310 7875   2.474   5.161   3.714 -0.2631 -0.7193 -0.4588
   83SLPC  H10X 7876   2.580   5.172   3.743 -0.7366  0.8109  0.7620
   83SLPC  H10Y 7877   2.461   5.050   3.717  0.7688 -0.8215  0.4730
   83SLPC  C311 7878   2.389   5.234   3.820  0.0598 -0.4253 -0.0059
   83SLPC  H11X 7879   2.284   5.257   3.793 -0.5643 -0.8238  1.9890
   83SLPC  H11Y 7880   2.442   5.331   3.837  0.9301 -0.7485 -0.7702
   83SLPC  C312 7881   2.407   5.167   3.954 -0.4887  0.2854  0.2438
   83SLPC  H12X 7882   2.513   5.171   3.985  0.1218  1.3174 -1.8334
   83SLPC  H12Y 7883   2.391   5.059   3.930 -0.1348  0.1382  0.6573
   83SLPC  C313 7884   2.306   5.215   4.066  0.4364  0.1822 -0.4208
   83SLPC  H13X 7885   2.205   5.183   4.034 -0.0399 -0.9465  2.0268
   83SLPC  H13Y 7886   2.306   5.325   4.080 -0.4877  0.0693  0.5334
   83SLPC  C314 7887   2.332   5.124   4.188 -0.0565  0.2835 -0.0118
   83SLPC  H14X 7888   2.441   5.130   4.207 -0.2550  0.4458  1.1489
   83SLPC  H14Y 7889   2.309   5.018   4.163  0.3015  0.2708 -0.3102
   83SLPC  C315 7890   2.246   5.147   4.313  0.0206 -0.1150  0.0979
   83SLPC  H15X 7891   2.140   5.150   4.279 -0.2015  0.2751  0.8132
   83SLPC  H15Y 7892   2.264   5.252   4.344  0.7484 -0.2731  0.2211
   83SLPC  C316 7893   2.262   5.056   4.427 -0.1235  1.1059 -1.1495
   83SLPC  H16X 7894   2.228   4.956   4.392  2.2713  0.5769 -2.1823
   83SLPC  H16Y 7895   2.210   5.093   4.518  0.6020 -0.6141  0.0184
   83SLPC  C317 7896   2.406   5.051   4.478  0.4742 -0.1156 -0.2446
   83SLPC  H17X 7897   2.454   5.151   4.486  0.2153 -0.0904  1.5118
   83SLPC  H17Y 7898   2.465   4.983   4.412 -1.3966 -2.7832  0.6593
   83SLPC  C318 7899   2.402   4.982   4.612 -0.0866 -0.0533  0.1285
   83SLPC  H18X 7900   2.306   5.006   4.663  1.5199  2.9874  2.0978
   83SLPC  H18Y 7901   2.478   5.017   4.684 -0.8947  0.5380  0.7222
   83SLPC  H18Z 7902   2.403   4.873   4.596  1.3973  0.3610 -3.5636
   84SLPC     N 7903   3.108   4.040   2.206  0.1999  0.5410 -0.0170
   84SLPC   C13 7904   3.074   4.176   2.165  0.1605 -0.3857  0.7230
   84SLPC  H13A 7905   2.973   4.197   2.198  0.6735  1.3001  1.2999
   84SLPC  H13B 7906   3.140   4.249   2.210  0.3069  0.8232 -1.2978
   84SLPC  H13C 7907   3.076   4.184   2.057 -2.1477  1.1771  0.7111
   84SLPC   C14 7908   3.058   4.032   2.353 -0.3099  0.6410  0.2718
   84SLPC  H14A 7909   2.954   4.060   2.360 -0.1519  0.9773  1.4254
   84SLPC  H14B 7910   3.070   3.928   2.377  2.8066  0.5516 -1.2496
   84SLPC  H14C 7911   3.110   4.095   2.423 -0.5155 -0.3983  1.3861
   84SLPC   C15 7912   3.259   4.018   2.202 -0.5361  0.8578 -0.5082
   84SLPC  H15A 7913   3.291   4.034   2.100  0.7096  0.8147 -0.1416
   84SLPC  H15B 7914   3.289   4.101   2.263  0.2784 -0.3657  0.8106
   84SLPC  H15C 7915   3.280   3.922   2.248 -2.7916  0.1698 -0.7708
   84SLPC   C12 7916   3.042   3.936   2.122 -0.9079  0.0975 -0.4661
   84SLPC  H12A 7917   3.047   3.962   2.018  0.8163  0.2645 -0.3723
   84SLPC  H12B 7918   2.939   3.938   2.153 -1.0169 -1.2256 -0.6997
   84SLPC   C11 7919   3.073   3.776   2.137 -0.3399  0.1395  0.7456
   84SLPC  H11A 7920   3.167   3.757   2.081  1.3322  1.6470  2.8411
   84SLPC  H11B 7921   2.989   3.727   2.084 -0.4764 -0.2080  1.2823
   84SLPC     P 7922   2.965   3.669   2.354  0.1017  0.3716 -0.3008
   84SLPC   O13 7923   2.841   3.708   2.291  0.4561 -0.0274  0.3954
   84SLPC   O14 7924   2.999   3.526   2.365  0.2611 -0.3836  0.3559
   84SLPC   O12 7925   3.081   3.735   2.272 -0.2004 -0.6304 -0.2922
   84SLPC   O11 7926   2.987   3.735   2.494  0.3029 -0.5975  0.5083
   84SLPC    C1 7927   3.112   3.749   2.567  0.3131  0.3884  0.3364
   84SLPC    HA 7928   3.193   3.789   2.503  1.6769  0.7688  2.2232
   84SLPC    HB 7929   3.099   3.815   2.656  2.5556  0.6365  0.5398
   84SLPC    C2 7930   3.160   3.613   2.626 -0.3840 -0.0451  0.4997
   84SLPC    HS 7931   3.177   3.550   2.536  1.2627  1.2500 -0.1471
   84SLPC   O21 7932   3.064   3.553   2.715  0.3483  0.1194  0.5167
   84SLPC   C21 7933   3.065   3.418   2.741  0.0809  0.1492 -0.3705
   84SLPC   O22 7934   3.138   3.338   2.690  0.2948 -0.2253  0.4370
   84SLPC   C22 7935   2.966   3.383   2.843  0.4009  0.7177 -0.4569
   84SLPC   H2R 7936   3.000   3.394   2.948  1.5330 -0.6209 -0.6381
   84SLPC   H2S 7937   2.870   3.436   2.831 -0.7478 -0.6150  2.0935
   84SLPC    C3 7938   3.301   3.637   2.682 -0.5242  0.1370  0.2740
   84SLPC    HX 7939   3.353   3.685   2.596 -0.1573 -2.0752 -0.8146
   84SLPC    HY 7940   3.352   3.541   2.706  0.4128 -0.2021 -2.6262
   84SLPC   O31 7941   3.299   3.715   2.810  0.4630  0.0423 -0.2041
   84SLPC   C31 7942   3.365   3.829   2.812  0.5058 -0.0233 -0.6957
   84SLPC   O32 7943   3.441   3.873   2.729  0.1705 -0.1238 -0.3169
   84SLPC   C32 7944   3.340   3.901   2.951 -0.1357 -0.1685 -0.0054
   84SLPC   H2X 7945   3.397   3.996   2.955 -3.3482  1.9415 -0.3327
   84SLPC   H2Y 7946   3.386   3.832   3.025 -1.5651 -2.8561 -1.4699
   84SLPC   C23 7947   2.930   3.237   2.815 -0.0253 -0.4948  0.3181
   84SLPC   H3R 7948   3.015   3.166   2.827  0.8851  0.0850 -2.0521
   84SLPC   H3S 7949   2.891   3.225   2.711 -0.5891  0.9845  0.3327
   84SLPC   C24 7950   2.816   3.191   2.912  0.1787  0.4837 -0.6766
   84SLPC   H4R 7951   2.796   3.087   2.877 -1.3430  0.6238 -0.3134
   84SLPC   H4S 7952   2.726   3.249   2.882 -0.6073  0.2641  1.1618
   84SLPC   C25 7953   2.835   3.219   3.057  0.2730 -0.0036 -0.8157
   84SLPC   H5R 7954   2.856   3.324   3.086 -0.1526 -0.2168  0.3209
   84SLPC   H5S 7955   2.926   3.160   3.080 -0.8629 -1.9131 -1.0306
   84SLPC   C26 7956   2.718   3.173   3.142  0.0904  0.1414  0.0006
   84SLPC   H6R 7957   2.690   3.069   3.116 -1.4053 -0.2524  2.7591
   84SLPC   H6S 7958   2.636   3.245   3.123  1.7432  2.2330  0.4496
   84SLPC   C27 7959   2.757   3.183   3.286 -0.4817  0.0481  0.2050
   84SLPC   H7R 7960   2.777   3.286   3.320 -2.5360  1.4563 -2.4452
   84SLPC   H7S 7961   2.855   3.133   3.303 -0.2991  0.8586  1.6760
   84SLPC   C28 7962   2.662   3.122   3.389 -0.0622 -0.1697 -0.0223
   84SLPC   H8R 7963   2.717   3.096   3.481 -0.9050 -1.6127  0.1073
   84SLPC   H8S 7964   2.645   3.024   3.339  0.9313 -0.4948  0.2733
   84SLPC   C29 7965   2.530   3.189   3.420 -0.2994 -0.1355 -0.5694
   84SLPC   H9R 7966   2.452   3.190   3.342 -0.9968 -0.5195  0.0989
   84SLPC  C210 7967   2.498   3.253   3.537 -0.2348  0.3833  0.3738
   84SLPC  H10R 7968   2.399   3.301   3.546 -0.6762 -0.5188  0.4580
   84SLPC  C211 7969   2.595   3.279   3.650 -0.6940 -0.0078  0.4325
   84SLPC  H11R 7970   2.557   3.358   3.719 -0.3807  0.9769 -0.5067
   84SLPC  H11S 7971   2.684   3.328   3.606 -2.2890  1.8135 -0.9326
   84SLPC  C212 7972   2.619   3.156   3.724 -0.1844 -0.0060 -0.5828
   84SLPC  H12R 7973   2.695   3.087   3.686  0.4006  0.5638 -0.4607
   84SLPC  C213 7974   2.567   3.112   3.841 -0.3685  0.2492 -0.5372
   84SLPC  H13R 7975   2.614   3.025   3.891 -2.4017  0.5806  2.1811
   84SLPC  C214 7976   2.442   3.171   3.914 -0.6659 -0.1145 -0.6344
   84SLPC  H14R 7977   2.373   3.085   3.924 -0.0175 -0.5297  0.4524
   84SLPC  H14S 7978   2.387   3.247   3.855 -0.4625 -1.2695 -2.3779
   84SLPC  C215 7979   2.459   3.226   4.061 -0.0925 -0.1665  0.0625
   84SLPC  H15R 7980   2.517   3.321   4.063 -1.1768  0.5088  0.6581
   84SLPC  H15S 7981   2.515   3.146   4.114  0.1776 -1.3304 -1.8603
   84SLPC  C216 7982   2.316   3.240   4.119 -0.2611 -0.0194 -0.1227
   84SLPC  H16R 7983   2.258   3.157   4.074  0.8589 -2.5473  2.7792
   84SLPC  H16S 7984   2.260   3.332   4.091 -0.7126  0.3429  1.8733
   84SLPC  C217 7985   2.320   3.250   4.270  0.6362 -0.6572 -0.2303
   84SLPC  H17R 7986   2.381   3.336   4.305 -0.9418  1.1571 -1.7356
   84SLPC  H17S 7987   2.360   3.157   4.315  0.3010 -1.9730 -2.5054
   84SLPC  C218 7988   2.184   3.275   4.325 -0.2279 -0.4382 -0.6297
   84SLPC  H18R 7989   2.109   3.195   4.307 -1.3216  0.2709  0.6585
   84SLPC  H18S 7990   2.132   3.369   4.297 -1.6801 -0.5332  1.4694
   84SLPC  H18T 7991   2.193   3.290   4.435  0.4101  0.3118 -0.7743
   84SLPC   C33 7992   3.191   3.941   2.980 -0.1282 -0.7153  0.2450
   84SLPC   H3X 7993   3.131   3.847   2.985  0.0078 -0.8934 -1.0227
   84SLPC   H3Y 7994   3.161   4.004   2.894  0.2448 -0.7569  0.0826
   84SLPC   C34 7995   3.170   4.015   3.109 -0.1444 -0.5248  1.0303
   84SLPC   H4X 7996   3.078   4.075   3.094  0.0587 -0.0608  1.5838
   84SLPC   H4Y 7997   3.243   4.098   3.119  0.5125 -1.0376  0.6063
   84SLPC   C35 7998   3.166   3.930   3.236  0.1052  0.0014 -0.3716
   84SLPC   H5X 7999   3.245   3.852   3.229  0.4155  0.4648 -2.7652
   84SLPC   H5Y 8000   3.069   3.878   3.251  1.5959 -2.3526  1.9714
   84SLPC   C36 8001   3.195   4.011   3.359 -0.1962 -0.4822  0.0884
   84SLPC   H6X 8002   3.131   4.102   3.358 -0.7615 -0.8695 -0.2203
   84SLPC   H6Y 8003   3.304   4.031   3.357 -0.5877  2.0092  0.8222
   84SLPC   C37 8004   3.172   3.944   3.494  0.4187 -0.1283 -0.5845
   84SLPC   H7X 8005   3.087   3.873   3.486 -0.9690  1.5272 -0.9263
   84SLPC   H7Y 8006   3.151   4.019   3.573  0.4154 -0.8300  0.1063
   84SLPC   C38 8007   3.294   3.861   3.543 -0.0433  0.7350  1.2329
   84SLPC   H8X 8008   3.377   3.935   3.549  1.4105 -0.7725  0.4791
   84SLPC   H8Y 8009   3.332   3.787   3.469  0.5178  0.0701  2.1705
   84SLPC   C39 8010   3.283   3.795   3.678 -0.0082 -0.1195 -0.4786
   84SLPC   H9X 8011   3.198   3.724   3.685  2.7115 -3.5640  0.7188
   84SLPC   H9Y 8012   3.272   3.874   3.756  1.3438 -0.0036 -0.3805
   84SLPC  C310 8013   3.421   3.719   3.711  0.3111  0.2612  0.4660
   84SLPC  H10X 8014   3.501   3.793   3.688  1.0772 -0.2797  1.3022
   84SLPC  H10Y 8015   3.415   3.634   3.640  1.8426  3.1902 -3.5126
   84SLPC  C311 8016   3.421   3.663   3.849 -0.3180  0.4989  0.2124
   84SLPC  H11X 8017   3.334   3.599   3.875 -0.8469  2.1825  2.9816
   84SLPC  H11Y 8018   3.412   3.754   3.913 -0.5681 -0.0234  0.9276
   84SLPC  C312 8019   3.563   3.593   3.888 -0.2522  0.6835  0.9696
   84SLPC  H12X 8020   3.563   3.578   3.998 -2.6069  0.7709  1.0134
   84SLPC  H12Y 8021   3.647   3.662   3.865 -0.2308  0.8637  1.5739
   84SLPC  C313 8022   3.583   3.450   3.827 -0.4570 -0.0563  0.3429
   84SLPC  H13X 8023   3.508   3.368   3.836 -1.1664  0.5841  0.3173
   84SLPC  H13Y 8024   3.666   3.402   3.883 -0.8564 -0.9964  0.1585
   84SLPC  C314 8025   3.646   3.447   3.682 -0.1784  0.3058 -0.1781
   84SLPC  H14X 8026   3.571   3.486   3.610 -0.8147  0.4396  0.5462
   84SLPC  H14Y 8027   3.675   3.341   3.664  0.9116  0.4193  0.7836
   84SLPC  C315 8028   3.780   3.529   3.679  0.4617  0.2534 -0.3528
   84SLPC  H15X 8029   3.834   3.510   3.775 -1.6923 -1.5176  0.6037
   84SLPC  H15Y 8030   3.763   3.638   3.668  0.3583  0.2353 -0.3708
   84SLPC  C316 8031   3.877   3.478   3.571  0.2863 -1.3328 -0.5909
   84SLPC  H16X 8032   3.828   3.506   3.475 -0.0439  0.3214  0.0423
   84SLPC  H16Y 8033   3.919   3.375   3.562  0.0749 -1.5302  0.5859
   84SLPC  C317 8034   4.004   3.565   3.577 -0.0701 -0.5868  0.8498
   84SLPC  H17X 8035   4.053   3.540   3.674 -1.2049 -0.0680  1.5882
   84SLPC  H17Y 8036   3.978   3.673   3.569  0.9223 -0.4779 -1.7103
   84SLPC  C318 8037   4.096   3.537   3.463 -0.6684 -0.5318 -0.0195
   84SLPC  H18X 8038   4.035   3.519   3.372 -0.4419  0.8437 -0.4624
   84SLPC  H18Y 8039   4.150   3.442   3.483  0.2954  0.4129  2.1351
   84SLPC  H18Z 8040   4.171   3.617   3.445 -0.5797 -0.3873  0.9821
   85SLPC     N 8041   6.183   4.826   2.289 -0.5733 -0.0820 -0.3147
   85SLPC   C13 8042   6.162   4.846   2.443 -0.2515  0.2169  0.1385
   85SLPC  H13A 8043   6.149   4.950   2.469 -0.8608  0.1924 -0.0355
   85SLPC  H13B 8044   6.067   4.798   2.465 -0.7556  1.1099 -0.0165
   85SLPC  H13C 8045   6.245   4.792   2.485 -0.3763 -1.7573 -1.9664
   85SLPC   C14 8046   6.063   4.872   2.210 -0.9037  0.1611  0.1743
   85SLPC  H14A 8047   6.078   4.878   2.103 -1.6568  1.2938  0.1043
   85SLPC  H14B 8048   5.979   4.810   2.239  0.1042 -0.4592  1.8861
   85SLPC  H14C 8049   6.050   4.978   2.227  1.5804  0.6845 -0.8415
   85SLPC   C15 8050   6.204   4.681   2.268 -0.3451 -0.0205 -0.8574
   85SLPC  H15A 8051   6.217   4.659   2.163 -2.3387 -5.0216 -0.3282
   85SLPC  H15B 8052   6.281   4.639   2.331 -0.4322 -1.3081 -1.5778
   85SLPC  H15C 8053   6.117   4.622   2.293 -0.5795  0.9668  0.8198
   85SLPC   C12 8054   6.305   4.909   2.241  0.7976  0.5827 -0.1605
   85SLPC  H12A 8055   6.303   4.901   2.133 -0.7502 -0.5844 -0.0898
   85SLPC  H12B 8056   6.390   4.859   2.284  1.0433  0.6351 -0.5757
   85SLPC   C11 8057   6.306   5.056   2.274 -0.2924  0.1369  0.4101
   85SLPC  H11A 8058   6.295   5.084   2.381  1.5310 -1.3024  1.0253
   85SLPC  H11B 8059   6.218   5.102   2.224 -2.3881 -2.4057  1.5219
   85SLPC     P 8060   6.563   5.106   2.302  0.1815  0.2584  0.3970
   85SLPC   O13 8061   6.560   4.984   2.389  0.1796 -0.5901 -0.2452
   85SLPC   O14 8062   6.670   5.118   2.202 -0.0752  0.4929 -0.2230
   85SLPC   O12 8063   6.427   5.116   2.227 -0.4209  0.0358  0.7912
   85SLPC   O11 8064   6.571   5.230   2.386 -0.0928 -0.2077 -0.0408
   85SLPC    C1 8065   6.690   5.249   2.466  0.3448  0.0854 -0.6201
   85SLPC    HA 8066   6.787   5.208   2.429  0.1502 -0.1436 -0.8809
   85SLPC    HB 8067   6.700   5.357   2.492  0.5484  0.0872 -0.6969
   85SLPC    C2 8068   6.682   5.189   2.607  0.1564 -0.2341 -0.4811
   85SLPC    HS 8069   6.674   5.078   2.599 -1.3515 -0.2992  1.2579
   85SLPC   O21 8070   6.562   5.230   2.675  0.3477 -0.1726 -0.2328
   85SLPC   C21 8071   6.528   5.152   2.778 -0.4022  0.0410 -0.0249
   85SLPC   O22 8072   6.583   5.052   2.817  0.6474 -0.0837 -0.6585
   85SLPC   C22 8073   6.422   5.228   2.866  0.0308 -0.6730  0.0214
   85SLPC   H2R 8074   6.340   5.268   2.803  1.7218  1.4253 -0.9985
   85SLPC   H2S 8075   6.385   5.159   2.945 -0.7965 -0.3146 -0.0429
   85SLPC    C3 8076   6.811   5.217   2.684  0.1682  0.4795 -0.2211
   85SLPC    HX 8077   6.900   5.198   2.620  1.3956  2.0147  0.9195
   85SLPC    HY 8078   6.816   5.148   2.771  2.1379 -0.3150 -0.9153
   85SLPC   O31 8079   6.809   5.357   2.738  0.1657  1.1316 -0.9388
   85SLPC   C31 8080   6.919   5.382   2.807 -0.5871 -0.6766 -0.1063
   85SLPC   O32 8081   7.019   5.311   2.814 -0.1451  0.4037  0.2382
   85SLPC   C32 8082   6.912   5.512   2.866 -0.7430 -0.3442 -0.3348
   85SLPC   H2X 8083   6.809   5.552   2.854 -0.2673  0.7596 -0.8961
   85SLPC   H2Y 8084   6.970   5.591   2.814 -0.2833  0.6968  1.6627
   85SLPC   C23 8085   6.480   5.356   2.925  0.0851 -0.4383  0.3232
   85SLPC   H3R 8086   6.398   5.431   2.932  0.8689  0.5987 -1.1181
   85SLPC   H3S 8087   6.558   5.405   2.863  0.1539  0.4661  1.1002
   85SLPC   C24 8088   6.526   5.337   3.069 -0.0687 -0.1499  0.1873
   85SLPC   H4R 8089   6.606   5.260   3.074 -0.3124 -0.3436  1.6909
   85SLPC   H4S 8090   6.447   5.300   3.139  0.8150  0.7946  1.7543
   85SLPC   C25 8091   6.570   5.477   3.115  0.2601 -0.4416 -0.4419
   85SLPC   H5R 8092   6.634   5.528   3.040  1.2471 -0.1158  0.5955
   85SLPC   H5S 8093   6.480   5.541   3.120  1.6172  1.5618 -0.5032
   85SLPC   C26 8094   6.647   5.481   3.247  0.2719  0.4029 -0.4988
   85SLPC   H6R 8095   6.689   5.580   3.277 -1.4855  1.7042 -2.1000
   85SLPC   H6S 8096   6.733   5.410   3.242 -0.6642 -0.9594  1.4658
   85SLPC   C27 8097   6.573   5.427   3.375  0.5398  0.3339  0.2500
   85SLPC   H7R 8098   6.529   5.326   3.356 -1.2647  0.7397  1.9109
   85SLPC   H7S 8099   6.481   5.487   3.393 -2.3664 -3.6691  0.2289
   85SLPC   C28 8100   6.656   5.429   3.503  0.5331 -0.6821 -0.0778
   85SLPC   H8R 8101   6.761   5.395   3.489  0.5487 -1.8572  2.3588
   85SLPC   H8S 8102   6.612   5.360   3.578  0.5132 -1.1833 -0.5437
   85SLPC   C29 8103   6.660   5.571   3.559  0.0950 -0.1401  0.4524
   85SLPC   H9R 8104   6.725   5.638   3.500 -0.7640  0.5159  0.2252
   85SLPC  C210 8105   6.620   5.608   3.681  0.4152  0.1718 -0.6091
   85SLPC  H10R 8106   6.619   5.711   3.718 -1.6261 -0.2604  0.6496
   85SLPC  C211 8107   6.546   5.521   3.776 -0.5064  0.4494  0.4259
   85SLPC  H11R 8108   6.487   5.449   3.716 -2.2162  2.8701 -0.9385
   85SLPC  H11S 8109   6.466   5.576   3.829 -0.2632  1.3259 -0.0938
   85SLPC  C212 8110   6.651   5.456   3.865 -0.2381 -0.6344 -0.2716
   85SLPC  H12R 8111   6.661   5.347   3.850 -0.1590 -0.5969 -0.4943
   85SLPC  C213 8112   6.722   5.517   3.960 -0.1387 -0.5162  0.0632
   85SLPC  H13R 8113   6.788   5.448   4.014 -2.1252 -1.8826  0.8780
   85SLPC  C214 8114   6.733   5.659   4.003 -0.1192  0.7216  0.1118
   85SLPC  H14R 8115   6.683   5.730   3.933  1.3193  0.5321 -1.1735
   85SLPC  H14S 8116   6.841   5.686   3.997  0.0429  0.0318 -0.1018
   85SLPC  C215 8117   6.682   5.682   4.148  0.2468 -0.8298 -0.5870
   85SLPC  H15R 8118   6.575   5.655   4.144  0.4296 -2.5496  2.7410
   85SLPC  H15S 8119   6.697   5.788   4.177 -1.6371 -0.3188 -1.3438
   85SLPC  C216 8120   6.751   5.601   4.256 -0.0007 -0.7009  0.2460
   85SLPC  H16R 8121   6.859   5.608   4.229 -0.2446  0.5762 -0.4778
   85SLPC  H16S 8122   6.718   5.496   4.250 -3.0982  0.2069  0.0282
   85SLPC  C217 8123   6.727   5.647   4.391  0.0823 -1.3532  0.0571
   85SLPC  H17R 8124   6.625   5.688   4.403  0.8804  0.3185  1.6859
   85SLPC  H17S 8125   6.788   5.740   4.399 -2.7892  0.7048 -0.2999
   85SLPC  C218 8126   6.759   5.550   4.506 -0.0874 -0.4562  0.4003
   85SLPC  H18R 8127   6.763   5.596   4.607 -2.0726 -2.8790  1.6793
   85SLPC  H18S 8128   6.861   5.510   4.487 -0.0784  0.8390 -2.8439
   85SLPC  H18T 8129   6.690   5.463   4.514  0.5340 -1.1531 -1.3038
   85SLPC   C33 8130   6.944   5.511   3.023 -0.2718  0.4706  1.5780
   85SLPC   H3X 8131   6.890   5.425   3.068 -2.0037 -1.5563 -3.6316
   85SLPC   H3Y 8132   6.910   5.611   3.058  0.9036  1.7266 -0.6098
   85SLPC   C34 8133   7.097   5.505   3.054  0.1779 -0.3768  0.0574
   85SLPC   H4X 8134   7.146   5.584   2.994 -1.6222  0.9537  0.2524
   85SLPC   H4Y 8135   7.133   5.413   3.003 -0.3396 -1.0269  0.8377
   85SLPC   C35 8136   7.138   5.492   3.200  0.0878 -0.0577  1.5946
   85SLPC   H5X 8137   7.231   5.432   3.207  0.4942  0.6467  2.5746
   85SLPC   H5Y 8138   7.052   5.444   3.250 -1.3466  1.9050  1.1472
   85SLPC   C36 8139   7.171   5.634   3.254  0.4898  0.2516  0.1314
   85SLPC   H6X 8140   7.083   5.699   3.234 -0.1553 -0.8594 -0.7221
   85SLPC   H6Y 8141   7.259   5.679   3.204  1.1349 -1.3841 -0.2563
   85SLPC   C37 8142   7.186   5.636   3.405 -0.3299 -0.2470  0.1750
   85SLPC   H7X 8143   7.199   5.742   3.436 -1.5021 -0.7123  2.4688
   85SLPC   H7Y 8144   7.283   5.586   3.427  2.4784  4.8040  0.9027
   85SLPC   C38 8145   7.062   5.589   3.488  0.5329 -0.3012 -0.1552
   85SLPC   H8X 8146   7.060   5.480   3.471  0.0055 -0.4008  0.5199
   85SLPC   H8Y 8147   6.978   5.643   3.439  0.9813 -0.6510 -1.3417
   85SLPC   C39 8148   7.039   5.624   3.634  0.4125 -0.1832 -0.1853
   85SLPC   H9X 8149   6.945   5.576   3.671 -0.7072  2.7162  1.0647
   85SLPC   H9Y 8150   7.039   5.735   3.644 -0.4238 -0.3243  1.7861
   85SLPC  C310 8151   7.165   5.578   3.712  0.7105  0.3074  0.2857
   85SLPC  H10X 8152   7.248   5.647   3.688  1.2508  0.1492  1.5928
   85SLPC  H10Y 8153   7.197   5.473   3.694 -2.8517 -1.6102  3.6376
   85SLPC  C311 8154   7.135   5.579   3.865 -0.2045 -0.0771  0.7047
   85SLPC  H11X 8155   7.048   5.514   3.890  2.5649 -3.3462  2.5551
   85SLPC  H11Y 8156   7.133   5.686   3.895  2.9234  0.9085 -2.0398
   85SLPC  C312 8157   7.251   5.512   3.953 -0.3881 -0.0744 -0.2258
   85SLPC  H12X 8158   7.350   5.546   3.917  0.8548 -1.6536  1.4794
   85SLPC  H12Y 8159   7.248   5.403   3.933  0.2552  0.0845 -1.2347
   85SLPC  C313 8160   7.240   5.559   4.104  0.7728  0.1380 -0.4588
   85SLPC  H13X 8161   7.131   5.573   4.121  0.0322 -1.7454 -3.0089
   85SLPC  H13Y 8162   7.296   5.655   4.108  2.9415 -0.9896 -1.7892
   85SLPC  C314 8163   7.294   5.452   4.201  0.2004  0.0982  0.1519
   85SLPC  H14X 8164   7.405   5.455   4.197  0.3027 -0.5467  1.6355
   85SLPC  H14Y 8165   7.260   5.351   4.169 -0.4372  0.0115  1.0818
   85SLPC  C315 8166   7.255   5.478   4.350  0.8102 -0.1897 -0.4693
   85SLPC  H15X 8167   7.146   5.460   4.362  0.4790  2.1290  0.5562
   85SLPC  H15Y 8168   7.284   5.580   4.382  2.0303 -0.3145 -1.1312
   85SLPC  C316 8169   7.327   5.391   4.450 -0.7163  0.5244 -0.5335
   85SLPC  H16X 8170   7.435   5.387   4.426 -0.8549 -1.5535 -1.0090
   85SLPC  H16Y 8171   7.289   5.287   4.449  0.5159 -0.1666  4.0132
   85SLPC  C317 8172   7.313   5.440   4.594  0.0592  1.4067  0.9152
   85SLPC  H17X 8173   7.328   5.354   4.662 -1.8948  0.0234 -0.2811
   85SLPC  H17Y 8174   7.214   5.469   4.636  0.6560  2.1044  1.8837
   85SLPC  C318 8175   7.406   5.558   4.614  0.4799 -0.0219 -0.0027
   85SLPC  H18X 8176   7.348   5.653   4.614 -2.8750 -1.8900  1.9677
   85SLPC  H18Y 8177   7.490   5.562   4.542  1.5235 -1.2572  1.0772
   85SLPC  H18Z 8178   7.453   5.561   4.715  1.6518  0.0902 -0.5297
   86SLPC     N 8179   0.420   3.139   1.903  0.1832  0.3196 -0.1844
   86SLPC   C13 8180   0.494   3.051   1.812 -0.0333 -0.5397 -0.6678
   86SLPC  H13A 8181   0.424   3.023   1.734 -1.0149  1.4543 -0.5622
   86SLPC  H13B 8182   0.567   3.114   1.763 -0.8802 -0.0665 -1.3561
   86SLPC  H13C 8183   0.530   2.969   1.872  0.0572  1.0181  1.5129
   86SLPC   C14 8184   0.283   3.087   1.933 -1.0265 -0.4750  0.9329
   86SLPC  H14A 8185   0.216   3.093   1.849 -1.1335 -0.3341  1.0288
   86SLPC  H14B 8186   0.292   2.982   1.958  1.3664 -1.2899 -2.5711
   86SLPC  H14C 8187   0.243   3.151   2.010 -2.4236 -0.5589  0.2952
   86SLPC   C15 8188   0.401   3.272   1.825 -0.4744  1.2434 -0.4373
   86SLPC  H15A 8189   0.346   3.341   1.887 -2.5823  0.1845 -1.0538
   86SLPC  H15B 8190   0.499   3.313   1.807  0.4736 -0.0297  1.5334
   86SLPC  H15C 8191   0.348   3.257   1.732 -0.9976  1.4311 -0.1702
   86SLPC   C12 8192   0.503   3.166   2.027  0.3288  0.0403  0.1183
   86SLPC  H12A 8193   0.437   3.177   2.112  0.4908 -1.8787  0.5448
   86SLPC  H12B 8194   0.540   3.266   2.014 -3.0030  1.0786 -3.0832
   86SLPC   C11 8195   0.612   3.070   2.069 -0.1205  0.2723  0.2432
   86SLPC  H11A 8196   0.672   3.099   2.158 -1.2351  0.3821  0.9828
   86SLPC  H11B 8197   0.682   3.067   1.982 -2.4857  1.6280 -1.8538
   86SLPC     P 8198   0.511   2.871   2.213 -0.5661 -0.4505 -0.0626
   86SLPC   O13 8199   0.375   2.818   2.193 -0.2043 -0.5434  0.2962
   86SLPC   O14 8200   0.608   2.773   2.244  1.1018 -0.6111  0.0465
   86SLPC   O12 8201   0.561   2.938   2.084 -0.1509 -0.4050  0.0606
   86SLPC   O11 8202   0.525   2.976   2.325  0.0862 -0.5526 -0.4130
   86SLPC    C1 8203   0.642   2.993   2.402 -0.2624 -0.4568 -0.3784
   86SLPC    HA 8204   0.741   2.989   2.352  0.9949  1.5697  1.7780
   86SLPC    HB 8205   0.633   3.095   2.444 -1.6195  0.3186 -2.3828
   86SLPC    C2 8206   0.640   2.910   2.528 -0.2984  0.4291 -0.0588
   86SLPC    HS 8207   0.609   2.808   2.497  0.3464 -0.1789  1.2073
   86SLPC   O21 8208   0.565   2.964   2.640 -0.9207 -0.5648 -0.1119
   86SLPC   C21 8209   0.506   2.869   2.716 -0.2484  0.0956  0.1098
   86SLPC   O22 8210   0.506   2.750   2.691  0.0326  0.2335 -0.3810
   86SLPC   C22 8211   0.445   2.935   2.834 -0.1278  0.5348 -0.7091
   86SLPC   H2R 8212   0.521   2.971   2.906 -0.9014  1.3161 -0.2761
   86SLPC   H2S 8213   0.390   3.020   2.790 -1.5510 -1.0096 -2.0566
   86SLPC    C3 8214   0.789   2.890   2.577  0.1953 -0.6841 -0.0377
   86SLPC    HX 8215   0.843   2.986   2.562  2.5044 -2.2576 -2.7796
   86SLPC    HY 8216   0.838   2.810   2.518 -2.2466 -0.2574 -2.9110
   86SLPC   O31 8217   0.794   2.853   2.719 -0.2016 -0.3690  0.6755
   86SLPC   C31 8218   0.915   2.860   2.773 -0.0472  0.1939 -0.1509
   86SLPC   O32 8219   1.018   2.889   2.704  0.4989 -0.1711  0.3279
   86SLPC   C32 8220   0.901   2.842   2.925 -0.1581 -0.3248  0.1097
   86SLPC   H2X 8221   0.920   2.941   2.972  2.6717 -1.3347  1.2913
   86SLPC   H2Y 8222   0.992   2.792   2.965 -0.6543 -1.8708 -0.6256
   86SLPC   C23 8223   0.336   2.858   2.909 -0.3623 -0.5919  0.1952
   86SLPC   H3R 8224   0.376   2.779   2.975  0.3881 -1.2300 -0.9868
   86SLPC   H3S 8225   0.267   2.809   2.837 -2.3504 -0.2145  1.7758
   86SLPC   C24 8226   0.240   2.949   2.989 -0.2584  0.4023  0.1596
   86SLPC   H4R 8227   0.162   2.891   3.041  0.0313 -1.6415 -1.5525
   86SLPC   H4S 8228   0.186   3.012   2.915  1.5699 -1.7484 -3.2939
   86SLPC   C25 8229   0.306   3.040   3.097 -0.1695  0.3067 -0.2426
   86SLPC   H5R 8230   0.345   3.115   3.024  2.7040 -0.6044  0.2148
   86SLPC   H5S 8231   0.382   2.981   3.153  1.2078  0.5116 -1.8128
   86SLPC   C26 8232   0.212   3.113   3.201 -0.5983  0.1922  0.8500
   86SLPC   H6R 8233   0.136   3.159   3.135 -1.1117 -0.7788  0.7489
   86SLPC   H6S 8234   0.277   3.193   3.243 -0.2088 -0.8799  2.3909
   86SLPC   C27 8235   0.148   3.025   3.313 -0.0285  0.2020  0.8829
   86SLPC   H7R 8236   0.233   2.977   3.367  1.5182 -0.3260 -1.8119
   86SLPC   H7S 8237   0.090   2.943   3.266 -2.5532  2.2920  0.1105
   86SLPC   C28 8238   0.077   3.108   3.418 -0.3243 -0.0991 -0.2973
   86SLPC   H8R 8239  -0.020   3.152   3.385 -0.1424  0.3040 -0.3009
   86SLPC   H8S 8240   0.138   3.194   3.453 -0.3964 -0.4341  0.6925
   86SLPC   C29 8241   0.047   3.025   3.539  0.6019 -0.8821 -0.5481
   86SLPC   H9R 8242   0.068   2.917   3.531  1.0031 -0.7405 -1.5544
   86SLPC  C210 8243   0.014   3.079   3.659  0.1336 -0.3661 -0.1905
   86SLPC  H10R 8244   0.012   3.015   3.749  2.9373 -0.2839  0.0413
   86SLPC  C211 8245  -0.018   3.220   3.694  0.2977 -0.3688  0.2071
   86SLPC  H11R 8246  -0.122   3.254   3.680  1.5742  2.6750 -4.0217
   86SLPC  H11S 8247   0.039   3.289   3.628 -0.9863  1.1642  0.6428
   86SLPC  C212 8248   0.024   3.255   3.836  0.3195 -0.5399 -0.7979
   86SLPC  H12R 8249   0.130   3.228   3.852  0.4533  0.0045 -0.7372
   86SLPC  C213 8250  -0.054   3.297   3.942  0.1337 -0.2364 -0.1659
   86SLPC  H13R 8251  -0.002   3.297   4.039 -0.4232  0.2389  0.1382
   86SLPC  C214 8252  -0.202   3.328   3.946  0.5221 -0.2956  0.2844
   86SLPC  H14R 8253  -0.243   3.346   3.845  2.1972 -0.9772 -0.5641
   86SLPC  H14S 8254  -0.236   3.412   4.011  1.1866  0.1657  0.0449
   86SLPC  C215 8255  -0.293   3.218   4.008  0.7343  0.0421 -0.1943
   86SLPC  H15R 8256  -0.286   3.130   3.940 -1.4636  0.6050 -1.2520
   86SLPC  H15S 8257  -0.403   3.236   4.000  0.5006 -1.7378 -2.0870
   86SLPC  C216 8258  -0.254   3.188   4.148 -0.0495 -0.7307 -0.1838
   86SLPC  H16R 8259  -0.223   3.280   4.202  2.8656 -1.2174 -0.8239
   86SLPC  H16S 8260  -0.173   3.112   4.145 -2.3253 -3.5121  2.6922
   86SLPC  C217 8261  -0.365   3.124   4.230  1.1620 -0.2598 -0.3453
   86SLPC  H17R 8262  -0.318   3.083   4.321  3.7175  1.5885 -0.7054
   86SLPC  H17S 8263  -0.418   3.047   4.171  0.7911  0.3079 -0.7691
   86SLPC  C218 8264  -0.479   3.214   4.287 -0.9776  0.7203 -0.5449
   86SLPC  H18R 8265  -0.544   3.167   4.364  0.1914  0.0562  0.0597
   86SLPC  H18S 8266  -0.554   3.225   4.206 -0.0790 -0.6383 -1.6169
   86SLPC  H18T 8267  -0.437   3.310   4.322  0.8512  0.0836 -0.8823
   86SLPC   C33 8268   0.765   2.789   2.984  0.3918  0.0478  0.2583
   86SLPC   H3X 8269   0.733   2.688   2.951 -1.6402  0.5544  0.5138
   86SLPC   H3Y 8270   0.702   2.875   2.953  1.5146  1.0648  0.7129
   86SLPC   C34 8271   0.765   2.780   3.141 -0.1551  0.5395  0.1149
   86SLPC   H4X 8272   0.813   2.866   3.191  1.6113  0.3640 -1.1701
   86SLPC   H4Y 8273   0.833   2.694   3.160 -2.4811 -1.8511 -1.5037
   86SLPC   C35 8274   0.619   2.762   3.191 -0.8883  0.0009 -0.5390
   86SLPC   H5X 8275   0.578   2.673   3.138  2.5719 -1.8718 -0.4148
   86SLPC   H5Y 8276   0.560   2.849   3.156  1.5054  1.9961  0.0756
   86SLPC   C36 8277   0.599   2.736   3.348  0.2613 -0.3201  0.1763
   86SLPC   H6X 8278   0.661   2.806   3.408  1.7601 -0.9854 -0.5416
   86SLPC   H6Y 8279   0.634   2.632   3.362  0.9744 -0.4056 -1.9615
   86SLPC   C37 8280   0.453   2.751   3.383 -0.5751  0.5836 -0.3440
   86SLPC   H7X 8281   0.406   2.658   3.344 -1.1946 -0.0009  1.6706
   86SLPC   H7Y 8282   0.413   2.829   3.314  0.3887  0.7275 -0.7463
   86SLPC   C38 8283   0.408   2.781   3.528  0.1451  0.9414  0.6319
   86SLPC   H8X 8284   0.297   2.781   3.524  0.0487 -2.2803  1.0024
   86SLPC   H8Y 8285   0.449   2.880   3.558  2.2995  1.0733 -2.3265
   86SLPC   C39 8286   0.469   2.683   3.639  0.1583 -0.2630 -0.3091
   86SLPC   H9X 8287   0.577   2.708   3.649 -0.5460  2.2988  2.2004
   86SLPC   H9Y 8288   0.459   2.582   3.596  1.0425 -0.2441 -0.5865
   86SLPC  C310 8289   0.402   2.701   3.782  0.3939 -0.2853 -0.0960
   86SLPC  H10X 8290   0.295   2.673   3.768 -0.1263  1.6857 -0.4073
   86SLPC  H10Y 8291   0.404   2.805   3.821  1.8855 -0.0727 -0.6624
   86SLPC  C311 8292   0.458   2.600   3.890 -0.0263 -0.5041  0.5619
   86SLPC  H11X 8293   0.563   2.619   3.923 -0.0770  0.6932  0.0836
   86SLPC  H11Y 8294   0.474   2.507   3.831 -0.0185  0.8297 -1.6817
   86SLPC  C312 8295   0.364   2.583   4.001 -0.2781  0.6823  0.3497
   86SLPC  H12X 8296   0.279   2.514   3.984 -0.8171  1.5539 -0.5838
   86SLPC  H12Y 8297   0.326   2.681   4.035 -1.8640 -0.8454  3.3783
   86SLPC  C313 8298   0.431   2.535   4.122 -0.4850 -0.2873 -0.1447
   86SLPC  H13X 8299   0.528   2.585   4.144 -1.5522  1.4543  0.8628
   86SLPC  H13Y 8300   0.453   2.426   4.116  2.5901  0.2347  0.0646
   86SLPC  C314 8301   0.349   2.554   4.252 -0.1040  0.3539  0.4682
   86SLPC  H14X 8302   0.388   2.488   4.333  0.7213 -0.5657 -0.6384
   86SLPC  H14Y 8303   0.243   2.525   4.234  0.1139 -0.4594  0.4277
   86SLPC  C315 8304   0.348   2.700   4.295 -0.3369 -0.3588  0.3648
   86SLPC  H15X 8305   0.286   2.693   4.387  2.4216  0.4068  2.4123
   86SLPC  H15Y 8306   0.289   2.766   4.228 -0.0216 -0.5211 -0.0705
   86SLPC  C316 8307   0.479   2.746   4.353  0.7940  0.6241 -0.2287
   86SLPC  H16X 8308   0.557   2.764   4.275  2.1365 -3.7947 -0.2029
   86SLPC  H16Y 8309   0.521   2.670   4.423  1.1601 -0.4233 -1.5381
   86SLPC  C317 8310   0.446   2.873   4.437  0.0404  0.1821  0.6936
   86SLPC  H17X 8311   0.359   2.857   4.504 -1.0436  0.7226 -0.5531
   86SLPC  H17Y 8312   0.409   2.953   4.371 -2.0266 -0.6121  0.8258
   86SLPC  C318 8313   0.568   2.921   4.521  0.2763 -0.2488 -1.0198
   86SLPC  H18X 8314   0.532   2.997   4.594 -1.3403 -1.1373 -0.8489
   86SLPC  H18Y 8315   0.650   2.950   4.452 -0.2899 -0.2396 -1.7057
   86SLPC  H18Z 8316   0.610   2.844   4.590 -2.5404  0.0843  1.2527
   87SLPC     N 8317   6.248   2.093   1.945 -0.0218 -0.3924 -0.7822
   87SLPC   C13 8318   6.322   2.196   1.864 -0.1577 -0.7549 -0.1270
   87SLPC  H13A 8319   6.287   2.296   1.885  0.3851 -0.7400  0.7716
   87SLPC  H13B 8320   6.428   2.201   1.888 -0.2874  1.0285  0.2162
   87SLPC  H13C 8321   6.329   2.166   1.761  0.5167 -3.1990  0.5679
   87SLPC   C14 8322   6.120   2.094   1.884 -0.4080  0.6476 -0.3400
   87SLPC  H14A 8323   6.125   2.064   1.780 -0.6773 -1.6304  0.2378
   87SLPC  H14B 8324   6.059   2.021   1.934  2.7181 -0.4696  2.1681
   87SLPC  H14C 8325   6.075   2.192   1.888  0.2156  0.8865  1.1644
   87SLPC   C15 8326   6.242   2.133   2.096  0.0745 -0.0632  0.4024
   87SLPC  H15A 8327   6.193   2.053   2.150 -0.8718  0.6767  0.6700
   87SLPC  H15B 8328   6.341   2.153   2.133  0.1760  0.7531 -0.2633
   87SLPC  H15C 8329   6.178   2.219   2.106  1.0815  0.4990  2.4977
   87SLPC   C12 8330   6.320   1.962   1.949 -0.4863 -0.5358  0.1730
   87SLPC  H12A 8331   6.405   1.977   2.015 -1.4340 -0.3815  1.3783
   87SLPC  H12B 8332   6.363   1.939   1.852  2.1192  1.1509  0.8259
   87SLPC   C11 8333   6.241   1.840   2.002 -0.4660 -0.1336  0.0779
   87SLPC  H11A 8334   6.313   1.758   1.983  1.2593  1.5354 -1.0342
   87SLPC  H11B 8335   6.147   1.828   1.944 -0.3575 -2.2209  0.2800
   87SLPC     P 8336   6.118   1.773   2.222 -0.0275  0.2072  0.0463
   87SLPC   O13 8337   6.107   1.641   2.162  0.1154  0.0720 -0.0656
   87SLPC   O14 8338   6.168   1.783   2.364 -0.0687  0.3189 -0.0191
   87SLPC   O12 8339   6.214   1.860   2.138 -0.0076  0.1915 -0.2682
   87SLPC   O11 8340   5.983   1.856   2.195 -0.5190  0.5255 -0.1530
   87SLPC    C1 8341   5.854   1.814   2.242 -0.4608  0.0355  0.0354
   87SLPC    HA 8342   5.777   1.876   2.191 -1.4643 -0.8401  0.4639
   87SLPC    HB 8343   5.840   1.705   2.231 -0.1273  0.1365 -1.8892
   87SLPC    C2 8344   5.828   1.836   2.390 -1.0677  0.0533 -0.3770
   87SLPC    HS 8345   5.870   1.935   2.420 -0.0506 -0.5797  0.3589
   87SLPC   O21 8346   5.891   1.731   2.474 -0.6002 -0.1434  0.2671
   87SLPC   C21 8347   5.940   1.773   2.586  0.0662  0.0865 -0.8518
   87SLPC   O22 8348   5.935   1.891   2.628  0.1340  0.7848  0.0907
   87SLPC   C22 8349   5.976   1.652   2.671  0.5488  0.2450 -0.3977
   87SLPC   H2R 8350   5.895   1.576   2.671  1.7243 -1.2841  3.4458
   87SLPC   H2S 8351   6.069   1.603   2.633  1.0651 -1.2297  2.5137
   87SLPC    C3 8352   5.674   1.838   2.417 -0.1129  0.2722 -0.3520
   87SLPC    HX 8353   5.644   1.734   2.392 -2.1676  0.1037  2.3181
   87SLPC    HY 8354   5.632   1.900   2.336  1.1695  2.3619  0.5085
   87SLPC   O31 8355   5.628   1.862   2.547 -0.1844 -0.1717  0.2686
   87SLPC   C31 8356   5.613   1.985   2.582  0.2034 -1.2636  0.4438
   87SLPC   O32 8357   5.623   2.090   2.509 -0.3937  0.6555  0.0115
   87SLPC   C32 8358   5.584   1.987   2.737 -0.3197 -0.5729  0.1273
   87SLPC   H2X 8359   5.683   1.976   2.786 -0.2462 -3.6172 -0.5228
   87SLPC   H2Y 8360   5.520   1.898   2.754 -1.0694 -0.2939 -1.1260
   87SLPC   C23 8361   5.984   1.700   2.818  0.3588 -0.3223 -0.6277
   87SLPC   H3R 8362   5.890   1.743   2.858  1.3221  0.1964  1.1884
   87SLPC   H3S 8363   6.064   1.777   2.820  0.7071 -0.6861  1.3922
   87SLPC   C24 8364   6.040   1.589   2.911 -1.0042  0.0476  0.0748
   87SLPC   H4R 8365   6.122   1.546   2.850  0.1207  0.6546  1.1038
   87SLPC   H4S 8366   5.971   1.508   2.942 -0.6459 -0.2535  0.0964
   87SLPC   C25 8367   6.105   1.639   3.042 -0.5160 -0.1000 -0.0900
   87SLPC   H5R 8368   6.039   1.669   3.125  0.4989 -0.6292  0.9429
   87SLPC   H5S 8369   6.172   1.724   3.019  2.3935 -2.5052 -1.2775
   87SLPC   C26 8370   6.207   1.533   3.094 -0.7090 -0.2697 -0.5725
   87SLPC   H6R 8371   6.269   1.503   3.006 -1.3166 -1.6427 -0.5663
   87SLPC   H6S 8372   6.143   1.447   3.125  0.3126 -1.5919 -1.9228
   87SLPC   C27 8373   6.297   1.585   3.208 -0.1558 -0.3132  1.1475
   87SLPC   H7R 8374   6.343   1.682   3.180 -0.7937  0.3666  2.3362
   87SLPC   H7S 8375   6.382   1.516   3.226  2.1989  2.0207 -0.4030
   87SLPC   C28 8376   6.222   1.608   3.343 -0.5054  0.1671 -0.0242
   87SLPC   H8R 8377   6.129   1.665   3.323 -0.9697  0.3838  2.4450
   87SLPC   H8S 8378   6.295   1.667   3.403 -3.0493  1.5741  1.8529
   87SLPC   C29 8379   6.188   1.470   3.399 -0.6049  0.0017  0.3979
   87SLPC   H9R 8380   6.208   1.382   3.337  1.6574 -0.5171  1.7534
   87SLPC  C210 8381   6.174   1.447   3.531  0.2738 -0.0058  0.4877
   87SLPC  H10R 8382   6.138   1.347   3.561 -0.8530  0.1056 -0.4289
   87SLPC  C211 8383   6.185   1.548   3.647  0.4158  0.1783  0.3719
   87SLPC  H11R 8384   6.084   1.561   3.693 -0.3127  3.3160 -1.7556
   87SLPC  H11S 8385   6.198   1.646   3.595 -1.2910 -1.0773 -2.7056
   87SLPC  C212 8386   6.296   1.512   3.737 -1.1922  0.3854 -0.2767
   87SLPC  H12R 8387   6.390   1.526   3.683 -1.6897  1.8189 -0.7981
   87SLPC  C213 8388   6.302   1.497   3.871 -0.4812 -0.8232  0.0146
   87SLPC  H13R 8389   6.395   1.469   3.924  0.0603  1.6110  0.4498
   87SLPC  C214 8390   6.195   1.517   3.966  0.2388  0.0482  0.3747
   87SLPC  H14R 8391   6.152   1.421   4.003  0.8214 -0.0871  0.7198
   87SLPC  H14S 8392   6.110   1.564   3.913  0.8352  1.8835  0.9516
   87SLPC  C215 8393   6.231   1.612   4.081 -0.2864  0.8025  0.1015
   87SLPC  H15R 8394   6.265   1.711   4.044  0.8410  0.5488  0.4351
   87SLPC  H15S 8395   6.319   1.558   4.122 -0.7220 -2.4426 -2.8196
   87SLPC  C216 8396   6.120   1.626   4.180  0.2725  0.5064 -0.0457
   87SLPC  H16R 8397   6.100   1.526   4.224 -1.4159 -0.0128 -1.8466
   87SLPC  H16S 8398   6.022   1.660   4.141 -1.3373 -2.8651  0.7552
   87SLPC  C217 8399   6.159   1.709   4.304 -0.4079 -0.6173  0.6667
   87SLPC  H17R 8400   6.072   1.697   4.372  0.3633 -0.3356  1.7370
   87SLPC  H17S 8401   6.181   1.814   4.275 -0.4696 -0.7078  0.2800
   87SLPC  C218 8402   6.280   1.650   4.388  0.5469 -0.7529 -0.4435
   87SLPC  H18R 8403   6.287   1.681   4.494 -0.2016 -3.2992  0.4220
   87SLPC  H18S 8404   6.379   1.675   4.344  1.4905 -0.5702  1.6670
   87SLPC  H18T 8405   6.269   1.540   4.398  0.4307 -0.8466 -1.4819
   87SLPC   C33 8406   5.524   2.121   2.790  0.1243 -0.8441  0.1719
   87SLPC   H3X 8407   5.416   2.133   2.767  0.2301 -0.0646  0.0469
   87SLPC   H3Y 8408   5.568   2.196   2.721 -1.1909 -1.9649 -1.9941
   87SLPC   C34 8409   5.558   2.138   2.935 -0.4889 -0.2783  0.2524
   87SLPC   H4X 8410   5.667   2.156   2.941 -0.6721  0.8916  0.2848
   87SLPC   H4Y 8411   5.535   2.047   2.994  0.0900  0.4153  1.5794
   87SLPC   C35 8412   5.479   2.256   3.001 -0.3374  0.2819 -0.6583
   87SLPC   H5X 8413   5.380   2.223   3.041 -0.0968 -0.0943 -0.3679
   87SLPC   H5Y 8414   5.462   2.326   2.917 -1.9557  0.7879  0.0531
   87SLPC   C36 8415   5.558   2.324   3.118 -0.2795 -0.1452 -0.0476
   87SLPC   H6X 8416   5.489   2.397   3.166  0.3154  0.6400 -0.3490
   87SLPC   H6Y 8417   5.631   2.390   3.067 -0.8553  2.1217  1.8549
   87SLPC   C37 8418   5.623   2.219   3.212 -0.0102 -1.0154 -0.1378
   87SLPC   H7X 8419   5.720   2.192   3.165  1.2923  1.1652  1.1170
   87SLPC   H7Y 8420   5.558   2.130   3.217 -0.0670 -0.9474  0.3852
   87SLPC   C38 8421   5.632   2.272   3.361  0.4964 -0.2679  0.2332
   87SLPC   H8X 8422   5.682   2.206   3.435  0.4649 -0.1610  0.3504
   87SLPC   H8Y 8423   5.523   2.274   3.383  0.0596 -0.3790 -1.6924
   87SLPC   C39 8424   5.707   2.404   3.380 -0.0359 -0.0246 -0.6850
   87SLPC   H9X 8425   5.659   2.482   3.316 -1.1694  0.6989  0.9869
   87SLPC   H9Y 8426   5.809   2.382   3.344 -0.5231 -1.5707 -1.1824
   87SLPC  C310 8427   5.700   2.435   3.533 -0.0752  0.2707  0.5583
   87SLPC  H10X 8428   5.782   2.506   3.555  0.0545  1.3057 -2.7720
   87SLPC  H10Y 8429   5.717   2.335   3.580  2.2279 -0.0102 -0.7437
   87SLPC  C311 8430   5.565   2.487   3.574  0.2478  0.2382  0.5516
   87SLPC  H11X 8431   5.491   2.405   3.562  0.8557 -0.1949 -0.2837
   87SLPC  H11Y 8432   5.536   2.574   3.513 -2.0130 -1.4714 -0.9972
   87SLPC  C312 8433   5.560   2.536   3.720  0.3493 -0.2501 -0.3736
   87SLPC  H12X 8434   5.595   2.450   3.780 -1.8556 -1.1795 -0.3399
   87SLPC  H12Y 8435   5.452   2.547   3.744  0.4407 -0.1507  0.0077
   87SLPC  C313 8436   5.636   2.662   3.748  0.2193  0.0400 -0.0028
   87SLPC  H13X 8437   5.613   2.737   3.669  2.8016  1.1012  0.1473
   87SLPC  H13Y 8438   5.745   2.643   3.739  0.5954  1.7268  0.5758
   87SLPC  C314 8439   5.619   2.718   3.890  0.2304 -1.0450  0.0952
   87SLPC  H14X 8440   5.513   2.751   3.898  0.2872 -1.0844  1.1494
   87SLPC  H14Y 8441   5.688   2.805   3.894  1.0236 -1.6546 -0.0901
   87SLPC  C315 8442   5.656   2.618   4.001  0.0950  0.0690 -0.0037
   87SLPC  H15X 8443   5.577   2.541   4.017 -1.0884  0.8908 -1.5810
   87SLPC  H15Y 8444   5.667   2.680   4.092  1.2284  3.2297 -2.1395
   87SLPC  C316 8445   5.792   2.540   3.993 -0.2649  0.0309 -0.0180
   87SLPC  H16X 8446   5.871   2.606   3.950  1.3574  0.4587  3.3057
   87SLPC  H16Y 8447   5.781   2.451   3.928  0.1984 -1.0858  1.3772
   87SLPC  C317 8448   5.844   2.510   4.136  0.0909 -0.7283  0.5534
   87SLPC  H17X 8449   5.950   2.485   4.115  0.3278  1.8639 -1.8356
   87SLPC  H17Y 8450   5.783   2.427   4.176  0.8508 -1.1483  0.8620
   87SLPC  C318 8451   5.854   2.622   4.243  1.1350 -0.0058 -0.5555
   87SLPC  H18X 8452   5.757   2.664   4.278  2.0133  0.1583  1.9448
   87SLPC  H18Y 8453   5.902   2.717   4.212  0.2789  1.6101  2.6109
   87SLPC  H18Z 8454   5.899   2.587   4.339 -1.1445 -0.2534  0.5013
   88SLPC     N 8455   0.137   2.560   1.793 -0.6665 -0.2339 -0.5975
   88SLPC   C13 8456   0.160   2.465   1.905  0.1528 -0.1642 -0.5686
   88SLPC  H13A 8457   0.113   2.503   1.994  2.2088  1.1696 -0.0110
   88SLPC  H13B 8458   0.119   2.367   1.884  0.8379 -0.3681 -0.9600
   88SLPC  H13C 8459   0.262   2.436   1.924 -0.3364 -1.2637  0.5171
   88SLPC   C14 8460   0.006   2.535   1.719  0.1240 -0.1772  0.1597
   88SLPC  H14A 8461  -0.076   2.537   1.789  1.0294 -2.1112  1.3902
   88SLPC  H14B 8462  -0.004   2.610   1.642  2.8782 -0.8774 -1.0073
   88SLPC  H14C 8463   0.009   2.437   1.674 -1.7917  1.6713 -4.6294
   88SLPC   C15 8464   0.249   2.543   1.687  0.1672  0.1650 -1.2446
   88SLPC  H15A 8465   0.252   2.625   1.617  0.4499  1.5793  0.3571
   88SLPC  H15B 8466   0.349   2.553   1.725 -0.3354 -0.7231  0.3926
   88SLPC  H15C 8467   0.245   2.449   1.633 -0.1607 -0.9859  0.6746
   88SLPC   C12 8468   0.147   2.699   1.833 -0.1430  0.0010  0.3089
   88SLPC  H12A 8469   0.142   2.767   1.750  2.3514  0.1297  0.1856
   88SLPC  H12B 8470   0.247   2.707   1.873 -1.1725  2.0192  2.7874
   88SLPC   C11 8471   0.057   2.742   1.953  0.1167  0.5431 -0.3207
   88SLPC  H11A 8472   0.072   2.850   1.971 -0.2437  0.2353  2.1862
   88SLPC  H11B 8473   0.083   2.696   2.052  0.5335  0.3353 -0.5241
   88SLPC     P 8474  -0.189   2.658   2.018 -0.0088  0.2289 -0.2168
   88SLPC   O13 8475  -0.317   2.653   1.943  0.4482  0.1078 -0.2046
   88SLPC   O14 8476  -0.146   2.524   2.075  0.0071 -0.4498  0.7239
   88SLPC   O12 8477  -0.077   2.715   1.926  0.8732  0.3210 -0.0778
   88SLPC   O11 8478  -0.183   2.776   2.125  0.3951  0.2912 -0.0916
   88SLPC    C1 8479  -0.118   2.768   2.254 -0.2655 -0.6172 -0.0252
   88SLPC    HA 8480  -0.015   2.729   2.251  0.2222  0.4021  1.6726
   88SLPC    HB 8481  -0.111   2.867   2.305  0.4840 -0.5801 -0.1960
   88SLPC    C2 8482  -0.189   2.672   2.357 -0.3259  0.3073 -0.2843
   88SLPC    HS 8483  -0.196   2.570   2.313  0.3533  0.4796 -0.8116
   88SLPC   O21 8484  -0.318   2.737   2.383 -0.0970 -0.1212  0.0099
   88SLPC   C21 8485  -0.421   2.657   2.360  0.2787  0.2485  0.9690
   88SLPC   O22 8486  -0.415   2.541   2.317  1.0108 -0.1747 -0.2920
   88SLPC   C22 8487  -0.549   2.725   2.398  0.1171 -0.3910 -0.4129
   88SLPC   H2R 8488  -0.523   2.829   2.426 -0.2740  0.5779 -3.2562
   88SLPC   H2S 8489  -0.603   2.739   2.302 -0.0722  0.8948 -0.1428
   88SLPC    C3 8490  -0.099   2.661   2.488 -0.0994 -0.4923  0.1631
   88SLPC    HX 8491  -0.094   2.765   2.528  1.4032 -0.0136 -1.1588
   88SLPC    HY 8492   0.002   2.628   2.457 -0.9338 -0.7411 -2.6256
   88SLPC   O31 8493  -0.151   2.571   2.577  0.2010 -0.1414  0.1129
   88SLPC   C31 8494  -0.107   2.575   2.704 -0.4089  0.4940 -0.7745
   88SLPC   O32 8495  -0.003   2.639   2.731  0.0775 -0.2184 -0.1444
   88SLPC   C32 8496  -0.184   2.487   2.790 -0.1158  0.8970 -0.4575
   88SLPC   H2X 8497  -0.254   2.534   2.862 -1.0072 -2.5161  1.1255
   88SLPC   H2Y 8498  -0.111   2.452   2.866 -0.5146 -0.6117 -0.7385
   88SLPC   C23 8499  -0.620   2.645   2.513 -0.4385  0.0620 -0.4447
   88SLPC   H3R 8500  -0.626   2.538   2.485 -4.5086  0.5594 -2.1301
   88SLPC   H3S 8501  -0.721   2.678   2.545 -0.0059  2.6947 -1.5515
   88SLPC   C24 8502  -0.545   2.649   2.648  0.1792 -0.0380 -0.6231
   88SLPC   H4R 8503  -0.521   2.751   2.682  2.1030 -1.1427  1.6025
   88SLPC   H4S 8504  -0.446   2.599   2.638 -0.1185 -0.9185  0.5875
   88SLPC   C25 8505  -0.616   2.568   2.758 -0.3719 -1.0735 -0.2517
   88SLPC   H5R 8506  -0.623   2.462   2.725 -0.2375 -1.1091 -0.1675
   88SLPC   H5S 8507  -0.713   2.622   2.760  0.3000  0.1619  1.6176
   88SLPC   C26 8508  -0.548   2.576   2.896 -0.2779  0.9658 -0.0793
   88SLPC   H6R 8509  -0.555   2.677   2.941  0.6625  0.6644  0.7609
   88SLPC   H6S 8510  -0.443   2.554   2.869 -0.6367 -2.0967  0.5596
   88SLPC   C27 8511  -0.592   2.469   2.996  0.1462  0.5067  0.0472
   88SLPC   H7R 8512  -0.591   2.367   2.951  0.2629 -0.9185  3.0219
   88SLPC   H7S 8513  -0.697   2.469   3.033  0.5802  0.6512  1.3502
   88SLPC   C28 8514  -0.495   2.469   3.121  0.1896 -0.4149  0.6179
   88SLPC   H8R 8515  -0.510   2.566   3.174 -0.5524 -0.5519  0.6782
   88SLPC   H8S 8516  -0.393   2.486   3.081 -0.0212 -0.5958 -0.0067
   88SLPC   C29 8517  -0.506   2.353   3.222  0.9205  0.0445 -0.0596
   88SLPC   H9R 8518  -0.568   2.270   3.187 -1.5731  2.5312 -1.8798
   88SLPC  C210 8519  -0.498   2.352   3.357 -0.2398 -0.6593  0.2319
   88SLPC  H10R 8520  -0.522   2.264   3.417 -0.3763 -0.0802  1.0422
   88SLPC  C211 8521  -0.454   2.471   3.438  0.0623  1.1041 -0.1071
   88SLPC  H11R 8522  -0.388   2.542   3.383  2.1259  1.2770  2.3537
   88SLPC  H11S 8523  -0.398   2.443   3.530 -0.1369  1.6223  0.1771
   88SLPC  C212 8524  -0.575   2.537   3.491 -0.1396  0.2560 -0.7400
   88SLPC  H12R 8525  -0.618   2.617   3.429  0.3146 -0.0234 -1.4169
   88SLPC  C213 8526  -0.626   2.527   3.622  0.0611  0.6700  0.7208
   88SLPC  H13R 8527  -0.718   2.585   3.643  0.3585  1.2020  0.5754
   88SLPC  C214 8528  -0.580   2.441   3.735 -0.3283 -0.3644  0.6407
   88SLPC  H14R 8529  -0.481   2.392   3.719 -1.3107 -1.7890 -1.4412
   88SLPC  H14S 8530  -0.649   2.356   3.751 -0.6699 -0.3349 -0.6156
   88SLPC  C215 8531  -0.586   2.515   3.869 -0.5605  0.4603 -0.1193
   88SLPC  H15R 8532  -0.594   2.439   3.950 -1.1448  1.8401  1.1669
   88SLPC  H15S 8533  -0.675   2.582   3.866  0.6413  2.0858 -0.9382
   88SLPC  C216 8534  -0.460   2.595   3.904  0.0840 -0.5227 -0.4415
   88SLPC  H16R 8535  -0.442   2.676   3.830 -0.6361 -0.1403 -0.2075
   88SLPC  H16S 8536  -0.367   2.535   3.913  0.9577  0.8231 -0.0984
   88SLPC  C217 8537  -0.467   2.673   4.039 -0.2784  0.1100 -0.2679
   88SLPC  H17R 8538  -0.533   2.762   4.032  0.8698  0.8464 -2.9297
   88SLPC  H17S 8539  -0.366   2.716   4.049 -0.1953  0.1061 -1.0021
   88SLPC  C218 8540  -0.508   2.595   4.160 -0.1054 -0.5186  0.5740
   88SLPC  H18R 8541  -0.610   2.551   4.150 -1.4997  2.7284 -1.0806
   88SLPC  H18S 8542  -0.508   2.674   4.238 -0.2942  0.1804 -0.1199
   88SLPC  H18T 8543  -0.437   2.512   4.180 -1.2365 -1.0776  2.6735
   88SLPC   C33 8544  -0.243   2.367   2.714  0.0251 -0.4424  0.3796
   88SLPC   H3X 8545  -0.167   2.320   2.647 -1.7761  1.3670 -3.2669
   88SLPC   H3Y 8546  -0.316   2.403   2.639  1.6615 -0.4163 -1.2861
   88SLPC   C34 8547  -0.318   2.260   2.796 -0.2321 -0.5437  0.4219
   88SLPC   H4X 8548  -0.338   2.176   2.727  0.3270 -0.3788  0.0521
   88SLPC   H4Y 8549  -0.416   2.300   2.830  0.6399  0.5907  1.7172
   88SLPC   C35 8550  -0.237   2.207   2.913 -0.2028  0.6847 -0.3769
   88SLPC   H5X 8551  -0.230   2.277   2.999  1.9685  0.5299 -0.3759
   88SLPC   H5Y 8552  -0.131   2.201   2.882  0.6385  1.2331  2.1123
   88SLPC   C36 8553  -0.266   2.058   2.949 -0.3161 -0.4466 -0.4782
   88SLPC   H6X 8554  -0.230   1.995   2.865  2.2316  0.1519  0.0853
   88SLPC   H6Y 8555  -0.376   2.044   2.950 -0.1500 -2.0541 -1.6761
   88SLPC   C37 8556  -0.189   2.016   3.082 -0.7154  0.2305  0.3672
   88SLPC   H7X 8557  -0.079   2.008   3.075 -0.8245 -0.9493 -0.2029
   88SLPC   H7Y 8558  -0.234   1.920   3.115  0.3208 -0.5390 -0.3858
   88SLPC   C38 8559  -0.222   2.097   3.207 -0.7121 -0.6399  0.1371
   88SLPC   H8X 8560  -0.333   2.105   3.200 -0.6375 -0.2118 -0.7415
   88SLPC   H8Y 8561  -0.183   2.199   3.190  4.1185 -2.1119  1.0159
   88SLPC   C39 8562  -0.182   2.043   3.347 -0.1522  0.2677  0.1364
   88SLPC   H9X 8563  -0.075   2.012   3.342 -0.3110 -0.1125 -1.1821
   88SLPC   H9Y 8564  -0.241   1.950   3.362 -0.9427  0.4361 -1.6129
   88SLPC  C310 8565  -0.188   2.149   3.450  0.0460  0.1726 -0.0494
   88SLPC  H10X 8566  -0.285   2.203   3.453  0.0602  0.2370 -0.6677
   88SLPC  H10Y 8567  -0.111   2.229   3.441 -1.0538  1.4896  1.6152
   88SLPC  C311 8568  -0.165   2.081   3.585  0.5000 -0.0287 -0.0955
   88SLPC  H11X 8569  -0.056   2.064   3.593  0.6577  0.6227 -0.7910
   88SLPC  H11Y 8570  -0.222   1.985   3.586 -4.5229  2.5697  2.0825
   88SLPC  C312 8571  -0.218   2.168   3.704 -0.0970 -0.2936  0.0734
   88SLPC  H12X 8572  -0.321   2.201   3.680 -1.3028 -3.4088  0.5519
   88SLPC  H12Y 8573  -0.143   2.250   3.711 -0.3975 -0.1265  1.5769
   88SLPC  C313 8574  -0.219   2.092   3.840  0.1474 -0.0383 -0.8200
   88SLPC  H13X 8575  -0.122   2.041   3.857  0.2662  0.5109  0.1635
   88SLPC  H13Y 8576  -0.287   2.009   3.809 -0.8268  0.2135  0.5746
   88SLPC  C314 8577  -0.270   2.175   3.950  0.4542  0.8296  0.3809
   88SLPC  H14X 8578  -0.310   2.107   4.028 -0.8074 -2.7532 -3.0901
   88SLPC  H14Y 8579  -0.352   2.241   3.914 -0.0885  0.0786  0.2170
   88SLPC  C315 8580  -0.159   2.264   4.007  0.2794  0.4950 -0.1962
   88SLPC  H15X 8581  -0.096   2.316   3.932  2.6520 -3.1463 -0.9799
   88SLPC  H15Y 8582  -0.098   2.189   4.064 -0.7305 -0.8753 -0.8615
   88SLPC  C316 8583  -0.218   2.362   4.107 -0.0264  0.0072  0.1096
   88SLPC  H16X 8584  -0.299   2.312   4.163 -1.3566  2.5344  0.5740
   88SLPC  H16Y 8585  -0.256   2.456   4.063  3.1261  1.9832  1.2173
   88SLPC  C317 8586  -0.106   2.411   4.200  0.4984  0.7285  0.1675
   88SLPC  H17X 8587  -0.033   2.476   4.148  2.2073 -1.7915 -0.7783
   88SLPC  H17Y 8588  -0.056   2.316   4.227 -1.7842 -0.7412 -0.4217
   88SLPC  C318 8589  -0.152   2.480   4.334  0.1177  0.0504  0.2258
   88SLPC  H18X 8590  -0.219   2.567   4.313  0.5588  0.4933  0.6336
   88SLPC  H18Y 8591  -0.063   2.524   4.384 -0.5488  1.8602 -0.0959
   88SLPC  H18Z 8592  -0.194   2.399   4.397  0.0590 -3.2798 -3.6849
   89SAPE     N 8593   4.138   1.175   7.005  0.3269 -0.3614  0.2085
   89SAPE   HN1 8594   4.153   1.263   7.060 -0.0592  0.7982 -1.4572
   89SAPE   HN2 8595   4.149   1.195   6.904  0.6410 -3.4558 -0.4542
   89SAPE   HN3 8596   4.043   1.140   7.027 -0.7196  1.6584 -0.7399
   89SAPE   C12 8597   4.250   1.082   7.034  0.3917  0.5575  0.7377
   89SAPE  H12A 8598   4.242   0.989   6.974  2.7880  1.2223 -0.7909
   89SAPE  H12B 8599   4.266   1.060   7.142  1.4592  1.4964  0.8007
   89SAPE   C11 8600   4.377   1.145   6.976  0.0338  0.0156  0.8705
   89SAPE  H11A 8601   4.381   1.149   6.865  1.0607 -0.1229  0.8932
   89SAPE  H11B 8602   4.461   1.078   7.004  1.5388  1.5140  0.1082
   89SAPE     P 8603   4.537   1.329   7.085 -0.0472  0.7659 -0.1517
   89SAPE   O13 8604   4.529   1.453   7.160 -0.5039 -0.0646  0.3413
   89SAPE   O14 8605   4.604   1.221   7.154  0.3731 -0.2665 -0.3841
   89SAPE   O12 8606   4.392   1.277   7.030  0.0660  0.0807  0.5959
   89SAPE   O11 8607   4.612   1.350   6.952  0.4333 -0.0130  0.7156
   89SAPE    C1 8608   4.605   1.466   6.859  0.3225 -0.2435 -0.2461
   89SAPE    HA 8609   4.562   1.559   6.899  0.1086  0.2858 -1.6570
   89SAPE    HB 8610   4.712   1.481   6.830  1.4823  0.6717  3.8429
   89SAPE    C2 8611   4.528   1.421   6.731 -0.0629 -0.2583 -0.2380
   89SAPE    HS 8612   4.423   1.412   6.765 -0.7282  2.1740 -1.4610
   89SAPE   O21 8613   4.584   1.307   6.667 -0.8384  0.2139 -0.2879
   89SAPE   C21 8614   4.510   1.201   6.633 -0.8021 -0.6846 -0.0871
   89SAPE   O22 8615   4.388   1.193   6.636 -0.3172 -0.1377 -0.4566
   89SAPE   C22 8616   4.597   1.092   6.573  0.1220  0.1377 -0.1507
   89SAPE   H2R 8617   4.694   1.091   6.627 -0.2199 -2.9084  0.5929
   89SAPE   H2S 8618   4.555   0.990   6.582  0.4474  0.0305  0.2266
   89SAPE    C3 8619   4.522   1.529   6.621  0.3997  0.2291  0.4571
   89SAPE    HX 8620   4.622   1.562   6.585 -0.5573  1.8221 -0.9040
   89SAPE    HY 8621   4.479   1.627   6.652  1.5568  1.3070 -1.1241
   89SAPE   O31 8622   4.454   1.480   6.505  0.2206  0.4627 -0.1117
   89SAPE   C31 8623   4.321   1.492   6.509 -0.5004  0.1810  0.4308
   89SAPE   O32 8624   4.258   1.554   6.593 -0.2017  0.1738  0.5735
   89SAPE   C32 8625   4.263   1.420   6.389  0.3031  0.2816  0.5998
   89SAPE   H2X 8626   4.167   1.467   6.361  0.3684 -0.1669 -0.3945
   89SAPE   H2Y 8627   4.242   1.313   6.411 -0.3893  0.1674 -0.5446
   89SAPE   C23 8628   4.627   1.126   6.429  0.0390  0.0524  0.0103
   89SAPE   H3R 8629   4.726   1.086   6.400 -0.8877 -1.0822 -1.7360
   89SAPE   H3S 8630   4.631   1.235   6.408  0.7373  0.2394  1.0439
   89SAPE   C24 8631   4.515   1.071   6.333 -0.1793  0.0772 -0.2919
   89SAPE   H4R 8632   4.523   1.125   6.236 -1.8517  0.6870 -0.1182
   89SAPE   H4S 8633   4.414   1.111   6.358 -0.3819  0.0884 -1.0858
   89SAPE   C25 8634   4.498   0.920   6.316  0.4959 -0.3939  0.4899
   89SAPE   H5R 8635   4.495   0.853   6.403 -0.3991 -0.0422  0.7414
   89SAPE   C26 8636   4.486   0.867   6.194 -0.0380  0.5805  0.3037
   89SAPE   H6R 8637   4.474   0.757   6.193  1.4979  0.2654  3.4762
   89SAPE   C27 8638   4.471   0.928   6.057  0.1973 -0.1069 -0.4342
   89SAPE   H7R 8639   4.397   1.011   6.063  2.6596  2.2558 -0.3024
   89SAPE   H7S 8640   4.422   0.857   5.987  0.2462  0.6735 -1.2857
   89SAPE   C28 8641   4.602   0.984   6.009  0.2883  0.5068 -0.1419
   89SAPE   H8R 8642   4.693   0.962   6.067 -0.5232 -1.3649  0.5195
   89SAPE   C29 8643   4.615   1.041   5.893  0.1525 -0.3556  0.1854
   89SAPE   H9R 8644   4.711   1.084   5.863  1.2376 -2.7104  0.0899
   89SAPE  C210 8645   4.494   1.062   5.804  0.2562  0.6869 -0.5863
   89SAPE  H10R 8646   4.490   1.155   5.744 -0.6407  0.4245 -0.9644
   89SAPE  H10S 8647   4.400   1.061   5.864  0.2134 -3.7434 -0.3552
   89SAPE  C211 8648   4.484   0.942   5.713  0.5398 -0.1469 -0.0047
   89SAPE  H11R 8649   4.504   0.842   5.754 -0.0440 -0.8287 -1.3119
   89SAPE  C212 8650   4.444   0.945   5.588 -0.1713  0.2732  0.1603
   89SAPE  H12R 8651   4.449   0.848   5.535  0.0826  0.7272 -0.6596
   89SAPE  C213 8652   4.398   1.066   5.497  0.1002  0.8294  0.8190
   89SAPE  H13R 8653   4.477   1.103   5.429 -0.3953 -0.1938 -0.3576
   89SAPE  H13S 8654   4.372   1.155   5.557  0.5944  1.0344  0.7262
   89SAPE  C214 8655   4.284   1.021   5.402 -0.2729  0.3022  0.0984
   89SAPE  H14R 8656   4.181   1.043   5.435 -0.0740  0.8995  0.3331
   89SAPE  C215 8657   4.291   0.962   5.284 -0.0237 -0.3557 -0.5648
   89SAPE  H15R 8658   4.198   0.946   5.227 -0.3726  2.3639 -0.8589
   89SAPE  C216 8659   4.415   0.910   5.212  0.3536 -0.4737 -0.4537
   89SAPE  H16R 8660   4.433   0.803   5.233 -1.3633 -0.6382  0.4130
   89SAPE  H16S 8661   4.508   0.964   5.240  0.4146 -1.2739  0.9591
   89SAPE  C217 8662   4.409   0.928   5.059 -0.2211  0.2926 -0.0560
   89SAPE  H17R 8663   4.321   0.876   5.014  0.1865  1.9044 -3.0090
   89SAPE  H17S 8664   4.493   0.880   5.005 -0.8762 -0.7335 -0.2007
   89SAPE  C218 8665   4.411   1.073   5.018 -0.1417 -0.6806  0.3015
   89SAPE  H18R 8666   4.486   1.129   5.078  0.4287 -0.0079 -0.9854
   89SAPE  H18S 8667   4.311   1.117   5.035 -0.2728 -0.7132 -0.3477
   89SAPE  C219 8668   4.452   1.095   4.871 -0.0406 -0.0994 -0.6121
   89SAPE  H19R 8669   4.412   1.191   4.832  2.9307  1.3094 -0.5172
   89SAPE  H19S 8670   4.396   1.028   4.803 -1.0505 -0.2184  0.3174
   89SAPE  C220 8671   4.611   1.088   4.852 -0.9009 -0.1363 -0.3155
   89SAPE  H20R 8672   4.645   0.983   4.862  0.0996  0.3383  1.7074
   89SAPE  H20S 8673   4.653   1.155   4.930  0.4344 -0.7514 -0.4799
   89SAPE  H20T 8674   4.647   1.123   4.753  1.6446 -1.4533  0.0466
   89SAPE   C33 8675   4.365   1.410   6.274  0.6339 -0.9628  0.1933
   89SAPE   H3X 8676   4.456   1.355   6.304  1.7713  0.3084 -0.7656
   89SAPE   H3Y 8677   4.405   1.510   6.245  0.3771 -0.5952  1.0672
   89SAPE   C34 8678   4.313   1.345   6.141  0.2961  0.3010 -0.5011
   89SAPE   H4X 8679   4.226   1.281   6.166 -1.1883  2.3375 -0.2403
   89SAPE   H4Y 8680   4.393   1.271   6.117 -1.5943 -3.2466  2.9331
   89SAPE   C35 8681   4.292   1.439   6.021  0.4416 -0.1325  0.0213
   89SAPE   H5X 8682   4.389   1.492   6.014 -0.7530  2.1830 -0.0483
   89SAPE   H5Y 8683   4.219   1.521   6.039 -2.1227 -2.6716  2.0684
   89SAPE   C36 8684   4.274   1.375   5.887  0.0151 -0.2431 -0.4223
   89SAPE   H6X 8685   4.199   1.294   5.905 -0.8939  0.5199 -0.6917
   89SAPE   H6Y 8686   4.369   1.326   5.859  0.3299  0.0335  0.1448
   89SAPE   C37 8687   4.234   1.471   5.773  0.5436  0.1090 -0.3210
   89SAPE   H7X 8688   4.297   1.561   5.756 -1.7483  1.7468 -0.6315
   89SAPE   H7Y 8689   4.141   1.524   5.802 -0.7547 -0.4582 -3.1705
   89SAPE   C38 8690   4.199   1.395   5.645  0.1527 -1.0629  0.3080
   89SAPE   H8X 8691   4.142   1.302   5.669  0.7926 -1.8387 -1.0584
   89SAPE   H8Y 8692   4.293   1.364   5.595  1.3906 -0.0106  1.9315
   89SAPE   C39 8693   4.118   1.470   5.539 -0.4184  0.5017  0.9421
   89SAPE   H9X 8694   4.187   1.538   5.485 -1.2077  0.8097  0.2951
   89SAPE   H9Y 8695   4.039   1.536   5.581 -0.4595  0.8706  0.3088
   89SAPE  C310 8696   4.055   1.371   5.446  0.2289  0.3835 -0.5551
   89SAPE  H10X 8697   3.998   1.296   5.504 -1.6325  0.8037 -1.7746
   89SAPE  H10Y 8698   4.142   1.309   5.414  2.9833  2.4597  2.2010
   89SAPE  C311 8699   3.964   1.422   5.332  0.3583 -0.6950  1.0176
   89SAPE  H11X 8700   3.951   1.339   5.260  1.4662 -0.3322  0.3689
   89SAPE  H11Y 8701   4.027   1.504   5.291  1.5084 -0.4983  3.0442
   89SAPE  C312 8702   3.827   1.477   5.371 -0.3489  1.0380  0.6939
   89SAPE  H12X 8703   3.846   1.576   5.417 -0.1240  0.7228  1.2930
   89SAPE  H12Y 8704   3.789   1.403   5.445 -1.0714 -1.8704 -2.3271
   89SAPE  C313 8705   3.738   1.496   5.245 -0.3023 -0.4038 -0.1804
   89SAPE  H13X 8706   3.779   1.448   5.154 -0.0609  0.3866 -0.4909
   89SAPE  H13Y 8707   3.740   1.606   5.231 -0.8129 -0.2277  1.0379
   89SAPE  C314 8708   3.600   1.431   5.267  0.0393 -0.4691 -0.2845
   89SAPE  H14X 8709   3.549   1.488   5.347 -0.4105 -2.5891  1.0350
   89SAPE  H14Y 8710   3.614   1.332   5.316 -0.2528 -0.4340 -0.1286
   89SAPE  C315 8711   3.526   1.428   5.132 -0.5200  0.0659  0.1658
   89SAPE  H15X 8712   3.584   1.375   5.054 -0.4502 -0.7473  0.7465
   89SAPE  H15Y 8713   3.518   1.532   5.096  0.3993 -0.7174 -2.5051
   89SAPE  C316 8714   3.387   1.364   5.136 -0.0498  0.3778 -1.0181
   89SAPE  H16X 8715   3.336   1.415   5.221  0.6592 -1.9287  0.9307
   89SAPE  H16Y 8716   3.389   1.257   5.168  1.4640  0.0539 -2.0768
   89SAPE  C317 8717   3.317   1.373   5.002 -0.4022  0.9712 -0.0479
   89SAPE  H17X 8718   3.335   1.463   4.939  0.2747  0.2792 -0.8663
   89SAPE  H17Y 8719   3.208   1.365   5.025  0.3616  0.6331  4.5427
   89SAPE  C318 8720   3.352   1.249   4.919 -0.4688  0.7628 -0.7541
   89SAPE  H18X 8721   3.318   1.262   4.814 -1.2553 -0.8005 -0.7317
   89SAPE  H18Y 8722   3.300   1.166   4.971 -1.8650  1.2752 -1.2667
   89SAPE  H18Z 8723   3.460   1.225   4.927 -0.4232  1.3850  0.9736
   90SAPE     N 8724   6.468   0.325   6.620 -0.8967 -0.3136 -0.3079
   90SAPE   HN1 8725   6.553   0.364   6.575 -1.9584  0.8637 -1.3770
   90SAPE   HN2 8726   6.473   0.222   6.632 -0.7239 -0.0823  2.1330
   90SAPE   HN3 8727   6.383   0.353   6.566 -1.1699  0.6729  0.5914
   90SAPE   C12 8728   6.463   0.400   6.752 -0.5207  0.3349 -0.1896
   90SAPE  H12A 8729   6.518   0.333   6.823 -0.0784  1.6277  0.7233
   90SAPE  H12B 8730   6.358   0.404   6.788 -0.3735 -1.6372  0.6175
   90SAPE   C11 8731   6.538   0.532   6.748  0.1982  0.0159 -0.2157
   90SAPE  H11A 8732   6.521   0.587   6.842  0.2254  0.1591 -0.2936
   90SAPE  H11B 8733   6.481   0.599   6.680 -1.8851  0.8566  2.2415
   90SAPE     P 8734   6.795   0.521   6.805 -0.1020  0.1017 -0.0173
   90SAPE   O13 8735   6.769   0.623   6.909 -0.4674 -0.5428 -0.0363
   90SAPE   O14 8736   6.822   0.383   6.847  0.1453  0.4871  0.1811
   90SAPE   O12 8737   6.677   0.519   6.711  0.4246  0.3457  0.2955
   90SAPE   O11 8738   6.907   0.565   6.711 -0.6222 -0.0009  0.2790
   90SAPE    C1 8739   6.926   0.512   6.581 -0.2273  1.1956  0.2598
   90SAPE    HA 8740   6.828   0.500   6.530 -1.8370  3.2443  2.6564
   90SAPE    HB 8741   6.988   0.589   6.531 -1.1754  0.1170 -2.8078
   90SAPE    C2 8742   7.000   0.373   6.577 -0.3039  0.0066 -0.7674
   90SAPE    HS 8743   6.946   0.318   6.658  1.8492  0.5569  1.1476
   90SAPE   O21 8744   7.140   0.396   6.591  0.1924  0.1433  0.0196
   90SAPE   C21 8745   7.195   0.287   6.645 -0.5138 -0.0863  0.8986
   90SAPE   O22 8746   7.137   0.190   6.691 -0.1430 -0.1927 -0.0611
   90SAPE   C22 8747   7.345   0.293   6.622 -0.0345  0.8391 -0.0692
   90SAPE   H2R 8748   7.355   0.313   6.514  2.9577  0.4523  0.0341
   90SAPE   H2S 8749   7.384   0.374   6.687 -2.0898 -0.2911  2.7780
   90SAPE    C3 8750   6.970   0.302   6.446  0.7909 -0.1369  0.6864
   90SAPE    HX 8751   6.865   0.268   6.438  1.1981 -1.3968  0.3844
   90SAPE    HY 8752   7.037   0.214   6.433  1.4733  0.3343  0.9260
   90SAPE   O31 8753   6.992   0.398   6.343 -0.1279  0.1269  0.4419
   90SAPE   C31 8754   7.104   0.381   6.266 -0.3137  0.0471  0.4321
   90SAPE   O32 8755   7.189   0.296   6.293 -0.1326 -0.1105 -0.0295
   90SAPE   C32 8756   7.100   0.481   6.143  0.4357  0.3697  0.1298
   90SAPE   H2X 8757   7.169   0.565   6.165 -0.4921  0.9460  0.9126
   90SAPE   H2Y 8758   6.995   0.519   6.152 -0.1975 -0.3739 -2.9713
   90SAPE   C23 8759   7.416   0.156   6.638 -0.4982  0.2283 -0.7696
   90SAPE   H3R 8760   7.338   0.079   6.624 -1.2388  0.8409 -0.1351
   90SAPE   H3S 8761   7.449   0.158   6.744 -1.3736  3.9662 -0.4263
   90SAPE   C24 8762   7.532   0.133   6.541 -0.7653  0.1060 -0.3191
   90SAPE   H4R 8763   7.497   0.089   6.446 -0.2628 -2.4272  0.5917
   90SAPE   H4S 8764   7.590   0.053   6.593 -0.6410  1.7072  2.1613
   90SAPE   C25 8765   7.631   0.243   6.527  0.0489  0.6814  0.9446
   90SAPE   H5R 8766   7.666   0.280   6.624  2.2488  1.6232 -0.1202
   90SAPE   C26 8767   7.669   0.306   6.419 -0.4799 -0.1991 -0.4401
   90SAPE   H6R 8768   7.749   0.381   6.430 -1.3178  0.5488  0.6887
   90SAPE   C27 8769   7.619   0.288   6.279  0.1340  0.8977  0.2395
   90SAPE   H7R 8770   7.571   0.188   6.278  0.0086  0.9481  0.8369
   90SAPE   H7S 8771   7.699   0.278   6.202 -0.1640 -0.4394  0.0865
   90SAPE   C28 8772   7.521   0.397   6.245  0.3968  0.4132 -0.1850
   90SAPE   H8R 8773   7.445   0.428   6.318 -1.3554 -1.8412 -0.9216
   90SAPE   C29 8774   7.518   0.466   6.129  0.4323  0.2852  0.3943
   90SAPE   H9R 8775   7.461   0.561   6.127 -0.2683 -0.1180 -1.9971
   90SAPE  C210 8776   7.592   0.436   6.001 -0.3108 -0.0928 -0.1000
   90SAPE  H10R 8777   7.569   0.333   5.967 -1.6157  0.8465 -2.3036
   90SAPE  H10S 8778   7.698   0.439   6.032 -0.2694 -0.7513 -0.1549
   90SAPE  C211 8779   7.570   0.527   5.884 -0.0105 -0.5569  0.8670
   90SAPE  H11R 8780   7.532   0.629   5.901  3.1074  0.7977  0.4934
   90SAPE  C212 8781   7.577   0.492   5.751 -0.6674 -0.4720 -0.0726
   90SAPE  H12R 8782   7.563   0.569   5.673  0.1975 -0.4119 -0.1808
   90SAPE  C213 8783   7.617   0.352   5.690  0.6612 -0.4592 -0.4506
   90SAPE  H13R 8784   7.539   0.320   5.618 -0.0190  1.5998 -0.6918
   90SAPE  H13S 8785   7.632   0.277   5.770 -0.7355  0.0177  0.2765
   90SAPE  C214 8786   7.735   0.382   5.606  0.1830 -0.7268 -0.7035
   90SAPE  H14R 8787   7.830   0.390   5.661 -0.2411 -1.7377  0.2151
   90SAPE  C215 8788   7.742   0.383   5.471 -0.0791 -0.1441 -0.1096
   90SAPE  H15R 8789   7.841   0.393   5.423  0.5341  0.6222  1.2371
   90SAPE  C216 8790   7.635   0.375   5.364 -0.7843  0.3321  0.6047
   90SAPE  H16R 8791   7.535   0.348   5.406 -1.0754  2.0790  1.1208
   90SAPE  H16S 8792   7.674   0.294   5.300 -0.3445  1.7462 -0.9754
   90SAPE  C217 8793   7.623   0.499   5.277 -1.2866  0.4459 -0.3874
   90SAPE  H17R 8794   7.576   0.582   5.333  1.7540  1.0714  1.4296
   90SAPE  H17S 8795   7.550   0.472   5.198 -0.9458 -2.7831  0.2569
   90SAPE  C218 8796   7.751   0.555   5.211 -0.7394  0.6282 -0.0859
   90SAPE  H18R 8797   7.808   0.465   5.178 -1.5677 -1.1788  3.0031
   90SAPE  H18S 8798   7.811   0.609   5.287  0.3220  1.2318 -1.3015
   90SAPE  C219 8799   7.725   0.640   5.081  0.5264  0.5009 -0.0643
   90SAPE  H19R 8800   7.813   0.703   5.059 -0.7332  2.8215  1.1915
   90SAPE  H19S 8801   7.644   0.710   5.109  0.7886  1.2250 -1.0844
   90SAPE  C220 8802   7.674   0.559   4.957 -0.7547 -0.0749  0.5173
   90SAPE  H20R 8803   7.582   0.498   4.970 -1.0313  0.2698  0.1895
   90SAPE  H20S 8804   7.760   0.508   4.909  0.2256  1.1775  0.8918
   90SAPE  H20T 8805   7.652   0.638   4.882 -0.5097  1.5143  2.0531
   90SAPE   C33 8806   7.111   0.412   6.011 -0.3690  0.1628  0.4748
   90SAPE   H3X 8807   7.017   0.364   5.976  0.1016  0.3461 -1.1305
   90SAPE   H3Y 8808   7.194   0.337   6.009 -0.2110  0.3461 -0.0770
   90SAPE   C34 8809   7.144   0.507   5.891  0.1894  0.3756 -0.2138
   90SAPE   H4X 8810   7.226   0.576   5.921  0.0028  0.5654 -0.1417
   90SAPE   H4Y 8811   7.061   0.578   5.870  0.6370  0.3308 -2.4376
   90SAPE   C35 8812   7.182   0.421   5.771  0.0853  0.1478  0.5373
   90SAPE   H5X 8813   7.112   0.339   5.744  2.6494 -1.8612 -0.4848
   90SAPE   H5Y 8814   7.269   0.364   5.810  0.0293  0.2424  0.8032
   90SAPE   C36 8815   7.235   0.501   5.645  0.6314  0.7415 -0.2838
   90SAPE   H6X 8816   7.322   0.560   5.680 -0.5082  1.5162  1.3656
   90SAPE   H6Y 8817   7.151   0.573   5.631  0.3087  0.7736  1.5223
   90SAPE   C37 8818   7.256   0.416   5.522 -0.5007 -0.4265  0.1954
   90SAPE   H7X 8819   7.336   0.340   5.539 -0.7779 -0.6011  0.7598
   90SAPE   H7Y 8820   7.291   0.476   5.436 -1.1554  1.4044  1.1592
   90SAPE   C38 8821   7.123   0.356   5.477 -0.0182  0.1872  0.4523
   90SAPE   H8X 8822   7.042   0.432   5.481 -1.7765 -1.5627 -0.3562
   90SAPE   H8Y 8823   7.091   0.280   5.551  1.4190  1.4281  2.4709
   90SAPE   C39 8824   7.117   0.295   5.332 -0.0663  0.8356 -0.1201
   90SAPE   H9X 8825   7.175   0.358   5.262  1.1773 -1.4835 -1.2626
   90SAPE   H9Y 8826   7.016   0.302   5.287 -1.0604 -3.5873  0.9383
   90SAPE  C310 8827   7.179   0.155   5.324  0.1855  0.8214  0.4728
   90SAPE  H10X 8828   7.147   0.080   5.400  0.9922 -1.5147 -1.3960
   90SAPE  H10Y 8829   7.289   0.165   5.313  0.2498  0.4515  0.7840
   90SAPE  C311 8830   7.113   0.081   5.192 -0.1329 -0.5861 -0.2937
   90SAPE  H11X 8831   7.138   0.152   5.111  0.4666 -2.2458 -1.6290
   90SAPE  H11Y 8832   7.003   0.090   5.203 -0.0192  2.5291 -0.9573
   90SAPE  C312 8833   7.145  -0.069   5.159 -1.2370 -0.0205  0.1925
   90SAPE  H12X 8834   7.123  -0.132   5.248  1.2627 -2.7183 -0.9462
   90SAPE  H12Y 8835   7.254  -0.084   5.147 -1.3555  0.2563 -1.4304
   90SAPE  C313 8836   7.072  -0.127   5.033  0.0006 -0.4229 -0.4004
   90SAPE  H13X 8837   7.101  -0.052   4.957 -0.2335  0.4798  0.3809
   90SAPE  H13Y 8838   6.963  -0.114   5.053  0.0907  0.4054 -0.3875
   90SAPE  C314 8839   7.106  -0.271   4.987  0.1886  0.1791  0.4748
   90SAPE  H14X 8840   7.032  -0.305   4.912  2.5568  1.0981 -2.4952
   90SAPE  H14Y 8841   7.091  -0.344   5.069  1.2071 -0.4651  0.1190
   90SAPE  C315 8842   7.245  -0.277   4.935  0.3311  0.0538 -0.4773
   90SAPE  H15X 8843   7.312  -0.235   5.013  1.2857 -0.4715 -1.0032
   90SAPE  H15Y 8844   7.252  -0.216   4.842  2.1280  0.1549 -0.3065
   90SAPE  C316 8845   7.283  -0.419   4.893 -0.9188  0.3172 -0.1039
   90SAPE  H16X 8846   7.204  -0.456   4.824 -1.6128 -1.1856  1.4221
   90SAPE  H16Y 8847   7.281  -0.489   4.980  1.2602 -1.5588 -1.4253
   90SAPE  C317 8848   7.429  -0.421   4.838  0.2305 -0.0512  0.1284
   90SAPE  H17X 8849   7.494  -0.394   4.924  1.4596  0.3398 -0.8854
   90SAPE  H17Y 8850   7.445  -0.346   4.757 -0.3540 -0.1863 -0.1158
   90SAPE  C318 8851   7.480  -0.555   4.781 -0.7894  0.4229 -0.2334
   90SAPE  H18X 8852   7.424  -0.587   4.691 -0.1704  0.8667 -0.7824
   90SAPE  H18Y 8853   7.492  -0.636   4.857 -1.2113 -0.3283 -0.9524
   90SAPE  H18Z 8854   7.582  -0.542   4.739  0.2361  0.4077  2.0951
   91SAPE     N 8855   4.219   1.810   6.999 -0.5333  0.2522 -0.6179
   91SAPE   HN1 8856   4.313   1.843   7.029 -0.0140 -0.6860 -1.1454
   91SAPE   HN2 8857   4.181   1.889   6.943 -1.3890 -0.5141 -1.1539
   91SAPE   HN3 8858   4.173   1.799   7.091  2.9277  2.2009  1.5328
   91SAPE   C12 8859   4.226   1.680   6.923  0.5858 -0.1967  0.9012
   91SAPE  H12A 8860   4.268   1.592   6.976  1.0717 -0.1180  0.6574
   91SAPE  H12B 8861   4.289   1.703   6.835  2.0649 -0.7807  1.7629
   91SAPE   C11 8862   4.079   1.638   6.888 -0.5183  0.1999 -0.2681
   91SAPE  H11A 8863   4.083   1.547   6.825 -1.6178 -0.4181  0.5236
   91SAPE  H11B 8864   4.014   1.711   6.836  0.2473  2.2526  1.5124
   91SAPE     P 8865   3.980   1.483   7.079 -0.0991  0.0420  0.4574
   91SAPE   O13 8866   4.103   1.419   7.117 -0.0754 -0.3443  0.8278
   91SAPE   O14 8867   3.884   1.522   7.188 -0.4067 -0.3096  0.1803
   91SAPE   O12 8868   4.013   1.620   7.012  0.3780  0.1334  0.1402
   91SAPE   O11 8869   3.909   1.396   6.969 -0.0175  0.6221 -0.1692
   91SAPE    C1 8870   3.771   1.402   6.936 -0.1259  0.2057 -0.1389
   91SAPE    HA 8871   3.714   1.325   6.991  2.7718 -1.7915  0.2913
   91SAPE    HB 8872   3.742   1.508   6.954  0.0972 -0.1237  2.4407
   91SAPE    C2 8873   3.733   1.382   6.782 -0.4655  0.1627 -0.2889
   91SAPE    HS 8874   3.754   1.279   6.749 -1.5582  0.0956 -0.8297
   91SAPE   O21 8875   3.802   1.489   6.708 -0.0753  0.1860  0.4876
   91SAPE   C21 8876   3.891   1.453   6.616 -0.2740 -0.3494  0.1177
   91SAPE   O22 8877   3.928   1.341   6.584  0.2949 -0.1474 -0.3678
   91SAPE   C22 8878   3.941   1.579   6.557  0.5069  0.0895  1.1925
   91SAPE   H2R 8879   3.939   1.664   6.628  2.2232 -0.4628  1.9505
   91SAPE   H2S 8880   4.047   1.564   6.527  0.2970  1.1447 -0.1610
   91SAPE    C3 8881   3.583   1.400   6.746  0.7291 -0.2741 -0.1895
   91SAPE    HX 8882   3.558   1.496   6.795  0.9399 -0.6405  0.6574
   91SAPE    HY 8883   3.507   1.333   6.792  2.1524 -0.9647  1.2669
   91SAPE   O31 8884   3.565   1.393   6.601  0.0122  0.3842 -0.1578
   91SAPE   C31 8885   3.483   1.486   6.550  0.5789 -0.0050  0.1171
   91SAPE   O32 8886   3.435   1.578   6.610  0.2366 -0.2741  0.2098
   91SAPE   C32 8887   3.465   1.448   6.403  0.5707 -0.6474 -0.5434
   91SAPE   H2X 8888   3.416   1.348   6.412  0.5669 -0.7164 -1.2404
   91SAPE   H2Y 8889   3.566   1.417   6.370  0.2042 -2.5878  0.0443
   91SAPE   C23 8890   3.854   1.629   6.437  0.0858  0.3435  0.0119
   91SAPE   H3R 8891   3.748   1.637   6.470 -0.4613 -3.2991 -0.4440
   91SAPE   H3S 8892   3.864   1.550   6.359  2.7227  2.5878 -2.1121
   91SAPE   C24 8893   3.894   1.762   6.374  0.0451  0.2589  0.2032
   91SAPE   H4R 8894   3.853   1.827   6.454 -0.3400 -1.4700  1.4637
   91SAPE   H4S 8895   3.833   1.780   6.283  0.9477  1.3854 -0.2069
   91SAPE   C25 8896   4.047   1.772   6.345 -0.0813 -0.4191  0.1368
   91SAPE   H5R 8897   4.114   1.771   6.432 -1.7361  2.0114  1.5870
   91SAPE   C26 8898   4.101   1.761   6.226 -1.1471 -0.0036  0.8044
   91SAPE   H6R 8899   4.211   1.762   6.229 -1.1258 -1.1231  0.7730
   91SAPE   C27 8900   4.028   1.755   6.090  0.3492  0.1646 -0.5310
   91SAPE   H7R 8901   3.925   1.716   6.106  0.8225 -1.1399 -0.5293
   91SAPE   H7S 8902   4.072   1.682   6.019 -1.1373 -0.9607 -0.3576
   91SAPE   C28 8903   4.026   1.888   6.022 -0.5210 -0.3374 -0.0399
   91SAPE   H8R 8904   3.970   1.968   6.071  1.7538  2.0579 -1.1177
   91SAPE   C29 8905   4.085   1.923   5.899 -1.0871 -0.1669 -0.2998
   91SAPE   H9R 8906   4.071   2.029   5.873  1.1725  0.0680 -0.7527
   91SAPE  C210 8907   4.169   1.832   5.811 -0.4221  0.5471 -0.0139
   91SAPE  H10R 8908   4.145   1.826   5.702  3.5153 -3.7205 -0.9678
   91SAPE  H10S 8909   4.137   1.732   5.846 -1.0049  1.4831  2.3406
   91SAPE  C211 8910   4.314   1.859   5.834 -0.7152 -0.2384  0.1603
   91SAPE  H11R 8911   4.350   1.889   5.933 -0.0461  1.8035 -0.6299
   91SAPE  C212 8912   4.411   1.838   5.744  0.2541  0.8430 -0.2798
   91SAPE  H12R 8913   4.516   1.860   5.770 -0.4162  2.6422  1.1145
   91SAPE  C213 8914   4.398   1.771   5.611  0.3220  0.0784 -0.0773
   91SAPE  H13R 8915   4.322   1.689   5.612 -0.5356  0.8268 -1.1529
   91SAPE  H13S 8916   4.499   1.733   5.584  0.2914 -0.2969  0.3301
   91SAPE  C214 8917   4.371   1.866   5.498  0.0419  0.1510 -0.7200
   91SAPE  H14R 8918   4.315   1.957   5.526 -2.0758 -2.0101  3.0203
   91SAPE  C215 8919   4.404   1.836   5.376  0.1906  0.6229  0.5889
   91SAPE  H15R 8920   4.395   1.927   5.315  0.9132  0.0936 -0.3323
   91SAPE  C216 8921   4.475   1.713   5.323  0.0477 -0.1066  0.2297
   91SAPE  H16R 8922   4.457   1.623   5.385 -2.4962 -1.5048 -2.2730
   91SAPE  H16S 8923   4.585   1.725   5.322  0.0790 -0.4076 -0.0984
   91SAPE  C217 8924   4.423   1.670   5.187  0.4080 -0.0798 -0.8095
   91SAPE  H17R 8925   4.475   1.578   5.154 -0.4631 -1.6690  1.9096
   91SAPE  H17S 8926   4.440   1.759   5.123  0.8784  1.2934  1.1329
   91SAPE  C218 8927   4.275   1.645   5.200  0.2713  0.0450 -0.2193
   91SAPE  H18R 8928   4.226   1.745   5.200  0.8506  0.3404 -1.2472
   91SAPE  H18S 8929   4.243   1.602   5.297  0.8836  0.0520 -0.0105
   91SAPE  C219 8930   4.220   1.575   5.066 -0.0040 -0.7726 -0.6878
   91SAPE  H19R 8931   4.262   1.630   4.979  2.3504  1.5681  1.7584
   91SAPE  H19S 8932   4.110   1.585   5.061  0.0685  0.3010 -0.2833
   91SAPE  C220 8933   4.243   1.421   5.049 -0.4078  0.4979 -0.7776
   91SAPE  H20R 8934   4.349   1.390   5.066 -0.2072 -0.3283 -3.2276
   91SAPE  H20S 8935   4.216   1.387   4.947 -2.7610 -0.0856 -0.0083
   91SAPE  H20T 8936   4.184   1.362   5.123  1.3796  1.2164  1.3497
   91SAPE   C33 8937   3.384   1.545   6.313 -0.4523 -0.3747 -0.0590
   91SAPE   H3X 8938   3.282   1.551   6.358 -0.3587 -0.0325  0.1136
   91SAPE   H3Y 8939   3.383   1.491   6.216 -0.1051 -0.1770 -0.1753
   91SAPE   C34 8940   3.445   1.681   6.295 -0.0043 -0.1319  0.5086
   91SAPE   H4X 8941   3.485   1.723   6.389  0.8233 -0.1627  0.1793
   91SAPE   H4Y 8942   3.378   1.757   6.249  2.0537  1.2062 -0.4507
   91SAPE   C35 8943   3.557   1.669   6.191  1.3009 -0.4112 -0.2853
   91SAPE   H5X 8944   3.517   1.612   6.104 -2.9950  0.2841  1.0148
   91SAPE   H5Y 8945   3.633   1.607   6.244 -0.0911 -1.3664  0.6310
   91SAPE   C36 8946   3.611   1.797   6.138 -0.2352 -0.3856  0.1891
   91SAPE   H6X 8947   3.701   1.782   6.075  0.8040  0.1665  1.4912
   91SAPE   H6Y 8948   3.645   1.866   6.219 -0.4992  1.3877 -1.1548
   91SAPE   C37 8949   3.525   1.861   6.035 -0.0218  0.3726 -1.0538
   91SAPE   H7X 8950   3.431   1.885   6.089  2.4080  0.8280  3.5111
   91SAPE   H7Y 8951   3.497   1.786   5.958 -0.5245 -0.6358  0.0883
   91SAPE   C38 8952   3.570   1.997   5.977  0.1170  0.6587  0.1106
   91SAPE   H8X 8953   3.644   2.022   6.056 -1.0184  0.2844  1.3316
   91SAPE   H8Y 8954   3.489   2.073   5.970 -0.8223 -0.0829  2.0513
   91SAPE   C39 8955   3.633   1.984   5.838 -0.6879  1.0527 -0.1980
   91SAPE   H9X 8956   3.549   1.975   5.766 -1.5325  0.1958  0.8561
   91SAPE   H9Y 8957   3.703   1.898   5.826 -1.5656  0.1780  0.6990
   91SAPE  C310 8958   3.715   2.099   5.793 -0.5082 -0.3858  0.2058
   91SAPE  H10X 8959   3.797   2.110   5.868 -1.8259 -0.7366  1.7656
   91SAPE  H10Y 8960   3.655   2.191   5.786  0.3659  0.1144 -1.0861
   91SAPE  C311 8961   3.760   2.082   5.653 -0.3463  0.0763 -0.6068
   91SAPE  H11X 8962   3.825   2.167   5.624 -0.0687 -0.3960 -1.4298
   91SAPE  H11Y 8963   3.672   2.080   5.585 -1.6500 -1.3671  1.0032
   91SAPE  C312 8964   3.853   1.965   5.626  0.2144 -0.2316 -0.8568
   91SAPE  H12X 8965   3.800   1.867   5.624 -1.6386  0.6857  0.4863
   91SAPE  H12Y 8966   3.929   1.966   5.707  0.1776  1.2070 -0.8216
   91SAPE  C313 8967   3.910   1.967   5.482 -0.0411 -1.1935 -0.0813
   91SAPE  H13X 8968   4.001   1.905   5.476  1.7369  1.1446  1.2278
   91SAPE  H13Y 8969   3.952   2.069   5.469  3.3259 -2.3906  0.4065
   91SAPE  C314 8970   3.803   1.935   5.382 -0.2332  0.4315  0.7180
   91SAPE  H14X 8971   3.734   2.021   5.388  0.4262  0.9589  0.8048
   91SAPE  H14Y 8972   3.768   1.830   5.395 -0.7324  0.3490 -0.9618
   91SAPE  C315 8973   3.850   1.947   5.239  0.1813 -0.2244 -0.3315
   91SAPE  H15X 8974   3.805   1.864   5.181 -1.9234 -0.0480  0.9658
   91SAPE  H15Y 8975   3.957   1.918   5.234 -0.0763 -2.3416  3.3556
   91SAPE  C316 8976   3.823   2.079   5.173 -0.6803  0.0271 -0.4263
   91SAPE  H16X 8977   3.893   2.147   5.225  0.9740 -1.8082 -0.1376
   91SAPE  H16Y 8978   3.717   2.108   5.188 -1.0656 -0.6620 -1.6375
   91SAPE  C317 8979   3.855   2.069   5.024 -0.3119 -0.3848 -0.1092
   91SAPE  H17X 8980   3.778   2.006   4.974  1.4832 -1.6911 -1.3224
   91SAPE  H17Y 8981   3.953   2.016   5.024 -1.2104 -2.1316 -0.0242
   91SAPE  C318 8982   3.853   2.198   4.946 -0.1840 -0.2868 -0.0270
   91SAPE  H18X 8983   3.919   2.279   4.983  0.1349  0.5202 -2.2010
   91SAPE  H18Y 8984   3.752   2.245   4.948 -0.0835 -0.0701 -0.0502
   91SAPE  H18Z 8985   3.892   2.184   4.843  1.2850  1.2608  0.2781
   92SAPE     N 8986   5.403   1.567   7.442 -0.3821 -0.6645 -0.3160
   92SAPE   HN1 8987   5.497   1.522   7.447  0.7474  1.2207 -2.4245
   92SAPE   HN2 8988   5.430   1.668   7.436  1.2823 -1.1468 -2.1846
   92SAPE   HN3 8989   5.347   1.558   7.529  0.9657 -0.3600  0.6197
   92SAPE   C12 8990   5.326   1.509   7.323  0.7190  0.1287  0.1055
   92SAPE  H12A 8991   5.234   1.571   7.322 -0.0782 -1.0155  0.6959
   92SAPE  H12B 8992   5.301   1.404   7.349  0.3313 -0.0534 -0.9589
   92SAPE   C11 8993   5.403   1.519   7.186  0.1418 -0.1400  0.2541
   92SAPE  H11A 8994   5.330   1.498   7.106 -1.7273 -0.2105  1.9063
   92SAPE  H11B 8995   5.490   1.450   7.192  2.0228  2.0522 -0.1874
   92SAPE     P 8996   5.491   1.721   7.048  0.1998 -0.5279 -0.2228
   92SAPE   O13 8997   5.495   1.872   7.068  0.0493  0.6109 -0.5130
   92SAPE   O14 8998   5.608   1.658   6.995  0.2349 -0.3446  0.1777
   92SAPE   O12 8999   5.455   1.655   7.181 -0.5338  0.2880  0.4029
   92SAPE   O11 9000   5.362   1.679   6.962  0.3228 -0.2018  0.3193
   92SAPE    C1 9001   5.235   1.708   7.002 -0.3024  0.3378  0.2153
   92SAPE    HA 9002   5.187   1.612   7.028  2.8147 -1.3338  0.1707
   92SAPE    HB 9003   5.232   1.782   7.085  0.1252  2.0682 -1.2507
   92SAPE    C2 9004   5.161   1.761   6.882 -0.2080 -0.2171  0.4881
   92SAPE    HS 9005   5.071   1.808   6.927 -0.8144 -0.4816 -0.4077
   92SAPE   O21 9006   5.135   1.642   6.794  0.3427 -0.7814 -0.3304
   92SAPE   C21 9007   5.026   1.659   6.714 -0.0347 -0.1422 -0.8261
   92SAPE   O22 9008   4.952   1.757   6.718 -0.0989  0.1991  0.0914
   92SAPE   C22 9009   5.010   1.542   6.620 -0.2251 -0.4015  0.5668
   92SAPE   H2R 9010   5.084   1.466   6.654  0.1371  0.3110  1.4259
   92SAPE   H2S 9011   4.910   1.496   6.632 -2.3415  2.2052 -4.3824
   92SAPE    C3 9012   5.239   1.879   6.811 -0.3778  0.4926 -0.6979
   92SAPE    HX 9013   5.335   1.837   6.774  0.2388  1.2195  0.0365
   92SAPE    HY 9014   5.265   1.948   6.894  1.6644  0.5401 -1.3314
   92SAPE   O31 9015   5.170   1.950   6.702  0.5693 -0.6583 -0.0970
   92SAPE   C31 9016   5.208   2.077   6.686  0.2576 -0.4993  0.2325
   92SAPE   O32 9017   5.295   2.134   6.750 -0.0133 -0.1847 -0.8056
   92SAPE   C32 9018   5.120   2.144   6.577 -0.5976 -0.0090  0.1613
   92SAPE   H2X 9019   5.172   2.238   6.549  0.7076 -1.2882 -2.0172
   92SAPE   H2Y 9020   5.025   2.165   6.630 -0.6211 -1.1955  0.6191
   92SAPE   C23 9021   5.021   1.584   6.473 -0.7235  0.2672 -0.6832
   92SAPE   H3R 9022   5.122   1.630   6.459 -2.0153  3.7756  0.3944
   92SAPE   H3S 9023   4.963   1.676   6.450  0.8142  1.4334 -0.0945
   92SAPE   C24 9024   4.982   1.474   6.371 -0.2993 -0.1999  0.2785
   92SAPE   H4R 9025   4.879   1.445   6.401 -0.5912  0.2544 -0.2626
   92SAPE   H4S 9026   5.062   1.396   6.369  0.1935  0.3117 -0.3338
   92SAPE   C25 9027   4.969   1.543   6.234 -0.3490  0.1340  0.1059
   92SAPE   H5R 9028   5.053   1.610   6.212  0.9047 -1.1435  0.9030
   92SAPE   C26 9029   4.876   1.528   6.140 -0.0233  0.5734  0.7372
   92SAPE   H6R 9030   4.900   1.568   6.040  0.2914 -2.5863 -0.5494
   92SAPE   C27 9031   4.754   1.436   6.136  0.0370 -0.0442 -1.2845
   92SAPE   H7R 9032   4.672   1.472   6.202 -1.2863 -2.2138 -1.6354
   92SAPE   H7S 9033   4.782   1.341   6.188 -1.3078 -0.5511 -1.4368
   92SAPE   C28 9034   4.678   1.380   6.020 -0.1305  0.4735 -0.0935
   92SAPE   H8R 9035   4.601   1.305   6.045 -0.5207  1.4613  1.8873
   92SAPE   C29 9036   4.675   1.422   5.890 -0.5285  0.2015 -0.1004
   92SAPE   H9R 9037   4.612   1.368   5.819 -0.9878  1.9940 -1.1221
   92SAPE  C210 9038   4.748   1.533   5.817  0.1725 -0.5156 -0.1779
   92SAPE  H10R 9039   4.754   1.621   5.884 -1.6024 -0.5451  0.0736
   92SAPE  H10S 9040   4.681   1.556   5.731 -0.9806 -1.7517  0.3519
   92SAPE  C211 9041   4.886   1.478   5.768  0.3400 -0.0764  0.1698
   92SAPE  H11R 9042   4.954   1.437   5.844  0.2551 -0.9966 -0.2426
   92SAPE  C212 9043   4.932   1.475   5.639 -0.1410 -0.0888  0.2876
   92SAPE  H12R 9044   5.029   1.427   5.616  0.0506  0.5740 -0.3041
   92SAPE  C213 9045   4.862   1.524   5.515  0.8705 -0.7951 -0.5463
   92SAPE  H13R 9046   4.935   1.531   5.432  0.0129  0.2825 -1.2401
   92SAPE  H13S 9047   4.834   1.629   5.538  1.8950 -0.5992 -0.1389
   92SAPE  C214 9048   4.744   1.442   5.471  0.2734  0.6100 -0.5022
   92SAPE  H14R 9049   4.643   1.472   5.504  0.7487  0.8987  0.7744
   92SAPE  C215 9050   4.763   1.322   5.414 -0.0174  0.5722  0.3067
   92SAPE  H15R 9051   4.686   1.254   5.374  2.4433 -1.6907 -0.9500
   92SAPE  C216 9052   4.887   1.259   5.355  0.5772 -0.3526 -0.0690
   92SAPE  H16R 9053   4.902   1.157   5.397 -0.5320 -0.6524 -0.3445
   92SAPE  H16S 9054   4.976   1.317   5.385 -0.1087  0.6372  0.1233
   92SAPE  C217 9055   4.893   1.238   5.201 -0.2666 -0.7391  0.4141
   92SAPE  H17R 9056   4.802   1.179   5.174  0.0057 -1.7256  1.5980
   92SAPE  H17S 9057   4.973   1.171   5.164  1.3806  1.4752 -0.2239
   92SAPE  C218 9058   4.882   1.359   5.109  0.3159  0.2824 -0.0970
   92SAPE  H18R 9059   4.938   1.445   5.152 -0.8094  1.1818 -0.4106
   92SAPE  H18S 9060   4.786   1.412   5.093  1.2836  3.5449  3.3342
   92SAPE  C219 9061   4.949   1.334   4.978  0.1356 -0.1434 -0.4778
   92SAPE  H19R 9062   4.888   1.258   4.923  0.1075  0.2627 -1.0103
   92SAPE  H19S 9063   5.057   1.311   4.991  0.3482  1.2609  0.5735
   92SAPE  C220 9064   4.947   1.462   4.897 -0.3956  0.2321  0.3680
   92SAPE  H20R 9065   4.853   1.522   4.907 -1.4484 -1.1384 -0.8791
   92SAPE  H20S 9066   4.971   1.448   4.790  0.0182 -0.2928  0.5271
   92SAPE  H20T 9067   5.030   1.524   4.937 -0.0687 -0.7840  1.3229
   92SAPE   C33 9068   5.083   2.057   6.459  0.4017 -0.4626  0.9502
   92SAPE   H3X 9069   5.013   2.104   6.388 -0.7573 -0.4978  2.0338
   92SAPE   H3Y 9070   5.025   1.972   6.500 -2.4108 -0.2958 -2.2547
   92SAPE   C34 9071   5.206   2.006   6.384 -0.2398  0.4704  0.0679
   92SAPE   H4X 9072   5.252   1.932   6.454 -0.8643  1.6505  1.8020
   92SAPE   H4Y 9073   5.272   2.093   6.364  1.2931 -0.3187  1.4844
   92SAPE   C35 9074   5.161   1.928   6.258  0.1031 -0.1477 -0.4747
   92SAPE   H5X 9075   5.069   1.870   6.276 -0.6766  0.5448 -2.0712
   92SAPE   H5Y 9076   5.256   1.876   6.235  0.6556  0.4618  0.3528
   92SAPE   C36 9077   5.143   2.031   6.144 -1.0710  0.5856  0.7241
   92SAPE   H6X 9078   5.227   2.104   6.151  0.2515 -0.6889 -1.0656
   92SAPE   H6Y 9079   5.051   2.092   6.155 -0.2804  2.0174 -0.2350
   92SAPE   C37 9080   5.141   1.965   6.003 -0.4213  0.7508 -0.1358
   92SAPE   H7X 9081   5.049   1.902   6.010 -0.3008  0.7586  1.9610
   92SAPE   H7Y 9082   5.230   1.898   5.996 -1.1318 -0.1993 -0.4056
   92SAPE   C38 9083   5.149   2.066   5.896  0.3125  0.2217  0.1794
   92SAPE   H8X 9084   5.242   2.128   5.893  1.0492 -0.8138  0.9850
   92SAPE   H8Y 9085   5.060   2.131   5.905  0.3249  0.1954  0.4939
   92SAPE   C39 9086   5.135   1.998   5.761 -0.0222  0.2239  0.0805
   92SAPE   H9X 9087   5.214   1.922   5.745  1.9143  2.0392  0.5102
   92SAPE   H9Y 9088   5.166   2.071   5.683  0.5928  0.6268  0.6989
   92SAPE  C310 9089   4.990   1.942   5.717 -0.0960  0.9134  0.3380
   92SAPE  H10X 9090   4.921   2.029   5.720  1.1781  1.9439  0.9775
   92SAPE  H10Y 9091   4.953   1.868   5.791  0.9587  0.6331  0.6028
   92SAPE  C311 9092   4.982   1.868   5.582  0.1494 -0.0630  0.4804
   92SAPE  H11X 9093   4.878   1.879   5.545  0.3664  0.8689  0.1157
   92SAPE  H11Y 9094   5.010   1.763   5.605  2.5444  0.8378  2.0223
   92SAPE  C312 9095   5.070   1.922   5.467 -0.0020  0.0170  0.4440
   92SAPE  H12X 9096   5.177   1.903   5.487  0.2649  2.3616  1.5460
   92SAPE  H12Y 9097   5.058   2.032   5.460 -0.4470 -0.1200 -1.5130
   92SAPE  C313 9098   5.037   1.859   5.329  0.4850  0.2168 -0.0532
   92SAPE  H13X 9099   4.933   1.894   5.314  0.1276 -0.3789  0.9185
   92SAPE  H13Y 9100   5.034   1.748   5.322 -1.0710  0.2656 -0.3988
   92SAPE  C314 9101   5.128   1.922   5.216  0.0983 -0.3661 -1.1130
   92SAPE  H14X 9102   5.232   1.886   5.234 -0.2256 -0.1069  1.7071
   92SAPE  H14Y 9103   5.133   2.032   5.229  0.8120 -0.6223  1.2735
   92SAPE  C315 9104   5.093   1.883   5.075 -0.6189  0.5159 -0.3313
   92SAPE  H15X 9105   5.016   1.944   5.024  0.8919  1.4725 -1.5423
   92SAPE  H15Y 9106   5.050   1.781   5.087 -0.0903  0.3136 -0.0926
   92SAPE  C316 9107   5.221   1.867   4.987  0.1385  0.0694 -0.1188
   92SAPE  H16X 9108   5.300   1.817   5.047  1.7795  2.6953  0.1185
   92SAPE  H16Y 9109   5.263   1.970   4.978  1.5347 -0.5378 -0.9586
   92SAPE  C317 9110   5.197   1.795   4.855  0.5121 -0.9302 -0.3183
   92SAPE  H17X 9111   5.138   1.704   4.879 -2.2160  0.9808  0.6493
   92SAPE  H17Y 9112   5.291   1.774   4.798  1.3668 -1.3710  1.2108
   92SAPE  C318 9113   5.109   1.890   4.765 -0.6130 -0.0231 -0.1067
   92SAPE  H18X 9114   5.091   1.832   4.672 -0.8923  0.1667 -0.1707
   92SAPE  H18Y 9115   5.161   1.983   4.734 -0.2276 -0.4968 -0.9417
   92SAPE  H18Z 9116   5.007   1.908   4.805  0.2298  0.8900  1.7771
   93SAPE     N 9117   0.591   2.233   7.003 -0.0411  0.2963 -0.1977
   93SAPE   HN1 9118   0.679   2.182   6.980 -0.4232 -0.5592  0.2146
   93SAPE   HN2 9119   0.522   2.157   7.019  1.3512 -1.1971 -0.9645
   93SAPE   HN3 9120   0.553   2.284   6.921 -1.0094  1.2392  0.8051
   93SAPE   C12 9121   0.592   2.321   7.128 -0.6021  1.1207  1.1915
   93SAPE  H12A 9122   0.592   2.258   7.219  0.0620  1.5369  1.4839
   93SAPE  H12B 9123   0.493   2.372   7.132 -1.4285 -0.1967 -0.6467
   93SAPE   C11 9124   0.705   2.423   7.120 -0.9127  0.0437  0.4914
   93SAPE  H11A 9125   0.692   2.483   7.213  3.6478  0.3922  1.1390
   93SAPE  H11B 9126   0.699   2.476   7.023  0.4567 -0.3554  0.1670
   93SAPE     P 9127   0.955   2.441   7.120  0.5255 -0.4877  0.6340
   93SAPE   O13 9128   0.925   2.554   7.208  0.3201  0.1752 -0.6441
   93SAPE   O14 9129   1.068   2.355   7.161 -1.0293 -0.0837 -0.1841
   93SAPE   O12 9130   0.825   2.353   7.120 -0.1252  0.2015 -1.0817
   93SAPE   O11 9131   0.987   2.484   6.973 -0.0667 -0.6021  0.0391
   93SAPE    C1 9132   0.992   2.397   6.864  0.4631 -0.2001 -0.0575
   93SAPE    HA 9133   0.977   2.288   6.883 -1.1855 -0.1476 -0.9476
   93SAPE    HB 9134   0.914   2.421   6.789  0.2984 -1.7503 -0.4174
   93SAPE    C2 9135   1.130   2.420   6.796 -0.1243 -0.3151  0.6610
   93SAPE    HS 9136   1.206   2.405   6.876 -0.6101 -0.1682  1.1566
   93SAPE   O21 9137   1.133   2.555   6.739  0.0947 -0.1124  0.2136
   93SAPE   C21 9138   1.259   2.598   6.742 -0.4666 -0.5405  0.1121
   93SAPE   O22 9139   1.360   2.534   6.773 -0.2904  0.1417  0.0668
   93SAPE   C22 9140   1.256   2.735   6.676 -0.3131  0.3920  0.1104
   93SAPE   H2R 9141   1.197   2.726   6.582  1.0675  1.5193 -0.9113
   93SAPE   H2S 9142   1.188   2.801   6.733  0.7637  2.5687 -0.9742
   93SAPE    C3 9143   1.148   2.315   6.687  0.3365 -0.0271 -0.2166
   93SAPE    HX 9144   1.161   2.218   6.740 -1.1063 -1.5723 -2.5292
   93SAPE    HY 9145   1.238   2.350   6.631  0.0307  0.3511 -0.4783
   93SAPE   O31 9146   1.020   2.301   6.610 -0.1872  0.1739  0.3979
   93SAPE   C31 9147   1.028   2.358   6.492 -0.0806 -0.2553 -0.3251
   93SAPE   O32 9148   1.109   2.442   6.457 -0.1474 -0.4859 -0.2332
   93SAPE   C32 9149   0.916   2.314   6.404  0.0269 -0.1475  0.5597
   93SAPE   H2X 9150   0.823   2.359   6.443  0.1374  0.7832 -0.2207
   93SAPE   H2Y 9151   0.899   2.205   6.417  0.6061 -0.6973 -2.4359
   93SAPE   C23 9152   1.395   2.796   6.652  0.3902 -0.2850  0.4734
   93SAPE   H3R 9153   1.473   2.765   6.724  1.2761 -0.1762 -0.4326
   93SAPE   H3S 9154   1.381   2.903   6.681 -2.7650 -0.2498 -0.7081
   93SAPE   C24 9155   1.444   2.785   6.502  0.4946  0.1205 -0.5423
   93SAPE   H4R 9156   1.537   2.844   6.486 -0.0333  0.9533 -0.5890
   93SAPE   H4S 9157   1.362   2.830   6.443 -1.9361  2.3709  3.9684
   93SAPE   C25 9158   1.472   2.642   6.464 -0.8923  0.0986  0.2541
   93SAPE   H5R 9159   1.530   2.583   6.536 -2.3726  0.2143  1.6039
   93SAPE   C26 9160   1.426   2.577   6.351  0.3301  0.0850 -0.3555
   93SAPE   H6R 9161   1.454   2.472   6.339  0.1329 -0.0644  0.4135
   93SAPE   C27 9162   1.342   2.641   6.242 -0.0974 -0.1056 -0.5835
   93SAPE   H7R 9163   1.255   2.696   6.283  1.0554  1.6587 -0.3704
   93SAPE   H7S 9164   1.289   2.563   6.182  1.3766  0.5643 -2.9176
   93SAPE   C28 9165   1.419   2.724   6.150 -0.8593 -0.3970 -0.1857
   93SAPE   H8R 9166   1.468   2.813   6.195 -0.2716 -0.3980 -0.7977
   93SAPE   C29 9167   1.415   2.712   6.011 -0.7542 -0.2612 -0.0972
   93SAPE   H9R 9168   1.470   2.787   5.952 -2.2940  1.4458  0.5430
   93SAPE  C210 9169   1.333   2.627   5.925 -0.1941 -0.1184  0.0254
   93SAPE  H10R 9170   1.280   2.564   6.000  0.1875  2.3267  2.4795
   93SAPE  H10S 9171   1.384   2.550   5.864 -1.6292 -0.5261 -0.7006
   93SAPE  C211 9172   1.233   2.709   5.853 -0.2713  0.0962  0.2180
   93SAPE  H11R 9173   1.154   2.756   5.914 -0.2188 -0.1669  0.4888
   93SAPE  C212 9174   1.216   2.716   5.723  0.2287  0.7903  0.5168
   93SAPE  H12R 9175   1.144   2.786   5.678 -0.4056 -0.3340 -0.2505
   93SAPE  C213 9176   1.316   2.665   5.620 -0.9565  0.7426  0.4433
   93SAPE  H13R 9177   1.419   2.707   5.630 -0.7446  0.1414  0.7931
   93SAPE  H13S 9178   1.289   2.697   5.517 -0.3001 -0.5450 -0.1520
   93SAPE  C214 9179   1.318   2.515   5.606 -0.5613  0.0708 -0.5256
   93SAPE  H14R 9180   1.239   2.455   5.653  0.5491 -2.8089 -2.1012
   93SAPE  C215 9181   1.415   2.446   5.540 -0.9189  0.9950 -0.4050
   93SAPE  H15R 9182   1.405   2.336   5.548 -0.1776  1.0504  2.1166
   93SAPE  C216 9183   1.520   2.496   5.446 -0.3040  0.1425  0.2536
   93SAPE  H16R 9184   1.609   2.479   5.510 -0.3009  2.8476  1.0977
   93SAPE  H16S 9185   1.529   2.606   5.435  2.5385 -0.0071  0.3903
   93SAPE  C217 9186   1.529   2.440   5.301 -0.0971 -0.2338  0.1226
   93SAPE  H17R 9187   1.489   2.337   5.313  0.6918 -0.5958 -0.2943
   93SAPE  H17S 9188   1.631   2.436   5.259  0.4505  1.8121  1.1381
   93SAPE  C218 9189   1.453   2.526   5.194 -0.3457 -0.6656 -0.3849
   93SAPE  H18R 9190   1.519   2.601   5.146 -0.3060 -2.0292 -2.5582
   93SAPE  H18S 9191   1.378   2.577   5.259 -1.0678 -0.5741 -1.2775
   93SAPE  C219 9192   1.389   2.443   5.080  0.6031  0.8963  0.0928
   93SAPE  H19R 9193   1.342   2.516   5.010 -2.4705 -1.9774 -1.1305
   93SAPE  H19S 9194   1.307   2.375   5.111  0.1752  0.5302 -1.7186
   93SAPE  C220 9195   1.498   2.362   5.003 -0.0539  0.9724 -0.0899
   93SAPE  H20R 9196   1.576   2.433   4.968 -0.8717  1.8390 -0.2032
   93SAPE  H20S 9197   1.448   2.304   4.922  1.4158 -1.1832  0.4632
   93SAPE  H20T 9198   1.537   2.287   5.075 -2.4431  0.5773  0.9123
   93SAPE   C33 9199   0.935   2.351   6.251 -0.2204  0.3276 -0.6196
   93SAPE   H3X 9200   1.018   2.286   6.218  0.8900  0.3773  1.8381
   93SAPE   H3Y 9201   0.974   2.456   6.250  0.1658  0.2777  1.7308
   93SAPE   C34 9202   0.802   2.348   6.172  0.8621 -0.0690 -0.0485
   93SAPE   H4X 9203   0.726   2.418   6.212 -1.1890 -2.8682  1.2909
   93SAPE   H4Y 9204   0.751   2.250   6.179  0.4484  0.2472  2.3672
   93SAPE   C35 9205   0.820   2.388   6.023 -0.2388 -0.7000 -0.0869
   93SAPE   H5X 9206   0.841   2.497   6.028  0.5075 -0.8422  0.0410
   93SAPE   H5Y 9207   0.722   2.377   5.972 -0.1255 -1.3089 -0.1881
   93SAPE   C36 9208   0.930   2.320   5.942  0.2156 -0.5212 -0.3185
   93SAPE   H6X 9209   0.902   2.213   5.938  1.5642 -1.0004  1.6071
   93SAPE   H6Y 9210   1.035   2.344   5.971 -0.1140  2.0860 -0.9847
   93SAPE   C37 9211   0.920   2.378   5.802  0.2190  0.0000 -0.3151
   93SAPE   H7X 9212   0.970   2.476   5.795 -1.0422  0.9008  2.0555
   93SAPE   H7Y 9213   0.812   2.394   5.780 -0.0647 -0.6168  0.5498
   93SAPE   C38 9214   0.968   2.277   5.692 -0.4516  0.6318  0.9122
   93SAPE   H8X 9215   0.910   2.182   5.692  0.4106  0.0889  0.7289
   93SAPE   H8Y 9216   1.074   2.242   5.692 -0.7047 -0.2138 -0.9519
   93SAPE   C39 9217   0.940   2.351   5.562 -0.5581 -0.0585  0.3143
   93SAPE   H9X 9218   1.011   2.435   5.546  0.0400 -0.8351 -1.3269
   93SAPE   H9Y 9219   0.836   2.387   5.572 -1.2976 -2.3712  1.7249
   93SAPE  C310 9220   0.946   2.251   5.446 -0.5189 -0.0618  0.2497
   93SAPE  H10X 9221   0.900   2.152   5.467  2.7966 -2.0740 -1.1903
   93SAPE  H10Y 9222   1.055   2.228   5.445 -0.7809 -1.7892  2.7382
   93SAPE  C311 9223   0.901   2.323   5.324 -0.3423  0.1676  0.6883
   93SAPE  H11X 9224   0.946   2.424   5.312  1.9137 -0.7047  1.2966
   93SAPE  H11Y 9225   0.792   2.343   5.331 -0.5333 -0.2120 -0.7124
   93SAPE  C312 9226   0.921   2.230   5.195 -0.2035  0.0504  0.0706
   93SAPE  H12X 9227   0.850   2.146   5.210  1.0983 -1.0362  0.3110
   93SAPE  H12Y 9228   1.024   2.189   5.187 -0.1433  0.5215 -3.6983
   93SAPE  C313 9229   0.900   2.301   5.069  0.0380 -0.3919  0.7212
   93SAPE  H13X 9230   0.965   2.391   5.071 -2.7412  1.7333  1.0283
   93SAPE  H13Y 9231   0.794   2.332   5.057 -0.4387 -1.0606  2.6923
   93SAPE  C314 9232   0.936   2.223   4.939  0.4331 -0.3265 -0.6818
   93SAPE  H14X 9233   1.046   2.232   4.929  0.4156 -1.8471 -2.9286
   93SAPE  H14Y 9234   0.903   2.273   4.845  0.3207  3.3863  1.1666
   93SAPE  C315 9235   0.885   2.077   4.940 -0.4962  0.9176  0.9966
   93SAPE  H15X 9236   0.777   2.064   4.964 -0.6515  1.0361  0.3686
   93SAPE  H15Y 9237   0.931   2.014   5.019  0.0147 -1.2589 -0.9407
   93SAPE  C316 9238   0.917   2.014   4.803  0.1638 -0.1211 -0.0385
   93SAPE  H16X 9239   1.026   1.993   4.801 -0.1654 -2.0620 -1.7698
   93SAPE  H16Y 9240   0.893   2.086   4.722 -2.0540  0.4996  1.1061
   93SAPE  C317 9241   0.845   1.879   4.779  0.0803 -0.5601 -0.1706
   93SAPE  H17X 9242   0.744   1.911   4.746  0.1387  0.2498  0.4138
   93SAPE  H17Y 9243   0.847   1.840   4.883 -0.7184  1.7817  0.7799
   93SAPE  C318 9244   0.908   1.774   4.688  0.1758 -0.2499 -0.3719
   93SAPE  H18X 9245   0.852   1.679   4.677 -1.1166  0.5730 -1.1486
   93SAPE  H18Y 9246   1.016   1.764   4.713 -0.1531 -0.5113  0.9911
   93SAPE  H18Z 9247   0.906   1.815   4.584  2.0684  2.5860  0.5750
   94SAPE     N 9248   0.117   4.056   6.836  0.0663 -0.4933 -0.0333
   94SAPE   HN1 9249   0.104   4.147   6.786  2.9556  1.4751  2.4475
   94SAPE   HN2 9250   0.208   4.008   6.821 -1.5389 -4.1879  1.0214
   94SAPE   HN3 9251   0.037   3.992   6.821 -0.1926 -0.7425  2.1473
   94SAPE   C12 9252   0.123   4.112   6.977  0.0043 -0.1118 -0.6217
   94SAPE  H12A 9253   0.143   4.221   6.967 -0.5540  0.2298  1.4833
   94SAPE  H12B 9254   0.206   4.064   7.033 -1.1676 -1.7168 -0.1889
   94SAPE   C11 9255  -0.005   4.084   7.062 -0.4950 -0.1555 -0.4625
   94SAPE  H11A 9256   0.021   4.124   7.163  0.0527 -2.5753  0.4313
   94SAPE  H11B 9257  -0.027   3.977   7.082 -0.5884 -0.1392 -0.4735
   94SAPE     P 9258  -0.169   4.286   7.021 -0.1703  0.0199 -0.4072
   94SAPE   O13 9259  -0.207   4.303   7.166  0.3041 -0.2728  0.1854
   94SAPE   O14 9260  -0.072   4.381   6.963 -0.5549 -0.1937 -0.2535
   94SAPE   O12 9261  -0.118   4.144   6.994  0.7082  0.2143  0.3360
   94SAPE   O11 9262  -0.302   4.292   6.942 -0.2216 -0.4356  0.1584
   94SAPE    C1 9263  -0.398   4.183   6.950 -0.1973  1.2610  0.7344
   94SAPE    HA 9264  -0.403   4.144   7.054  2.4347 -0.1861  0.4035
   94SAPE    HB 9265  -0.499   4.226   6.929 -0.4591  0.0597 -0.6356
   94SAPE    C2 9266  -0.385   4.074   6.833 -0.1664  0.1493 -0.2763
   94SAPE    HS 9267  -0.288   4.020   6.837 -0.4813 -0.3460  2.2444
   94SAPE   O21 9268  -0.407   4.130   6.703  0.1741 -0.5106  0.8538
   94SAPE   C21 9269  -0.294   4.175   6.651  0.5327 -0.4883  0.0680
   94SAPE   O22 9270  -0.183   4.156   6.694 -0.4429  0.3899 -0.0661
   94SAPE   C22 9271  -0.336   4.244   6.523  0.7267  0.1020  0.0394
   94SAPE   H2R 9272  -0.389   4.340   6.545  0.0682 -0.6080  1.6877
   94SAPE   H2S 9273  -0.248   4.263   6.458  0.8957 -0.7407  0.0139
   94SAPE    C3 9274  -0.489   3.964   6.851 -0.3062 -0.4477 -0.4299
   94SAPE    HX 9275  -0.585   4.007   6.886  1.4941  1.6641  2.3143
   94SAPE    HY 9276  -0.457   3.894   6.931  1.2711  0.9727  0.2426
   94SAPE   O31 9277  -0.509   3.877   6.734 -0.1536 -0.2199 -0.3132
   94SAPE   C31 9278  -0.606   3.899   6.656 -0.0180  1.5534  1.0709
   94SAPE   O32 9279  -0.689   3.988   6.664  0.1076  0.1982  0.6949
   94SAPE   C32 9280  -0.603   3.797   6.543 -0.2835 -0.9746 -0.1383
   94SAPE   H2X 9281  -0.643   3.701   6.583 -3.2620  0.9340  1.9755
   94SAPE   H2Y 9282  -0.497   3.784   6.514 -0.1794  0.4631 -0.4433
   94SAPE   C23 9283  -0.434   4.160   6.435  0.3477  0.3192 -0.3944
   94SAPE   H3R 9284  -0.524   4.151   6.499 -0.2902  1.1611 -1.1528
   94SAPE   H3S 9285  -0.394   4.059   6.415  0.8921  0.3878  0.3164
   94SAPE   C24 9286  -0.457   4.226   6.307  0.1299 -0.1119  0.3362
   94SAPE   H4R 9287  -0.367   4.232   6.242 -0.7936  0.3414 -0.9627
   94SAPE   H4S 9288  -0.471   4.332   6.337 -0.8717  0.2999 -1.4357
   94SAPE   C25 9289  -0.584   4.173   6.233 -0.2158 -0.4834 -0.1499
   94SAPE   H5R 9290  -0.670   4.174   6.302  0.3295  0.9083  0.5457
   94SAPE   C26 9291  -0.603   4.149   6.102 -0.0562  0.5477  0.3415
   94SAPE   H6R 9292  -0.702   4.134   6.058  0.7141 -0.6169 -1.0564
   94SAPE   C27 9293  -0.497   4.161   5.996  0.1537  0.1809 -0.8499
   94SAPE   H7R 9294  -0.401   4.197   6.039 -0.5510 -0.2101  1.1577
   94SAPE   H7S 9295  -0.512   4.243   5.922  2.5399  1.0449 -0.4541
   94SAPE   C28 9296  -0.480   4.034   5.911  0.0105 -0.3955 -0.2893
   94SAPE   H8R 9297  -0.485   3.933   5.954  0.8773 -1.5954 -2.8119
   94SAPE   C29 9298  -0.465   4.027   5.779  0.0574  0.3201 -0.2203
   94SAPE   H9R 9299  -0.456   3.926   5.735 -0.4429  1.2118 -2.5298
   94SAPE  C210 9300  -0.457   4.135   5.676 -0.4672 -0.7294  0.2599
   94SAPE  H10R 9301  -0.399   4.098   5.589 -1.9062 -0.6167 -0.7745
   94SAPE  H10S 9302  -0.409   4.224   5.721 -1.2938 -0.9250  1.5812
   94SAPE  C211 9303  -0.589   4.194   5.627  0.1597 -0.4261 -0.1598
   94SAPE  H11R 9304  -0.650   4.227   5.712  1.0760  0.6016  0.1169
   94SAPE  C212 9305  -0.631   4.200   5.499  0.3251  0.0293 -0.6886
   94SAPE  H12R 9306  -0.734   4.234   5.482  0.9135  1.4487 -1.6111
   94SAPE  C213 9307  -0.555   4.135   5.390 -0.1613  0.3159 -0.4389
   94SAPE  H13R 9308  -0.456   4.088   5.406  0.4322  0.8439 -2.3362
   94SAPE  H13S 9309  -0.530   4.214   5.317 -1.0746  0.3285 -0.7535
   94SAPE  C214 9310  -0.638   4.026   5.320 -0.6991  0.0509 -0.5453
   94SAPE  H14R 9311  -0.601   3.924   5.340  1.5701  0.8043 -0.6042
   94SAPE  C215 9312  -0.737   4.037   5.233  0.0509  0.7712 -0.4640
   94SAPE  H15R 9313  -0.792   3.945   5.210  0.1544  0.1055  1.7152
   94SAPE  C216 9314  -0.794   4.160   5.171 -0.3567 -0.7914  0.0111
   94SAPE  H16R 9315  -0.764   4.253   5.224 -1.5164 -2.0665  3.1155
   94SAPE  H16S 9316  -0.904   4.161   5.184 -0.1901  0.4363  1.6057
   94SAPE  C217 9317  -0.769   4.155   5.012  0.7243  0.1443 -0.6018
   94SAPE  H17R 9318  -0.833   4.234   4.967 -2.2538 -2.1566 -0.6944
   94SAPE  H17S 9319  -0.808   4.057   4.978  2.1370 -1.0303  1.0094
   94SAPE  C218 9320  -0.624   4.176   4.974  0.1178  0.6287 -0.6649
   94SAPE  H18R 9321  -0.555   4.099   5.015 -0.5336 -0.3315 -1.3241
   94SAPE  H18S 9322  -0.606   4.274   5.022  1.5971 -0.7156  1.7409
   94SAPE  C219 9323  -0.594   4.174   4.824 -0.7773  0.0732 -0.2617
   94SAPE  H19R 9324  -0.590   4.075   4.774 -2.9161  0.9552 -2.4185
   94SAPE  H19S 9325  -0.488   4.205   4.813 -0.9895  4.0481  4.7262
   94SAPE  C220 9326  -0.678   4.262   4.733 -0.4835 -0.5194 -0.4218
   94SAPE  H20R 9327  -0.616   4.345   4.693  2.2088 -1.2700  1.8623
   94SAPE  H20S 9328  -0.772   4.304   4.776 -0.1258 -0.2796  0.1368
   94SAPE  H20T 9329  -0.700   4.201   4.643 -1.3465  0.3066 -0.7884
   94SAPE   C33 9330  -0.683   3.841   6.416 -0.3919  0.7346  0.4774
   94SAPE   H3X 9331  -0.666   3.950   6.398 -1.0110  0.7307 -0.1597
   94SAPE   H3Y 9332  -0.791   3.828   6.437  0.1597 -0.5745  2.9161
   94SAPE   C34 9333  -0.615   3.755   6.308 -0.1517  0.2205  0.4529
   94SAPE   H4X 9334  -0.617   3.648   6.337 -3.8040 -0.3405 -1.2332
   94SAPE   H4Y 9335  -0.510   3.788   6.296  0.1990 -0.3380  1.7469
   94SAPE   C35 9336  -0.689   3.752   6.175  0.3364 -0.2417  0.3569
   94SAPE   H5X 9337  -0.690   3.858   6.141 -1.7659  0.1482  1.4816
   94SAPE   H5Y 9338  -0.795   3.723   6.193  0.6883 -2.3175 -0.5629
   94SAPE   C36 9339  -0.625   3.661   6.066  0.5817 -0.9831 -0.3010
   94SAPE   H6X 9340  -0.633   3.553   6.091 -0.8028 -0.5799  1.1639
   94SAPE   H6Y 9341  -0.516   3.680   6.050  0.0906  1.9911 -0.7046
   94SAPE   C37 9342  -0.697   3.672   5.934  0.4690  0.4379 -0.1509
   94SAPE   H7X 9343  -0.735   3.774   5.914 -2.4314 -0.6564 -0.8187
   94SAPE   H7Y 9344  -0.794   3.617   5.939 -1.1791  3.2358  0.9992
   94SAPE   C38 9345  -0.624   3.602   5.819 -0.3903 -0.0625  0.0434
   94SAPE   H8X 9346  -0.640   3.492   5.823 -2.0929 -0.0063 -2.4067
   94SAPE   H8Y 9347  -0.516   3.629   5.814 -0.3198 -0.2090  0.7770
   94SAPE   C39 9348  -0.680   3.638   5.679  0.3286  0.3584 -0.0965
   94SAPE   H9X 9349  -0.654   3.745   5.660 -0.1594  0.1051 -2.4576
   94SAPE   H9Y 9350  -0.789   3.618   5.677 -0.0477  2.2147 -0.6976
   94SAPE  C310 9351  -0.605   3.555   5.566  0.7225 -0.1188 -0.1337
   94SAPE  H10X 9352  -0.669   3.469   5.540  0.3438  0.1835 -0.2201
   94SAPE  H10Y 9353  -0.508   3.512   5.599  1.1258 -1.1733 -2.5382
   94SAPE  C311 9354  -0.582   3.653   5.439  0.1102  0.0388 -0.8370
   94SAPE  H11X 9355  -0.512   3.735   5.467 -2.0773  1.5959  0.4907
   94SAPE  H11Y 9356  -0.672   3.718   5.424 -1.4260 -1.4605  1.1731
   94SAPE  C312 9357  -0.554   3.564   5.316  0.3842  0.3344  0.1246
   94SAPE  H12X 9358  -0.630   3.482   5.317 -0.3381  0.9839  0.0358
   94SAPE  H12Y 9359  -0.462   3.505   5.335  0.7847  0.0420 -2.4146
   94SAPE  C313 9360  -0.557   3.640   5.181  0.1602  0.2763  0.2517
   94SAPE  H13X 9361  -0.464   3.701   5.188 -0.9333  1.8878  1.9616
   94SAPE  H13Y 9362  -0.652   3.699   5.174 -0.8335 -1.1587  1.1867
   94SAPE  C314 9363  -0.557   3.543   5.059 -0.1195  1.0951 -0.2119
   94SAPE  H14X 9364  -0.629   3.468   5.096  0.3885  1.5046  1.7138
   94SAPE  H14Y 9365  -0.455   3.500   5.049  0.0874  2.0038 -2.8722
   94SAPE  C315 9366  -0.610   3.613   4.929 -0.4271  0.1295  0.2100
   94SAPE  H15X 9367  -0.526   3.670   4.884 -2.1437  1.2437 -1.7832
   94SAPE  H15Y 9368  -0.698   3.677   4.950  0.4503  1.2379  0.5808
   94SAPE  C316 9369  -0.657   3.514   4.818 -0.7354  0.3070 -0.3347
   94SAPE  H16X 9370  -0.707   3.561   4.730  0.3199 -1.5438 -2.0183
   94SAPE  H16Y 9371  -0.728   3.445   4.868 -0.9498  0.2542 -0.7073
   94SAPE  C317 9372  -0.539   3.429   4.767 -0.2682 -0.9740  0.7488
   94SAPE  H17X 9373  -0.473   3.400   4.851  2.2224  4.1303  0.8896
   94SAPE  H17Y 9374  -0.467   3.488   4.707  0.8821 -2.3638  0.7156
   94SAPE  C318 9375  -0.575   3.314   4.666  0.4326  1.0572 -0.4784
   94SAPE  H18X 9376  -0.648   3.345   4.589 -0.9682  2.6332  1.3708
   94SAPE  H18Y 9377  -0.626   3.232   4.722  2.9847 -0.1749  0.1852
   94SAPE  H18Z 9378  -0.483   3.262   4.633  0.8047 -0.5553  2.6960
   95SAPE     N 9379   3.083   1.891   6.581  0.0086 -0.5589 -0.7731
   95SAPE   HN1 9380   3.123   1.980   6.545  1.3238  0.1929  2.2866
   95SAPE   HN2 9381   2.981   1.883   6.563 -0.3713  0.1459  0.8934
   95SAPE   HN3 9382   3.088   1.893   6.685 -0.1448 -1.8572 -0.7175
   95SAPE   C12 9383   3.139   1.778   6.522  0.1734 -0.4587  0.0909
   95SAPE  H12A 9384   3.243   1.804   6.491 -0.5140  2.0479 -0.3142
   95SAPE  H12B 9385   3.080   1.761   6.429  0.5037  0.9198 -0.3905
   95SAPE   C11 9386   3.136   1.664   6.624 -0.4128 -0.1012  0.2824
   95SAPE  H11A 9387   3.215   1.672   6.702  1.1298 -0.7789 -1.1451
   95SAPE  H11B 9388   3.171   1.576   6.567  2.9847  1.7012 -0.6853
   95SAPE     P 9389   2.950   1.554   6.789 -0.1279 -0.1596  0.7002
   95SAPE   O13 9390   3.001   1.424   6.758 -0.4455  0.6402  0.4657
   95SAPE   O14 9391   2.979   1.610   6.925 -1.0161 -0.1605 -0.2264
   95SAPE   O12 9392   3.002   1.648   6.675  0.9940 -0.1033 -0.0729
   95SAPE   O11 9393   2.801   1.557   6.763  0.5672 -0.6251 -0.7672
   95SAPE    C1 9394   2.724   1.666   6.706 -0.3138  0.0669  0.6767
   95SAPE    HA 9395   2.621   1.678   6.747  0.2158  0.4490  1.9495
   95SAPE    HB 9396   2.766   1.765   6.735 -2.9195  1.5364 -0.2630
   95SAPE    C2 9397   2.712   1.642   6.557 -0.1156  0.0378  0.2837
   95SAPE    HS 9398   2.814   1.623   6.517 -1.4978 -1.8449 -2.7220
   95SAPE   O21 9399   2.644   1.756   6.506  0.4674 -0.4675 -0.4011
   95SAPE   C21 9400   2.711   1.855   6.463 -0.0823 -0.3350 -0.3420
   95SAPE   O22 9401   2.833   1.870   6.463 -0.6547 -0.4219  0.2395
   95SAPE   C22 9402   2.613   1.962   6.412  0.6297  0.5279 -0.5566
   95SAPE   H2R 9403   2.527   1.970   6.482 -0.4389  0.4051 -1.8279
   95SAPE   H2S 9404   2.654   2.064   6.421 -0.5117  0.8687  1.2746
   95SAPE    C3 9405   2.643   1.505   6.520  0.1954 -0.4805 -0.5455
   95SAPE    HX 9406   2.543   1.506   6.567  0.9708 -1.9990  1.2364
   95SAPE    HY 9407   2.683   1.422   6.582 -1.4160 -0.0559  1.1615
   95SAPE   O31 9408   2.642   1.471   6.380 -0.0214 -0.5353  0.2146
   95SAPE   C31 9409   2.542   1.526   6.308  0.6677 -0.0114  0.0962
   95SAPE   O32 9410   2.446   1.584   6.358 -0.1310  0.0203  0.4481
   95SAPE   C32 9411   2.575   1.524   6.159  0.0483  0.3857  0.3650
   95SAPE   H2X 9412   2.596   1.420   6.125 -0.5053  0.0763  0.9391
   95SAPE   H2Y 9413   2.666   1.586   6.149 -0.4189  1.6903  3.1008
   95SAPE   C23 9414   2.561   1.954   6.263  0.3487  0.3235 -0.6228
   95SAPE   H3R 9415   2.479   2.029   6.256  0.9737  0.9039 -2.0881
   95SAPE   H3S 9416   2.532   1.850   6.238 -2.1945  1.0236 -0.8807
   95SAPE   C24 9417   2.670   2.000   6.166  0.8031  0.0360  0.1535
   95SAPE   H4R 9418   2.757   1.931   6.180  0.4721 -1.5049 -3.9031
   95SAPE   H4S 9419   2.686   2.104   6.199  0.9400  0.3050 -0.7346
   95SAPE   C25 9420   2.622   2.006   6.018 -0.1336 -0.3294 -0.0234
   95SAPE   H5R 9421   2.524   2.052   6.002  0.5101  0.6095 -1.5316
   95SAPE   C26 9422   2.681   1.955   5.910 -0.3079 -0.4800  0.5523
   95SAPE   H6R 9423   2.633   1.981   5.815  0.8941 -0.4505 -0.0757
   95SAPE   C27 9424   2.817   1.888   5.899 -0.3022  0.1491 -1.0013
   95SAPE   H7R 9425   2.851   1.900   5.794 -0.3482 -1.3574 -1.2235
   95SAPE   H7S 9426   2.801   1.779   5.914 -1.2088  0.4553  0.4173
   95SAPE   C28 9427   2.929   1.941   5.987  0.2838  0.6030  0.3199
   95SAPE   H8R 9428   2.922   2.050   6.004 -1.2980  0.9503 -2.0514
   95SAPE   C29 9429   3.034   1.866   6.041  0.1578 -0.0642  0.0643
   95SAPE   H9R 9430   3.093   1.923   6.114  0.7263 -1.9907  1.1597
   95SAPE  C210 9431   3.056   1.719   6.048 -0.0348  0.2919  0.1017
   95SAPE  H10R 9432   3.165   1.698   6.049 -0.2591 -1.1609 -1.6769
   95SAPE  H10S 9433   3.016   1.660   5.963  1.3588  0.0954 -0.4301
   95SAPE  C211 9434   3.001   1.645   6.170  0.0717  1.3993 -0.2171
   95SAPE  H11R 9435   2.944   1.700   6.245  0.9572  0.8221  0.9156
   95SAPE  C212 9436   2.996   1.513   6.179  0.4570 -0.8036 -0.4701
   95SAPE  H12R 9437   2.947   1.468   6.266  1.2409 -1.2157 -0.2298
   95SAPE  C213 9438   3.056   1.405   6.096  0.2290  0.0003  0.3087
   95SAPE  H13R 9439   3.132   1.442   6.024  2.7481 -1.7598  1.8849
   95SAPE  H13S 9440   2.970   1.360   6.042 -0.2528 -1.0146  1.8548
   95SAPE  C214 9441   3.118   1.295   6.169 -0.5202 -0.5712 -0.3988
   95SAPE  H14R 9442   3.091   1.276   6.274 -0.5235  2.0515  0.1437
   95SAPE  C215 9443   3.205   1.206   6.117 -0.7366 -0.2552  0.1054
   95SAPE  H15R 9444   3.245   1.125   6.179 -0.6090 -1.2268 -1.2087
   95SAPE  C216 9445   3.249   1.221   5.973 -0.1348  0.3165 -0.0214
   95SAPE  H16R 9446   3.202   1.304   5.915 -0.8253 -0.7501 -1.0489
   95SAPE  H16S 9447   3.222   1.131   5.914 -0.2405  0.8343 -0.7854
   95SAPE  C217 9448   3.402   1.231   5.945 -0.2227  0.0338  0.4158
   95SAPE  H17R 9449   3.442   1.132   5.979  0.2335  0.1206  0.1346
   95SAPE  H17S 9450   3.439   1.304   6.020 -0.0672 -0.9484  1.3413
   95SAPE  C218 9451   3.448   1.269   5.811 -0.1577 -0.5142  0.2518
   95SAPE  H18R 9452   3.558   1.285   5.799 -0.4269  2.8414  1.3244
   95SAPE  H18S 9453   3.404   1.368   5.787  0.3188 -0.0222  1.3476
   95SAPE  C219 9454   3.415   1.165   5.712  0.0762  0.6654  0.2156
   95SAPE  H19R 9455   3.305   1.155   5.703  0.1618 -0.4020  0.1237
   95SAPE  H19S 9456   3.461   1.070   5.747 -0.1935  0.5340  0.2149
   95SAPE  C220 9457   3.464   1.180   5.569  0.1857  0.5870  0.0698
   95SAPE  H20R 9458   3.541   1.260   5.569  0.9490 -0.0480 -2.4546
   95SAPE  H20S 9459   3.380   1.212   5.503 -1.1149  3.2667  2.7698
   95SAPE  H20T 9460   3.523   1.093   5.533 -0.5631  0.6462 -1.3981
   95SAPE   C33 9461   2.462   1.576   6.065  1.1201  0.4576 -0.0870
   95SAPE   H3X 9462   2.432   1.681   6.087 -3.1141 -0.3979 -0.9312
   95SAPE   H3Y 9463   2.367   1.520   6.079  1.3220  0.3914  1.0982
   95SAPE   C34 9464   2.494   1.571   5.919 -0.1384 -0.2741  0.6786
   95SAPE   H4X 9465   2.539   1.474   5.886 -0.0523  0.2575 -0.8380
   95SAPE   H4Y 9466   2.571   1.647   5.894  0.9368 -2.2257 -2.5568
   95SAPE   C35 9467   2.361   1.580   5.833 -0.1355  0.5548 -0.4329
   95SAPE   H5X 9468   2.308   1.676   5.850 -2.3610 -0.7503  0.6044
   95SAPE   H5Y 9469   2.288   1.497   5.851  0.9429 -0.4371 -0.5315
   95SAPE   C36 9470   2.392   1.562   5.686  0.4547 -0.1851  1.3750
   95SAPE   H6X 9471   2.458   1.473   5.681 -1.4364 -1.5624 -0.1397
   95SAPE   H6Y 9472   2.447   1.652   5.650 -1.4294  0.9883  1.2817
   95SAPE   C37 9473   2.260   1.532   5.616 -0.7520 -0.3272 -0.1226
   95SAPE   H7X 9474   2.175   1.598   5.644  0.6900  1.3884  0.3559
   95SAPE   H7Y 9475   2.236   1.426   5.643  1.0159 -0.5299  0.7617
   95SAPE   C38 9476   2.273   1.517   5.465  0.1716  0.5720  0.4936
   95SAPE   H8X 9477   2.367   1.463   5.441  1.6859  3.1854  0.2078
   95SAPE   H8Y 9478   2.285   1.616   5.417  1.7478 -0.0096 -0.3858
   95SAPE   C39 9479   2.146   1.448   5.402 -0.0614  0.1380  0.3079
   95SAPE   H9X 9480   2.060   1.511   5.432  0.4743  0.7468  0.5920
   95SAPE   H9Y 9481   2.136   1.347   5.447  0.5911  1.7711  4.5533
   95SAPE  C310 9482   2.147   1.433   5.250  0.2068  0.0853  0.3410
   95SAPE  H10X 9483   2.052   1.381   5.224  0.3553 -0.9014  1.6820
   95SAPE  H10Y 9484   2.234   1.371   5.218 -1.0009  0.1218 -3.5474
   95SAPE  C311 9485   2.148   1.568   5.171 -0.0945  0.2131 -0.6943
   95SAPE  H11X 9486   2.239   1.622   5.204 -1.1019  1.4698  0.1182
   95SAPE  H11Y 9487   2.059   1.615   5.220 -0.1111 -0.8479  0.3608
   95SAPE  C312 9488   2.135   1.578   5.018  0.1790 -0.6490  1.1403
   95SAPE  H12X 9489   2.234   1.538   4.989  0.5665  0.1989  1.2634
   95SAPE  H12Y 9490   2.128   1.674   4.963 -2.2095 -1.8792 -0.8979
   95SAPE  C313 9491   2.032   1.485   4.952  0.4265 -0.0476  0.4665
   95SAPE  H13X 9492   1.933   1.531   4.927 -0.4821 -1.2812  1.6569
   95SAPE  H13Y 9493   2.012   1.405   5.026  0.0732  0.5233  1.0049
   95SAPE  C314 9494   2.084   1.413   4.825  0.2829 -0.1046 -0.4191
   95SAPE  H14X 9495   2.124   1.484   4.749  1.7486 -0.9911 -0.5344
   95SAPE  H14Y 9496   2.004   1.353   4.777  0.2340 -2.4408  2.2693
   95SAPE  C315 9497   2.208   1.317   4.840 -0.3009 -0.2854  0.2850
   95SAPE  H15X 9498   2.297   1.383   4.847  0.9075 -1.6723 -1.1640
   95SAPE  H15Y 9499   2.222   1.263   4.744  2.5904  0.6381  0.0870
   95SAPE  C316 9500   2.218   1.213   4.957 -0.4400  0.1965  0.0394
   95SAPE  H16X 9501   2.123   1.157   4.971  0.3968 -1.6452 -1.1652
   95SAPE  H16Y 9502   2.244   1.269   5.049  3.7630  1.7904 -1.8398
   95SAPE  C317 9503   2.320   1.098   4.944  0.1831 -0.3872  0.1696
   95SAPE  H17X 9504   2.315   1.061   4.839  0.9660 -1.8456  0.6215
   95SAPE  H17Y 9505   2.304   1.028   5.029  2.2636 -0.8307  0.2478
   95SAPE  C318 9506   2.467   1.145   4.949  0.4738  0.1754  0.4065
   95SAPE  H18X 9507   2.480   1.188   5.051  1.0754 -0.2644  0.5197
   95SAPE  H18Y 9508   2.483   1.215   4.864  0.1001 -1.7671 -1.3244
   95SAPE  H18Z 9509   2.543   1.068   4.927 -0.8965 -1.0670 -0.1941
   96SAPE     N 9510   0.093   5.307   6.795  0.3450  0.6176 -0.0708
   96SAPE   HN1 9511   0.033   5.332   6.714  0.3118 -0.5846 -0.4338
   96SAPE   HN2 9512   0.189   5.275   6.771  0.8035  1.7451  0.1690
   96SAPE   HN3 9513   0.040   5.228   6.838 -0.0173  0.9803  0.1543
   96SAPE   C12 9514   0.109   5.432   6.879 -0.3579  0.0920  0.3039
   96SAPE  H12A 9515   0.175   5.402   6.963 -0.5594  3.0759  1.6251
   96SAPE  H12B 9516   0.008   5.458   6.915 -0.6048  0.5810 -0.7196
   96SAPE   C11 9517   0.172   5.538   6.785 -0.1711 -0.2790  0.0655
   96SAPE  H11A 9518   0.098   5.585   6.717  1.6265  0.6182 -1.3979
   96SAPE  H11B 9519   0.254   5.495   6.722  0.0110 -1.7524  1.2580
   96SAPE     P 9520   0.377   5.631   6.928  0.3988  0.1402  0.0538
   96SAPE   O13 9521   0.400   5.751   7.013  0.2767 -0.3185 -0.4221
   96SAPE   O14 9522   0.409   5.504   6.996  0.0880  0.3004  0.1492
   96SAPE   O12 9523   0.227   5.637   6.872 -0.1505  0.4309  0.5979
   96SAPE   O11 9524   0.454   5.636   6.794 -1.0796 -0.0191  0.8465
   96SAPE    C1 9525   0.429   5.747   6.705 -0.6050 -0.4782 -0.8427
   96SAPE    HA 9526   0.325   5.741   6.666 -1.2500  0.9507  0.5272
   96SAPE    HB 9527   0.436   5.837   6.770  2.2397 -0.5722 -0.8863
   96SAPE    C2 9528   0.541   5.780   6.606  0.0221  0.8531  0.1550
   96SAPE    HS 9529   0.526   5.871   6.545  1.9064  1.6593  0.8189
   96SAPE   O21 9530   0.562   5.665   6.516  0.5429 -0.2166 -0.6652
   96SAPE   C21 9531   0.488   5.655   6.408  0.2138 -0.1002  0.5136
   96SAPE   O22 9532   0.408   5.733   6.370 -0.1313 -0.0186  0.1111
   96SAPE   C22 9533   0.522   5.522   6.335 -0.2061  0.1935 -0.1516
   96SAPE   H2R 9534   0.597   5.470   6.399 -0.5512  0.2297  0.2892
   96SAPE   H2S 9535   0.431   5.460   6.342  0.3328 -0.5895  0.0944
   96SAPE    C3 9536   0.682   5.816   6.671  0.6655  0.2520  0.6749
   96SAPE    HX 9537   0.706   5.745   6.753  0.8888  1.9755  2.1546
   96SAPE    HY 9538   0.670   5.913   6.723 -0.1390 -0.8365  2.6315
   96SAPE   O31 9539   0.786   5.822   6.571  0.6672  0.4967  0.0329
   96SAPE   C31 9540   0.862   5.713   6.548 -0.7163  0.9709  0.1288
   96SAPE   O32 9541   0.843   5.604   6.591 -0.0585  0.4995 -0.4612
   96SAPE   C32 9542   0.993   5.766   6.481  0.0906 -0.1888 -0.0521
   96SAPE   H2X 9543   1.069   5.741   6.557 -0.5001  0.0436  0.6285
   96SAPE   H2Y 9544   0.986   5.875   6.462 -1.4475 -0.3530 -0.6119
   96SAPE   C23 9545   0.563   5.528   6.187 -0.0162  0.2085  0.5403
   96SAPE   H3R 9546   0.615   5.434   6.159  0.7577  0.6663  0.4184
   96SAPE   H3S 9547   0.629   5.617   6.173 -0.4014  0.5037  0.5704
   96SAPE   C24 9548   0.437   5.541   6.101  0.6249 -0.2417  0.2284
   96SAPE   H4R 9549   0.394   5.640   6.126  1.1253  0.2915 -0.9486
   96SAPE   H4S 9550   0.351   5.474   6.124  0.5347 -0.6047 -1.0775
   96SAPE   C25 9551   0.463   5.535   5.951 -0.0081  0.4058  0.2117
   96SAPE   H5R 9552   0.572   5.531   5.934  0.3397  0.0181  2.2237
   96SAPE   C26 9553   0.370   5.532   5.858 -0.2043 -0.8154 -0.1115
   96SAPE   H6R 9554   0.403   5.533   5.753  0.0515 -2.5475 -0.0753
   96SAPE   C27 9555   0.221   5.555   5.880  0.7945  0.1927 -0.4507
   96SAPE   H7R 9556   0.183   5.494   5.965  1.0366 -2.3609 -2.0996
   96SAPE   H7S 9557   0.171   5.510   5.792  0.3422  1.2849 -0.7739
   96SAPE   C28 9558   0.174   5.694   5.907 -0.4089 -0.1745 -0.2053
   96SAPE   H8R 9559   0.197   5.727   6.009  0.9616 -1.2083 -0.1552
   96SAPE   C29 9560   0.101   5.768   5.830  0.5261 -0.4279 -0.4691
   96SAPE   H9R 9561   0.097   5.875   5.856  1.4831 -0.4236 -0.3118
   96SAPE  C210 9562   0.058   5.728   5.683 -0.0674  0.3214  0.2758
   96SAPE  H10R 9563  -0.052   5.744   5.681  0.0817  2.0713  2.2404
   96SAPE  H10S 9564   0.075   5.621   5.657 -2.1425  0.1062 -0.3336
   96SAPE  C211 9565   0.117   5.825   5.590  0.5114 -0.2024 -0.3982
   96SAPE  H11R 9566   0.116   5.925   5.636 -0.0518 -0.1747 -0.4746
   96SAPE  C212 9567   0.167   5.800   5.471 -0.0535 -0.3746 -0.0485
   96SAPE  H12R 9568   0.224   5.879   5.420 -0.1107  0.4793  1.1604
   96SAPE  C213 9569   0.168   5.673   5.384  0.2304 -0.3367 -0.0581
   96SAPE  H13R 9570   0.144   5.587   5.450 -0.0395  0.0501  0.3608
   96SAPE  H13S 9571   0.272   5.658   5.349  1.5322  2.8972  1.9308
   96SAPE  C214 9572   0.062   5.684   5.277 -0.2268  0.3399  0.5203
   96SAPE  H14R 9573  -0.041   5.686   5.314 -0.2954 -2.1002  0.6301
   96SAPE  C215 9574   0.078   5.682   5.144  0.1730  0.0400  0.7725
   96SAPE  H15R 9575  -0.015   5.694   5.086 -1.1375 -0.4400  2.6842
   96SAPE  C216 9576   0.203   5.656   5.065 -0.4372 -0.5777  0.3930
   96SAPE  H16R 9577   0.293   5.694   5.119  0.4123  0.3803 -1.5911
   96SAPE  H16S 9578   0.209   5.721   4.975  0.6941 -0.0660  0.8090
   96SAPE  C217 9579   0.233   5.510   5.028 -0.2820 -0.2569  0.2901
   96SAPE  H17R 9580   0.243   5.460   5.126  0.8900  0.7831  0.7285
   96SAPE  H17S 9581   0.334   5.496   4.982  0.3748  2.2080  0.8249
   96SAPE  C218 9582   0.124   5.443   4.942  0.3871 -0.2258  0.1610
   96SAPE  H18R 9583   0.103   5.512   4.857 -0.2089  1.4688  1.6298
   96SAPE  H18S 9584   0.033   5.445   5.006  2.2069  0.5891  2.8496
   96SAPE  C219 9585   0.155   5.302   4.902 -0.1397  0.6292 -0.3542
   96SAPE  H19R 9586   0.138   5.236   4.990  0.8416 -0.1752 -0.7425
   96SAPE  H19S 9587   0.261   5.278   4.879  0.3836  0.8626  1.5771
   96SAPE  C220 9588   0.070   5.254   4.786  0.2936  0.7883  0.0139
   96SAPE  H20R 9589  -0.036   5.261   4.816  0.5318  0.0107  1.1190
   96SAPE  H20S 9590   0.091   5.147   4.762 -1.7305  0.3113  0.1733
   96SAPE  H20T 9591   0.068   5.321   4.698 -0.6520  1.3351  0.4429
   96SAPE   C33 9592   1.029   5.688   6.352 -0.1252 -0.0233 -0.1646
   96SAPE   H3X 9593   1.057   5.581   6.358 -2.3211 -1.0784 -4.5828
   96SAPE   H3Y 9594   1.119   5.737   6.308 -0.5939  0.6288 -0.4097
   96SAPE   C34 9595   0.922   5.690   6.250  0.3594  0.1839  0.0591
   96SAPE   H4X 9596   0.855   5.776   6.270  1.0248  0.6311  0.4120
   96SAPE   H4Y 9597   0.862   5.597   6.263  2.0249 -1.0514 -0.6542
   96SAPE   C35 9598   0.974   5.695   6.107  1.0069 -0.4466 -0.5127
   96SAPE   H5X 9599   1.066   5.635   6.089  1.3912  0.2504 -0.9212
   96SAPE   H5Y 9600   0.996   5.802   6.087  2.3496 -0.1851  1.9401
   96SAPE   C36 9601   0.870   5.640   6.006  0.1566  0.3691  0.1643
   96SAPE   H6X 9602   0.790   5.716   6.018 -0.6431 -0.5337  0.6810
   96SAPE   H6Y 9603   0.824   5.544   6.038 -0.3496  0.1828 -1.0470
   96SAPE   C37 9604   0.914   5.634   5.860 -0.4101  0.0464 -0.7472
   96SAPE   H7X 9605   0.987   5.551   5.852 -0.9052 -0.6218  1.0968
   96SAPE   H7Y 9606   0.984   5.719   5.843 -0.8842  0.6775  0.2990
   96SAPE   C38 9607   0.804   5.623   5.762 -0.2195 -0.6016 -0.1247
   96SAPE   H8X 9608   0.757   5.722   5.743 -0.3778 -0.5698  0.4199
   96SAPE   H8Y 9609   0.731   5.544   5.787 -1.3306  0.9060  1.7020
   96SAPE   C39 9610   0.862   5.586   5.619  0.4039 -0.6657  0.3066
   96SAPE   H9X 9611   0.769   5.572   5.560  1.4498  1.1068 -1.9583
   96SAPE   H9Y 9612   0.935   5.503   5.626  1.5598  0.4632  3.2955
   96SAPE  C310 9613   0.940   5.709   5.563 -0.1337  0.8559 -0.4039
   96SAPE  H10X 9614   1.044   5.709   5.599 -0.6387  0.0281  1.1371
   96SAPE  H10Y 9615   0.882   5.803   5.578 -2.3591 -0.2894 -1.2722
   96SAPE  C311 9616   0.957   5.691   5.412 -0.6413  0.5272  0.2286
   96SAPE  H11X 9617   0.858   5.665   5.368  0.2363 -0.9719 -0.9673
   96SAPE  H11Y 9618   1.022   5.602   5.396  0.3608  0.7511  2.6216
   96SAPE  C312 9619   1.009   5.813   5.343  0.1002 -0.5851 -1.4111
   96SAPE  H12X 9620   1.100   5.848   5.398  0.3062 -3.3682  0.1854
   96SAPE  H12Y 9621   0.937   5.893   5.371 -2.5245 -3.7933  2.0640
   96SAPE  C313 9622   1.040   5.788   5.201  0.1192 -0.1756  0.0006
   96SAPE  H13X 9623   0.971   5.708   5.165  2.5316 -1.6491 -1.6707
   96SAPE  H13Y 9624   1.144   5.752   5.187  0.3650  0.7300 -0.5868
   96SAPE  C314 9625   1.016   5.905   5.104  0.0836  0.2844  1.0393
   96SAPE  H14X 9626   1.070   5.988   5.155  0.7401  1.4912 -1.4672
   96SAPE  H14Y 9627   0.909   5.930   5.094  0.2178  0.4043 -0.4159
   96SAPE  C315 9628   1.089   5.893   4.970  0.2542  0.8516 -0.4245
   96SAPE  H15X 9629   1.196   5.910   4.994 -0.1918  2.3899  0.5824
   96SAPE  H15Y 9630   1.052   5.969   4.899 -1.0153  0.9257  0.3012
   96SAPE  C316 9631   1.084   5.751   4.909  0.1235 -0.1326  0.2972
   96SAPE  H16X 9632   0.984   5.703   4.907 -0.6331  1.4058 -0.2712
   96SAPE  H16Y 9633   1.150   5.678   4.960  0.6213  0.1117  0.0078
   96SAPE  C317 9634   1.131   5.756   4.763 -0.2420  0.1848  0.2312
   96SAPE  H17X 9635   1.062   5.825   4.710 -0.3981  0.2190  0.4738
   96SAPE  H17Y 9636   1.123   5.653   4.722 -0.6040 -0.1088  1.0025
   96SAPE  C318 9637   1.278   5.794   4.744  0.2528  0.4945 -0.9483
   96SAPE  H18X 9638   1.339   5.718   4.797 -2.5804 -0.3101  1.4570
   96SAPE  H18Y 9639   1.297   5.900   4.771 -0.2567  0.8654 -2.0002
   96SAPE  H18Z 9640   1.303   5.789   4.636  1.2760  0.7162 -0.7304
   97SAPE     N 9641   6.543   5.889   6.734  0.1306  0.7480  0.2716
   97SAPE   HN1 9642   6.461   5.950   6.718 -1.3677 -1.2007  0.0842
   97SAPE   HN2 9643   6.536   5.853   6.832  1.1343 -0.8927 -0.2177
   97SAPE   HN3 9644   6.626   5.952   6.736 -0.1400  1.0925  1.1751
   97SAPE   C12 9645   6.546   5.774   6.634  0.3579 -0.2981  0.1568
   97SAPE  H12A 9646   6.642   5.719   6.636  0.1245 -0.7251 -0.2211
   97SAPE  H12B 9647   6.518   5.822   6.538  1.0455  0.6783  0.4226
   97SAPE   C11 9648   6.432   5.677   6.680 -0.2250  0.6696 -0.6487
   97SAPE  H11A 9649   6.467   5.620   6.769  0.0896  0.3200 -0.9901
   97SAPE  H11B 9650   6.409   5.604   6.599 -0.8288 -2.1264  1.8264
   97SAPE     P 9651   6.197   5.711   6.800 -0.5113  0.0127  0.1159
   97SAPE   O13 9652   6.216   5.574   6.862 -0.6027  0.3463  0.0132
   97SAPE   O14 9653   6.154   5.826   6.879 -0.4882  0.1128 -0.5207
   97SAPE   O12 9654   6.319   5.753   6.716 -0.2024 -0.3693 -0.4966
   97SAPE   O11 9655   6.094   5.703   6.682 -0.4615  0.3367  0.1900
   97SAPE    C1 9656   6.050   5.811   6.608 -0.6146 -0.4482 -0.1139
   97SAPE    HA 9657   5.949   5.840   6.643 -0.5559  0.5617 -0.7283
   97SAPE    HB 9658   6.107   5.904   6.629 -1.5385 -0.1493  1.1328
   97SAPE    C2 9659   6.076   5.783   6.461  0.2120  0.2031 -0.0525
   97SAPE    HS 9660   6.040   5.868   6.399 -1.1600 -1.3187 -1.4294
   97SAPE   O21 9661   6.004   5.664   6.410 -0.2833 -0.3109  0.1852
   97SAPE   C21 9662   5.875   5.677   6.394  0.1803  0.0093 -0.0506
   97SAPE   O22 9663   5.814   5.784   6.415 -0.6763  0.6679 -0.6923
   97SAPE   C22 9664   5.818   5.548   6.333  0.1050 -0.3998  0.5005
   97SAPE   H2R 9665   5.879   5.457   6.357 -0.0360 -0.9643 -1.1619
   97SAPE   H2S 9666   5.719   5.541   6.384 -0.1117  1.0458  0.3042
   97SAPE    C3 9667   6.223   5.775   6.430  0.0938 -0.1041  0.4900
   97SAPE    HX 9668   6.278   5.697   6.487 -1.8713 -0.4395  2.0071
   97SAPE    HY 9669   6.273   5.866   6.470 -0.4707  0.1816  0.5571
   97SAPE   O31 9670   6.250   5.755   6.290  1.2613  0.5486  0.0365
   97SAPE   C31 9671   6.270   5.633   6.246  0.6667 -0.5620  1.0499
   97SAPE   O32 9672   6.282   5.534   6.313 -0.3665 -0.1783 -0.0136
   97SAPE   C32 9673   6.299   5.650   6.098 -0.0435  0.7581  0.6642
   97SAPE   H2X 9674   6.335   5.752   6.069 -0.0403  1.0114  1.5289
   97SAPE   H2Y 9675   6.200   5.632   6.050  0.3618  2.0435 -0.7498
   97SAPE   C23 9676   5.801   5.554   6.178  0.0349 -0.5289 -0.1551
   97SAPE   H3R 9677   5.740   5.639   6.141 -2.5783 -2.4571 -0.5424
   97SAPE   H3S 9678   5.739   5.465   6.157 -1.4539  0.5460 -0.4601
   97SAPE   C24 9679   5.936   5.545   6.106 -1.4989  0.0056 -0.1060
   97SAPE   H4R 9680   6.003   5.625   6.145  1.6835 -2.6397  0.3308
   97SAPE   H4S 9681   5.912   5.570   6.000 -0.3898 -0.4081 -0.4709
   97SAPE   C25 9682   6.015   5.407   6.123 -0.0039 -0.4332  0.2483
   97SAPE   H5R 9683   6.056   5.392   6.224 -0.8873  1.7194  0.9816
   97SAPE   C26 9684   6.042   5.314   6.030 -0.0427  0.3399 -0.2315
   97SAPE   H6R 9685   6.085   5.217   6.060  0.5385  0.9336  0.9006
   97SAPE   C27 9686   5.999   5.332   5.881 -0.1635 -0.0488 -0.2862
   97SAPE   H7R 9687   5.898   5.378   5.872 -1.4177 -2.2715  1.3744
   97SAPE   H7S 9688   5.991   5.230   5.836  0.8721  0.8124 -2.5349
   97SAPE   C28 9689   6.095   5.409   5.792  0.6792 -0.2288  0.2026
   97SAPE   H8R 9690   6.197   5.369   5.805  0.4851 -0.3640  1.3730
   97SAPE   C29 9691   6.070   5.516   5.714  0.2068 -0.4680 -0.1435
   97SAPE   H9R 9692   6.152   5.553   5.652 -0.4724 -0.8762 -1.3135
   97SAPE  C210 9693   5.952   5.608   5.698 -0.2054 -0.4663 -0.3039
   97SAPE  H10R 9694   5.970   5.713   5.669 -0.2347 -0.9922 -2.3951
   97SAPE  H10S 9695   5.886   5.617   5.787  0.6606  1.5581  0.1724
   97SAPE  C211 9696   5.876   5.537   5.590  0.0792 -0.0477 -0.7172
   97SAPE  H11R 9697   5.845   5.434   5.610 -1.8223  0.4339 -1.0046
   97SAPE  C212 9698   5.838   5.595   5.475  0.1199  0.1767 -0.3419
   97SAPE  H12R 9699   5.794   5.532   5.396 -0.7643 -0.3007  0.5187
   97SAPE  C213 9700   5.876   5.736   5.428 -0.9297  0.1229 -0.0371
   97SAPE  H13R 9701   5.840   5.804   5.508  1.2128  1.3641 -0.0419
   97SAPE  H13S 9702   5.812   5.757   5.341  1.8029  1.0051 -1.9732
   97SAPE  C214 9703   6.021   5.766   5.397  0.3018  0.1016 -0.0802
   97SAPE  H14R 9704   6.077   5.677   5.364 -1.2809 -0.6374 -0.8867
   97SAPE  C215 9705   6.081   5.883   5.433  0.2510 -0.1880  0.6073
   97SAPE  H15R 9706   6.188   5.894   5.410  0.1993  3.5395  1.6322
   97SAPE  C216 9707   6.001   6.010   5.478  0.2460  0.0169  0.0382
   97SAPE  H16R 9708   6.053   6.065   5.560 -0.5281  0.7399  0.0636
   97SAPE  H16S 9709   5.896   5.989   5.507  0.7382 -0.3296  1.6827
   97SAPE  C217 9710   5.968   6.111   5.368  0.0254  0.8606  1.3079
   97SAPE  H17R 9711   6.060   6.154   5.322  1.0229 -2.3020  0.0604
   97SAPE  H17S 9712   5.908   6.197   5.403 -1.8995 -0.4828  1.4670
   97SAPE  C218 9713   5.883   6.049   5.253  0.2104 -0.0233 -0.1315
   97SAPE  H18R 9714   5.786   6.010   5.292 -0.8524  1.0952 -1.5426
   97SAPE  H18S 9715   5.940   5.979   5.187  1.3108  0.3988  0.3471
   97SAPE  C219 9716   5.830   6.156   5.148  0.1117  0.3783 -1.5452
   97SAPE  H19R 9717   5.916   6.209   5.102  1.7473  0.4470  1.3440
   97SAPE  H19S 9718   5.774   6.226   5.214 -0.4175  0.4296 -2.0527
   97SAPE  C220 9719   5.731   6.085   5.054 -0.3754 -0.5102 -0.8947
   97SAPE  H20R 9720   5.715   6.147   4.964  0.6981  2.6008  0.8732
   97SAPE  H20S 9721   5.636   6.079   5.111  0.1710  1.6966  0.3939
   97SAPE  H20T 9722   5.764   5.982   5.031  3.6645  0.7205 -1.4362
   97SAPE   C33 9723   6.403   5.555   6.047 -0.4032 -0.2713  0.3096
   97SAPE   H3X 9724   6.354   5.456   6.062  0.8368 -0.8646  0.5982
   97SAPE   H3Y 9725   6.497   5.561   6.108 -0.4421 -0.8386  0.4383
   97SAPE   C34 9726   6.450   5.571   5.897  0.6562  0.0543 -0.1147
   97SAPE   H4X 9727   6.535   5.641   5.883  0.1756  0.4036 -1.5437
   97SAPE   H4Y 9728   6.363   5.607   5.838  1.5704  1.3246 -0.7409
   97SAPE   C35 9729   6.506   5.435   5.835  0.2061  0.4863 -1.1474
   97SAPE   H5X 9730   6.436   5.349   5.834  1.8405 -0.9724  0.7051
   97SAPE   H5Y 9731   6.585   5.401   5.906 -2.1764 -1.9976  0.5215
   97SAPE   C36 9732   6.556   5.449   5.684 -0.1353 -0.3167  0.3641
   97SAPE   H6X 9733   6.594   5.349   5.652  0.0450  0.0716 -0.6366
   97SAPE   H6Y 9734   6.640   5.520   5.693  1.3878 -2.1204  1.1443
   97SAPE   C37 9735   6.433   5.493   5.592  0.0858 -0.3143  0.6615
   97SAPE   H7X 9736   6.373   5.578   5.633  1.8826  1.1485  0.4180
   97SAPE   H7Y 9737   6.359   5.411   5.585 -0.8932  0.5841  0.0629
   97SAPE   C38 9738   6.466   5.528   5.449 -0.7746  0.9674 -0.2657
   97SAPE   H8X 9739   6.485   5.432   5.396  2.7417  1.4498 -0.1516
   97SAPE   H8Y 9740   6.551   5.599   5.443 -0.5065  0.6333 -0.4281
   97SAPE   C39 9741   6.352   5.593   5.366  0.2019  0.1991 -0.4558
   97SAPE   H9X 9742   6.315   5.675   5.432 -0.0778 -0.4189  0.1793
   97SAPE   H9Y 9743   6.272   5.518   5.346  0.9222 -0.8832  0.5805
   97SAPE  C310 9744   6.381   5.636   5.222 -0.3042 -0.0069 -0.2327
   97SAPE  H10X 9745   6.428   5.736   5.231  0.8764 -0.6768  1.8680
   97SAPE  H10Y 9746   6.284   5.643   5.169 -1.6352 -2.9764  1.5252
   97SAPE  C311 9747   6.466   5.535   5.143  0.1938 -0.8431  0.1015
   97SAPE  H11X 9748   6.437   5.428   5.147  2.5057 -1.7023 -2.5228
   97SAPE  H11Y 9749   6.572   5.550   5.172  1.2181 -0.7078 -3.2552
   97SAPE  C312 9750   6.454   5.562   4.998 -0.9254 -0.2714  1.3101
   97SAPE  H12X 9751   6.353   5.534   4.962 -0.3145  1.6874 -2.4502
   97SAPE  H12Y 9752   6.530   5.501   4.944 -1.7881 -0.6945  0.5452
   97SAPE  C313 9753   6.475   5.711   4.957 -0.0929 -0.0986 -0.1047
   97SAPE  H13X 9754   6.558   5.760   5.012  0.6434 -1.6650  0.2414
   97SAPE  H13Y 9755   6.386   5.770   4.989  1.0337  1.6314 -0.0201
   97SAPE  C314 9756   6.490   5.728   4.810 -0.2960  0.4576 -0.1487
   97SAPE  H14X 9757   6.389   5.717   4.765 -0.5959  1.5087  0.2243
   97SAPE  H14Y 9758   6.554   5.652   4.763  0.7154  1.8741 -1.1498
   97SAPE  C315 9759   6.547   5.867   4.777 -0.1964 -0.4045 -0.2403
   97SAPE  H15X 9760   6.657   5.879   4.791 -0.1576 -1.1026  0.1006
   97SAPE  H15Y 9761   6.506   5.934   4.855 -0.6242  1.5720 -2.0780
   97SAPE  C316 9762   6.490   5.914   4.634 -0.4963  0.8416  0.3158
   97SAPE  H16X 9763   6.380   5.932   4.635 -1.1552 -2.4978  0.4807
   97SAPE  H16Y 9764   6.499   5.832   4.559  0.8077  1.5653 -0.3484
   97SAPE  C317 9765   6.565   6.033   4.587  0.3512 -0.0592  0.3011
   97SAPE  H17X 9766   6.538   6.043   4.480  0.3741 -1.4301  0.1520
   97SAPE  H17Y 9767   6.673   6.009   4.585  0.7820  1.3911  2.4838
   97SAPE  C318 9768   6.549   6.162   4.669  1.1781 -0.3049  1.0415
   97SAPE  H18X 9769   6.602   6.168   4.766  0.9993 -0.9197  1.1746
   97SAPE  H18Y 9770   6.441   6.161   4.694  1.1873 -0.1661  1.0930
   97SAPE  H18Z 9771   6.574   6.251   4.606  0.6113 -0.9254 -0.0966
   98SAPE     N 9772   4.831   0.327   7.108 -0.3480 -0.5092 -0.2745
   98SAPE   HN1 9773   4.831   0.377   7.199  1.0362  0.6890 -0.8913
   98SAPE   HN2 9774   4.894   0.389   7.053 -0.7435  1.9481  1.8342
   98SAPE   HN3 9775   4.733   0.343   7.077 -0.1680 -0.0493 -0.6304
   98SAPE   C12 9776   4.870   0.181   7.109  0.5977  0.1798 -0.9329
   98SAPE  H12A 9777   4.863   0.152   7.002  0.2636 -0.6090 -0.7087
   98SAPE  H12B 9778   4.786   0.136   7.166  0.4607 -1.0205 -2.0240
   98SAPE   C11 9779   5.007   0.164   7.170  0.3541 -0.0325 -0.5309
   98SAPE  H11A 9780   5.021   0.058   7.201 -0.6902  0.5019  2.0357
   98SAPE  H11B 9781   5.016   0.221   7.264  1.2611  1.0662 -1.2669
   98SAPE     P 9782   5.179   0.110   6.981  0.3210  0.4608 -0.1188
   98SAPE   O13 9783   5.257   0.182   6.878  0.1463  0.4284  0.4056
   98SAPE   O14 9784   5.254   0.012   7.061 -0.1054 -0.5569  0.0179
   98SAPE   O12 9785   5.113   0.213   7.084 -0.4019 -0.4573  0.4563
   98SAPE   O11 9786   5.054   0.036   6.921  0.4732 -0.0613 -0.2283
   98SAPE    C1 9787   4.985   0.082   6.806 -0.1009 -0.4129 -0.3974
   98SAPE    HA 9788   4.882   0.040   6.808 -0.7639  1.1798  0.4932
   98SAPE    HB 9789   4.981   0.191   6.787  0.5576 -0.3003  0.0683
   98SAPE    C2 9790   5.052   0.024   6.678  0.8067  0.3678  0.8885
   98SAPE    HS 9791   5.159   0.056   6.680  0.4003  1.8651  0.1722
   98SAPE   O21 9792   4.969   0.070   6.565 -0.8017  0.1017 -0.4830
   98SAPE   C21 9793   5.009   0.187   6.516 -0.4426  0.3437  0.1217
   98SAPE   O22 9794   5.105   0.251   6.553  0.5045 -0.2285  0.2266
   98SAPE   C22 9795   4.920   0.221   6.400  0.4803  1.0158  0.0629
   98SAPE   H2R 9796   4.873   0.317   6.431  0.8909  0.6793  1.8031
   98SAPE   H2S 9797   4.973   0.240   6.304  2.5115 -0.1180  0.8831
   98SAPE    C3 9798   5.050  -0.132   6.689 -0.1555 -0.3806  0.3011
   98SAPE    HX 9799   4.950  -0.162   6.726 -0.0648  0.7407  1.5105
   98SAPE    HY 9800   5.130  -0.151   6.763 -0.0966  0.6373  0.5109
   98SAPE   O31 9801   5.082  -0.192   6.559  0.0141 -0.2041 -0.0715
   98SAPE   C31 9802   5.040  -0.313   6.544 -0.6970  0.4329 -0.0567
   98SAPE   O32 9803   4.986  -0.381   6.632 -0.9658  0.0417  0.0367
   98SAPE   C32 9804   5.070  -0.363   6.401 -0.3702  0.4401  0.4652
   98SAPE   H2X 9805   5.180  -0.381   6.398 -0.5711 -0.9064  0.3228
   98SAPE   H2Y 9806   5.039  -0.289   6.325  0.1730 -0.2269 -0.4280
   98SAPE   C23 9807   4.790   0.127   6.366 -0.1772 -1.2598  0.4022
   98SAPE   H3R 9808   4.733   0.201   6.306  1.5061 -1.3178 -1.3923
   98SAPE   H3S 9809   4.725   0.089   6.447  1.9501 -3.5265  1.1614
   98SAPE   C24 9810   4.836   0.010   6.276 -0.6513  0.9495  1.1724
   98SAPE   H4R 9811   4.904  -0.057   6.333 -1.9495  0.2028  1.8808
   98SAPE   H4S 9812   4.912   0.044   6.202 -1.4738  0.7908  0.2318
   98SAPE   C25 9813   4.726  -0.063   6.200 -0.5813 -0.0581 -0.0447
   98SAPE   H5R 9814   4.652  -0.120   6.259 -0.3786  1.9258  2.2778
   98SAPE   C26 9815   4.720  -0.063   6.073 -0.4032 -0.1794 -0.2063
   98SAPE   H6R 9816   4.645  -0.135   6.036 -0.1778 -0.7406  0.4154
   98SAPE   C27 9817   4.795   0.028   5.979  0.2632  0.5913  0.0570
   98SAPE   H7R 9818   4.816   0.133   6.010  0.4057 -0.0426  2.2045
   98SAPE   H7S 9819   4.730   0.042   5.889 -1.4574  0.6243  1.2514
   98SAPE   C28 9820   4.919  -0.042   5.928 -0.0164  0.0398 -0.3781
   98SAPE   H8R 9821   4.996  -0.053   6.006 -1.4341 -0.1546  1.0439
   98SAPE   C29 9822   4.946  -0.077   5.799  0.0015  0.3817  0.5880
   98SAPE   H9R 9823   5.037  -0.134   5.774 -0.1768  0.8554 -1.3047
   98SAPE  C210 9824   4.861  -0.038   5.677 -0.6416  0.3345  0.2645
   98SAPE  H10R 9825   4.922  -0.056   5.587 -1.2671  0.5158 -0.2058
   98SAPE  H10S 9826   4.836   0.070   5.670 -1.1686  0.1487 -1.1091
   98SAPE  C211 9827   4.738  -0.123   5.676  0.1657  0.1466 -0.9013
   98SAPE  H11R 9828   4.708  -0.175   5.768  0.5457  0.2296 -0.7258
   98SAPE  C212 9829   4.659  -0.149   5.572 -0.5715  0.2746  0.0042
   98SAPE  H12R 9830   4.578  -0.224   5.574  1.3058 -1.8768  0.0891
   98SAPE  C213 9831   4.682  -0.094   5.430  0.0524  0.1691  0.5370
   98SAPE  H13R 9832   4.771  -0.135   5.378 -0.5284 -0.1144 -0.2489
   98SAPE  H13S 9833   4.703   0.015   5.439  3.4522 -0.1480 -1.7487
   98SAPE  C214 9834   4.575  -0.111   5.324 -0.1446 -0.2601  0.2536
   98SAPE  H14R 9835   4.490  -0.175   5.353  0.0812 -0.7855 -0.2313
   98SAPE  C215 9836   4.585  -0.082   5.190  0.6808 -0.2915 -0.1104
   98SAPE  H15R 9837   4.489  -0.078   5.136  0.8958 -1.0111 -0.5520
   98SAPE  C216 9838   4.692  -0.014   5.112 -0.3087 -0.3353 -0.5087
   98SAPE  H16R 9839   4.784  -0.025   5.172  0.6241 -0.2509 -1.8864
   98SAPE  H16S 9840   4.663   0.091   5.092 -3.4522 -1.0976 -0.4800
   98SAPE  C217 9841   4.706  -0.087   4.983  0.5112 -0.0356  0.1524
   98SAPE  H17R 9842   4.606  -0.108   4.939  0.0737  0.5561  0.8555
   98SAPE  H17S 9843   4.749  -0.185   5.014  2.9714  1.2920  1.1681
   98SAPE  C218 9844   4.791  -0.007   4.884 -0.4886 -0.0062  0.2860
   98SAPE  H18R 9845   4.898   0.001   4.914 -0.3612  2.8822 -0.5979
   98SAPE  H18S 9846   4.750   0.096   4.880  1.0333  0.6119 -2.0628
   98SAPE  C219 9847   4.783  -0.062   4.741  0.1124  0.5933 -0.0797
   98SAPE  H19R 9848   4.686  -0.087   4.692  2.3313 -2.7101 -3.3544
   98SAPE  H19S 9849   4.838  -0.158   4.746 -0.7377 -0.1354 -2.9333
   98SAPE  C220 9850   4.855   0.033   4.642  0.0751 -0.0135 -0.1412
   98SAPE  H20R 9851   4.953   0.077   4.670  0.7628 -1.3476 -0.3833
   98SAPE  H20S 9852   4.786   0.115   4.611 -1.2686 -0.3777  1.6858
   98SAPE  H20T 9853   4.880  -0.024   4.550  1.4123 -1.8947  1.3096
   98SAPE   C33 9854   4.996  -0.490   6.347 -0.3294  0.1584 -0.1950
   98SAPE   H3X 9855   4.886  -0.482   6.360 -0.7436 -2.1866 -1.7396
   98SAPE   H3Y 9856   5.030  -0.566   6.421  0.0209 -0.6053 -1.1302
   98SAPE   C34 9857   5.038  -0.554   6.216  0.2064 -0.6350 -0.5676
   98SAPE   H4X 9858   4.965  -0.636   6.196 -1.8247  0.8465  0.3274
   98SAPE   H4Y 9859   5.142  -0.588   6.231  1.4590  1.7634 -2.9495
   98SAPE   C35 9860   5.026  -0.456   6.101 -0.1494  0.0667 -0.0358
   98SAPE   H5X 9861   5.096  -0.373   6.128 -2.3791  1.5275  1.6803
   98SAPE   H5Y 9862   4.925  -0.413   6.116 -0.0947 -0.2542  1.3919
   98SAPE   C36 9863   5.041  -0.531   5.971  0.0344 -0.2397 -0.5855
   98SAPE   H6X 9864   4.977  -0.622   5.966 -1.1988  0.6127 -0.6099
   98SAPE   H6Y 9865   5.145  -0.566   5.951 -0.0167 -0.9222  0.2929
   98SAPE   C37 9866   4.995  -0.444   5.851  0.1965  0.1007  0.4582
   98SAPE   H7X 9867   5.070  -0.363   5.838 -1.5180  1.5909 -0.6265
   98SAPE   H7Y 9868   4.889  -0.412   5.863  0.1113 -0.3026  0.8330
   98SAPE   C38 9869   5.012  -0.515   5.710 -0.7396 -0.3384 -0.4400
   98SAPE   H8X 9870   4.954  -0.607   5.732  0.3662 -0.5593  1.8440
   98SAPE   H8Y 9871   5.122  -0.532   5.702 -0.8898 -0.6400 -2.0614
   98SAPE   C39 9872   4.962  -0.428   5.595  0.6745 -0.2137  0.2858
   98SAPE   H9X 9873   5.013  -0.330   5.588 -1.3547  1.0018  1.3880
   98SAPE   H9Y 9874   4.860  -0.399   5.629  0.5538 -1.0972  0.7050
   98SAPE  C310 9875   4.974  -0.499   5.455  0.7926  0.3792  0.6478
   98SAPE  H10X 9876   4.905  -0.586   5.447  1.4109 -0.0171 -0.8364
   98SAPE  H10Y 9877   5.082  -0.526   5.452  0.7461  0.2681 -1.1684
   98SAPE  C311 9878   4.956  -0.397   5.345  0.0364  0.5047 -0.4135
   98SAPE  H11X 9879   5.034  -0.319   5.355 -0.4495  1.0400 -0.7125
   98SAPE  H11Y 9880   4.862  -0.339   5.358 -0.6288 -0.0170 -2.5163
   98SAPE  C312 9881   4.958  -0.450   5.205 -0.5469  0.5939  0.8107
   98SAPE  H12X 9882   4.948  -0.364   5.135  0.6064  1.5479  1.7688
   98SAPE  H12Y 9883   4.864  -0.506   5.186 -1.1356  1.0368  2.2081
   98SAPE  C313 9884   5.077  -0.535   5.165  1.0683 -0.5207 -0.1242
   98SAPE  H13X 9885   5.054  -0.635   5.208  0.9145  0.7381  2.9698
   98SAPE  H13Y 9886   5.167  -0.491   5.213 -0.1870  2.0137  0.0483
   98SAPE  C314 9887   5.088  -0.539   5.011 -0.5356  0.8915 -0.2554
   98SAPE  H14X 9888   5.182  -0.596   4.998 -0.8640  0.5603 -1.2488
   98SAPE  H14Y 9889   5.115  -0.442   4.962  1.7612  0.2370 -0.4153
   98SAPE  C315 9890   4.981  -0.616   4.935 -1.2341 -0.2689  0.0954
   98SAPE  H15X 9891   4.886  -0.561   4.923 -1.4527 -0.9074 -1.3716
   98SAPE  H15Y 9892   4.961  -0.715   4.982  0.5426 -0.2956  0.8996
   98SAPE  C316 9893   5.032  -0.625   4.786 -0.0100  0.0759 -0.6519
   98SAPE  H16X 9894   5.139  -0.654   4.777  1.0122  1.8161  3.4854
   98SAPE  H16Y 9895   5.037  -0.521   4.746  0.3581  0.2667 -0.1284
   98SAPE  C317 9896   4.941  -0.706   4.701 -0.1730  0.3337  0.6741
   98SAPE  H17X 9897   4.841  -0.657   4.707 -1.1571 -1.5023  0.2203
   98SAPE  H17Y 9898   4.926  -0.806   4.747  2.0586 -1.1255 -1.5377
   98SAPE  C318 9899   4.999  -0.713   4.562 -0.2786  0.9016  0.0046
   98SAPE  H18X 9900   4.941  -0.774   4.490  2.5200 -2.9498  0.6817
   98SAPE  H18Y 9901   5.099  -0.761   4.562  0.1501  1.7640  0.4674
   98SAPE  H18Z 9902   5.015  -0.607   4.532  0.0357  0.2656 -2.2581
   99SAPE     N 9903   0.649   5.385   7.030 -0.6573 -0.4759  0.2488
   99SAPE   HN1 9904   0.656   5.386   6.926  0.5330  0.0866  0.3198
   99SAPE   HN2 9905   0.636   5.288   7.064 -0.9997 -0.6620 -0.3875
   99SAPE   HN3 9906   0.566   5.446   7.042  0.0005  0.4205  0.3070
   99SAPE   C12 9907   0.762   5.452   7.099 -0.0763 -0.0226 -0.1535
   99SAPE  H12A 9908   0.849   5.385   7.118 -1.0688 -1.3154  0.0114
   99SAPE  H12B 9909   0.717   5.501   7.188 -0.9610  0.5560 -0.8996
   99SAPE   C11 9910   0.822   5.561   7.010 -0.8224 -0.4208  0.0288
   99SAPE  H11A 9911   0.739   5.616   6.960 -0.9232  1.4507  2.1366
   99SAPE  H11B 9912   0.886   5.516   6.930  0.2468 -1.5730  1.4731
   99SAPE     P 9913   0.917   5.797   7.053  0.0539  0.0883  0.4281
   99SAPE   O13 9914   0.780   5.846   7.075 -0.2720 -0.2594 -0.1250
   99SAPE   O14 9915   1.028   5.866   7.127 -0.0911  0.0285 -0.3695
   99SAPE   O12 9916   0.908   5.647   7.084 -0.1956  0.4906 -0.0136
   99SAPE   O11 9917   0.948   5.801   6.898  0.2305  0.1130 -0.7086
   99SAPE    C1 9918   1.072   5.744   6.848  0.0077 -0.1833 -0.0129
   99SAPE    HA 9919   1.099   5.655   6.908  0.5158  0.0222  0.0644
   99SAPE    HB 9920   1.060   5.687   6.754  0.3165 -0.3433  0.0434
   99SAPE    C2 9921   1.191   5.849   6.841  0.4990 -0.1736 -0.1242
   99SAPE    HS 9922   1.191   5.911   6.934 -3.0987  1.2069 -0.8618
   99SAPE   O21 9923   1.181   5.934   6.727  0.7338  0.0759  0.6173
   99SAPE   C21 9924   1.259   6.038   6.729  0.3120 -0.6471 -0.7103
   99SAPE   O22 9925   1.329   6.073   6.824  0.9643  0.0072 -0.4108
   99SAPE   C22 9926   1.251   6.112   6.594 -0.3976  0.4982  0.3867
   99SAPE   H2R 9927   1.268   6.043   6.509 -1.7619  2.5001 -1.6506
   99SAPE   H2S 9928   1.148   6.153   6.597 -0.1128  1.4440 -1.3437
   99SAPE    C3 9929   1.321   5.762   6.836 -0.2035 -0.2098 -0.0813
   99SAPE    HX 9930   1.321   5.699   6.928  1.2504  1.5481  1.2092
   99SAPE    HY 9931   1.403   5.836   6.851  0.5128 -0.9026 -0.5027
   99SAPE   O31 9932   1.322   5.681   6.714 -0.5683 -0.3640  0.5826
   99SAPE   C31 9933   1.401   5.724   6.617  0.4728 -0.2319 -0.1649
   99SAPE   O32 9934   1.461   5.830   6.621 -0.1439  0.0941 -0.2621
   99SAPE   C32 9935   1.395   5.636   6.490  0.3974 -1.6084 -0.0356
   99SAPE   H2X 9936   1.307   5.568   6.485 -0.4997 -0.5238  0.5335
   99SAPE   H2Y 9937   1.489   5.577   6.482 -0.7691 -3.3406 -1.9564
   99SAPE   C23 9938   1.347   6.231   6.581 -0.2770  0.0551 -0.2823
   99SAPE   H3R 9939   1.372   6.273   6.681  0.8254 -0.1088 -0.4691
   99SAPE   H3S 9940   1.297   6.309   6.520 -0.4009  0.4520  0.3189
   99SAPE   C24 9941   1.477   6.195   6.502 -0.5220 -0.1281  0.5961
   99SAPE   H4R 9942   1.456   6.149   6.403 -0.1211  0.5143  0.1994
   99SAPE   H4S 9943   1.547   6.122   6.548  1.6395  1.0719 -0.5937
   99SAPE   C25 9944   1.556   6.320   6.479 -0.2004 -0.0567  1.3895
   99SAPE   H5R 9945   1.614   6.355   6.566  0.9493 -1.5302  1.2503
   99SAPE   C26 9946   1.562   6.387   6.364  0.1545  0.2241 -0.0210
   99SAPE   H6R 9947   1.637   6.468   6.365 -0.3013  0.6618  1.9778
   99SAPE   C27 9948   1.504   6.348   6.232  0.3888  0.1932 -0.4935
   99SAPE   H7R 9949   1.415   6.282   6.239 -1.4622  2.5961  0.0218
   99SAPE   H7S 9950   1.579   6.283   6.183 -1.2077 -1.1887 -1.2046
   99SAPE   C28 9951   1.473   6.473   6.153  0.0217 -0.0105 -0.1324
   99SAPE   H8R 9952   1.385   6.535   6.175 -0.1664 -0.0191 -0.8216
   99SAPE   C29 9953   1.542   6.501   6.043  0.5008 -0.9811  1.3443
   99SAPE   H9R 9954   1.520   6.595   5.990  0.9513 -0.1181  2.6121
   99SAPE  C210 9955   1.654   6.413   5.982  0.2598 -0.0344 -1.0936
   99SAPE  H10R 9956   1.723   6.385   6.065 -1.2811 -0.8814 -0.0433
   99SAPE  H10S 9957   1.720   6.470   5.913 -0.1934  2.0441  0.0844
   99SAPE  C211 9958   1.608   6.291   5.911 -0.0612  0.2108 -0.0649
   99SAPE  H11R 9959   1.604   6.205   5.979 -2.6198  1.8726  2.0539
   99SAPE  C212 9960   1.599   6.274   5.780  0.5985 -0.3422 -0.1109
   99SAPE  H12R 9961   1.550   6.182   5.746 -1.5382  0.0449  1.6562
   99SAPE  C213 9962   1.607   6.383   5.676  0.6609 -0.0749  0.4681
   99SAPE  H13R 9963   1.697   6.446   5.693  0.5884 -0.1862  1.3191
   99SAPE  H13S 9964   1.520   6.452   5.675  0.8257  0.2082 -2.4419
   99SAPE  C214 9965   1.596   6.331   5.536 -0.5784  0.5574 -0.0551
   99SAPE  H14R 9966   1.591   6.221   5.529  0.4822  0.3368  1.8293
   99SAPE  C215 9967   1.588   6.406   5.427 -0.0437 -0.4666  0.6119
   99SAPE  H15R 9968   1.574   6.367   5.325 -1.2467  1.4244  0.0014
   99SAPE  C216 9969   1.602   6.562   5.425 -0.4417 -0.7913 -0.5075
   99SAPE  H16R 9970   1.700   6.600   5.461 -1.1088  0.1009  0.3908
   99SAPE  H16S 9971   1.532   6.599   5.502 -0.2744  0.1044 -0.7780
   99SAPE  C217 9972   1.573   6.642   5.292 -0.1839  0.2697 -0.3793
   99SAPE  H17R 9973   1.565   6.747   5.330 -1.5957 -0.0535  0.2871
   99SAPE  H17S 9974   1.486   6.604   5.235  0.8146 -1.9972 -0.4764
   99SAPE  C218 9975   1.685   6.637   5.189 -0.0353  0.1808 -0.3394
   99SAPE  H18R 9976   1.735   6.537   5.188  1.2273  0.7445  1.7048
   99SAPE  H18S 9977   1.765   6.707   5.221  0.3277 -0.8421  1.1494
   99SAPE  C219 9978   1.648   6.676   5.046 -0.1335  0.0099 -0.0864
   99SAPE  H19R 9979   1.727   6.687   4.969 -1.4344 -2.1441 -1.8589
   99SAPE  H19S 9980   1.598   6.775   5.035  0.6088  0.8348  3.1056
   99SAPE  C220 9981   1.562   6.574   4.971  0.4610 -0.0175 -0.3427
   99SAPE  H20R 9982   1.483   6.530   5.036 -0.1922  0.4512 -0.8191
   99SAPE  H20S 9983   1.625   6.491   4.932 -1.3629 -0.3843 -2.7307
   99SAPE  H20T 9984   1.512   6.612   4.880 -0.2820  2.7308  1.1212
   99SAPE   C33 9985   1.398   5.738   6.375  0.0712  0.2213  0.2392
   99SAPE   H3X 9986   1.494   5.794   6.380  0.3395 -0.1969 -0.1382
   99SAPE   H3Y 9987   1.316   5.813   6.378 -0.5134 -0.4103  0.3098
   99SAPE   C34 9988   1.414   5.660   6.247  1.3830  0.5917 -0.7417
   99SAPE   H4X 9989   1.328   5.589   6.250  2.1340 -0.2933  1.4238
   99SAPE   H4Y 9990   1.507   5.602   6.231 -0.1448 -1.6508 -2.0473
   99SAPE   C35 9991   1.403   5.751   6.127 -0.0415 -0.0575  0.4992
   99SAPE   H5X 9992   1.497   5.808   6.114 -0.0129  0.4254  2.4973
   99SAPE   H5Y 9993   1.320   5.825   6.134  0.9221  0.9764  1.2483
   99SAPE   C36 9994   1.361   5.671   5.993 -0.0757  0.7732  0.5474
   99SAPE   H6X 9995   1.255   5.637   6.000  0.4162 -1.4559 -1.4550
   99SAPE   H6Y 9996   1.430   5.586   5.974  0.0184  0.9904 -0.0952
   99SAPE   C37 9997   1.369   5.760   5.873 -0.3629  0.1579 -0.4314
   99SAPE   H7X 9998   1.476   5.785   5.861 -0.7042  1.3760 -1.0938
   99SAPE   H7Y 9999   1.310   5.851   5.899 -0.9216 -0.1478 -0.6121
   99SAPE   C3810000   1.327   5.685   5.742  0.2006  0.7962 -0.9708
   99SAPE   H8X10001   1.215   5.685   5.746  0.0614  4.9076  2.2677
   99SAPE   H8Y10002   1.378   5.587   5.744  2.7570  2.0508  0.9245
   99SAPE   C3910003   1.373   5.764   5.619 -0.9651  0.8157 -0.3455
   99SAPE   H9X10004   1.483   5.777   5.625 -0.6796 -1.4200 -0.0503
   99SAPE   H9Y10005   1.327   5.865   5.624 -0.3084  1.1358 -0.6815
   99SAPE  C31010006   1.330   5.696   5.490  0.1280  0.4103  0.1232
   99SAPE  H10X10007   1.346   5.787   5.428  1.0797  0.1900  0.0346
   99SAPE  H10Y10008   1.223   5.667   5.476  0.4457 -0.0354 -1.7107
   99SAPE  C31110009   1.417   5.574   5.452 -0.0514  0.5529 -0.0636
   99SAPE  H11X10010   1.395   5.497   5.529 -0.2552 -0.3679 -1.0271
   99SAPE  H11Y10011   1.524   5.603   5.461 -0.0619  0.5378  0.1196
   99SAPE  C31210012   1.395   5.526   5.309 -0.3491  0.2166  0.1276
   99SAPE  H12X10013   1.407   5.605   5.232 -0.1988  0.1823  0.1152
   99SAPE  H12Y10014   1.290   5.489   5.298 -0.3621 -0.2499  1.6285
   99SAPE  C31310015   1.495   5.419   5.273 -0.1120 -0.6938 -0.4187
   99SAPE  H13X10016   1.506   5.361   5.367 -0.9263 -1.1375 -0.5845
   99SAPE  H13Y10017   1.595   5.464   5.254 -0.3451 -0.5789 -1.4260
   99SAPE  C31410018   1.444   5.333   5.158 -0.8240 -0.3839 -0.7891
   99SAPE  H14X10019   1.344   5.291   5.184 -2.0207  3.2495  1.2661
   99SAPE  H14Y10020   1.509   5.244   5.142 -0.9714 -0.9187  1.3216
   99SAPE  C31510021   1.415   5.405   5.026 -0.5950  0.3639  0.5818
   99SAPE  H15X10022   1.510   5.440   4.980 -0.4798 -0.0004  0.5423
   99SAPE  H15Y10023   1.356   5.499   5.028  0.4594  1.0627 -0.0956
   99SAPE  C31610024   1.337   5.314   4.933 -0.5551  0.2898  0.0087
   99SAPE  H16X10025   1.238   5.286   4.974 -1.1691  1.1072 -0.8792
   99SAPE  H16Y10026   1.395   5.220   4.921  1.4980  1.6886 -1.9330
   99SAPE  C31710027   1.319   5.381   4.794  0.2354 -0.3921 -0.0864
   99SAPE  H17X10028   1.423   5.384   4.755  1.1824 -1.7190  2.1345
   99SAPE  H17Y10029   1.277   5.483   4.809 -1.1969 -1.0119  0.2163
   99SAPE  C31810030   1.227   5.298   4.706 -0.6689 -0.2187  0.2247
   99SAPE  H18X10031   1.117   5.303   4.721 -0.7391  1.7670 -0.7191
   99SAPE  H18Y10032   1.263   5.193   4.701  1.1530  0.1955  2.7642
   99SAPE  H18Z10033   1.232   5.347   4.606 -1.3233 -0.1761  0.2077
  100SAPE     N10034   3.268   5.067   7.134 -0.6959  0.0986 -0.1537
  100SAPE   HN110035   3.177   5.051   7.086  0.4737 -3.1335 -1.5760
  100SAPE   HN210036   3.247   5.121   7.220  0.1907  0.7073 -0.3014
  100SAPE   HN310037   3.326   5.121   7.065 -0.0786 -1.6546 -1.0725
  100SAPE   C1210038   3.328   4.933   7.166  0.2378 -0.6875 -0.2897
  100SAPE  H12A10039   3.259   4.880   7.236 -0.4060  1.8869  1.1441
  100SAPE  H12B10040   3.422   4.943   7.225 -0.1799 -1.7475  0.5823
  100SAPE   C1110041   3.373   4.851   7.045  0.4651 -0.1005  0.2313
  100SAPE  H11A10042   3.415   4.755   7.081 -0.1883 -0.2126  0.7078
  100SAPE  H11B10043   3.447   4.903   6.980  1.2981 -1.3821  0.1256
  100SAPE     P10044   3.161   4.711   6.968 -0.4787  0.3369  0.3351
  100SAPE   O1310045   3.188   4.648   7.097 -0.3180  0.1027  0.3141
  100SAPE   O1410046   3.021   4.766   6.940  0.4790 -0.2106  0.0251
  100SAPE   O1210047   3.262   4.835   6.951 -0.2141  0.5260 -0.1353
  100SAPE   O1110048   3.192   4.612   6.854  0.1070 -0.2286 -0.6912
  100SAPE    C110049   3.293   4.626   6.757  0.3281  0.6998  0.6677
  100SAPE    HA10050   3.387   4.679   6.779  1.8859 -0.6246 -2.2611
  100SAPE    HB10051   3.325   4.525   6.724 -0.5886  1.4922 -3.1268
  100SAPE    C210052   3.225   4.690   6.637 -0.5318  1.1184 -0.2451
  100SAPE    HS10053   3.180   4.788   6.665 -0.4745  1.3945 -1.0705
  100SAPE   O2110054   3.120   4.598   6.590  0.1272 -0.2027 -0.2782
  100SAPE   C2110055   3.012   4.661   6.544  0.2694  0.8409  0.0704
  100SAPE   O2210056   2.992   4.779   6.551 -0.1078 -0.0527  0.2885
  100SAPE   C2210057   2.929   4.551   6.475  0.2597 -1.1542 -0.4465
  100SAPE   H2R10058   2.997   4.478   6.425  2.0531 -2.0203  2.9660
  100SAPE   H2S10059   2.866   4.501   6.551 -0.3597  0.1321 -0.0873
  100SAPE    C310060   3.329   4.724   6.525 -0.3231  0.4147 -0.3924
  100SAPE    HX10061   3.409   4.646   6.527  0.3660  0.8854 -3.9408
  100SAPE    HY10062   3.375   4.818   6.564  1.2327  0.2745 -1.7827
  100SAPE   O3110063   3.263   4.730   6.404  0.0204  0.0132 -0.1039
  100SAPE   C3110064   3.270   4.633   6.320 -0.0349  0.5099 -0.2826
  100SAPE   O3210065   3.343   4.537   6.320 -0.0688  1.0092 -0.3566
  100SAPE   C3210066   3.177   4.674   6.203 -0.3229 -0.1557  0.0270
  100SAPE   H2X10067   3.226   4.746   6.134 -0.1241 -0.7993 -0.5174
  100SAPE   H2Y10068   3.083   4.721   6.237  0.7712  0.1499  2.8785
  100SAPE   C2310069   2.837   4.609   6.361 -0.3478 -0.1362  0.5353
  100SAPE   H3R10070   2.887   4.681   6.292 -0.0053 -1.0483 -0.1906
  100SAPE   H3S10071   2.770   4.671   6.424  2.1130  1.0030  2.1756
  100SAPE   C2410072   2.762   4.505   6.281 -0.3562 -0.1979  0.0999
  100SAPE   H4R10073   2.829   4.439   6.222 -2.0276 -2.2098  0.3188
  100SAPE   H4S10074   2.704   4.556   6.202  2.7230  0.6496 -1.7934
  100SAPE   C2510075   2.671   4.433   6.377  0.1539 -0.3722  0.4214
  100SAPE   H5R10076   2.650   4.501   6.461 -2.2904 -1.1712  0.5352
  100SAPE   C2610077   2.631   4.303   6.369  0.3786  0.7611 -0.6453
  100SAPE   H6R10078   2.576   4.259   6.453  0.7066  1.9396  0.1985
  100SAPE   C2710079   2.697   4.194   6.276 -0.8527  0.2100  0.3754
  100SAPE   H7R10080   2.765   4.123   6.327 -1.9922 -1.0003  0.2760
  100SAPE   H7S10081   2.764   4.254   6.211  0.4045  0.6375  2.0131
  100SAPE   C2810082   2.597   4.104   6.205  0.1022  0.3432  0.1789
  100SAPE   H8R10083   2.563   4.018   6.264  1.3844 -0.4614 -0.2113
  100SAPE   C2910084   2.534   4.129   6.089  0.4639  0.2222 -0.3764
  100SAPE   H9R10085   2.472   4.051   6.042  0.6001 -0.2550  0.2308
  100SAPE  C21010086   2.541   4.262   6.013  0.2325  0.5226  0.1323
  100SAPE  H10R10087   2.613   4.251   5.929 -0.6808 -1.1785 -0.4752
  100SAPE  H10S10088   2.591   4.340   6.074  1.5410  1.8663 -2.4842
  100SAPE  C21110089   2.403   4.300   5.964  0.0671  0.1028 -0.7663
  100SAPE  H11R10090   2.337   4.330   6.046 -0.4120 -1.3731 -0.5814
  100SAPE  C21210091   2.357   4.325   5.836  0.2961 -0.1653 -0.0305
  100SAPE  H12R10092   2.254   4.362   5.826  0.6674  1.0527  0.5808
  100SAPE  C21310093   2.439   4.294   5.709  0.5237 -0.4223  0.5090
  100SAPE  H13R10094   2.538   4.343   5.712  0.1390  0.4169 -0.0354
  100SAPE  H13S10095   2.383   4.336   5.622 -1.7139 -1.0557  1.5576
  100SAPE  C21410096   2.457   4.148   5.684 -0.5542 -0.1324  0.4279
  100SAPE  H14R10097   2.459   4.091   5.778 -0.1960 -0.0245  0.4882
  100SAPE  C21510098   2.470   4.080   5.564  0.1477  0.5138  0.0861
  100SAPE  H15R10099   2.487   3.972   5.550  0.6577  0.6503 -0.3393
  100SAPE  C21610100   2.457   4.159   5.439 -1.0424 -0.2622  0.0839
  100SAPE  H16R10101   2.520   4.250   5.444 -0.1460 -0.8027 -0.8134
  100SAPE  H16S10102   2.356   4.196   5.412 -1.9884 -3.1934 -0.8117
  100SAPE  C21710103   2.504   4.074   5.320  0.0010 -0.1563  1.0232
  100SAPE  H17R10104   2.420   4.010   5.286 -0.3616  0.6229  0.4376
  100SAPE  H17S10105   2.589   4.008   5.346  0.1057  0.0215  1.1353
  100SAPE  C21810106   2.552   4.163   5.195  0.4567  1.0281  0.2760
  100SAPE  H18R10107   2.623   4.242   5.227  0.9705  0.3308  0.9049
  100SAPE  H18S10108   2.455   4.208   5.166 -0.9628 -0.1885  2.7778
  100SAPE  C21910109   2.604   4.097   5.072  0.5559  0.1012  0.0900
  100SAPE  H19R10110   2.536   4.011   5.056 -1.9566  1.7194  1.2667
  100SAPE  H19S10111   2.702   4.060   5.107 -1.0970 -0.9676  4.2263
  100SAPE  C22010112   2.625   4.186   4.954 -0.0249  0.2377 -0.7362
  100SAPE  H20R10113   2.693   4.133   4.885 -0.1562  1.3917 -1.7763
  100SAPE  H20S10114   2.689   4.274   4.977 -0.8970  0.5115  0.8267
  100SAPE  H20T10115   2.530   4.224   4.911 -0.0618  1.3700  0.2979
  100SAPE   C3310116   3.136   4.552   6.118 -0.6518  0.9832 -0.0216
  100SAPE   H3X10117   3.087   4.480   6.187 -0.1355  0.4470 -0.2070
  100SAPE   H3Y10118   3.232   4.513   6.077 -0.2439  0.9655  0.9299
  100SAPE   C3410119   3.023   4.576   6.027  0.2608 -0.2526  0.1576
  100SAPE   H4X10120   3.054   4.641   5.943  0.1962 -1.2253 -0.6412
  100SAPE   H4Y10121   2.945   4.630   6.086  1.4325 -0.5649  2.0791
  100SAPE   C3510122   2.965   4.447   5.959 -0.2799 -0.2750  0.0321
  100SAPE   H5X10123   2.883   4.483   5.894 -0.4012 -1.3333 -0.4329
  100SAPE   H5Y10124   2.922   4.367   6.024 -1.9780  0.2090 -0.4383
  100SAPE   C3610125   3.072   4.385   5.873 -0.3502 -0.0200  0.9606
  100SAPE   H6X10126   3.149   4.331   5.931  1.2143 -1.9323 -2.5379
  100SAPE   H6Y10127   3.132   4.467   5.829  0.1516 -0.2389  1.2331
  100SAPE   C3710128   3.012   4.304   5.754  0.2341 -0.0012 -0.2561
  100SAPE   H7X10129   2.922   4.357   5.717  0.7471  1.3027  0.2829
  100SAPE   H7Y10130   2.983   4.205   5.793  0.5339 -0.3548 -0.9214
  100SAPE   C3810131   3.103   4.299   5.626 -0.1166 -0.0731  0.3137
  100SAPE   H8X10132   3.201   4.274   5.671  1.3792  0.2648 -2.5440
  100SAPE   H8Y10133   3.108   4.401   5.582 -1.5087  0.1882  0.7005
  100SAPE   C3910134   3.077   4.188   5.529  0.0967 -0.0326 -0.9899
  100SAPE   H9X10135   3.101   4.097   5.589 -0.2404  0.5545  0.0643
  100SAPE   H9Y10136   3.144   4.195   5.441  1.1824  0.5296 -0.1463
  100SAPE  C31010137   2.927   4.193   5.474 -0.6443  0.0948 -0.4436
  100SAPE  H10X10138   2.859   4.193   5.562 -1.1265  0.1941 -0.8114
  100SAPE  H10Y10139   2.907   4.099   5.420  2.0629  1.0772 -3.4598
  100SAPE  C31110140   2.909   4.313   5.384  0.1355  0.6130 -0.6719
  100SAPE  H11X10141   2.939   4.408   5.434  0.7844  1.1435 -2.0210
  100SAPE  H11Y10142   2.800   4.334   5.389 -0.1103 -0.8554  1.1131
  100SAPE  C31210143   2.958   4.301   5.238  0.1352  0.2419 -0.5989
  100SAPE  H12X10144   2.872   4.251   5.188 -1.0264  1.8469 -0.2690
  100SAPE  H12Y10145   3.044   4.231   5.236 -0.1201 -0.0840 -0.4034
  100SAPE  C31310146   2.988   4.439   5.177  1.3099 -0.5280  0.4414
  100SAPE  H13X10147   2.907   4.509   5.205  1.0726 -1.4115  2.1329
  100SAPE  H13Y10148   2.980   4.417   5.069  1.7158 -2.7954  0.8011
  100SAPE  C31410149   3.120   4.499   5.212 -0.6070 -0.2950 -0.1698
  100SAPE  H14X10150   3.201   4.433   5.174 -0.6296  0.0717 -0.8598
  100SAPE  H14Y10151   3.133   4.488   5.322 -0.3176 -0.6291 -0.2362
  100SAPE  C31510152   3.137   4.646   5.175 -0.7688 -0.0081  0.2852
  100SAPE  H15X10153   3.124   4.675   5.069 -0.5021  0.9867  0.5215
  100SAPE  H15Y10154   3.236   4.687   5.204  0.0346 -2.2658  0.9617
  100SAPE  C31610155   3.035   4.737   5.255  0.2679  0.0254 -0.2318
  100SAPE  H16X10156   3.036   4.709   5.362 -0.1307  0.3346 -0.1465
  100SAPE  H16Y10157   2.940   4.720   5.201 -0.7982  0.2014  1.5041
  100SAPE  C31710158   3.066   4.888   5.250  0.0304 -0.0106 -0.6355
  100SAPE  H17X10159   2.978   4.950   5.274 -0.1957  0.3417 -2.2693
  100SAPE  H17Y10160   3.101   4.916   5.148 -0.9556  0.5340 -0.8300
  100SAPE  C31810161   3.183   4.927   5.339 -0.5082 -0.6729  0.5843
  100SAPE  H18X10162   3.274   4.900   5.281  1.7663  2.6489  2.2320
  100SAPE  H18Y10163   3.182   4.876   5.438  3.2441 -0.8576  0.6636
  100SAPE  H18Z10164   3.187   5.037   5.357 -0.9736 -0.7676  1.3137
  101SAPE     N10165   1.927   6.305   7.152 -0.4362  0.4700 -0.3249
  101SAPE   HN110166   1.826   6.287   7.139 -1.2357  1.8875  2.8546
  101SAPE   HN210167   1.957   6.316   7.251 -2.5799 -1.2217  0.5746
  101SAPE   HN310168   1.931   6.399   7.108 -2.1476  0.9312  0.4259
  101SAPE   C1210169   2.028   6.224   7.073 -0.3890 -0.0189  0.0481
  101SAPE  H12A10170   2.026   6.116   7.099  0.1264 -1.0071 -3.5279
  101SAPE  H12B10171   2.122   6.275   7.105 -0.4245  2.3601 -3.1090
  101SAPE   C1110172   2.023   6.254   6.926  0.6812  0.4352  0.4680
  101SAPE  H11A10173   1.952   6.179   6.885  0.1432  0.8028  0.7050
  101SAPE  H11B10174   2.122   6.234   6.882  0.1189  0.2760 -0.7712
  101SAPE     P10175   2.016   6.476   6.778 -0.2419  0.3504 -0.2373
  101SAPE   O1310176   1.898   6.557   6.748  0.3268  0.0227 -0.1649
  101SAPE   O1410177   2.140   6.549   6.801 -0.2004 -0.4357 -0.1801
  101SAPE   O1210178   1.982   6.390   6.906  0.4629 -0.5394 -0.1520
  101SAPE   O1110179   2.025   6.364   6.663  0.2353  0.2900  0.5961
  101SAPE    C110180   2.099   6.386   6.543  0.1705  0.1310  0.1354
  101SAPE    HA10181   2.029   6.399   6.458  0.4520  1.4885  0.0898
  101SAPE    HB10182   2.168   6.472   6.555  0.5709  0.2303 -2.3893
  101SAPE    C210183   2.197   6.265   6.516  0.1276 -0.3342 -0.5833
  101SAPE    HS10184   2.270   6.268   6.599  0.4869 -1.0771 -0.8628
  101SAPE   O2110185   2.262   6.278   6.386 -0.1984  0.0065  0.3577
  101SAPE   C2110186   2.351   6.375   6.380  0.0861  0.6166  0.8371
  101SAPE   O2210187   2.391   6.430   6.480 -0.9423 -0.0414  0.9826
  101SAPE   C2210188   2.390   6.390   6.234 -0.4517  0.4498 -0.5767
  101SAPE   H2R10189   2.433   6.294   6.201  1.7148  0.6616  1.3042
  101SAPE   H2S10190   2.306   6.411   6.165 -3.7732 -1.9010  2.4092
  101SAPE    C310191   2.123   6.136   6.527  0.5128  0.4409  0.2703
  101SAPE    HX10192   2.093   6.113   6.631 -1.8253 -3.5252 -1.0666
  101SAPE    HY10193   2.191   6.057   6.487  0.6263  1.4164 -1.6058
  101SAPE   O3110194   1.999   6.151   6.452 -0.2116  0.1916  0.6794
  101SAPE   C3110195   1.942   6.044   6.397 -1.2616  0.1111  0.6274
  101SAPE   O3210196   1.967   5.926   6.415 -0.1368 -0.1492 -0.0913
  101SAPE   C3210197   1.813   6.085   6.332  0.6537  0.5866 -0.3736
  101SAPE   H2X10198   1.814   6.191   6.299 -0.1087  0.7154 -0.0023
  101SAPE   H2Y10199   1.760   6.096   6.429 -1.2282 -5.1920 -0.3512
  101SAPE   C2310200   2.496   6.499   6.207 -0.7181 -0.2936  0.3194
  101SAPE   H3R10201   2.575   6.504   6.284 -0.7104  3.3627  0.2576
  101SAPE   H3S10202   2.446   6.598   6.211 -0.4981 -0.2258  1.8060
  101SAPE   C2410203   2.578   6.484   6.082 -0.0910 -0.1362  0.7231
  101SAPE   H4R10204   2.632   6.388   6.097 -1.7306 -1.0437  0.9959
  101SAPE   H4S10205   2.644   6.572   6.096  2.1204 -1.3447 -1.3743
  101SAPE   C2510206   2.500   6.480   5.949 -0.5474 -0.0521 -0.6513
  101SAPE   H5R10207   2.456   6.576   5.918 -1.1137  0.1142  0.6018
  101SAPE   C2610208   2.467   6.365   5.878 -0.8760 -0.5446  0.3941
  101SAPE   H6R10209   2.419   6.382   5.780  0.8900 -0.0629 -0.4502
  101SAPE   C2710210   2.503   6.218   5.903 -0.3249  0.2539 -0.9716
  101SAPE   H7R10211   2.542   6.205   6.007  0.5932  0.6820 -1.2487
  101SAPE   H7S10212   2.587   6.199   5.832 -0.4284  1.2435 -1.3733
  101SAPE   C2810213   2.382   6.127   5.882 -0.1427 -0.7032  0.2622
  101SAPE   H8R10214   2.317   6.112   5.969 -0.4370  0.0539  0.1845
  101SAPE   C2910215   2.364   6.036   5.784 -0.2322 -0.0512  0.2071
  101SAPE   H9R10216   2.274   5.973   5.796 -1.0013  1.4767  3.3158
  101SAPE  C21010217   2.448   6.016   5.666  0.0666  0.0743 -0.3870
  101SAPE  H10R10218   2.440   5.907   5.648  1.8238 -0.2225  0.4373
  101SAPE  H10S10219   2.549   6.022   5.711  0.0357  0.5417 -0.3751
  101SAPE  C21110220   2.423   6.111   5.553  0.0866  0.0008  0.0773
  101SAPE  H11R10221   2.383   6.209   5.582  0.1669  1.2453 -3.4801
  101SAPE  C21210222   2.403   6.077   5.420  0.3015 -0.1289 -0.4957
  101SAPE  H12R10223   2.376   6.157   5.349 -0.6404  0.3046  0.3287
  101SAPE  C21310224   2.431   5.945   5.349 -0.4983 -1.0814  0.0964
  101SAPE  H13R10225   2.461   5.873   5.428 -1.4291 -1.3080  0.2616
  101SAPE  H13S10226   2.517   5.958   5.280 -0.3856 -0.5910  0.3320
  101SAPE  C21410227   2.320   5.881   5.281  0.3541  0.3043 -0.2716
  101SAPE  H14R10228   2.270   5.799   5.333  0.6409 -2.2320 -3.6073
  101SAPE  C21510229   2.288   5.883   5.150  0.1802 -0.0611 -0.8961
  101SAPE  H15R10230   2.190   5.835   5.134 -0.1021  0.1317  0.1400
  101SAPE  C21610231   2.367   5.954   5.041  0.1648  0.1598 -0.8764
  101SAPE  H16R10232   2.420   5.879   4.979  1.5180 -0.1076  0.5414
  101SAPE  H16S10233   2.443   6.020   5.089 -1.7800  2.7092 -1.0954
  101SAPE  C21710234   2.289   6.048   4.945 -0.5407  0.1433  0.2788
  101SAPE  H17R10235   2.376   6.099   4.898 -1.4461  2.1768  0.7110
  101SAPE  H17S10236   2.223   6.130   4.980 -2.8192 -1.2079 -0.6148
  101SAPE  C21810237   2.219   5.971   4.830 -0.6890  0.1630  0.0050
  101SAPE  H18R10238   2.272   5.874   4.819  0.1246  0.5041  0.8382
  101SAPE  H18S10239   2.222   6.029   4.735  0.0317 -0.9462 -0.6716
  101SAPE  C21910240   2.077   5.938   4.845  0.1785  0.0155 -0.1994
  101SAPE  H19R10241   2.018   6.031   4.851 -0.5446 -0.4169 -0.4687
  101SAPE  H19S10242   2.056   5.870   4.931  1.2832 -0.7679 -0.5219
  101SAPE  C22010243   2.036   5.845   4.728  0.7688  0.4122 -0.2495
  101SAPE  H20R10244   2.103   5.757   4.714  0.6237  0.4158 -1.0565
  101SAPE  H20S10245   2.051   5.906   4.636  2.0698 -1.9247 -1.7138
  101SAPE  H20T10246   1.930   5.817   4.743  0.3322  3.0685  2.5762
  101SAPE   C3310247   1.757   5.984   6.225 -0.2458 -0.5360  0.2994
  101SAPE   H3X10248   1.650   6.013   6.216  0.5503  2.7371 -0.0312
  101SAPE   H3Y10249   1.759   5.882   6.268  0.8964 -0.3461  0.7345
  101SAPE   C3410250   1.827   6.001   6.086  0.3120  0.8986  0.5886
  101SAPE   H4X10251   1.932   5.965   6.079 -0.2538 -0.5745 -0.8086
  101SAPE   H4Y10252   1.828   6.108   6.054 -0.3026  1.2478  1.6925
  101SAPE   C3510253   1.745   5.925   5.977  0.6937  0.1096  0.0589
  101SAPE   H5X10254   1.643   5.970   5.976  1.4167  1.8383 -1.1881
  101SAPE   H5Y10255   1.727   5.821   6.011 -1.3661  0.9843  1.9501
  101SAPE   C3610256   1.799   5.945   5.836  0.0264 -0.2169  0.2435
  101SAPE   H6X10257   1.894   5.889   5.829 -0.2395 -0.9752  2.2019
  101SAPE   H6Y10258   1.818   6.053   5.813 -0.0852  0.0444  1.3430
  101SAPE   C3710259   1.711   5.876   5.731  0.9598  0.1756  0.6742
  101SAPE   H7X10260   1.607   5.914   5.739  1.3833  1.2196  1.4153
  101SAPE   H7Y10261   1.708   5.765   5.733 -0.6738  0.0668 -1.8980
  101SAPE   C3810262   1.758   5.915   5.590 -0.1796  0.5790 -0.2682
  101SAPE   H8X10263   1.775   6.023   5.606 -0.1956  0.3807  1.2116
  101SAPE   H8Y10264   1.682   5.881   5.516  0.7107 -1.3006 -0.3968
  101SAPE   C3910265   1.885   5.849   5.543  0.2945  0.0519 -0.4684
  101SAPE   H9X10266   1.965   5.869   5.618  0.9200 -1.4520 -0.6958
  101SAPE   H9Y10267   1.905   5.886   5.441  0.7850  0.2178 -0.3131
  101SAPE  C31010268   1.867   5.700   5.539  0.4448  0.2931  0.4177
  101SAPE  H10X10269   1.766   5.687   5.492 -0.7839  0.9217  2.7553
  101SAPE  H10Y10270   1.882   5.658   5.640  1.3683 -1.0469 -0.2376
  101SAPE  C31110271   1.978   5.636   5.448 -0.8199 -0.1512  0.0759
  101SAPE  H11X10272   1.982   5.528   5.473 -0.2141 -0.1355  0.0457
  101SAPE  H11Y10273   2.080   5.671   5.472 -0.3515 -1.4379  0.0452
  101SAPE  C31210274   1.949   5.642   5.292  0.4277 -0.0592 -0.6453
  101SAPE  H12X10275   1.949   5.744   5.248 -1.7920 -0.1592 -1.0365
  101SAPE  H12Y10276   1.846   5.604   5.272 -0.6621  2.3897 -0.0483
  101SAPE  C31310277   2.051   5.561   5.212 -0.6452 -0.1658 -0.1472
  101SAPE  H13X10278   2.075   5.463   5.260  0.3152  0.4129  0.5790
  101SAPE  H13Y10279   2.143   5.623   5.205 -1.2327  0.6933 -0.3201
  101SAPE  C31410280   2.003   5.537   5.072 -0.1477  0.0188 -0.7805
  101SAPE  H14X10281   1.993   5.637   5.026 -3.7239  0.3341  0.3623
  101SAPE  H14Y10282   1.901   5.494   5.073 -0.7861  1.2992 -3.0621
  101SAPE  C31510283   2.095   5.450   4.981 -0.5334  0.3288  0.1672
  101SAPE  H15X10284   2.038   5.416   4.892  1.3584 -1.8762 -0.2871
  101SAPE  H15Y10285   2.132   5.360   5.036  1.5254  1.7271  1.2009
  101SAPE  C31610286   2.211   5.538   4.939  0.4663  0.2476  0.1444
  101SAPE  H16X10287   2.236   5.612   5.018 -0.4313 -0.0661  0.7247
  101SAPE  H16Y10288   2.187   5.602   4.851  0.7416  1.3009  0.8182
  101SAPE  C31710289   2.333   5.453   4.896 -0.5116 -0.1011 -0.1368
  101SAPE  H17X10290   2.372   5.403   4.988  2.3133 -3.0077 -2.6546
  101SAPE  H17Y10291   2.413   5.520   4.860 -2.6251  2.2202 -0.7836
  101SAPE  C31810292   2.303   5.348   4.785  0.8797 -0.2141 -0.0757
  101SAPE  H18X10293   2.216   5.284   4.813 -0.2235  1.1137 -0.3394
  101SAPE  H18Y10294   2.393   5.289   4.760  0.4485 -1.4217  1.0453
  101SAPE  H18Z10295   2.274   5.396   4.689  1.0103 -0.6003 -0.3109
  102SAPE     N10296   2.851   4.927   6.797  0.5303 -0.2235  0.0193
  102SAPE   HN110297   2.889   4.858   6.865  2.2630 -0.2650 -0.9528
  102SAPE   HN210298   2.781   4.992   6.839 -0.5552 -1.4602  0.2077
  102SAPE   HN310299   2.805   4.871   6.723  1.3314  0.0335 -0.6830
  102SAPE   C1210300   2.959   5.020   6.750  0.4870 -0.1025  0.3642
  102SAPE  H12A10301   3.046   4.970   6.703  1.7888  2.2741  0.0713
  102SAPE  H12B10302   2.999   5.089   6.827  1.2280  2.4840 -2.1474
  102SAPE   C1110303   2.898   5.115   6.644  0.6274 -0.4287  0.3575
  102SAPE  H11A10304   2.865   5.062   6.551  0.6944 -1.7139  1.0363
  102SAPE  H11B10305   2.976   5.187   6.611 -0.2177  0.5233  0.4110
  102SAPE     P10306   2.800   5.320   6.775 -0.0058 -0.4517 -0.1544
  102SAPE   O1310307   2.672   5.389   6.807 -0.5051 -0.4669  0.0044
  102SAPE   O1410308   2.902   5.304   6.883  0.1625 -0.0300 -0.1662
  102SAPE   O1210309   2.777   5.178   6.697  0.4137 -0.1056 -0.3572
  102SAPE   O1110310   2.882   5.408   6.680  0.0239  0.4094 -0.1146
  102SAPE    C110311   2.856   5.545   6.641  0.2271 -0.0741 -0.1638
  102SAPE    HA10312   2.761   5.584   6.682  0.1866 -0.1839 -0.1525
  102SAPE    HB10313   2.934   5.613   6.682 -0.1498 -0.9604  2.2422
  102SAPE    C210314   2.856   5.553   6.482 -0.5848  0.4740 -0.0586
  102SAPE    HS10315   2.810   5.649   6.451 -1.4165  0.1175  0.0512
  102SAPE   O2110316   2.779   5.438   6.432  0.4874 -0.0643  0.3967
  102SAPE   C2110317   2.655   5.459   6.431  0.2445  0.1828  1.8200
  102SAPE   O2210318   2.597   5.562   6.465 -0.0912  0.2008 -0.3795
  102SAPE   C2210319   2.587   5.344   6.360 -0.0664 -0.5130 -0.5169
  102SAPE   H2R10320   2.619   5.243   6.392  0.6897 -1.0742 -2.9234
  102SAPE   H2S10321   2.478   5.360   6.378 -0.8794 -2.8736 -2.7969
  102SAPE    C310322   2.999   5.549   6.421  0.3140  0.0997  1.1912
  102SAPE    HX10323   3.041   5.462   6.475 -1.6907 -1.6205  0.1299
  102SAPE    HY10324   3.051   5.643   6.451  0.5318  1.2754 -2.4093
  102SAPE   O3110325   3.014   5.522   6.281  0.0587  0.4701  0.2107
  102SAPE   C3110326   2.994   5.612   6.200  0.2282 -0.2518 -0.7801
  102SAPE   O3210327   2.949   5.720   6.231 -0.4474 -0.3289 -0.3835
  102SAPE   C3210328   3.032   5.578   6.055  0.2200 -0.2369 -0.2123
  102SAPE   H2X10329   2.952   5.513   6.012 -1.1251 -0.6809  2.6918
  102SAPE   H2Y10330   3.127   5.520   6.057  0.2234 -0.2060  0.8265
  102SAPE   C2310331   2.587   5.351   6.201 -0.4052 -0.5234  0.8643
  102SAPE   H3R10332   2.694   5.334   6.178 -0.5486 -0.7161  0.3082
  102SAPE   H3S10333   2.547   5.447   6.161 -0.7959 -0.8626  0.4266
  102SAPE   C2410334   2.510   5.234   6.136  0.4093 -0.1341 -0.3240
  102SAPE   H4R10335   2.537   5.132   6.172  3.5860 -0.8575 -3.9836
  102SAPE   H4S10336   2.546   5.222   6.031  1.0147 -2.5050  0.0812
  102SAPE   C2510337   2.359   5.252   6.152  0.1228  0.2942 -0.3764
  102SAPE   H5R10338   2.320   5.308   6.239  0.6364 -0.2493  0.2180
  102SAPE   C2610339   2.271   5.223   6.049 -0.1949  0.1482  0.3156
  102SAPE   H6R10340   2.169   5.263   6.054 -1.0510 -1.6345 -1.3993
  102SAPE   C2710341   2.306   5.159   5.920 -0.2362 -0.3464  0.0935
  102SAPE   H7R10342   2.396   5.094   5.930 -0.9301 -1.3260  0.1386
  102SAPE   H7S10343   2.330   5.236   5.844  2.7593 -0.2390  1.0413
  102SAPE   C2810344   2.194   5.078   5.867  0.7682 -0.2701  0.3654
  102SAPE   H8R10345   2.146   5.017   5.945 -0.4611 -0.1072 -0.2382
  102SAPE   C2910346   2.162   5.058   5.741  0.6017 -0.5317  0.1268
  102SAPE   H9R10347   2.079   4.988   5.721 -2.5708  2.9361 -0.0253
  102SAPE  C21010348   2.223   5.117   5.619 -0.1926 -0.0747 -0.3067
  102SAPE  H10R10349   2.292   5.202   5.636 -3.0630  2.0221  1.8578
  102SAPE  H10S10350   2.141   5.177   5.575  1.4104  0.9373 -2.0494
  102SAPE  C21110351   2.269   5.006   5.530 -0.6421  0.4887  0.5675
  102SAPE  H11R10352   2.330   4.931   5.582 -1.6832  0.0477  1.1654
  102SAPE  C21210353   2.264   4.988   5.395  0.4485  0.0467  0.3880
  102SAPE  H12R10354   2.309   4.898   5.351 -0.4029  0.3970 -1.2923
  102SAPE  C21310355   2.199   5.083   5.301  0.3294 -0.5920 -0.3388
  102SAPE  H13R10356   2.194   5.185   5.345  1.1718 -0.2202 -1.0721
  102SAPE  H13S10357   2.094   5.058   5.275 -0.7984  2.2014  1.0574
  102SAPE  C21410358   2.280   5.091   5.174 -0.3060 -0.1702  0.7914
  102SAPE  H14R10359   2.372   5.150   5.182 -0.8425  0.9320 -0.6194
  102SAPE  C21510360   2.263   5.016   5.059 -0.1837  0.1994 -0.1124
  102SAPE  H15R10361   2.340   5.039   4.985  0.6854  2.4824  1.4098
  102SAPE  C21610362   2.149   4.918   5.027  0.4233  0.3934 -0.0213
  102SAPE  H16R10363   2.067   4.956   5.093 -2.1463 -3.1186 -0.8573
  102SAPE  H16S10364   2.179   4.821   5.072  1.7691  0.3611 -0.9278
  102SAPE  C21710365   2.096   4.920   4.884 -0.9359 -0.5941 -0.0381
  102SAPE  H17R10366   2.178   4.878   4.821  0.0100 -0.2029  0.9065
  102SAPE  H17S10367   2.070   5.026   4.862  0.6831 -0.5689 -2.1546
  102SAPE  C21810368   1.979   4.832   4.865  0.3582  0.5171 -0.0283
  102SAPE  H18R10369   1.898   4.865   4.933  0.1219  0.9123 -0.5018
  102SAPE  H18S10370   1.996   4.732   4.910 -0.1643  1.2045  1.7649
  102SAPE  C21910371   1.915   4.822   4.721  0.0254  0.0119  0.2509
  102SAPE  H19R10372   1.857   4.914   4.697 -1.6881 -1.2021 -0.4171
  102SAPE  H19S10373   1.838   4.742   4.719 -0.6970  0.6983 -2.0347
  102SAPE  C22010374   2.014   4.787   4.609  0.2377 -0.3872  0.4352
  102SAPE  H20R10375   2.080   4.872   4.581  1.0933 -0.9073  0.8095
  102SAPE  H20S10376   1.950   4.757   4.524  1.2655 -0.7325 -0.2403
  102SAPE  H20T10377   2.074   4.697   4.635 -1.8228 -2.4012 -1.3525
  102SAPE   C3310378   3.037   5.710   5.974  0.7907 -0.4446  0.6699
  102SAPE   H3X10379   3.102   5.785   6.024  0.1484  1.1143 -0.7232
  102SAPE   H3Y10380   2.936   5.754   5.965 -0.3575 -3.0970 -0.4065
  102SAPE   C3410381   3.088   5.693   5.825 -0.4870 -0.0310  0.0293
  102SAPE   H4X10382   3.190   5.654   5.847 -0.1430  1.1042  0.4839
  102SAPE   H4Y10383   3.106   5.788   5.771  0.7605  0.2583  0.9156
  102SAPE   C3510384   3.009   5.594   5.738  0.7911  0.6496  0.0056
  102SAPE   H5X10385   2.910   5.633   5.705  0.2952 -0.5086  0.0786
  102SAPE   H5Y10386   2.990   5.498   5.789 -0.6591  0.4741 -0.8190
  102SAPE   C3610387   3.066   5.543   5.600  0.4999 -0.1815 -0.3766
  102SAPE   H6X10388   3.082   5.633   5.537 -1.2204  0.1421 -0.3886
  102SAPE   H6Y10389   2.990   5.472   5.559  1.7768 -0.5684 -2.2235
  102SAPE   C3710390   3.198   5.471   5.599  0.1504 -0.6147 -0.4403
  102SAPE   H7X10391   3.220   5.417   5.694  3.8758 -0.6671 -1.1737
  102SAPE   H7Y10392   3.273   5.551   5.585  0.0391 -0.4249  0.0159
  102SAPE   C3810393   3.222   5.383   5.480  0.5376 -0.0614  0.5027
  102SAPE   H8X10394   3.135   5.314   5.484  0.6562 -0.1545  2.1377
  102SAPE   H8Y10395   3.311   5.317   5.489  0.2551 -0.6699 -0.8459
  102SAPE   C3910396   3.226   5.445   5.335  0.3201  0.3442 -0.3377
  102SAPE   H9X10397   3.314   5.512   5.344 -0.4314  1.2751  0.2891
  102SAPE   H9Y10398   3.130   5.500   5.325 -0.6897 -1.0516  1.0718
  102SAPE  C31010399   3.254   5.355   5.217 -0.2342 -0.6777 -0.3407
  102SAPE  H10X10400   3.202   5.400   5.130  1.2688  0.5818 -0.6440
  102SAPE  H10Y10401   3.201   5.265   5.254  1.5140 -0.7569  2.2492
  102SAPE  C31110402   3.401   5.334   5.187 -0.2671 -0.4755 -0.6252
  102SAPE  H11X10403   3.461   5.304   5.276 -2.9173 -0.8249  1.1766
  102SAPE  H11Y10404   3.442   5.429   5.146  1.6582 -0.6355  0.7764
  102SAPE  C31210405   3.426   5.226   5.081  0.2121  0.8212  0.3749
  102SAPE  H12X10406   3.345   5.248   5.008 -0.8447 -0.1659  1.2234
  102SAPE  H12Y10407   3.391   5.133   5.130  0.4587  0.5789  0.1014
  102SAPE  C31310408   3.563   5.213   5.010 -0.1507 -0.2418  0.2652
  102SAPE  H13X10409   3.573   5.312   4.961 -0.5310 -0.2523  0.1626
  102SAPE  H13Y10410   3.568   5.135   4.931 -0.3383 -0.0604  0.0750
  102SAPE  C31410411   3.675   5.179   5.110  0.4827 -0.5650 -0.3625
  102SAPE  H14X10412   3.654   5.078   5.150 -0.3689 -1.0276 -1.8989
  102SAPE  H14Y10413   3.655   5.254   5.190 -0.7259 -2.6217  1.3410
  102SAPE  C31510414   3.821   5.181   5.047 -0.5313  0.1491  0.9838
  102SAPE  H15X10415   3.843   5.249   4.962 -1.6102  0.6601  1.0921
  102SAPE  H15Y10416   3.840   5.080   5.006 -0.3689  1.3203 -2.1433
  102SAPE  C31610417   3.929   5.205   5.149 -0.0218  0.3972 -0.0016
  102SAPE  H16X10418   3.900   5.276   5.230 -0.5193  0.5521 -0.3106
  102SAPE  H16Y10419   4.016   5.251   5.096 -0.5046  1.9924  0.5212
  102SAPE  C31710420   3.976   5.071   5.214 -0.7038 -0.8172 -0.7125
  102SAPE  H17X10421   4.025   4.998   5.147  0.9650  0.0376 -0.4734
  102SAPE  H17Y10422   3.885   5.016   5.248 -0.8003 -0.1389  0.1484
  102SAPE  C31810423   4.075   5.110   5.330 -0.3775 -0.1363  0.9944
  102SAPE  H18X10424   4.167   5.148   5.282 -0.3971 -0.4330  0.7240
  102SAPE  H18Y10425   4.108   5.027   5.397  3.6659  1.8604  1.7928
  102SAPE  H18Z10426   4.035   5.195   5.391 -2.7652  0.6704 -1.5003
  103SAPE     N10427   1.857   6.250   2.190 -0.2331  0.3050  0.1549
  103SAPE   HN110428   1.918   6.333   2.207  0.4101 -0.2526  0.6087
  103SAPE   HN210429   1.921   6.174   2.160 -0.9492  0.0892 -0.8981
  103SAPE   HN310430   1.795   6.289   2.115 -0.1957 -0.1023 -0.0879
  103SAPE   C1210431   1.778   6.212   2.310  0.0973  0.1121 -0.2394
  103SAPE  H12A10432   1.843   6.206   2.400 -0.2815  2.4477  0.2564
  103SAPE  H12B10433   1.718   6.120   2.292 -2.6363  1.5023  1.0770
  103SAPE   C1110434   1.678   6.330   2.340 -0.1828  0.0572 -0.2645
  103SAPE  H11A10435   1.734   6.421   2.371 -1.5947  1.4507 -1.6233
  103SAPE  H11B10436   1.615   6.289   2.422  0.9437 -2.0655 -0.3662
  103SAPE     P10437   1.539   6.504   2.199  0.3168  0.0291 -0.2862
  103SAPE   O1310438   1.642   6.606   2.244  0.3477 -0.4949  0.5130
  103SAPE   O1410439   1.490   6.517   2.061 -0.2858  0.8999  0.5517
  103SAPE   O1210440   1.596   6.366   2.225 -0.4063  0.2872 -0.3098
  103SAPE   O1110441   1.423   6.505   2.313 -0.5143  0.7418  0.4059
  103SAPE    C110442   1.470   6.562   2.442  0.1532 -0.0901 -0.1311
  103SAPE    HA10443   1.572   6.529   2.472 -0.0666  0.9276  1.9454
  103SAPE    HB10444   1.471   6.673   2.438  0.3408 -0.0252  1.2984
  103SAPE    C210445   1.392   6.506   2.559 -0.3028  0.8629  0.1724
  103SAPE    HS10446   1.391   6.396   2.546  2.4161  0.9010 -0.8675
  103SAPE   O2110447   1.264   6.566   2.568 -0.3452  0.1156  0.1250
  103SAPE   C2110448   1.154   6.494   2.582 -0.9441 -0.0517  0.2038
  103SAPE   O2210449   1.144   6.371   2.591 -0.3077 -0.1234  0.7585
  103SAPE   C2210450   1.041   6.591   2.592 -0.0299  0.2176 -0.6449
  103SAPE   H2R10451   1.031   6.662   2.508 -0.6027  1.5768  0.5327
  103SAPE   H2S10452   0.952   6.525   2.600  0.4580 -1.2010 -4.7393
  103SAPE    C310453   1.446   6.528   2.703 -0.6501 -0.8495  0.5314
  103SAPE    HX10454   1.435   6.637   2.722 -0.2886 -0.5715 -0.7954
  103SAPE    HY10455   1.556   6.514   2.705 -0.7165 -2.3489 -2.2312
  103SAPE   O3110456   1.381   6.444   2.808 -0.1115  0.0763 -0.5285
  103SAPE   C3110457   1.414   6.312   2.797 -0.5789 -0.8643  0.4127
  103SAPE   O3210458   1.498   6.275   2.715  0.7677  0.2119  0.1329
  103SAPE   C3210459   1.343   6.224   2.897  0.0438  0.2582 -0.4933
  103SAPE   H2X10460   1.234   6.242   2.884 -0.2389 -1.0530 -0.0740
  103SAPE   H2Y10461   1.385   6.257   2.994  0.1157 -0.8604 -0.1342
  103SAPE   C2310462   1.054   6.680   2.723 -0.5225 -0.1263 -0.1330
  103SAPE   H3R10463   1.160   6.711   2.735 -0.6421  0.9709 -1.5544
  103SAPE   H3S10464   1.034   6.626   2.817 -0.3217  0.5288  0.2949
  103SAPE   C2410465   0.955   6.804   2.728 -0.2637  0.4000 -0.1093
  103SAPE   H4R10466   0.977   6.865   2.637  0.7963 -0.0774 -0.1852
  103SAPE   H4S10467   0.976   6.862   2.820 -1.1981  0.6874 -0.0697
  103SAPE   C2510468   0.811   6.763   2.734  0.2874  0.2124 -0.4451
  103SAPE   H5R10469   0.785   6.707   2.643  2.0941 -3.1341  0.9286
  103SAPE   C2610470   0.719   6.762   2.835  0.2542 -0.6287 -0.0834
  103SAPE   H6R10471   0.617   6.724   2.818 -0.1700  1.2932 -2.4467
  103SAPE   C2710472   0.750   6.808   2.977  0.6120 -0.2710 -0.3636
  103SAPE   H7R10473   0.672   6.883   3.001 -0.3515 -1.2561 -0.3474
  103SAPE   H7S10474   0.845   6.866   2.981 -0.5968  1.7609  0.3198
  103SAPE   C2810475   0.750   6.710   3.084  0.0868 -0.1922  0.5326
  103SAPE   H8R10476   0.740   6.605   3.051 -1.2543 -0.1422  0.7323
  103SAPE   C2910477   0.779   6.732   3.209  0.1952  0.3998 -0.4711
  103SAPE   H9R10478   0.784   6.647   3.278 -1.1218 -2.5004 -3.6473
  103SAPE  C21010479   0.821   6.859   3.275 -0.0263  0.5044 -0.2844
  103SAPE  H10R10480   0.764   6.865   3.370 -0.3486 -1.3148 -0.3286
  103SAPE  H10S10481   0.800   6.944   3.208  1.5586 -1.1064 -3.0179
  103SAPE  C21110482   0.965   6.855   3.315 -0.0089  0.5829 -0.6411
  103SAPE  H11R10483   1.039   6.848   3.234  0.5496  1.4670 -0.2272
  103SAPE  C21210484   1.013   6.871   3.438 -1.2012  0.5853 -0.2677
  103SAPE  H12R10485   1.121   6.867   3.455 -1.0208  2.0337 -0.9201
  103SAPE  C21310486   0.938   6.892   3.563 -0.1695  0.8347 -0.2677
  103SAPE  H13R10487   0.913   6.792   3.604 -2.6297  1.6049  0.3028
  103SAPE  H13S10488   0.845   6.949   3.543 -0.0069  0.4165 -2.4609
  103SAPE  C21410489   1.021   6.955   3.670 -0.5893 -0.7141 -0.0887
  103SAPE  H14R10490   1.086   7.035   3.632 -0.8140  0.2873  1.5280
  103SAPE  C21510491   1.004   6.959   3.802  0.3009 -0.1915  0.1658
  103SAPE  H15R10492   1.079   7.010   3.865 -0.0819 -0.7775  1.1242
  103SAPE  C21610493   0.907   6.883   3.890 -0.9406  0.9215  0.3511
  103SAPE  H16R10494   0.938   6.777   3.899 -0.5991  1.1604  2.3442
  103SAPE  H16S10495   0.806   6.874   3.845 -1.3393 -1.4358  1.5702
  103SAPE  C21710496   0.893   6.924   4.033  0.4189  0.1231 -0.1610
  103SAPE  H17R10497   0.791   6.886   4.057  1.5356 -3.7514 -0.7552
  103SAPE  H17S10498   0.885   7.034   4.041  1.5800  0.0998  2.0143
  103SAPE  C21810499   0.993   6.851   4.136  0.3290 -0.6018 -0.1877
  103SAPE  H18R10500   1.093   6.893   4.109  0.1296  2.1809  2.7975
  103SAPE  H18S10501   0.988   6.740   4.129 -0.1380 -0.4833 -2.5563
  103SAPE  C21910502   0.975   6.881   4.285  0.1519 -0.4319 -0.1277
  103SAPE  H19R10503   1.052   6.825   4.343  0.8145 -2.0431 -2.4626
  103SAPE  H19S10504   0.876   6.844   4.318  0.7051 -2.8906 -1.0463
  103SAPE  C22010505   0.974   7.027   4.323 -0.3614  0.2892 -0.3137
  103SAPE  H20R10506   0.920   7.049   4.417 -2.0643  0.7958 -1.3821
  103SAPE  H20S10507   0.927   7.096   4.251  2.4032  0.9673 -1.6056
  103SAPE  H20T10508   1.082   7.051   4.340 -0.2461 -0.3439 -0.1023
  103SAPE   C3310509   1.356   6.078   2.863  0.5170  0.5460  0.2884
  103SAPE   H3X10510   1.462   6.045   2.866  1.1313  2.1250 -1.5719
  103SAPE   H3Y10511   1.311   6.064   2.762  1.2305 -1.8745  0.2405
  103SAPE   C3410512   1.273   5.992   2.952 -0.5634 -0.1523  0.1845
  103SAPE   H4X10513   1.166   6.015   2.933 -0.3091 -0.3691 -1.6648
  103SAPE   H4Y10514   1.284   6.024   3.058  0.5255  1.5626 -0.3985
  103SAPE   C3510515   1.311   5.847   2.928  0.3851 -0.0644 -0.0307
  103SAPE   H5X10516   1.414   5.827   2.964  0.4762 -0.6824 -0.6104
  103SAPE   H5Y10517   1.321   5.828   2.819 -0.1709  0.7576 -0.2335
  103SAPE   C3610518   1.217   5.748   2.992  0.1675  0.3764  0.1213
  103SAPE   H6X10519   1.208   5.657   2.928  2.5348  1.0147 -1.2329
  103SAPE   H6Y10520   1.114   5.790   2.988  0.3960  0.8764 -1.1002
  103SAPE   C3710521   1.244   5.727   3.143 -0.1435 -0.4111 -0.1273
  103SAPE   H7X10522   1.152   5.698   3.198  0.3678 -1.4212  0.2056
  103SAPE   H7Y10523   1.281   5.826   3.179 -1.4338 -0.1478  0.5520
  103SAPE   C3810524   1.349   5.621   3.168 -0.4541 -0.5714 -0.4195
  103SAPE   H8X10525   1.409   5.605   3.076  1.1150  0.0273  0.4720
  103SAPE   H8Y10526   1.295   5.524   3.172  0.1664 -0.8682  1.1135
  103SAPE   C3910527   1.435   5.648   3.287  0.8731 -0.4013 -0.0760
  103SAPE   H9X10528   1.489   5.743   3.270  0.8834 -0.1285  1.3229
  103SAPE   H9Y10529   1.511   5.567   3.290  0.6749 -0.6808 -1.6051
  103SAPE  C31010530   1.364   5.650   3.421  0.0432 -0.2790  0.0840
  103SAPE  H10X10531   1.285   5.571   3.414  0.1587 -0.3469 -0.5401
  103SAPE  H10Y10532   1.326   5.752   3.442  0.5808 -0.6529  3.4242
  103SAPE  C31110533   1.447   5.604   3.535  0.1728 -0.3003 -0.3155
  103SAPE  H11X10534   1.550   5.646   3.531 -1.0640  3.1839  0.8165
  103SAPE  H11Y10535   1.459   5.494   3.535 -0.8292 -0.4549 -2.3274
  103SAPE  C31210536   1.399   5.651   3.668  0.3361 -0.5596 -0.3943
  103SAPE  H12X10537   1.291   5.628   3.674  0.0164  1.0600  0.4827
  103SAPE  H12Y10538   1.411   5.762   3.666 -0.6738 -0.3717  1.9177
  103SAPE  C31310539   1.467   5.594   3.793 -0.3673 -0.4581  0.7627
  103SAPE  H13X10540   1.576   5.608   3.778 -0.6890  0.3995 -0.9109
  103SAPE  H13Y10541   1.446   5.485   3.807 -1.3946 -0.6246 -1.6366
  103SAPE  C31410542   1.433   5.687   3.914 -0.3310  0.1953 -0.5753
  103SAPE  H14X10543   1.326   5.680   3.944  0.1140  0.6539  1.2642
  103SAPE  H14Y10544   1.461   5.791   3.887 -0.9155  1.2507  2.4332
  103SAPE  C31510545   1.506   5.652   4.050  0.2296 -0.0491  0.5732
  103SAPE  H15X10546   1.617   5.658   4.040  0.2211  0.4804  0.7628
  103SAPE  H15Y10547   1.462   5.557   4.087 -2.1627  0.8599  0.2675
  103SAPE  C31610548   1.475   5.736   4.168  0.4276 -0.5362  0.8708
  103SAPE  H16X10549   1.365   5.735   4.181  0.2792  3.9412  1.4015
  103SAPE  H16Y10550   1.500   5.844   4.159  0.7489 -0.5717  1.2954
  103SAPE  C31710551   1.547   5.690   4.301 -0.1148 -0.3872 -0.1574
  103SAPE  H17X10552   1.655   5.704   4.282  0.0542 -0.9588  0.3590
  103SAPE  H17Y10553   1.541   5.584   4.333  1.9802 -0.6363 -0.4893
  103SAPE  C31810554   1.517   5.783   4.419  0.2423  1.0855  0.9262
  103SAPE  H18X10555   1.553   5.887   4.404 -0.8623  1.2287 -1.2607
  103SAPE  H18Y10556   1.559   5.737   4.511  2.0099  2.6453  0.9299
  103SAPE  H18Z10557   1.406   5.790   4.431  0.1712  0.6825  0.5390
  104SAPE     N10558   2.412   5.973   2.318 -0.4845 -0.1804 -0.6945
  104SAPE   HN110559   2.315   5.997   2.291 -0.5547  1.3870  0.8340
  104SAPE   HN210560   2.472   6.019   2.246  0.7177  0.0813  0.4485
  104SAPE   HN310561   2.420   5.869   2.308  0.2869 -0.3370  1.2156
  104SAPE   C1210562   2.435   6.016   2.464 -0.7776  0.5880 -0.2136
  104SAPE  H12A10563   2.430   6.127   2.464 -0.9123  0.5934  0.8572
  104SAPE  H12B10564   2.536   5.974   2.482 -0.7738 -0.2156 -1.8645
  104SAPE   C1110565   2.323   5.969   2.553 -0.6031 -0.0733  0.2850
  104SAPE  H11A10566   2.367   5.956   2.654 -0.3978  0.0186  0.2090
  104SAPE  H11B10567   2.298   5.863   2.532  2.1161 -1.5044  3.3676
  104SAPE     P10568   2.094   6.056   2.465  0.2395  0.0848 -0.1423
  104SAPE   O1310569   2.131   5.999   2.330  0.2499  0.0777 -0.1489
  104SAPE   O1410570   1.974   6.001   2.536  0.3016 -0.2473  0.1872
  104SAPE   O1210571   2.221   6.072   2.556  0.0957 -0.1127  0.0893
  104SAPE   O1110572   2.071   6.208   2.435  0.4232  0.1020 -0.0875
  104SAPE    C110573   2.161   6.318   2.431 -0.3186 -0.2276  0.7891
  104SAPE    HA10574   2.262   6.272   2.430 -1.4062 -2.9451 -2.5210
  104SAPE    HB10575   2.145   6.371   2.335  1.0079 -0.1850  0.5745
  104SAPE    C210576   2.142   6.409   2.551 -0.0424 -0.1869 -0.6279
  104SAPE    HS10577   2.235   6.466   2.572  1.6401 -2.5325 -1.2834
  104SAPE   O2110578   2.093   6.335   2.666 -0.2675 -0.0722 -0.3029
  104SAPE   C2110579   2.186   6.282   2.735  0.1867  0.5909  0.1640
  104SAPE   O2210580   2.305   6.293   2.718  0.2607  0.7379 -0.4650
  104SAPE   C2210581   2.126   6.220   2.852  0.0174 -0.1615 -0.0876
  104SAPE   H2R10582   2.039   6.278   2.889  2.1453  2.1444  1.6659
  104SAPE   H2S10583   2.079   6.132   2.803 -0.5830  0.3819 -0.4929
  104SAPE    C310584   2.029   6.512   2.515  0.4216  0.0246 -0.3106
  104SAPE    HX10585   1.949   6.465   2.454  1.2149 -0.7115 -0.8096
  104SAPE    HY10586   2.074   6.586   2.446  0.6368 -0.1573 -0.3672
  104SAPE   O3110587   1.972   6.592   2.627  0.1155  0.3682  0.1317
  104SAPE   C3110588   1.847   6.564   2.661  0.8028 -0.0680 -0.3282
  104SAPE   O3210589   1.780   6.474   2.615 -0.5201  0.1037  0.2123
  104SAPE   C3210590   1.809   6.645   2.790 -0.2013 -0.6342  0.5423
  104SAPE   H2X10591   1.706   6.686   2.787  0.0042 -0.0519  1.2309
  104SAPE   H2Y10592   1.883   6.727   2.800 -0.4938 -0.2602 -0.3322
  104SAPE   C2310593   2.226   6.186   2.966  0.4106  0.4337 -0.0127
  104SAPE   H3R10594   2.310   6.127   2.923 -0.8928 -1.2093 -0.3890
  104SAPE   H3S10595   2.178   6.108   3.029  0.6861  1.6867  1.8451
  104SAPE   C2410596   2.269   6.301   3.055  0.3043  0.0102 -0.5833
  104SAPE   H4R10597   2.292   6.390   2.993 -0.0699  0.8796  0.4956
  104SAPE   H4S10598   2.359   6.283   3.118  0.5666  0.1500 -0.9131
  104SAPE   C2510599   2.150   6.340   3.136 -0.9212  0.2783 -0.3352
  104SAPE   H5R10600   2.073   6.389   3.074 -1.9286 -2.6388 -1.5789
  104SAPE   C2610601   2.139   6.320   3.267  0.2569  0.0393  0.2811
  104SAPE   H6R10602   2.046   6.358   3.311 -0.5032  1.1534 -2.1336
  104SAPE   C2710603   2.236   6.254   3.354  0.0081 -0.3446 -0.1239
  104SAPE   H7R10604   2.299   6.326   3.409  1.9116 -1.6240 -0.5530
  104SAPE   H7S10605   2.312   6.201   3.293 -0.7973 -1.9003  0.1712
  104SAPE   C2810606   2.171   6.161   3.451  1.4333  0.7110 -0.2834
  104SAPE   H8R10607   2.142   6.060   3.417 -1.1165  1.2696  0.0743
  104SAPE   C2910608   2.149   6.182   3.587  0.0615  0.5930 -0.5120
  104SAPE   H9R10609   2.079   6.114   3.638 -1.2085  1.6365 -0.7928
  104SAPE  C21010610   2.182   6.311   3.666  0.3450  1.1623 -0.2772
  104SAPE  H10R10611   2.123   6.310   3.760 -0.0671 -0.6929 -0.5223
  104SAPE  H10S10612   2.151   6.402   3.610  0.7134  2.2081  1.1580
  104SAPE  C21110613   2.328   6.312   3.707 -0.2550  0.6311  0.2501
  104SAPE  H11R10614   2.394   6.343   3.624  2.2075 -1.6267  1.2242
  104SAPE  C21210615   2.380   6.277   3.825  0.2806  0.0593  0.5916
  104SAPE  H12R10616   2.490   6.276   3.829  0.4153  2.0208 -1.1391
  104SAPE  C21310617   2.302   6.223   3.950  0.1104 -0.0475  0.8617
  104SAPE  H13R10618   2.314   6.115   3.970  0.7051  0.1128  1.3821
  104SAPE  H13S10619   2.192   6.238   3.937  0.1566  0.0343  0.5391
  104SAPE  C21410620   2.343   6.295   4.075 -0.9915 -0.0781  0.3023
  104SAPE  H14R10621   2.451   6.288   4.090 -0.5905  0.2123 -2.1186
  104SAPE  C21510622   2.266   6.382   4.150 -0.4318 -0.0369  0.1622
  104SAPE  H15R10623   2.316   6.416   4.242  2.5149 -2.0026 -0.5655
  104SAPE  C21610624   2.116   6.392   4.134  0.2016 -0.6818 -0.3530
  104SAPE  H16R10625   2.067   6.309   4.077 -0.3861 -0.7879  0.2946
  104SAPE  H16S10626   2.087   6.482   4.076 -0.5974 -1.2955 -0.9390
  104SAPE  C21710627   2.054   6.395   4.275  0.0628  0.7058  0.6743
  104SAPE  H17R10628   2.089   6.313   4.341 -0.5661 -0.5222 -0.4630
  104SAPE  H17S10629   1.945   6.379   4.259  0.5442 -0.3641 -1.9395
  104SAPE  C21810630   2.070   6.537   4.345  0.0242 -0.1810 -0.1944
  104SAPE  H18R10631   2.030   6.610   4.271 -1.1569  0.0573  0.6488
  104SAPE  H18S10632   2.178   6.553   4.363 -0.5851  0.0007  4.7566
  104SAPE  C21910633   1.994   6.537   4.481  0.1290  0.4702  0.2353
  104SAPE  H19R10634   2.026   6.454   4.549  1.7713  2.0934  1.5263
  104SAPE  H19S10635   1.886   6.525   4.455  0.1974  0.7143 -0.1661
  104SAPE  C22010636   1.991   6.665   4.565  0.4073 -0.1329  0.6301
  104SAPE  H20R10637   1.915   6.664   4.646  1.4204 -0.2898  1.6059
  104SAPE  H20S10638   1.992   6.752   4.496  1.4533 -0.6060  0.0294
  104SAPE  H20T10639   2.089   6.672   4.617  0.9211 -0.8136 -0.2234
  104SAPE   C3310640   1.809   6.563   2.911 -0.3852  0.2733 -0.3015
  104SAPE   H3X10641   1.916   6.533   2.914 -0.3040  0.4033 -1.5261
  104SAPE   H3Y10642   1.750   6.469   2.906  0.4373 -0.4661  2.2451
  104SAPE   C3410643   1.756   6.641   3.038  0.2056  0.7032 -0.2377
  104SAPE   H4X10644   1.651   6.674   3.022  0.6752  3.0076  0.9699
  104SAPE   H4Y10645   1.821   6.730   3.048  2.8483 -1.1629  0.2689
  104SAPE   C3510646   1.757   6.561   3.171  0.7508  0.3667 -0.3241
  104SAPE   H5X10647   1.852   6.504   3.177  0.6899  0.3715  0.8540
  104SAPE   H5Y10648   1.672   6.490   3.164 -1.2978  2.6960 -0.4610
  104SAPE   C3610649   1.739   6.651   3.295  0.0758  0.1747  0.7946
  104SAPE   H6X10650   1.632   6.675   3.311 -0.2577  0.6093 -1.6653
  104SAPE   H6Y10651   1.791   6.749   3.279  1.0079 -0.1652  1.6325
  104SAPE   C3710652   1.804   6.578   3.415  0.1883  0.2324 -0.0143
  104SAPE   H7X10653   1.905   6.549   3.379  0.4003  0.6507  0.2314
  104SAPE   H7Y10654   1.749   6.484   3.438  0.8039 -0.1833 -0.2164
  104SAPE   C3810655   1.804   6.679   3.531 -0.6636  0.3130 -0.1421
  104SAPE   H8X10656   1.695   6.689   3.550 -0.5045  0.7096  0.6158
  104SAPE   H8Y10657   1.839   6.779   3.499 -0.5919  0.6168  0.8434
  104SAPE   C3910658   1.888   6.635   3.654 -0.2052 -0.7864  0.3940
  104SAPE   H9X10659   1.994   6.620   3.623 -0.4018  1.7981 -1.9589
  104SAPE   H9Y10660   1.856   6.534   3.686  2.9629 -1.5869  1.3596
  104SAPE  C31010661   1.872   6.734   3.770 -0.9012 -0.3310 -0.0490
  104SAPE  H10X10662   1.766   6.768   3.771 -0.4701  1.1038  0.6035
  104SAPE  H10Y10663   1.941   6.821   3.760 -1.9964  0.7057  1.0216
  104SAPE  C31110664   1.913   6.674   3.908  0.0602 -0.2355 -0.1340
  104SAPE  H11X10665   2.017   6.689   3.944  0.4802 -2.0509 -0.4876
  104SAPE  H11Y10666   1.898   6.566   3.888  0.3115 -0.6357  1.6645
  104SAPE  C31210667   1.819   6.718   4.020  0.2137 -0.4682 -1.0053
  104SAPE  H12X10668   1.831   6.660   4.115  0.0105 -0.2373 -0.8361
  104SAPE  H12Y10669   1.713   6.706   3.988 -1.1098  0.1582  2.6691
  104SAPE  C31310670   1.848   6.867   4.072 -0.3251 -0.1091  0.0103
  104SAPE  H13X10671   1.807   6.943   4.002 -1.5511 -0.0045  0.8136
  104SAPE  H13Y10672   1.954   6.898   4.066 -1.3191  4.0874  1.2087
  104SAPE  C31410673   1.803   6.888   4.215  0.4595  0.5170  0.0794
  104SAPE  H14X10674   1.870   6.830   4.282 -0.1622 -2.5432 -1.7276
  104SAPE  H14Y10675   1.705   6.835   4.214  0.5959  0.2596 -0.3919
  104SAPE  C31510676   1.781   7.033   4.248 -0.4594 -0.7730  0.2449
  104SAPE  H15X10677   1.710   7.081   4.177  0.9525  0.6746 -0.2736
  104SAPE  H15Y10678   1.880   7.080   4.230 -0.6760  0.0310  1.0618
  104SAPE  C31610679   1.732   7.041   4.399 -0.1704  1.2189 -0.3694
  104SAPE  H16X10680   1.752   7.143   4.438 -2.0332  1.3361  0.3645
  104SAPE  H16Y10681   1.787   6.970   4.464 -1.3515  0.2017 -0.4430
  104SAPE  C31710682   1.584   7.004   4.432  0.3745  0.1870 -0.0205
  104SAPE  H17X10683   1.566   6.904   4.386 -1.2429  0.4233  0.0520
  104SAPE  H17Y10684   1.510   7.073   4.387 -2.3495 -2.4249  0.1748
  104SAPE  C31810685   1.546   7.004   4.580 -0.3957 -1.0420 -0.1978
  104SAPE  H18X10686   1.605   6.937   4.647  0.3474  0.0288  0.2469
  104SAPE  H18Y10687   1.440   6.973   4.588 -0.4859 -0.6835  0.0355
  104SAPE  H18Z10688   1.560   7.103   4.627 -0.0025 -1.6659  1.0402
  105SAPE     N10689   4.287   3.344   2.049 -0.2463  0.0400 -0.1061
  105SAPE   HN110690   4.198   3.396   2.065 -0.0080  0.4730 -0.1636
  105SAPE   HN210691   4.355   3.414   2.014 -1.0566  0.6780 -0.4295
  105SAPE   HN310692   4.279   3.264   1.984  2.0546 -0.7980  0.5337
  105SAPE   C1210693   4.335   3.302   2.190  0.4026  0.7724 -0.5266
  105SAPE  H12A10694   4.433   3.250   2.180 -0.1241 -0.0081 -1.8623
  105SAPE  H12B10695   4.271   3.217   2.221  1.7556 -0.2024 -0.2922
  105SAPE   C1110696   4.317   3.420   2.281 -0.7763 -0.3844 -0.5975
  105SAPE  H11A10697   4.381   3.501   2.239 -1.3474 -1.2010 -3.2546
  105SAPE  H11B10698   4.348   3.386   2.382 -3.8752 -1.2244  0.1893
  105SAPE     P10699   4.065   3.405   2.364 -0.3089 -0.3055 -0.3130
  105SAPE   O1310700   3.985   3.521   2.405 -0.2679 -0.4771  0.0880
  105SAPE   O1410701   3.995   3.288   2.303 -0.1090 -0.7538  0.4775
  105SAPE   O1210702   4.174   3.459   2.272  0.4047 -0.1125 -0.1115
  105SAPE   O1110703   4.144   3.365   2.498 -0.6997 -0.1936 -0.2048
  105SAPE    C110704   4.176   3.229   2.528 -0.0656  0.7610  0.3355
  105SAPE    HA10705   4.162   3.160   2.442 -0.1026  1.1910 -0.0083
  105SAPE    HB10706   4.280   3.232   2.565  0.8620  3.5787 -2.0242
  105SAPE    C210707   4.102   3.155   2.637  0.5145  0.5860 -0.7175
  105SAPE    HS10708   3.997   3.140   2.604  0.0966 -0.9203  1.1204
  105SAPE   O2110709   4.099   3.244   2.757 -0.1091 -0.3327 -0.3062
  105SAPE   C2110710   4.037   3.207   2.864 -0.3612 -0.0896  0.1805
  105SAPE   O2210711   3.960   3.112   2.868 -0.2748 -0.9429  0.2930
  105SAPE   C2210712   4.081   3.303   2.979  0.4071 -0.0527  0.1800
  105SAPE   H2R10713   4.192   3.314   2.970  0.4882 -0.4459  0.7082
  105SAPE   H2S10714   4.040   3.405   2.962  1.5655  0.2622 -0.9182
  105SAPE    C310715   4.155   3.007   2.672 -0.7658 -0.3110 -0.1612
  105SAPE    HX10716   4.176   2.960   2.574  1.3532 -1.0760  0.6105
  105SAPE    HY10717   4.079   2.952   2.733 -3.1104  2.6386 -0.1703
  105SAPE   O3110718   4.282   3.015   2.739  0.2826  0.2406  0.2781
  105SAPE   C3110719   4.371   2.921   2.714 -0.2680 -0.3637 -0.4521
  105SAPE   O3210720   4.353   2.831   2.634  0.7565 -0.1031 -0.2283
  105SAPE   C3210721   4.501   2.940   2.789 -0.1656 -0.8595  0.2610
  105SAPE   H2X10722   4.578   2.964   2.713 -0.2283 -3.2001 -0.6173
  105SAPE   H2Y10723   4.531   2.846   2.839 -1.4168 -1.2667  0.2897
  105SAPE   C2310724   4.070   3.249   3.120  0.1358  0.0356  0.0034
  105SAPE   H3R10725   4.121   3.323   3.186 -1.8050  0.0050  1.6391
  105SAPE   H3S10726   4.121   3.151   3.130  0.8952  0.5285  1.2917
  105SAPE   C2410727   3.924   3.226   3.171 -0.3552  0.8247 -0.6992
  105SAPE   H4R10728   3.873   3.154   3.104  1.3932  1.2062 -2.5367
  105SAPE   H4S10729   3.868   3.319   3.147 -0.6057  0.8420 -0.0596
  105SAPE   C2510730   3.921   3.177   3.316  0.0270  0.6378 -1.5109
  105SAPE   H5R10731   4.006   3.200   3.383 -0.7221  0.1799 -0.3649
  105SAPE   C2610732   3.839   3.080   3.368 -0.6679 -0.3002 -0.0669
  105SAPE   H6R10733   3.847   3.050   3.474 -0.9086 -1.4097 -0.3432
  105SAPE   C2710734   3.732   3.019   3.287  0.1129  0.0453 -0.3336
  105SAPE   H7R10735   3.714   3.076   3.194  1.6408 -1.2914 -1.5019
  105SAPE   H7S10736   3.640   3.019   3.349  1.0417 -0.2348  1.1008
  105SAPE   C2810737   3.779   2.880   3.247 -0.2837 -1.1592 -0.6136
  105SAPE   H8R10738   3.884   2.877   3.213  0.7368  0.7390  2.0437
  105SAPE   C2910739   3.718   2.762   3.240  0.4551  0.3423 -0.0210
  105SAPE   H9R10740   3.774   2.670   3.216 -0.7337 -0.2990 -0.4270
  105SAPE  C21010741   3.577   2.746   3.275  0.5056 -0.3854 -0.1405
  105SAPE  H10R10742   3.522   2.681   3.204 -1.0204  0.9921 -0.2751
  105SAPE  H10S10743   3.515   2.837   3.264 -1.9550 -1.7675  1.3677
  105SAPE  C21110744   3.546   2.706   3.420 -0.6009 -0.0692  1.1538
  105SAPE  H11R10745   3.609   2.765   3.489  1.1664  0.2306 -0.6132
  105SAPE  C21210746   3.457   2.615   3.460 -0.6430  0.5037  0.0377
  105SAPE  H12R10747   3.462   2.587   3.567  0.6375 -1.0566 -0.3850
  105SAPE  C21310748   3.361   2.541   3.370  0.2611  0.3890 -0.8418
  105SAPE  H13R10749   3.383   2.432   3.371 -1.0536  0.1081 -0.7014
  105SAPE  H13S10750   3.370   2.573   3.264  2.0419 -0.1029 -0.8780
  105SAPE  C21410751   3.216   2.556   3.413 -0.0520  0.4843 -0.3173
  105SAPE  H14R10752   3.157   2.607   3.336  0.4092  1.1397 -0.2442
  105SAPE  C21510753   3.156   2.470   3.499 -0.5064 -0.0016 -0.9846
  105SAPE  H15R10754   3.051   2.487   3.526 -0.1814 -1.4033  1.4306
  105SAPE  C21610755   3.221   2.362   3.584  0.1363  0.8161 -0.1308
  105SAPE  H16R10756   3.168   2.369   3.682 -0.3911  0.7430 -0.4070
  105SAPE  H16S10757   3.331   2.376   3.587  0.4534 -1.1949 -0.7052
  105SAPE  C21710758   3.206   2.213   3.540 -0.3482  0.7185  0.4099
  105SAPE  H17R10759   3.226   2.206   3.431 -1.7806  2.6345 -0.0367
  105SAPE  H17S10760   3.096   2.194   3.544 -0.2661 -1.3529 -3.1383
  105SAPE  C21810761   3.300   2.109   3.599  0.7476  0.6589 -0.1237
  105SAPE  H18R10762   3.396   2.109   3.544 -1.3497  0.8453 -4.1002
  105SAPE  H18S10763   3.249   2.013   3.577  0.2453  0.7927  0.4211
  105SAPE  C21910764   3.327   2.117   3.752 -0.2633  0.2920  0.7377
  105SAPE  H19R10765   3.227   2.118   3.800  0.6150 -0.5917  2.6809
  105SAPE  H19S10766   3.374   2.218   3.763  0.1439  0.1777  0.1314
  105SAPE  C22010767   3.412   2.019   3.805  0.4579  0.7992 -0.2608
  105SAPE  H20R10768   3.429   2.009   3.914 -1.1305 -1.3434 -0.1429
  105SAPE  H20S10769   3.514   2.021   3.763  1.4329 -0.5847  1.8640
  105SAPE  H20T10770   3.373   1.920   3.774  0.2024  1.1397 -1.0741
  105SAPE   C3310771   4.497   3.056   2.897  0.6858  0.0261 -0.4871
  105SAPE   H3X10772   4.445   3.141   2.848 -2.3277 -1.1841  0.3712
  105SAPE   H3Y10773   4.597   3.088   2.932  0.0031  0.8735  0.7473
  105SAPE   C3410774   4.407   3.019   3.018  0.1478 -0.2503 -0.3648
  105SAPE   H4X10775   4.424   2.912   3.045  0.7107  0.3799  2.0627
  105SAPE   H4Y10776   4.303   3.026   2.982 -0.2541 -3.9168 -0.3116
  105SAPE   C3510777   4.427   3.097   3.153  0.0733  0.5940  0.3146
  105SAPE   H5X10778   4.401   3.204   3.142  1.2389  0.7371 -1.6695
  105SAPE   H5Y10779   4.534   3.084   3.183  0.1072  0.9719  0.3576
  105SAPE   C3610780   4.345   3.032   3.267 -0.4420  0.0099  0.1984
  105SAPE   H6X10781   4.398   2.943   3.307  1.1762  0.4361 -0.9371
  105SAPE   H6Y10782   4.247   2.999   3.226 -0.5522  0.0376  0.4321
  105SAPE   C3710783   4.319   3.133   3.379 -0.1954 -0.5727  0.4135
  105SAPE   H7X10784   4.256   3.220   3.351  1.2865  0.0984 -1.0285
  105SAPE   H7Y10785   4.418   3.177   3.405  0.9295 -1.3818 -2.1515
  105SAPE   C3810786   4.259   3.063   3.505 -0.8834 -0.9456 -0.7816
  105SAPE   H8X10787   4.321   2.974   3.529  0.5573 -0.1346 -1.3567
  105SAPE   H8Y10788   4.152   3.040   3.483 -0.9831 -2.3337  0.8868
  105SAPE   C3910789   4.280   3.155   3.630  0.1869  0.0867  0.2823
  105SAPE   H9X10790   4.255   3.261   3.611  0.7475  0.4575  1.4753
  105SAPE   H9Y10791   4.390   3.148   3.650  0.2448  0.0574 -0.0503
  105SAPE  C31010792   4.216   3.095   3.755  0.5531  0.6294 -0.3424
  105SAPE  H10X10793   4.270   3.135   3.843  0.7641 -1.5981  0.6138
  105SAPE  H10Y10794   4.233   2.985   3.757  0.9984  0.6273 -2.0881
  105SAPE  C31110795   4.066   3.130   3.757 -0.4096 -0.6864 -0.4708
  105SAPE  H11X10796   4.001   3.090   3.676 -2.4673 -0.0653  0.7843
  105SAPE  H11Y10797   4.071   3.241   3.752  1.9813 -0.7977 -2.1706
  105SAPE  C31210798   3.996   3.075   3.881  0.4719  0.2814 -0.0051
  105SAPE  H12X10799   4.064   3.104   3.964  0.9868 -0.1936 -0.2490
  105SAPE  H12Y10800   4.000   2.964   3.888 -0.2760  0.1203 -1.6596
  105SAPE  C31310801   3.850   3.121   3.904 -0.2045  0.0137  0.3292
  105SAPE  H13X10802   3.799   3.071   3.818  1.4837 -0.9203 -0.1807
  105SAPE  H13Y10803   3.839   3.231   3.900  1.7734  0.2214 -1.0961
  105SAPE  C31410804   3.797   3.078   4.040 -0.3145 -0.3384 -0.4200
  105SAPE  H14X10805   3.865   3.100   4.125 -0.1916 -2.2396 -0.0038
  105SAPE  H14Y10806   3.781   2.969   4.045  1.9446 -0.6720  0.9553
  105SAPE  C31510807   3.655   3.136   4.067 -0.3486 -0.7865  0.3407
  105SAPE  H15X10808   3.575   3.081   4.012 -0.9145  1.4258 -1.1842
  105SAPE  H15Y10809   3.647   3.243   4.040  2.8362 -0.5068  0.1063
  105SAPE  C31610810   3.612   3.122   4.214  0.0172  0.2220  0.1542
  105SAPE  H16X10811   3.516   3.179   4.218  0.8784  1.6819  0.7169
  105SAPE  H16Y10812   3.685   3.170   4.283  0.0834 -1.3556  1.2408
  105SAPE  C31710813   3.587   2.984   4.273 -0.1266  0.1979 -0.1606
  105SAPE  H17X10814   3.687   2.936   4.261 -1.0193 -1.9318  0.4776
  105SAPE  H17Y10815   3.523   2.931   4.199  1.0560  1.1240 -1.9424
  105SAPE  C31810816   3.537   2.965   4.414 -0.7078 -0.3991 -0.4409
  105SAPE  H18X10817   3.481   2.870   4.427  1.2304 -1.6835 -1.1985
  105SAPE  H18Y10818   3.461   3.041   4.445  0.8120  1.2987 -0.7202
  105SAPE  H18Z10819   3.622   2.973   4.484 -0.8504 -2.8632  0.0916
  106SAPE     N10820   5.419   5.149   2.312 -0.1973 -0.5377  0.2387
  106SAPE   HN110821   5.446   5.080   2.239  1.8160  1.6114 -1.1919
  106SAPE   HN210822   5.316   5.157   2.322 -0.1858 -1.3988  1.1532
  106SAPE   HN310823   5.448   5.244   2.281 -0.8943  0.2680  1.9428
  106SAPE   C1210824   5.501   5.101   2.431  0.8664  0.2561 -0.8063
  106SAPE  H12A10825   5.445   5.124   2.523  0.6537  1.6151 -1.2534
  106SAPE  H12B10826   5.599   5.153   2.431  0.5793  0.8019 -1.1840
  106SAPE   C1110827   5.516   4.950   2.419  0.1905  0.3056  0.1776
  106SAPE  H11A10828   5.560   4.925   2.320  0.8875 -0.9572  0.7839
  106SAPE  H11B10829   5.419   4.898   2.436  0.3380  0.6252  2.3391
  106SAPE     P10830   5.752   4.922   2.526  0.3709 -0.1108 -0.3856
  106SAPE   O1310831   5.801   4.785   2.543 -0.1493 -0.6083  0.2414
  106SAPE   O1410832   5.794   4.994   2.406 -0.0512  0.3577  0.3654
  106SAPE   O1210833   5.597   4.914   2.529  0.2174  0.1617  0.0217
  106SAPE   O1110834   5.783   4.993   2.657 -0.0340  0.1012  0.8235
  106SAPE    C110835   5.685   5.066   2.733  0.2388  0.1793  0.6866
  106SAPE    HA10836   5.599   5.094   2.670  0.6918 -1.7870 -0.9323
  106SAPE    HB10837   5.638   5.006   2.814 -0.1537  2.2050  2.0353
  106SAPE    C210838   5.744   5.201   2.782  0.3076 -0.0679  0.0114
  106SAPE    HS10839   5.802   5.244   2.698 -0.1346  0.1510 -0.1871
  106SAPE   O2110840   5.829   5.163   2.890 -0.2682  0.0266  0.1830
  106SAPE   C2110841   5.921   5.247   2.935  0.2595 -0.9278  0.0379
  106SAPE   O2210842   5.948   5.354   2.882  0.0367  0.2743  0.0040
  106SAPE   C2210843   5.988   5.188   3.058 -0.2078 -0.5875 -0.0664
  106SAPE   H2R10844   5.928   5.103   3.097 -2.7253  1.7863  1.6303
  106SAPE   H2S10845   6.089   5.155   3.025  0.5537 -0.5268  2.0309
  106SAPE    C310846   5.634   5.300   2.829  0.2098  0.3289  0.0162
  106SAPE    HX10847   5.583   5.308   2.731 -0.6683 -2.8889  0.1225
  106SAPE    HY10848   5.684   5.396   2.855  2.7423 -0.6651 -0.8417
  106SAPE   O3110849   5.546   5.250   2.935 -0.1232 -0.0173  0.1240
  106SAPE   C3110850   5.578   5.269   3.073  0.3381  0.4975  0.2302
  106SAPE   O3210851   5.672   5.336   3.112  0.6613  0.4807 -0.0342
  106SAPE   C3210852   5.483   5.195   3.162 -0.0861  0.6508  0.2332
  106SAPE   H2X10853   5.491   5.089   3.131  2.2522  0.3937  1.4467
  106SAPE   H2Y10854   5.379   5.225   3.140 -1.2643 -1.7835  1.9607
  106SAPE   C2310855   6.012   5.295   3.172  0.3740 -0.6735 -0.0723
  106SAPE   H3R10856   5.916   5.300   3.228  0.2703 -1.5056 -0.1505
  106SAPE   H3S10857   6.018   5.394   3.122 -0.5185 -0.6719 -0.2081
  106SAPE   C2410858   6.132   5.281   3.262  0.4705 -0.2348  0.1190
  106SAPE   H4R10859   6.217   5.260   3.194 -0.5096  0.0772 -1.2656
  106SAPE   H4S10860   6.115   5.196   3.331  0.3344 -0.5594 -0.3080
  106SAPE   C2510861   6.158   5.407   3.344  0.2722 -0.6066  0.3748
  106SAPE   H5R10862   6.219   5.482   3.292 -0.5114  0.4110  0.8816
  106SAPE   C2610863   6.127   5.426   3.474 -0.2693 -0.4356  0.7342
  106SAPE   H6R10864   6.151   5.523   3.520 -1.2662 -0.2847  0.9558
  106SAPE   C2710865   6.058   5.331   3.568 -0.3309 -0.6151 -0.2267
  106SAPE   H7R10866   6.059   5.364   3.674 -1.3677  0.1454 -0.4417
  106SAPE   H7S10867   6.104   5.229   3.564 -0.3552 -0.6272 -0.2028
  106SAPE   C2810868   5.915   5.329   3.532  0.6641  0.6403  0.1796
  106SAPE   H8R10869   5.879   5.387   3.446  0.1530  0.5004  0.2988
  106SAPE   C2910870   5.815   5.302   3.616 -0.4554  0.1049 -0.0658
  106SAPE   H9R10871   5.716   5.291   3.568 -0.5550 -1.3023  0.4017
  106SAPE  C21010872   5.834   5.243   3.750 -0.2966 -0.0126 -0.2517
  106SAPE  H10R10873   5.938   5.226   3.786 -0.6341  0.9646  1.3352
  106SAPE  H10S10874   5.771   5.152   3.756  0.3736 -0.4054  1.7879
  106SAPE  C21110875   5.787   5.341   3.855 -0.6781 -0.3140  0.7536
  106SAPE  H11R10876   5.764   5.441   3.814  0.9418 -0.5648 -0.8868
  106SAPE  C21210877   5.798   5.322   3.989  0.2763  0.8031 -0.2272
  106SAPE  H12R10878   5.753   5.399   4.053 -1.2983 -0.5840  0.4266
  106SAPE  C21310879   5.850   5.201   4.063 -0.1116 -0.4688 -0.2227
  106SAPE  H13R10880   5.957   5.223   4.083 -0.3131  0.7480 -0.4039
  106SAPE  H13S10881   5.848   5.114   3.994  0.3955 -1.4142  0.9277
  106SAPE  C21410882   5.775   5.165   4.183 -0.2674 -0.2603 -0.8971
  106SAPE  H14R10883   5.674   5.207   4.186  0.1094  0.6265  0.5974
  106SAPE  C21510884   5.825   5.104   4.293  0.4846 -0.6994  0.1583
  106SAPE  H15R10885   5.756   5.095   4.379  0.7666  1.1683  0.6219
  106SAPE  C21610886   5.965   5.040   4.297  0.6857 -0.2931 -0.0223
  106SAPE  H16R10887   6.027   5.039   4.204  1.5646  0.2188  0.5362
  106SAPE  H16S10888   5.962   4.937   4.337 -0.0625 -0.3976 -0.3319
  106SAPE  C21710889   6.035   5.117   4.402  0.3094 -0.0450  0.4302
  106SAPE  H17R10890   6.014   5.226   4.401  0.0896 -0.0700  1.2300
  106SAPE  H17S10891   6.143   5.103   4.383  0.1872  0.1427 -0.4722
  106SAPE  C21810892   6.009   5.060   4.543  0.1970 -0.1672  0.2931
  106SAPE  H18R10893   6.027   4.951   4.547  1.9882  0.1171  0.9846
  106SAPE  H18S10894   5.903   5.080   4.569 -0.2182  1.5861 -2.3555
  106SAPE  C21910895   6.093   5.138   4.643  0.0718 -0.0565  0.0813
  106SAPE  H19R10896   6.050   5.240   4.648 -3.0362 -1.2052 -0.7021
  106SAPE  H19S10897   6.193   5.151   4.596  0.3708 -1.1495  0.3744
  106SAPE  C22010898   6.106   5.077   4.784 -0.5466  0.3388  0.0188
  106SAPE  H20R10899   6.143   4.976   4.760  0.8044  1.1064 -1.2657
  106SAPE  H20S10900   6.007   5.062   4.834  0.0375 -1.6456  0.6771
  106SAPE  H20T10901   6.178   5.122   4.856  0.9583 -2.7834  0.6211
  106SAPE   C3310902   5.528   5.218   3.310  0.0550 -0.0509 -0.1386
  106SAPE   H3X10903   5.550   5.325   3.329 -0.3312 -0.0489  0.3435
  106SAPE   H3Y10904   5.614   5.150   3.326  1.7516  1.1986 -3.1601
  106SAPE   C3410905   5.405   5.188   3.407  0.0493 -0.0793 -0.2077
  106SAPE   H4X10906   5.373   5.085   3.379 -1.0777 -0.3214  1.7391
  106SAPE   H4Y10907   5.330   5.256   3.362  0.0473 -0.1272 -0.2780
  106SAPE   C3510908   5.448   5.186   3.550 -0.3522 -0.0831  0.8418
  106SAPE   H5X10909   5.482   5.290   3.570  0.1402  0.0805 -0.6887
  106SAPE   H5Y10910   5.544   5.132   3.567 -0.0550 -0.4047 -1.5308
  106SAPE   C3610911   5.342   5.159   3.659  0.2640 -0.1005 -0.0196
  106SAPE   H6X10912   5.317   5.052   3.644 -1.5316  0.6618 -3.2688
  106SAPE   H6Y10913   5.246   5.211   3.640  0.8782  1.5596  1.1881
  106SAPE   C3710914   5.391   5.177   3.805  0.0370  0.1182 -0.2227
  106SAPE   H7X10915   5.393   5.284   3.833 -1.3618 -0.0447  0.5947
  106SAPE   H7Y10916   5.497   5.144   3.811  0.3657  1.1529 -0.2044
  106SAPE   C3810917   5.320   5.097   3.917 -0.3831 -0.6982  0.9040
  106SAPE   H8X10918   5.339   4.990   3.894 -0.0565 -0.8174  1.6998
  106SAPE   H8Y10919   5.209   5.104   3.910 -0.3228 -1.2763 -2.4264
  106SAPE   C3910920   5.370   5.131   4.055 -0.2630 -0.0866  0.7352
  106SAPE   H9X10921   5.481   5.138   4.053 -0.3578  2.2674 -1.0005
  106SAPE   H9Y10922   5.353   5.048   4.126 -1.8207 -0.4824 -0.0532
  106SAPE  C31010923   5.324   5.259   4.109  0.0287 -0.7304  0.0944
  106SAPE  H10X10924   5.213   5.252   4.114 -0.3583  0.6963 -3.4544
  106SAPE  H10Y10925   5.358   5.342   4.043 -1.9945  0.4058  0.3798
  106SAPE  C31110926   5.378   5.289   4.248 -0.1747  0.8624 -0.2260
  106SAPE  H11X10927   5.341   5.386   4.288 -0.1622  0.1333  1.6335
  106SAPE  H11Y10928   5.489   5.292   4.244 -0.1589  0.6613  0.0776
  106SAPE  C31210929   5.320   5.189   4.350 -0.0272  0.0435 -0.1560
  106SAPE  H12X10930   5.348   5.082   4.334  4.3611  1.2522 -1.9602
  106SAPE  H12Y10931   5.209   5.190   4.342  0.1092 -0.9793 -3.8070
  106SAPE  C31310932   5.360   5.222   4.493  0.5062  0.0454  0.4992
  106SAPE  H13X10933   5.358   5.332   4.511 -3.0421  0.0899  0.5634
  106SAPE  H13Y10934   5.468   5.203   4.508  0.5964 -1.2280 -1.3802
  106SAPE  C31410935   5.267   5.143   4.598 -0.0588  0.6874  0.6516
  106SAPE  H14X10936   5.280   5.035   4.573  1.3395  0.4619  2.1533
  106SAPE  H14Y10937   5.162   5.169   4.575 -0.4226 -0.8237  0.4866
  106SAPE  C31510938   5.296   5.167   4.747  0.4926  0.2005  0.1700
  106SAPE  H15X10939   5.397   5.136   4.781  1.0858  1.4532 -0.3713
  106SAPE  H15Y10940   5.223   5.092   4.785  2.0257 -0.7838  1.2771
  106SAPE  C31610941   5.253   5.306   4.796  0.8179 -0.3652 -0.0551
  106SAPE  H16X10942   5.152   5.328   4.756  0.7936  1.0755  0.7228
  106SAPE  H16Y10943   5.319   5.385   4.752  1.6009 -0.6672  0.5615
  106SAPE  C31710944   5.242   5.315   4.943  0.1829 -0.2306 -0.7563
  106SAPE  H17X10945   5.337   5.274   4.982  0.1543  2.4956  2.7301
  106SAPE  H17Y10946   5.151   5.261   4.978  0.5166 -1.5987 -1.9046
  106SAPE  C31810947   5.231   5.462   4.990  0.6147 -0.0237 -0.4884
  106SAPE  H18X10948   5.201   5.468   5.097  2.1302 -0.1664 -0.0424
  106SAPE  H18Y10949   5.157   5.514   4.926  0.1365 -1.4200 -1.1117
  106SAPE  H18Z10950   5.332   5.509   4.993  1.0120 -0.9123  0.7856
  107SAPE     N10951   1.676   2.763   2.737  0.7588  0.6140  0.5944
  107SAPE   HN110952   1.602   2.810   2.794  0.2364  1.2826 -0.5990
  107SAPE   HN210953   1.731   2.687   2.782 -0.2971 -1.8496 -1.9970
  107SAPE   HN310954   1.752   2.827   2.707  2.2697 -1.7664 -1.0388
  107SAPE   C1210955   1.615   2.712   2.609 -1.2094 -0.0327 -0.0122
  107SAPE  H12A10956   1.705   2.674   2.558  1.2212  5.5993 -0.7064
  107SAPE  H12B10957   1.575   2.794   2.546  2.3951  2.4498  0.6251
  107SAPE   C1110958   1.507   2.598   2.612  0.2669 -0.1584  0.1373
  107SAPE  H11A10959   1.482   2.577   2.505 -0.7806  1.2016  0.0850
  107SAPE  H11B10960   1.420   2.647   2.661 -0.4191 -2.2545  1.1491
  107SAPE     P10961   1.450   2.414   2.786  0.4731  0.1184 -0.1226
  107SAPE   O1310962   1.345   2.357   2.697  0.7413 -0.4955 -0.1111
  107SAPE   O1410963   1.516   2.323   2.875 -0.2617  0.6633  0.1794
  107SAPE   O1210964   1.552   2.486   2.693 -0.2329  0.0299  0.6247
  107SAPE   O1110965   1.371   2.526   2.863 -0.5697 -0.5462 -0.5361
  107SAPE    C110966   1.404   2.583   2.989 -0.3863  0.2830 -0.2546
  107SAPE    HA10967   1.514   2.582   3.002 -0.4088  1.3335  0.0983
  107SAPE    HB10968   1.375   2.690   2.986 -1.1302  0.3011  3.2925
  107SAPE    C210969   1.314   2.507   3.093  0.1200 -0.5584 -0.0417
  107SAPE    HS10970   1.332   2.570   3.183  1.1004 -1.5503  0.4822
  107SAPE   O2110971   1.352   2.366   3.119  0.0664  0.0921 -0.2063
  107SAPE   C2110972   1.462   2.350   3.184 -0.0388 -0.1080  0.2915
  107SAPE   O2210973   1.542   2.440   3.218 -0.2856 -0.4354 -0.3608
  107SAPE   C2210974   1.495   2.204   3.201 -0.0307  0.5771 -0.2386
  107SAPE   H2R10975   1.439   2.141   3.128 -1.2247  2.0292 -0.6111
  107SAPE   H2S10976   1.605   2.186   3.198 -0.5425 -3.7077  0.1550
  107SAPE    C310977   1.158   2.513   3.060  0.0022  0.8484 -0.3551
  107SAPE    HX10978   1.137   2.429   2.990  0.5470  2.6180 -2.7653
  107SAPE    HY10979   1.143   2.610   3.009  3.1724  1.1380 -0.9276
  107SAPE   O3110980   1.076   2.488   3.168  0.6983  0.5444 -0.4077
  107SAPE   C3110981   1.067   2.583   3.253 -0.0698  0.2277 -0.2873
  107SAPE   O3210982   1.130   2.686   3.262  0.5100 -0.6799 -0.1939
  107SAPE   C3210983   0.953   2.535   3.356  0.2024  0.6144  0.4426
  107SAPE   H2X10984   0.953   2.425   3.365  0.4307  0.1386 -3.7582
  107SAPE   H2Y10985   0.857   2.552   3.302  0.4160 -1.8157 -0.8440
  107SAPE   C2310986   1.440   2.156   3.343 -0.4847  0.2055  0.2370
  107SAPE   H3R10987   1.430   2.047   3.325 -0.0665 -0.0630  1.5244
  107SAPE   H3S10988   1.338   2.190   3.370 -0.7611  1.0217 -1.6677
  107SAPE   C2410989   1.540   2.176   3.457  0.1252  0.1570  0.8379
  107SAPE   H4R10990   1.642   2.156   3.417 -1.0027  0.8515 -2.7282
  107SAPE   H4S10991   1.525   2.099   3.535 -0.3671 -0.6647 -0.0449
  107SAPE   C2510992   1.534   2.310   3.525  0.7774 -0.0535 -0.3090
  107SAPE   H5R10993   1.520   2.401   3.466  1.6388  0.3100  0.0318
  107SAPE   C2610994   1.542   2.331   3.656  0.4815 -0.5796 -0.1741
  107SAPE   H6R10995   1.531   2.437   3.681  0.3427 -1.0915  2.1254
  107SAPE   C2710996   1.570   2.231   3.767 -0.2204 -0.8688 -0.2074
  107SAPE   H7R10997   1.624   2.139   3.738  0.9900  0.1871 -1.4053
  107SAPE   H7S10998   1.484   2.210   3.835  0.1130 -0.7842  0.2420
  107SAPE   C2810999   1.678   2.284   3.864 -0.3646 -0.4974 -0.1539
  107SAPE   H8R11000   1.738   2.362   3.815 -0.7209 -0.1066  0.0177
  107SAPE   C2911001   1.712   2.243   3.991 -0.6997  0.2980  0.0174
  107SAPE   H9R11002   1.795   2.292   4.044  1.4828  0.2999 -3.1081
  107SAPE  C21011003   1.635   2.130   4.065 -0.2257 -0.2211 -0.2371
  107SAPE  H10R11004   1.565   2.076   3.998 -2.7859  2.8832 -0.2744
  107SAPE  H10S11005   1.571   2.171   4.146  0.4166 -0.0068  0.1767
  107SAPE  C21111006   1.724   2.026   4.132 -1.1629 -0.4279 -0.0224
  107SAPE  H11R11007   1.759   1.942   4.070  0.1114 -0.3331  0.5356
  107SAPE  C21211008   1.793   2.048   4.249  0.4557 -0.4464 -0.0951
  107SAPE  H12R11009   1.866   1.970   4.277 -0.9246 -1.1834  1.5791
  107SAPE  C21311010   1.772   2.162   4.344 -0.3992 -0.3020 -0.2164
  107SAPE  H13R11011   1.670   2.169   4.388  0.0983  2.2811  0.6869
  107SAPE  H13S11012   1.793   2.256   4.290 -1.8765 -0.6825 -1.5326
  107SAPE  C21411013   1.868   2.151   4.454 -0.2474  0.4931 -0.6754
  107SAPE  H14R11014   1.965   2.122   4.412  0.2456  0.3536  0.5203
  107SAPE  C21511015   1.848   2.155   4.593  0.4901  0.4625 -0.0445
  107SAPE  H15R11016   1.932   2.139   4.660  2.1376 -1.8559 -2.4592
  107SAPE  C21611017   1.724   2.165   4.674  0.0532 -0.2125 -0.2151
  107SAPE  H16R11018   1.637   2.126   4.617 -1.6239  1.0146  1.3659
  107SAPE  H16S11019   1.692   2.270   4.693  0.4560 -0.0165 -0.5827
  107SAPE  C21711020   1.720   2.095   4.810 -0.6817  0.8459 -0.2867
  107SAPE  H17R11021   1.625   2.112   4.866 -0.4729 -1.0731  0.7368
  107SAPE  H17S11022   1.796   2.130   4.883 -0.1961 -1.4360  0.3744
  107SAPE  C21811023   1.737   1.935   4.808 -0.5081  0.2241 -0.7987
  107SAPE  H18R11024   1.743   1.908   4.915 -2.9592 -0.2454 -0.7275
  107SAPE  H18S11025   1.829   1.905   4.753 -0.8886 -1.1583 -0.7082
  107SAPE  C21911026   1.606   1.862   4.768 -0.4903 -0.2180  0.2392
  107SAPE  H19R11027   1.626   1.753   4.763 -1.9279 -0.5015  0.3612
  107SAPE  H19S11028   1.561   1.899   4.673  0.0790 -0.4676 -0.1345
  107SAPE  C22011029   1.506   1.861   4.878  0.1514 -0.4901  0.1802
  107SAPE  H20R11030   1.420   1.795   4.854  0.6140 -1.3530  0.8247
  107SAPE  H20S11031   1.459   1.962   4.873 -1.0566 -1.0699 -0.8799
  107SAPE  H20T11032   1.563   1.827   4.967  0.9385  0.0114 -0.1129
  107SAPE   C3311033   0.959   2.623   3.483  0.1457  0.4648 -0.1386
  107SAPE   H3X11034   0.915   2.722   3.459  3.6780  2.2391  0.1429
  107SAPE   H3Y11035   1.065   2.640   3.510 -0.2096  0.9243  1.0282
  107SAPE   C3411036   0.880   2.561   3.607  0.4622  0.2711  0.0027
  107SAPE   H4X11037   0.899   2.452   3.610  0.1757  0.0983 -2.7007
  107SAPE   H4Y11038   0.774   2.593   3.603 -0.4353 -2.5561 -1.2658
  107SAPE   C3511039   0.939   2.612   3.735  0.6721  0.5223 -0.4480
  107SAPE   H5X11040   0.951   2.722   3.729  0.4344  0.5083 -1.2763
  107SAPE   H5Y11041   1.047   2.590   3.745  0.5074  0.2848  1.0862
  107SAPE   C3611042   0.867   2.558   3.861 -0.2487 -0.2765 -0.4340
  107SAPE   H6X11043   0.866   2.447   3.855 -2.1654 -0.2193 -2.5066
  107SAPE   H6Y11044   0.762   2.595   3.863  0.6323  2.6063  2.7171
  107SAPE   C3711045   0.942   2.604   3.984  0.6002 -0.0703 -0.6177
  107SAPE   H7X11046   0.942   2.715   3.987  2.7393  0.0037 -1.3422
  107SAPE   H7Y11047   1.049   2.575   3.976  0.6233 -1.3029  2.6488
  107SAPE   C3811048   0.895   2.544   4.117 -0.1090 -0.0744  0.2291
  107SAPE   H8X11049   0.872   2.437   4.098 -2.3320  0.6118 -1.2792
  107SAPE   H8Y11050   0.799   2.592   4.146 -0.2695 -0.1654 -0.1576
  107SAPE   C3911051   0.991   2.562   4.233  0.6994 -0.2074  0.2405
  107SAPE   H9X11052   1.037   2.664   4.232  0.8423 -0.2743 -1.2158
  107SAPE   H9Y11053   1.071   2.485   4.226  1.1117  0.2794 -0.6377
  107SAPE  C31011054   0.920   2.565   4.371 -0.1446 -0.4105 -0.5577
  107SAPE  H10X11055   0.847   2.648   4.385 -0.4741 -1.0325  1.9107
  107SAPE  H10Y11056   0.999   2.589   4.445 -0.1273  0.2160 -0.7780
  107SAPE  C31111057   0.847   2.440   4.399 -0.0324 -0.0628  0.3433
  107SAPE  H11X11058   0.909   2.349   4.382 -0.8285 -1.0606  2.4275
  107SAPE  H11Y11059   0.765   2.432   4.324  0.9897 -0.0058 -0.8235
  107SAPE  C31211060   0.783   2.437   4.535 -0.1970  0.0898  0.3678
  107SAPE  H12X11061   0.728   2.532   4.554  0.1016  0.6057 -1.1804
  107SAPE  H12Y11062   0.857   2.432   4.618 -0.8387 -1.7488  0.8679
  107SAPE  C31311063   0.681   2.315   4.558  0.7053  0.0701  0.6718
  107SAPE  H13X11064   0.734   2.218   4.550  0.1894 -0.3951  2.4743
  107SAPE  H13Y11065   0.605   2.320   4.477 -0.0133 -0.4316  1.3069
  107SAPE  C31411066   0.593   2.322   4.679  0.2562 -0.0418  0.2844
  107SAPE  H14X11067   0.523   2.408   4.672  1.4822  0.9914  0.4133
  107SAPE  H14Y11068   0.651   2.324   4.774  2.1373 -1.3592 -0.7745
  107SAPE  C31511069   0.504   2.194   4.691 -0.0574  0.1130  0.0292
  107SAPE  H15X11070   0.550   2.108   4.638 -0.3835 -0.5446  0.7902
  107SAPE  H15Y11071   0.407   2.210   4.639 -0.0955 -0.5106 -0.0947
  107SAPE  C31611072   0.463   2.155   4.828  0.6614 -0.0129 -0.6081
  107SAPE  H16X11073   0.389   2.225   4.871 -0.5883 -0.1374 -2.4665
  107SAPE  H16Y11074   0.549   2.148   4.898  0.8393  0.8438 -0.7266
  107SAPE  C31711075   0.382   2.018   4.823  0.0081  0.1940  0.2539
  107SAPE  H17X11076   0.459   1.942   4.798  1.5235  1.9481 -0.6557
  107SAPE  H17Y11077   0.305   2.018   4.743  1.2057 -3.6637 -1.1316
  107SAPE  C31811078   0.309   1.991   4.952  0.7052 -0.3833 -0.1086
  107SAPE  H18X11079   0.250   2.076   4.991  1.9500 -0.9403  3.2808
  107SAPE  H18Y11080   0.383   1.972   5.033  1.6049 -1.8246 -1.2046
  107SAPE  H18Z11081   0.245   1.902   4.932  0.0273  0.4830 -2.1173
  108SAPE     N11082   3.133   3.129   2.498  0.2777 -0.2605  0.0412
  108SAPE   HN111083   3.151   3.229   2.523 -0.9554  0.6428 -2.3132
  108SAPE   HN211084   3.110   3.133   2.396 -0.2742  0.0499  0.1740
  108SAPE   HN311085   3.045   3.102   2.545  0.0504 -1.1617 -0.8758
  108SAPE   C1211086   3.254   3.047   2.530 -0.4244  0.1554  0.7207
  108SAPE  H12A11087   3.229   2.943   2.500 -1.1348  0.4210  0.3612
  108SAPE  H12B11088   3.278   3.039   2.638 -1.5098 -1.2072  0.8922
  108SAPE   C1111089   3.391   3.097   2.488  0.4226  0.8626 -0.3659
  108SAPE  H11A11090   3.393   3.095   2.376 -4.2398  2.8268 -0.7398
  108SAPE  H11B11091   3.467   3.028   2.527  0.7617  0.0729 -2.2831
  108SAPE     P11092   3.477   3.339   2.445  0.4920  0.0652 -0.0176
  108SAPE   O1311093   3.574   3.278   2.348 -0.2221 -0.6819  0.0429
  108SAPE   O1411094   3.367   3.419   2.379  0.1608 -0.1928  0.7302
  108SAPE   O1211095   3.407   3.229   2.537  0.3389 -0.3248  0.1868
  108SAPE   O1111096   3.549   3.422   2.555 -0.8698 -0.5775 -0.1155
  108SAPE    C111097   3.667   3.366   2.616 -0.3422  0.8000  0.7914
  108SAPE    HA11098   3.658   3.256   2.608 -2.2316  0.9834 -0.0924
  108SAPE    HB11099   3.757   3.414   2.571  0.1843 -1.1909 -0.4045
  108SAPE    C211100   3.677   3.398   2.767  0.1950 -0.4580  0.2776
  108SAPE    HS11101   3.756   3.335   2.814  1.1036  0.8672  0.5744
  108SAPE   O2111102   3.551   3.371   2.832 -0.4205 -0.1034  0.1892
  108SAPE   C2111103   3.521   3.247   2.843 -0.4295  0.2532  0.3144
  108SAPE   O2211104   3.585   3.156   2.796 -0.0870  0.1165  0.0257
  108SAPE   C2211105   3.383   3.229   2.905  0.0023  0.0498  0.4502
  108SAPE   H2R11106   3.325   3.310   2.856  1.0543  0.4862 -0.1072
  108SAPE   H2S11107   3.348   3.130   2.868 -1.2760  1.1681 -1.5272
  108SAPE    C311108   3.714   3.550   2.797 -0.1098  0.1504  0.1851
  108SAPE    HX11109   3.634   3.600   2.739 -1.1446 -0.1137  1.3367
  108SAPE    HY11110   3.818   3.566   2.761  0.4082 -2.6262  0.2212
  108SAPE   O3111111   3.701   3.583   2.937 -0.0865  0.0235  0.2480
  108SAPE   C3111112   3.717   3.717   2.953 -0.6778  0.2342 -0.0082
  108SAPE   O3211113   3.739   3.792   2.862 -0.0297 -0.3154  0.2589
  108SAPE   C3211114   3.689   3.760   3.095  0.9425  0.4738  0.3671
  108SAPE   H2X11115   3.775   3.716   3.150 -0.5257 -0.8183  1.7576
  108SAPE   H2Y11116   3.596   3.714   3.137  0.7845  2.8666  2.9642
  108SAPE   C2311117   3.388   3.248   3.058 -0.2495  0.2887  0.2079
  108SAPE   H3R11118   3.442   3.162   3.105  0.9252  0.7899 -0.2042
  108SAPE   H3S11119   3.282   3.246   3.092 -0.1925 -1.5299  0.3948
  108SAPE   C2411120   3.444   3.372   3.122  0.7285  1.2446 -0.3497
  108SAPE   H4R11121   3.551   3.386   3.094  0.7146  1.3967 -0.3297
  108SAPE   H4S11122   3.433   3.371   3.233  0.4352 -2.6759 -0.2801
  108SAPE   C2511123   3.370   3.489   3.059  0.2629  0.1133 -0.5740
  108SAPE   H5R11124   3.410   3.522   2.962  0.2862  0.0551 -0.5844
  108SAPE   C2611125   3.285   3.570   3.127  0.1887 -0.5000  0.3452
  108SAPE   H6R11126   3.238   3.657   3.079 -1.1515 -0.3745  1.7992
  108SAPE   C2711127   3.233   3.546   3.267  0.0804  0.4815 -0.0958
  108SAPE   H7R11128   3.178   3.638   3.297 -0.7775  1.3111 -3.7411
  108SAPE   H7S11129   3.319   3.536   3.336 -1.2723 -0.3867  1.5256
  108SAPE   C2811130   3.135   3.429   3.293  0.4372 -0.6244  0.2293
  108SAPE   H8R11131   3.119   3.358   3.211  2.8032  0.6566 -1.4616
  108SAPE   C2911132   3.067   3.410   3.408 -0.8644 -0.0422 -0.6706
  108SAPE   H9R11133   3.006   3.318   3.411 -0.2808 -0.4118  0.2287
  108SAPE  C21011134   3.069   3.498   3.530  0.4679  0.2294  0.3919
  108SAPE  H10R11135   2.962   3.522   3.548  0.1355  0.7826 -1.9855
  108SAPE  H10S11136   3.128   3.590   3.511  1.3417 -0.8292 -2.7489
  108SAPE  C21111137   3.141   3.452   3.657  0.5054 -0.4995  0.4860
  108SAPE  H11R11138   3.248   3.430   3.644  0.8782  1.1680  0.6111
  108SAPE  C21211139   3.089   3.450   3.786 -0.2668 -0.0823  0.0762
  108SAPE  H12R11140   3.153   3.400   3.860  0.8175 -1.9487 -1.9711
  108SAPE  C21311141   2.949   3.484   3.821 -0.3899  0.7816 -0.3414
  108SAPE  H13R11142   2.878   3.441   3.747 -1.3015  0.2338  0.8275
  108SAPE  H13S11143   2.926   3.593   3.820 -1.2147  0.6266  0.2927
  108SAPE  C21411144   2.908   3.437   3.961  0.5295  0.5232  0.5576
  108SAPE  H14R11145   2.831   3.360   3.975  0.3309  1.0803  2.9829
  108SAPE  C21511146   2.952   3.501   4.075 -0.2388  0.2430 -0.4595
  108SAPE  H15R11147   2.917   3.463   4.172  1.2798 -0.6234 -0.2291
  108SAPE  C21611148   3.055   3.610   4.077 -0.7706  0.2273  0.0099
  108SAPE  H16R11149   2.997   3.704   4.083 -1.8646 -0.4342  0.2081
  108SAPE  H16S11150   3.109   3.629   3.982  0.4088  0.4646  0.7094
  108SAPE  C21711151   3.155   3.598   4.194 -0.4274 -0.4308 -0.3959
  108SAPE  H17R11152   3.102   3.600   4.291 -0.6880 -3.6551 -0.3445
  108SAPE  H17S11153   3.212   3.691   4.212 -0.1745 -0.6407 -0.1185
  108SAPE  C21811154   3.259   3.486   4.174  0.2789 -0.2336 -0.2624
  108SAPE  H18R11155   3.339   3.524   4.106  0.4627 -1.7565 -0.9262
  108SAPE  H18S11156   3.204   3.406   4.120 -0.3075 -0.6407  0.9016
  108SAPE  C21911157   3.311   3.428   4.304  0.0086  0.0281 -0.0533
  108SAPE  H19R11158   3.352   3.519   4.354 -0.8751  1.3343 -1.6240
  108SAPE  H19S11159   3.398   3.359   4.296 -0.4314 -0.3931 -1.6045
  108SAPE  C22011160   3.210   3.360   4.397 -0.6335 -0.2483  0.3152
  108SAPE  H20R11161   3.136   3.294   4.347 -1.1255  0.7028 -0.2482
  108SAPE  H20S11162   3.151   3.431   4.459 -1.2808 -0.5076  0.0062
  108SAPE  H20T11163   3.277   3.303   4.465 -0.5540 -1.5107 -0.7876
  108SAPE   C3311164   3.688   3.912   3.107  0.1693  0.4775  0.0786
  108SAPE   H3X11165   3.601   3.946   3.048  0.8455  1.6206 -0.2890
  108SAPE   H3Y11166   3.783   3.954   3.067  3.2843 -4.6147  1.1417
  108SAPE   C3411167   3.670   3.965   3.252 -0.0743  0.4605 -0.0908
  108SAPE   H4X11168   3.584   3.922   3.307  1.1475 -1.2265  0.6027
  108SAPE   H4Y11169   3.665   4.076   3.243 -0.5156  0.3529 -1.3223
  108SAPE   C3511170   3.793   3.923   3.340  0.0773  0.2771 -0.3294
  108SAPE   H5X11171   3.794   3.813   3.354  0.1520  0.5603  2.3080
  108SAPE   H5Y11172   3.882   3.953   3.281  0.5006 -0.5291 -0.1257
  108SAPE   C3611173   3.791   4.007   3.469 -0.4822  0.2510  0.0741
  108SAPE   H6X11174   3.753   4.110   3.450  0.0951  0.4089 -0.2593
  108SAPE   H6Y11175   3.894   4.033   3.501 -0.6283  0.7670  0.1422
  108SAPE   C3711176   3.719   3.939   3.588  0.5105 -0.7761 -0.2822
  108SAPE   H7X11177   3.747   3.834   3.608 -0.1244 -0.6781  1.2649
  108SAPE   H7Y11178   3.613   3.944   3.555  0.6920  0.1896 -0.7637
  108SAPE   C3811179   3.737   4.018   3.719 -1.1625 -0.0553 -0.6188
  108SAPE   H8X11180   3.844   4.020   3.746 -1.5811 -1.1163  1.2956
  108SAPE   H8Y11181   3.682   3.968   3.802 -1.3335  1.5792  0.3004
  108SAPE   C3911182   3.683   4.162   3.722  0.0029 -0.1868 -0.3859
  108SAPE   H9X11183   3.579   4.166   3.684  0.1967 -2.3730 -1.3212
  108SAPE   H9Y11184   3.752   4.218   3.656  2.2953  2.3251  3.6812
  108SAPE  C31011185   3.688   4.237   3.858  0.1279  0.3191 -0.3682
  108SAPE  H10X11186   3.791   4.264   3.891 -0.1733 -0.0312  0.9305
  108SAPE  H10Y11187   3.637   4.171   3.932 -0.8173 -0.4926 -1.7111
  108SAPE  C31111188   3.608   4.369   3.858 -0.6263  0.2020 -0.2372
  108SAPE  H11X11189   3.505   4.342   3.828 -1.0832  0.4433  1.0733
  108SAPE  H11Y11190   3.649   4.434   3.778  0.4048 -0.3794 -0.2022
  108SAPE  C31211191   3.615   4.436   3.999  0.0103  0.6521 -0.2096
  108SAPE  H12X11192   3.713   4.487   3.999  1.6944 -2.3253  1.1533
  108SAPE  H12Y11193   3.638   4.359   4.075 -0.7047 -0.4022 -1.0227
  108SAPE  C31311194   3.493   4.521   4.035 -0.0726  0.9708 -0.0860
  108SAPE  H13X11195   3.401   4.460   4.048  1.1823 -0.5181  3.0420
  108SAPE  H13Y11196   3.479   4.595   3.954  1.3070  0.6344 -0.6727
  108SAPE  C31411197   3.505   4.596   4.173  0.5951 -0.2102  0.3486
  108SAPE  H14X11198   3.406   4.634   4.205  0.1871 -1.2774  0.3620
  108SAPE  H14Y11199   3.571   4.682   4.147  0.4552 -0.4683 -0.9428
  108SAPE  C31511200   3.567   4.517   4.289  0.4747 -0.1051  0.1541
  108SAPE  H15X11201   3.674   4.505   4.259  0.9326  1.7200  0.9133
  108SAPE  H15Y11202   3.513   4.420   4.290  0.8866 -0.3349  0.3724
  108SAPE  C31611203   3.550   4.585   4.424 -0.0956  0.0043 -0.4983
  108SAPE  H16X11204   3.444   4.564   4.450  0.0353 -0.2498 -0.1663
  108SAPE  H16Y11205   3.573   4.694   4.431  0.2829 -0.1817  2.1138
  108SAPE  C31711206   3.636   4.521   4.542  0.3729  0.3660  0.4942
  108SAPE  H17X11207   3.622   4.411   4.550  2.5802  0.0888  0.9870
  108SAPE  H17Y11208   3.598   4.566   4.635  1.2184  0.2903  0.8811
  108SAPE  C31811209   3.782   4.550   4.528  0.4738 -0.2619 -0.2282
  108SAPE  H18X11210   3.831   4.475   4.462  1.4434 -0.2518  0.4530
  108SAPE  H18Y11211   3.827   4.535   4.628  1.1545  0.9847 -0.3254
  108SAPE  H18Z11212   3.817   4.650   4.493  0.0102 -0.0583 -0.1130
  109SAPE     N11213   3.731   2.796   2.285 -0.1171  0.1363  0.1456
  109SAPE   HN111214   3.728   2.763   2.186 -2.8195  1.1269 -0.1686
  109SAPE   HN211215   3.654   2.744   2.331 -1.3862  0.4581 -1.5246
  109SAPE   HN311216   3.706   2.897   2.287 -1.5865 -0.1556 -1.2934
  109SAPE   C1211217   3.856   2.756   2.361  0.7980  0.2270  0.1574
  109SAPE  H12A11218   3.927   2.842   2.356  1.1144 -0.0765 -1.0590
  109SAPE  H12B11219   3.904   2.670   2.310  0.7460  0.4056 -0.1992
  109SAPE   C1111220   3.825   2.736   2.512  0.2481 -0.6846 -0.5168
  109SAPE  H11A11221   3.793   2.839   2.538 -1.2695 -0.6331 -2.3558
  109SAPE  H11B11222   3.923   2.706   2.555  1.1903  1.9809 -0.6004
  109SAPE     P11223   3.768   2.493   2.561  0.5277  0.3143  0.1889
  109SAPE   O1311224   3.681   2.401   2.480 -0.5056 -0.3009 -0.3620
  109SAPE   O1411225   3.911   2.472   2.529 -0.1856 -0.5956 -0.6051
  109SAPE   O1211226   3.723   2.642   2.535 -0.0996  0.0811  0.5391
  109SAPE   O1111227   3.719   2.480   2.711  0.8964  0.6439 -0.1189
  109SAPE    C111228   3.732   2.355   2.787 -0.1250 -0.2904 -0.3631
  109SAPE    HA11229   3.633   2.307   2.804 -0.6190  0.8579  0.1277
  109SAPE    HB11230   3.797   2.277   2.743  2.1535 -0.0080  2.2179
  109SAPE    C211231   3.800   2.389   2.917  0.0937 -0.3094 -0.7076
  109SAPE    HS11232   3.746   2.471   2.968 -1.2376 -1.2939 -0.4651
  109SAPE   O2111233   3.935   2.430   2.899 -0.1965 -0.0585 -0.3370
  109SAPE   C2111234   3.956   2.555   2.864 -0.3925 -0.0440 -0.1443
  109SAPE   O2211235   3.871   2.642   2.862 -0.3378  0.1106  0.3527
  109SAPE   C2211236   4.102   2.583   2.841  0.4645  0.1353  0.2948
  109SAPE   H2R11237   4.166   2.496   2.815  0.3857  0.0799  0.2896
  109SAPE   H2S11238   4.100   2.650   2.752  0.9372 -0.4974 -0.1978
  109SAPE    C311239   3.790   2.261   3.014  0.2606  0.2283  0.6990
  109SAPE    HX11240   3.859   2.183   2.975 -1.8454 -0.1823 -2.5623
  109SAPE    HY11241   3.694   2.214   2.987  0.0440  1.7355 -1.4871
  109SAPE   O3111242   3.806   2.287   3.153  0.3078 -0.3783 -0.7212
  109SAPE   C3111243   3.702   2.333   3.222  0.1039  0.0409 -0.2755
  109SAPE   O3211244   3.592   2.342   3.181  0.4707 -0.4293 -1.0976
  109SAPE   C3211245   3.746   2.373   3.368  0.9138  0.3689 -0.2707
  109SAPE   H2X11246   3.715   2.478   3.385  3.0305  0.7946  1.3772
  109SAPE   H2Y11247   3.857   2.370   3.363  0.8564  0.4418 -2.7059
  109SAPE   C2311248   4.166   2.663   2.964 -0.2801 -0.3688 -0.4127
  109SAPE   H3R11249   4.121   2.758   2.998  1.7697  0.5040 -0.0054
  109SAPE   H3S11250   4.260   2.701   2.918 -0.6008  2.3269  0.9909
  109SAPE   C2411251   4.207   2.573   3.077 -0.0826  0.1549  0.2386
  109SAPE   H4R11252   4.263   2.490   3.029 -2.5935 -1.1741 -0.5468
  109SAPE   H4S11253   4.117   2.518   3.112  0.0166 -0.2171 -0.0836
  109SAPE   C2511254   4.279   2.638   3.185 -0.2881  0.5669  0.2547
  109SAPE   H5R11255   4.379   2.667   3.150 -0.2067  3.2674  2.4085
  109SAPE   C2611256   4.244   2.666   3.313 -0.4292 -0.3255  0.9615
  109SAPE   H6R11257   4.324   2.701   3.381  0.8761  0.5880 -0.9400
  109SAPE   C2711258   4.111   2.639   3.373  0.1741  0.1665  1.0372
  109SAPE   H7R11259   4.123   2.550   3.438  4.4128 -0.8184 -0.7708
  109SAPE   H7S11260   4.040   2.616   3.291  0.4175 -0.6024  1.0330
  109SAPE   C2811261   4.051   2.754   3.438 -0.1521  0.0891  0.4624
  109SAPE   H8R11262   4.083   2.848   3.391  0.8777  0.3935  1.7074
  109SAPE   C2911263   4.000   2.754   3.563 -0.1160  0.0309  1.1529
  109SAPE   H9R11264   3.958   2.847   3.604 -0.7944  0.2193  0.0812
  109SAPE  C21011265   3.986   2.636   3.645 -0.6100  0.1303  0.1118
  109SAPE  H10R11266   4.077   2.574   3.640 -1.6704 -1.7210  2.0889
  109SAPE  H10S11267   3.907   2.573   3.597 -1.0894  0.2875  0.6830
  109SAPE  C21111268   3.951   2.659   3.789  1.0017  0.1222 -0.1627
  109SAPE  H11R11269   4.036   2.660   3.860 -0.0170 -2.0644  1.2029
  109SAPE  C21211270   3.830   2.682   3.843  0.0556  0.1743 -0.0753
  109SAPE  H12R11271   3.815   2.686   3.952 -0.7821  1.3742 -0.2174
  109SAPE  C21311272   3.710   2.670   3.757 -0.1954 -0.4827 -0.6024
  109SAPE  H13R11273   3.698   2.564   3.728 -0.9185 -0.5207 -0.1814
  109SAPE  H13S11274   3.718   2.728   3.662  0.1027 -0.2753 -0.4556
  109SAPE  C21411275   3.583   2.711   3.833  0.8094  0.2566 -0.6310
  109SAPE  H14R11276   3.579   2.820   3.843  3.0466  0.3570 -0.2452
  109SAPE  C21511277   3.482   2.640   3.882 -0.0829  0.3343  0.0583
  109SAPE  H15R11278   3.403   2.691   3.938 -1.5133 -0.4461 -1.1501
  109SAPE  C21611279   3.476   2.486   3.889  0.4194 -0.3339 -0.5452
  109SAPE  H16R11280   3.549   2.435   3.823  0.7897  0.8409 -1.0815
  109SAPE  H16S11281   3.376   2.450   3.855  0.7655 -0.2659 -1.6819
  109SAPE  C21711282   3.504   2.427   4.029 -0.1626 -0.4581  0.0976
  109SAPE  H17R11283   3.489   2.316   4.028 -1.2833 -0.3269  0.5793
  109SAPE  H17S11284   3.434   2.477   4.099  1.0955 -0.6503  1.5392
  109SAPE  C21811285   3.652   2.461   4.079 -0.6685  0.3799 -0.3156
  109SAPE  H18R11286   3.665   2.569   4.098  1.1881  0.2420 -0.6409
  109SAPE  H18S11287   3.718   2.440   3.992 -0.5253 -1.6057  0.2147
  109SAPE  C21911288   3.708   2.382   4.198  0.1168 -0.0745  0.5442
  109SAPE  H19R11289   3.818   2.391   4.205  0.2628  0.1983 -1.4229
  109SAPE  H19S11290   3.689   2.278   4.163  1.1403  0.3401 -1.3722
  109SAPE  C22011291   3.640   2.396   4.334  0.6579 -0.3906 -0.3395
  109SAPE  H20R11292   3.694   2.471   4.396  3.1813 -2.1268 -0.2847
  109SAPE  H20S11293   3.637   2.299   4.387 -0.3553 -0.0328  0.2858
  109SAPE  H20T11294   3.531   2.413   4.320  0.7023 -0.9835 -1.5744
  109SAPE   C3311295   3.683   2.287   3.484 -0.2129 -1.0448  0.6814
  109SAPE   H3X11296   3.673   2.179   3.462 -0.2545 -0.7157 -1.0494
  109SAPE   H3Y11297   3.587   2.330   3.520 -0.5641 -1.1689 -0.0992
  109SAPE   C3411298   3.773   2.283   3.609 -0.0713 -0.3774  0.1931
  109SAPE   H4X11299   3.783   2.387   3.646  1.2202 -0.3990 -0.0483
  109SAPE   H4Y11300   3.878   2.264   3.578 -0.4838 -0.6974 -1.0591
  109SAPE   C3511301   3.720   2.185   3.704 -0.5670  0.1626  0.4422
  109SAPE   H5X11302   3.705   2.093   3.643 -0.5138  0.3108  0.2018
  109SAPE   H5Y11303   3.627   2.214   3.758 -0.6489  0.1293  0.3191
  109SAPE   C3611304   3.818   2.159   3.815 -0.6642  0.1203  0.5711
  109SAPE   H6X11305   3.840   2.253   3.869  1.5023 -1.1732  2.1463
  109SAPE   H6Y11306   3.915   2.129   3.770 -0.2304  1.3312  0.6767
  109SAPE   C3711307   3.775   2.060   3.929  0.8603  0.1204 -0.2810
  109SAPE   H7X11308   3.734   1.967   3.884  0.6386  0.2593 -0.3628
  109SAPE   H7Y11309   3.687   2.115   3.968  1.5581  0.4207  0.9136
  109SAPE   C3811310   3.886   2.026   4.026  0.2900  0.4705 -0.8103
  109SAPE   H8X11311   3.900   2.109   4.098  0.4198  0.5030 -0.8728
  109SAPE   H8Y11312   3.984   2.010   3.976  0.7581 -0.0282  0.2545
  109SAPE   C3911313   3.842   1.909   4.115 -0.0438  0.5285  0.5406
  109SAPE   H9X11314   3.819   1.834   4.037 -0.2652  2.8617 -1.7723
  109SAPE   H9Y11315   3.752   1.919   4.179 -0.9426  2.0530 -0.8740
  109SAPE  C31011316   3.961   1.855   4.202  0.1343 -0.2657  0.0154
  109SAPE  H10X11317   3.979   1.938   4.274 -3.2464 -1.4841  2.5457
  109SAPE  H10Y11318   4.044   1.848   4.129  1.7221  0.1895  1.7076
  109SAPE  C31111319   3.930   1.716   4.259 -0.1364 -0.1837 -1.0217
  109SAPE  H11X11320   3.928   1.648   4.171 -1.4951 -2.6238  0.7709
  109SAPE  H11Y11321   3.828   1.705   4.299  0.1552 -0.6417 -0.3830
  109SAPE  C31211322   4.037   1.673   4.368  0.5343  0.1315  0.6861
  109SAPE  H12X11323   4.014   1.568   4.396  1.5548 -0.5967 -1.0908
  109SAPE  H12Y11324   4.018   1.744   4.451 -4.2559 -0.4177  0.3325
  109SAPE  C31311325   4.183   1.680   4.315 -0.2665  0.0018 -0.0965
  109SAPE  H13X11326   4.199   1.779   4.267  1.1724 -0.1355  0.0356
  109SAPE  H13Y11327   4.190   1.603   4.236 -0.0704 -0.2815  0.1915
  109SAPE  C31411328   4.292   1.649   4.421  0.9754  0.5561  0.2540
  109SAPE  H14X11329   4.259   1.700   4.514  1.4384 -0.1982  0.8509
  109SAPE  H14Y11330   4.378   1.709   4.385  0.0931  1.1969 -0.8126
  109SAPE  C31511331   4.323   1.499   4.436  0.3136 -0.6541  0.2491
  109SAPE  H15X11332   4.378   1.460   4.347  2.3485 -2.1820  2.0786
  109SAPE  H15Y11333   4.223   1.451   4.430  0.4583 -0.8271 -1.2658
  109SAPE  C31611334   4.403   1.473   4.560 -0.9764  0.1074 -0.2539
  109SAPE  H16X11335   4.346   1.505   4.650 -0.2295  2.5314 -0.5707
  109SAPE  H16Y11336   4.490   1.539   4.580 -0.7529 -0.5603  1.1897
  109SAPE  C31711337   4.458   1.331   4.569 -1.1563 -0.1995 -0.1130
  109SAPE  H17X11338   4.502   1.310   4.669 -1.4078  0.5809  0.1704
  109SAPE  H17Y11339   4.533   1.317   4.488  0.5788 -3.5301  1.8299
  109SAPE  C31811340   4.352   1.222   4.551 -0.2861 -0.5043  0.3256
  109SAPE  H18X11341   4.382   1.118   4.577  3.5829 -0.3775 -2.7137
  109SAPE  H18Y11342   4.316   1.224   4.446  0.8328  0.6530 -0.0736
  109SAPE  H18Z11343   4.268   1.244   4.619 -0.6497 -0.4652 -0.1324
  110SAPE     N11344   3.373   5.860   2.168  0.9724 -0.9882  0.4230
  110SAPE   HN111345   3.424   5.797   2.102  1.9003 -0.7849  0.9284
  110SAPE   HN211346   3.437   5.891   2.244  0.4310 -0.8515  0.8281
  110SAPE   HN311347   3.287   5.820   2.210 -1.1830  0.3551 -2.3465
  110SAPE   C1211348   3.322   5.983   2.098 -0.7919  0.5569  0.0819
  110SAPE  H12A11349   3.351   5.975   1.991  2.1449  0.6019  0.7754
  110SAPE  H12B11350   3.378   6.072   2.135  0.8919 -0.8298  1.0094
  110SAPE   C1111351   3.178   6.026   2.100  0.1965 -0.3326  0.5700
  110SAPE  H11A11352   3.118   5.945   2.053  0.5580  1.6662 -3.7835
  110SAPE  H11B11353   3.158   6.112   2.032 -1.6945  0.6037  2.1845
  110SAPE     P11354   3.125   6.191   2.296 -0.1257 -0.1894 -0.2498
  110SAPE   O1311355   3.217   6.279   2.217  0.2180 -0.4772 -0.5223
  110SAPE   O1411356   2.979   6.226   2.300 -1.4266 -0.0346 -0.1031
  110SAPE   O1211357   3.141   6.050   2.244  0.2935  0.5978  0.0685
  110SAPE   O1111358   3.167   6.193   2.446  0.1452 -0.5831  0.5362
  110SAPE    C111359   3.255   6.098   2.498  0.2281 -0.4482  0.2097
  110SAPE    HA11360   3.195   6.008   2.523 -1.6514  0.4396 -0.8908
  110SAPE    HB11361   3.330   6.062   2.425  0.9594 -0.6443  1.0362
  110SAPE    C211362   3.344   6.149   2.612  0.0749 -0.1533 -0.0803
  110SAPE    HS11363   3.409   6.067   2.649  2.9244  1.8507 -0.3113
  110SAPE   O2111364   3.259   6.198   2.724 -0.5423 -0.5594 -0.4219
  110SAPE   C2111365   3.186   6.121   2.786 -0.0814 -0.3123  0.0258
  110SAPE   O2211366   3.154   6.005   2.761 -0.3527  0.0826  0.0046
  110SAPE   C2211367   3.134   6.194   2.911 -0.6397 -0.6987  0.1211
  110SAPE   H2R11368   3.219   6.252   2.953 -0.5952 -0.8846  0.2854
  110SAPE   H2S11369   3.061   6.266   2.867  0.4372 -0.0354 -0.6430
  110SAPE    C311370   3.427   6.273   2.555  0.5002  0.9510 -1.0278
  110SAPE    HX11371   3.478   6.239   2.462  0.3838 -0.4236 -0.6019
  110SAPE    HY11372   3.357   6.355   2.528 -1.5203 -0.4163 -0.1649
  110SAPE   O3111373   3.533   6.308   2.644  0.6085  0.3176  0.4649
  110SAPE   C3111374   3.498   6.384   2.747 -0.4520 -0.0644  0.2176
  110SAPE   O3211375   3.400   6.457   2.760 -0.6456  0.4576  0.5983
  110SAPE   C3211376   3.586   6.343   2.871  0.4679 -0.2173  0.0274
  110SAPE   H2X11377   3.693   6.325   2.848  0.8911  2.4239 -0.3727
  110SAPE   H2Y11378   3.548   6.241   2.894  0.3050 -0.4607 -1.2405
  110SAPE   C2311379   3.069   6.102   3.011 -0.1224 -0.4282  0.2278
  110SAPE   H3R11380   3.145   6.035   3.058 -0.0798 -0.4561  0.1200
  110SAPE   H3S11381   2.992   6.035   2.968  0.3171  0.4180 -1.9788
  110SAPE   C2411382   2.997   6.175   3.122 -0.3896  0.2121  0.3735
  110SAPE   H4R11383   2.986   6.093   3.196  2.1647 -1.2679 -0.7087
  110SAPE   H4S11384   2.893   6.195   3.090 -0.1958  1.5841  0.5384
  110SAPE   C2511385   3.060   6.299   3.188 -0.4172 -0.1828 -0.0474
  110SAPE   H5R11386   3.073   6.389   3.126  3.7260  0.2593  1.1435
  110SAPE   C2611387   3.101   6.311   3.316 -0.2862 -0.3791  0.5251
  110SAPE   H6R11388   3.141   6.409   3.345 -2.4169  1.0652 -1.1234
  110SAPE   C2711389   3.093   6.212   3.420 -0.0765  0.3061  0.4046
  110SAPE   H7R11390   3.016   6.133   3.402 -0.4867  0.8983 -0.5134
  110SAPE   H7S11391   3.065   6.259   3.516  1.6794 -1.1856  1.7064
  110SAPE   C2811392   3.234   6.164   3.429  0.2441  0.1103  0.2542
  110SAPE   H8R11393   3.259   6.091   3.351 -0.5695 -1.3645  1.3222
  110SAPE   C2911394   3.327   6.225   3.501 -0.3649  0.1301 -0.2744
  110SAPE   H9R11395   3.431   6.188   3.503  0.1091  1.3511 -1.1180
  110SAPE  C21011396   3.311   6.337   3.601 -0.1561  0.0551  0.6224
  110SAPE  H10R11397   3.208   6.348   3.642 -0.5731  0.7323 -0.5642
  110SAPE  H10S11398   3.335   6.427   3.540 -2.0229  0.0405 -0.2047
  110SAPE  C21111399   3.402   6.323   3.723  0.3249 -0.8728 -0.0154
  110SAPE  H11R11400   3.454   6.418   3.743 -1.0691  0.5589 -2.5886
  110SAPE  C21211401   3.406   6.216   3.803 -0.0989  0.2436  0.1449
  110SAPE  H12R11402   3.477   6.213   3.887 -1.0658  0.9754  1.0064
  110SAPE  C21311403   3.317   6.089   3.793 -0.3009  0.2737  0.2098
  110SAPE  H13R11404   3.381   5.999   3.792  0.9491  1.1325 -1.1820
  110SAPE  H13S11405   3.250   6.082   3.705 -0.8300  2.1016  0.4132
  110SAPE  C21411406   3.227   6.109   3.909  0.2948  0.3459  0.4716
  110SAPE  H14R11407   3.166   6.200   3.901 -1.4050 -0.8064 -0.3350
  110SAPE  C21511408   3.234   6.048   4.028  1.1198 -0.5595  0.5483
  110SAPE  H15R11409   3.148   6.076   4.091 -0.7513 -3.0340 -0.7321
  110SAPE  C21611410   3.324   5.935   4.068 -0.0143  0.8518  0.8588
  110SAPE  H16R11411   3.340   5.868   3.981 -2.0038 -2.3180  2.7234
  110SAPE  H16S11412   3.265   5.876   4.142 -0.0738 -0.7852 -0.4250
  110SAPE  C21711413   3.450   5.963   4.146  0.3995  0.4213  1.0383
  110SAPE  H17R11414   3.526   6.002   4.075 -1.2735 -0.2927 -1.2515
  110SAPE  H17S11415   3.489   5.862   4.172  1.0365  0.8280  1.7125
  110SAPE  C21811416   3.434   6.049   4.266 -0.3025 -0.2994 -0.5696
  110SAPE  H18R11417   3.357   6.024   4.342 -1.7031  2.2442 -1.0386
  110SAPE  H18S11418   3.413   6.155   4.237 -2.1840  0.1729  2.1522
  110SAPE  C21911419   3.564   6.047   4.347  0.1351 -0.0642  0.0748
  110SAPE  H19R11420   3.593   5.941   4.363  1.3675  0.3533  0.7613
  110SAPE  H19S11421   3.541   6.104   4.440  0.0730 -0.3559  0.2396
  110SAPE  C22011422   3.673   6.128   4.287 -0.0933  0.8735  0.1093
  110SAPE  H20R11423   3.645   6.233   4.263 -0.7952 -0.1499 -4.3670
  110SAPE  H20S11424   3.705   6.080   4.192 -2.1209 -0.9337  0.2689
  110SAPE  H20T11425   3.761   6.136   4.354 -0.1519  0.0886  0.2864
  110SAPE   C3311426   3.570   6.435   2.994  0.3202 -0.3104 -0.4749
  110SAPE   H3X11427   3.463   6.434   3.026  0.4825  0.5643  0.1288
  110SAPE   H3Y11428   3.600   6.540   2.972 -0.1467 -0.0047  0.3063
  110SAPE   C3411429   3.666   6.392   3.099  0.4207  0.7657  0.0114
  110SAPE   H4X11430   3.770   6.396   3.062  1.5283 -3.5558  2.0354
  110SAPE   H4Y11431   3.660   6.285   3.127  2.9291  0.7044  0.5498
  110SAPE   C3511432   3.643   6.482   3.224  0.0673 -0.1124 -0.7163
  110SAPE   H5X11433   3.538   6.460   3.253 -0.1847  1.6036 -0.1884
  110SAPE   H5Y11434   3.652   6.589   3.193  2.1697 -0.4052 -1.2920
  110SAPE   C3611435   3.734   6.450   3.344  0.2542 -0.3445 -0.1589
  110SAPE   H6X11436   3.836   6.477   3.309 -1.7209  5.1940 -2.7959
  110SAPE   H6Y11437   3.713   6.345   3.375 -0.0948 -0.7064 -1.5605
  110SAPE   C3711438   3.688   6.543   3.463  0.3572  0.2582  0.2444
  110SAPE   H7X11439   3.579   6.556   3.442  1.0100 -0.0582 -4.4800
  110SAPE   H7Y11440   3.723   6.648   3.453  0.2516  0.4594  1.8008
  110SAPE   C3811441   3.742   6.490   3.593  0.6705  0.1975  0.0956
  110SAPE   H8X11442   3.852   6.482   3.589  0.6368 -0.0156 -0.7177
  110SAPE   H8Y11443   3.712   6.386   3.617  1.3596  0.6642  3.4469
  110SAPE   C3911444   3.701   6.583   3.705  0.2987 -0.7615 -0.4358
  110SAPE   H9X11445   3.596   6.620   3.705 -0.3180 -2.1327 -3.9281
  110SAPE   H9Y11446   3.764   6.670   3.677 -0.6454 -0.1302 -0.6409
  110SAPE  C31011447   3.756   6.533   3.840  0.6029  0.1755 -0.0186
  110SAPE  H10X11448   3.867   6.530   3.833  0.5776  0.0371 -0.3939
  110SAPE  H10Y11449   3.712   6.433   3.861 -3.7815  1.5048 -1.8249
  110SAPE  C31111450   3.702   6.615   3.957 -0.2577 -0.1675 -0.8373
  110SAPE  H11X11451   3.595   6.594   3.979 -0.0861 -1.1258 -0.9143
  110SAPE  H11Y11452   3.716   6.725   3.944  0.7447 -0.4310 -2.1474
  110SAPE  C31211453   3.787   6.578   4.084 -0.1860 -0.0165 -0.1727
  110SAPE  H12X11454   3.895   6.596   4.062 -0.7622  3.8913 -0.5176
  110SAPE  H12Y11455   3.781   6.469   4.102 -1.9284  0.2213  0.9826
  110SAPE  C31311456   3.749   6.656   4.213  0.2133 -0.1149 -0.2199
  110SAPE  H13X11457   3.639   6.643   4.224  0.2564 -0.4987 -0.2495
  110SAPE  H13Y11458   3.772   6.762   4.189  0.4024  0.0143  0.4982
  110SAPE  C31411459   3.829   6.617   4.335 -0.4780 -0.3919 -0.9532
  110SAPE  H14X11460   3.925   6.672   4.327 -0.2269 -0.1347  2.6149
  110SAPE  H14Y11461   3.842   6.507   4.345  1.2751 -0.2202 -0.9502
  110SAPE  C31511462   3.768   6.689   4.458 -0.8946  0.3558  0.2944
  110SAPE  H15X11463   3.663   6.652   4.464  0.1236 -2.5973  1.4121
  110SAPE  H15Y11464   3.769   6.800   4.454 -2.2680  0.3896  0.2903
  110SAPE  C31611465   3.849   6.652   4.593 -0.1356 -0.1379  0.5158
  110SAPE  H16X11466   3.955   6.669   4.563 -0.2269  0.8077  0.7161
  110SAPE  H16Y11467   3.846   6.546   4.625  0.6256 -0.7591 -1.3222
  110SAPE  C31711468   3.810   6.737   4.714  0.6606 -0.1119 -0.3281
  110SAPE  H17X11469   3.813   6.841   4.676  2.6284  0.0992  0.3003
  110SAPE  H17Y11470   3.881   6.739   4.799  0.2598  1.8327  0.0009
  110SAPE  C31811471   3.675   6.704   4.771 -0.1782 -0.2664  0.5271
  110SAPE  H18X11472   3.602   6.707   4.688 -1.6098 -1.4289  1.6724
  110SAPE  H18Y11473   3.636   6.780   4.841 -0.3419 -0.1425  0.3012
  110SAPE  H18Z11474   3.675   6.609   4.830 -0.0878 -0.1956  0.6409
  111SAPE     N11475   2.888   1.099   2.533  0.2797  0.2626  0.1603
  111SAPE   HN111476   2.983   1.059   2.548 -0.2675 -1.0365  0.2241
  111SAPE   HN211477   2.847   1.084   2.439 -1.3029  0.7068  0.7432
  111SAPE   HN311478   2.907   1.201   2.547 -0.3668  0.2115  1.6061
  111SAPE   C1211479   2.801   1.045   2.645  0.0311 -0.0802  0.0217
  111SAPE  H12A11480   2.735   1.125   2.685  0.2813  0.5498 -0.8041
  111SAPE  H12B11481   2.873   1.001   2.717  1.3689  1.3742 -0.3683
  111SAPE   C1111482   2.719   0.926   2.597 -0.2293  0.1057 -0.7693
  111SAPE  H11A11483   2.660   0.894   2.685 -0.0796  0.3645 -0.5729
  111SAPE  H11B11484   2.772   0.839   2.554 -0.8731 -0.8215  0.2603
  111SAPE     P11485   2.526   0.868   2.424  0.0563 -0.0521  0.4940
  111SAPE   O1311486   2.455   0.944   2.319  0.7053 -0.4253 -0.4541
  111SAPE   O1411487   2.604   0.748   2.384 -0.4152  1.1672 -0.1236
  111SAPE   O1211488   2.624   0.970   2.499  0.1590 -0.1369 -0.2607
  111SAPE   O1111489   2.415   0.826   2.533 -0.1649  0.2726  0.1258
  111SAPE    C111490   2.326   0.931   2.576  0.4509 -0.4864 -0.3068
  111SAPE    HA11491   2.301   1.006   2.498 -3.1104 -1.7489 -0.5725
  111SAPE    HB11492   2.227   0.887   2.602 -1.5227  1.8441 -3.1768
  111SAPE    C211493   2.374   1.004   2.708 -0.4234  0.3663 -0.6400
  111SAPE    HS11494   2.477   1.045   2.696  0.3988 -1.2135  0.5830
  111SAPE   O2111495   2.374   0.901   2.809  0.6313  0.1637  0.4929
  111SAPE   C2111496   2.450   0.907   2.913  0.0786 -0.5533  0.3586
  111SAPE   O2211497   2.551   0.979   2.925  0.8675  0.0122 -0.7966
  111SAPE   C2211498   2.400   0.818   3.022  0.8065  0.3246  0.2282
  111SAPE   H2R11499   2.314   0.762   2.980  0.7307 -2.6475  3.8895
  111SAPE   H2S11500   2.477   0.740   3.044 -0.2258 -0.7178  0.2661
  111SAPE    C311501   2.281   1.117   2.746 -0.1495  0.0836 -0.4716
  111SAPE    HX11502   2.184   1.073   2.778  0.4577  0.0762  1.4797
  111SAPE    HY11503   2.262   1.193   2.667 -0.9816  2.3781  1.7821
  111SAPE   O3111504   2.332   1.190   2.861  0.4814  0.0487 -0.6164
  111SAPE   C3111505   2.412   1.297   2.830  0.4542  0.3210 -0.1661
  111SAPE   O3211506   2.444   1.324   2.717  0.1053 -0.2384 -0.0818
  111SAPE   C3211507   2.452   1.373   2.956 -0.2882  0.4567  0.2785
  111SAPE   H2X11508   2.373   1.444   2.986 -1.0552 -0.0731 -0.4241
  111SAPE   H2Y11509   2.535   1.438   2.919 -0.9252  0.0088 -2.0926
  111SAPE   C2311510   2.360   0.885   3.149 -0.1576  0.2016 -0.4485
  111SAPE   H3R11511   2.295   0.826   3.216 -1.1284  2.5254  0.7639
  111SAPE   H3S11512   2.306   0.980   3.130 -1.8741 -0.9723 -1.7396
  111SAPE   C2411513   2.481   0.931   3.230 -0.6842  0.4949 -0.3780
  111SAPE   H4R11514   2.454   1.028   3.276 -0.2207 -0.1338  1.2734
  111SAPE   H4S11515   2.570   0.952   3.167 -0.1803 -2.3301 -0.7329
  111SAPE   C2511516   2.534   0.847   3.342 -0.0313  0.3433 -0.1134
  111SAPE   H5R11517   2.591   0.761   3.303  0.9722 -0.7434  3.3935
  111SAPE   C2611518   2.515   0.866   3.473  0.4015 -0.2627 -0.1704
  111SAPE   H6R11519   2.553   0.788   3.540  0.6235 -0.4170 -0.4700
  111SAPE   C2711520   2.452   0.981   3.540  0.3052 -0.9012  0.0629
  111SAPE   H7R11521   2.355   0.947   3.583 -0.2803 -2.4222 -2.3106
  111SAPE   H7S11522   2.414   1.050   3.462 -0.3960 -0.5113  0.7379
  111SAPE   C2811523   2.532   1.058   3.642  0.7217 -0.4839  1.4275
  111SAPE   H8R11524   2.603   1.131   3.600  0.2530 -0.2113  1.1018
  111SAPE   C2911525   2.532   1.030   3.774 -0.4652  0.0851  0.1307
  111SAPE   H9R11526   2.601   1.088   3.837 -1.4079  1.9844 -0.4764
  111SAPE  C21011527   2.461   0.926   3.840  0.0830  0.3689 -0.4018
  111SAPE  H10R11528   2.512   0.829   3.821 -1.8241 -0.6058 -0.7904
  111SAPE  H10S11529   2.363   0.912   3.791  0.4615 -0.5009 -0.9361
  111SAPE  C21111530   2.435   0.953   3.984 -0.0269  0.0104 -0.2930
  111SAPE  H11R11531   2.356   1.028   3.997 -1.1152 -1.4466  2.2763
  111SAPE  C21211532   2.472   0.879   4.095 -0.5288 -0.2047 -0.9180
  111SAPE  H12R11533   2.435   0.926   4.187  0.3745  0.4363 -0.8800
  111SAPE  C21311534   2.571   0.765   4.109 -0.2471  0.1114  0.6734
  111SAPE  H13R11535   2.641   0.778   4.024 -2.1852  2.0433 -0.7787
  111SAPE  H13S11536   2.518   0.670   4.085 -3.4048  1.9808 -0.4154
  111SAPE  C21411537   2.663   0.783   4.226  0.1253  0.2046  0.8820
  111SAPE  H14R11538   2.749   0.847   4.201 -0.1806  1.3602  2.6278
  111SAPE  C21511539   2.663   0.718   4.344 -0.5335 -0.6628 -0.0874
  111SAPE  H15R11540   2.738   0.739   4.422  0.2247  0.2759 -1.0464
  111SAPE  C21611541   2.543   0.635   4.384 -0.1608 -0.5634  0.5752
  111SAPE  H16R11542   2.585   0.533   4.403  0.4870 -0.1507  1.4431
  111SAPE  H16S11543   2.462   0.622   4.309 -0.0108 -2.6230  0.6990
  111SAPE  C21711544   2.474   0.675   4.512 -0.3364  0.1922 -0.0981
  111SAPE  H17R11545   2.450   0.783   4.505  1.1983  0.6266  0.9530
  111SAPE  H17S11546   2.542   0.660   4.598 -0.2822 -1.4874 -0.4088
  111SAPE  C21811547   2.363   0.578   4.557  0.2634  0.3087  0.4684
  111SAPE  H18R11548   2.397   0.474   4.535 -0.3881  0.5053 -1.6576
  111SAPE  H18S11549   2.281   0.606   4.488  1.5777 -0.4712 -1.5199
  111SAPE  C21911550   2.319   0.611   4.699 -0.2998 -0.0695  0.1978
  111SAPE  H19R11551   2.312   0.721   4.710 -0.3314 -0.1037  0.5382
  111SAPE  H19S11552   2.392   0.573   4.773 -0.1172  1.5228  0.8864
  111SAPE  C22011553   2.174   0.557   4.719  0.2164  0.4359  0.3466
  111SAPE  H20R11554   2.113   0.589   4.632  0.1414 -1.8944 -0.5100
  111SAPE  H20S11555   2.136   0.591   4.818 -0.8008  0.7221 -0.1296
  111SAPE  H20T11556   2.187   0.447   4.719  3.5539  0.7347 -0.1647
  111SAPE   C3311557   2.484   1.280   3.073 -0.2113 -0.0618 -0.3526
  111SAPE   H3X11558   2.562   1.213   3.031 -0.8470  0.0340 -1.7274
  111SAPE   H3Y11559   2.399   1.224   3.116  0.5508 -0.9074  0.1018
  111SAPE   C3411560   2.555   1.362   3.182 -0.0608  0.0283 -0.2916
  111SAPE   H4X11561   2.485   1.412   3.252  2.7196  1.9593  1.3009
  111SAPE   H4Y11562   2.606   1.451   3.139  0.8287 -0.7525 -0.8916
  111SAPE   C3511563   2.662   1.274   3.253  0.0559 -0.0502 -0.1865
  111SAPE   H5X11564   2.735   1.232   3.181 -0.2404  1.3208 -1.3350
  111SAPE   H5Y11565   2.611   1.180   3.282  0.7070 -0.1339  0.7102
  111SAPE   C3611566   2.743   1.330   3.368 -0.4144 -0.4337 -0.1902
  111SAPE   H6X11567   2.821   1.393   3.322 -0.6023 -0.0157  0.0502
  111SAPE   H6Y11568   2.787   1.254   3.437 -3.5735 -0.4392  2.0515
  111SAPE   C3711569   2.655   1.418   3.462 -0.0577 -0.1068  0.3980
  111SAPE   H7X11570   2.562   1.363   3.484 -1.2777  0.9492 -1.7327
  111SAPE   H7Y11571   2.633   1.516   3.414  4.3812  0.7283 -0.4174
  111SAPE   C3811572   2.723   1.431   3.597 -0.1182  0.0986  0.7926
  111SAPE   H8X11573   2.780   1.527   3.597 -2.0581  1.4326 -2.7861
  111SAPE   H8Y11574   2.795   1.346   3.601  0.9616  0.7492 -1.9633
  111SAPE   C3911575   2.636   1.414   3.723 -0.6465 -0.2194 -0.6334
  111SAPE   H9X11576   2.594   1.312   3.735 -0.6676 -0.0838  0.6037
  111SAPE   H9Y11577   2.555   1.490   3.723 -0.8197 -0.3346  1.6742
  111SAPE  C31011578   2.703   1.436   3.863  0.6322  0.7184 -0.4943
  111SAPE  H10X11579   2.618   1.460   3.930  0.0404  0.1044 -1.0214
  111SAPE  H10Y11580   2.766   1.528   3.859  0.9558  0.4807 -0.9755
  111SAPE  C31111581   2.794   1.325   3.917 -0.4181  0.1441  0.4625
  111SAPE  H11X11582   2.870   1.304   3.839 -1.0485 -0.4200 -0.0047
  111SAPE  H11Y11583   2.735   1.233   3.935 -1.3312  0.1869 -1.9275
  111SAPE  C31211584   2.869   1.358   4.049  0.3190 -0.1973 -0.7582
  111SAPE  H12X11585   2.796   1.413   4.114 -1.5283 -1.7409 -1.4166
  111SAPE  H12Y11586   2.951   1.427   4.021 -0.1421  0.5676 -0.2817
  111SAPE  C31311587   2.934   1.235   4.125 -0.3126  0.2655  0.6636
  111SAPE  H13X11588   3.009   1.199   4.051  2.2698  4.9810  0.5508
  111SAPE  H13Y11589   2.846   1.172   4.149  0.9844 -2.5877 -1.4962
  111SAPE  C31411590   3.015   1.287   4.238 -0.6830 -0.3592 -1.0554
  111SAPE  H14X11591   2.941   1.350   4.293 -1.3872 -2.3582  0.4491
  111SAPE  H14Y11592   3.101   1.345   4.200 -0.3979 -1.7122 -2.5529
  111SAPE  C31511593   3.064   1.174   4.328  0.0333  0.2700 -0.1667
  111SAPE  H15X11594   3.118   1.093   4.273  0.6670  0.9142 -0.5130
  111SAPE  H15Y11595   2.977   1.120   4.371  0.2730 -0.5897 -0.7294
  111SAPE  C31611596   3.164   1.200   4.436 -0.1205 -0.0712  0.4029
  111SAPE  H16X11597   3.098   1.222   4.523 -0.2491 -1.1936  0.5965
  111SAPE  H16Y11598   3.223   1.295   4.433  0.3136 -0.2560  2.0481
  111SAPE  C31711599   3.250   1.082   4.477 -0.5078 -0.4822  0.4847
  111SAPE  H17X11600   3.315   1.046   4.393  0.4252 -1.2786  1.5203
  111SAPE  H17Y11601   3.182   0.999   4.506  0.1919 -1.1573  0.2204
  111SAPE  C31811602   3.345   1.104   4.595 -0.7220 -0.3224 -0.8080
  111SAPE  H18X11603   3.402   1.198   4.578 -0.0084 -0.4820  0.5867
  111SAPE  H18Y11604   3.413   1.019   4.612  0.2809  0.4015 -1.1206
  111SAPE  H18Z11605   3.278   1.117   4.682 -1.4397  3.9062 -1.7639
  112SAPE     N11606   0.393   6.010   2.297  0.1163  0.4074 -0.5757
  112SAPE   HN111607   0.357   6.101   2.260 -0.9676 -0.1475 -0.9286
  112SAPE   HN211608   0.495   5.998   2.282  0.1829  0.3015 -0.0707
  112SAPE   HN311609   0.340   5.932   2.253  0.8882 -0.6358  0.2970
  112SAPE   C1211610   0.388   6.000   2.448  0.4083  0.2160  0.2122
  112SAPE  H12A11611   0.429   6.090   2.497  2.7189  0.1612 -1.4612
  112SAPE  H12B11612   0.453   5.914   2.474  1.0145 -0.0252 -1.9274
  112SAPE   C1111613   0.238   5.973   2.496 -0.7673 -0.5712 -0.0722
  112SAPE  H11A11614   0.180   6.063   2.466 -0.2542 -0.0028  0.6102
  112SAPE  H11B11615   0.237   5.974   2.607  0.1058  2.3821 -0.0050
  112SAPE     P11616   0.154   5.727   2.521  0.1870  0.5817 -0.1884
  112SAPE   O1311617   0.062   5.626   2.452 -0.3779 -0.5292  0.3015
  112SAPE   O1411618   0.293   5.677   2.548  0.4212 -0.0813 -0.1989
  112SAPE   O1211619   0.182   5.855   2.436  0.1534  0.0288  0.7126
  112SAPE   O1111620   0.087   5.785   2.651 -0.4777  0.0821  0.4944
  112SAPE    C111621  -0.049   5.750   2.679 -0.5383 -0.7593  0.4479
  112SAPE    HA11622  -0.118   5.773   2.595 -0.7397 -1.4200  0.4271
  112SAPE    HB11623  -0.065   5.641   2.697  1.9397 -1.9479 -3.2362
  112SAPE    C211624  -0.102   5.834   2.804  0.7085  0.2825 -0.6429
  112SAPE    HS11625  -0.126   5.936   2.767  0.3684  0.0714 -1.0192
  112SAPE   O2111626  -0.009   5.810   2.912  0.4031 -0.2988 -0.2903
  112SAPE   C2111627   0.078   5.915   2.921  0.2034  0.1224 -0.5900
  112SAPE   O2211628   0.070   6.019   2.859 -0.5336 -0.0147  1.0325
  112SAPE   C2211629   0.168   5.891   3.044 -0.1649  0.6193  0.5354
  112SAPE   H2R11630   0.235   5.808   3.015 -0.0380  0.0312  2.3631
  112SAPE   H2S11631   0.239   5.975   3.056 -0.1729  0.7510 -0.2803
  112SAPE    C311632  -0.236   5.775   2.854 -0.0370 -0.1629  0.5273
  112SAPE    HX11633  -0.243   5.667   2.880  1.1099 -0.0420  1.4359
  112SAPE    HY11634  -0.306   5.783   2.768  1.1960  0.0181 -0.4857
  112SAPE   O3111635  -0.293   5.847   2.961  0.3518  0.7306  0.1854
  112SAPE   C3111636  -0.415   5.800   3.001  0.2260  0.8240  0.0727
  112SAPE   O3211637  -0.459   5.687   2.970  0.1831  0.4029 -0.1263
  112SAPE   C3211638  -0.490   5.914   3.073 -0.1366 -0.2238 -0.1639
  112SAPE   H2X11639  -0.597   5.924   3.044 -0.2794  0.9388  0.6866
  112SAPE   H2Y11640  -0.437   6.009   3.051  0.7229 -0.0920  2.1892
  112SAPE   C2311641   0.097   5.863   3.183 -0.4516  0.2957  0.8010
  112SAPE   H3R11642   0.180   5.870   3.256  2.1885 -4.9733 -1.2194
  112SAPE   H3S11643   0.070   5.757   3.199  1.0961 -0.3368 -0.5191
  112SAPE   C2411644  -0.016   5.960   3.223 -0.1962 -0.0957 -0.3037
  112SAPE   H4R11645  -0.056   5.915   3.316  0.8506  0.8691  0.6399
  112SAPE   H4S11646  -0.099   5.946   3.151 -1.7084  0.0725  1.3448
  112SAPE   C2511647   0.018   6.103   3.265  0.7404 -0.1584  0.3534
  112SAPE   H5R11648  -0.003   6.176   3.185 -1.4976 -2.0182 -0.8410
  112SAPE   C2611649   0.062   6.144   3.380 -0.8275 -0.6468  0.2501
  112SAPE   H6R11650   0.097   6.248   3.384  0.3449 -0.7233 -3.7096
  112SAPE   C2711651   0.108   6.058   3.494 -0.2261 -0.2415 -0.5400
  112SAPE   H7R11652   0.210   6.093   3.520 -0.4574  1.9066 -2.2490
  112SAPE   H7S11653   0.114   5.950   3.469 -0.1352 -0.1217 -1.0481
  112SAPE   C2811654   0.025   6.074   3.624  0.1065 -0.5024  0.4242
  112SAPE   H8R11655  -0.056   6.000   3.627  1.3351 -1.8762  1.2219
  112SAPE   C2911656   0.048   6.161   3.724  0.8059  0.2582 -0.1249
  112SAPE   H9R11657  -0.022   6.169   3.809  2.0079  1.4761  0.7967
  112SAPE  C21011658   0.153   6.266   3.733 -0.8457  0.8363 -0.2280
  112SAPE  H10R11659   0.114   6.359   3.779  2.8500  0.8597  3.5314
  112SAPE  H10S11660   0.201   6.293   3.637  2.1234  0.2366  0.9710
  112SAPE  C21111661   0.270   6.225   3.820 -0.4319  0.2466  0.0523
  112SAPE  H11R11662   0.298   6.118   3.823  0.4923  0.4808  0.0829
  112SAPE  C21211663   0.348   6.315   3.886  0.5484  0.1064 -0.2573
  112SAPE  H12R11664   0.425   6.275   3.954 -2.0808 -2.2624  1.6136
  112SAPE  C21311665   0.331   6.464   3.878 -0.5788  0.5060  0.0025
  112SAPE  H13R11666   0.248   6.481   3.949  0.2850  1.1273  0.8848
  112SAPE  H13S11667   0.291   6.485   3.776 -0.4266 -0.2040 -0.2096
  112SAPE  C21411668   0.451   6.555   3.900  0.1813  0.2116  0.0565
  112SAPE  H14R11669   0.517   6.534   3.815  2.8177  0.2687  1.9854
  112SAPE  C21511670   0.489   6.633   4.001  0.5405 -0.5112 -0.2411
  112SAPE  H15R11671   0.579   6.696   3.995  2.1367 -2.4535  1.6218
  112SAPE  C21611672   0.409   6.668   4.125 -0.1224  0.2740  0.0352
  112SAPE  H16R11673   0.300   6.680   4.109 -0.2952  2.1697  2.1073
  112SAPE  H16S11674   0.442   6.767   4.162 -1.3699  0.9510 -0.6103
  112SAPE  C21711675   0.424   6.556   4.230 -0.1023  0.3169  0.2378
  112SAPE  H17R11676   0.524   6.509   4.228 -0.8318 -1.4624  2.0035
  112SAPE  H17S11677   0.347   6.479   4.208 -0.3358  0.5771  0.1307
  112SAPE  C21811678   0.393   6.609   4.376  0.2062  0.6100  0.0099
  112SAPE  H18R11679   0.311   6.683   4.371 -2.1264 -1.8043  0.4495
  112SAPE  H18S11680   0.479   6.667   4.416 -0.6142  1.5725  0.4240
  112SAPE  C21911681   0.356   6.498   4.471 -0.6241 -0.6958 -0.3321
  112SAPE  H19R11682   0.348   6.538   4.575  0.3281  0.0726 -0.5424
  112SAPE  H19S11683   0.436   6.422   4.480 -2.3876 -2.4987  1.2049
  112SAPE  C22011684   0.231   6.415   4.428 -0.1338  0.1777 -0.3939
  112SAPE  H20R11685   0.253   6.342   4.348  1.1138 -0.6567  0.6733
  112SAPE  H20S11686   0.148   6.487   4.407 -1.2945 -0.6589  1.0891
  112SAPE  H20T11687   0.200   6.351   4.513  1.3872  1.2698  1.0482
  112SAPE   C3311688  -0.489   5.895   3.228  0.1303 -0.5822  0.0376
  112SAPE   H3X11689  -0.542   5.801   3.254  1.9107 -1.0689  2.1686
  112SAPE   H3Y11690  -0.551   5.980   3.263  0.3841  0.2484 -1.4243
  112SAPE   C3411691  -0.355   5.885   3.303 -0.1245 -0.0862  0.9562
  112SAPE   H4X11692  -0.301   5.982   3.294  1.9189 -0.8325  3.7515
  112SAPE   H4Y11693  -0.293   5.816   3.242 -1.6845  2.1431 -3.6102
  112SAPE   C3511694  -0.373   5.847   3.450  0.1322  0.0007 -0.2624
  112SAPE   H5X11695  -0.275   5.859   3.501 -0.5394 -2.4510  1.7845
  112SAPE   H5Y11696  -0.404   5.742   3.470  2.7095 -0.8847 -0.5166
  112SAPE   C3611697  -0.471   5.935   3.524 -0.4063  0.1278  0.2337
  112SAPE   H6X11698  -0.574   5.911   3.490  0.5608 -0.1655 -2.8839
  112SAPE   H6Y11699  -0.444   6.042   3.509 -0.4115  0.2871  1.3049
  112SAPE   C3711700  -0.469   5.896   3.679 -0.0121 -0.2153 -0.0098
  112SAPE   H7X11701  -0.471   5.786   3.697 -0.1742 -0.1082  0.6823
  112SAPE   H7Y11702  -0.561   5.932   3.730  0.1436 -0.2566  0.3055
  112SAPE   C3811703  -0.350   5.956   3.751  0.2841 -0.8785  0.0202
  112SAPE   H8X11704  -0.372   6.064   3.738 -0.4144 -1.1789 -1.5979
  112SAPE   H8Y11705  -0.254   5.933   3.700 -0.1972 -0.2201 -1.2270
  112SAPE   C3911706  -0.331   5.912   3.901 -0.5589 -0.1431 -0.1788
  112SAPE   H9X11707  -0.238   5.961   3.937 -1.3804  1.8161 -0.5750
  112SAPE   H9Y11708  -0.296   5.806   3.897 -0.2090  0.0053 -2.8843
  112SAPE  C31011709  -0.439   5.943   4.003 -0.2566  0.3594  0.6710
  112SAPE  H10X11710  -0.539   5.947   3.955  0.4482  1.8946 -0.7813
  112SAPE  H10Y11711  -0.428   6.049   4.035  1.2968  0.4987 -0.2281
  112SAPE  C31111712  -0.439   5.856   4.131 -0.1847  0.0527 -0.3335
  112SAPE  H11X11713  -0.358   5.888   4.200 -0.5214  1.4367 -0.5482
  112SAPE  H11Y11714  -0.424   5.749   4.106 -0.3006  0.1227 -0.7059
  112SAPE  C31211715  -0.578   5.870   4.204 -0.9133 -0.3052 -0.1336
  112SAPE  H12X11716  -0.585   5.788   4.279 -1.0764  0.8369  1.1250
  112SAPE  H12Y11717  -0.659   5.849   4.130  0.4073 -1.9761 -1.1915
  112SAPE  C31311718  -0.611   6.001   4.276  0.7850  0.6059  0.6928
  112SAPE  H13X11719  -0.721   5.991   4.284  0.9071 -2.1433 -0.1947
  112SAPE  H13Y11720  -0.570   6.081   4.210 -0.4646  0.7708  0.0854
  112SAPE  C31411721  -0.566   6.013   4.419 -0.7373  0.7426  0.2774
  112SAPE  H14X11722  -0.458   5.991   4.435 -0.3007  1.9494 -0.8990
  112SAPE  H14Y11723  -0.623   5.938   4.478 -2.1027  2.2283  0.9052
  112SAPE  C31511724  -0.588   6.157   4.475  0.7796  0.3704 -0.0962
  112SAPE  H15X11725  -0.554   6.155   4.581 -0.0457  0.3724  0.1698
  112SAPE  H15Y11726  -0.684   6.210   4.464  1.8298  3.0504  2.4113
  112SAPE  C31611727  -0.493   6.255   4.403 -0.1564  0.4486 -0.1825
  112SAPE  H16X11728  -0.528   6.277   4.300  1.5858  0.5037 -0.8108
  112SAPE  H16Y11729  -0.398   6.198   4.392  0.4139  1.7858 -2.8678
  112SAPE  C31711730  -0.469   6.381   4.485  0.4952  0.1786 -0.1713
  112SAPE  H17X11731  -0.439   6.354   4.589  0.6743 -0.3194 -0.3547
  112SAPE  H17Y11732  -0.567   6.433   4.488 -0.2604 -1.2499  1.6618
  112SAPE  C31811733  -0.352   6.467   4.426 -0.4843  0.0988 -0.2277
  112SAPE  H18X11734  -0.359   6.567   4.474  0.1155 -1.0375  2.3764
  112SAPE  H18Y11735  -0.349   6.475   4.315 -1.2203  1.5038 -0.1694
  112SAPE  H18Z11736  -0.248   6.438   4.450 -0.8108 -0.4328  0.5803
  113SAPE     N11737   0.348   3.986   2.427  0.3736  0.6120  0.1126
  113SAPE   HN111738   0.428   3.920   2.436  0.6775  1.0255  0.4959
  113SAPE   HN211739   0.302   3.979   2.520  0.4075  1.7121  0.2244
  113SAPE   HN311740   0.290   3.930   2.361  2.5046 -3.2254  1.2396
  113SAPE   C1211741   0.392   4.123   2.382  0.2413  0.6417 -0.2861
  113SAPE  H12A11742   0.436   4.116   2.280  1.1739  0.1081  0.1413
  113SAPE  H12B11743   0.482   4.154   2.439  0.3355  2.6392 -1.4041
  113SAPE   C1111744   0.274   4.227   2.375 -0.6718  0.7825  0.1276
  113SAPE  H11A11745   0.195   4.182   2.312 -0.9429 -0.2743  1.1760
  113SAPE  H11B11746   0.310   4.317   2.321  2.7329  1.0827  2.5536
  113SAPE     P11747   0.268   4.383   2.579  0.3664 -0.4397  0.2377
  113SAPE   O1311748   0.414   4.380   2.573 -0.1783 -0.4677  0.4312
  113SAPE   O1411749   0.207   4.501   2.514 -0.0051 -0.3006 -0.4936
  113SAPE   O1211750   0.218   4.258   2.504  0.2314  0.0796  0.4605
  113SAPE   O1111751   0.215   4.379   2.728  0.5387  0.5900  0.0600
  113SAPE    C111752   0.113   4.295   2.778  0.0259  0.6309  1.1188
  113SAPE    HA11753   0.055   4.261   2.689 -0.2034  0.0818  1.4714
  113SAPE    HB11754   0.165   4.208   2.824  0.4313  0.4593  0.3569
  113SAPE    C211755   0.017   4.379   2.857 -0.7332  0.2247 -0.5535
  113SAPE    HS11756  -0.013   4.470   2.801 -0.8200  0.8346  0.4486
  113SAPE   O2111757   0.079   4.415   2.982  0.2647 -0.1731  0.9162
  113SAPE   C2111758   0.097   4.545   3.007 -0.1706  0.9317 -0.6040
  113SAPE   O2211759   0.061   4.634   2.941 -0.4508 -0.6091 -0.7410
  113SAPE   C2211760   0.175   4.557   3.133 -0.0335  0.1218  0.1090
  113SAPE   H2R11761   0.197   4.456   3.174 -0.8442 -0.0697  0.0943
  113SAPE   H2S11762   0.270   4.608   3.107  0.6997 -1.0716  0.3607
  113SAPE    C311763  -0.102   4.286   2.892 -0.0252  0.3765  0.0298
  113SAPE    HX11764  -0.058   4.197   2.942  1.0752  1.5458  1.2437
  113SAPE    HY11765  -0.151   4.260   2.796 -1.6858  1.3404  0.5617
  113SAPE   O3111766  -0.191   4.361   2.976 -0.2022  0.3042 -0.1701
  113SAPE   C3111767  -0.295   4.291   3.020  0.4738  0.2498  0.0068
  113SAPE   O3211768  -0.320   4.174   3.008  0.0607  0.1478  0.0032
  113SAPE   C3211769  -0.377   4.397   3.097  0.7647 -0.3238  0.0285
  113SAPE   H2X11770  -0.473   4.400   3.041  1.7005  0.6954 -1.6006
  113SAPE   H2Y11771  -0.331   4.497   3.082  0.6029 -0.4269 -1.2472
  113SAPE   C2311772   0.089   4.622   3.240  0.6586  0.7077  0.8208
  113SAPE   H3R11773   0.012   4.551   3.276  0.2102  0.6600 -0.2083
  113SAPE   H3S11774   0.045   4.718   3.206 -0.8438 -0.0194  0.6528
  113SAPE   C2411775   0.181   4.663   3.356  0.1045 -0.4194 -0.6628
  113SAPE   H4R11776   0.229   4.751   3.309 -0.1038 -1.2168 -2.4397
  113SAPE   H4S11777   0.252   4.583   3.386  0.3692  0.8590  2.5204
  113SAPE   C2511778   0.106   4.713   3.471 -0.5526 -0.7253 -0.5943
  113SAPE   H5R11779   0.023   4.777   3.436  0.4270 -0.0338 -1.7255
  113SAPE   C2611780   0.139   4.713   3.599 -0.1424  0.3499 -0.8934
  113SAPE   H6R11781   0.066   4.751   3.672  1.2250  0.3566  0.5196
  113SAPE   C2711782   0.265   4.656   3.662  0.0256 -0.2894  0.2137
  113SAPE   H7R11783   0.315   4.587   3.590 -2.8092 -1.7347 -0.5468
  113SAPE   H7S11784   0.241   4.588   3.747  0.1719  0.5950  0.9676
  113SAPE   C2811785   0.366   4.768   3.703  0.1398 -0.3089  0.3265
  113SAPE   H8R11786   0.417   4.813   3.616  0.3337  0.4266  0.8147
  113SAPE   C2911787   0.399   4.812   3.826  0.3856 -0.4731 -0.1415
  113SAPE   H9R11788   0.471   4.894   3.829  0.2478  0.1438 -5.0310
  113SAPE  C21011789   0.343   4.757   3.958  0.7736 -0.3337  0.1780
  113SAPE  H10R11790   0.348   4.646   3.966 -1.1301 -0.3480  2.2516
  113SAPE  H10S11791   0.237   4.789   3.971  0.0768 -2.1658 -0.6594
  113SAPE  C21111792   0.433   4.809   4.072  0.2994  0.1726 -0.0506
  113SAPE  H11R11793   0.448   4.918   4.072  1.2046  0.0848 -1.8371
  113SAPE  C21211794   0.476   4.739   4.179 -0.0716  0.1555 -0.6432
  113SAPE  H12R11795   0.533   4.793   4.256 -1.1172  0.2728  0.0521
  113SAPE  C21311796   0.467   4.593   4.213 -0.3740  0.1019 -0.0940
  113SAPE  H13R11797   0.402   4.545   4.137 -1.0555 -0.9042  1.0696
  113SAPE  H13S11798   0.408   4.585   4.307 -0.3447 -0.3263 -0.1085
  113SAPE  C21411799   0.604   4.538   4.220 -0.0694  0.4832 -0.2697
  113SAPE  H14R11800   0.629   4.510   4.116  0.6351 -0.4673  0.1341
  113SAPE  C21511801   0.681   4.501   4.324 -0.1647  0.4581 -0.6175
  113SAPE  H15R11802   0.782   4.468   4.295 -0.1837 -0.2928  0.1553
  113SAPE  C21611803   0.672   4.513   4.471 -0.3481  0.2306 -0.3239
  113SAPE  H16R11804   0.664   4.408   4.505 -1.3590  1.3851  3.4656
  113SAPE  H16S11805   0.582   4.570   4.502 -1.1819 -2.6915  3.3864
  113SAPE  C21711806   0.790   4.568   4.548 -0.3538 -0.0739  0.6049
  113SAPE  H17R11807   0.757   4.605   4.647  2.1008  1.4057  0.9682
  113SAPE  H17S11808   0.831   4.651   4.486 -0.3065 -0.0422  0.6790
  113SAPE  C21811809   0.901   4.465   4.590 -1.0655  0.4315 -0.1880
  113SAPE  H18R11810   0.925   4.398   4.505 -1.0369  1.0057 -0.6376
  113SAPE  H18S11811   0.876   4.396   4.673 -1.4047  1.9599  1.0449
  113SAPE  C21911812   1.035   4.523   4.638 -0.2979  0.3825  0.1878
  113SAPE  H19R11813   1.056   4.609   4.571  3.0339  1.2854  2.1264
  113SAPE  H19S11814   1.111   4.445   4.615 -0.6711  0.1492 -0.2669
  113SAPE  C22011815   1.053   4.566   4.790  0.1450 -0.7135  0.8157
  113SAPE  H20R11816   1.039   4.479   4.858 -0.0391 -0.9330  0.5001
  113SAPE  H20S11817   0.968   4.631   4.819  1.3098  1.2886 -0.0412
  113SAPE  H20T11818   1.145   4.619   4.824  1.3263 -1.5273 -0.9208
  113SAPE   C3311819  -0.393   4.371   3.250  0.2075  0.8103 -0.0036
  113SAPE   H3X11820  -0.377   4.261   3.257  1.0184  0.9895  5.4984
  113SAPE   H3Y11821  -0.492   4.403   3.289 -0.4636 -1.6984  0.5685
  113SAPE   C3411822  -0.285   4.441   3.333 -0.4337  0.4136  0.3804
  113SAPE   H4X11823  -0.309   4.548   3.352 -0.0848  0.5960 -0.1764
  113SAPE   H4Y11824  -0.192   4.431   3.273 -0.6413 -0.5077  0.1973
  113SAPE   C3511825  -0.255   4.385   3.474  0.1111 -0.2196  0.0908
  113SAPE   H5X11826  -0.206   4.289   3.447  0.8575  0.1787  0.0071
  113SAPE   H5Y11827  -0.351   4.367   3.528  0.0529 -2.3900 -0.6562
  113SAPE   C3611828  -0.158   4.485   3.542 -0.6139 -0.3058 -0.1919
  113SAPE   H6X11829  -0.191   4.591   3.538 -0.1729 -0.1833 -0.7485
  113SAPE   H6Y11830  -0.064   4.494   3.484 -0.9001  3.9650 -0.3010
  113SAPE   C3711831  -0.112   4.445   3.685  0.6841 -0.2392 -0.7775
  113SAPE   H7X11832  -0.002   4.458   3.689  0.6279 -0.0238  1.9589
  113SAPE   H7Y11833  -0.139   4.338   3.702 -0.1503 -0.0222 -0.6967
  113SAPE   C3811834  -0.165   4.533   3.802  0.3529  0.0960 -0.5478
  113SAPE   H8X11835  -0.143   4.636   3.767  2.6339  0.6602  2.1278
  113SAPE   H8Y11836  -0.275   4.522   3.806  0.2917  0.9281  2.8535
  113SAPE   C3911837  -0.117   4.508   3.938  0.0844  0.6832 -0.1620
  113SAPE   H9X11838  -0.122   4.400   3.964 -1.0663 -0.1075 -3.2135
  113SAPE   H9Y11839  -0.184   4.561   4.010 -1.2235 -0.9833 -0.0832
  113SAPE  C31011840   0.026   4.548   3.966 -0.5238 -0.1543  0.1027
  113SAPE  H10X11841   0.034   4.652   3.927  3.2897 -0.5658 -0.5565
  113SAPE  H10Y11842   0.094   4.482   3.907 -3.1248 -3.6652  0.6775
  113SAPE  C31111843   0.056   4.549   4.118  0.8931 -1.0204 -0.2111
  113SAPE  H11X11844  -0.035   4.583   4.172 -0.6182 -2.0089 -2.0068
  113SAPE  H11Y11845   0.137   4.624   4.128  1.2603 -0.9038 -3.1810
  113SAPE  C31211846   0.093   4.414   4.182  0.2201 -0.7280 -0.0174
  113SAPE  H12X11847   0.181   4.375   4.125  0.5759 -1.1597  0.8116
  113SAPE  H12Y11848   0.016   4.338   4.155  1.3435 -2.4550  1.4432
  113SAPE  C31311849   0.127   4.437   4.329 -0.5079 -0.7453  0.3686
  113SAPE  H13X11850   0.210   4.511   4.327 -1.1306 -0.0404 -1.0960
  113SAPE  H13Y11851   0.177   4.346   4.369 -0.6787 -0.2860  1.6522
  113SAPE  C31411852   0.016   4.465   4.423  0.4579  0.2172 -0.6978
  113SAPE  H14X11853  -0.076   4.410   4.394  0.1206  0.1162  0.5185
  113SAPE  H14Y11854  -0.005   4.573   4.433 -1.6994 -0.0593 -1.6176
  113SAPE  C31511855   0.061   4.446   4.569 -0.3963  0.4502  0.1109
  113SAPE  H15X11856   0.158   4.498   4.578 -0.2884  0.2075  0.3840
  113SAPE  H15Y11857   0.077   4.336   4.572  1.6472  0.6464 -1.2194
  113SAPE  C31611858  -0.039   4.485   4.678  0.3185 -0.1489 -0.5677
  113SAPE  H16X11859  -0.098   4.571   4.640  0.0717 -0.4716 -0.9368
  113SAPE  H16Y11860   0.019   4.522   4.765 -0.5922  2.4916 -0.9926
  113SAPE  C31711861  -0.143   4.376   4.706  0.2327 -0.5798  0.0442
  113SAPE  H17X11862  -0.097   4.280   4.735  0.3597 -0.2649  0.9126
  113SAPE  H17Y11863  -0.197   4.362   4.610 -1.5523  1.1253  0.7266
  113SAPE  C31811864  -0.235   4.430   4.816 -0.0364  0.4369  0.9198
  113SAPE  H18X11865  -0.177   4.450   4.909 -1.4282 -1.0326  2.1609
  113SAPE  H18Y11866  -0.311   4.356   4.847 -1.1170  2.1406  2.5804
  113SAPE  H18Z11867  -0.282   4.526   4.786 -0.4264  0.0614  0.3350
  114SAPE     N11868   2.568   0.525   2.224 -0.0735 -0.1137  0.1422
  114SAPE   HN111869   2.661   0.496   2.189 -0.1304 -1.5954  1.1193
  114SAPE   HN211870   2.512   0.551   2.140  1.8236  4.3065 -0.0088
  114SAPE   HN311871   2.575   0.607   2.287  1.5945  0.0069 -0.1587
  114SAPE   C1211872   2.516   0.402   2.292 -0.1681 -0.1120  0.0588
  114SAPE  H12A11873   2.407   0.414   2.309 -0.4449  0.1182 -1.6738
  114SAPE  H12B11874   2.570   0.375   2.384 -2.7904 -2.0075  1.1748
  114SAPE   C1111875   2.533   0.282   2.195  0.0430 -0.6340  0.7625
  114SAPE  H11A11876   2.479   0.305   2.101  2.0584  2.0030  0.1207
  114SAPE  H11B11877   2.488   0.189   2.234  3.5108 -3.6105 -1.6841
  114SAPE     P11878   2.711   0.111   2.128 -0.3038  0.2064  0.2059
  114SAPE   O1311879   2.634   0.060   2.007  0.0519 -0.1992 -0.9171
  114SAPE   O1411880   2.860   0.130   2.111  0.1775  0.2544  0.2448
  114SAPE   O1211881   2.662   0.257   2.159  0.9164  0.3134  0.2818
  114SAPE   O1111882   2.665   0.029   2.258  0.0807  0.7044  0.1967
  114SAPE    C111883   2.754   0.052   2.369 -0.8328 -0.2176 -0.1391
  114SAPE    HA11884   2.860   0.034   2.342 -1.1459 -2.4235 -0.1517
  114SAPE    HB11885   2.743   0.155   2.407  3.0657  0.2770  0.0883
  114SAPE    C211886   2.725  -0.042   2.483 -0.6059  0.0726 -0.2444
  114SAPE    HS11887   2.702  -0.137   2.430 -1.0092  0.1224 -0.1651
  114SAPE   O2111888   2.614   0.009   2.562 -0.0237 -0.3849 -0.3725
  114SAPE   C2111889   2.525  -0.076   2.596  0.2421 -0.0850 -0.2510
  114SAPE   O2211890   2.528  -0.195   2.569  0.6183 -0.3551  0.0261
  114SAPE   C2211891   2.423  -0.005   2.690  0.5714  0.1563 -0.3820
  114SAPE   H2R11892   2.486   0.067   2.746  0.2462 -0.6577  1.0615
  114SAPE   H2S11893   2.357   0.066   2.636 -0.4872  1.6219  2.6146
  114SAPE    C311894   2.856  -0.060   2.571  0.3412  0.2367  0.3110
  114SAPE    HX11895   2.893   0.037   2.612 -0.1449  0.8558 -0.6649
  114SAPE    HY11896   2.936  -0.089   2.500 -2.1001 -2.2386 -1.6250
  114SAPE   O3111897   2.837  -0.160   2.678 -0.3505 -0.5526  0.6287
  114SAPE   C3111898   2.811  -0.111   2.795 -0.3756 -0.1793 -0.6944
  114SAPE   O3211899   2.802   0.004   2.831 -0.2024 -0.4948 -0.0006
  114SAPE   C3211900   2.784  -0.228   2.892 -0.8413  0.0024  0.4145
  114SAPE   H2X11901   2.872  -0.294   2.905  1.2945  2.4297 -0.7738
  114SAPE   H2Y11902   2.715  -0.296   2.837  1.1877 -1.6311 -0.2709
  114SAPE   C2311903   2.331  -0.095   2.780  0.4707 -0.2389 -0.1613
  114SAPE   H3R11904   2.388  -0.133   2.867 -0.3191 -3.1744 -0.8377
  114SAPE   H3S11905   2.290  -0.182   2.725  2.1803 -1.2646  0.1261
  114SAPE   C2411906   2.222  -0.003   2.838  0.3882 -0.4618  0.8017
  114SAPE   H4R11907   2.162  -0.065   2.908 -0.2904 -0.2463  0.4212
  114SAPE   H4S11908   2.161   0.030   2.751 -1.3330 -0.4997  1.9436
  114SAPE   C2511909   2.278   0.120   2.913 -0.9096  0.8721  1.1609
  114SAPE   H5R11910   2.288   0.211   2.854  1.4142 -0.8177 -1.2726
  114SAPE   C2611911   2.322   0.127   3.038 -0.0861  0.0016  0.1893
  114SAPE   H6R11912   2.379   0.217   3.065  1.4177 -0.8884  0.1036
  114SAPE   C2711913   2.317   0.025   3.156  0.0964 -0.4482 -0.0367
  114SAPE   H7R11914   2.408   0.050   3.213 -0.4475  0.8885  0.2643
  114SAPE   H7S11915   2.324  -0.076   3.110 -1.3441 -0.6290  0.0813
  114SAPE   C2811916   2.190   0.033   3.241 -1.1500  0.0837 -0.6594
  114SAPE   H8R11917   2.109   0.068   3.176  0.4814 -0.6509 -3.2278
  114SAPE   C2911918   2.171  -0.005   3.371 -0.4012  0.0576  0.9320
  114SAPE   H9R11919   2.066  -0.003   3.404 -0.5826  2.0869  0.3601
  114SAPE  C21011920   2.279  -0.060   3.464  0.2272 -0.2507 -0.2116
  114SAPE  H10R11921   2.357  -0.101   3.397 -0.2814 -1.0963 -0.3014
  114SAPE  H10S11922   2.235  -0.139   3.528 -1.7078  0.2414 -0.8723
  114SAPE  C21111923   2.342   0.057   3.543 -0.6786 -0.4597  0.2609
  114SAPE  H11R11924   2.386   0.132   3.475  0.3533 -1.1209  0.1853
  114SAPE  C21211925   2.318   0.088   3.668 -0.0195 -0.0436 -0.8654
  114SAPE  H12R11926   2.379   0.165   3.717 -0.9969  0.3985 -0.3028
  114SAPE  C21311927   2.244   0.004   3.771 -0.4914 -0.1294  0.2220
  114SAPE  H13R11928   2.184  -0.069   3.712  0.1555 -0.2454 -0.3104
  114SAPE  H13S11929   2.180   0.073   3.829 -0.5723  1.5804 -1.7968
  114SAPE  C21411930   2.329  -0.081   3.856  0.1222 -0.1147 -0.4421
  114SAPE  H14R11931   2.345  -0.183   3.819 -1.1928  0.0145 -1.4532
  114SAPE  C21511932   2.391  -0.044   3.970 -0.2249 -0.5869 -0.9751
  114SAPE  H15R11933   2.464  -0.106   4.023  0.5745  1.6705  0.7470
  114SAPE  C21611934   2.364   0.091   4.028 -0.0189 -0.8863  0.0470
  114SAPE  H16R11935   2.296   0.155   3.967  0.8087 -1.5339 -1.6186
  114SAPE  H16S11936   2.460   0.147   4.039 -0.7098  0.8546 -2.0125
  114SAPE  C21711937   2.291   0.061   4.158 -0.0104 -0.0446 -0.2986
  114SAPE  H17R11938   2.349  -0.002   4.229  0.3498 -1.0852 -1.4929
  114SAPE  H17S11939   2.195   0.012   4.130 -1.3296  2.3939 -0.2696
  114SAPE  C21811940   2.256   0.186   4.244  0.2468  0.1070  0.7663
  114SAPE  H18R11941   2.165   0.230   4.198  0.4593 -0.1787  0.0504
  114SAPE  H18S11942   2.337   0.261   4.242  0.6024 -0.2576  1.3492
  114SAPE  C21911943   2.206   0.163   4.382 -0.9421  0.2323 -0.1215
  114SAPE  H19R11944   2.295   0.138   4.444  0.8949  0.6925 -2.4278
  114SAPE  H19S11945   2.146   0.071   4.398  0.0994 -0.4386  0.0391
  114SAPE  C22011946   2.143   0.284   4.438 -0.2213  0.9498  0.3611
  114SAPE  H20R11947   2.104   0.278   4.542 -1.8991  0.5993 -0.2548
  114SAPE  H20S11948   2.058   0.309   4.371  1.8476 -0.0647 -2.8853
  114SAPE  H20T11949   2.210   0.372   4.424 -0.5429  1.0693 -0.4838
  114SAPE   C3311950   2.725  -0.176   3.021  0.3815  0.2512 -0.3951
  114SAPE   H3X11951   2.638  -0.110   3.002 -1.2436 -1.3953  0.9610
  114SAPE   H3Y11952   2.805  -0.127   3.080  0.5122 -0.9834  0.4834
  114SAPE   C3411953   2.676  -0.303   3.098  0.1599 -0.1163 -0.5746
  114SAPE   H4X11954   2.747  -0.388   3.109 -0.5064 -0.4895  1.1583
  114SAPE   H4Y11955   2.614  -0.335   3.012  0.9106  0.5873 -1.3900
  114SAPE   C3511956   2.579  -0.283   3.224 -0.0060  0.8930  0.3335
  114SAPE   H5X11957   2.503  -0.363   3.211  2.5028 -2.2772  3.0918
  114SAPE   H5Y11958   2.525  -0.186   3.222 -1.8081 -0.0512  0.4232
  114SAPE   C3611959   2.662  -0.301   3.359  0.2797  0.5495  0.4435
  114SAPE   H6X11960   2.747  -0.360   3.317 -0.6026 -0.1641 -0.3773
  114SAPE   H6Y11961   2.614  -0.361   3.439  0.5050 -1.9113 -1.1446
  114SAPE   C3711962   2.714  -0.172   3.409  0.1860 -0.6385  0.4278
  114SAPE   H7X11963   2.630  -0.100   3.422 -0.2056 -1.0733  0.3532
  114SAPE   H7Y11964   2.794  -0.114   3.359 -0.4744  0.3305  0.4623
  114SAPE   C3811965   2.756  -0.193   3.556 -0.0856  0.0503 -0.3606
  114SAPE   H8X11966   2.831  -0.117   3.587 -1.9635  2.0591 -0.5287
  114SAPE   H8Y11967   2.810  -0.290   3.557  1.0236  0.6163 -1.6308
  114SAPE   C3911968   2.652  -0.202   3.668 -0.1566 -0.3771 -0.1726
  114SAPE   H9X11969   2.589  -0.294   3.664  0.0705 -0.7427  2.6000
  114SAPE   H9Y11970   2.587  -0.113   3.660  2.4621  2.0730  2.9859
  114SAPE  C31011971   2.708  -0.198   3.809 -0.3886  0.5616  0.3725
  114SAPE  H10X11972   2.621  -0.194   3.878 -0.7335 -0.4715  0.0176
  114SAPE  H10Y11973   2.775  -0.112   3.826  1.9327 -1.2282  0.8045
  114SAPE  C31111974   2.788  -0.326   3.839  0.1618 -0.1748 -0.0011
  114SAPE  H11X11975   2.875  -0.350   3.774 -0.7372 -0.5916 -1.0895
  114SAPE  H11Y11976   2.722  -0.415   3.828 -0.0032 -0.1515  0.7930
  114SAPE  C31211977   2.831  -0.346   3.988 -0.4713 -0.1628 -0.7850
  114SAPE  H12X11978   2.874  -0.247   4.012 -0.8270 -0.2272  0.1507
  114SAPE  H12Y11979   2.906  -0.428   4.000 -0.0758 -0.0977 -2.5747
  114SAPE  C31311980   2.715  -0.377   4.082  0.1885  0.4661 -0.6367
  114SAPE  H13X11981   2.679  -0.476   4.045  1.6498 -0.2686 -0.1534
  114SAPE  H13Y11982   2.629  -0.307   4.074 -0.9499 -0.5212  1.9616
  114SAPE  C31411983   2.744  -0.382   4.232 -0.6325  0.2642  0.2458
  114SAPE  H14X11984   2.793  -0.287   4.263  0.1626 -0.3391  0.9089
  114SAPE  H14Y11985   2.820  -0.461   4.250 -1.5893 -0.7946 -0.2619
  114SAPE  C31511986   2.623  -0.404   4.323 -0.2205  0.8643  0.1741
  114SAPE  H15X11987   2.572  -0.499   4.294 -1.1531  0.9895  1.3415
  114SAPE  H15Y11988   2.547  -0.323   4.310  0.2360  1.6335  1.9903
  114SAPE  C31611989   2.663  -0.408   4.468 -0.2828 -0.3584  0.2125
  114SAPE  H16X11990   2.694  -0.304   4.493  2.0075 -0.6920 -1.0292
  114SAPE  H16Y11991   2.754  -0.469   4.481  0.5162  0.5767 -0.8083
  114SAPE  C31711992   2.554  -0.447   4.567  0.7748 -0.4329  0.3020
  114SAPE  H17X11993   2.513  -0.549   4.553  0.5459 -0.2682 -0.2559
  114SAPE  H17Y11994   2.475  -0.369   4.566  1.2877  0.0944  0.0296
  114SAPE  C31811995   2.614  -0.433   4.709  0.7445  0.4133  0.1293
  114SAPE  H18X11996   2.653  -0.333   4.737  3.9703 -1.0694  1.3717
  114SAPE  H18Y11997   2.698  -0.504   4.724 -1.0530 -2.0278 -0.7797
  114SAPE  H18Z11998   2.531  -0.455   4.780 -0.1145  0.4674 -0.8232
  115SAPE     N11999   6.316   0.940   2.044 -0.2085 -0.1260  0.8523
  115SAPE   HN112000   6.257   0.892   1.973 -1.2410  2.4396 -0.1138
  115SAPE   HN212001   6.325   1.028   1.989 -1.8864 -0.6712 -0.3762
  115SAPE   HN312002   6.407   0.888   2.046  0.2816  0.5820 -1.0395
  115SAPE   C1212003   6.259   0.984   2.176 -0.1308 -0.6668 -0.4523
  115SAPE  H12A12004   6.241   0.901   2.247 -0.0129 -0.3048 -0.0005
  115SAPE  H12B12005   6.163   1.031   2.146 -0.9713 -1.2686  1.1959
  115SAPE   C1112006   6.333   1.092   2.258 -0.5871  0.6035  0.7827
  115SAPE  H11A12007   6.271   1.125   2.344  1.2481 -1.0784  2.8818
  115SAPE  H11B12008   6.350   1.177   2.189  1.6346 -0.3178  0.1285
  115SAPE     P12009   6.586   1.128   2.320  0.6840 -0.3620 -0.0522
  115SAPE   O1312010   6.702   1.058   2.376 -0.0035 -0.1807 -0.5081
  115SAPE   O1412011   6.605   1.210   2.198 -0.0160 -0.0820 -0.0127
  115SAPE   O1212012   6.461   1.033   2.299  0.1247  0.0798  0.0580
  115SAPE   O1112013   6.542   1.226   2.440 -0.5991 -0.9524  1.0114
  115SAPE    C112014   6.481   1.181   2.560  0.7828 -0.6958 -0.8545
  115SAPE    HA12015   6.384   1.130   2.544  0.2925 -0.4480  1.1002
  115SAPE    HB12016   6.547   1.116   2.621  0.4659  1.0445  1.4829
  115SAPE    C212017   6.439   1.310   2.653  0.5032 -0.3251 -0.0263
  115SAPE    HS12018   6.406   1.381   2.574  1.6039 -1.1426 -1.2702
  115SAPE   O2112019   6.559   1.364   2.716 -0.4380  0.1650  0.5487
  115SAPE   C2112020   6.550   1.483   2.769  0.1410  0.0490 -0.1320
  115SAPE   O2212021   6.460   1.565   2.745 -0.5370 -0.4022 -0.1145
  115SAPE   C2212022   6.658   1.501   2.866  1.0374  0.4068  0.1696
  115SAPE   H2R12023   6.662   1.409   2.928 -2.2166 -2.0828 -2.8825
  115SAPE   H2S12024   6.754   1.517   2.813  0.8608 -3.3456 -1.6213
  115SAPE    C312025   6.317   1.283   2.745  0.3640  0.1626  0.4938
  115SAPE    HX12026   6.231   1.264   2.678  1.6745 -2.7848 -0.5255
  115SAPE    HY12027   6.289   1.375   2.801  1.6376  1.3754 -0.7999
  115SAPE   O3112028   6.323   1.163   2.821 -0.0804 -0.1811 -0.2519
  115SAPE   C3112029   6.389   1.170   2.938  0.4524  0.4218  0.5140
  115SAPE   O3212030   6.455   1.264   2.975  0.1127  0.2575  0.4354
  115SAPE   C3212031   6.378   1.044   3.006 -0.0035  0.2218 -0.4556
  115SAPE   H2X12032   6.478   0.996   3.001  0.1816  0.5904 -0.3499
  115SAPE   H2Y12033   6.304   0.973   2.965 -1.7463  1.8624 -0.3051
  115SAPE   C2312034   6.630   1.617   2.959  0.2194 -0.0991 -0.2779
  115SAPE   H3R12035   6.526   1.618   2.997  0.5113 -1.8123  0.6679
  115SAPE   H3S12036   6.639   1.714   2.904 -0.5627  0.1441  0.0173
  115SAPE   C2412037   6.721   1.637   3.086 -0.1785  0.4378  0.2961
  115SAPE   H4R12038   6.702   1.732   3.140 -0.4325  0.5591  0.0021
  115SAPE   H4S12039   6.822   1.649   3.041 -1.0796  1.2626 -1.6380
  115SAPE   C2512040   6.707   1.521   3.185  1.0663 -0.0207  0.4504
  115SAPE   H5R12041   6.682   1.435   3.121  1.9667 -1.0583  1.4590
  115SAPE   C2612042   6.706   1.525   3.320  0.1619 -0.0025 -0.7707
  115SAPE   H6R12043   6.686   1.435   3.379 -1.8904  0.9172  0.0359
  115SAPE   C2712044   6.740   1.647   3.405  0.2688  0.2976  0.6182
  115SAPE   H7R12045   6.743   1.739   3.342 -0.5949  0.9269  1.4648
  115SAPE   H7S12046   6.838   1.618   3.449 -0.6571 -2.2228  1.1362
  115SAPE   C2812047   6.637   1.675   3.508  0.5501  0.0190 -0.2317
  115SAPE   H8R12048   6.548   1.725   3.469  0.4276 -0.0268 -0.0104
  115SAPE   C2912049   6.656   1.681   3.643  0.4022  0.4653 -0.2259
  115SAPE   H9R12050   6.563   1.700   3.699  0.1324  1.0624 -0.8629
  115SAPE  C21012051   6.781   1.655   3.718  0.1922  0.5310 -1.5431
  115SAPE  H10R12052   6.831   1.753   3.729  0.9860 -0.1682  2.5809
  115SAPE  H10S12053   6.863   1.601   3.665  1.0632 -0.3979  0.6515
  115SAPE  C21112054   6.771   1.570   3.843  0.0632 -0.0376  0.3762
  115SAPE  H11R12055   6.807   1.467   3.829 -0.9186 -0.6788  2.3113
  115SAPE  C21212056   6.743   1.608   3.970  0.2824  0.0850  0.1459
  115SAPE  H12R12057   6.734   1.540   4.056 -2.2134  2.1208  1.6287
  115SAPE  C21312058   6.702   1.750   4.005  0.3729 -0.8289  0.2009
  115SAPE  H13R12059   6.729   1.809   3.915  1.9213 -1.4920  0.1987
  115SAPE  H13S12060   6.767   1.791   4.085 -0.8965  1.4042  0.1696
  115SAPE  C21412061   6.559   1.777   4.042  0.2128  0.1277 -0.4118
  115SAPE  H14R12062   6.482   1.736   3.974 -1.0259 -0.3818  1.2350
  115SAPE  C21512063   6.509   1.852   4.142  0.5094  0.1126 -0.0415
  115SAPE  H15R12064   6.402   1.859   4.166  0.6284  0.7426  0.3202
  115SAPE  C21612065   6.603   1.909   4.244 -0.1375  0.1217 -0.9208
  115SAPE  H16R12066   6.692   1.958   4.199 -1.4921  2.3273 -1.3493
  115SAPE  H16S12067   6.650   1.825   4.300  0.8615  0.2304 -1.5687
  115SAPE  C21712068   6.518   2.004   4.331 -0.2154 -0.5815 -0.4307
  115SAPE  H17R12069   6.452   1.941   4.394  0.2385 -1.2414 -0.6032
  115SAPE  H17S12070   6.453   2.069   4.269  1.1799 -0.6735 -2.0474
  115SAPE  C21812071   6.602   2.083   4.432 -0.4843 -0.0761 -0.0142
  115SAPE  H18R12072   6.533   2.156   4.480  0.7392  0.5063  0.8924
  115SAPE  H18S12073   6.688   2.141   4.393 -1.5045  0.2931 -1.8595
  115SAPE  C21912074   6.663   1.992   4.539 -0.2623 -0.2935  0.0384
  115SAPE  H19R12075   6.751   1.932   4.508 -0.5587 -0.5923 -0.2349
  115SAPE  H19S12076   6.589   1.919   4.578 -0.6705  0.0643 -0.0569
  115SAPE  C22012077   6.707   2.080   4.654  0.4821  0.2923 -0.0743
  115SAPE  H20R12078   6.732   2.183   4.620 -2.7279  0.8084 -1.1968
  115SAPE  H20S12079   6.800   2.038   4.699 -0.8783 -1.2497  1.4523
  115SAPE  H20T12080   6.630   2.081   4.735  2.7230 -0.7897  2.2457
  115SAPE   C3312081   6.350   1.083   3.151 -0.8040 -0.3722 -0.2273
  115SAPE   H3X12082   6.252   1.135   3.159  0.0349  1.4035 -0.8991
  115SAPE   H3Y12083   6.425   1.152   3.195 -2.1710  1.3508 -0.4776
  115SAPE   C3412084   6.359   0.961   3.243 -0.2489 -0.2349 -0.2597
  115SAPE   H4X12085   6.429   0.897   3.186  0.0269 -0.7009  0.5891
  115SAPE   H4Y12086   6.258   0.916   3.249 -0.1283 -0.7052 -1.4342
  115SAPE   C3512087   6.423   1.001   3.378 -0.0492 -0.6834  0.6393
  115SAPE   H5X12088   6.521   1.042   3.343 -0.3342  1.1206  1.8266
  115SAPE   H5Y12089   6.458   0.916   3.439 -0.8494 -0.5848  1.2434
  115SAPE   C3612090   6.323   1.094   3.446 -0.4358 -0.5455  0.0057
  115SAPE   H6X12091   6.219   1.064   3.423 -0.1983  0.1901 -2.2494
  115SAPE   H6Y12092   6.341   1.196   3.408 -0.5557 -1.2972 -2.2146
  115SAPE   C3712093   6.325   1.096   3.602  0.4048  0.4164  0.2497
  115SAPE   H7X12094   6.279   0.999   3.634  0.3625  0.7824  1.3217
  115SAPE   H7Y12095   6.257   1.178   3.635  0.1731  1.2838 -2.2033
  115SAPE   C3812096   6.463   1.116   3.670 -0.6480 -0.0660  1.2942
  115SAPE   H8X12097   6.501   1.212   3.629 -1.1532  1.1618  3.5717
  115SAPE   H8Y12098   6.532   1.039   3.630 -2.6882 -0.8151 -1.0582
  115SAPE   C3912099   6.459   1.122   3.820 -0.8694  0.6273  0.7029
  115SAPE   H9X12100   6.375   1.188   3.853 -0.9124  1.0870 -0.2981
  115SAPE   H9Y12101   6.552   1.156   3.871 -1.2733  0.5907  1.4882
  115SAPE  C31012102   6.442   0.988   3.886  0.7512 -0.0451 -0.5349
  115SAPE  H10X12103   6.505   0.914   3.832 -0.6107 -0.5809 -1.4580
  115SAPE  H10Y12104   6.340   0.945   3.874  0.3183  1.0257 -0.8952
  115SAPE  C31112105   6.455   1.003   4.041  0.0895  0.1875 -0.1947
  115SAPE  H11X12106   6.384   1.083   4.072  2.3956  2.6054 -0.8147
  115SAPE  H11Y12107   6.555   1.043   4.070  0.3434 -1.4519  1.3761
  115SAPE  C31212108   6.424   0.876   4.118 -0.1593 -0.9113 -0.5772
  115SAPE  H12X12109   6.487   0.791   4.085  1.7530 -0.1637  1.0061
  115SAPE  H12Y12110   6.320   0.838   4.112 -0.4413 -0.2195 -0.2261
  115SAPE  C31312111   6.450   0.894   4.269  1.0143 -0.6384 -0.7505
  115SAPE  H13X12112   6.405   0.992   4.294  1.5953 -0.1017 -1.7595
  115SAPE  H13Y12113   6.559   0.895   4.292  0.8567 -2.1339  0.1876
  115SAPE  C31412114   6.395   0.775   4.355  0.2829  0.7025 -0.1518
  115SAPE  H14X12115   6.430   0.681   4.306 -2.2141  1.4305 -3.7994
  115SAPE  H14Y12116   6.284   0.773   4.360  0.3280 -0.1481  0.9898
  115SAPE  C31512117   6.439   0.775   4.498 -0.7457 -0.1603  0.4788
  115SAPE  H15X12118   6.433   0.880   4.533  0.2490  1.0721 -2.7155
  115SAPE  H15Y12119   6.549   0.760   4.509 -0.6809 -1.2044 -1.2336
  115SAPE  C31612120   6.362   0.685   4.589 -0.5198  0.2483 -0.5338
  115SAPE  H16X12121   6.364   0.583   4.545 -0.2044  0.5167 -1.1609
  115SAPE  H16Y12122   6.257   0.721   4.588 -1.0434 -1.2530 -1.4991
  115SAPE  C31712123   6.421   0.693   4.732 -0.6734 -0.2320  0.5665
  115SAPE  H17X12124   6.397   0.796   4.764 -0.1996 -0.2057  0.8378
  115SAPE  H17Y12125   6.531   0.678   4.734 -0.5772  0.2725 -0.3310
  115SAPE  C31812126   6.366   0.594   4.827  0.0298  0.6490  0.3285
  115SAPE  H18X12127   6.255   0.600   4.829 -0.1682 -1.9155 -0.0871
  115SAPE  H18Y12128   6.406   0.612   4.929  1.9348  2.4333 -0.6380
  115SAPE  H18Z12129   6.395   0.491   4.798 -0.7362  0.5112  0.0212
  116SAPE     N12130   5.367   2.193   2.371  0.2433  0.7709 -0.4908
  116SAPE   HN112131   5.377   2.096   2.405  0.2007 -0.7225 -4.1898
  116SAPE   HN212132   5.379   2.255   2.453 -0.0536 -0.9271  0.8911
  116SAPE   HN312133   5.270   2.208   2.337 -0.1349 -1.1530 -0.3615
  116SAPE   C1212134   5.473   2.212   2.256 -0.1148 -0.4608 -0.6983
  116SAPE  H12A12135   5.443   2.157   2.164 -0.1037 -0.0419 -0.9538
  116SAPE  H12B12136   5.564   2.160   2.293 -1.1460 -1.5793  0.3556
  116SAPE   C1112137   5.494   2.358   2.214  0.6178 -0.5043 -0.5393
  116SAPE  H11A12138   5.406   2.400   2.162  1.9747  0.3664 -2.2349
  116SAPE  H11B12139   5.580   2.359   2.143 -0.2568  2.3803 -1.7195
  116SAPE     P12140   5.645   2.542   2.331  0.1898  0.1928  0.0189
  116SAPE   O1312141   5.773   2.476   2.301 -0.6449 -0.1761 -0.2304
  116SAPE   O1412142   5.597   2.654   2.248  0.1787  0.0771  0.6836
  116SAPE   O1212143   5.522   2.441   2.325 -0.2992 -0.0449 -0.0628
  116SAPE   O1112144   5.652   2.583   2.480 -0.0833  0.0696 -0.4139
  116SAPE    C112145   5.602   2.505   2.587  0.3321  0.0061 -0.0025
  116SAPE    HA12146   5.523   2.563   2.640  0.1959  0.0624 -0.2694
  116SAPE    HB12147   5.567   2.403   2.559  1.8157 -0.5696  0.1795
  116SAPE    C212148   5.727   2.470   2.677  0.1454 -0.2853  0.2409
  116SAPE    HS12149   5.689   2.398   2.753 -0.4602 -1.8056 -1.4229
  116SAPE   O2112150   5.774   2.595   2.735 -0.4240  0.8728  0.0748
  116SAPE   C2112151   5.839   2.594   2.846 -0.4295 -0.2655 -0.0718
  116SAPE   O2212152   5.869   2.497   2.917  0.5457  0.5539 -0.0355
  116SAPE   C2212153   5.862   2.736   2.886 -0.1759 -0.1930 -0.1270
  116SAPE   H2R12154   5.935   2.793   2.825 -0.2290 -0.5778 -0.5519
  116SAPE   H2S12155   5.767   2.791   2.874 -1.1283 -1.6166  0.5604
  116SAPE    C312156   5.839   2.391   2.602  0.1110 -1.3953  0.4613
  116SAPE    HX12157   5.913   2.467   2.570 -0.9213 -0.1142  1.0644
  116SAPE    HY12158   5.797   2.341   2.512 -0.7386 -1.1977  0.7366
  116SAPE   O3112159   5.905   2.300   2.686  0.1736  0.4174 -0.1616
  116SAPE   C3112160   6.012   2.251   2.638 -0.3825  0.1097  0.3399
  116SAPE   O3212161   6.055   2.266   2.524 -0.0475  0.5213 -0.0436
  116SAPE   C3212162   6.093   2.177   2.747 -0.2431 -0.1031 -0.7031
  116SAPE   H2X12163   6.185   2.235   2.768 -0.3683  0.4773 -1.7240
  116SAPE   H2Y12164   6.124   2.078   2.708  0.5515 -1.2111  2.3768
  116SAPE   C2312165   5.897   2.753   3.040 -0.0489 -0.2725  0.7739
  116SAPE   H3R12166   5.979   2.683   3.068  1.0278 -0.9571 -3.3586
  116SAPE   H3S12167   5.807   2.709   3.090 -0.0578 -2.6349 -1.1151
  116SAPE   C2412168   5.920   2.899   3.080  0.6264 -0.9028 -0.8227
  116SAPE   H4R12169   5.981   2.940   2.997  0.5841 -0.3938 -0.6077
  116SAPE   H4S12170   5.976   2.898   3.177 -1.0180 -1.5340  0.1642
  116SAPE   C2512171   5.791   2.981   3.098 -0.3051 -0.0671 -0.0502
  116SAPE   H5R12172   5.785   3.047   3.010 -0.1682  1.5334  1.0965
  116SAPE   C2612173   5.697   2.987   3.195  0.1077 -0.0244  0.1304
  116SAPE   H6R12174   5.603   3.044   3.182  0.1202  0.4118  1.7491
  116SAPE   C2712175   5.692   2.900   3.318  0.8309 -0.2561 -0.1063
  116SAPE   H7R12176   5.786   2.928   3.370  1.6966 -0.4351 -1.5150
  116SAPE   H7S12177   5.706   2.793   3.294  0.2566 -0.5716  0.9285
  116SAPE   C2812178   5.574   2.909   3.410 -0.0305 -0.2742 -1.3910
  116SAPE   H8R12179   5.482   2.860   3.373 -1.5207  0.3707  1.1942
  116SAPE   C2912180   5.563   2.988   3.518 -0.1021  0.3144 -0.7699
  116SAPE   H9R12181   5.474   2.992   3.581 -0.6993 -0.6233 -1.5351
  116SAPE  C21012182   5.676   3.068   3.589  1.1523  0.3909  0.1413
  116SAPE  H10R12183   5.772   3.015   3.574  1.7365  0.4330  3.1355
  116SAPE  H10S12184   5.664   3.070   3.700 -0.7477  1.8740 -0.0408
  116SAPE  C21112185   5.680   3.206   3.536  1.1131  0.6537 -0.4589
  116SAPE  H11R12186   5.667   3.209   3.427 -0.3186  0.9422 -0.3030
  116SAPE  C21212187   5.704   3.321   3.596 -0.3975 -0.0756 -0.4867
  116SAPE  H12R12188   5.706   3.419   3.546  0.5148  0.6220  0.8654
  116SAPE  C21312189   5.701   3.338   3.748  0.5389 -0.0063  0.5630
  116SAPE  H13R12190   5.726   3.444   3.766 -0.2748  0.1680  0.6981
  116SAPE  H13S12191   5.787   3.280   3.787  2.2345  1.6507 -0.5501
  116SAPE  C21412192   5.561   3.313   3.816 -0.6612  0.0912  0.4870
  116SAPE  H14R12193   5.499   3.234   3.770  0.0549  0.5372 -1.3388
  116SAPE  C21512194   5.507   3.378   3.912 -0.0714  0.4070 -0.5206
  116SAPE  H15R12195   5.404   3.355   3.943  0.4662 -1.4273  0.0712
  116SAPE  C21612196   5.566   3.499   3.984 -0.0111 -0.2884  0.6531
  116SAPE  H16R12197   5.501   3.539   4.064 -0.7326 -3.4243  1.7796
  116SAPE  H16S12198   5.588   3.575   3.905  0.9136 -1.2531 -0.0506
  116SAPE  C21712199   5.700   3.472   4.055  0.4478  0.3549  0.0553
  116SAPE  H17R12200   5.739   3.568   4.096 -0.2318  0.8404 -0.4178
  116SAPE  H17S12201   5.769   3.413   3.992  1.4452  2.3105 -0.7640
  116SAPE  C21812202   5.678   3.381   4.177  1.0291  0.2656 -0.1294
  116SAPE  H18R12203   5.659   3.277   4.141 -1.2467  0.3877  0.5851
  116SAPE  H18S12204   5.588   3.414   4.231  0.3289 -1.0725 -0.4297
  116SAPE  C21912205   5.808   3.383   4.266  0.0726 -0.8785  0.4350
  116SAPE  H19R12206   5.821   3.488   4.300  1.0799 -0.3112 -1.5153
  116SAPE  H19S12207   5.893   3.365   4.196  1.2218  1.4510  1.1257
  116SAPE  C22012208   5.819   3.296   4.382  0.0879 -0.0042 -0.5695
  116SAPE  H20R12209   5.925   3.292   4.415  0.0371  0.7950 -0.2801
  116SAPE  H20S12210   5.788   3.192   4.360 -1.5707  0.2036  0.6499
  116SAPE  H20T12211   5.763   3.338   4.468  0.3441  0.8017 -0.7779
  116SAPE   C3312212   5.997   2.148   2.874  0.3034 -0.9123 -0.4002
  116SAPE   H3X12213   5.904   2.091   2.851 -0.5988  0.4771 -0.3268
  116SAPE   H3Y12214   5.965   2.247   2.912 -3.5543 -2.5071  1.0880
  116SAPE   C3412215   6.083   2.094   2.992  0.3732  0.4823 -0.7681
  116SAPE   H4X12216   6.161   2.173   3.001  0.1791  0.4538  1.6898
  116SAPE   H4Y12217   6.121   1.994   2.962 -2.6953 -1.6899  1.8792
  116SAPE   C3512218   6.014   2.074   3.126 -0.2206  0.3282 -0.0835
  116SAPE   H5X12219   5.926   2.006   3.122  1.1774 -1.6185  0.8858
  116SAPE   H5Y12220   5.975   2.171   3.164  1.1816  0.4723  1.0572
  116SAPE   C3612221   6.107   2.001   3.222  0.8882  0.7692  0.0959
  116SAPE   H6X12222   6.207   2.050   3.209  0.6392  1.4652  0.7430
  116SAPE   H6Y12223   6.138   1.898   3.194 -0.4557  0.7005 -1.2683
  116SAPE   C3712224   6.066   1.994   3.374  0.0475 -0.5335  0.2707
  116SAPE   H7X12225   5.991   1.912   3.378 -1.7249  0.8197 -2.3750
  116SAPE   H7Y12226   6.010   2.086   3.399  0.6070  0.5223 -2.0564
  116SAPE   C3812227   6.183   1.964   3.463 -0.0007 -0.1516 -0.6340
  116SAPE   H8X12228   6.256   2.046   3.476  2.1115 -2.1841  1.1236
  116SAPE   H8Y12229   6.244   1.881   3.422  1.3488  0.5912 -0.1757
  116SAPE   C3912230   6.137   1.932   3.605  0.3114 -0.1607  0.0940
  116SAPE   H9X12231   6.072   1.843   3.622  0.9653 -0.3149  2.0056
  116SAPE   H9Y12232   6.079   2.024   3.627 -0.6343 -0.3999 -1.2691
  116SAPE  C31012233   6.250   1.933   3.704  0.0375  0.3683  0.6795
  116SAPE  H10X12234   6.332   2.005   3.685  0.8811 -0.4149  1.2688
  116SAPE  H10Y12235   6.297   1.837   3.674 -3.7334 -1.1400 -1.0584
  116SAPE  C31112236   6.208   1.921   3.849  0.2767  0.7489 -0.7441
  116SAPE  H11X12237   6.293   1.891   3.915 -0.2274 -0.4603 -0.6109
  116SAPE  H11Y12238   6.133   1.839   3.861 -0.1131  1.0102 -1.3607
  116SAPE  C31212239   6.152   2.050   3.903  0.0811 -0.2755  0.6879
  116SAPE  H12X12240   6.058   2.086   3.855  0.4028  0.2341  0.4415
  116SAPE  H12Y12241   6.219   2.134   3.877 -1.1702  0.1409 -1.4011
  116SAPE  C31312242   6.131   2.042   4.057 -0.1871 -0.1500 -0.0798
  116SAPE  H13X12243   6.216   1.988   4.104 -0.5489 -0.9361 -0.2983
  116SAPE  H13Y12244   6.038   1.984   4.073 -0.1982  0.0603  0.6736
  116SAPE  C31412245   6.111   2.181   4.119  0.4341  0.2694 -0.0961
  116SAPE  H14X12246   6.042   2.240   4.056 -0.6005 -0.4396  0.3529
  116SAPE  H14Y12247   6.205   2.239   4.107  0.0034  0.8916 -0.4819
  116SAPE  C31512248   6.069   2.182   4.266  0.2445 -0.2534 -0.1463
  116SAPE  H15X12249   5.986   2.110   4.283  0.8785 -0.5955  1.8562
  116SAPE  H15Y12250   6.028   2.282   4.294  0.5155 -0.6980  2.0301
  116SAPE  C31612251   6.181   2.138   4.363  0.0352 -0.1342  0.3747
  116SAPE  H16X12252   6.258   2.218   4.349 -1.0673  1.0184  0.7871
  116SAPE  H16Y12253   6.218   2.040   4.326  0.5874  0.2071  0.0060
  116SAPE  C31712254   6.124   2.134   4.507  0.0272 -0.0036 -0.5797
  116SAPE  H17X12255   6.057   2.048   4.528 -0.4298  0.4483 -0.1521
  116SAPE  H17Y12256   6.070   2.226   4.537 -0.6392 -0.2410 -1.0445
  116SAPE  C31812257   6.248   2.133   4.601  0.4090 -0.6381  0.3900
  116SAPE  H18X12258   6.305   2.228   4.594 -1.0750  0.3218  1.0059
  116SAPE  H18Y12259   6.318   2.052   4.570 -0.9067 -1.0051 -1.8930
  116SAPE  H18Z12260   6.223   2.108   4.706  0.9550 -0.3535  0.5938
  117SOPE     N12261   4.615   0.716   6.637 -0.0672 -0.1539  0.8274
  117SOPE   HN112262   4.624   0.798   6.701  0.4706  0.9245 -0.5662
  117SOPE   HN212263   4.520   0.725   6.595 -0.2186 -0.5657  1.0834
  117SOPE   HN312264   4.618   0.626   6.688  0.4666 -0.6559 -0.0763
  117SOPE   C1212265   4.720   0.730   6.532 -0.2947 -0.1690 -0.5065
  117SOPE  H12A12266   4.700   0.818   6.468  0.0446  0.2537 -0.0434
  117SOPE  H12B12267   4.709   0.638   6.471 -3.8940 -1.0586  1.1948
  117SOPE   C1112268   4.857   0.734   6.595 -0.5003  0.2549 -0.6951
  117SOPE  H11A12269   4.938   0.708   6.523  1.3100 -1.0790  1.6781
  117SOPE  H11B12270   4.860   0.642   6.658  0.6152  0.1647 -0.8604
  117SOPE     P12271   4.950   0.851   6.806  0.0726 -0.5608 -0.1431
  117SOPE   O1312272   4.904   0.735   6.886  0.0451  0.2141 -0.5024
  117SOPE   O1412273   4.949   0.985   6.876 -0.1100  0.5363 -0.5031
  117SOPE   O1212274   4.881   0.855   6.665  0.3824 -0.6124  0.3290
  117SOPE   O1112275   5.094   0.817   6.749 -0.0352 -1.0688 -0.7021
  117SOPE    C112276   5.171   0.926   6.687 -0.0895 -0.1053 -0.3747
  117SOPE    HA12277   5.262   0.958   6.742 -0.1812  0.0192 -0.2956
  117SOPE    HB12278   5.118   1.024   6.686 -1.3496 -0.6689  2.4885
  117SOPE    C212279   5.222   0.901   6.538  0.3774 -0.6795 -0.2859
  117SOPE    HS12280   5.314   0.961   6.525 -0.2503  0.5949  0.8984
  117SOPE   O2112281   5.119   0.926   6.437 -0.0704 -0.0461  0.1948
  117SOPE   C2112282   5.116   1.053   6.392  0.3318  0.0741 -0.2554
  117SOPE   O2212283   5.187   1.146   6.435  0.1563  0.0814  0.1277
  117SOPE   C2212284   5.037   1.069   6.262 -0.0542 -0.4903 -0.2390
  117SOPE   H2R12285   5.039   1.177   6.236  0.0049 -1.0152 -2.6526
  117SOPE   H2S12286   4.932   1.040   6.285  0.5002 -1.6907  0.9567
  117SOPE    C312287   5.270   0.756   6.527  0.5721 -0.1023  0.0169
  117SOPE    HX12288   5.188   0.682   6.541 -0.0234 -0.0448 -2.6735
  117SOPE    HY12289   5.346   0.744   6.607  0.8392  1.7104  0.0780
  117SOPE   O3112290   5.348   0.730   6.409 -0.0665  0.6012  0.0686
  117SOPE   C3112291   5.283   0.697   6.303  0.0709  0.7529 -0.2831
  117SOPE   O3212292   5.159   0.689   6.295 -0.1061 -0.2736  0.9915
  117SOPE   C3212293   5.392   0.665   6.203 -0.1980 -0.0662 -0.5899
  117SOPE   H2X12294   5.423   0.559   6.216 -1.5122 -0.7373 -2.5334
  117SOPE   H2Y12295   5.479   0.732   6.218 -0.3662  0.3524 -1.4404
  117SOPE   C2312296   5.101   0.987   6.145  0.8897 -0.4254 -0.4458
  117SOPE   H3R12297   5.061   0.884   6.135  0.3998 -0.0398 -3.3109
  117SOPE   H3S12298   5.209   0.971   6.164  0.5529 -2.6496 -0.0883
  117SOPE   C2412299   5.106   1.062   6.015 -0.4680 -0.6046 -0.2536
  117SOPE   H4R12300   5.166   1.154   6.032  0.0493 -1.4072  3.1619
  117SOPE   H4S12301   5.156   0.992   5.946  0.4917  1.9045 -2.2479
  117SOPE   C2512302   4.972   1.089   5.947  0.0809 -0.1836 -0.6475
  117SOPE   H5R12303   4.917   0.992   5.951 -1.2564  0.5541 -0.4743
  117SOPE   H5S12304   4.909   1.158   6.007  1.2700  0.8581 -0.5547
  117SOPE   C2612305   4.994   1.138   5.798  0.0980  0.8636 -0.4263
  117SOPE   H6R12306   4.905   1.193   5.761  1.9398  2.9574 -1.9577
  117SOPE   H6S12307   5.069   1.218   5.814  1.3789 -0.6402  1.5326
  117SOPE   C2712308   5.034   1.035   5.701  0.0004  0.3394 -0.3835
  117SOPE   H7R12309   5.057   0.940   5.754 -1.8773 -0.6509 -1.2493
  117SOPE   H7S12310   4.948   1.010   5.636 -0.0440 -1.1997  0.2184
  117SOPE   C2812311   5.163   1.062   5.613  0.3342  0.3142 -0.5691
  117SOPE   H8R12312   5.148   1.145   5.541  1.3319 -0.0398 -1.2109
  117SOPE   H8S12313   5.242   1.085   5.687  0.3015 -2.4185  0.4160
  117SOPE   C2912314   5.227   0.941   5.541 -0.6304 -1.1050  0.5319
  117SOPE   H9112315   5.294   0.883   5.606 -0.4281 -1.8027 -0.2755
  117SOPE  C21012316   5.235   0.909   5.409  0.1802  0.2628  0.5133
  117SOPE  H10112317   5.291   0.818   5.381  0.6350  0.5568  0.4497
  117SOPE  C21112318   5.166   0.974   5.294  0.9073 -0.5774 -0.7527
  117SOPE  H11R12319   5.149   1.082   5.314  1.5577 -0.6416  0.1913
  117SOPE  H11S12320   5.067   0.929   5.273  0.5781 -0.3995  0.3826
  117SOPE  C21212321   5.256   0.975   5.171 -0.4748  0.0768  0.2116
  117SOPE  H12R12322   5.305   0.876   5.155 -2.4659 -0.6977 -1.5586
  117SOPE  H12S12323   5.337   1.049   5.190  0.1534 -0.8702  1.3597
  117SOPE  C21312324   5.196   1.018   5.038  0.1454 -0.8820 -0.6582
  117SOPE  H13R12325   5.278   1.034   4.965 -0.9633  0.8773 -1.5767
  117SOPE  H13S12326   5.138   1.113   5.047  1.4682  0.0003 -1.2227
  117SOPE  C21412327   5.089   0.922   4.982  0.2380  0.0452 -0.0424
  117SOPE  H14R12328   5.010   0.913   5.060  0.6790  0.0448  0.4114
  117SOPE  H14S12329   5.135   0.821   4.973 -1.8028 -0.8743 -0.6274
  117SOPE  C21512330   5.025   0.965   4.848  0.0880  0.0418 -0.2846
  117SOPE  H15R12331   4.938   1.026   4.879 -0.0628 -0.5588  0.5137
  117SOPE  H15S12332   4.978   0.876   4.800 -0.1675 -1.3812  2.3768
  117SOPE  C21612333   5.121   1.029   4.744 -0.4698  0.1511 -0.5090
  117SOPE  H16R12334   5.215   0.970   4.756 -0.6376 -0.3344 -1.4843
  117SOPE  H16S12335   5.129   1.136   4.773 -0.1177  0.0010 -0.0317
  117SOPE  C21712336   5.072   1.012   4.595 -0.9342  0.7333  0.5378
  117SOPE  H17R12337   4.982   1.076   4.583 -0.6679  1.4999  2.3006
  117SOPE  H17S12338   5.042   0.906   4.592  0.9082  0.0599  2.9159
  117SOPE  C21812339   5.187   1.050   4.491  0.2297  0.1818 -0.6638
  117SOPE  H18R12340   5.155   1.032   4.386  2.9480  1.3543 -1.7918
  117SOPE  H18S12341   5.279   0.991   4.514 -0.1693  0.2798  1.3810
  117SOPE  H18T12342   5.215   1.154   4.519  0.5651 -0.2886  0.8493
  117SOPE   C3312343   5.341   0.687   6.057  0.1514  0.3483  0.6100
  117SOPE   H3X12344   5.268   0.770   6.047 -0.3987  0.0731  2.1107
  117SOPE   H3Y12345   5.282   0.595   6.036  1.9593 -0.5073 -1.0722
  117SOPE   C3412346   5.445   0.701   5.948 -0.9555 -0.2178  0.5748
  117SOPE   H4X12347   5.529   0.631   5.970 -0.2229  0.9145  1.4983
  117SOPE   H4Y12348   5.503   0.795   5.962 -1.3967  0.1201  0.1424
  117SOPE   C3512349   5.383   0.683   5.811  0.8681 -0.5641 -0.2808
  117SOPE   H5X12350   5.459   0.718   5.738  1.5597  0.0479  0.7064
  117SOPE   H5Y12351   5.290   0.741   5.794  1.7340  0.8736 -0.3124
  117SOPE   C3612352   5.356   0.539   5.771 -0.7512 -0.3817 -0.1532
  117SOPE   H6X12353   5.266   0.506   5.827 -0.0735  0.5261  1.5525
  117SOPE   H6Y12354   5.436   0.469   5.803 -0.8252 -0.6708 -0.6006
  117SOPE   C3712355   5.332   0.523   5.617 -0.3364  0.3119 -0.6296
  117SOPE   H7X12356   5.260   0.600   5.581  1.6533  2.5528 -0.0852
  117SOPE   H7Y12357   5.302   0.417   5.601  0.4955 -0.4790  2.4250
  117SOPE   C3812358   5.455   0.537   5.524 -0.1793 -0.1138  0.3160
  117SOPE   H8X12359   5.513   0.446   5.550  0.5932  0.2432 -0.1456
  117SOPE   H8Y12360   5.513   0.628   5.548  1.2595 -0.6084 -1.1640
  117SOPE   C3912361   5.412   0.526   5.376 -0.3943  0.9043 -0.5064
  117SOPE   H9X12362   5.336   0.604   5.354 -0.2535  1.8073  1.9233
  117SOPE   H9Y12363   5.363   0.428   5.357 -0.5207  0.6069  1.2087
  117SOPE  C31012364   5.529   0.543   5.279  0.0928  0.0279 -0.4432
  117SOPE  H10X12365   5.586   0.448   5.284 -2.3830 -1.5084  2.9172
  117SOPE  H10Y12366   5.596   0.626   5.308 -1.0166  1.4851 -1.8781
  117SOPE  C31112367   5.493   0.571   5.134 -0.6541  0.3197 -0.4780
  117SOPE  H11X12368   5.584   0.601   5.077  0.1700  0.3851  0.8126
  117SOPE  H11Y12369   5.423   0.656   5.142  0.9983  1.6622  0.4034
  117SOPE  C31212370   5.429   0.451   5.056 -0.6848  0.2152 -0.0112
  117SOPE  H12X12371   5.385   0.384   5.134  1.1518  0.5092  1.3485
  117SOPE  H12Y12372   5.514   0.399   5.008  0.9169  0.2221  2.6315
  117SOPE  C31312373   5.330   0.488   4.946 -1.2058 -0.6505 -0.2258
  117SOPE  H13X12374   5.339   0.399   4.881 -0.8697  0.9595 -2.5130
  117SOPE  H13Y12375   5.364   0.569   4.878  3.1455 -3.3842 -1.7190
  117SOPE  C31412376   5.180   0.512   4.981  0.0085 -0.3177 -0.1874
  117SOPE  H14X12377   5.175   0.603   5.045  3.1742 -0.0117 -0.2129
  117SOPE  H14Y12378   5.141   0.431   5.047 -0.9895  0.5869  0.3682
  117SOPE  C31512379   5.097   0.533   4.850  0.8223 -0.0764 -0.4146
  117SOPE  H15X12380   5.149   0.616   4.797  0.1040  1.4837  1.2152
  117SOPE  H15Y12381   4.993   0.561   4.879 -0.1195 -2.2601 -1.4815
  117SOPE  C31612382   5.076   0.415   4.757  0.0787 -0.4092 -0.5705
  117SOPE  H16X12383   5.046   0.333   4.826 -1.2758  0.8827  0.4223
  117SOPE  H16Y12384   5.175   0.386   4.714  0.5561 -0.2822  0.4140
  117SOPE  C31712385   4.977   0.447   4.644 -0.1941 -0.6709 -0.5030
  117SOPE  H17X12386   4.913   0.533   4.675  0.4269  1.3744 -4.2717
  117SOPE  H17Y12387   4.918   0.357   4.617 -0.5656 -0.7166  0.4215
  117SOPE  C31812388   5.050   0.510   4.528  0.2118 -0.4137  0.5414
  117SOPE  H18X12389   5.105   0.430   4.474  0.5058  0.6314 -0.7827
  117SOPE  H18Y12390   5.128   0.580   4.566  1.4309 -1.5268  0.1328
  117SOPE  H18Z12391   4.980   0.563   4.460  0.1728 -0.6133  0.4282
  118SOPE     N12392   6.548   3.787   7.276  0.1994 -0.3889  0.2020
  118SOPE   HN112393   6.474   3.721   7.245 -2.2643  0.2240  4.0358
  118SOPE   HN212394   6.645   3.762   7.250  0.9056  2.3547 -0.0444
  118SOPE   HN312395   6.534   3.802   7.378  1.5355  2.4737  0.0665
  118SOPE   C1212396   6.514   3.920   7.218  0.6106 -0.4214 -0.2777
  118SOPE  H12A12397   6.527   3.920   7.108 -2.1914  1.2313 -0.6869
  118SOPE  H12B12398   6.578   4.001   7.259  0.0141  0.5713 -1.2568
  118SOPE   C1112399   6.365   3.952   7.249 -0.6456  0.7295 -0.1758
  118SOPE  H11A12400   6.366   4.061   7.228  0.1288  0.1379 -3.9731
  118SOPE  H11B12401   6.338   3.934   7.355 -0.8218 -0.4941 -0.4067
  118SOPE     P12402   6.118   3.908   7.168 -0.0032  0.5626 -0.2397
  118SOPE   O1312403   6.084   4.029   7.088 -0.1033 -0.1794  0.0542
  118SOPE   O1412404   6.074   3.911   7.309 -0.1793 -0.0146 -0.2339
  118SOPE   O1212405   6.274   3.892   7.154  0.6014 -0.0605 -0.2448
  118SOPE   O1112406   6.050   3.781   7.103  0.1637 -0.0947 -0.6500
  118SOPE    C112407   6.124   3.676   7.036  0.0415 -0.4283  0.1454
  118SOPE    HA12408   6.161   3.612   7.119 -1.1379  0.7278  1.6360
  118SOPE    HB12409   6.204   3.721   6.974 -0.1368 -0.0923  0.1537
  118SOPE    C212410   6.038   3.589   6.940  0.3749 -0.4605  0.4637
  118SOPE    HS12411   5.992   3.518   7.012 -0.2139  1.3531  1.9694
  118SOPE   O2112412   6.122   3.531   6.838  0.2541  0.1959  0.7619
  118SOPE   C2112413   6.218   3.435   6.881 -0.2282 -0.2601 -0.1555
  118SOPE   O2212414   6.243   3.402   6.991 -0.1568 -0.5704 -0.7656
  118SOPE   C2212415   6.293   3.391   6.757  0.4199 -0.0828  0.4992
  118SOPE   H2R12416   6.220   3.377   6.674 -0.6761  1.2095  1.2121
  118SOPE   H2S12417   6.344   3.296   6.784 -3.0183 -2.1639  0.3960
  118SOPE    C312418   5.927   3.683   6.880  0.3762 -0.0595  0.2958
  118SOPE    HX12419   5.983   3.770   6.840  1.2647  0.0713  1.7657
  118SOPE    HY12420   5.859   3.716   6.960 -0.3870  0.1800 -0.4373
  118SOPE   O3112421   5.847   3.608   6.780 -0.4841 -0.1516  0.2221
  118SOPE   C3112422   5.761   3.686   6.714  0.1264 -0.6944  0.3570
  118SOPE   O3212423   5.765   3.807   6.731 -0.5336  0.2776  0.8692
  118SOPE   C3212424   5.688   3.610   6.604  0.0616 -0.2977  0.0050
  118SOPE   H2X12425   5.614   3.551   6.662 -0.4758  0.7984  0.4723
  118SOPE   H2Y12426   5.764   3.545   6.555 -0.1014 -2.1937  2.1384
  118SOPE   C2312427   6.391   3.500   6.721  1.3219 -0.9487 -0.2410
  118SOPE   H3R12428   6.466   3.523   6.800  0.6064  0.2189  0.1300
  118SOPE   H3S12429   6.332   3.594   6.717  1.0136 -0.9624  2.3295
  118SOPE   C2412430   6.475   3.479   6.597  0.3044 -0.1565 -0.5714
  118SOPE   H4R12431   6.536   3.568   6.571 -1.5045  0.9415 -1.2226
  118SOPE   H4S12432   6.546   3.394   6.609  0.6869  0.3839  1.4198
  118SOPE   C2512433   6.389   3.443   6.476 -0.2512 -0.5150 -0.5812
  118SOPE   H5R12434   6.335   3.347   6.487  1.0233 -1.2358 -0.3719
  118SOPE   H5S12435   6.319   3.529   6.473 -0.1690 -0.4732 -1.7203
  118SOPE   C2612436   6.472   3.427   6.348  0.1310 -0.0345  0.4077
  118SOPE   H6R12437   6.529   3.522   6.338 -1.4135  0.8713 -0.2515
  118SOPE   H6S12438   6.531   3.333   6.345 -0.8598 -0.6518 -0.3831
  118SOPE   C2712439   6.386   3.424   6.225 -0.0443 -0.1652  0.2410
  118SOPE   H7R12440   6.322   3.333   6.220  0.8740 -0.8628  0.7460
  118SOPE   H7S12441   6.311   3.506   6.228 -0.7765 -0.7917 -0.4240
  118SOPE   C2812442   6.466   3.439   6.086  0.4206 -0.0025 -0.2478
  118SOPE   H8R12443   6.383   3.453   6.013 -0.9714 -2.9552  0.6348
  118SOPE   H8S12444   6.532   3.528   6.094  0.7355 -0.4293  3.3372
  118SOPE   C2912445   6.543   3.316   6.045 -0.3490 -0.0420 -0.3094
  118SOPE   H9112446   6.521   3.226   6.103  0.0348 -0.9740 -1.5724
  118SOPE  C21012447   6.626   3.309   5.937 -0.2405  0.1858 -0.0199
  118SOPE  H10112448   6.686   3.217   5.927 -0.7055 -0.2162  0.7254
  118SOPE  C21112449   6.657   3.417   5.837  0.1280 -0.0242  0.3402
  118SOPE  H11R12450   6.746   3.474   5.873  0.9067 -1.1941  0.3044
  118SOPE  H11S12451   6.581   3.498   5.847  0.6535  0.5040  0.1439
  118SOPE  C21212452   6.682   3.381   5.690  0.8639 -0.5166 -0.6002
  118SOPE  H12R12453   6.770   3.314   5.686  0.0545 -1.7252  0.8357
  118SOPE  H12S12454   6.709   3.474   5.635 -1.2158  0.3133 -0.3010
  118SOPE  C21312455   6.557   3.315   5.618 -0.7040  0.1066  0.1487
  118SOPE  H13R12456   6.462   3.370   5.634 -0.7263  0.0099  0.3511
  118SOPE  H13S12457   6.553   3.216   5.669  2.0731  1.0118  2.3692
  118SOPE  C21412458   6.589   3.315   5.471  0.1998 -0.3524  0.0896
  118SOPE  H14R12459   6.690   3.276   5.446 -0.1098 -1.0684 -0.0740
  118SOPE  H14S12460   6.591   3.419   5.432  2.3936 -0.7134 -0.8969
  118SOPE  C21512461   6.492   3.244   5.376  0.0571 -0.6464 -0.9203
  118SOPE  H15R12462   6.390   3.265   5.412  0.2919 -0.8367 -0.1280
  118SOPE  H15S12463   6.513   3.135   5.383 -0.1915 -0.6260  0.3805
  118SOPE  C21612464   6.515   3.286   5.230 -0.0867  0.0510 -0.0732
  118SOPE  H16R12465   6.622   3.304   5.208 -0.0052  2.2041  1.6898
  118SOPE  H16S12466   6.457   3.381   5.223 -1.3132 -0.6543  0.1977
  118SOPE  C21712467   6.447   3.191   5.121 -0.3606 -0.1183 -0.4880
  118SOPE  H17R12468   6.338   3.212   5.118 -0.1119  1.9931  1.8074
  118SOPE  H17S12469   6.449   3.089   5.165 -0.2417  0.6103  1.2791
  118SOPE  C21812470   6.516   3.228   4.989  0.4201 -0.5467  0.2663
  118SOPE  H18R12471   6.444   3.210   4.906 -0.7968  2.7237  0.4753
  118SOPE  H18S12472   6.605   3.171   4.956  0.1708 -2.0591  2.0144
  118SOPE  H18T12473   6.539   3.336   4.984  3.1002 -1.0762 -0.7115
  118SOPE   C3312474   5.610   3.708   6.518 -0.5671 -0.1998  0.1407
  118SOPE   H3X12475   5.578   3.798   6.573  1.4970  0.3816  0.4966
  118SOPE   H3Y12476   5.519   3.665   6.472  0.7045 -0.4167 -2.3671
  118SOPE   C3412477   5.684   3.755   6.394  0.8864  0.1570  0.5959
  118SOPE   H4X12478   5.745   3.665   6.372 -0.5790 -1.4129  2.5598
  118SOPE   H4Y12479   5.750   3.842   6.417  2.1675 -1.2348  2.4625
  118SOPE   C3512480   5.591   3.781   6.266  0.6200 -0.1854  0.1858
  118SOPE   H5X12481   5.567   3.889   6.271  2.3098  0.1894  0.9955
  118SOPE   H5Y12482   5.498   3.719   6.262  0.6825 -0.3309  0.8657
  118SOPE   C3612483   5.681   3.759   6.140  0.3540  0.3056 -0.4541
  118SOPE   H6X12484   5.703   3.650   6.138 -1.8937 -0.1949 -0.3036
  118SOPE   H6Y12485   5.774   3.820   6.142  0.9587 -0.3829 -3.1618
  118SOPE   C3712486   5.603   3.800   6.013  0.2841  0.0474 -0.3445
  118SOPE   H7X12487   5.579   3.908   6.022  1.5765  0.5510 -2.3682
  118SOPE   H7Y12488   5.508   3.744   6.003 -1.1807  2.5680 -1.5107
  118SOPE   C3812489   5.685   3.764   5.888  0.7015  0.1484  0.0343
  118SOPE   H8X12490   5.723   3.660   5.887  1.5465  0.4476 -0.3585
  118SOPE   H8Y12491   5.778   3.823   5.894  0.2986  0.7079  1.0150
  118SOPE   C3912492   5.601   3.806   5.765  0.2537  0.1080 -0.5284
  118SOPE   H9X12493   5.570   3.912   5.776 -0.8181 -0.0793 -1.5246
  118SOPE   H9Y12494   5.506   3.754   5.740  1.7842 -2.3575 -1.6435
  118SOPE  C31012495   5.696   3.802   5.644 -0.0126  0.0420  0.4518
  118SOPE  H10X12496   5.755   3.708   5.657  0.5612  0.7527  3.9945
  118SOPE  H10Y12497   5.776   3.878   5.652 -0.1551  0.1604  0.7913
  118SOPE  C31112498   5.642   3.815   5.505 -0.5031  0.2783  0.8143
  118SOPE  H11X12499   5.583   3.909   5.493  2.8216  2.4589  0.0377
  118SOPE  H11Y12500   5.577   3.732   5.472  1.7175 -1.0423 -0.4905
  118SOPE  C31212501   5.755   3.806   5.399  0.2837 -0.1471 -0.2838
  118SOPE  H12X12502   5.775   3.697   5.394 -0.6087 -0.3383  0.1408
  118SOPE  H12Y12503   5.849   3.862   5.415  0.8300 -0.8720 -0.8840
  118SOPE  C31312504   5.706   3.839   5.252  0.0240 -0.6975 -0.0869
  118SOPE  H13X12505   5.743   3.940   5.225  0.7396 -1.3852 -1.8362
  118SOPE  H13Y12506   5.596   3.829   5.243 -0.2325  1.0088  0.8120
  118SOPE  C31412507   5.774   3.748   5.143  0.2177  0.6984  0.4509
  118SOPE  H14X12508   5.748   3.642   5.159 -0.5511  0.8705  0.3702
  118SOPE  H14Y12509   5.885   3.750   5.154  0.3252  0.4072 -0.5424
  118SOPE  C31512510   5.727   3.780   4.999  0.3535 -0.0136  0.6015
  118SOPE  H15X12511   5.711   3.889   4.988  0.9104 -0.2009 -3.3615
  118SOPE  H15Y12512   5.633   3.724   4.985  0.4048  0.5337 -2.4387
  118SOPE  C31612513   5.824   3.734   4.887 -0.4564 -0.0347 -0.5485
  118SOPE  H16X12514   5.840   3.627   4.916 -0.9753  0.0200 -0.0373
  118SOPE  H16Y12515   5.918   3.794   4.888 -0.8486  0.6520 -2.4129
  118SOPE  C31712516   5.759   3.754   4.750 -0.7001 -0.6482  0.1586
  118SOPE  H17X12517   5.699   3.847   4.750  0.5788  0.2053  0.3969
  118SOPE  H17Y12518   5.681   3.675   4.740 -2.5121  0.6633  2.9431
  118SOPE  C31812519   5.857   3.748   4.629  0.0197  0.0323 -1.0088
  118SOPE  H18X12520   5.909   3.650   4.639  1.3746  0.7740 -0.6270
  118SOPE  H18Y12521   5.939   3.823   4.629  0.4767 -0.4344  0.4922
  118SOPE  H18Z12522   5.809   3.777   4.533  3.0031  1.5625 -2.1557
  119SOPE     N12523   0.576   3.557   6.656 -0.2730  0.0534  0.2567
  119SOPE   HN112524   0.552   3.594   6.561 -1.3212  2.1659  1.2829
  119SOPE   HN212525   0.522   3.618   6.720 -2.0071 -2.3201  1.2304
  119SOPE   HN312526   0.678   3.569   6.674  0.1661 -1.8213 -0.6855
  119SOPE   C1212527   0.529   3.415   6.675 -0.6372 -0.5494  0.0926
  119SOPE  H12A12528   0.538   3.364   6.576  0.2077  0.6224 -0.4598
  119SOPE  H12B12529   0.425   3.424   6.714  0.1826 -0.7610  2.4914
  119SOPE   C1112530   0.636   3.355   6.768  0.6217 -0.5808 -0.7529
  119SOPE  H11A12531   0.658   3.433   6.844  0.2021 -0.8253 -0.3774
  119SOPE  H11B12532   0.733   3.340   6.715  1.3623 -1.5400  0.8078
  119SOPE     P12533   0.692   3.127   6.879 -0.1455  0.2725  0.2591
  119SOPE   O1312534   0.625   3.038   6.979 -0.2898  0.6764  0.2511
  119SOPE   O1412535   0.824   3.181   6.912  0.1455 -0.7535 -0.1998
  119SOPE   O1212536   0.588   3.247   6.840  0.0848  0.2307 -0.0980
  119SOPE   O1112537   0.717   3.041   6.747  0.2700  0.0962  0.4744
  119SOPE    C112538   0.626   3.026   6.636  0.2531 -0.8554  0.1794
  119SOPE    HA12539   0.638   3.106   6.560 -3.8545 -0.9817 -0.8252
  119SOPE    HB12540   0.517   3.027   6.655  0.0378  0.9091 -0.9951
  119SOPE    C212541   0.655   2.892   6.563  0.5642 -0.3047  0.1181
  119SOPE    HS12542   0.650   2.808   6.636  0.2764 -0.3669  0.0256
  119SOPE   O2112543   0.792   2.896   6.506 -0.0187 -0.1120 -0.1257
  119SOPE   C2112544   0.841   2.776   6.481 -0.5900  0.5468 -0.5517
  119SOPE   O2212545   0.787   2.668   6.505  0.7182 -0.2118  0.5191
  119SOPE   C2212546   0.972   2.796   6.404  0.1046  0.3042 -0.5144
  119SOPE   H2R12547   1.022   2.700   6.383 -2.4419 -1.7517  1.9755
  119SOPE   H2S12548   1.038   2.858   6.469  0.7675 -0.8130 -0.1063
  119SOPE    C312549   0.548   2.857   6.449 -0.1291 -0.4532 -0.1773
  119SOPE    HX12550   0.451   2.852   6.503  0.6815 -0.4921  1.3276
  119SOPE    HY12551   0.569   2.757   6.406 -1.5618  0.0090 -2.0736
  119SOPE   O3112552   0.556   2.947   6.331 -0.1221  0.0547 -0.2696
  119SOPE   C3112553   0.461   3.041   6.319  0.0003 -0.1230 -0.9080
  119SOPE   O3212554   0.357   3.049   6.384 -0.6127 -0.6679 -0.5179
  119SOPE   C3212555   0.501   3.151   6.225  0.0554 -0.8869  0.3939
  119SOPE   H2X12556   0.492   3.242   6.287 -0.5350 -2.0596  2.1033
  119SOPE   H2Y12557   0.420   3.152   6.149  0.5441  1.1428 -0.1591
  119SOPE   C2312558   0.933   2.863   6.271 -0.1662 -0.7473 -0.3157
  119SOPE   H3R12559   1.029   2.885   6.221  0.7892 -4.4797 -0.4191
  119SOPE   H3S12560   0.884   2.963   6.278  1.4610  0.0724 -0.2111
  119SOPE   C2412561   0.862   2.768   6.179 -0.2215  0.0907 -0.3522
  119SOPE   H4R12562   0.906   2.666   6.168 -0.7026 -0.1540 -0.0895
  119SOPE   H4S12563   0.753   2.766   6.202  0.0366  3.4603  1.7587
  119SOPE   C2512564   0.860   2.830   6.037  0.0285 -0.1152  1.2058
  119SOPE   H5R12565   0.830   2.937   6.031 -2.1700 -0.6610  1.6996
  119SOPE   H5S12566   0.966   2.812   6.010 -0.8130 -2.3065 -0.9256
  119SOPE   C2612567   0.758   2.765   5.943  0.8822  0.2740  0.3627
  119SOPE   H6R12568   0.805   2.664   5.933  1.3813  0.3852  1.4560
  119SOPE   H6S12569   0.662   2.760   5.998  1.5402 -0.5279  1.4804
  119SOPE   C2712570   0.758   2.845   5.810 -0.4460 -0.4039 -0.1294
  119SOPE   H7R12571   0.736   2.953   5.826 -1.9608 -0.7947  0.6516
  119SOPE   H7S12572   0.864   2.837   5.778  0.0172 -1.1009  1.4747
  119SOPE   C2812573   0.661   2.785   5.707  0.1380  0.3114 -0.7454
  119SOPE   H8R12574   0.705   2.684   5.692 -1.4695  0.0354 -4.9971
  119SOPE   H8S12575   0.562   2.756   5.748  1.4440 -5.4004 -0.7460
  119SOPE   C2912576   0.655   2.857   5.581  0.3712 -0.0424  0.7791
  119SOPE   H9112577   0.603   2.954   5.576  2.2061  1.0018  0.8010
  119SOPE  C21012578   0.728   2.833   5.466 -0.0337  1.0289  0.2927
  119SOPE  H10112579   0.714   2.896   5.378 -2.2753  0.2081 -0.0053
  119SOPE  C21112580   0.828   2.722   5.448 -0.0320  0.2117 -0.1683
  119SOPE  H11R12581   0.813   2.672   5.350 -0.4568 -0.2917  0.1498
  119SOPE  H11S12582   0.806   2.639   5.519  0.3642  0.2480  0.0001
  119SOPE  C21212583   0.976   2.762   5.463 -0.0793 -0.4783 -0.7844
  119SOPE  H12R12584   1.044   2.675   5.465 -0.0296 -0.4775  2.6378
  119SOPE  H12S12585   0.985   2.821   5.557 -1.6259  0.3601 -1.1133
  119SOPE  C21312586   1.042   2.847   5.352 -0.3559  0.4180 -0.0118
  119SOPE  H13R12587   1.148   2.852   5.385 -1.0123  4.2455  2.1624
  119SOPE  H13S12588   0.999   2.949   5.365 -1.1558  0.2222 -1.0126
  119SOPE  C21412589   1.024   2.791   5.208  0.0801 -0.3894  0.2164
  119SOPE  H14R12590   0.917   2.779   5.180  0.8579  0.3231 -3.5802
  119SOPE  H14S12591   1.062   2.689   5.188 -0.8811 -0.5628 -0.8061
  119SOPE  C21512592   1.093   2.875   5.100 -0.1682 -0.1815 -0.2087
  119SOPE  H15R12593   1.087   2.827   5.000  0.1306  1.0846 -0.8485
  119SOPE  H15S12594   1.204   2.882   5.111 -0.0969  0.2788 -1.1466
  119SOPE  C21612595   1.042   3.021   5.094 -0.1670  0.1651 -0.4205
  119SOPE  H16R12596   1.064   3.074   5.189  1.3326 -1.7601  0.3622
  119SOPE  H16S12597   0.933   3.020   5.072 -0.0441  2.4835 -1.4968
  119SOPE  C21712598   1.100   3.107   4.977  0.8113  0.9698 -0.8004
  119SOPE  H17R12599   1.211   3.096   4.981  0.7289  0.0593 -0.6442
  119SOPE  H17S12600   1.083   3.215   4.992  0.2088  0.8284 -0.4634
  119SOPE  C21812601   1.055   3.061   4.833  0.1497  0.3246 -0.3720
  119SOPE  H18R12602   1.047   2.950   4.835  0.2133  0.3157  1.7869
  119SOPE  H18S12603   1.133   3.104   4.768  0.2750 -0.4773 -0.7628
  119SOPE  H18T12604   0.961   3.116   4.809  0.8559  1.8178  0.1666
  119SOPE   C3312605   0.647   3.135   6.182 -0.3126  0.1900 -0.0796
  119SOPE   H3X12606   0.664   3.038   6.130  3.1772  0.3241  0.5730
  119SOPE   H3Y12607   0.713   3.127   6.270 -2.5720 -0.9349  1.6223
  119SOPE   C3412608   0.687   3.243   6.076 -0.0097  0.2828 -0.5419
  119SOPE   H4X12609   0.686   3.343   6.125  0.7486 -1.7317  4.1590
  119SOPE   H4Y12610   0.629   3.256   5.983 -1.4746  2.7908  0.6183
  119SOPE   C3512611   0.825   3.215   6.012 -0.1954  0.5129  0.3512
  119SOPE   H5X12612   0.832   3.121   5.953  0.3404  1.3916 -1.0239
  119SOPE   H5Y12613   0.901   3.193   6.090  1.1642 -0.0107 -1.0760
  119SOPE   C3612614   0.867   3.338   5.925  0.0057 -0.3237  0.8815
  119SOPE   H6X12615   0.941   3.298   5.852 -2.4234 -1.3479 -1.1400
  119SOPE   H6Y12616   0.903   3.423   5.988 -0.7786 -0.1574  1.1061
  119SOPE   C3712617   0.756   3.391   5.833 -0.9956  0.0949 -0.6691
  119SOPE   H7X12618   0.690   3.459   5.890  0.4453 -0.0024  1.2381
  119SOPE   H7Y12619   0.703   3.307   5.785  1.2555  0.6076 -4.5334
  119SOPE   C3812620   0.819   3.476   5.720  0.3602 -0.0078 -0.2040
  119SOPE   H8X12621   0.911   3.516   5.767 -0.4368  0.6441  0.8510
  119SOPE   H8Y12622   0.744   3.556   5.698 -0.4227 -0.4288  0.8528
  119SOPE   C3912623   0.856   3.389   5.598  0.5543 -0.6612 -0.3891
  119SOPE   H9X12624   0.930   3.311   5.627 -0.0094 -1.8968 -2.1124
  119SOPE   H9Y12625   0.898   3.448   5.513 -2.4134  0.3605 -1.2476
  119SOPE  C31012626   0.733   3.333   5.522 -0.3380 -0.2069  0.6644
  119SOPE  H10X12627   0.662   3.414   5.495 -1.1085 -1.0575  0.0610
  119SOPE  H10Y12628   0.681   3.268   5.596  2.9718 -1.4848  2.0668
  119SOPE  C31112629   0.772   3.248   5.395  0.0571 -0.1058 -0.2496
  119SOPE  H11X12630   0.837   3.163   5.425 -1.7382 -1.4295  0.0277
  119SOPE  H11Y12631   0.827   3.313   5.324  0.2303 -2.1020 -2.0284
  119SOPE  C31212632   0.648   3.183   5.327 -0.3667 -0.5718  0.0347
  119SOPE  H12X12633   0.566   3.251   5.297  0.0913 -0.9020 -2.1318
  119SOPE  H12Y12634   0.595   3.120   5.402  1.4735 -0.1837  1.7544
  119SOPE  C31312635   0.686   3.089   5.204  0.9270  0.2610  0.5986
  119SOPE  H13X12636   0.776   3.035   5.241  0.0315 -0.9887  1.0244
  119SOPE  H13Y12637   0.724   3.161   5.128  2.0147 -0.2057  0.6884
  119SOPE  C31412638   0.576   2.998   5.161 -0.6813 -0.0001  0.4130
  119SOPE  H14X12639   0.491   3.058   5.121 -1.1795 -1.2472 -0.4597
  119SOPE  H14Y12640   0.534   2.942   5.247 -3.0619  1.6917  0.4345
  119SOPE  C31512641   0.630   2.891   5.062 -0.6366  0.1745  0.1334
  119SOPE  H15X12642   0.684   2.802   5.101 -2.8805 -2.2432 -1.9135
  119SOPE  H15Y12643   0.687   2.939   4.979 -0.1118  0.7729  0.8304
  119SOPE  C31612644   0.507   2.837   4.991 -0.2714 -0.2895  0.0274
  119SOPE  H16X12645   0.443   2.921   4.957  1.0812  1.6820  2.0921
  119SOPE  H16Y12646   0.449   2.784   5.069  1.8788 -0.1449  1.8369
  119SOPE  C31712647   0.553   2.758   4.864 -0.1627  0.2072  0.1788
  119SOPE  H17X12648   0.607   2.828   4.797  1.0469 -1.8069 -1.0559
  119SOPE  H17Y12649   0.465   2.703   4.824  0.1442 -0.1263 -0.0492
  119SOPE  C31812650   0.658   2.650   4.888  0.2376 -0.5771 -0.4808
  119SOPE  H18X12651   0.756   2.693   4.918  0.3934  1.5225 -3.5932
  119SOPE  H18Y12652   0.676   2.587   4.798  0.7507 -0.4482 -0.4706
  119SOPE  H18Z12653   0.606   2.586   4.963 -1.6475  2.0543  0.6227
  120SOPE     N12654   1.374   0.571   6.880 -0.0412 -0.3691  0.0472
  120SOPE   HN112655   1.375   0.585   6.777 -1.3088  3.9422  0.3919
  120SOPE   HN212656   1.299   0.503   6.901  0.6521 -0.9455  0.7277
  120SOPE   HN312657   1.346   0.660   6.928  1.6887  0.0076  0.4312
  120SOPE   C1212658   1.507   0.536   6.927 -0.3464 -0.1313 -0.1995
  120SOPE  H12A12659   1.510   0.542   7.037  1.7977  0.7678 -0.2480
  120SOPE  H12B12660   1.581   0.603   6.878  0.2150 -0.0152  0.8017
  120SOPE   C1112661   1.541   0.397   6.873  0.1051 -0.2970 -0.1497
  120SOPE  H11A12662   1.649   0.382   6.894 -0.0764 -3.6650 -1.0174
  120SOPE  H11B12663   1.539   0.400   6.762  1.0157 -1.0750 -0.1958
  120SOPE     P12664   1.490   0.152   6.904 -0.1387 -0.3018 -0.6674
  120SOPE   O1312665   1.392   0.075   6.984  0.1705  0.2198  0.1714
  120SOPE   O1412666   1.630   0.130   6.933 -0.6092  0.1683 -0.1178
  120SOPE   O1212667   1.455   0.299   6.932  0.4291  0.2101  0.0619
  120SOPE   O1112668   1.461   0.122   6.757 -0.0540  0.1441  0.3416
  120SOPE    C112669   1.568   0.124   6.659  0.2944  0.4478 -0.4132
  120SOPE    HA12670   1.655   0.187   6.687  0.4903  0.1967 -0.4515
  120SOPE    HB12671   1.532   0.149   6.557  1.4320 -1.2996 -1.2802
  120SOPE    C212672   1.602  -0.030   6.637  1.1487 -0.4675 -0.0351
  120SOPE    HS12673   1.654  -0.069   6.728  1.1017 -1.0847 -0.2698
  120SOPE   O2112674   1.677  -0.060   6.515 -0.0422 -0.0491  0.0854
  120SOPE   C2112675   1.795   0.009   6.503  0.3492 -0.0225  0.5606
  120SOPE   O2212676   1.844   0.084   6.584 -0.0453 -0.2493  0.4111
  120SOPE   C2212677   1.853  -0.033   6.374 -0.4790 -0.5528  0.6690
  120SOPE   H2R12678   1.857   0.051   6.301 -0.6297 -0.2217  1.0377
  120SOPE   H2S12679   1.799  -0.116   6.322 -0.9500 -0.5456  1.1402
  120SOPE    C312680   1.473  -0.118   6.642  0.0957 -0.2339  0.1006
  120SOPE    HX12681   1.444  -0.129   6.748  1.6851  2.4843  0.9159
  120SOPE    HY12682   1.500  -0.221   6.609 -1.6139 -2.5031  4.8693
  120SOPE   O3112683   1.375  -0.060   6.554  0.4785 -0.6122  0.4781
  120SOPE   C3112684   1.268  -0.135   6.539  0.7352  0.4068  0.1772
  120SOPE   O3212685   1.228  -0.211   6.624  0.1949  0.7577  0.3557
  120SOPE   C3212686   1.219  -0.125   6.395  0.2983  0.5451  0.1784
  120SOPE   H2X12687   1.209  -0.226   6.348 -2.0024  1.1703 -0.8178
  120SOPE   H2Y12688   1.295  -0.073   6.334 -0.2199  1.4376  0.2781
  120SOPE   C2312689   2.003  -0.070   6.383 -0.7580  0.4355 -0.3352
  120SOPE   H3R12690   2.003  -0.155   6.453 -1.4670 -0.0114 -0.8665
  120SOPE   H3S12691   2.071   0.004   6.431  1.2472 -1.5626  0.0709
  120SOPE   C2412692   2.053  -0.092   6.243 -0.2545  0.1224  0.0043
  120SOPE   H4R12693   2.008  -0.024   6.168  0.8964  0.2446 -0.6054
  120SOPE   H4S12694   2.161  -0.066   6.245  0.2699 -1.6719 -1.9188
  120SOPE   C2512695   2.040  -0.231   6.187  0.1917  0.3600 -0.4211
  120SOPE   H5R12696   2.101  -0.290   6.259  1.5738  2.2377  0.0232
  120SOPE   H5S12697   1.935  -0.263   6.204  0.5113  0.3392  1.6822
  120SOPE   C2612698   2.062  -0.245   6.040  0.3059  0.2357  0.2474
  120SOPE   H6R12699   1.991  -0.180   5.986 -1.3386 -0.9499  0.9099
  120SOPE   H6S12700   2.164  -0.210   6.014 -0.2166  0.8373 -1.0784
  120SOPE   C2712701   2.048  -0.393   5.985  0.3277 -0.3802 -0.9436
  120SOPE   H7R12702   2.105  -0.463   6.048  2.3797  0.8325 -1.3685
  120SOPE   H7S12703   1.941  -0.416   6.007 -0.6116  3.4093 -0.8640
  120SOPE   C2812704   2.080  -0.415   5.838  0.2541  0.3917 -0.4501
  120SOPE   H8R12705   2.180  -0.369   5.820  1.0666 -0.9210  0.5984
  120SOPE   H8S12706   2.092  -0.525   5.837 -2.6669 -0.0562  1.9397
  120SOPE   C2912707   1.987  -0.359   5.735  0.1553 -0.0565  0.8155
  120SOPE   H9112708   1.941  -0.262   5.758  0.5199 -0.1860  2.1696
  120SOPE  C21012709   1.957  -0.416   5.616 -0.4283  0.3618 -0.3987
  120SOPE  H10112710   1.884  -0.363   5.555  0.3367  1.8024 -0.0997
  120SOPE  C21112711   2.024  -0.539   5.566 -0.2213 -0.0607  0.7504
  120SOPE  H11R12712   1.976  -0.635   5.598  2.1035 -0.9336  1.8487
  120SOPE  H11S12713   2.119  -0.560   5.621 -0.0156 -0.9436  0.0863
  120SOPE  C21212714   2.054  -0.536   5.417 -0.1493  0.4378  0.0656
  120SOPE  H12R12715   2.125  -0.618   5.391 -1.6765 -1.2481  0.9496
  120SOPE  H12S12716   2.105  -0.441   5.394 -1.6206  1.0518 -0.8063
  120SOPE  C21312717   1.927  -0.534   5.326  0.4008 -0.2286  0.8080
  120SOPE  H13R12718   1.884  -0.432   5.338 -0.6110 -0.3755 -1.1360
  120SOPE  H13S12719   1.846  -0.605   5.352 -0.6235  0.2924 -0.8043
  120SOPE  C21412720   1.945  -0.542   5.170  0.0601  0.1465  0.3247
  120SOPE  H14R12721   2.003  -0.632   5.143  1.5802  1.2414 -0.2239
  120SOPE  H14S12722   2.013  -0.458   5.146  3.4173 -2.5980 -0.5423
  120SOPE  C21512723   1.814  -0.540   5.079 -0.2847 -0.6774 -1.6549
  120SOPE  H15R12724   1.846  -0.500   4.980  0.1772  1.8129 -0.5684
  120SOPE  H15S12725   1.754  -0.464   5.132  1.0595 -0.4074 -0.4733
  120SOPE  C21612726   1.739  -0.677   5.084 -0.6274 -0.6592 -0.0627
  120SOPE  H16R12727   1.699  -0.710   5.182  3.0548 -3.4723  0.7094
  120SOPE  H16S12728   1.815  -0.755   5.061  0.6576  0.4161  0.4205
  120SOPE  C21712729   1.627  -0.692   4.979 -0.3439 -0.5036 -0.1436
  120SOPE  H17R12730   1.660  -0.642   4.885 -1.1525 -0.7053 -0.5475
  120SOPE  H17S12731   1.537  -0.638   5.013  1.3085  1.7180  0.9264
  120SOPE  C21812732   1.589  -0.843   4.948  0.9161  0.2996 -0.7368
  120SOPE  H18R12733   1.520  -0.864   4.863 -0.0134 -2.0547  0.5051
  120SOPE  H18S12734   1.546  -0.890   5.039 -1.5288  2.2520 -0.7574
  120SOPE  H18T12735   1.679  -0.899   4.914 -0.7273 -3.0641  0.0298
  120SOPE   C3312736   1.070  -0.079   6.380  0.0379 -0.5067  0.4432
  120SOPE   H3X12737   1.068   0.029   6.404 -2.8302 -0.5638  0.7387
  120SOPE   H3Y12738   0.997  -0.112   6.458 -2.9146  1.9065 -1.1212
  120SOPE   C3412739   1.019  -0.097   6.239  0.3823 -1.1037 -0.1058
  120SOPE   H4X12740   0.930  -0.030   6.237  2.2249  1.4583 -1.4721
  120SOPE   H4Y12741   0.983  -0.202   6.231 -3.1665 -0.2202  1.7522
  120SOPE   C3512742   1.101  -0.055   6.113 -0.2352 -0.0344  0.1874
  120SOPE   H5X12743   1.168  -0.140   6.086  1.1326  0.6499  1.3013
  120SOPE   H5Y12744   1.161   0.038   6.127  1.6309 -1.2621  0.7538
  120SOPE   C3612745   1.007  -0.022   5.997 -0.1982 -0.1717 -0.2219
  120SOPE   H6X12746   0.929   0.049   6.032  0.4784 -0.0135  1.0339
  120SOPE   H6Y12747   0.964  -0.112   5.949  1.5010 -1.1432  0.0279
  120SOPE   C3712748   1.071   0.066   5.885  0.7485 -0.1438 -0.2321
  120SOPE   H7X12749   1.115   0.154   5.937  1.5493 -0.7035  0.0789
  120SOPE   H7Y12750   0.992   0.097   5.814 -0.7146 -0.2893  1.2786
  120SOPE   C3812751   1.180  -0.005   5.811 -0.6099  0.1528 -0.6988
  120SOPE   H8X12752   1.141  -0.102   5.773 -2.2310 -0.1367  1.5472
  120SOPE   H8Y12753   1.249  -0.031   5.894  1.2939  1.6521 -1.7146
  120SOPE   C3912754   1.246   0.079   5.707  0.6283 -0.2741  0.5477
  120SOPE   H9X12755   1.349   0.043   5.689  0.1933 -0.8576 -0.9097
  120SOPE   H9Y12756   1.258   0.183   5.743 -0.7619 -0.1577  0.7330
  120SOPE  C31012757   1.170   0.069   5.573  0.9239 -0.1789 -0.4125
  120SOPE  H10X12758   1.087   0.143   5.579  0.0198 -1.1010 -1.2268
  120SOPE  H10Y12759   1.126  -0.032   5.560 -2.1588  1.2218 -1.9044
  120SOPE  C31112760   1.265   0.099   5.458 -0.0646 -0.2052  0.6577
  120SOPE  H11X12761   1.343   0.020   5.456 -1.1019 -1.2673 -1.7281
  120SOPE  H11Y12762   1.321   0.195   5.462 -0.3779  0.0205 -0.1151
  120SOPE  C31212763   1.197   0.103   5.324 -0.5302  1.2214 -0.1347
  120SOPE  H12X12764   1.120   0.181   5.311  0.1032  1.5997 -2.0027
  120SOPE  H12Y12765   1.157  -0.000   5.313 -0.3737  1.2298 -0.8783
  120SOPE  C31312766   1.296   0.124   5.208  0.4961  0.5900  0.0608
  120SOPE  H13X12767   1.371   0.043   5.212  0.3396  0.4878  1.6117
  120SOPE  H13Y12768   1.351   0.221   5.206  3.0176 -0.7697 -1.0055
  120SOPE  C31412769   1.219   0.111   5.075 -0.1869  0.2303  0.1323
  120SOPE  H14X12770   1.137   0.186   5.071 -0.4066  0.2767  3.1561
  120SOPE  H14Y12771   1.176   0.009   5.083  1.5003 -0.4386  1.3975
  120SOPE  C31512772   1.311   0.111   4.954  1.2895  0.1674 -0.4254
  120SOPE  H15X12773   1.249   0.078   4.867  0.3158  0.0474  0.2980
  120SOPE  H15Y12774   1.391   0.037   4.974  0.7330 -0.2995  0.1205
  120SOPE  C31612775   1.368   0.245   4.919 -0.2021 -0.0572 -0.2845
  120SOPE  H16X12776   1.434   0.228   4.831  0.5880 -0.5302  0.3913
  120SOPE  H16Y12777   1.434   0.285   4.999 -0.7464 -1.2062  0.7684
  120SOPE  C31712778   1.257   0.341   4.879 -0.5393  0.0018  0.2612
  120SOPE  H17X12779   1.198   0.365   4.970 -0.5345  1.2792 -0.0564
  120SOPE  H17Y12780   1.190   0.287   4.808  1.6807 -0.1150 -1.8649
  120SOPE  C31812781   1.309   0.472   4.815 -0.1107  0.0093 -0.7617
  120SOPE  H18X12782   1.234   0.535   4.762  0.4038  0.4827 -0.9336
  120SOPE  H18Y12783   1.395   0.456   4.746 -0.0985  0.6337 -0.8973
  120SOPE  H18Z12784   1.348   0.537   4.896  2.3431 -1.5555 -0.6021
  121SOPE     N12785   0.559   4.467   6.758 -0.1159  0.2344  0.2913
  121SOPE   HN112786   0.484   4.396   6.758 -0.7361  0.8663  1.3975
  121SOPE   HN212787   0.538   4.560   6.717  1.4142  0.6221  0.3191
  121SOPE   HN312788   0.646   4.428   6.717 -0.8754 -2.2655  0.8557
  121SOPE   C1212789   0.577   4.492   6.912  0.3874 -0.4107  0.2905
  121SOPE  H12A12790   0.593   4.397   6.967  1.0826 -0.2870  0.3100
  121SOPE  H12B12791   0.479   4.535   6.943 -0.7383 -2.3254 -0.4666
  121SOPE   C1112792   0.687   4.598   6.941 -0.2156 -0.3989 -0.0897
  121SOPE  H11A12793   0.788   4.564   6.908  0.0554 -0.7855  1.1039
  121SOPE  H11B12794   0.701   4.623   7.048 -0.6989 -0.4856 -0.0041
  121SOPE     P12795   0.747   4.846   6.869  0.0241  0.0813  0.4946
  121SOPE   O1312796   0.791   4.856   7.010 -0.4171  0.3775  0.4407
  121SOPE   O1412797   0.685   4.966   6.808  0.4346 -0.3496 -0.7166
  121SOPE   O1212798   0.654   4.723   6.874  0.8610  0.0672  0.3803
  121SOPE   O1112799   0.867   4.792   6.783 -0.4028  0.0591 -0.0843
  121SOPE    C112800   0.850   4.718   6.661 -0.4769  0.9542  0.6444
  121SOPE    HA12801   0.747   4.678   6.653 -1.1287  2.8142 -0.8601
  121SOPE    HB12802   0.919   4.631   6.662 -1.1079  0.4414  1.7157
  121SOPE    C212803   0.891   4.800   6.542  0.0275  0.5258 -0.2731
  121SOPE    HS12804   0.911   4.737   6.453 -0.0133  0.6011 -0.3350
  121SOPE   O2112805   1.009   4.870   6.566  0.3310 -0.5284 -0.5425
  121SOPE   C2112806   1.119   4.806   6.599  0.0920 -0.2113  0.5318
  121SOPE   O2212807   1.139   4.685   6.584  0.0899 -0.2228  0.0438
  121SOPE   C2212808   1.214   4.901   6.674 -0.3899 -0.4382 -0.3975
  121SOPE   H2R12809   1.275   4.844   6.748 -0.3721 -1.5163 -1.2072
  121SOPE   H2S12810   1.159   4.979   6.729  0.3552 -0.6582  0.7065
  121SOPE    C312811   0.785   4.903   6.500 -0.4686 -0.2363 -0.2116
  121SOPE    HX12812   0.826   5.006   6.508 -2.9291  0.7936 -0.0368
  121SOPE    HY12813   0.698   4.911   6.569 -1.1487 -2.2404 -0.7597
  121SOPE   O3112814   0.737   4.887   6.361 -0.3827  0.1010 -0.4735
  121SOPE   C3112815   0.653   4.795   6.341 -0.4724  0.5349 -0.2268
  121SOPE   O3212816   0.624   4.702   6.418  0.0090  0.1612 -0.3702
  121SOPE   C3212817   0.623   4.790   6.190 -0.4250  0.6198  0.2164
  121SOPE   H2X12818   0.721   4.797   6.139  0.3019  0.5425  1.5481
  121SOPE   H2Y12819   0.565   4.880   6.163  1.2428  1.8427  0.5544
  121SOPE   C2312820   1.304   4.970   6.568  0.1643  0.6790 -0.0256
  121SOPE   H3R12821   1.372   5.041   6.620  2.5293 -1.5667  0.1293
  121SOPE   H3S12822   1.245   5.037   6.502 -0.0260 -0.5052 -1.0929
  121SOPE   C2412823   1.408   4.879   6.507 -0.2144  0.0736 -0.2916
  121SOPE   H4R12824   1.472   4.835   6.586  0.4691 -3.5356 -2.6328
  121SOPE   H4S12825   1.362   4.804   6.440 -1.2366  1.4606 -1.1923
  121SOPE   C2512826   1.510   4.959   6.421 -0.1967  0.6731  0.5260
  121SOPE   H5R12827   1.530   5.056   6.471 -0.7441  0.4128  1.2721
  121SOPE   H5S12828   1.605   4.903   6.410 -1.8945 -2.6967  1.7170
  121SOPE   C2612829   1.461   4.996   6.287 -0.6646  0.2880  0.4574
  121SOPE   H6R12830   1.429   4.907   6.230 -1.3849  0.7417  0.1407
  121SOPE   H6S12831   1.365   5.051   6.299  0.2382  2.0708 -0.2370
  121SOPE   C2712832   1.542   5.099   6.204  0.0482  0.5304  0.5757
  121SOPE   H7R12833   1.583   5.184   6.263 -0.2667  1.7402 -0.8875
  121SOPE   H7S12834   1.629   5.047   6.160 -0.7168 -0.1238 -0.1836
  121SOPE   C2812835   1.470   5.162   6.084  0.0121  0.5885  0.4114
  121SOPE   H8R12836   1.536   5.232   6.029 -1.3778  0.7912 -1.0919
  121SOPE   H8S12837   1.445   5.077   6.018 -0.7809 -0.1762  1.6469
  121SOPE   C2912838   1.342   5.239   6.120 -0.5244  0.4958 -0.4983
  121SOPE   H9112839   1.301   5.243   6.222  1.6954 -1.4973  0.5635
  121SOPE  C21012840   1.272   5.298   6.019  0.1296  0.3580  0.0863
  121SOPE  H10112841   1.180   5.346   6.055  1.1099  0.6947  2.2313
  121SOPE  C21112842   1.300   5.304   5.865  0.9744  0.1022 -0.0328
  121SOPE  H11R12843   1.361   5.214   5.842 -2.0201 -1.9913 -0.3659
  121SOPE  H11S12844   1.350   5.399   5.837 -0.4277  0.4249 -1.6257
  121SOPE  C21212845   1.164   5.275   5.792 -0.1129 -0.5394  0.6094
  121SOPE  H12R12846   1.092   5.354   5.824  1.0406  0.9595 -0.3858
  121SOPE  H12S12847   1.121   5.178   5.825  0.7836 -1.0875  0.1971
  121SOPE  C21312848   1.189   5.274   5.638  0.0255 -0.5347 -0.5704
  121SOPE  H13R12849   1.263   5.194   5.616 -0.0138 -0.5604 -0.6109
  121SOPE  H13S12850   1.241   5.366   5.603  0.8392 -0.1064  1.5922
  121SOPE  C21412851   1.072   5.234   5.554  0.3932 -0.0939  0.5453
  121SOPE  H14R12852   0.978   5.281   5.589 -0.0343 -1.3146  1.1066
  121SOPE  H14S12853   1.068   5.123   5.548  1.6201 -0.1214 -0.1024
  121SOPE  C21512854   1.093   5.288   5.411 -0.1506  0.5212 -0.3344
  121SOPE  H15R12855   1.198   5.257   5.389 -0.1470 -2.4457  2.8876
  121SOPE  H15S12856   1.088   5.399   5.410 -0.3372  0.5903 -4.1944
  121SOPE  C21612857   0.991   5.226   5.316  0.9592 -0.5203  0.3992
  121SOPE  H16R12858   0.887   5.259   5.336 -0.3173 -1.4028 -3.8710
  121SOPE  H16S12859   0.992   5.116   5.327  0.6414 -0.4516  1.1846
  121SOPE  C21712860   1.017   5.254   5.167  0.6366 -0.8576 -0.4280
  121SOPE  H17R12861   0.938   5.197   5.113 -0.2501  1.3261 -1.5352
  121SOPE  H17S12862   1.112   5.201   5.143 -0.4557 -2.4761 -1.3888
  121SOPE  C21812863   1.025   5.399   5.141  0.0411 -0.0343 -0.2044
  121SOPE  H18R12864   0.926   5.443   5.162  0.7357  0.6245  1.9419
  121SOPE  H18S12865   1.046   5.418   5.033 -0.7500 -0.8981 -0.5255
  121SOPE  H18T12866   1.103   5.445   5.204 -1.1336  1.8241 -0.0452
  121SOPE   C3312867   0.557   4.663   6.139 -0.3931  0.1328 -0.6818
  121SOPE   H3X12868   0.455   4.662   6.182 -0.8935  1.9171 -1.7287
  121SOPE   H3Y12869   0.610   4.572   6.174  0.3958  0.0080 -2.1418
  121SOPE   C3412870   0.537   4.654   5.984 -0.7314  0.0340 -0.5354
  121SOPE   H4X12871   0.520   4.547   5.956 -1.3164  0.3978 -1.6246
  121SOPE   H4Y12872   0.634   4.694   5.947 -2.0729  2.2254 -1.8827
  121SOPE   C3512873   0.427   4.745   5.932 -0.2950  0.1724  0.3186
  121SOPE   H5X12874   0.446   4.852   5.956 -0.2840  0.4822 -1.0086
  121SOPE   H5Y12875   0.333   4.713   5.982 -0.0585  1.0279  1.3360
  121SOPE   C3612876   0.403   4.724   5.782  0.3465 -0.4732  0.0719
  121SOPE   H6X12877   0.411   4.617   5.754  0.1597 -0.0310 -1.8141
  121SOPE   H6Y12878   0.486   4.781   5.736 -1.0912  1.8683  0.1880
  121SOPE   C3712879   0.256   4.764   5.751 -0.4187  0.0301  0.3146
  121SOPE   H7X12880   0.241   4.868   5.785  0.8122  0.8985 -1.6266
  121SOPE   H7Y12881   0.184   4.697   5.803 -0.2085  1.4182  2.5097
  121SOPE   C3812882   0.245   4.755   5.596  0.1130 -0.3083  0.8765
  121SOPE   H8X12883   0.138   4.761   5.566  0.3522 -0.7107 -0.0929
  121SOPE   H8Y12884   0.263   4.649   5.569 -2.8563 -0.2329 -2.0013
  121SOPE   C3912885   0.334   4.873   5.539 -0.1503  0.0458 -0.2561
  121SOPE   H9X12886   0.444   4.867   5.546 -0.2838 -2.7519  1.0067
  121SOPE   H9Y12887   0.304   4.964   5.596 -1.2256  0.7412 -1.8544
  121SOPE  C31012888   0.299   4.889   5.395 -1.0007  0.1325 -0.4520
  121SOPE  H10X12889   0.373   4.951   5.339 -1.7944  2.0284  0.5074
  121SOPE  H10Y12890   0.198   4.932   5.378 -0.5581  1.1112 -0.7238
  121SOPE  C31112891   0.315   4.761   5.307 -0.1991  0.2738 -0.1045
  121SOPE  H11X12892   0.245   4.680   5.337 -1.4200  0.7146 -1.5723
  121SOPE  H11Y12893   0.418   4.720   5.311  0.0247  0.7391 -0.8777
  121SOPE  C31212894   0.278   4.785   5.159  0.0244  0.1033 -0.2577
  121SOPE  H12X12895   0.359   4.849   5.117 -0.2610 -0.1882 -1.2666
  121SOPE  H12Y12896   0.176   4.828   5.155  0.3039  0.9332  0.9405
  121SOPE  C31312897   0.269   4.656   5.077  0.2384 -0.3406  0.5896
  121SOPE  H13X12898   0.187   4.602   5.130 -0.7848  1.7967  1.2908
  121SOPE  H13Y12899   0.366   4.602   5.073 -0.6083 -1.8457 -0.3028
  121SOPE  C31412900   0.228   4.667   4.931  0.1105 -0.4475 -0.2217
  121SOPE  H14X12901   0.121   4.699   4.926  0.4741  0.8727 -0.0433
  121SOPE  H14Y12902   0.222   4.570   4.877 -1.8069  0.5691 -1.9959
  121SOPE  C31512903   0.316   4.765   4.839 -0.1806 -0.4193  0.1750
  121SOPE  H15X12904   0.353   4.842   4.910  0.6257  1.4646 -2.1435
  121SOPE  H15Y12905   0.253   4.827   4.771  0.7620  1.5856  1.0600
  121SOPE  C31612906   0.423   4.705   4.754  0.1698  0.0388 -0.0500
  121SOPE  H16X12907   0.384   4.637   4.675  0.6294  1.2195 -1.3344
  121SOPE  H16Y12908   0.494   4.635   4.803 -0.9500 -0.6169  0.6646
  121SOPE  C31712909   0.504   4.803   4.670 -0.6037 -0.5673 -0.2526
  121SOPE  H17X12910   0.594   4.747   4.637  0.9940  2.0201 -0.5776
  121SOPE  H17Y12911   0.532   4.882   4.743 -0.9878  0.0748 -0.7919
  121SOPE  C31812912   0.430   4.853   4.546  0.7785 -0.2073 -0.3567
  121SOPE  H18X12913   0.352   4.927   4.575  1.2079  0.6142 -1.2756
  121SOPE  H18Y12914   0.377   4.768   4.498 -2.0102  0.8771  0.5900
  121SOPE  H18Z12915   0.502   4.890   4.471  1.3078 -1.0588 -0.2900
  122SOPE     N12916   2.317   4.653   6.987  0.2360  0.3393 -0.1533
  122SOPE   HN112917   2.247   4.717   7.029 -0.3051  0.5580 -1.3459
  122SOPE   HN212918   2.329   4.671   6.885  5.5041  1.2681  0.3468
  122SOPE   HN312919   2.288   4.556   7.009  1.6818  0.0308  0.5581
  122SOPE   C1212920   2.461   4.657   7.048 -0.1026 -0.5566  0.4134
  122SOPE  H12A12921   2.510   4.560   7.028  1.4545  0.0877  0.9457
  122SOPE  H12B12922   2.459   4.666   7.159  1.0835  2.0834  0.2923
  122SOPE   C1112923   2.538   4.767   6.985 -0.6672  0.6684  0.3743
  122SOPE  H11A12924   2.546   4.738   6.878  1.0626 -1.8120  1.0758
  122SOPE  H11B12925   2.642   4.762   7.025 -0.3765 -0.8102 -0.4774
  122SOPE     P12926   2.504   5.015   6.916  0.3795  0.3478 -0.2559
  122SOPE   O1312927   2.647   5.062   6.921  0.1994  0.0766 -0.2753
  122SOPE   O1412928   2.401   5.112   6.947  0.2807  0.0489  0.0173
  122SOPE   O1212929   2.478   4.890   7.002  0.1114  0.6948 -0.0033
  122SOPE   O1112930   2.464   4.951   6.769  0.1466 -0.3226  0.0590
  122SOPE    C112931   2.475   5.045   6.657 -0.0945  0.8145 -0.3331
  122SOPE    HA12932   2.574   5.096   6.650 -0.8647  2.1040 -2.8578
  122SOPE    HB12933   2.411   5.135   6.666  1.3920  1.9898 -0.9273
  122SOPE    C212934   2.454   4.975   6.521  0.5888  0.3071  0.1361
  122SOPE    HS12935   2.472   5.058   6.449 -0.2825  0.4615  0.0879
  122SOPE   O2112936   2.320   4.918   6.511 -0.0305 -0.0745  0.3820
  122SOPE   C2112937   2.223   5.011   6.508 -0.4999 -0.3143 -0.1996
  122SOPE   O2212938   2.233   5.131   6.514  0.2047  0.2815 -0.6069
  122SOPE   C2212939   2.090   4.942   6.515  0.1820  0.0183 -0.7814
  122SOPE   H2R12940   2.068   4.900   6.616 -0.2492  1.8052 -0.0906
  122SOPE   H2S12941   2.088   4.856   6.446  0.7940 -0.5191 -0.1446
  122SOPE    C312942   2.556   4.863   6.507  0.2536 -0.2978  0.8041
  122SOPE    HX12943   2.558   4.792   6.592  0.8942 -1.8145 -0.4145
  122SOPE    HY12944   2.657   4.907   6.499  0.4856 -0.9053  0.2465
  122SOPE   O3112945   2.545   4.784   6.389 -0.4788  0.0543  0.3483
  122SOPE   C3112946   2.461   4.681   6.403  0.5852 -0.0618 -0.4942
  122SOPE   O3212947   2.446   4.614   6.502 -0.1931  0.1349  0.3511
  122SOPE   C3212948   2.388   4.649   6.273  0.6609  0.1432  1.0791
  122SOPE   H2X12949   2.409   4.545   6.238 -0.1390 -0.2235  1.6590
  122SOPE   H2Y12950   2.428   4.717   6.195  0.1820 -1.3173 -0.5111
  122SOPE   C2312951   1.973   5.033   6.463 -0.6566 -0.4876 -0.4576
  122SOPE   H3R12952   1.978   5.137   6.502 -0.6688  0.1477 -2.0637
  122SOPE   H3S12953   1.876   4.998   6.506  0.0891 -1.6682  0.3239
  122SOPE   C2412954   1.962   5.049   6.309 -0.8004  0.9553 -0.5534
  122SOPE   H4R12955   1.909   5.146   6.295  0.6541  1.5201 -2.6635
  122SOPE   H4S12956   2.058   5.070   6.257 -0.9687 -0.3595 -1.4371
  122SOPE   C2512957   1.903   4.919   6.251 -0.3023 -0.0850 -0.5877
  122SOPE   H5R12958   1.980   4.842   6.272 -0.1088 -0.2321 -1.7419
  122SOPE   H5S12959   1.808   4.898   6.304 -0.4680  0.8570 -0.4943
  122SOPE   C2612960   1.884   4.931   6.098  0.2657  0.3191  0.0034
  122SOPE   H6R12961   1.824   5.021   6.074 -2.4509 -1.7966 -1.7512
  122SOPE   H6S12962   1.988   4.935   6.058  0.2642  2.5386  0.1332
  122SOPE   C2712963   1.804   4.813   6.037  0.1192 -0.1630  0.8292
  122SOPE   H7R12964   1.855   4.717   6.061  1.8743  1.0398  2.1867
  122SOPE   H7S12965   1.701   4.804   6.080  0.2715 -3.5425  0.7866
  122SOPE   C2812966   1.791   4.834   5.884  0.0955  0.7334 -0.3406
  122SOPE   H8R12967   1.882   4.823   5.821 -0.9175 -2.1062 -1.4311
  122SOPE   H8S12968   1.728   4.748   5.854 -0.3386  0.5589  0.9958
  122SOPE   C2912969   1.717   4.951   5.830 -0.6784  0.4813 -0.1813
  122SOPE   H9112970   1.776   5.044   5.830 -2.6800  1.8544  1.8866
  122SOPE  C21012971   1.595   4.963   5.779  0.8909  0.4725  0.5512
  122SOPE  H10112972   1.555   5.057   5.740 -2.1245 -0.8842  0.0907
  122SOPE  C21112973   1.496   4.844   5.751 -0.2814  0.5919 -0.5285
  122SOPE  H11R12974   1.453   4.816   5.850 -2.3669 -0.4803 -1.6772
  122SOPE  H11S12975   1.553   4.753   5.725  1.8237  1.4206  0.9171
  122SOPE  C21212976   1.382   4.877   5.651 -0.8970  0.1988  0.6072
  122SOPE  H12R12977   1.323   4.958   5.698 -2.5237 -3.1056  4.9782
  122SOPE  H12S12978   1.314   4.789   5.653 -0.6740 -0.0292 -0.6110
  122SOPE  C21312979   1.441   4.904   5.511  0.0773 -0.5481  0.7529
  122SOPE  H13R12980   1.500   4.812   5.491 -1.1160 -1.0637 -0.5108
  122SOPE  H13S12981   1.512   4.989   5.512  1.2797 -1.4627 -1.2029
  122SOPE  C21412982   1.341   4.928   5.391 -0.1921  0.0574 -0.7600
  122SOPE  H14R12983   1.287   5.026   5.394  0.5229  0.4387  1.5134
  122SOPE  H14S12984   1.254   4.862   5.411 -2.0487  1.7320 -2.7491
  122SOPE  C21512985   1.397   4.889   5.254  0.4226  0.0317  0.0213
  122SOPE  H15R12986   1.418   4.780   5.261 -2.3712 -0.6168 -0.4809
  122SOPE  H15S12987   1.497   4.935   5.243  1.0060 -1.4045 -0.8751
  122SOPE  C21612988   1.303   4.931   5.137 -0.3390 -0.4696 -0.7444
  122SOPE  H16R12989   1.304   5.042   5.124 -0.4530 -0.0650  2.1391
  122SOPE  H16S12990   1.198   4.903   5.162 -0.9443  1.8846 -0.4163
  122SOPE  C21712991   1.335   4.869   4.999  0.1500 -0.2621  0.3736
  122SOPE  H17R12992   1.276   4.923   4.922  1.0885 -0.9646 -0.8827
  122SOPE  H17S12993   1.292   4.767   5.007  0.6365 -0.5239 -0.2510
  122SOPE  C21812994   1.485   4.875   4.969 -0.2656  0.5797  0.3230
  122SOPE  H18R12995   1.511   4.983   4.972  1.0941  0.2524  0.9697
  122SOPE  H18S12996   1.504   4.837   4.866  1.2187 -1.7896  1.3974
  122SOPE  H18T12997   1.552   4.819   5.037 -0.0347  2.2949  1.5715
  122SOPE   C3312998   2.232   4.671   6.278  0.2503 -0.2401  1.1967
  122SOPE   H3X12999   2.216   4.780   6.289  0.3913 -0.2929  1.9936
  122SOPE   H3Y13000   2.202   4.632   6.378  0.7267  2.8522  2.6706
  122SOPE   C3413001   2.161   4.596   6.161 -0.3924  0.0387 -0.2255
  122SOPE   H4X13002   2.052   4.611   6.177 -0.8127 -0.6619 -2.1356
  122SOPE   H4Y13003   2.183   4.487   6.168  2.4158  0.5556  0.1538
  122SOPE   C3513004   2.211   4.658   6.032 -0.4154  0.2598 -0.1517
  122SOPE   H5X13005   2.317   4.626   6.023 -0.8437 -1.3170  0.0670
  122SOPE   H5Y13006   2.197   4.768   6.024 -2.0652  0.1777  1.1905
  122SOPE   C3613007   2.132   4.604   5.908 -0.2114 -0.1667 -0.8343
  122SOPE   H6X13008   2.029   4.646   5.906  0.6617  2.4411  1.7269
  122SOPE   H6Y13009   2.127   4.493   5.907  1.0519 -0.3140  1.7602
  122SOPE   C3713010   2.203   4.646   5.778 -0.7342  0.1817 -0.5634
  122SOPE   H7X13011   2.309   4.617   5.795 -0.7897  0.3386  0.0551
  122SOPE   H7Y13012   2.204   4.757   5.775  0.9898  0.3117  2.0464
  122SOPE   C3813013   2.148   4.586   5.652  0.0361 -0.1647  0.0762
  122SOPE   H8X13014   2.041   4.613   5.643  0.3550  1.1335  0.0744
  122SOPE   H8Y13015   2.150   4.475   5.655  0.8651 -0.2116 -1.2335
  122SOPE   C3913016   2.227   4.629   5.528  0.3607  0.5480  0.7864
  122SOPE   H9X13017   2.332   4.592   5.530 -0.4063 -1.8802  0.3442
  122SOPE   H9Y13018   2.226   4.740   5.532 -1.5937  0.6465 -0.7797
  122SOPE  C31013019   2.155   4.566   5.408  0.3491  0.0772  0.1022
  122SOPE  H10X13020   2.062   4.625   5.389 -1.9729 -2.9011  1.3844
  122SOPE  H10Y13021   2.118   4.462   5.423 -1.6517  0.4891 -1.4616
  122SOPE  C31113022   2.244   4.552   5.284 -0.0137 -0.0912 -0.1610
  122SOPE  H11X13023   2.323   4.478   5.308  0.5746  0.0128 -1.6612
  122SOPE  H11Y13024   2.297   4.648   5.267 -0.7140  0.4930  0.8555
  122SOPE  C31213025   2.175   4.498   5.159  0.0658 -0.9927 -0.0613
  122SOPE  H12X13026   2.088   4.557   5.124 -1.4845 -1.7009  2.3547
  122SOPE  H12Y13027   2.148   4.390   5.171 -4.4303 -0.1482 -0.6126
  122SOPE  C31313028   2.282   4.520   5.052 -0.2084 -0.2507  0.6402
  122SOPE  H13X13029   2.378   4.473   5.082  0.8784  1.1545 -0.5119
  122SOPE  H13Y13030   2.302   4.627   5.030  2.1785 -0.5407  1.0888
  122SOPE  C31413031   2.251   4.454   4.910 -1.1968 -0.0917  0.2077
  122SOPE  H14X13032   2.345   4.483   4.859 -1.3329 -1.6648 -1.0195
  122SOPE  H14Y13033   2.166   4.511   4.867  0.2763  0.6683 -1.8475
  122SOPE  C31513034   2.229   4.302   4.909  0.3862  0.0077  0.1671
  122SOPE  H15X13035   2.136   4.279   4.965 -0.8274  1.0807 -1.3268
  122SOPE  H15Y13036   2.311   4.255   4.967  1.0677  0.4729 -0.4111
  122SOPE  C31613037   2.219   4.240   4.766  0.0605 -0.1543  0.4392
  122SOPE  H16X13038   2.186   4.138   4.795  3.1683 -0.7469  2.3209
  122SOPE  H16Y13039   2.320   4.238   4.722 -0.4101  0.1050 -0.6807
  122SOPE  C31713040   2.123   4.311   4.671  0.1310 -0.4417 -0.2406
  122SOPE  H17X13041   2.113   4.249   4.579 -0.3787  0.9881 -1.1917
  122SOPE  H17Y13042   2.176   4.406   4.650 -0.4526 -0.3869 -1.6241
  122SOPE  C31813043   1.983   4.338   4.719 -1.2007 -0.0521  0.2930
  122SOPE  H18X13044   1.921   4.247   4.730 -0.4076 -0.4266  1.9951
  122SOPE  H18Y13045   1.929   4.409   4.653 -1.4926 -0.5021  0.0428
  122SOPE  H18Z13046   1.982   4.373   4.825  0.5797 -1.3597  0.7964
  123SOPE     N13047   3.232   4.593   2.677  0.5880 -0.3374 -0.5402
  123SOPE   HN113048   3.192   4.676   2.630  0.7426  0.8116  1.2974
  123SOPE   HN213049   3.171   4.509   2.670 -1.7540  1.0408  1.6654
  123SOPE   HN313050   3.235   4.607   2.780  0.8290  2.7651 -0.8899
  123SOPE   C1213051   3.363   4.575   2.619 -0.3650  0.6824  0.1702
  123SOPE  H12A13052   3.367   4.609   2.513  0.4862 -1.9336 -0.7280
  123SOPE  H12B13053   3.388   4.468   2.633 -0.0136  0.8720  1.0373
  123SOPE   C1113054   3.459   4.668   2.702  0.0169 -0.1972 -0.2592
  123SOPE  H11A13055   3.557   4.623   2.672 -0.3058 -0.1187 -1.5180
  123SOPE  H11B13056   3.442   4.653   2.810  0.1658  1.3608  0.0090
  123SOPE     P13057   3.445   4.931   2.758 -0.3733  0.0330  0.3184
  123SOPE   O1313058   3.333   4.915   2.855  0.3713 -0.2584  0.1902
  123SOPE   O1413059   3.442   5.043   2.658  0.2884  0.1961 -0.4540
  123SOPE   O1213060   3.458   4.805   2.670  0.2739 -0.1970 -0.1401
  123SOPE   O1113061   3.586   4.944   2.840  0.0967  0.5991 -0.8624
  123SOPE    C113062   3.714   4.915   2.790  0.5937 -0.3763  0.6514
  123SOPE    HA13063   3.745   5.004   2.731  1.6277  0.1073  1.8840
  123SOPE    HB13064   3.708   4.829   2.719 -1.2485  1.1460 -1.1895
  123SOPE    C213065   3.827   4.895   2.901 -0.3772  0.2088 -0.2047
  123SOPE    HS13066   3.883   4.804   2.873 -1.4153 -0.7695  0.7407
  123SOPE   O2113067   3.769   4.859   3.025 -0.3536 -0.5058  0.0788
  123SOPE   C2113068   3.716   4.727   3.032 -0.4311 -0.0374 -0.5233
  123SOPE   O2213069   3.713   4.648   2.942  0.2686  0.3972 -0.8343
  123SOPE   C2213070   3.648   4.702   3.171  0.3353 -0.1666 -0.0796
  123SOPE   H2R13071   3.554   4.754   3.145  0.1080 -0.9812 -0.9539
  123SOPE   H2S13072   3.706   4.756   3.249 -0.2067 -0.8134  0.7899
  123SOPE    C313073   3.931   5.007   2.917  0.7244 -0.1838  0.0681
  123SOPE    HX13074   3.887   5.104   2.950  1.6554  0.2234  0.1294
  123SOPE    HY13075   3.981   5.027   2.821  0.5319 -2.1669 -0.4983
  123SOPE   O3113076   4.025   4.971   3.023  0.1343  0.1205  0.1446
  123SOPE   C3113077   4.110   4.877   2.994 -0.3776 -0.4198 -0.0658
  123SOPE   O3213078   4.131   4.824   2.886  0.1985  0.1517  0.7247
  123SOPE   C3213079   4.179   4.828   3.123 -0.5559 -0.2072  0.0839
  123SOPE   H2X13080   4.198   4.918   3.185  0.8478 -0.0927 -0.4764
  123SOPE   H2Y13081   4.276   4.783   3.093  0.2372  0.9491  0.8250
  123SOPE   C2313082   3.635   4.554   3.213  0.2542  0.2772 -0.3442
  123SOPE   H3R13083   3.729   4.526   3.266  0.8885  2.8651  0.0420
  123SOPE   H3S13084   3.634   4.485   3.126 -1.3325 -0.4066  0.1835
  123SOPE   C2413085   3.513   4.508   3.302 -0.1391 -0.2631 -0.2539
  123SOPE   H4R13086   3.422   4.555   3.259 -0.1085 -0.1508 -0.1962
  123SOPE   H4S13087   3.527   4.398   3.301 -0.6069 -0.4329  2.8782
  123SOPE   C2513088   3.505   4.569   3.442  0.0922  0.4868 -0.2602
  123SOPE   H5R13089   3.597   4.546   3.499 -0.7710  0.7263  1.2835
  123SOPE   H5S13090   3.507   4.681   3.442  1.0770  0.4817  0.7384
  123SOPE   C2613091   3.366   4.537   3.508 -0.0619  0.5356 -0.2887
  123SOPE   H6R13092   3.285   4.562   3.437 -0.8847  3.0768  1.3835
  123SOPE   H6S13093   3.353   4.428   3.528 -0.5887  0.3030 -1.8266
  123SOPE   C2713094   3.338   4.612   3.640  0.1627 -0.7050 -0.9406
  123SOPE   H7R13095   3.419   4.622   3.715 -0.4074 -1.4649 -0.2064
  123SOPE   H7S13096   3.318   4.715   3.604 -0.6286 -0.7168 -0.5490
  123SOPE   C2813097   3.209   4.565   3.706 -0.1882 -0.5726 -0.5009
  123SOPE   H8R13098   3.177   4.649   3.770  0.0880 -1.8979  1.4437
  123SOPE   H8S13099   3.128   4.557   3.630 -1.3341 -4.1956  0.9117
  123SOPE   C2913100   3.195   4.434   3.770  0.1729  0.4745  0.0197
  123SOPE   H9113101   3.271   4.361   3.737 -0.0860  0.2643 -0.1137
  123SOPE  C21013102   3.107   4.400   3.865 -0.1446  0.2958 -0.2082
  123SOPE  H10113103   3.117   4.302   3.915  0.3343  0.8209  0.7414
  123SOPE  C21113104   3.019   4.501   3.933 -0.2694  0.4338  0.1902
  123SOPE  H11R13105   2.909   4.489   3.926 -0.2438  0.8747 -1.2957
  123SOPE  H11S13106   3.028   4.597   3.877  0.1328  0.2625 -0.0396
  123SOPE  C21213107   3.060   4.537   4.079 -0.2965  0.4618  0.0651
  123SOPE  H12R13108   3.006   4.626   4.116  0.9666  1.0262  0.6034
  123SOPE  H12S13109   3.169   4.556   4.068 -0.0037 -1.5228 -0.9315
  123SOPE  C21313110   3.050   4.419   4.178  0.4221  0.7426 -0.1311
  123SOPE  H13R13111   3.072   4.319   4.136 -1.2466 -1.4606  3.7152
  123SOPE  H13S13112   2.945   4.426   4.214  0.7881  1.3443  0.8886
  123SOPE  C21413113   3.138   4.430   4.303 -0.5520 -0.7552  0.1445
  123SOPE  H14R13114   3.117   4.524   4.357  4.1654  1.5073 -1.3785
  123SOPE  H14S13115   3.241   4.459   4.274 -0.3730  1.2863  2.4595
  123SOPE  C21513116   3.128   4.315   4.401 -0.8509  0.1381  0.2978
  123SOPE  H15R13117   3.147   4.219   4.349 -0.9528 -0.9824  2.2324
  123SOPE  H15S13118   3.025   4.308   4.441 -1.0006 -0.4444 -0.1662
  123SOPE  C21613119   3.230   4.312   4.515 -0.5191 -0.2720 -0.5145
  123SOPE  H16R13120   3.328   4.310   4.463 -0.2313  2.4470 -0.2272
  123SOPE  H16S13121   3.214   4.212   4.560  0.6606 -0.1488  0.2255
  123SOPE  C21713122   3.226   4.422   4.618  0.0331 -0.2720 -0.0421
  123SOPE  H17R13123   3.222   4.517   4.560 -0.5572  0.8014  1.6977
  123SOPE  H17S13124   3.321   4.435   4.674  0.7988 -1.3638 -1.0241
  123SOPE  C21813125   3.106   4.421   4.716  0.0871  0.0034 -0.5031
  123SOPE  H18R13126   3.013   4.420   4.655  0.7126  0.7620 -1.5093
  123SOPE  H18S13127   3.122   4.502   4.790 -0.0684  1.6462 -2.1774
  123SOPE  H18T13128   3.103   4.331   4.780  1.0504 -0.3544 -0.9361
  123SOPE   C3313129   4.092   4.733   3.212  0.3334 -0.0771 -0.4056
  123SOPE   H3X13130   4.046   4.660   3.142  2.2883 -0.3826 -1.4657
  123SOPE   H3Y13131   4.015   4.798   3.259  1.1608 -0.7002  1.9689
  123SOPE   C3413132   4.159   4.660   3.325  0.1139 -0.1305  0.2729
  123SOPE   H4X13133   4.194   4.725   3.408  0.1716 -2.3765  2.1098
  123SOPE   H4Y13134   4.236   4.592   3.283  0.8295  1.3306 -0.8274
  123SOPE   C3513135   4.057   4.584   3.408 -0.3418 -0.1308  0.0531
  123SOPE   H5X13136   3.997   4.510   3.351  0.3560  0.4999 -1.5561
  123SOPE   H5Y13137   3.984   4.658   3.446  0.0270 -0.3045  1.1224
  123SOPE   C3613138   4.113   4.514   3.530  0.4506  0.4969 -0.6074
  123SOPE   H6X13139   4.150   4.591   3.602 -1.5448  1.0257 -0.0842
  123SOPE   H6Y13140   4.192   4.444   3.495  0.7517  1.1700 -1.2864
  123SOPE   C3713141   4.007   4.426   3.590 -0.2662  0.0196 -0.3474
  123SOPE   H7X13142   3.985   4.354   3.508  2.2090 -1.2386 -0.0161
  123SOPE   H7Y13143   3.918   4.487   3.617  1.7378  2.7982  0.3477
  123SOPE   C3813144   4.048   4.364   3.721 -0.8554  0.4142  0.5494
  123SOPE   H8X13145   4.151   4.324   3.705 -0.7732  0.6823  0.4070
  123SOPE   H8Y13146   3.982   4.278   3.746  0.7109 -0.3977  2.0906
  123SOPE   C3913147   4.048   4.452   3.848  0.8923  0.0496  0.4874
  123SOPE   H9X13148   3.951   4.501   3.873  1.4359  0.9731  0.8429
  123SOPE   H9Y13149   4.118   4.538   3.841 -0.8726  1.5216  0.0687
  123SOPE  C31013150   4.087   4.366   3.972  0.0780  0.2553 -0.2012
  123SOPE  H10X13151   4.185   4.315   3.958 -0.2784  0.0893 -2.7152
  123SOPE  H10Y13152   4.013   4.286   3.991  0.3006  0.3691  1.2645
  123SOPE  C31113153   4.084   4.449   4.100 -0.2586 -0.0600  0.3983
  123SOPE  H11X13154   3.993   4.513   4.099  0.5177  1.1005 -1.1138
  123SOPE  H11Y13155   4.175   4.511   4.107  0.6076 -1.4348  1.7495
  123SOPE  C31213156   4.101   4.365   4.236  0.8699 -0.3013 -0.3761
  123SOPE  H12X13157   4.007   4.307   4.253  1.4407 -1.3245 -0.6412
  123SOPE  H12Y13158   4.103   4.440   4.317  1.6223  3.0698 -3.2935
  123SOPE  C31313159   4.223   4.280   4.235  0.1176 -0.2505 -0.6479
  123SOPE  H13X13160   4.308   4.344   4.201  0.6778  0.1633  1.3913
  123SOPE  H13Y13161   4.211   4.198   4.161 -1.0339 -0.1497 -0.5896
  123SOPE  C31413162   4.258   4.220   4.373  0.4931 -0.4018 -0.4880
  123SOPE  H14X13163   4.318   4.129   4.352  2.2533  1.0305 -1.9903
  123SOPE  H14Y13164   4.169   4.180   4.426  0.2157  0.0821 -0.5783
  123SOPE  C31513165   4.337   4.316   4.455 -0.7344  0.3800  0.1499
  123SOPE  H15X13166   4.267   4.390   4.498 -0.8621  0.0182  0.5694
  123SOPE  H15Y13167   4.413   4.362   4.388 -1.9766  1.9702 -0.2409
  123SOPE  C31613168   4.405   4.259   4.576  0.3179 -0.0653 -0.6282
  123SOPE  H16X13169   4.438   4.348   4.634 -0.9093  0.2660 -0.4110
  123SOPE  H16Y13170   4.490   4.192   4.550  1.5395  0.1260  2.3825
  123SOPE  C31713171   4.309   4.181   4.668 -0.0283  0.1033 -0.1039
  123SOPE  H17X13172   4.279   4.090   4.611  0.5769  1.4751 -2.7460
  123SOPE  H17Y13173   4.217   4.243   4.670 -1.4917 -1.9608  1.2893
  123SOPE  C31813174   4.355   4.141   4.809 -0.0847 -0.2289  0.2025
  123SOPE  H18X13175   4.372   4.237   4.862  0.4075  0.2414 -0.7836
  123SOPE  H18Y13176   4.446   4.078   4.797  0.6641  0.8728 -0.0844
  123SOPE  H18Z13177   4.278   4.083   4.863 -2.0806  1.9993 -0.1123
  124SOPE     N13178   6.031   5.627   2.417  0.5233  0.0060  0.0251
  124SOPE   HN113179   6.125   5.661   2.445  0.2357  2.3456 -1.6118
  124SOPE   HN213180   6.023   5.585   2.322 -0.3748  1.5260 -0.6000
  124SOPE   HN313181   5.968   5.708   2.402  1.5920  0.9539  0.5102
  124SOPE   C1213182   5.975   5.545   2.533  0.3521  0.3354  0.2083
  124SOPE  H12A13183   6.063   5.516   2.596  1.2814 -0.6944 -1.4915
  124SOPE  H12B13184   5.941   5.450   2.487  0.5942  0.0712  0.5635
  124SOPE   C1113185   5.863   5.623   2.607 -0.5950  1.1978  0.5063
  124SOPE  H11A13186   5.908   5.721   2.632  1.3711  0.2672  0.8816
  124SOPE  H11B13187   5.835   5.570   2.700 -0.8690  0.5173  0.0461
  124SOPE     P13188   5.640   5.545   2.507 -0.2218 -0.1360 -0.3531
  124SOPE   O1313189   5.683   5.414   2.464 -0.3768  0.0096  0.8704
  124SOPE   O1413190   5.535   5.604   2.423  0.2825 -0.0542 -0.2673
  124SOPE   O1213191   5.761   5.641   2.513  0.4680 -0.5021  0.0471
  124SOPE   O1113192   5.591   5.535   2.652  0.2605  0.5184 -0.1220
  124SOPE    C113193   5.545   5.655   2.724 -0.5064  0.3771 -0.3857
  124SOPE    HA13194   5.518   5.738   2.655 -1.4790 -0.7456 -1.4073
  124SOPE    HB13195   5.637   5.695   2.772  0.9487 -0.6733 -2.1381
  124SOPE    C213196   5.430   5.639   2.825 -0.3369 -0.3613  0.1802
  124SOPE    HS13197   5.378   5.736   2.837  0.1649 -0.0066 -0.4419
  124SOPE   O2113198   5.478   5.583   2.952  0.7248  0.0692 -0.1714
  124SOPE   C2113199   5.424   5.646   3.060  0.1784  0.3820 -0.1659
  124SOPE   O2213200   5.345   5.734   3.051 -0.0420 -0.0761 -0.4923
  124SOPE   C2213201   5.474   5.605   3.204  0.0704  0.1504 -0.4192
  124SOPE   H2R13202   5.579   5.571   3.194  0.1593  0.8922 -2.6995
  124SOPE   H2S13203   5.404   5.519   3.212 -1.7939  1.7199  1.1570
  124SOPE    C313204   5.321   5.536   2.774  0.3172 -0.0171 -0.0097
  124SOPE    HX13205   5.356   5.430   2.772 -2.0341 -0.8498 -0.3694
  124SOPE    HY13206   5.315   5.546   2.664  0.7743  1.0210  0.0555
  124SOPE   O3113207   5.193   5.567   2.839  0.0001 -0.0574  0.4622
  124SOPE   C3113208   5.168   5.495   2.943 -0.5872  0.3372  0.1634
  124SOPE   O3213209   5.227   5.394   2.982  0.7956 -0.7390 -0.0178
  124SOPE   C3213210   5.060   5.569   3.021  0.1911  0.6948  0.3386
  124SOPE   H2X13211   4.973   5.576   2.952  1.7299 -1.5155 -1.9532
  124SOPE   H2Y13212   5.093   5.673   3.044 -0.0735  1.2811 -1.7453
  124SOPE   C2313213   5.443   5.704   3.311 -0.4756 -0.0402 -0.1696
  124SOPE   H3R13214   5.357   5.773   3.298 -0.3123  0.0433 -0.8230
  124SOPE   H3S13215   5.527   5.776   3.326  1.4094 -1.6179 -2.5443
  124SOPE   C2413216   5.415   5.646   3.450  0.0997 -1.1264  0.2924
  124SOPE   H4R13217   5.313   5.602   3.455  0.3996 -1.7518  1.2625
  124SOPE   H4S13218   5.486   5.564   3.474 -0.2292 -1.4244  0.2577
  124SOPE   C2513219   5.448   5.755   3.556  0.5295  0.2582 -0.2996
  124SOPE   H5R13220   5.558   5.748   3.566  0.5941 -2.2424 -1.9372
  124SOPE   H5S13221   5.410   5.855   3.524  1.7528  2.3003  3.9773
  124SOPE   C2613222   5.382   5.715   3.697  0.2713 -0.1693  0.7625
  124SOPE   H6R13223   5.345   5.810   3.742 -1.7371 -0.5391 -0.0002
  124SOPE   H6S13224   5.294   5.650   3.678  1.2223 -0.9259 -1.3230
  124SOPE   C2713225   5.485   5.633   3.774  0.3325  0.3867  0.6559
  124SOPE   H7R13226   5.480   5.526   3.742  1.7757  1.2703 -2.9822
  124SOPE   H7S13227   5.589   5.648   3.740 -0.0075 -0.3550 -0.7975
  124SOPE   C2813228   5.464   5.649   3.930  0.2580 -0.3288  0.5998
  124SOPE   H8R13229   5.362   5.622   3.963  0.6036 -1.4219  0.8312
  124SOPE   H8S13230   5.520   5.566   3.979 -0.9101 -1.1198  0.6469
  124SOPE   C2913231   5.520   5.781   3.984 -0.2962  0.1397 -0.3359
  124SOPE   H9113232   5.463   5.871   3.954  2.0585  1.8114 -0.1073
  124SOPE  C21013233   5.632   5.796   4.065 -0.0989 -0.4537  1.2658
  124SOPE  H10113234   5.667   5.893   4.101  1.0446 -1.6767  3.7104
  124SOPE  C21113235   5.715   5.688   4.124 -0.3154 -0.4489 -0.1534
  124SOPE  H11R13236   5.807   5.676   4.064 -1.9213  0.9263 -3.0827
  124SOPE  H11S13237   5.661   5.591   4.128 -0.4600 -0.3438  2.5127
  124SOPE  C21213238   5.758   5.719   4.269  0.3199 -0.0711 -0.0891
  124SOPE  H12R13239   5.663   5.728   4.326  0.3108  1.3750 -0.3023
  124SOPE  H12S13240   5.820   5.811   4.267 -0.0165  0.1672  0.2679
  124SOPE  C21313241   5.834   5.596   4.328 -0.9169 -0.3836  0.1064
  124SOPE  H13R13242   5.932   5.578   4.280 -0.6319  1.0414  0.1101
  124SOPE  H13S13243   5.770   5.506   4.321  0.4179 -1.5384  1.8070
  124SOPE  C21413244   5.876   5.615   4.475 -0.6087 -0.3608  0.3831
  124SOPE  H14R13245   5.911   5.515   4.510  1.6343  0.4162  0.4868
  124SOPE  H14S13246   5.792   5.647   4.541 -0.7820 -0.7972  0.3840
  124SOPE  C21513247   5.990   5.713   4.508  0.2211  0.2961 -0.0128
  124SOPE  H15R13248   5.960   5.819   4.490  1.8281  0.8934  0.6626
  124SOPE  H15S13249   6.081   5.696   4.447  0.5623  1.0649  0.2706
  124SOPE  C21613250   6.034   5.705   4.654 -0.6311  0.0795  0.4896
  124SOPE  H16R13251   6.133   5.755   4.657 -0.9567  0.7073  1.5714
  124SOPE  H16S13252   6.036   5.600   4.691 -0.8746 -0.7267 -1.6306
  124SOPE  C21713253   5.937   5.792   4.742 -0.0799 -0.3259  0.2078
  124SOPE  H17R13254   5.837   5.745   4.731  0.5035 -1.5644  0.0558
  124SOPE  H17S13255   5.942   5.898   4.707  0.3582 -0.4764 -0.1963
  124SOPE  C21813256   5.977   5.801   4.893  0.2801 -0.0139 -0.8925
  124SOPE  H18R13257   6.087   5.798   4.908 -0.0548 -0.6013  2.0600
  124SOPE  H18S13258   5.931   5.726   4.961  1.1930  0.0363 -0.1906
  124SOPE  H18T13259   5.952   5.905   4.921  1.8377 -0.1470  1.3184
  124SOPE   C3313260   4.995   5.496   3.142  0.0190  0.4561  0.0773
  124SOPE   H3X13261   4.956   5.578   3.205  1.1521 -1.0140  2.8724
  124SOPE   H3Y13262   5.065   5.443   3.211 -0.3765  2.6980  2.3462
  124SOPE   C3413263   4.889   5.388   3.104 -0.7121 -0.1514 -0.7932
  124SOPE   H4X13264   4.935   5.293   3.070  1.1954  0.8050 -1.0626
  124SOPE   H4Y13265   4.822   5.426   3.024  1.9367  1.9551 -2.1638
  124SOPE   C3513266   4.816   5.336   3.222  0.6398  0.0520 -0.5018
  124SOPE   H5X13267   4.872   5.272   3.293 -0.0467  1.1299  1.0764
  124SOPE   H5Y13268   4.733   5.275   3.181  0.2516  1.3672 -1.7579
  124SOPE   C3613269   4.756   5.451   3.315  0.3524 -0.0774 -0.2920
  124SOPE   H6X13270   4.685   5.511   3.255 -2.0904 -0.6630  1.8410
  124SOPE   H6Y13271   4.841   5.513   3.351  0.9249 -1.3356  0.6236
  124SOPE   C3713272   4.668   5.399   3.433  0.7122  0.1200  0.2336
  124SOPE   H7X13273   4.724   5.334   3.504 -0.5013 -0.5979  0.5749
  124SOPE   H7Y13274   4.593   5.330   3.388  1.0975  0.4916 -1.0251
  124SOPE   C3813275   4.588   5.509   3.498 -0.9740 -0.0741 -0.2542
  124SOPE   H8X13276   4.479   5.502   3.474 -1.0434 -3.5719  0.5388
  124SOPE   H8Y13277   4.629   5.601   3.450 -0.4259  0.2418  0.7865
  124SOPE   C3913278   4.610   5.520   3.653  0.4051  0.4139  0.4541
  124SOPE   H9X13279   4.719   5.508   3.671  0.8173  2.4468 -0.3817
  124SOPE   H9Y13280   4.562   5.437   3.708 -1.2370  2.6179  2.5543
  124SOPE  C31013281   4.555   5.656   3.698  0.8102 -0.4996 -0.3186
  124SOPE  H10X13282   4.448   5.644   3.671  0.4813 -1.2541  1.1972
  124SOPE  H10Y13283   4.605   5.740   3.647 -0.7368  0.8668  0.3277
  124SOPE  C31113284   4.549   5.673   3.850  0.0750 -0.3873 -0.6101
  124SOPE  H11X13285   4.471   5.605   3.890  0.3835  0.0588  0.8209
  124SOPE  H11Y13286   4.502   5.770   3.878  0.7092 -0.3447  0.3359
  124SOPE  C31213287   4.683   5.659   3.931 -0.2815  1.0118  0.1992
  124SOPE  H12X13288   4.742   5.753   3.935 -0.5043  1.1086  3.6726
  124SOPE  H12Y13289   4.749   5.576   3.898  0.5832  1.4415  0.8076
  124SOPE  C31313290   4.651   5.634   4.071 -0.0423  0.8617 -0.2732
  124SOPE  H13X13291   4.614   5.531   4.093  4.2404 -1.0320 -0.9928
  124SOPE  H13Y13292   4.582   5.707   4.119  0.9048  1.8448 -0.3781
  124SOPE  C31413293   4.776   5.640   4.173  1.2685 -0.1275  1.1492
  124SOPE  H14X13294   4.797   5.748   4.192  1.3677  0.1298 -0.3395
  124SOPE  H14Y13295   4.865   5.586   4.135 -0.2124 -1.2739 -0.8653
  124SOPE  C31513296   4.719   5.583   4.302  0.7178  0.1249 -0.5587
  124SOPE  H15X13297   4.697   5.475   4.289 -2.3372  0.7352 -1.0403
  124SOPE  H15Y13298   4.632   5.645   4.330  1.1811 -0.4620  2.5543
  124SOPE  C31613299   4.820   5.569   4.420  0.0673 -0.3245  0.5888
  124SOPE  H16X13300   4.778   5.530   4.515 -0.0041 -0.4310  0.5140
  124SOPE  H16Y13301   4.864   5.669   4.441  0.9404 -0.4502 -0.5309
  124SOPE  C31713302   4.926   5.460   4.395  0.1552 -0.2276 -0.6627
  124SOPE  H17X13303   4.981   5.472   4.299 -0.1386 -1.1843 -0.9636
  124SOPE  H17Y13304   4.872   5.368   4.366 -1.0349  0.3609 -0.3969
  124SOPE  C31813305   5.017   5.440   4.504 -0.4469 -0.0986 -0.6527
  124SOPE  H18X13306   5.058   5.529   4.556 -1.3284 -1.3015  2.3443
  124SOPE  H18Y13307   5.106   5.386   4.463  0.0926  1.0499 -1.0248
  124SOPE  H18Z13308   4.963   5.382   4.583 -0.4635  0.6919 -0.0740
  125SOPE     N13309   0.574   5.464   2.479 -0.0372 -0.0421  0.4759
  125SOPE   HN113310   0.547   5.530   2.555 -0.2587 -2.4004  2.6220
  125SOPE   HN213311   0.554   5.368   2.516  3.8535 -1.0022  0.5405
  125SOPE   HN313312   0.675   5.463   2.457  0.1817  1.8508  1.1938
  125SOPE   C1213313   0.496   5.509   2.359  0.3209  0.2305  0.0956
  125SOPE  H12A13314   0.387   5.515   2.381  0.0118  1.0664 -1.4740
  125SOPE  H12B13315   0.519   5.439   2.276 -2.1303  0.5205 -0.9195
  125SOPE   C1113316   0.522   5.661   2.323  0.8904  0.3670 -0.0193
  125SOPE  H11A13317   0.500   5.721   2.414 -0.7429 -0.1663 -0.0244
  125SOPE  H11B13318   0.453   5.678   2.237  0.9526 -4.3482 -1.2828
  125SOPE     P13319   0.715   5.814   2.229 -0.2716 -0.3956 -0.0336
  125SOPE   O1313320   0.613   5.880   2.142  0.2360  0.0694  0.3739
  125SOPE   O1413321   0.846   5.801   2.171 -0.0395  0.2591 -0.5163
  125SOPE   O1213322   0.658   5.669   2.273 -0.3632  0.3314 -0.4639
  125SOPE   O1113323   0.721   5.887   2.365  0.4502  0.4394 -0.2238
  125SOPE    C113324   0.754   5.813   2.486 -0.2185 -0.1426 -0.4741
  125SOPE    HA13325   0.863   5.790   2.486 -0.2298 -0.5575  2.6377
  125SOPE    HB13326   0.705   5.714   2.499  0.8797 -0.4332  2.0093
  125SOPE    C213327   0.736   5.898   2.617 -0.8660 -0.7365  0.3828
  125SOPE    HS13328   0.626   5.896   2.634 -0.8137 -0.6745  0.7521
  125SOPE   O2113329   0.783   6.031   2.587 -0.7207 -0.4277  0.5857
  125SOPE   C2113330   0.719   6.130   2.649 -0.0340  0.4717  0.4108
  125SOPE   O2213331   0.622   6.113   2.718  0.7391  0.2668  0.6352
  125SOPE   C2213332   0.793   6.262   2.645 -0.3668  0.6613 -0.3292
  125SOPE   H2R13333   0.751   6.323   2.563 -1.8600 -0.8365 -0.7093
  125SOPE   H2S13334   0.897   6.244   2.611  0.3536  2.9330  0.4258
  125SOPE    C313335   0.807   5.841   2.745 -1.0761 -0.2485 -0.2231
  125SOPE    HX13336   0.914   5.831   2.717 -0.3684  0.6628  1.9409
  125SOPE    HY13337   0.773   5.739   2.774  0.2567 -0.1018  2.0826
  125SOPE   O3113338   0.785   5.935   2.857 -0.5533 -0.7193 -0.1971
  125SOPE   C3113339   0.669   5.915   2.915 -0.2477  0.2810 -0.1257
  125SOPE   O3213340   0.587   5.831   2.888  0.5592  0.6208  0.0483
  125SOPE   C3213341   0.643   6.028   3.020 -0.4921  0.1780  0.4486
  125SOPE   H2X13342   0.538   6.062   3.010 -0.7215  0.7140  3.6073
  125SOPE   H2Y13343   0.707   6.114   2.991 -0.9466  1.0071  1.8351
  125SOPE   C2313344   0.798   6.339   2.782 -0.6929 -0.3990 -0.2462
  125SOPE   H3R13345   0.699   6.321   2.829  0.6781 -1.9023  2.3631
  125SOPE   H3S13346   0.807   6.449   2.771  0.1117 -0.0488  2.8340
  125SOPE   C2413347   0.909   6.288   2.883 -0.1700  0.1872  1.0149
  125SOPE   H4R13348   0.871   6.186   2.908 -2.7741  1.0865  1.0889
  125SOPE   H4S13349   1.009   6.285   2.836 -0.2934 -0.5864  0.7877
  125SOPE   C2513350   0.917   6.371   3.007 -0.2360  0.3537  0.0528
  125SOPE   H5R13351   0.958   6.469   2.974  0.0412 -0.5642 -2.5685
  125SOPE   H5S13352   0.819   6.400   3.050 -0.6987 -1.0231 -0.0259
  125SOPE   C2613353   1.018   6.304   3.108 -0.2672  0.3530 -0.4451
  125SOPE   H6R13354   1.121   6.297   3.069  0.5900  0.6651  1.6064
  125SOPE   H6S13355   1.024   6.376   3.193  1.9277  0.2308 -0.4498
  125SOPE   C2713356   0.975   6.169   3.157  0.9084 -0.5247  0.1001
  125SOPE   H7R13357   0.869   6.180   3.188  0.6500 -0.4432 -0.7945
  125SOPE   H7S13358   0.980   6.099   3.072  0.2451 -0.5273  0.0548
  125SOPE   C2813359   1.061   6.120   3.275 -0.3287  0.2531 -0.8238
  125SOPE   H8R13360   1.168   6.126   3.244  0.2522  2.0686  1.2669
  125SOPE   H8S13361   1.055   6.188   3.362  1.1557 -0.6852  0.0644
  125SOPE   C2913362   1.032   5.976   3.314  0.4044 -0.9554  0.2890
  125SOPE   H9113363   1.050   5.905   3.232  1.5420  1.7891 -2.0135
  125SOPE  C21013364   1.019   5.925   3.441  0.6814 -0.1108  0.1144
  125SOPE  H10113365   1.011   5.816   3.455 -0.8791 -0.2148 -1.2782
  125SOPE  C21113366   0.984   6.002   3.564 -0.6401 -0.2868  0.5376
  125SOPE  H11R13367   0.891   5.959   3.604 -0.1412 -3.3986 -1.2916
  125SOPE  H11S13368   0.968   6.108   3.535 -0.7171 -0.2421  0.7437
  125SOPE  C21213369   1.084   5.978   3.679 -0.1984  0.0264 -0.2149
  125SOPE  H12R13370   1.188   5.994   3.642  0.0685  0.4990  0.7106
  125SOPE  H12S13371   1.072   5.873   3.714  2.9765 -0.3847 -0.0725
  125SOPE  C21313372   1.068   6.067   3.803 -0.6669  0.5684  0.4813
  125SOPE  H13R13373   0.963   6.051   3.837 -0.6178 -1.4333 -0.1800
  125SOPE  H13S13374   1.077   6.166   3.753 -0.7208 -0.4610 -1.6710
  125SOPE  C21413375   1.186   6.046   3.904 -0.1536  0.3860  0.9327
  125SOPE  H14R13376   1.286   6.067   3.861 -0.2126 -0.8069  0.1723
  125SOPE  H14S13377   1.181   5.940   3.937 -0.2941  0.1816  0.2688
  125SOPE  C21513378   1.168   6.136   4.030  0.4251  0.5072 -0.5452
  125SOPE  H15R13379   1.063   6.161   4.057  1.1549  0.3687  2.7609
  125SOPE  H15S13380   1.217   6.233   4.006  0.7165  0.4297 -0.2734
  125SOPE  C21613381   1.229   6.071   4.151 -0.2249  0.1207  0.0169
  125SOPE  H16R13382   1.332   6.045   4.118 -0.3017 -0.4516  0.2186
  125SOPE  H16S13383   1.186   5.972   4.178  2.4888 -0.2265  3.8734
  125SOPE  C21713384   1.226   6.154   4.283 -0.4849 -0.6336 -0.4072
  125SOPE  H17R13385   1.117   6.164   4.304 -0.3223  2.3442 -0.6064
  125SOPE  H17S13386   1.278   6.250   4.264 -0.3663  0.3179  3.7879
  125SOPE  C21813387   1.290   6.094   4.406 -0.7459  0.0642 -0.7030
  125SOPE  H18R13388   1.253   5.990   4.420  0.0800 -0.1632 -0.0850
  125SOPE  H18S13389   1.270   6.159   4.494  0.1808  0.4997 -0.8049
  125SOPE  H18T13390   1.400   6.090   4.392 -0.5504 -1.3084  0.9186
  125SOPE   C3313391   0.671   5.976   3.160  0.1386  0.7490  0.8142
  125SOPE   H3X13392   0.778   5.962   3.185  0.2949 -0.8004 -0.5738
  125SOPE   H3Y13393   0.628   5.876   3.182  0.9787  0.5596  1.6576
  125SOPE   C3413394   0.592   6.065   3.258 -0.0993 -0.9566 -0.4408
  125SOPE   H4X13395   0.484   6.060   3.233 -0.3561 -0.0818  0.4492
  125SOPE   H4Y13396   0.616   6.173   3.251 -2.4550 -0.4421 -1.6100
  125SOPE   C3513397   0.631   6.026   3.407 -0.1656  0.4598  0.1315
  125SOPE   H5X13398   0.738   6.054   3.413 -0.5730  1.9402  1.0032
  125SOPE   H5Y13399   0.625   5.918   3.431  0.1248  1.0081  3.0144
  125SOPE   C3613400   0.536   6.089   3.501 -0.2532 -0.0656  0.7623
  125SOPE   H6X13401   0.439   6.037   3.484  0.9763 -2.2222 -0.1144
  125SOPE   H6Y13402   0.517   6.198   3.499 -0.5310 -0.0790  1.9325
  125SOPE   C3713403   0.573   6.081   3.649 -0.2764 -0.2344  0.3797
  125SOPE   H7X13404   0.499   6.137   3.709  0.9352 -0.8915  2.5965
  125SOPE   H7Y13405   0.676   6.121   3.660  0.0842 -1.4468  1.6596
  125SOPE   C3813406   0.560   5.931   3.694 -0.7842 -0.0915  0.0121
  125SOPE   H8X13407   0.633   5.860   3.649  0.5576  0.8779  0.6054
  125SOPE   H8Y13408   0.462   5.895   3.656 -0.3489  0.9226 -2.2487
  125SOPE   C3913409   0.572   5.913   3.843 -0.1708 -0.3182  0.0624
  125SOPE   H9X13410   0.571   5.802   3.856 -1.3292 -0.3523 -0.1882
  125SOPE   H9Y13411   0.486   5.965   3.889  1.2123  2.4727 -0.3390
  125SOPE  C31013412   0.692   5.973   3.910 -0.3675 -0.1412 -0.0053
  125SOPE  H10X13413   0.698   6.084   3.909  0.2512 -0.1669 -1.6643
  125SOPE  H10Y13414   0.783   5.930   3.864  0.6061  1.4725  0.3400
  125SOPE  C31113415   0.706   5.930   4.055  0.7114 -0.2518  0.2607
  125SOPE  H11X13416   0.809   5.892   4.069  0.6544  0.0040  1.5199
  125SOPE  H11Y13417   0.636   5.845   4.063  0.6390 -0.1549  0.7233
  125SOPE  C31213418   0.675   6.036   4.160 -0.3784  0.1306 -0.2805
  125SOPE  H12X13419   0.717   6.135   4.133 -1.1577  1.5862  3.2181
  125SOPE  H12Y13420   0.721   6.016   4.259 -2.7957  2.6206  1.5027
  125SOPE  C31313421   0.524   6.055   4.186  0.0166 -0.1874  0.7159
  125SOPE  H13X13422   0.474   6.035   4.088  0.3347 -1.0510  0.7176
  125SOPE  H13Y13423   0.507   6.162   4.208  0.4889  0.4531 -1.7413
  125SOPE  C31413424   0.471   5.963   4.284 -0.0428 -0.2375 -0.5593
  125SOPE  H14X13425   0.500   5.858   4.262  1.5683 -0.1062  0.7854
  125SOPE  H14Y13426   0.362   5.981   4.278  0.0577  1.0023  0.9802
  125SOPE  C31513427   0.505   6.000   4.427 -0.8944 -0.0752  0.0878
  125SOPE  H15X13428   0.501   6.111   4.438 -0.1736  0.0679 -0.8879
  125SOPE  H15Y13429   0.610   5.968   4.448 -0.8617 -0.1554 -0.1918
  125SOPE  C31613430   0.433   5.928   4.537 -0.1653  0.1562  0.4113
  125SOPE  H16X13431   0.464   5.981   4.630  2.4145 -1.0411  0.3281
  125SOPE  H16Y13432   0.463   5.822   4.544 -1.6297 -0.2463  0.8856
  125SOPE  C31713433   0.277   5.923   4.520 -0.4368 -0.3735  0.5642
  125SOPE  H17X13434   0.251   5.875   4.423  1.1140  1.2477 -0.7112
  125SOPE  H17Y13435   0.241   6.028   4.526  0.5340  0.0900 -1.0751
  125SOPE  C31813436   0.206   5.850   4.636 -0.4875  0.3391  0.5651
  125SOPE  H18X13437   0.241   5.745   4.638  1.0810  0.8402  2.6994
  125SOPE  H18Y13438   0.097   5.851   4.612 -0.9855 -0.1945  2.6654
  125SOPE  H18Z13439   0.228   5.900   4.732  1.1775  1.7787 -0.5064
  126SOPE     N13440   3.594   2.721   2.804  0.3593  0.2149  0.5965
  126SOPE   HN113441   3.664   2.792   2.831  1.1022 -0.5561  0.7374
  126SOPE   HN213442   3.551   2.679   2.889 -0.2946  0.9038  0.6141
  126SOPE   HN313443   3.647   2.639   2.768  0.5222 -0.7490  2.8389
  126SOPE   C1213444   3.489   2.761   2.702 -0.4299 -0.2197  0.0721
  126SOPE  H12A13445   3.546   2.815   2.624 -0.5479  1.0543  0.8377
  126SOPE  H12B13446   3.426   2.839   2.749  0.3115 -0.3827  1.3757
  126SOPE   C1113447   3.416   2.634   2.661 -0.6773  0.3057  0.3467
  126SOPE  H11A13448   3.387   2.585   2.757 -1.2834 -0.0625 -0.0137
  126SOPE  H11B13449   3.485   2.569   2.604  1.8172  0.5879  2.8418
  126SOPE     P13450   3.201   2.551   2.543  0.2101  0.0143 -0.2921
  126SOPE   O1313451   3.279   2.441   2.479 -0.3584  0.7662  0.1224
  126SOPE   O1413452   3.089   2.599   2.462  0.2307  0.7060  0.8095
  126SOPE   O1213453   3.302   2.673   2.589  0.0276  0.4757  0.2748
  126SOPE   O1113454   3.134   2.509   2.669 -0.2052  0.4053 -0.0886
  126SOPE    C113455   3.049   2.601   2.737 -0.1748  0.2569  0.4525
  126SOPE    HA13456   2.949   2.602   2.687  0.7742 -0.0092 -1.5348
  126SOPE    HB13457   3.106   2.696   2.740  4.3631 -2.1436 -0.8149
  126SOPE    C213458   3.028   2.557   2.886 -0.5364 -0.2906  0.1985
  126SOPE    HS13459   3.018   2.446   2.889  0.4766 -0.3794  1.1902
  126SOPE   O2113460   2.904   2.620   2.936 -0.6019  0.1445 -0.2635
  126SOPE   C2113461   2.861   2.564   3.050  0.0761 -0.0128 -0.4500
  126SOPE   O2213462   2.901   2.461   3.097  0.0692  0.9663 -0.6045
  126SOPE   C2213463   2.757   2.648   3.117 -0.4545 -0.3057  0.0596
  126SOPE   H2R13464   2.722   2.587   3.203 -0.4976  0.2231  0.4181
  126SOPE   H2S13465   2.668   2.655   3.050 -0.3289 -0.9522 -0.1831
  126SOPE    C313466   3.146   2.597   2.979 -0.6231 -0.2693  0.2149
  126SOPE    HX13467   3.243   2.577   2.930 -0.5484  0.0979  0.2057
  126SOPE    HY13468   3.153   2.532   3.069  1.0538 -1.1138 -0.4844
  126SOPE   O3113469   3.121   2.732   3.029 -0.4696  0.3664  0.1472
  126SOPE   C3113470   3.217   2.821   3.025 -0.1646 -0.0567  0.0043
  126SOPE   O3213471   3.318   2.813   2.959 -0.3755 -0.1173 -0.1565
  126SOPE   C3213472   3.169   2.942   3.111 -1.4445  0.0868  0.6642
  126SOPE   H2X13473   3.058   2.943   3.110 -1.4934  1.1947  2.1901
  126SOPE   H2Y13474   3.219   3.020   3.050 -2.5449  1.8823  1.9426
  126SOPE   C2313475   2.803   2.791   3.142 -0.1379  0.6665  0.2651
  126SOPE   H3R13476   2.708   2.845   3.164 -1.1229 -1.1801  0.7715
  126SOPE   H3S13477   2.858   2.838   3.057  1.8806  0.2415  1.2797
  126SOPE   C2413478   2.896   2.798   3.263 -0.1757  0.6909 -0.4022
  126SOPE   H4R13479   2.989   2.741   3.239 -1.8685 -1.9688 -1.0327
  126SOPE   H4S13480   2.923   2.906   3.273  0.4577  0.4827  0.2182
  126SOPE   C2513481   2.831   2.754   3.398  0.3071 -0.9057 -0.1999
  126SOPE   H5R13482   2.747   2.827   3.402  1.3296  0.3570 -1.0490
  126SOPE   H5S13483   2.794   2.650   3.403 -0.7202 -0.4979  1.3335
  126SOPE   C2613484   2.918   2.783   3.517 -0.0540  0.5731  0.3156
  126SOPE   H6R13485   3.014   2.727   3.514 -0.1610  0.3990  0.1403
  126SOPE   H6S13486   2.944   2.891   3.521 -0.9653  0.7896  0.5008
  126SOPE   C2713487   2.836   2.757   3.651 -0.0050  0.3459 -0.0883
  126SOPE   H7R13488   2.738   2.809   3.639 -0.1801 -0.0385 -0.3752
  126SOPE   H7S13489   2.818   2.647   3.656 -0.8041  0.5315  2.2989
  126SOPE   C2813490   2.898   2.804   3.787  0.1054  0.1023  0.1759
  126SOPE   H8R13491   2.924   2.910   3.806 -2.9085  0.7906  1.0343
  126SOPE   H8S13492   2.820   2.782   3.864 -0.0368  0.2730  0.0804
  126SOPE   C2913493   3.028   2.726   3.806 -0.4149  0.3357  0.0632
  126SOPE   H9113494   3.099   2.725   3.722 -1.6999  0.8220 -1.0608
  126SOPE  C21013495   3.066   2.640   3.900  0.2359  0.0142 -0.1362
  126SOPE  H10113496   3.162   2.587   3.887  0.5580  0.6900 -0.5536
  126SOPE  C21113497   3.004   2.617   4.035 -0.2720  0.4416  0.3055
  126SOPE  H11R13498   2.967   2.512   4.030  0.8132  0.0888 -1.9216
  126SOPE  H11S13499   2.917   2.685   4.045 -0.6251 -0.1388  1.3967
  126SOPE  C21213500   3.106   2.617   4.152 -1.1601 -0.0482  0.7625
  126SOPE  H12R13501   3.171   2.707   4.147  0.4403 -1.0954  1.7565
  126SOPE  H12S13502   3.167   2.524   4.148 -0.5296  0.4026 -1.8808
  126SOPE  C21313503   3.028   2.606   4.282  0.0437  0.7169  0.1540
  126SOPE  H13R13504   2.934   2.551   4.258  1.4993 -1.8473  0.0674
  126SOPE  H13S13505   2.991   2.706   4.314 -0.6893  0.9290 -1.2487
  126SOPE  C21413506   3.105   2.538   4.399  0.0585  0.2749 -0.2050
  126SOPE  H14R13507   3.118   2.434   4.362 -1.5091 -0.0187  0.0125
  126SOPE  H14S13508   3.033   2.533   4.483 -1.4347 -1.0251 -1.4925
  126SOPE  C21513509   3.243   2.606   4.440 -0.0524 -0.0768  0.3193
  126SOPE  H15R13510   3.214   2.699   4.493  0.1182  0.6832 -0.8830
  126SOPE  H15S13511   3.296   2.632   4.346 -0.2510  0.1683  0.2757
  126SOPE  C21613512   3.337   2.511   4.523  0.1390 -0.1925 -0.0991
  126SOPE  H16R13513   3.363   2.435   4.447  0.8904  0.1191 -0.1707
  126SOPE  H16S13514   3.289   2.461   4.610 -1.4993 -1.3529 -1.6115
  126SOPE  C21713515   3.467   2.587   4.571  0.2305 -0.0848 -0.5195
  126SOPE  H17R13516   3.487   2.664   4.494 -0.5279  0.5743 -0.0769
  126SOPE  H17S13517   3.546   2.509   4.570  0.0458 -0.2700 -0.8443
  126SOPE  C21813518   3.452   2.643   4.718  0.6687  0.3322  0.5066
  126SOPE  H18R13519   3.351   2.689   4.724 -0.2177 -1.5203  0.5021
  126SOPE  H18S13520   3.520   2.729   4.731  0.3998  0.7073 -0.4782
  126SOPE  H18T13521   3.467   2.568   4.799  1.3023 -0.6863 -0.5118
  126SOPE   C3313522   3.228   2.934   3.255  0.6214 -0.4475 -0.4314
  126SOPE   H3X13523   3.339   2.926   3.258  0.8850  2.4115 -0.5320
  126SOPE   H3Y13524   3.188   2.840   3.301  0.0094  0.3626  0.7377
  126SOPE   C3413525   3.183   3.050   3.349 -0.3020  0.0184  0.3512
  126SOPE   H4X13526   3.072   3.050   3.356 -0.3787 -0.4397 -0.7924
  126SOPE   H4Y13527   3.208   3.147   3.301  0.2489 -1.3579 -2.3287
  126SOPE   C3513528   3.244   3.022   3.490  0.1319  0.9373  0.0211
  126SOPE   H5X13529   3.321   2.942   3.481 -0.4723  0.4089 -0.4831
  126SOPE   H5Y13530   3.155   2.981   3.541  0.0751 -0.9276 -1.4618
  126SOPE   C3613531   3.327   3.143   3.539  0.2746 -0.1230  0.6805
  126SOPE   H6X13532   3.275   3.239   3.517  0.7905  0.5034  2.1258
  126SOPE   H6Y13533   3.418   3.145   3.476 -1.5302  2.5623 -2.1498
  126SOPE   C3713534   3.364   3.134   3.691 -1.0856  0.1394 -0.3811
  126SOPE   H7X13535   3.412   3.232   3.712  1.9819 -1.4603  0.6174
  126SOPE   H7Y13536   3.443   3.057   3.697 -0.8176  0.3975 -0.5932
  126SOPE   C3813537   3.247   3.107   3.785 -0.2958  0.2398  0.3340
  126SOPE   H8X13538   3.219   3.000   3.780 -0.2724  0.2171  0.6876
  126SOPE   H8Y13539   3.161   3.164   3.742 -0.7451 -1.2542 -0.8333
  126SOPE   C3913540   3.280   3.145   3.928  0.7313  0.7415  0.0184
  126SOPE   H9X13541   3.264   3.253   3.946  0.5350  0.4957  1.3796
  126SOPE   H9Y13542   3.390   3.130   3.936  0.8647  2.1795  1.2846
  126SOPE  C31013543   3.208   3.054   4.036  0.0379 -1.1323 -0.2933
  126SOPE  H10X13544   3.263   3.070   4.131  0.1640  0.6353 -0.6296
  126SOPE  H10Y13545   3.206   2.948   4.003 -0.7618 -1.5637  1.0293
  126SOPE  C31113546   3.059   3.108   4.049 -0.0529  0.6639 -0.1583
  126SOPE  H11X13547   3.011   3.094   3.950 -0.0604 -1.1355  0.0654
  126SOPE  H11Y13548   3.061   3.218   4.062  2.8535  0.4654  1.8345
  126SOPE  C31213549   2.988   3.029   4.160  0.1966  0.1366  0.5468
  126SOPE  H12X13550   3.021   3.064   4.260 -1.6083 -0.8028  1.5215
  126SOPE  H12Y13551   3.012   2.921   4.159  0.9192  0.2176 -2.9550
  126SOPE  C31313552   2.842   3.053   4.131 -0.3088 -0.0146 -0.6873
  126SOPE  H13X13553   2.810   3.017   4.031  0.3366 -3.8544  0.3087
  126SOPE  H13Y13554   2.828   3.163   4.136 -1.7226 -0.0664 -2.4452
  126SOPE  C31413555   2.754   3.008   4.245  0.2269  0.1004 -0.1858
  126SOPE  H14X13556   2.787   2.904   4.264  0.0083 -0.1420 -1.0819
  126SOPE  H14Y13557   2.653   3.006   4.198 -0.9774  0.2965  2.2511
  126SOPE  C31513558   2.749   3.107   4.361 -0.1757 -0.7991  0.3431
  126SOPE  H15X13559   2.711   3.202   4.316 -0.6838 -1.1085  0.1211
  126SOPE  H15Y13560   2.843   3.133   4.413 -2.3089  1.5840  3.3847
  126SOPE  C31613561   2.645   3.071   4.472 -0.0429 -0.2474  0.9513
  126SOPE  H16X13562   2.667   2.973   4.519 -3.7241 -0.0366  3.5661
  126SOPE  H16Y13563   2.546   3.047   4.428 -0.0851 -0.2338  1.0379
  126SOPE  C31713564   2.634   3.184   4.579 -0.0085  0.2841  0.5437
  126SOPE  H17X13565   2.614   3.283   4.533 -1.9570 -0.9658 -1.5142
  126SOPE  H17Y13566   2.736   3.179   4.624  0.8457 -2.3340 -1.4223
  126SOPE  C31813567   2.528   3.148   4.693  0.2370  0.5216  0.0864
  126SOPE  H18X13568   2.544   3.048   4.737 -0.1747  0.2968 -0.2734
  126SOPE  H18Y13569   2.427   3.135   4.648  0.6392 -0.7629 -0.4765
  126SOPE  H18Z13570   2.517   3.213   4.783 -1.3515 -1.2501  1.2469
  127SOPE     N13571   2.775   3.668   2.709  0.6119  0.3312  0.2038
  127SOPE   HN113572   2.754   3.571   2.680  2.1704  0.1390 -0.3865
  127SOPE   HN213573   2.866   3.704   2.672  1.8995 -0.9757  1.9083
  127SOPE   HN313574   2.789   3.665   2.812 -0.5912 -0.1909  0.3677
  127SOPE   C1213575   2.678   3.771   2.669 -0.9548  0.3564 -0.3415
  127SOPE  H12A13576   2.575   3.735   2.687 -0.7770  0.3312  0.7140
  127SOPE  H12B13577   2.681   3.774   2.558  2.6219 -0.0273 -0.3933
  127SOPE   C1113578   2.718   3.904   2.732  0.7319 -0.3402  0.8835
  127SOPE  H11A13579   2.705   3.923   2.840 -0.9078  0.2787  0.6088
  127SOPE  H11B13580   2.646   3.978   2.690 -1.3138 -1.8156  1.6091
  127SOPE     P13581   2.893   4.087   2.690 -0.5908 -0.6415  0.2907
  127SOPE   O1313582   2.810   4.155   2.590  0.6215 -0.7156 -1.1704
  127SOPE   O1413583   3.038   4.107   2.672 -0.9973  0.3398  0.5789
  127SOPE   O1213584   2.855   3.934   2.690  0.1648 -0.0359 -0.5105
  127SOPE   O1113585   2.853   4.144   2.836  0.0330 -0.2919 -0.6532
  127SOPE    C113586   2.845   4.285   2.844  0.4621 -0.2616 -0.6528
  127SOPE    HA13587   2.814   4.331   2.747  2.5037  0.3017 -1.0749
  127SOPE    HB13588   2.945   4.325   2.870 -0.5953  1.4993  0.9960
  127SOPE    C213589   2.742   4.321   2.961 -0.3634  0.1456  0.1175
  127SOPE    HS13590   2.706   4.426   2.948  1.3422  1.0935  2.4830
  127SOPE   O2113591   2.800   4.306   3.094  0.5954 -0.3192  0.1084
  127SOPE   C2113592   2.875   4.417   3.129 -0.0512 -0.6101 -0.1277
  127SOPE   O2213593   2.841   4.532   3.107 -0.0189  0.2927 -0.2295
  127SOPE   C2213594   2.981   4.379   3.221 -0.0433 -1.0607  0.3326
  127SOPE   H2R13595   3.046   4.469   3.221  1.0916 -1.8561 -1.1187
  127SOPE   H2S13596   3.032   4.292   3.175 -1.4966 -0.5305 -2.5041
  127SOPE    C313597   2.616   4.229   2.943  0.0076  0.7153  0.3318
  127SOPE    HX13598   2.645   4.122   2.943 -1.5950  0.1968  2.3661
  127SOPE    HY13599   2.563   4.258   2.850  1.5748 -0.3584 -0.9436
  127SOPE   O3113600   2.522   4.249   3.050 -0.5264 -0.5373  1.0049
  127SOPE   C3113601   2.533   4.172   3.155  0.5926  0.1334  0.0831
  127SOPE   O3213602   2.605   4.075   3.168 -0.3344  0.6417  0.2225
  127SOPE   C3213603   2.437   4.213   3.265  1.0222 -0.7521  0.4042
  127SOPE   H2X13604   2.334   4.175   3.249  0.1763  1.5516  0.0195
  127SOPE   H2Y13605   2.427   4.323   3.273  1.5240 -0.8087  2.3487
  127SOPE   C2313606   2.939   4.345   3.365  0.6566 -0.8220 -0.0201
  127SOPE   H3R13607   3.027   4.326   3.431  2.0596 -0.1588 -1.6244
  127SOPE   H3S13608   2.874   4.255   3.369 -1.2936  0.4708 -1.0443
  127SOPE   C2413609   2.862   4.460   3.432 -0.7241  0.0915  0.5104
  127SOPE   H4R13610   2.924   4.552   3.428 -0.8413  0.1503  0.0292
  127SOPE   H4S13611   2.771   4.488   3.376  1.8320  2.8069 -2.6734
  127SOPE   C2513612   2.833   4.422   3.579 -0.6600 -0.5358 -0.6798
  127SOPE   H5R13613   2.794   4.319   3.593 -2.2704  0.1495  0.2359
  127SOPE   H5S13614   2.927   4.428   3.638 -1.2913 -1.7880  0.5217
  127SOPE   C2613615   2.720   4.511   3.638  0.0764  0.0587 -0.3674
  127SOPE   H6R13616   2.653   4.517   3.549  0.6715  0.9764 -0.7698
  127SOPE   H6S13617   2.672   4.454   3.721  0.0214 -0.3243 -0.6593
  127SOPE   C2713618   2.765   4.645   3.698 -0.4070 -0.2141  0.3911
  127SOPE   H7R13619   2.816   4.630   3.795  0.3602  4.5772  1.0139
  127SOPE   H7S13620   2.836   4.689   3.624 -1.9617 -0.4413 -1.3184
  127SOPE   C2813621   2.661   4.756   3.716 -0.8493 -0.0163 -0.4443
  127SOPE   H8R13622   2.618   4.782   3.617 -0.5428 -2.5139 -1.2827
  127SOPE   H8S13623   2.577   4.726   3.783  1.5260 -2.0765  1.8133
  127SOPE   C2913624   2.729   4.885   3.757 -0.2925  0.9357  0.2944
  127SOPE   H9113625   2.795   4.931   3.683  2.8625 -2.7459  0.4804
  127SOPE  C21013626   2.716   4.945   3.878 -0.5818 -0.4447 -0.0911
  127SOPE  H10113627   2.760   5.044   3.899 -1.3162  0.0769 -0.9206
  127SOPE  C21113628   2.643   4.893   4.004 -0.5241 -0.1637 -0.1429
  127SOPE  H11R13629   2.572   4.810   3.981  2.2048 -2.7860  0.1831
  127SOPE  H11S13630   2.596   4.975   4.062 -0.5825 -1.7291  2.1306
  127SOPE  C21213631   2.742   4.832   4.104 -0.3851  0.3368  0.2898
  127SOPE  H12R13632   2.828   4.899   4.126  2.0299 -2.6690  0.6506
  127SOPE  H12S13633   2.795   4.746   4.058 -2.5083 -1.9856  1.9376
  127SOPE  C21313634   2.663   4.795   4.227 -0.0762 -0.0455  0.1913
  127SOPE  H13R13635   2.591   4.712   4.215  0.2599 -0.4558  0.9573
  127SOPE  H13S13636   2.600   4.879   4.264 -2.2212 -1.6749  0.4330
  127SOPE  C21413637   2.760   4.751   4.345  0.8628  0.6525 -0.3854
  127SOPE  H14R13638   2.836   4.831   4.348 -0.6036  2.1091 -0.3706
  127SOPE  H14S13639   2.811   4.656   4.317  0.7745 -0.2837  2.3556
  127SOPE  C21513640   2.676   4.738   4.474 -0.2874  0.2235 -0.2505
  127SOPE  H15R13641   2.603   4.820   4.489  0.0273  0.6369 -0.9720
  127SOPE  H15S13642   2.747   4.737   4.561 -2.4787 -0.5971  1.6346
  127SOPE  C21613643   2.608   4.603   4.487 -0.1578 -0.1804  0.1338
  127SOPE  H16R13644   2.684   4.523   4.477 -0.0112  0.1440 -1.5580
  127SOPE  H16S13645   2.529   4.591   4.410 -3.7013 -0.5624  3.4902
  127SOPE  C21713646   2.548   4.592   4.624 -0.1865 -0.2232  0.2668
  127SOPE  H17R13647   2.439   4.614   4.629 -0.5282 -0.8800 -2.5142
  127SOPE  H17S13648   2.591   4.673   4.686 -1.3560  0.2291  0.5223
  127SOPE  C21813649   2.589   4.461   4.697  0.2130 -0.3684  0.1057
  127SOPE  H18R13650   2.694   4.438   4.668  0.7084 -1.9231  2.8705
  127SOPE  H18S13651   2.522   4.382   4.658 -1.4140  0.5257  0.9688
  127SOPE  H18T13652   2.581   4.473   4.807  2.2300 -1.8915  0.4759
  127SOPE   C3313653   2.478   4.155   3.402 -0.5713  0.3674  0.3014
  127SOPE   H3X13654   2.587   4.169   3.412 -0.5706  2.8383 -2.1798
  127SOPE   H3Y13655   2.453   4.047   3.411 -0.5264 -0.0126 -2.9764
  127SOPE   C3413656   2.424   4.226   3.525  0.5505 -0.5645 -0.1537
  127SOPE   H4X13657   2.315   4.247   3.512  0.5128 -0.7556 -0.1547
  127SOPE   H4Y13658   2.456   4.331   3.516  1.4490 -0.5964  2.0854
  127SOPE   C3513659   2.461   4.157   3.655 -0.0738 -0.4190 -0.1617
  127SOPE   H5X13660   2.566   4.191   3.670  0.7507 -1.5581 -2.6955
  127SOPE   H5Y13661   2.437   4.049   3.648 -0.7370 -0.2359 -0.8098
  127SOPE   C3613662   2.387   4.217   3.777  0.3991 -0.3883 -0.3419
  127SOPE   H6X13663   2.279   4.192   3.765  0.5140 -0.8541 -0.4545
  127SOPE   H6Y13664   2.389   4.327   3.769 -0.4272 -0.2423  1.1821
  127SOPE   C3713665   2.428   4.168   3.911 -0.1848  0.5132  0.6024
  127SOPE   H7X13666   2.473   4.068   3.893 -2.6664 -0.0076 -4.4717
  127SOPE   H7Y13667   2.343   4.155   3.982 -1.6251 -0.6636 -1.2466
  127SOPE   C3813668   2.535   4.258   3.971 -0.8744  0.0340  0.2093
  127SOPE   H8X13669   2.520   4.367   3.958 -1.4455  0.0636  1.0199
  127SOPE   H8Y13670   2.626   4.234   3.913 -1.6219  0.3926 -1.1527
  127SOPE   C3913671   2.566   4.206   4.112 -0.3422  0.3757  0.2259
  127SOPE   H9X13672   2.597   4.100   4.106 -3.4013 -0.5655 -0.8068
  127SOPE   H9Y13673   2.466   4.210   4.160 -0.0126 -1.6928  1.1650
  127SOPE  C31013674   2.677   4.290   4.187 -0.1614 -0.0178 -0.2126
  127SOPE  H10X13675   2.632   4.390   4.204 -1.8906 -0.4213 -2.0889
  127SOPE  H10Y13676   2.768   4.311   4.127  0.0812  1.8731  0.7345
  127SOPE  C31113677   2.720   4.242   4.320  0.6336  0.3464 -0.3697
  127SOPE  H11X13678   2.630   4.207   4.376 -0.2868 -1.3847 -2.7456
  127SOPE  H11Y13679   2.770   4.322   4.379  2.0001 -0.3205 -0.5841
  127SOPE  C31213680   2.812   4.114   4.299 -0.3620  0.7952 -0.6032
  127SOPE  H12X13681   2.896   4.159   4.242  2.8675 -3.9309 -0.1332
  127SOPE  H12Y13682   2.759   4.044   4.231 -1.6339  1.0938  0.0522
  127SOPE  C31313683   2.856   4.048   4.433  0.2552 -0.2919 -0.4083
  127SOPE  H13X13684   2.906   4.116   4.506  1.4157 -1.9141  0.3783
  127SOPE  H13Y13685   2.937   3.973   4.422  0.4297 -0.5847  2.2136
  127SOPE  C31413686   2.741   3.971   4.496  0.1170  0.0962  0.4103
  127SOPE  H14X13687   2.646   4.013   4.458 -0.7034 -0.7013  1.4995
  127SOPE  H14Y13688   2.729   3.970   4.607  0.8661  0.5863  0.5045
  127SOPE  C31513689   2.734   3.821   4.462  0.4184 -0.3312 -0.8798
  127SOPE  H15X13690   2.640   3.785   4.509  0.7465  1.5986  1.4918
  127SOPE  H15Y13691   2.814   3.761   4.509  1.5333  1.9979  0.3919
  127SOPE  C31613692   2.731   3.779   4.319 -0.6446 -0.6527  0.0060
  127SOPE  H16X13693   2.831   3.795   4.273  0.5643 -0.5241  2.4988
  127SOPE  H16Y13694   2.660   3.840   4.260  1.2577  1.6884 -0.0346
  127SOPE  C31713695   2.699   3.631   4.309  0.2160  0.2439  0.5143
  127SOPE  H17X13696   2.723   3.586   4.408 -0.5731  1.7900  1.4528
  127SOPE  H17Y13697   2.773   3.594   4.235  0.0106  2.7919 -1.0678
  127SOPE  C31813698   2.555   3.592   4.264 -0.2220 -0.0425 -0.1738
  127SOPE  H18X13699   2.553   3.482   4.253  1.4409  0.0983 -2.9077
  127SOPE  H18Y13700   2.525   3.647   4.172  0.7798  2.5517  0.9580
  127SOPE  H18Z13701   2.485   3.616   4.346 -2.7629  0.5057 -2.3835
  128SOPE     N13702   0.647   1.958   2.057 -0.4319  0.2415 -0.2084
  128SOPE   HN113703   0.609   1.948   1.960 -1.4630  0.6517  0.1416
  128SOPE   HN213704   0.747   1.930   2.059 -1.1431 -2.5370  2.2299
  128SOPE   HN313705   0.589   1.899   2.120 -1.0402  0.7353 -0.2891
  128SOPE   C1213706   0.663   2.108   2.086  1.0034  0.1394 -0.3471
  128SOPE  H12A13707   0.719   2.125   2.180  1.4342  0.3609 -0.6428
  128SOPE  H12B13708   0.560   2.144   2.110  0.1754 -0.4821 -2.6606
  128SOPE   C1113709   0.714   2.187   1.965  0.2223  0.4403 -0.7328
  128SOPE  H11A13710   0.655   2.151   1.878 -1.2175  0.7762  0.0670
  128SOPE  H11B13711   0.819   2.159   1.947  1.1937  2.2588  1.6109
  128SOPE     P13712   0.557   2.393   1.925  0.2013  0.0388 -0.1103
  128SOPE   O1313713   0.495   2.312   1.817  0.0725  0.3276  0.1962
  128SOPE   O1413714   0.590   2.535   1.892  0.4470  0.0116 -0.1944
  128SOPE   O1213715   0.687   2.326   1.979 -0.1013 -0.5675  0.0943
  128SOPE   O1113716   0.470   2.387   2.058  0.5044 -0.4298  0.4349
  128SOPE    C113717   0.519   2.483   2.152  0.3784  0.1887 -0.0260
  128SOPE    HA13718   0.440   2.561   2.158  1.0723  0.7925  2.6053
  128SOPE    HB13719   0.617   2.534   2.136  1.3575 -1.9876 -1.4376
  128SOPE    C213720   0.516   2.415   2.300  0.0565  0.6627  0.3796
  128SOPE    HS13721   0.565   2.317   2.285  0.6922  1.1791 -1.1286
  128SOPE   O2113722   0.382   2.386   2.340  0.4556  0.7992 -0.1589
  128SOPE   C2113723   0.367   2.300   2.441  0.0781 -0.3841  0.0752
  128SOPE   O2213724   0.453   2.229   2.493  0.7282  0.5417  0.1498
  128SOPE   C2213725   0.217   2.298   2.483 -0.0101  0.8664 -0.2871
  128SOPE   H2R13726   0.169   2.239   2.402  0.0790  0.1394  0.1923
  128SOPE   H2S13727   0.178   2.402   2.479 -0.4806  0.6829 -0.6366
  128SOPE    C313728   0.585   2.510   2.405 -0.5438 -0.4312  0.4945
  128SOPE    HX13729   0.525   2.603   2.393  0.4923 -0.0254 -2.4200
  128SOPE    HY13730   0.686   2.534   2.366 -1.3005  0.8809 -0.7491
  128SOPE   O3113731   0.580   2.462   2.541  0.2946  0.5418 -0.3085
  128SOPE   C3113732   0.696   2.413   2.594  0.3292  0.1125  0.8760
  128SOPE   O3213733   0.797   2.402   2.528  0.2216  0.8251 -0.8357
  128SOPE   C3213734   0.684   2.380   2.746  0.1887  0.1440 -0.9614
  128SOPE   H2X13735   0.576   2.362   2.763 -1.0837  5.0467 -2.0377
  128SOPE   H2Y13736   0.721   2.465   2.807  2.2679 -0.8126 -0.8143
  128SOPE   C2313737   0.198   2.226   2.623 -0.1741  0.1337  0.5635
  128SOPE   H3R13738   0.264   2.137   2.638 -0.2085 -0.0812 -0.4838
  128SOPE   H3S13739   0.095   2.184   2.624  0.5415 -1.7173  0.7100
  128SOPE   C2413740   0.215   2.325   2.739 -0.5151 -0.2709 -0.4060
  128SOPE   H4R13741   0.323   2.348   2.742 -0.3917 -0.8571 -0.1515
  128SOPE   H4S13742   0.173   2.426   2.721 -0.6940 -0.3404 -0.3865
  128SOPE   C2513743   0.168   2.276   2.870  0.6116  0.1683 -0.3668
  128SOPE   H5R13744   0.058   2.262   2.880  0.5771  0.2327 -0.6407
  128SOPE   H5S13745   0.205   2.172   2.862 -1.0463 -0.4961  0.2594
  128SOPE   C2613746   0.231   2.341   2.995  0.2463  0.1433  0.1701
  128SOPE   H6R13747   0.246   2.270   3.079  2.9786  2.7031  2.0971
  128SOPE   H6S13748   0.332   2.380   2.969  0.0662  0.6166  0.1620
  128SOPE   C2713749   0.143   2.456   3.046  0.0859 -0.0312  0.1184
  128SOPE   H7R13750   0.152   2.534   2.967 -0.0972  2.5685  2.5050
  128SOPE   H7S13751   0.040   2.416   3.051 -0.6571  1.5644 -1.5447
  128SOPE   C2813752   0.191   2.508   3.175 -0.5446 -0.0588  0.1921
  128SOPE   H8R13753   0.173   2.429   3.251 -0.8246  0.1131  0.3032
  128SOPE   H8S13754   0.302   2.516   3.162 -0.5666 -2.3086 -2.0601
  128SOPE   C2913755   0.136   2.639   3.231  0.7436  0.0931  0.3867
  128SOPE   H9113756   0.201   2.727   3.217 -0.2069  0.7618  0.0967
  128SOPE  C21013757   0.017   2.658   3.298  0.2832  0.6026  0.2909
  128SOPE  H10113758  -0.021   2.756   3.329 -1.4582  0.1617 -0.3186
  128SOPE  C21113759  -0.081   2.550   3.334 -0.1633 -0.0777  0.7207
  128SOPE  H11R13760  -0.065   2.465   3.265 -1.9153  0.1068  0.0451
  128SOPE  H11S13761  -0.184   2.588   3.323 -0.1088 -0.6771 -3.0082
  128SOPE  C21213762  -0.079   2.523   3.488  0.1565 -0.3954 -0.1043
  128SOPE  H12R13763   0.001   2.449   3.508  1.7374  1.7341  2.0987
  128SOPE  H12S13764  -0.172   2.475   3.525 -0.1339  0.7700  0.7472
  128SOPE  C21313765  -0.043   2.635   3.585  0.1876 -0.2878  0.5224
  128SOPE  H13R13766  -0.104   2.725   3.562  0.4238  0.0148  1.0791
  128SOPE  H13S13767   0.063   2.667   3.575 -0.2021  0.6028 -1.2480
  128SOPE  C21413768  -0.070   2.603   3.739  0.0539 -0.3582  0.8640
  128SOPE  H14R13769  -0.015   2.512   3.769 -0.2665  0.1415  3.1306
  128SOPE  H14S13770  -0.178   2.581   3.752  0.1565 -0.4833  1.5582
  128SOPE  C21513771  -0.031   2.719   3.833 -0.4281 -0.4982 -0.6336
  128SOPE  H15R13772  -0.110   2.795   3.815  1.4323  1.5263 -0.5660
  128SOPE  H15S13773   0.067   2.764   3.808 -1.0518  1.3245  0.0207
  128SOPE  C21613774  -0.037   2.699   3.987  0.4341  0.5790 -0.2449
  128SOPE  H16R13775   0.054   2.650   4.027 -1.3300 -1.2712  1.6978
  128SOPE  H16S13776  -0.128   2.642   4.015 -0.0454  2.2087  1.7696
  128SOPE  C21713777  -0.050   2.843   4.051 -0.8817  0.2844 -1.0084
  128SOPE  H17R13778  -0.067   2.820   4.158 -0.6112 -2.8694 -1.5534
  128SOPE  H17S13779  -0.139   2.897   4.013 -1.1676 -0.4764 -1.4244
  128SOPE  C21813780   0.080   2.916   4.032 -0.0694 -0.2578 -0.5767
  128SOPE  H18R13781   0.079   2.984   3.943 -2.4768 -0.8120 -1.0554
  128SOPE  H18S13782   0.162   2.842   4.038 -0.0079 -0.4287 -2.7825
  128SOPE  H18T13783   0.096   2.972   4.127 -1.5386 -2.4700  1.0907
  128SOPE   C3313784   0.765   2.257   2.784  0.1430  0.1097  0.0777
  128SOPE   H3X13785   0.873   2.266   2.759  0.0956  0.9358  0.1633
  128SOPE   H3Y13786   0.726   2.171   2.725  0.9347  1.7973 -3.1653
  128SOPE   C3413787   0.761   2.224   2.936 -0.1966 -0.1335 -0.5144
  128SOPE   H4X13788   0.810   2.301   2.999  2.1847 -1.0556 -1.1233
  128SOPE   H4Y13789   0.826   2.135   2.952  0.3381  0.6353  1.8626
  128SOPE   C3513790   0.625   2.186   2.990 -1.4010  0.4456  0.7379
  128SOPE   H5X13791   0.624   2.075   2.991  1.0980  0.3447  0.2688
  128SOPE   H5Y13792   0.546   2.219   2.919 -0.1312  1.1423 -0.4051
  128SOPE   C3613793   0.577   2.239   3.126 -0.0143  0.5312  0.2476
  128SOPE   H6X13794   0.467   2.226   3.135  0.0541  0.2854  0.7283
  128SOPE   H6Y13795   0.595   2.349   3.115 -0.5821  0.6946  0.9330
  128SOPE   C3713796   0.636   2.159   3.242  0.1283  0.4311 -1.1761
  128SOPE   H7X13797   0.745   2.184   3.241  0.2628  0.1745  1.2255
  128SOPE   H7Y13798   0.614   2.050   3.242 -0.8960  0.6149  0.1775
  128SOPE   C3813799   0.584   2.219   3.376 -0.1196 -0.0818  0.0278
  128SOPE   H8X13800   0.474   2.204   3.375 -0.1474  0.0555 -1.2380
  128SOPE   H8Y13801   0.593   2.330   3.377  0.0633 -0.0085 -2.3869
  128SOPE   C3913802   0.652   2.148   3.497  0.5415  0.1355 -0.5432
  128SOPE   H9X13803   0.761   2.146   3.480  1.1107  0.5684  2.4802
  128SOPE   H9Y13804   0.621   2.042   3.490  0.4752  0.2288 -2.0064
  128SOPE  C31013805   0.619   2.222   3.625  0.6448 -0.6608  0.1799
  128SOPE  H10X13806   0.509   2.223   3.641  0.1860 -4.6380 -1.6426
  128SOPE  H10Y13807   0.649   2.326   3.598 -0.6435 -0.6067 -1.1603
  128SOPE  C31113808   0.682   2.177   3.759 -0.5101 -0.5998  0.4464
  128SOPE  H11X13809   0.790   2.200   3.755 -1.1698  2.8095 -1.0145
  128SOPE  H11Y13810   0.658   2.070   3.779  1.0307 -0.6577  2.2841
  128SOPE  C31213811   0.614   2.250   3.875  0.3447  0.2896  0.3691
  128SOPE  H12X13812   0.508   2.219   3.866  0.7896 -0.9721 -1.0572
  128SOPE  H12Y13813   0.616   2.359   3.857 -1.5294  0.3664  0.4390
  128SOPE  C31313814   0.671   2.205   4.009 -0.0271 -0.8702 -0.6526
  128SOPE  H13X13815   0.668   2.297   4.072 -1.4866 -0.9427 -0.5839
  128SOPE  H13Y13816   0.772   2.160   4.008  0.1343 -0.5068 -1.4954
  128SOPE  C31413817   0.579   2.102   4.084  0.7367  0.4884 -0.9196
  128SOPE  H14X13818   0.544   2.026   4.011 -0.7503 -0.3402  0.5964
  128SOPE  H14Y13819   0.483   2.145   4.120 -0.3802 -2.3903 -0.2084
  128SOPE  C31513820   0.637   2.048   4.219 -0.2261 -0.8678  0.1008
  128SOPE  H15X13821   0.644   2.134   4.288 -2.3127  0.2975 -1.0292
  128SOPE  H15Y13822   0.740   2.011   4.199 -0.2417 -0.2751 -1.1773
  128SOPE  C31613823   0.547   1.959   4.297  0.3983  0.2578  0.7008
  128SOPE  H16X13824   0.518   1.873   4.233 -0.3902  2.0350 -1.4951
  128SOPE  H16Y13825   0.453   2.014   4.318  1.0290  1.4038  0.5898
  128SOPE  C31713826   0.614   1.906   4.432  0.3103 -0.3543 -0.2194
  128SOPE  H17X13827   0.627   1.994   4.499 -0.3757 -1.0623  0.8918
  128SOPE  H17Y13828   0.717   1.870   4.413  0.4121 -0.2615  0.1424
  128SOPE  C31813829   0.526   1.799   4.503 -0.6829 -0.4830  0.1491
  128SOPE  H18X13830   0.547   1.770   4.608 -1.4934 -2.4776 -0.1840
  128SOPE  H18Y13831   0.532   1.702   4.448  0.0674  1.2806 -3.1237
  128SOPE  H18Z13832   0.419   1.828   4.498 -0.0587  1.8486 -0.9332
  129OSM      N13833   5.425   0.797   7.225 -0.1732  1.1210  0.3668
  129OSM    C1513834   5.438   0.649   7.249 -0.1358 -0.3845  0.7966
  129OSM   H15A13835   5.380   0.585   7.184 -1.5779  1.5976  0.0131
  129OSM   H15B13836   5.414   0.635   7.354  1.7772  1.4033  1.5480
  129OSM   H15C13837   5.541   0.622   7.233  0.4673  1.4594  1.3437
  129OSM    C1413838   5.288   0.835   7.279  0.4062  0.2067 -0.1959
  129OSM   H14A13839   5.256   0.936   7.256 -1.6276 -0.5705 -0.9870
  129OSM   H14B13840   5.278   0.826   7.387 -1.3979 -0.9278 -0.4208
  129OSM   H14C13841   5.214   0.780   7.223 -0.0008  0.6139 -0.0702
  129OSM    C1313842   5.531   0.874   7.301  0.0416  0.1976 -0.2734
  129OSM   H13A13843   5.548   0.819   7.393  1.5424  1.1113  0.0391
  129OSM   H13B13844   5.501   0.975   7.322  0.0086  0.0477  0.4175
  129OSM   H13C13845   5.618   0.867   7.237 -0.6775 -1.3570 -1.1275
  129OSM    C1213846   5.429   0.824   7.079 -0.5747  1.2308 -0.7225
  129OSM   H12A13847   5.386   0.923   7.072 -0.1579  1.4026 -0.8468
  129OSM   H12B13848   5.362   0.759   7.024  0.4826  0.0653 -0.6952
  129OSM    C1113849   5.568   0.824   7.014 -0.3988 -0.0779 -0.1684
  129OSM   H11A13850   5.559   0.828   6.903 -1.2879 -3.8182 -0.3484
  129OSM   H11B13851   5.624   0.731   7.033  0.6603  0.2543 -1.5071
  129OSM      P13852   5.607   1.080   7.015 -0.2500 -0.1869  0.4264
  129OSM    O1313853   5.463   1.112   7.030 -0.2692 -0.1595  0.0368
  129OSM    O1413854   5.701   1.159   7.093  0.1050  0.5976 -0.5021
  129OSM    O1113855   5.642   1.091   6.861  0.5889 -0.3473 -0.0082
  129OSM    O1213856   5.641   0.937   7.063 -0.2199  0.5845 -0.4727
  129OSM    C1S13857   5.630   1.216   6.787 -0.2742 -0.7387 -0.1514
  129OSM    H1S13858   5.701   1.286   6.837 -0.6046 -0.4366 -0.0937
  129OSM    H1T13859   5.534   1.271   6.799  0.3739  0.2411  0.6937
  129OSM     NF13860   5.691   1.315   6.560  0.2438 -0.0327 -0.4259
  129OSM    HNF13861   5.621   1.365   6.509  0.5291 -0.0142 -0.8062
  129OSM    C2S13862   5.654   1.190   6.641 -0.5593  0.2555  0.7507
  129OSM    H2S13863   5.739   1.120   6.628 -0.8608  0.2501 -1.6711
  129OSM    C3S13864   5.538   1.103   6.580  0.1712  0.0045 -0.0664
  129OSM    H3S13865   5.443   1.162   6.576 -0.3160 -0.8383 -2.2014
  129OSM     O313866   5.507   0.982   6.650  0.1755  0.2481 -0.2235
  129OSM    HO313867   5.571   0.988   6.721  0.8949  1.7332 -0.9439
  129OSM    C4S13868   5.576   1.061   6.435  0.0718 -0.0538 -0.1765
  129OSM    H4S13869   5.645   0.975   6.433  1.0356  0.6474  0.9824
  129OSM    C5S13870   5.520   1.115   6.328  0.1066 -0.3454 -0.1693
  129OSM    H5S13871   5.431   1.178   6.337 -0.6780 -1.0515 -2.3425
  129OSM    C6S13872   5.540   1.073   6.182 -0.0721  0.2711  0.4847
  129OSM    H6S13873   5.448   1.090   6.123 -0.6284 -0.5716  1.0944
  129OSM    H6T13874   5.556   0.963   6.178  0.4422  0.3499  0.2246
  129OSM    C7S13875   5.660   1.134   6.115  0.0411 -0.4683 -0.2138
  129OSM    H7S13876   5.747   1.146   6.184  0.2505 -1.5297 -0.2704
  129OSM    H7T13877   5.624   1.232   6.077  2.2211  0.3181 -0.3989
  129OSM    C8S13878   5.707   1.057   5.989  0.3105  0.7648 -0.4048
  129OSM    H8S13879   5.703   0.948   6.013 -0.3624  0.2829 -2.5020
  129OSM    H8T13880   5.806   1.095   5.957  0.6512  0.9067  0.7537
  129OSM    C9S13881   5.616   1.089   5.871  0.3868 -0.5954  0.3105
  129OSM    H9S13882   5.631   1.198   5.859  0.7936 -0.6920 -0.1163
  129OSM    H9T13883   5.506   1.080   5.882  0.0856  1.5049 -0.5028
  129OSM   C10S13884   5.650   1.010   5.737 -1.3147  0.4080  0.4090
  129OSM   H10S13885   5.595   0.913   5.735  2.1165 -1.7499  2.3765
  129OSM   H10T13886   5.757   0.984   5.749 -2.1880 -3.5498  0.9646
  129OSM   C11S13887   5.634   1.090   5.607  0.4359 -0.5797 -0.1834
  129OSM   H11S13888   5.700   1.179   5.615 -0.1910 -0.1289  0.0474
  129OSM   H11T13889   5.533   1.135   5.620 -0.3362 -1.6579 -2.0765
  129OSM   C12S13890   5.663   1.007   5.483 -0.1000  0.1946 -0.0037
  129OSM   H12S13891   5.604   0.915   5.504  0.1352 -0.1757 -0.9245
  129OSM   H12T13892   5.771   0.981   5.478  0.6175  2.3808  2.2014
  129OSM   C13S13893   5.615   1.062   5.348  0.6451  0.0200 -0.2060
  129OSM   H13S13894   5.675   1.153   5.325 -2.1599  1.7250 -1.3308
  129OSM   H13T13895   5.509   1.095   5.350  0.6678  0.2949 -1.7215
  129OSM   C14S13896   5.640   0.964   5.231 -0.3302 -0.3120 -0.1981
  129OSM   H14S13897   5.562   0.885   5.242 -1.8888  1.4372  2.5809
  129OSM   H14T13898   5.738   0.911   5.237 -0.0979  0.0033 -1.0401
  129OSM   C15S13899   5.645   1.020   5.093  0.1995  0.2512 -0.9732
  129OSM   H15S13900   5.743   1.074   5.093  0.3695  0.0190  0.7218
  129OSM   H15T13901   5.559   1.085   5.067  0.2004  0.1254 -1.2951
  129OSM   C16S13902   5.652   0.919   4.985  0.0555  0.5052  0.4673
  129OSM   H16S13903   5.573   0.841   4.990  0.7664 -0.6649 -3.4410
  129OSM   H16T13904   5.756   0.880   4.978 -0.2684 -0.4576  0.8221
  129OSM   C17S13905   5.619   0.980   4.842 -0.8246  0.0402 -0.4572
  129OSM   H17S13906   5.513   1.011   4.839 -1.1314 -1.0788 -2.7889
  129OSM   H17T13907   5.640   0.895   4.773 -1.1645  0.0252 -0.5438
  129OSM   C18S13908   5.705   1.099   4.791 -0.4475 -0.3942 -0.3982
  129OSM   H18S13909   5.672   1.133   4.690 -0.3074 -1.9919 -1.0093
  129OSM   H18T13910   5.813   1.078   4.781 -0.6283 -1.2020 -0.7175
  129OSM   H18U13911   5.702   1.181   4.866 -0.7294 -1.1313  0.4158
  129OSM    C1F13912   5.795   1.388   6.596  0.4403 -1.0875  0.1951
  129OSM     OF13913   5.874   1.352   6.680  0.4861 -0.1881  0.3404
  129OSM    C2F13914   5.790   1.532   6.551 -0.0019 -0.5641  0.2915
  129OSM    H2F13915   5.794   1.597   6.641 -0.5600 -1.5713  1.0632
  129OSM    H2G13916   5.693   1.549   6.501  0.1931  0.4607  0.2545
  129OSM    C3F13917   5.910   1.560   6.457 -0.0488 -0.6508  0.0086
  129OSM    H3F13918   6.005   1.549   6.513 -1.5460 -2.2174  2.4307
  129OSM    H3G13919   5.911   1.666   6.424  2.4882 -0.3105  0.9284
  129OSM    C4F13920   5.904   1.467   6.333  0.0723  0.7109  0.4991
  129OSM    H4F13921   5.797   1.470   6.304 -0.1489 -0.3057  1.1846
  129OSM    H4G13922   5.940   1.367   6.364  1.1617  1.5199  2.0412
  129OSM    C5F13923   5.997   1.509   6.219  0.1538  0.3038 -0.0282
  129OSM    H5F13924   6.097   1.514   6.266 -0.4758 -0.6743  1.4562
  129OSM    H5G13925   5.970   1.609   6.178 -0.3897 -0.4876 -1.7017
  129OSM    C6F13926   5.990   1.405   6.107 -0.4575  0.2938  0.2441
  129OSM    H6F13927   5.882   1.388   6.089 -0.4606 -0.7652  1.1336
  129OSM    H6G13928   6.041   1.308   6.127  0.1990  0.3310 -1.1456
  129OSM    C7F13929   6.039   1.459   5.978 -0.0825  0.1840  0.5921
  129OSM    H7F13930   6.123   1.528   6.001 -1.9555  2.1657  1.8032
  129OSM    H7G13931   5.961   1.521   5.930 -2.1993 -1.4660  1.7550
  129OSM    C8F13932   6.085   1.360   5.870  0.9909  0.4649  0.2255
  129OSM    H8F13933   6.140   1.275   5.916  1.3255 -0.5268 -1.9135
  129OSM    H8G13934   6.159   1.407   5.802  1.4684 -0.3419  0.1747
  129OSM    C9F13935   5.966   1.309   5.781 -0.0923  0.4714  0.2871
  129OSM    H9F13936   5.888   1.260   5.841  2.3747 -2.7862  1.1427
  129OSM   C10F13937   5.967   1.306   5.648  0.2826  0.7426 -0.9550
  129OSM   H10F13938   5.878   1.263   5.600  0.0645 -0.0964  0.1535
  129OSM   C11F13939   6.069   1.362   5.554  0.5293  0.0692 -0.9436
  129OSM   H11F13940   6.170   1.380   5.596  0.3733  0.0172 -0.5392
  129OSM   H11G13941   6.024   1.458   5.523 -1.0896 -0.4840 -0.4126
  129OSM   C12F13942   6.088   1.270   5.432  0.9299  0.5837 -0.2242
  129OSM   H12F13943   6.098   1.164   5.464 -2.5078  0.4381  0.7618
  129OSM   H12G13944   6.177   1.300   5.373  1.8689 -1.6804 -0.0332
  129OSM   C13F13945   5.962   1.291   5.341  0.9082  0.4094  0.5555
  129OSM   H13F13946   5.952   1.401   5.329 -0.9690  0.0324 -2.2334
  129OSM   H13G13947   5.870   1.248   5.386 -1.2856  0.4660 -3.4631
  129OSM   C14F13948   5.969   1.235   5.201  0.6071  0.2233 -0.1570
  129OSM   H14F13949   5.925   1.302   5.123 -2.0310 -0.2293  0.8656
  129OSM   H14G13950   5.918   1.137   5.198  0.8687  0.1065 -1.1488
  129OSM   C15F13951   6.106   1.191   5.148  0.1619 -0.3327  0.0573
  129OSM   H15F13952   6.157   1.127   5.223  1.0675  0.3181  0.0129
  129OSM   H15G13953   6.162   1.286   5.138  0.0290 -0.4208 -1.9350
  129OSM   C16F13954   6.079   1.137   5.002  0.1033 -0.7487  0.2764
  129OSM   H16F13955   6.019   1.216   4.952  0.0985 -0.3327  0.9268
  129OSM   H16G13956   6.028   1.039   5.011 -2.0364 -0.1117 -3.1375
  129OSM   C17F13957   6.209   1.117   4.916 -0.0145  0.4929 -0.7696
  129OSM   H17F13958   6.272   1.208   4.910  0.8580 -0.0495 -0.1622
  129OSM   H17G13959   6.185   1.091   4.811  0.6621 -0.3359 -0.7303
  129OSM   C18F13960   6.281   0.995   4.972  0.5513 -0.4735 -0.4939
  129OSM   H18F13961   6.240   0.901   4.928 -1.9370 -0.4589  1.5361
  129OSM   H18G13962   6.266   0.989   5.082 -0.0334 -0.8639 -0.5854
  129OSM   H18H13963   6.389   0.996   4.947  0.1183 -1.0340 -2.6750
  130OSM      N13964   6.098   4.614   6.976  0.2596  0.1108  0.9586
  130OSM    C1513965   6.046   4.539   6.861 -0.5050  0.4917 -0.8449
  130OSM   H15A13966   6.095   4.554   6.766 -0.2159  0.9309 -0.6314
  130OSM   H15B13967   5.940   4.560   6.852 -0.3736  0.6647 -2.2665
  130OSM   H15C13968   6.048   4.433   6.881  1.3674  0.7933  0.9124
  130OSM    C1413969   6.085   4.767   6.945 -0.4573 -0.3501 -0.4776
  130OSM   H14A13970   6.173   4.788   6.886  0.9147  0.3089  1.6659
  130OSM   H14B13971   6.098   4.829   7.033 -0.1317  1.4998 -1.7756
  130OSM   H14C13972   5.994   4.792   6.892  1.2728 -0.0678 -3.5798
  130OSM    C1313973   6.008   4.584   7.089 -0.5983 -0.0947  0.1726
  130OSM   H13A13974   5.993   4.478   7.106  0.7228 -0.8614 -2.8710
  130OSM   H13B13975   5.912   4.625   7.060  0.0313 -0.6219 -2.8923
  130OSM   H13C13976   6.052   4.635   7.173  1.1321  1.4895 -1.6121
  130OSM    C1213977   6.246   4.589   7.012  0.2649 -0.6499 -0.4053
  130OSM   H12A13978   6.264   4.495   7.062 -0.4057  0.4275  2.0084
  130OSM   H12B13979   6.274   4.658   7.090 -2.0386 -1.5913  1.3740
  130OSM    C1113980   6.358   4.605   6.905 -0.0114 -0.5406 -0.4971
  130OSM   H11A13981   6.350   4.543   6.812  2.3389 -1.3879 -0.1890
  130OSM   H11B13982   6.448   4.563   6.955 -0.2013  0.6267  0.8822
  130OSM      P13983   6.479   4.796   6.764  0.4966  0.1536  0.5175
  130OSM    O1313984   6.494   4.936   6.794 -0.2150 -0.1398  0.6235
  130OSM    O1413985   6.601   4.705   6.759 -0.4688  0.1076 -0.1228
  130OSM    O1113986   6.386   4.775   6.637  0.1573 -0.0741 -0.5939
  130OSM    O1213987   6.385   4.748   6.882  0.3192  0.1049 -0.0592
  130OSM    C1S13988   6.245   4.804   6.633  0.4868  0.2917  1.3077
  130OSM    H1S13989   6.227   4.908   6.665 -1.6520  0.8058 -1.2375
  130OSM    H1T13990   6.190   4.732   6.698  0.8224 -2.7185 -1.4933
  130OSM     NF13991   6.089   4.884   6.468 -0.7441  0.2297 -0.3515
  130OSM    HNF13992   5.999   4.853   6.497  1.0120 -2.2585  3.0341
  130OSM    C2S13993   6.191   4.781   6.489  0.0075  0.2899  0.0984
  130OSM    H2S13994   6.264   4.808   6.410 -2.2421  2.5894 -1.3336
  130OSM    C3S13995   6.151   4.627   6.472  0.3175 -0.1233 -0.3260
  130OSM    H3S13996   6.092   4.604   6.564 -0.3070  0.5054 -0.5659
  130OSM     O313997   6.268   4.546   6.486 -0.0779  0.4344 -0.1751
  130OSM    HO313998   6.337   4.596   6.530  0.4582 -1.9108  1.8579
  130OSM    C4S13999   6.077   4.595   6.348  1.0830  0.0895 -0.0950
  130OSM    H4S14000   5.971   4.624   6.349  0.4404 -2.0677  1.8672
  130OSM    C5S14001   6.119   4.533   6.238 -0.0580  0.7989  0.6943
  130OSM    H5S14002   6.217   4.483   6.237 -0.9974 -1.1387  1.5687
  130OSM    C6S14003   6.029   4.502   6.118 -0.3730 -0.3960  0.1947
  130OSM    H6S14004   5.939   4.567   6.128 -1.3734 -1.6433 -0.3522
  130OSM    H6T14005   5.996   4.396   6.108 -1.7976  0.0775 -0.5212
  130OSM    C7S14006   6.096   4.551   5.984  0.1861 -0.4245 -0.0072
  130OSM    H7S14007   6.194   4.498   5.982  0.6082  0.3608 -0.7236
  130OSM    H7T14008   6.129   4.657   5.993 -0.2273 -0.3482  0.6886
  130OSM    C8S14009   6.021   4.537   5.847 -0.6348  0.0988  0.0509
  130OSM    H8S14010   5.926   4.591   5.865  0.6272  2.7408 -0.7638
  130OSM    H8T14011   5.985   4.435   5.822 -0.8518 -0.1553  1.3127
  130OSM    C9S14012   6.091   4.608   5.728 -0.3223 -0.3733  0.2102
  130OSM    H9S14013   6.186   4.550   5.720  1.6243  2.0037  3.7134
  130OSM    H9T14014   6.119   4.710   5.762  0.1267 -0.5788  0.4772
  130OSM   C10S14015   6.018   4.603   5.591  0.0787 -0.2370 -0.0831
  130OSM   H10S14016   5.921   4.656   5.603 -0.0385 -0.8674  2.3786
  130OSM   H10T14017   6.011   4.495   5.568 -2.5979 -0.0438 -0.4395
  130OSM   C11S14018   6.100   4.679   5.485 -0.0194  0.3368  0.5067
  130OSM   H11S14019   6.207   4.654   5.499  0.3193  1.3062 -0.2098
  130OSM   H11T14020   6.081   4.789   5.493 -2.3714  0.0974 -0.8914
  130OSM   C12S14021   6.062   4.628   5.351  0.2992 -0.6323  0.3899
  130OSM   H12S14022   5.952   4.629   5.338  0.3057  1.2436  0.3105
  130OSM   H12T14023   6.082   4.518   5.355 -1.4411 -0.9491  1.1781
  130OSM   C13S14024   6.114   4.709   5.234 -0.8071 -0.0567  1.2460
  130OSM   H13S14025   6.220   4.741   5.241 -0.9080  0.6152  0.0444
  130OSM   H13T14026   6.073   4.812   5.220  0.3984  0.1838 -1.0436
  130OSM   C14S14027   6.094   4.637   5.096  0.4000  0.4179 -0.1207
  130OSM   H14S14028   5.985   4.624   5.080  0.4593 -1.4992  0.7092
  130OSM   H14T14029   6.131   4.533   5.112  1.3887  0.6111 -0.9751
  130OSM   C15S14030   6.166   4.707   4.983 -0.1918 -0.2772  0.0235
  130OSM   H15S14031   6.275   4.698   5.003 -0.5384  0.8880  3.0055
  130OSM   H15T14032   6.138   4.813   4.965  1.7466  0.3139  0.2546
  130OSM   C16S14033   6.131   4.637   4.852 -0.0268  0.3569  0.0603
  130OSM   H16S14034   6.123   4.528   4.874  0.3773  0.6107  1.5740
  130OSM   H16T14035   6.207   4.658   4.773 -1.5175  1.1661 -1.2080
  130OSM   C17S14036   6.004   4.690   4.782 -0.1857 -0.6373  0.3961
  130OSM   H17S14037   6.027   4.798   4.770 -0.8805 -0.5966 -0.7734
  130OSM   H17T14038   5.919   4.690   4.853  0.5019 -0.0685  1.2325
  130OSM   C18S14039   5.960   4.614   4.661  0.5057  0.4388  0.7705
  130OSM   H18S14040   6.048   4.611   4.593 -0.7274  0.7337 -0.9098
  130OSM   H18T14041   5.892   4.668   4.592  1.5155 -0.1467 -0.7364
  130OSM   H18U14042   5.920   4.511   4.678 -0.2099  0.5787 -0.0234
  130OSM    C1F14043   6.106   5.015   6.438 -0.4343  0.2565 -0.5738
  130OSM     OF14044   6.219   5.062   6.433 -0.3306 -0.0081  0.9080
  130OSM    C2F14045   5.987   5.091   6.417  0.0830 -0.5747 -0.0881
  130OSM    H2F14046   6.003   5.198   6.441  0.8731 -0.6662 -0.1857
  130OSM    H2G14047   5.905   5.057   6.484 -0.5013  3.1785  1.3732
  130OSM    C3F14048   5.934   5.076   6.270  0.1661  0.6588 -0.2714
  130OSM    H3F14049   6.018   5.055   6.201  1.5441  0.3796  1.4199
  130OSM    H3G14050   5.894   5.172   6.232  0.2232  1.1226  0.7860
  130OSM    C4F14051   5.842   4.950   6.259  0.4529 -0.0070  0.5122
  130OSM    H4F14052   5.769   4.974   6.338  0.6546 -0.4437  0.8372
  130OSM    H4G14053   5.896   4.855   6.280  3.8287  0.5843 -3.9315
  130OSM    C5F14054   5.777   4.928   6.123 -0.6808  0.5276  0.2380
  130OSM    H5F14055   5.775   5.021   6.061  0.0228 -0.6738 -1.6644
  130OSM    H5G14056   5.675   4.888   6.136 -0.1221 -0.9036  0.3688
  130OSM    C6F14057   5.850   4.828   6.036  0.0469  0.7844 -0.7402
  130OSM    H6F14058   5.812   4.724   6.044 -0.0782  0.9234  0.9203
  130OSM    H6G14059   5.953   4.818   6.076  0.2471 -0.1183 -1.4629
  130OSM    C7F14060   5.855   4.888   5.898 -0.3753  1.1758 -0.2264
  130OSM    H7F14061   5.908   4.822   5.826 -1.4202  1.1308 -0.9832
  130OSM    H7G14062   5.900   4.989   5.907  1.1915  0.3144  2.7263
  130OSM    C8F14063   5.723   4.898   5.828  0.1120  0.4120  0.1682
  130OSM    H8F14064   5.650   4.946   5.896  0.1313  0.8397 -0.1075
  130OSM    H8G14065   5.683   4.803   5.789  0.2317  0.7007 -0.6796
  130OSM    C9F14066   5.726   5.004   5.724  0.3774 -0.0369  0.0615
  130OSM    H9F14067   5.704   5.104   5.764 -1.7894 -1.1299  1.8079
  130OSM   C10F14068   5.747   4.996   5.589  0.4379 -0.4300 -0.2066
  130OSM   H10F14069   5.755   5.087   5.528  0.5371 -0.8246 -0.7896
  130OSM   C11F14070   5.773   4.872   5.507  0.2639  0.2253  0.1972
  130OSM   H11F14071   5.773   4.782   5.572  1.1966  0.4856  0.5775
  130OSM   H11G14072   5.878   4.869   5.470  0.3755 -0.8078  0.5723
  130OSM   C12F14073   5.679   4.845   5.390  0.2523 -0.8119 -0.2256
  130OSM   H12F14074   5.577   4.879   5.418  0.2363 -0.8297 -0.2644
  130OSM   H12G14075   5.671   4.735   5.378 -1.7510 -0.6456 -0.8656
  130OSM   C13F14076   5.721   4.922   5.268 -0.0326  0.1578  0.8205
  130OSM   H13F14077   5.815   4.871   5.240 -2.1114 -1.8727 -3.5150
  130OSM   H13G14078   5.726   5.032   5.279 -1.2003  0.3962 -0.7513
  130OSM   C14F14079   5.632   4.891   5.144  0.5106 -0.4450  0.1283
  130OSM   H14F14080   5.533   4.930   5.174 -0.3730 -1.1684 -1.7128
  130OSM   H14G14081   5.623   4.780   5.140 -4.0535 -0.2737  0.3810
  130OSM   C15F14082   5.695   4.943   5.017 -0.3417  0.6974  0.2608
  130OSM   H15F14083   5.797   4.905   4.999 -1.1163 -0.7040 -1.4087
  130OSM   H15G14084   5.699   5.053   5.034  1.0383  0.4993  1.4051
  130OSM   C16F14085   5.601   4.915   4.900  0.2425  0.1560  0.0547
  130OSM   H16F14086   5.501   4.954   4.927  0.6011  0.0093  1.7307
  130OSM   H16G14087   5.610   4.804   4.892 -1.2605  0.0341 -0.2077
  130OSM   C17F14088   5.654   4.991   4.775  0.7875 -0.0980 -0.5523
  130OSM   H17F14089   5.761   4.963   4.775  0.7723 -0.1907 -1.3363
  130OSM   H17G14090   5.638   5.100   4.791 -0.1891 -0.2078 -0.7283
  130OSM   C18F14091   5.592   4.949   4.637  0.4911 -0.5667 -0.0406
  130OSM   H18F14092   5.624   5.021   4.558  1.3706 -2.0516 -1.0960
  130OSM   H18G14093   5.481   4.956   4.640  0.6110  2.6036  0.0502
  130OSM   H18H14094   5.632   4.848   4.613  1.4577 -0.2713  0.2490
  131OSM      N14095   6.309   6.430   6.961 -0.0587 -0.0865  0.5111
  131OSM    C1514096   6.390   6.352   6.861  0.0076  0.2672 -0.3264
  131OSM   H15A14097   6.437   6.272   6.916 -1.2417  0.0976  0.5435
  131OSM   H15B14098   6.458   6.413   6.804  0.6146 -0.9457 -0.9414
  131OSM   H15C14099   6.325   6.303   6.789  0.0549  1.0378 -0.9121
  131OSM    C1414100   6.239   6.333   7.059 -0.7017 -0.4040 -0.0318
  131OSM   H14A14101   6.180   6.259   7.007  0.2127 -0.2336 -1.3551
  131OSM   H14B14102   6.166   6.389   7.117 -0.9955  0.3276 -1.0685
  131OSM   H14C14103   6.318   6.284   7.113  0.7310 -0.9471 -2.4603
  131OSM    C1314104   6.404   6.522   7.037  0.0111  0.5783  0.2227
  131OSM   H13A14105   6.354   6.597   7.097 -1.2943  1.9792 -2.4289
  131OSM   H13B14106   6.480   6.569   6.977 -0.9850  0.6157 -1.0674
  131OSM   H13C14107   6.468   6.458   7.096 -2.3519 -2.2447 -0.0557
  131OSM    C1214108   6.207   6.509   6.886  0.4065  0.2144  0.1581
  131OSM   H12A14109   6.166   6.574   6.962 -0.7784 -1.6816  1.2155
  131OSM   H12B14110   6.122   6.446   6.862  0.0665  0.3709  0.9164
  131OSM    C1114111   6.251   6.587   6.756 -0.3599  0.2953 -0.2945
  131OSM   H11A14112   6.163   6.641   6.716 -1.0887 -0.8029 -0.2214
  131OSM   H11B14113   6.284   6.517   6.676 -1.5631 -0.9771  0.2787
  131OSM      P14114   6.475   6.711   6.695  0.3240 -0.1688  0.4471
  131OSM    O1314115   6.512   6.855   6.701  0.1457  0.5200 -0.5181
  131OSM    O1414116   6.568   6.607   6.738 -0.0287 -0.7380 -0.4261
  131OSM    O1114117   6.421   6.684   6.550  0.0092 -0.0542 -0.0361
  131OSM    O1214118   6.347   6.690   6.785  0.0561 -0.6772 -0.1186
  131OSM    C1S14119   6.335   6.785   6.489 -0.8579  0.0773 -0.3684
  131OSM    H1S14120   6.381   6.886   6.490  0.7628 -0.6170  1.7007
  131OSM    H1T14121   6.240   6.791   6.547 -0.6710 -0.7432  0.0421
  131OSM     NF14122   6.257   6.848   6.260 -0.0896  0.0859 -0.1008
  131OSM    HNF14123   6.162   6.837   6.233  0.4268 -0.9281 -1.6694
  131OSM    C2S14124   6.316   6.739   6.337  0.1856 -0.3905  0.8371
  131OSM    H2S14125   6.420   6.724   6.301  0.1141  1.0623 -0.0652
  131OSM    C3S14126   6.241   6.603   6.334  0.2793 -0.1733  0.5697
  131OSM    H3S14127   6.138   6.624   6.371  0.7695  3.2061  0.3262
  131OSM     O314128   6.306   6.499   6.416  0.4557  0.0662  0.0354
  131OSM    HO314129   6.371   6.548   6.466  0.1407  1.3897 -0.8086
  131OSM    C4S14130   6.231   6.557   6.195 -0.1181  0.6278  0.2580
  131OSM    H4S14131   6.139   6.593   6.147  0.8018  1.8018 -0.6911
  131OSM    C5S14132   6.313   6.467   6.129  0.0466 -0.1485  0.2596
  131OSM    H5S14133   6.394   6.416   6.184 -0.6913  2.6624  4.4451
  131OSM    C6S14134   6.289   6.411   5.990  0.3763 -0.2066 -0.2503
  131OSM    H6S14135   6.330   6.308   5.980  0.4680 -0.1411 -0.5489
  131OSM    H6T14136   6.343   6.474   5.917 -0.6899 -0.3390 -1.1877
  131OSM    C7S14137   6.141   6.409   5.941 -0.6692  0.7784  0.4727
  131OSM    H7S14138   6.095   6.510   5.952 -2.5363 -0.1025  1.2467
  131OSM    H7T14139   6.082   6.339   6.004 -0.7182 -2.0370 -2.4485
  131OSM    C8S14140   6.125   6.366   5.802 -0.5941  0.1672  0.2191
  131OSM    H8S14141   6.039   6.297   5.798 -0.7353  0.1965  1.9650
  131OSM    H8T14142   6.214   6.312   5.762 -1.6755  0.0398 -2.1805
  131OSM    C9S14143   6.105   6.486   5.713  0.1350 -0.3842 -0.2423
  131OSM    H9S14144   6.196   6.550   5.719 -0.7719  0.8540  4.3685
  131OSM    H9T14145   6.023   6.553   5.749  1.0771  1.6940 -1.7207
  131OSM   C10S14146   6.084   6.441   5.563  0.6491  0.2778 -0.7367
  131OSM   H10S14147   5.993   6.377   5.557  0.6210 -0.3208  3.3552
  131OSM   H10T14148   6.169   6.380   5.527  2.4533  1.4781  1.2865
  131OSM   C11S14149   6.075   6.555   5.453 -0.3391  0.6536 -0.2650
  131OSM   H11S14150   6.134   6.646   5.476  0.8765 -1.2997  6.0211
  131OSM   H11T14151   5.973   6.598   5.448 -1.5088 -1.4191  3.0168
  131OSM   C12S14152   6.124   6.504   5.320 -0.0826 -0.2305 -0.1515
  131OSM   H12S14153   6.080   6.403   5.310  0.4842 -0.8663  2.7022
  131OSM   H12T14154   6.233   6.484   5.317 -0.0699 -0.2734  0.4143
  131OSM   C13S14155   6.085   6.591   5.198 -1.0318 -0.8960 -0.1064
  131OSM   H13S14156   6.098   6.698   5.223 -0.7402 -0.7370 -0.9141
  131OSM   H13T14157   5.977   6.580   5.176 -1.5632  0.5119  1.5491
  131OSM   C14S14158   6.161   6.549   5.072 -0.6444 -0.9973  0.1818
  131OSM   H14S14159   6.269   6.541   5.097 -0.3374 -2.7071 -1.3965
  131OSM   H14T14160   6.154   6.633   5.001  1.1065 -1.3880 -0.5099
  131OSM   C15S14161   6.113   6.420   5.012  0.4218 -0.9003  0.9372
  131OSM   H15S14162   6.076   6.347   5.087 -0.1054 -0.8132  0.7681
  131OSM   H15T14163   6.194   6.361   4.964  1.2091  0.7416  0.1633
  131OSM   C16S14164   6.005   6.439   4.903 -0.0389  1.0273 -0.0238
  131OSM   H16S14165   6.025   6.524   4.835  2.3122  1.3328  0.9622
  131OSM   H16T14166   5.903   6.456   4.944 -0.5608  0.7138 -1.1697
  131OSM   C17S14167   6.019   6.315   4.819  0.5970 -0.3846 -0.1646
  131OSM   H17S14168   6.017   6.217   4.872  1.7531 -1.3357 -1.7781
  131OSM   H17T14169   6.122   6.307   4.778  1.3408  2.2557  0.9551
  131OSM   C18S14170   5.909   6.308   4.710  0.5914  0.2873  0.5301
  131OSM   H18S14171   5.922   6.374   4.622  1.3380  2.5739  2.2704
  131OSM   H18T14172   5.808   6.316   4.754  0.5944  0.4084  0.5159
  131OSM   H18U14173   5.913   6.204   4.671 -0.6053  0.0034  1.1050
  131OSM    C1F14174   6.330   6.959   6.241  0.3059  0.4918 -0.1267
  131OSM     OF14175   6.442   6.977   6.283 -0.1021 -0.2363 -0.3244
  131OSM    C2F14176   6.250   7.065   6.177 -0.1468 -0.3962  0.0838
  131OSM    H2F14177   6.248   7.154   6.244 -0.6397 -0.8155  0.6366
  131OSM    H2G14178   6.146   7.035   6.152 -0.1538  0.4212 -0.9618
  131OSM    C3F14179   6.310   7.107   6.039 -0.1462 -0.4969 -0.2549
  131OSM    H3F14180   6.419   7.128   6.039 -0.0908 -0.6457  1.8992
  131OSM    H3G14181   6.257   7.198   6.005 -1.4793 -0.4646  1.7400
  131OSM    C4F14182   6.301   6.993   5.936 -0.0190  0.8298  0.7464
  131OSM    H4F14183   6.218   6.928   5.971  0.9777 -0.5923  0.5762
  131OSM    H4G14184   6.390   6.927   5.938 -2.0203 -2.0724  2.3089
  131OSM    C5F14185   6.296   7.043   5.790 -0.0944  0.8076 -0.4478
  131OSM    H5F14186   6.393   7.094   5.773  0.4215  0.1536  0.4859
  131OSM    H5G14187   6.221   7.126   5.790  0.0240  0.9167 -0.7147
  131OSM    C6F14188   6.245   6.936   5.691  0.1588  0.1129  0.9334
  131OSM    H6F14189   6.152   6.896   5.737 -0.3066 -0.0758 -0.1389
  131OSM    H6G14190   6.317   6.852   5.682  0.8157  0.8371 -1.2340
  131OSM    C7F14191   6.220   6.992   5.545 -0.7069 -0.0186  0.0161
  131OSM    H7F14192   6.131   7.057   5.563  0.9463  2.5706 -0.7201
  131OSM    H7G14193   6.186   6.906   5.483  0.1452  0.8976 -1.7724
  131OSM    C8F14194   6.328   7.079   5.477  0.1471  0.0019  0.9142
  131OSM    H8F14195   6.428   7.038   5.453  0.5985  1.8180 -0.6314
  131OSM    H8G14196   6.351   7.159   5.551  0.0199 -0.0669  1.0295
  131OSM    C9F14197   6.269   7.156   5.361 -0.2846 -0.4424  0.4662
  131OSM    H9F14198   6.248   7.263   5.379 -2.2075 -1.0174  1.9654
  131OSM   C10F14199   6.250   7.112   5.233 -0.3028 -1.1214  0.1012
  131OSM   H10F14200   6.207   7.183   5.161  1.8061 -1.9420 -2.1152
  131OSM   C11F14201   6.280   6.980   5.166 -0.2085  0.3472 -0.2925
  131OSM   H11F14202   6.181   6.937   5.142 -0.0031 -0.7071  0.6643
  131OSM   H11G14203   6.320   6.907   5.240  0.3261  1.2596  0.3375
  131OSM   C12F14204   6.387   6.991   5.053  1.3269 -0.6499  0.1606
  131OSM   H12F14205   6.353   7.064   4.976  2.6953 -1.7168 -1.5125
  131OSM   H12G14206   6.389   6.899   4.992  1.2383  0.0719 -0.9724
  131OSM   C13F14207   6.526   7.019   5.106  0.3432  0.5366 -0.2717
  131OSM   H13F14208   6.561   6.928   5.159 -1.9077  0.4146  1.1584
  131OSM   H13G14209   6.528   7.106   5.176  0.3231 -1.3542  2.2000
  131OSM   C14F14210   6.615   7.038   4.983 -0.3049 -0.7146 -0.0015
  131OSM   H14F14211   6.591   7.141   4.951 -0.8387 -0.0365  2.3729
  131OSM   H14G14212   6.591   6.965   4.903  0.0763  1.3233 -2.0786
  131OSM   C15F14213   6.764   7.032   5.001 -0.5705  0.5378 -0.4919
  131OSM   H15F14214   6.784   6.922   5.003 -3.6101 -0.1772 -2.2914
  131OSM   H15G14215   6.794   7.063   5.103 -1.6425 -0.9885  0.3414
  131OSM   C16F14216   6.857   7.106   4.904  0.0320  0.3937 -0.3229
  131OSM   H16F14217   6.953   7.131   4.954 -0.9266  1.8382  0.8748
  131OSM   H16G14218   6.802   7.200   4.883 -1.7816 -0.8799 -1.5667
  131OSM   C17F14219   6.874   7.034   4.773  0.0784  0.8991  0.1234
  131OSM   H17F14220   6.774   7.006   4.734 -0.1179 -0.1797  1.3463
  131OSM   H17G14221   6.920   6.934   4.789  0.5693  0.9840 -0.7075
  131OSM   C18F14222   6.960   7.113   4.675 -0.5969  0.4703  0.3622
  131OSM   H18F14223   6.933   7.091   4.570 -1.0789  1.5975  0.2437
  131OSM   H18G14224   7.067   7.093   4.699  0.1296 -0.8410 -3.3632
  131OSM   H18H14225   6.946   7.223   4.683  1.4254  1.2089 -3.7318
  132OSM      N14226   0.643   3.579   7.157  0.3555 -0.1447  0.5449
  132OSM    C1514227   0.752   3.597   7.062 -0.6721 -0.2141 -0.1886
  132OSM   H15A14228   0.825   3.654   7.119 -0.6157 -1.8843  1.5475
  132OSM   H15B14229   0.728   3.664   6.981  0.9353  0.7676  0.1087
  132OSM   H15C14230   0.784   3.507   7.012 -0.9484  0.3541 -1.4278
  132OSM    C1414231   0.530   3.521   7.083 -0.3742  0.2173  0.1017
  132OSM   H14A14232   0.489   3.595   7.017  0.5345  0.8353  0.2142
  132OSM   H14B14233   0.450   3.491   7.148 -0.2824 -1.6179 -0.5574
  132OSM   H14C14234   0.555   3.426   7.037 -0.4277  0.6512 -0.8397
  132OSM    C1314235   0.688   3.481   7.268  0.7385  0.5499  0.3564
  132OSM   H13A14236   0.795   3.479   7.271  0.8426  0.5074 -1.6921
  132OSM   H13B14237   0.650   3.383   7.243 -0.7505 -0.2060  4.7184
  132OSM   H13C14238   0.639   3.512   7.360  2.7713  0.6135  1.4645
  132OSM    C1214239   0.604   3.713   7.213 -0.3668 -0.5630  0.3079
  132OSM   H12A14240   0.685   3.739   7.281  0.3235 -2.7352  0.4028
  132OSM   H12B14241   0.515   3.708   7.273 -1.3787  0.7198 -1.0072
  132OSM    C1114242   0.593   3.842   7.127  0.2196 -0.9969  0.3133
  132OSM   H11A14243   0.688   3.859   7.071  0.8702 -1.9977  1.0789
  132OSM   H11B14244   0.593   3.928   7.198 -0.6664  0.5373 -1.4380
  132OSM      P14245   0.461   3.850   6.898  0.1168 -0.2428 -0.1982
  132OSM    O1314246   0.495   3.716   6.847  0.1895  0.0099  0.2673
  132OSM    O1414247   0.325   3.904   6.856  0.5442  0.8355  0.2758
  132OSM    O1114248   0.567   3.959   6.848 -0.8509  0.0625  0.6224
  132OSM    O1214249   0.470   3.854   7.053  0.3676  0.5242  0.7151
  132OSM    C1S14250   0.620   3.937   6.711 -0.7577 -0.0793 -0.0774
  132OSM    H1S14251   0.647   3.830   6.697  0.9565  0.2878  0.1764
  132OSM    H1T14252   0.714   3.996   6.706 -0.1277 -1.1305 -1.7126
  132OSM     NF14253   0.585   3.961   6.463  0.9392 -0.3372  0.2878
  132OSM    HNF14254   0.605   4.047   6.415 -0.8583  0.0112  0.1125
  132OSM    C2S14255   0.523   3.995   6.593  0.2497  0.6074 -0.6603
  132OSM    H2S14256   0.434   3.930   6.605  1.3898 -0.7714  0.8918
  132OSM    C3S14257   0.485   4.138   6.614 -0.7190  0.2696 -0.0152
  132OSM    H3S14258   0.578   4.198   6.610  0.9380 -2.0523  1.5392
  132OSM     O314259   0.426   4.163   6.739  0.2812 -0.7608 -0.1180
  132OSM    HO314260   0.418   4.082   6.791  1.8896 -0.2128  1.0584
  132OSM    C4S14261   0.383   4.180   6.513  1.3229 -0.0450  0.1276
  132OSM    H4S14262   0.287   4.126   6.525  1.6887 -0.8393 -0.4702
  132OSM    C5S14263   0.382   4.285   6.425 -0.2143  0.6186  0.7040
  132OSM    H5S14264   0.463   4.359   6.425 -0.1432  0.5404  0.6532
  132OSM    C6S14265   0.269   4.332   6.339  0.2380  0.0927  0.0422
  132OSM    H6S14266   0.231   4.431   6.373 -0.8408 -0.8397  1.6960
  132OSM    H6T14267   0.191   4.252   6.339  0.2350  0.0868  0.6710
  132OSM    C7S14268   0.311   4.336   6.195  0.2044  0.1209  0.1306
  132OSM    H7S14269   0.342   4.235   6.161  1.9628  0.8117 -0.4299
  132OSM    H7T14270   0.391   4.408   6.169  0.1801  0.4692  1.0080
  132OSM    C8S14271   0.194   4.366   6.096 -0.5656  0.7789  0.1490
  132OSM    H8S14272   0.139   4.455   6.134 -0.2872  0.2733  1.7959
  132OSM    H8T14273   0.118   4.285   6.101 -0.1109  0.3573  0.2613
  132OSM    C9S14274   0.241   4.374   5.951 -0.2735  0.7647 -0.1537
  132OSM    H9S14275   0.302   4.283   5.933 -2.1647 -0.2921 -1.6031
  132OSM    H9T14276   0.302   4.465   5.939  0.3012  0.2837 -0.9458
  132OSM   C10S14277   0.135   4.382   5.841 -0.2266 -0.0895  0.2649
  132OSM   H10S14278   0.076   4.477   5.845 -0.4956 -0.1951 -0.7546
  132OSM   H10T14279   0.074   4.290   5.850 -0.0856 -0.4388 -1.7156
  132OSM   C11S14280   0.201   4.376   5.707 -0.0577  0.5806 -0.1069
  132OSM   H11S14281   0.254   4.280   5.690 -2.5342 -1.0767  0.8540
  132OSM   H11T14282   0.284   4.449   5.700 -1.0608  1.9189  1.2908
  132OSM   C12S14283   0.099   4.400   5.595  0.4984 -0.0887  0.5950
  132OSM   H12S14284   0.032   4.487   5.614 -1.3641 -0.9139 -1.6349
  132OSM   H12T14285   0.020   4.321   5.600 -0.0731  0.5640  2.9670
  132OSM   C13S14286   0.160   4.394   5.449  0.0210 -0.0711 -0.9776
  132OSM   H13S14287   0.255   4.452   5.457  0.1054 -0.3909  1.0200
  132OSM   H13T14288   0.085   4.451   5.390  0.0598  1.3243  0.2428
  132OSM   C14S14289   0.195   4.261   5.389 -0.3699  0.0613  0.2364
  132OSM   H14S14290   0.116   4.185   5.371  0.9839 -1.7318  1.3947
  132OSM   H14T14291   0.277   4.212   5.447  1.3244  1.1749 -1.1220
  132OSM   C15S14292   0.239   4.281   5.234  1.0086 -0.2280  0.2029
  132OSM   H15S14293   0.319   4.357   5.227 -0.9145  1.7979 -1.7584
  132OSM   H15T14294   0.156   4.329   5.176  1.9714 -0.9233 -1.8687
  132OSM   C16S14295   0.277   4.141   5.178 -0.7410 -0.3098 -0.4663
  132OSM   H16S14296   0.202   4.068   5.215 -0.3637 -0.4897 -0.0545
  132OSM   H16T14297   0.365   4.113   5.239 -1.5839  0.0764  0.9767
  132OSM   C17S14298   0.287   4.124   5.029 -0.5938 -0.8612  1.1457
  132OSM   H17S14299   0.360   4.203   4.999 -0.9029  0.7213  4.1357
  132OSM   H17T14300   0.191   4.152   4.982  0.5024  1.3589  0.0867
  132OSM   C18S14301   0.328   3.979   4.985  0.2618 -0.2582 -0.2686
  132OSM   H18S14302   0.434   3.961   5.012  1.2888  3.1530 -1.4752
  132OSM   H18T14303   0.314   3.994   4.876  0.2806  1.5234 -0.0591
  132OSM   H18U14304   0.260   3.905   5.031  0.2235  0.8848  1.6246
  132OSM    C1F14305   0.596   3.844   6.403  0.3331  0.7907 -0.2118
  132OSM     OF14306   0.554   3.738   6.451 -0.2268  0.3415  0.1077
  132OSM    C2F14307   0.658   3.850   6.268 -0.2922 -0.3126  0.1124
  132OSM    H2F14308   0.751   3.789   6.273 -0.4923 -0.5233  2.2818
  132OSM    H2G14309   0.689   3.950   6.231  0.8670 -1.2828 -1.6971
  132OSM    C3F14310   0.559   3.790   6.176  0.3515 -0.7774  0.9785
  132OSM    H3F14311   0.457   3.822   6.206  0.1937 -2.5271  2.3949
  132OSM    H3G14312   0.545   3.681   6.190  0.2260 -0.8944  0.0208
  132OSM    C4F14313   0.599   3.811   6.029  0.3263 -0.1262 -0.5595
  132OSM    H4F14314   0.515   3.761   5.977 -2.4618  1.6480  1.9028
  132OSM    H4G14315   0.695   3.760   6.007 -0.7842 -2.7162  0.2203
  132OSM    C5F14316   0.611   3.957   5.982 -0.1150 -0.0067  0.5325
  132OSM    H5F14317   0.707   3.991   6.026 -0.1305 -1.0054  1.3935
  132OSM    H5G14318   0.531   4.015   6.034  0.4550 -0.6539  2.2098
  132OSM    C6F14319   0.632   3.983   5.838 -0.3685 -0.4158 -0.0989
  132OSM    H6F14320   0.583   3.908   5.772  1.6836 -1.9344 -0.0064
  132OSM    H6G14321   0.741   3.970   5.819 -0.8525 -1.7420 -2.3267
  132OSM    C7F14322   0.592   4.128   5.802  0.2391 -1.1252  0.1117
  132OSM    H7F14323   0.606   4.188   5.895 -0.0750  0.7064 -0.9708
  132OSM    H7G14324   0.484   4.138   5.778  0.0089  0.5413  1.5607
  132OSM    C8F14325   0.691   4.188   5.696 -1.0831 -0.2989  0.5629
  132OSM    H8F14326   0.677   4.131   5.602  1.1705  1.3444 -0.8859
  132OSM    H8G14327   0.798   4.176   5.723 -1.1638 -1.0949  0.5472
  132OSM    C9F14328   0.680   4.335   5.689  0.2328  0.0998  0.4481
  132OSM    H9F14329   0.709   4.392   5.778 -0.2378  0.1973  0.5394
  132OSM   C10F14330   0.642   4.412   5.583 -0.7095  0.1280  0.7094
  132OSM   H10F14331   0.631   4.520   5.601  1.6051  0.5875 -0.2508
  132OSM   C11F14332   0.613   4.358   5.447 -0.3135  0.5678  1.2669
  132OSM   H11F14333   0.531   4.422   5.407  1.9995  2.6619 -0.4100
  132OSM   H11G14334   0.574   4.254   5.450 -1.8001  1.1138  2.8122
  132OSM   C12F14335   0.732   4.366   5.347  0.3852 -0.5525  0.6175
  132OSM   H12F14336   0.784   4.269   5.354 -0.5350 -1.0931  0.1224
  132OSM   H12G14337   0.807   4.447   5.361  1.4125 -1.1089 -1.3546
  132OSM   C13F14338   0.688   4.376   5.193 -0.6632  0.7854 -0.0300
  132OSM   H13F14339   0.625   4.465   5.171 -1.4745  0.4628  0.9081
  132OSM   H13G14340   0.627   4.285   5.176  0.8616 -0.6338  1.5841
  132OSM   C14F14341   0.811   4.383   5.100 -0.0374 -0.1750 -0.0995
  132OSM   H14F14342   0.893   4.319   5.141  0.1983 -0.2584 -0.6883
  132OSM   H14G14343   0.840   4.490   5.104 -1.0824  0.1988 -1.6686
  132OSM   C15F14344   0.766   4.354   4.957  0.1935 -0.5081 -0.1162
  132OSM   H15F14345   0.845   4.379   4.883  2.3185 -2.6468  1.2885
  132OSM   H15G14346   0.677   4.417   4.934  0.1900  0.2370  1.7314
  132OSM   C16F14347   0.735   4.202   4.934 -0.4602  0.4619  0.4339
  132OSM   H16F14348   0.644   4.173   4.989 -0.8702 -0.0185 -0.4720
  132OSM   H16G14349   0.821   4.139   4.969 -0.8765 -0.9272 -0.9265
  132OSM   C17F14350   0.709   4.180   4.783  0.2321 -0.1262  0.0770
  132OSM   H17F14351   0.800   4.188   4.719  0.6093 -2.3410  0.2418
  132OSM   H17G14352   0.645   4.264   4.749  1.4356  0.0680 -1.8916
  132OSM   C18F14353   0.646   4.043   4.747 -0.3284 -0.0384 -0.5889
  132OSM   H18F14354   0.538   4.046   4.771 -0.2728  1.0149 -0.4317
  132OSM   H18G14355   0.686   3.963   4.813 -0.7862  0.5592  0.4415
  132OSM   H18H14356   0.660   4.012   4.642  0.6746  2.0289 -1.1232
  133OSM      N14357   5.134   3.426   7.289  0.0312  0.3355  0.1112
  133OSM    C1514358   5.036   3.325   7.340 -0.4640 -0.5757  0.3893
  133OSM   H15A14359   4.968   3.291   7.262  0.1454  0.3197 -0.5645
  133OSM   H15B14360   4.985   3.369   7.424 -0.8155  3.7634 -1.8152
  133OSM   H15C14361   5.088   3.238   7.380  1.7515  1.9053  3.3843
  133OSM    C1414362   5.064   3.548   7.247  0.0817  0.4395 -0.1087
  133OSM   H14A14363   5.016   3.527   7.153  0.6725  0.9430 -0.5236
  133OSM   H14B14364   5.125   3.633   7.224  0.8977  0.4834  2.0168
  133OSM   H14C14365   4.998   3.582   7.325 -0.2838  1.3370 -0.7918
  133OSM    C1314366   5.217   3.466   7.405  0.1250 -0.1106  0.7265
  133OSM   H13A14367   5.152   3.486   7.489 -1.4253 -0.6681 -0.2757
  133OSM   H13B14368   5.258   3.564   7.391  0.3691 -0.1102  1.4246
  133OSM   H13C14369   5.287   3.388   7.430 -1.0947 -0.6517  2.6598
  133OSM    C1214370   5.220   3.372   7.168  0.2199  0.2087 -0.2072
  133OSM   H12A14371   5.288   3.295   7.204 -1.0579 -2.2552 -2.6621
  133OSM   H12B14372   5.275   3.457   7.131 -1.0296  0.9606 -0.3860
  133OSM    C1114373   5.147   3.318   7.045  0.7489 -0.3499  0.2551
  133OSM   H11A14374   5.221   3.312   6.962  2.7972 -0.8794  2.0199
  133OSM   H11B14375   5.085   3.395   6.995  2.2160  0.2502 -0.7157
  133OSM      P14376   4.940   3.162   7.000 -0.0131 -0.2175 -0.3346
  133OSM    O1314377   4.927   3.017   7.013  0.4353  0.1353  0.4256
  133OSM    O1414378   4.834   3.244   7.056  0.1636  0.3241 -0.5834
  133OSM    O1114379   4.958   3.203   6.853  0.0123  0.5641  0.3111
  133OSM    O1214380   5.079   3.194   7.071 -0.6865  0.6231 -0.3572
  133OSM    C1S14381   5.036   3.135   6.759 -0.2271 -0.6627  0.2601
  133OSM    H1S14382   5.020   3.025   6.748  0.1769 -0.7478  0.5086
  133OSM    H1T14383   5.145   3.148   6.776  0.4239 -2.0444 -2.2334
  133OSM     NF14384   5.071   3.102   6.514 -0.3067  0.3096  0.0282
  133OSM    HNF14385   5.144   3.156   6.471  1.2530 -0.5701  1.4294
  133OSM    C2S14386   4.997   3.182   6.619 -0.0893 -0.1917  0.5666
  133OSM    H2S14387   4.892   3.150   6.605 -0.0820  0.1156 -0.2687
  133OSM    C3S14388   4.994   3.336   6.602  0.1657 -0.4153  0.3694
  133OSM    H3S14389   5.099   3.369   6.618  0.3679 -1.1177  0.5284
  133OSM     O314390   4.903   3.389   6.695  0.0742  0.2500  0.7712
  133OSM    HO314391   4.898   3.319   6.761 -0.2812 -0.6801 -0.2011
  133OSM    C4S14392   4.941   3.376   6.467 -0.4957 -0.2547 -0.2462
  133OSM    H4S14393   4.841   3.336   6.445  0.5039 -1.3558 -3.4269
  133OSM    C5S14394   5.007   3.438   6.374 -0.3259 -1.3694 -0.3390
  133OSM    H5S14395   5.113   3.469   6.376 -0.4414 -1.0154  0.2194
  133OSM    C6S14396   4.942   3.465   6.242  0.3521 -0.3204 -0.3887
  133OSM    H6S14397   4.898   3.566   6.253 -1.3856 -1.2457  2.2129
  133OSM    H6T14398   4.862   3.389   6.235 -0.3202  0.4619 -1.3236
  133OSM    C7S14399   5.043   3.457   6.119 -0.9021  0.4039  0.0004
  133OSM    H7S14400   5.089   3.356   6.118 -0.6781  0.5076 -0.4588
  133OSM    H7T14401   5.132   3.521   6.134 -0.6884  0.2640 -0.6428
  133OSM    C8S14402   4.976   3.475   5.982  0.0272 -0.2951 -0.1680
  133OSM    H8S14403   4.937   3.580   5.984  0.7785 -0.0166  0.7458
  133OSM    H8T14404   4.880   3.421   5.968  0.4938 -1.0617 -0.4728
  133OSM    C9S14405   5.065   3.450   5.862 -0.6895 -0.7655 -0.4004
  133OSM    H9S14406   5.096   3.344   5.873  0.6921 -0.0900  4.9300
  133OSM    H9T14407   5.155   3.514   5.870 -0.1641 -1.4728 -0.6105
  133OSM   C10S14408   4.991   3.500   5.738 -0.0580 -0.6630  0.0897
  133OSM   H10S14409   4.979   3.611   5.737 -0.0121 -0.6586 -0.0553
  133OSM   H10T14410   4.885   3.468   5.728 -1.5140  3.4201  0.5580
  133OSM   C11S14411   5.074   3.468   5.607  0.6583 -0.6317 -0.6048
  133OSM   H11S14412   5.087   3.358   5.603 -0.9792 -0.8130 -2.1037
  133OSM   H11T14413   5.174   3.516   5.610  1.3154 -2.0169  1.2750
  133OSM   C12S14414   4.997   3.518   5.485  0.0115 -0.2006  0.1598
  133OSM   H12S14415   5.000   3.629   5.475 -2.7235 -0.0318  0.4306
  133OSM   H12T14416   4.890   3.491   5.494 -0.0711 -0.6383 -1.7640
  133OSM   C13S14417   5.052   3.449   5.355 -0.0972 -0.4212 -0.0990
  133OSM   H13S14418   5.031   3.341   5.376 -0.1597 -0.5991 -1.0508
  133OSM   H13T14419   5.160   3.475   5.351  0.5260 -2.4013  1.8109
  133OSM   C14S14420   4.984   3.482   5.218  0.1996  0.1315  0.0458
  133OSM   H14S14421   4.968   3.592   5.214 -1.0572  0.0063  0.8874
  133OSM   H14T14422   4.883   3.434   5.219 -0.5405  1.5689 -1.4000
  133OSM   C15S14423   5.058   3.437   5.096  0.0773  0.0616  0.4449
  133OSM   H15S14424   5.077   3.328   5.106 -3.0961 -0.4819  2.0417
  133OSM   H15T14425   5.155   3.490   5.085 -0.1605  0.9806  2.3609
  133OSM   C16S14426   4.965   3.448   4.968  0.5977 -0.0387 -0.5294
  133OSM   H16S14427   4.934   3.552   4.943 -3.3916 -0.3121  2.2836
  133OSM   H16T14428   4.872   3.403   5.009  0.6706  0.5976  0.3694
  133OSM   C17S14429   5.018   3.375   4.845 -0.5100 -1.3925 -0.3838
  133OSM   H17S14430   5.047   3.272   4.875  0.0924 -0.9262  0.7101
  133OSM   H17T14431   5.116   3.423   4.824 -0.5634  0.4241  2.8174
  133OSM   C18S14432   4.925   3.394   4.737  0.0801 -0.2378  0.0056
  133OSM   H18S14433   4.956   3.318   4.662 -1.1429 -0.2117 -0.5500
  133OSM   H18T14434   4.938   3.494   4.691 -0.0488  1.1561  2.7686
  133OSM   H18U14435   4.819   3.369   4.761  0.5710 -1.7353  0.7552
  133OSM    C1F14436   5.050   2.971   6.483 -0.6844  0.3134  1.3598
  133OSM     OF14437   4.966   2.898   6.540  0.0420 -0.2576  0.2459
  133OSM    C2F14438   5.124   2.915   6.360 -0.2595 -1.0484  0.7020
  133OSM    H2F14439   5.093   2.812   6.334  0.5798 -0.8400 -1.4055
  133OSM    H2G14440   5.231   2.908   6.389  0.5233  1.5125 -1.1472
  133OSM    C3F14441   5.118   3.010   6.229  0.3606 -0.6759  0.2415
  133OSM    H3F14442   5.155   3.112   6.249  2.2831 -1.1060 -0.8260
  133OSM    H3G14443   5.010   3.008   6.204  1.1317 -2.8543 -3.8887
  133OSM    C4F14444   5.182   2.955   6.105 -0.0119  0.1061  0.4957
  133OSM    H4F14445   5.151   2.851   6.083  0.5717 -0.2812  1.4287
  133OSM    H4G14446   5.293   2.960   6.118 -0.0279 -0.4525  0.9090
  133OSM    C5F14447   5.152   3.044   5.982  0.0499 -0.1701  0.4950
  133OSM    H5F14448   5.185   3.141   6.025  2.4109 -0.4564 -0.5056
  133OSM    H5G14449   5.045   3.041   5.954  0.3581  0.4018 -0.7869
  133OSM    C6F14450   5.235   3.011   5.864 -0.4957  0.4399  0.1031
  133OSM    H6F14451   5.259   2.903   5.852 -0.4674  0.3862  0.6292
  133OSM    H6G14452   5.335   3.057   5.878 -0.5064 -0.0645  2.1071
  133OSM    C7F14453   5.192   3.072   5.728  0.2100  0.3493  0.5921
  133OSM    H7F14454   5.176   3.180   5.744 -1.8637 -0.0227  1.3243
  133OSM    H7G14455   5.096   3.031   5.691  0.8762  0.5181 -1.4466
  133OSM    C8F14456   5.300   3.073   5.621  0.0810  0.6651 -0.0331
  133OSM    H8F14457   5.398   3.089   5.671 -0.5419  2.2711  0.7325
  133OSM    H8G14458   5.295   3.165   5.559 -0.0041  0.8651  0.2684
  133OSM    C9F14459   5.302   2.944   5.541 -0.7721 -0.4183 -1.0833
  133OSM    H9F14460   5.312   2.857   5.607  1.2791  0.1188 -0.6132
  133OSM   C10F14461   5.282   2.927   5.413  0.4813  0.4871 -0.4482
  133OSM   H10F14462   5.302   2.826   5.373 -0.8784  0.1059 -0.2444
  133OSM   C11F14463   5.262   3.031   5.306  0.5639  0.6175  0.7352
  133OSM   H11F14464   5.259   3.136   5.340 -0.5551  0.7040  0.4035
  133OSM   H11G14465   5.177   3.016   5.236  2.5227  1.2988 -1.9747
  133OSM   C12F14466   5.380   3.038   5.207  0.2593 -0.3498 -0.6119
  133OSM   H12F14467   5.476   3.047   5.261  0.3356  0.2753 -0.8450
  133OSM   H12G14468   5.359   3.125   5.141 -1.1475 -0.5004 -0.4083
  133OSM   C13F14469   5.382   2.912   5.114  0.0013 -0.4347  0.5416
  133OSM   H13F14470   5.276   2.889   5.090  0.0597 -1.0155  0.7989
  133OSM   H13G14471   5.429   2.830   5.173  0.8156  0.9558  1.9057
  133OSM   C14F14472   5.475   2.919   4.982  1.0665 -0.6495  0.3879
  133OSM   H14F14473   5.448   3.017   4.937 -1.8871 -0.6421  1.9004
  133OSM   H14G14474   5.442   2.831   4.922  3.6345 -0.0914 -2.0798
  133OSM   C15F14475   5.623   2.911   4.995 -0.1726 -0.7726  0.1927
  133OSM   H15F14476   5.682   2.994   5.041 -1.9049  0.3174  0.5581
  133OSM   H15G14477   5.656   2.908   4.889 -0.2176  3.2345 -0.1014
  133OSM   C16F14478   5.679   2.784   5.063  0.6399 -0.2381 -0.1572
  133OSM   H16F14479   5.761   2.736   5.006  0.7283 -3.1907  2.2312
  133OSM   H16G14480   5.597   2.710   5.053 -0.0936  0.4068  0.9038
  133OSM   C17F14481   5.725   2.810   5.210  0.3219  0.1558  0.0268
  133OSM   H17F14482   5.634   2.843   5.265 -0.9035  1.4190 -2.5860
  133OSM   H17G14483   5.794   2.898   5.203 -2.0959  2.2180  0.5830
  133OSM   C18F14484   5.784   2.684   5.269 -0.2981 -0.0083 -0.3496
  133OSM   H18F14485   5.705   2.611   5.297  0.7555 -0.7989  0.6995
  133OSM   H18G14486   5.850   2.704   5.356 -1.2053 -0.0947  0.3813
  133OSM   H18H14487   5.853   2.636   5.196  1.0752 -0.3761  1.1178
  134OSM      N14488   4.145   0.710   7.322 -0.2467 -0.0382  0.0848
  134OSM    C1514489   4.061   0.825   7.363 -0.1033  1.1200 -0.2443
  134OSM   H15A14490   4.000   0.792   7.445  0.6528  0.7014  0.1577
  134OSM   H15B14491   4.002   0.859   7.279  1.0942  2.0726 -0.7303
  134OSM   H15C14492   4.128   0.903   7.398  0.6083 -0.4805  2.2103
  134OSM    C1414493   4.254   0.759   7.230  0.3175  0.4643 -0.3023
  134OSM   H14A14494   4.207   0.806   7.145 -1.3521  0.8072  0.7789
  134OSM   H14B14495   4.319   0.678   7.198  2.1176  1.9060 -0.4610
  134OSM   H14C14496   4.318   0.830   7.280 -0.4993 -0.5211  2.3440
  134OSM    C1314497   4.206   0.640   7.435  0.2232 -0.0097 -0.7374
  134OSM   H13A14498   4.283   0.565   7.423  0.0962 -0.6067  1.6608
  134OSM   H13B14499   4.127   0.587   7.486  0.2158  0.6863 -0.0059
  134OSM   H13C14500   4.236   0.717   7.505 -2.0276 -0.1463  0.4810
  134OSM    C1214501   4.056   0.614   7.247  0.5014  0.3669  0.0494
  134OSM   H12A14502   3.970   0.595   7.309  0.1747 -1.8938 -1.0134
  134OSM   H12B14503   4.105   0.525   7.210 -0.8068  0.2746 -1.5662
  134OSM    C1114504   3.974   0.666   7.125 -0.3189 -0.2605 -0.2111
  134OSM   H11A14505   3.943   0.582   7.060  0.7598 -0.5995 -0.3161
  134OSM   H11B14506   4.052   0.718   7.066  0.8673  1.7035  2.8404
  134OSM      P14507   3.728   0.706   7.214 -0.2511  0.1953  0.1191
  134OSM    O1314508   3.757   0.605   7.319 -0.1374 -0.1413  0.0782
  134OSM    O1414509   3.643   0.826   7.242  0.4828  0.2709  0.0898
  134OSM    O1114510   3.687   0.631   7.078 -0.2331 -0.1720  0.0155
  134OSM    O1214511   3.871   0.755   7.174 -0.5571 -0.6621  0.2252
  134OSM    C1S14512   3.638   0.698   6.960  0.2816 -0.7782 -0.1843
  134OSM    H1S14513   3.644   0.807   6.977  0.8608 -0.8413  0.0370
  134OSM    H1T14514   3.529   0.682   6.952 -0.4000  1.7395  2.4463
  134OSM     NF14515   3.677   0.771   6.729  0.4066  0.2059 -0.0430
  134OSM    HNF14516   3.612   0.741   6.660  1.5315 -1.1539 -0.5563
  134OSM    C2S14517   3.715   0.674   6.831 -0.1844  0.3942  0.0617
  134OSM    H2S14518   3.821   0.691   6.861  0.3939 -1.8568 -0.5041
  134OSM    C3S14519   3.707   0.519   6.797 -0.5222  0.0059  0.1869
  134OSM    H3S14520   3.604   0.479   6.808 -0.4335  0.3013  2.6568
  134OSM     O314521   3.781   0.443   6.888  0.3805 -0.2550  0.6470
  134OSM    HO314522   3.791   0.512   6.953 -0.7894  1.4703 -0.8985
  134OSM    C4S14523   3.755   0.493   6.660  0.0827  1.2901 -0.1527
  134OSM    H4S14524   3.861   0.464   6.651  0.1815  1.1943  1.1281
  134OSM    C5S14525   3.679   0.488   6.552 -0.6052  0.8360  0.2858
  134OSM    H5S14526   3.575   0.523   6.555 -1.1918  0.6483 -5.4148
  134OSM    C6S14527   3.713   0.463   6.409 -0.1722  0.3439 -0.0422
  134OSM    H6S14528   3.625   0.432   6.348 -0.3125 -1.0858  0.8230
  134OSM    H6T14529   3.788   0.381   6.397  2.3243  2.4004  0.5203
  134OSM    C7S14530   3.769   0.596   6.345  0.3139  0.2446 -0.3550
  134OSM    H7S14531   3.841   0.649   6.412  1.0200  0.0680 -0.9665
  134OSM    H7T14532   3.680   0.662   6.342 -0.4916 -0.7173  1.1337
  134OSM    C8S14533   3.833   0.583   6.210  0.0257  0.3178 -0.9070
  134OSM    H8S14534   3.921   0.516   6.226  0.1392  0.4939 -0.7920
  134OSM    H8T14535   3.870   0.681   6.174  1.5054  0.8552  1.7645
  134OSM    C9S14536   3.739   0.523   6.102 -0.0347 -0.2246 -0.4612
  134OSM    H9S14537   3.644   0.576   6.126  1.0529  1.8817 -0.5642
  134OSM    H9T14538   3.727   0.416   6.130 -0.8883 -0.4020 -1.4590
  134OSM   C10S14539   3.778   0.551   5.953 -0.1044  0.3869 -0.4286
  134OSM   H10S14540   3.865   0.486   5.928  1.9164  1.3393  3.2830
  134OSM   H10T14541   3.787   0.658   5.926 -2.9198  0.3201 -1.9266
  134OSM   C11S14542   3.675   0.510   5.852  0.1965 -0.2477  0.2264
  134OSM   H11S14543   3.582   0.571   5.852  1.3048  1.5702  1.9745
  134OSM   H11T14544   3.651   0.406   5.884  0.8832 -0.2963  0.5978
  134OSM   C12S14545   3.735   0.505   5.711  0.2717  0.2919 -0.0549
  134OSM   H12S14546   3.803   0.417   5.710 -2.2302 -1.7588  0.0786
  134OSM   H12T14547   3.795   0.597   5.698  2.4961 -1.2703 -1.6651
  134OSM   C13S14548   3.628   0.496   5.602 -0.1351 -0.4589 -1.1045
  134OSM   H13S14549   3.537   0.438   5.629 -0.4157  0.5879  0.3472
  134OSM   H13T14550   3.671   0.452   5.510  2.6653 -0.0918 -0.0778
  134OSM   C14S14551   3.588   0.631   5.539 -0.0834 -0.1806 -1.2859
  134OSM   H14S14552   3.685   0.666   5.499  1.4230 -3.0026 -0.4212
  134OSM   H14T14553   3.550   0.694   5.623  1.9001 -0.4245 -0.1507
  134OSM   C15S14554   3.491   0.612   5.420 -0.0690 -0.1473 -0.0421
  134OSM   H15S14555   3.395   0.557   5.433 -1.1765  0.8934 -3.0252
  134OSM   H15T14556   3.541   0.544   5.348  1.3990  1.3841 -0.5145
  134OSM   C16S14557   3.469   0.747   5.354  0.4212 -0.1251 -0.9706
  134OSM   H16S14558   3.566   0.773   5.306  1.3749 -2.5155 -0.4717
  134OSM   H16T14559   3.452   0.820   5.436 -0.5064  0.1573 -1.3997
  134OSM   C17S14560   3.354   0.749   5.259  0.1003  0.6361 -0.2278
  134OSM   H17S14561   3.260   0.751   5.317  0.4522  1.0782  0.3254
  134OSM   H17T14562   3.357   0.650   5.208 -1.7397  0.1456  0.5601
  134OSM   C18S14563   3.344   0.863   5.157  0.0066 -0.0067 -0.6722
  134OSM   H18S14564   3.269   0.829   5.083 -0.5157 -2.4056  0.8486
  134OSM   H18T14565   3.436   0.897   5.105 -0.1076  1.8716  0.2504
  134OSM   H18U14566   3.314   0.956   5.210 -2.2154 -0.9287 -0.2014
  134OSM    C1F14567   3.727   0.891   6.726 -0.3003  0.2729 -0.0204
  134OSM     OF14568   3.807   0.928   6.808  0.2403  0.1567 -0.0405
  134OSM    C2F14569   3.677   0.978   6.617  0.1646 -0.4041  0.1064
  134OSM    H2F14570   3.632   1.068   6.663 -3.1105 -1.5536 -0.5185
  134OSM    H2G14571   3.611   0.920   6.549 -2.7761  1.0969  1.4788
  134OSM    C3F14572   3.798   1.029   6.531  0.1535 -0.4882 -0.4195
  134OSM    H3F14573   3.849   0.939   6.491 -0.3173 -0.6653 -0.6280
  134OSM    H3G14574   3.872   1.087   6.591  0.0606 -0.5109 -0.2824
  134OSM    C4F14575   3.745   1.119   6.413 -0.2955  0.1499  0.2613
  134OSM    H4F14576   3.694   1.202   6.465 -0.0749  0.1324  0.5067
  134OSM    H4G14577   3.673   1.058   6.353 -0.6814  0.8987 -0.0543
  134OSM    C5F14578   3.841   1.189   6.320  0.1329 -0.3597 -0.5863
  134OSM    H5F14579   3.937   1.133   6.325  0.2883 -0.0800 -0.3518
  134OSM    H5G14580   3.850   1.292   6.363 -2.0581 -0.5392  0.4527
  134OSM    C6F14581   3.805   1.189   6.172  0.0057 -0.3885 -0.7590
  134OSM    H6F14582   3.702   1.231   6.172  0.6418  1.2706  0.9668
  134OSM    H6G14583   3.802   1.084   6.134 -1.5636 -0.0734 -1.6245
  134OSM    C7F14584   3.895   1.281   6.089 -0.1210  0.4914 -0.2283
  134OSM    H7F14585   3.996   1.240   6.070 -1.1511 -1.9242 -0.8805
  134OSM    H7G14586   3.912   1.371   6.153  3.2014 -0.7038  0.7769
  134OSM    C8F14587   3.819   1.319   5.960 -0.1523  0.4163 -1.2414
  134OSM    H8F14588   3.723   1.361   5.999 -0.1326 -0.3880 -0.2775
  134OSM    H8G14589   3.791   1.232   5.898 -1.8817  1.0810 -1.4639
  134OSM    C9F14590   3.885   1.420   5.870 -0.0377  0.2781  0.6655
  134OSM    H9F14591   3.991   1.391   5.865 -0.3194 -0.6749 -1.8212
  134OSM   C10F14592   3.840   1.533   5.818 -0.1417  0.3498  0.2462
  134OSM   H10F14593   3.913   1.587   5.755  0.4692 -0.5866  0.1262
  134OSM   C11F14594   3.702   1.586   5.829  0.3043 -0.0485  0.3511
  134OSM   H11F14595   3.711   1.683   5.883  1.8129  0.1875 -0.2874
  134OSM   H11G14596   3.640   1.525   5.898  2.1463  1.4156  3.5711
  134OSM   C12F14597   3.638   1.588   5.696  0.6979 -0.5461  1.0019
  134OSM   H12F14598   3.621   1.483   5.663 -1.0643 -0.4747  1.5378
  134OSM   H12G14599   3.698   1.631   5.613 -0.2284 -3.7066 -1.5403
  134OSM   C13F14600   3.501   1.661   5.710 -0.5019  0.4467  0.2445
  134OSM   H13F14601   3.519   1.769   5.732 -0.5814  0.5541 -0.2153
  134OSM   H13G14602   3.443   1.607   5.789 -0.9854 -1.0501 -1.0821
  134OSM   C14F14603   3.428   1.661   5.577  0.1474 -0.0677  0.3008
  134OSM   H14F14604   3.507   1.662   5.498  0.1357 -1.0890  0.2615
  134OSM   H14G14605   3.378   1.758   5.557  1.8274  0.1739 -3.6624
  134OSM   C15F14606   3.329   1.556   5.553 -0.6476  0.2794  0.5431
  134OSM   H15F14607   3.392   1.466   5.567  0.5770  1.2125  1.2674
  134OSM   H15G14608   3.305   1.563   5.444 -1.1099 -2.2048  0.4252
  134OSM   C16F14609   3.205   1.548   5.644  0.2154  0.1343  0.3516
  134OSM   H16F14610   3.245   1.562   5.747 -1.4032 -0.6177  1.1128
  134OSM   H16G14611   3.154   1.450   5.628 -4.3393  2.3299 -0.0687
  134OSM   C17F14612   3.105   1.663   5.642  0.1062 -0.4844  0.2785
  134OSM   H17F14613   3.157   1.758   5.665 -0.9717 -0.0593  1.0217
  134OSM   H17G14614   3.044   1.658   5.735 -0.0524  1.9026  0.3663
  134OSM   C18F14615   3.024   1.690   5.513 -0.6595  0.4056  0.0824
  134OSM   H18F14616   2.969   1.597   5.487 -1.7743  1.2700 -0.7469
  134OSM   H18G14617   3.090   1.731   5.434 -1.9486 -0.3610 -1.4344
  134OSM   H18H14618   2.935   1.756   5.529 -1.5602 -1.2338  2.2667
  135OSM      N14619   3.966   6.003   7.062  0.5772  0.1299  0.4472
  135OSM    C1514620   3.901   5.878   7.019 -0.1573  0.5725 -0.8438
  135OSM   H15A14621   3.843   5.917   6.937  0.2528  1.6715 -0.6229
  135OSM   H15B14622   3.845   5.837   7.102  0.1999 -2.5302 -1.9704
  135OSM   H15C14623   3.967   5.796   6.993 -2.5628 -1.5267 -0.7406
  135OSM    C1414624   4.040   5.976   7.190  0.0522  0.0592  0.1092
  135OSM   H14A14625   4.107   6.059   7.208  2.5489 -1.9501  0.5671
  135OSM   H14B14626   4.102   5.889   7.175  1.1005  0.6224  1.0301
  135OSM   H14C14627   3.972   5.953   7.271 -0.2873 -1.8776 -0.6772
  135OSM    C1314628   4.067   6.032   6.961 -0.1046  0.1309  0.6202
  135OSM   H13A14629   4.032   6.056   6.862 -2.5029  0.7540  1.5307
  135OSM   H13B14630   4.130   5.947   6.938 -1.7194 -0.8065 -0.5331
  135OSM   H13C14631   4.134   6.106   7.001  1.1675 -0.9884  0.6202
  135OSM    C1214632   3.868   6.114   7.079  0.3413 -0.1129  0.0644
  135OSM   H12A14633   3.920   6.203   7.112  0.8222  0.0223 -1.0228
  135OSM   H12B14634   3.799   6.086   7.158 -2.1652  1.8261 -1.2859
  135OSM    C1114635   3.782   6.158   6.952 -0.0336 -0.3234  0.9278
  135OSM   H11A14636   3.713   6.240   6.982  0.9438  1.0211 -0.3932
  135OSM   H11B14637   3.715   6.074   6.922  1.3436 -1.3173  0.5346
  135OSM      P14638   3.889   6.357   6.817  0.4407 -0.0571 -0.3109
  135OSM    O1314639   3.761   6.437   6.803  0.2648 -0.0388 -0.3459
  135OSM    O1414640   3.979   6.397   6.921 -0.3149  0.2173  0.1945
  135OSM    O1114641   3.964   6.362   6.675  0.0806 -0.1602 -0.1815
  135OSM    O1214642   3.861   6.204   6.839  0.6288  0.5885  0.3503
  135OSM    C1S14643   3.975   6.258   6.581  0.2534  0.3898 -0.2184
  135OSM    H1S14644   3.881   6.200   6.592  0.7435 -0.1138  1.5240
  135OSM    H1T14645   4.043   6.181   6.621  0.9994  0.8069 -0.6554
  135OSM     NF14646   4.006   6.201   6.333 -0.2131 -0.7151  0.2246
  135OSM    HNF14647   4.094   6.181   6.290  2.4548  0.7235  4.3796
  135OSM    C2S14648   4.021   6.306   6.435  0.2613  0.0071  0.6551
  135OSM    H2S14649   3.947   6.385   6.412 -1.1139 -0.5766  2.7591
  135OSM    C3S14650   4.155   6.385   6.436 -0.4924  0.0159 -0.3725
  135OSM    H3S14651   4.234   6.309   6.454  0.5556  1.0921 -0.3091
  135OSM     O314652   4.161   6.478   6.544 -0.0849 -0.6068  0.3498
  135OSM    HO314653   4.090   6.450   6.603  0.3816 -0.8263  0.8167
  135OSM    C4S14654   4.197   6.454   6.305  0.6382  0.5521 -0.2319
  135OSM    H4S14655   4.246   6.384   6.235  0.5398  0.0955  0.1488
  135OSM    C5S14656   4.175   6.582   6.271  0.2045  0.7717  0.3790
  135OSM    H5S14657   4.117   6.646   6.340 -1.3215 -1.1542  0.9649
  135OSM    C6S14658   4.218   6.644   6.137  0.1135  0.4828 -0.7656
  135OSM    H6S14659   4.279   6.734   6.159  0.1843  0.2836 -0.1496
  135OSM    H6T14660   4.129   6.667   6.075 -0.4995  1.6601  0.5257
  135OSM    C7S14661   4.311   6.562   6.046  0.2056 -0.0998  0.3007
  135OSM    H7S14662   4.271   6.464   6.010  0.5517  0.2038 -0.9655
  135OSM    H7T14663   4.406   6.542   6.099  0.4645 -2.8646 -1.0222
  135OSM    C8S14664   4.337   6.632   5.908  0.5408 -0.6779 -0.8845
  135OSM    H8S14665   4.404   6.558   5.858  0.0908 -3.2149  2.0159
  135OSM    H8T14666   4.391   6.728   5.924 -0.7497  0.1714 -1.4776
  135OSM    C9S14667   4.214   6.659   5.822  0.1542  0.1366  0.5195
  135OSM    H9S14668   4.165   6.751   5.861 -0.7478 -0.5249  0.9739
  135OSM    H9T14669   4.145   6.572   5.822  1.0891 -0.6247  0.7769
  135OSM   C10S14670   4.258   6.691   5.675  0.0920 -0.3451  1.0555
  135OSM   H10S14671   4.274   6.594   5.622  1.6282  1.5798 -2.3376
  135OSM   H10T14672   4.355   6.743   5.666 -1.0906  1.6626 -1.2251
  135OSM   C11S14673   4.165   6.780   5.584 -0.3928  0.1327 -0.5323
  135OSM   H11S14674   4.157   6.879   5.633  1.5275  0.0486  0.0311
  135OSM   H11T14675   4.065   6.730   5.581 -0.6909  0.6217  0.5526
  135OSM   C12S14676   4.238   6.802   5.455  0.7272 -0.1381 -0.0890
  135OSM   H12S14677   4.347   6.816   5.471  0.5134  0.9295  0.4957
  135OSM   H12T14678   4.194   6.896   5.418  1.8619  0.5877  0.3547
  135OSM   C13S14679   4.202   6.692   5.359  0.4980  0.2393 -0.4942
  135OSM   H13S14680   4.095   6.663   5.366  0.3437  0.7457 -0.7046
  135OSM   H13T14681   4.259   6.598   5.377 -0.8810 -0.7438 -1.0346
  135OSM   C14S14682   4.212   6.738   5.214  0.0783  0.1169 -0.6601
  135OSM   H14S14683   4.312   6.786   5.209 -0.4911  1.4497  0.2913
  135OSM   H14T14684   4.134   6.815   5.194  0.5565  0.8933  0.3927
  135OSM   C15S14685   4.201   6.633   5.098 -0.1321 -0.2461  0.1627
  135OSM   H15S14686   4.107   6.573   5.106  1.2505 -2.5383  0.0806
  135OSM   H15T14687   4.282   6.561   5.122 -0.5442 -0.4247  1.0576
  135OSM   C16S14688   4.228   6.689   4.957 -0.1294  0.2860  0.6079
  135OSM   H16S14689   4.334   6.720   4.949  0.3453 -0.8701  1.9534
  135OSM   H16T14690   4.152   6.770   4.956 -1.7119 -1.0941  2.0850
  135OSM   C17S14691   4.184   6.582   4.849 -0.7077 -0.3843 -0.2279
  135OSM   H17S14692   4.083   6.536   4.855 -1.4043  0.8363 -1.8290
  135OSM   H17T14693   4.250   6.494   4.867 -0.9125 -0.4701  0.1265
  135OSM   C18S14694   4.213   6.621   4.712 -0.0955  0.6282 -0.7352
  135OSM   H18S14695   4.200   6.532   4.646  0.9306  0.0234 -0.1522
  135OSM   H18T14696   4.318   6.654   4.699 -0.2680  2.1215  1.1676
  135OSM   H18U14697   4.136   6.696   4.683 -1.1085 -1.0241 -2.6317
  135OSM    C1F14698   3.902   6.118   6.324  0.4777 -0.1670 -0.5312
  135OSM     OF14699   3.793   6.152   6.361  0.4357  0.1743 -0.4224
  135OSM    C2F14700   3.925   5.984   6.271  0.2362 -0.0133  0.5055
  135OSM    H2F14701   3.998   5.930   6.335  0.3708  0.2276  0.5557
  135OSM    H2G14702   3.964   6.002   6.169 -0.2646 -0.6889  0.1874
  135OSM    C3F14703   3.801   5.886   6.266 -0.6952  0.4553  0.4795
  135OSM    H3F14704   3.712   5.947   6.237  0.5038  0.8735 -2.7360
  135OSM    H3G14705   3.779   5.844   6.366 -0.0786 -0.1236  0.3800
  135OSM    C4F14706   3.832   5.774   6.161 -0.5424 -0.1967  0.2753
  135OSM    H4F14707   3.838   5.818   6.059 -0.8549  0.8760  0.7105
  135OSM    H4G14708   3.923   5.717   6.188 -1.1081 -2.1872 -1.7005
  135OSM    C5F14709   3.711   5.674   6.149  0.0668 -0.7803  0.1742
  135OSM    H5F14710   3.621   5.737   6.165  0.4945  0.3187 -1.5677
  135OSM    H5G14711   3.721   5.600   6.231  0.9292 -1.6593 -0.7026
  135OSM    C6F14712   3.699   5.615   6.011  0.4717  0.1398  0.3708
  135OSM    H6F14713   3.784   5.551   5.979  0.5796  0.7907 -0.6728
  135OSM    H6G14714   3.681   5.695   5.936 -1.3258 -1.1146 -0.6543
  135OSM    C7F14715   3.579   5.520   5.993 -0.7122  0.3835 -0.6809
  135OSM    H7F14716   3.506   5.552   6.071  0.9193 -0.9406  1.4917
  135OSM    H7G14717   3.591   5.412   6.017 -0.0892  0.6795  0.3902
  135OSM    C8F14718   3.512   5.527   5.860  0.5886  0.4604  0.2417
  135OSM    H8F14719   3.484   5.631   5.832  1.2902 -0.0661 -2.7653
  135OSM    H8G14720   3.415   5.474   5.871  0.3448  0.4612 -1.6134
  135OSM    C9F14721   3.590   5.467   5.746 -0.1315 -0.4547 -0.0944
  135OSM    H9F14722   3.612   5.362   5.768 -0.2492 -0.3242  0.6691
  135OSM   C10F14723   3.624   5.525   5.626 -0.6235  1.1459 -0.7140
  135OSM   H10F14724   3.672   5.460   5.552 -0.8506  0.5116 -0.3164
  135OSM   C11F14725   3.603   5.663   5.588  0.0835 -0.2377 -0.6870
  135OSM   H11F14726   3.608   5.734   5.673 -1.3840 -1.2595  0.2998
  135OSM   H11G14727   3.500   5.672   5.546 -0.2334  0.7180  0.2636
  135OSM   C12F14728   3.693   5.714   5.471 -0.6181 -0.0692  0.8597
  135OSM   H12F14729   3.803   5.713   5.487 -0.1956  0.7898 -1.6172
  135OSM   H12G14730   3.653   5.816   5.456 -2.1411 -0.9296 -1.4698
  135OSM   C13F14731   3.673   5.622   5.350 -0.6477  0.0450  0.4240
  135OSM   H13F14732   3.563   5.607   5.343 -0.7120  0.2256  1.0501
  135OSM   H13G14733   3.713   5.521   5.372  0.4266  0.0168 -1.4447
  135OSM   C14F14734   3.727   5.686   5.217 -0.3777  0.4057 -0.0221
  135OSM   H14F14735   3.829   5.698   5.259 -0.2764 -0.8121  0.1195
  135OSM   H14G14736   3.679   5.783   5.191 -1.4474 -0.1451 -0.1681
  135OSM   C15F14737   3.719   5.592   5.099  0.1469 -0.1468  0.2565
  135OSM   H15F14738   3.610   5.578   5.079  0.6582  0.1477 -3.5135
  135OSM   H15G14739   3.757   5.492   5.126 -2.2241 -1.3908 -0.6988
  135OSM   C16F14740   3.777   5.643   4.969 -0.0554 -0.4380  1.0953
  135OSM   H16F14741   3.884   5.618   4.956  0.0401 -0.4468  1.8517
  135OSM   H16G14742   3.761   5.753   4.969  2.9748  0.0870  0.0404
  135OSM   C17F14743   3.700   5.582   4.842 -0.3626 -0.9363 -0.7414
  135OSM   H17F14744   3.598   5.626   4.846  0.1192  0.3344 -1.6575
  135OSM   H17G14745   3.686   5.472   4.845  2.1265 -1.3052  0.0123
  135OSM   C18F14746   3.772   5.621   4.707  0.6423 -0.0762  0.0620
  135OSM   H18F14747   3.863   5.566   4.675  1.4622  3.6815 -5.4476
  135OSM   H18G14748   3.795   5.729   4.706 -0.3868  0.1497  0.3515
  135OSM   H18H14749   3.696   5.614   4.627  1.6205 -2.3813 -0.7782
  136OSM      N14750   0.178   2.923   7.205  0.5785 -0.2437 -0.5498
  136OSM    C1514751   0.228   2.915   7.058  0.7319 -0.4712  0.0290
  136OSM   H15A14752   0.254   3.013   7.019  2.1554  0.2050  2.4449
  136OSM   H15B14753   0.146   2.875   7.001  0.6942 -2.8445  1.6037
  136OSM   H15C14754   0.310   2.848   7.039  0.8439  0.0459 -1.4698
  136OSM    C1414755   0.296   2.937   7.294 -0.0049  0.4016 -0.7538
  136OSM   H14A14756   0.357   3.022   7.268  0.2578  0.5581  0.3304
  136OSM   H14B14757   0.353   2.846   7.280 -2.3137 -1.3291  0.2953
  136OSM   H14C14758   0.270   2.949   7.398  1.4632  0.3865 -0.3693
  136OSM    C1314759   0.094   3.046   7.221  0.3321 -0.3947  0.2697
  136OSM   H13A14760   0.154   3.136   7.221  1.7783 -1.3262 -0.6112
  136OSM   H13B14761   0.029   3.038   7.307 -1.4158 -1.3801 -1.0799
  136OSM   H13C14762   0.021   3.052   7.141 -0.9043  1.9769  1.4655
  136OSM    C1214763   0.110   2.790   7.237 -0.4384  0.0062  0.4744
  136OSM   H12A14764   0.113   2.777   7.344 -1.0999  2.9549  0.9554
  136OSM   H12B14765   0.165   2.703   7.205  2.3747  1.3101  1.3549
  136OSM    C1114766  -0.039   2.777   7.188 -0.3834  0.2159  0.5645
  136OSM   H11A14767  -0.102   2.863   7.220 -3.1023 -0.9589 -1.2641
  136OSM   H11B14768  -0.085   2.693   7.243 -1.8606  1.9465  2.1319
  136OSM      P14769  -0.150   2.696   6.964 -0.3724 -0.0042 -0.0478
  136OSM    O1314770  -0.096   2.559   6.973 -0.4079  0.1774  0.4388
  136OSM    O1414771  -0.286   2.714   7.019 -0.1266  0.4680  0.4217
  136OSM    O1114772  -0.145   2.746   6.815  0.7298  0.2347  0.3653
  136OSM    O1214773  -0.040   2.784   7.043  0.2550 -0.1961 -0.4180
  136OSM    C1S14774  -0.028   2.719   6.733 -0.1753  0.6107 -0.3337
  136OSM    H1S14775   0.056   2.667   6.784  0.0360  0.0897 -1.1806
  136OSM    H1T14776   0.013   2.814   6.694  1.6017  0.3302  0.7464
  136OSM     NF14777   0.045   2.658   6.504 -0.4275  0.5773 -0.6256
  136OSM    HNF14778   0.052   2.746   6.459  1.0360  2.4109  2.8225
  136OSM    C2S14779  -0.070   2.663   6.593 -0.2337 -1.0086 -0.6331
  136OSM    H2S14780  -0.104   2.559   6.612  1.7737 -1.5653  0.1379
  136OSM    C3S14781  -0.193   2.750   6.533 -0.3741  0.0727 -0.5686
  136OSM    H3S14782  -0.147   2.849   6.510  0.2730 -0.2682 -0.7373
  136OSM     O314783  -0.309   2.780   6.619  0.4567 -0.0415 -0.0246
  136OSM    HO314784  -0.284   2.756   6.709  1.6767  1.6868  0.1662
  136OSM    C4S14785  -0.239   2.701   6.400 -0.6873  0.0221  0.0085
  136OSM    H4S14786  -0.182   2.756   6.324  1.2990 -1.6519  0.1810
  136OSM    C5S14787  -0.345   2.627   6.379  0.3724  0.9037 -0.0600
  136OSM    H5S14788  -0.409   2.607   6.466  1.9143  1.3826  1.2369
  136OSM    C6S14789  -0.406   2.606   6.240 -0.0449 -0.8340 -0.3395
  136OSM    H6S14790  -0.505   2.656   6.230  1.0238  1.4983  0.0644
  136OSM    H6T14791  -0.413   2.496   6.225  3.8943 -1.2792  0.0492
  136OSM    C7S14792  -0.340   2.662   6.116 -0.5949  0.2856 -0.0252
  136OSM    H7S14793  -0.233   2.634   6.125 -0.5218 -0.9953 -3.3721
  136OSM    H7T14794  -0.349   2.772   6.104  0.9856  0.2964 -1.5499
  136OSM    C8S14795  -0.404   2.597   5.992 -0.1289  0.5118 -0.4138
  136OSM    H8S14796  -0.507   2.638   5.987 -0.5986 -0.3852  1.0678
  136OSM    H8T14797  -0.417   2.487   5.999 -1.8034  0.7905  2.2083
  136OSM    C9S14798  -0.341   2.634   5.857  0.2130 -0.3217  0.0877
  136OSM    H9S14799  -0.234   2.604   5.859  0.4001  0.2290 -0.9262
  136OSM    H9T14800  -0.352   2.743   5.838 -1.4883 -0.3271  0.8235
  136OSM   C10S14801  -0.411   2.573   5.741  0.5849 -0.1700  0.4418
  136OSM   H10S14802  -0.520   2.592   5.737  0.8477  1.3592 -2.5374
  136OSM   H10T14803  -0.405   2.464   5.764 -2.9363 -0.6493 -0.2877
  136OSM   C11S14804  -0.343   2.626   5.608 -0.5828  0.1966  0.0111
  136OSM   H11S14805  -0.236   2.596   5.608 -1.1223 -1.9518  1.0430
  136OSM   H11T14806  -0.360   2.735   5.594 -0.6452  0.0357 -1.3664
  136OSM   C12S14807  -0.398   2.552   5.485  0.6301 -0.6845 -0.0879
  136OSM   H12S14808  -0.509   2.558   5.494  0.7543  1.4284  0.3619
  136OSM   H12T14809  -0.378   2.442   5.484 -0.6195 -0.9602  1.5213
  136OSM   C13S14810  -0.352   2.607   5.353  0.1039 -1.0634 -0.1292
  136OSM   H13S14811  -0.246   2.580   5.333  0.0287  0.4453 -3.2906
  136OSM   H13T14812  -0.354   2.718   5.352 -0.1209 -1.0675 -0.9241
  136OSM   C14S14813  -0.431   2.553   5.232 -0.0853 -0.7155  0.1481
  136OSM   H14S14814  -0.536   2.589   5.231 -0.4478 -1.7222  0.8823
  136OSM   H14T14815  -0.428   2.442   5.234  2.1623 -0.6903  1.0017
  136OSM   C15S14816  -0.360   2.598   5.109 -0.2355 -0.3616 -0.7333
  136OSM   H15S14817  -0.257   2.558   5.100 -0.6460 -1.4435 -0.7816
  136OSM   H15T14818  -0.357   2.709   5.099 -5.3317 -0.0386 -1.3826
  136OSM   C16S14819  -0.443   2.548   4.993  0.0791  0.3528 -0.4733
  136OSM   H16S14820  -0.544   2.591   5.005 -0.6843 -1.1877 -1.0905
  136OSM   H16T14821  -0.441   2.437   4.990 -0.8720  0.2786  0.8027
  136OSM   C17S14822  -0.393   2.601   4.859 -0.4879  0.0789 -0.0899
  136OSM   H17S14823  -0.285   2.586   4.841  0.2166  0.6164  2.9914
  136OSM   H17T14824  -0.416   2.710   4.866 -0.8449  0.0471 -0.7002
  136OSM   C18S14825  -0.463   2.543   4.730  0.5893  0.2674 -0.1940
  136OSM   H18S14826  -0.516   2.447   4.749  1.1741 -0.1070 -0.4226
  136OSM   H18T14827  -0.395   2.535   4.643  0.0608 -0.6086 -0.5422
  136OSM   H18U14828  -0.545   2.612   4.699  0.4896  0.8488  1.2773
  136OSM    C1F14829   0.150   2.577   6.524 -0.7866  0.3980 -0.4597
  136OSM     OF14830   0.144   2.491   6.613 -0.2430 -0.1892  0.2336
  136OSM    C2F14831   0.269   2.598   6.441 -0.7270  0.1817  0.0273
  136OSM    H2F14832   0.347   2.650   6.499  0.4139 -2.1649  0.6950
  136OSM    H2G14833   0.241   2.658   6.351  0.5820 -1.3854 -1.4840
  136OSM    C3F14834   0.337   2.461   6.395  0.4517 -0.4752  0.2106
  136OSM    H3F14835   0.273   2.390   6.339 -0.2881 -1.2708  1.9908
  136OSM    H3G14836   0.375   2.405   6.484 -1.1488 -1.4765  0.2955
  136OSM    C4F14837   0.469   2.492   6.313 -0.1407 -0.5556  0.4052
  136OSM    H4F14838   0.514   2.396   6.280 -1.7097 -0.6718 -1.5882
  136OSM    H4G14839   0.532   2.545   6.388 -1.2581 -1.8853  2.3509
  136OSM    C5F14840   0.455   2.580   6.183 -0.2663  0.3494  0.6570
  136OSM    H5F14841   0.557   2.624   6.180  0.7017 -1.6852  1.9437
  136OSM    H5G14842   0.382   2.663   6.203 -2.2067 -1.0633 -0.2078
  136OSM    C6F14843   0.414   2.510   6.057  0.1220  0.4676 -0.4951
  136OSM    H6F14844   0.304   2.496   6.062  0.0149  1.7132  2.0614
  136OSM    H6G14845   0.471   2.415   6.046  0.5340  0.6610 -0.0859
  136OSM    C7F14846   0.440   2.609   5.938  0.5159  0.1669 -0.3174
  136OSM    H7F14847   0.545   2.600   5.904  0.6864 -0.0153  0.2512
  136OSM    H7G14848   0.421   2.712   5.975  3.1565  0.4780  0.3789
  136OSM    C8F14849   0.338   2.590   5.818 -0.3436 -0.7386 -0.9218
  136OSM    H8F14850   0.354   2.668   5.741 -0.2488 -1.0624 -1.2358
  136OSM    H8G14851   0.233   2.585   5.854 -0.0681  0.1779  0.0798
  136OSM    C9F14852   0.368   2.458   5.748  0.1030 -0.8113 -0.2563
  136OSM    H9F14853   0.476   2.436   5.758 -0.0971 -1.1204  1.4350
  136OSM   C10F14854   0.295   2.374   5.672  0.6784  0.6892 -0.2407
  136OSM   H10F14855   0.341   2.281   5.633 -0.5785 -0.1655  0.2340
  136OSM   C11F14856   0.149   2.408   5.634 -0.0151 -0.1900  0.0165
  136OSM   H11F14857   0.151   2.487   5.557 -0.7470 -1.0324 -0.8803
  136OSM   H11G14858   0.099   2.462   5.717 -0.2911  0.3815 -0.5174
  136OSM   C12F14859   0.065   2.293   5.589  0.0961  0.2698 -0.4075
  136OSM   H12F14860  -0.041   2.326   5.600 -0.5568 -1.8188 -0.1289
  136OSM   H12G14861   0.097   2.209   5.653  0.2838 -0.2153 -1.1286
  136OSM   C13F14862   0.084   2.259   5.437 -0.1910  0.8472  0.3490
  136OSM   H13F14863   0.033   2.161   5.422  0.7399  0.6006 -1.4564
  136OSM   H13G14864   0.191   2.249   5.411  0.2635  2.9085  1.2091
  136OSM   C14F14865   0.020   2.357   5.340 -0.5592  0.0660 -0.1090
  136OSM   H14F14866   0.047   2.461   5.368 -1.1679 -0.4597  2.6787
  136OSM   H14G14867  -0.089   2.357   5.358 -0.4395  0.6774  0.6432
  136OSM   C15F14868   0.048   2.328   5.187  0.5241  0.9808  0.2043
  136OSM   H15F14869   0.086   2.224   5.189 -0.3439  0.6031 -1.2436
  136OSM   H15G14870   0.135   2.392   5.165  2.4334 -1.0246  1.4878
  136OSM   C16F14871  -0.067   2.334   5.095  0.6859 -0.5250 -0.5017
  136OSM   H16F14872  -0.099   2.440   5.087 -1.3880 -1.0260  0.5381
  136OSM   H16G14873  -0.148   2.271   5.138  0.5172  0.1543  0.1912
  136OSM   C17F14874  -0.050   2.282   4.952 -0.8217  0.0519 -0.4796
  136OSM   H17F14875  -0.144   2.242   4.910  0.0720 -3.3192  0.3790
  136OSM   H17G14876   0.012   2.190   4.955 -0.8397  0.0145 -1.1238
  136OSM   C18F14877   0.002   2.389   4.859  0.2447 -0.2938 -0.6277
  136OSM   H18F14878   0.106   2.410   4.892 -0.8879  2.0470  1.8265
  136OSM   H18G14879  -0.053   2.482   4.883  1.0940 -0.5174  2.6558
  136OSM   H18H14880   0.003   2.358   4.752  2.3884  0.6857 -0.9214
  137OSM      N14881   2.829   1.154   7.111  0.3060  0.3602 -0.2407
  137OSM    C1514882   2.853   1.284   7.039 -0.0578  0.4984  0.2731
  137OSM   H15A14883   2.944   1.280   6.981 -0.6364  1.9600 -0.7818
  137OSM   H15B14884   2.866   1.369   7.104  0.2497 -0.2163  1.1695
  137OSM   H15C14885   2.773   1.303   6.970  1.6451  1.1111 -1.6580
  137OSM    C1414886   2.832   1.049   7.006 -0.0066  0.3314 -0.2124
  137OSM   H14A14887   2.926   1.035   6.955 -1.0512 -1.0992 -1.8753
  137OSM   H14B14888   2.765   1.088   6.930 -0.2938  0.7733  0.2563
  137OSM   H14C14889   2.803   0.954   7.047  0.5221  0.4726  0.5145
  137OSM    C1314890   2.940   1.132   7.209 -0.1987 -0.3671 -0.2011
  137OSM   H13A14891   2.943   1.028   7.236 -1.0462 -0.6087 -0.9835
  137OSM   H13B14892   2.930   1.187   7.302  0.8932  0.5359 -0.5949
  137OSM   H13C14893   3.035   1.158   7.165 -1.6259  0.6738 -2.9336
  137OSM    C1214894   2.692   1.154   7.180 -0.4527 -0.5135 -0.5664
  137OSM   H12A14895   2.623   1.197   7.109  0.0214  1.7356  0.2537
  137OSM   H12B14896   2.706   1.228   7.257  0.8852 -0.2056 -1.0768
  137OSM    C1114897   2.642   1.024   7.255 -0.8557 -0.3997 -0.0335
  137OSM   H11A14898   2.581   1.058   7.341  3.3284  1.2054  2.5697
  137OSM   H11B14899   2.731   0.984   7.307 -0.7276 -0.3333 -0.2010
  137OSM      P14900   2.438   0.883   7.168 -0.1111  0.4445  0.4081
  137OSM    O1314901   2.434   0.742   7.201 -0.4937 -0.6276 -0.0968
  137OSM    O1414902   2.365   0.978   7.253  0.5982  0.1940 -0.1180
  137OSM    O1114903   2.402   0.902   7.015  0.4224 -0.5062  0.0584
  137OSM    O1214904   2.587   0.930   7.169 -0.0503 -0.3840  1.0315
  137OSM    C1S14905   2.478   0.840   6.913  0.4568 -0.2093  1.0085
  137OSM    H1S14906   2.469   0.729   6.916 -2.7595 -0.0465  1.9327
  137OSM    H1T14907   2.584   0.870   6.928  0.2270  1.6553 -0.6999
  137OSM     NF14908   2.535   0.799   6.683  0.0691 -0.0479  0.2230
  137OSM    HNF14909   2.629   0.832   6.677  0.5791 -1.3396  0.6745
  137OSM    C2S14910   2.450   0.881   6.765 -0.1075 -0.0741  0.5404
  137OSM    H2S14911   2.342   0.861   6.746 -0.1471  0.4165  0.2360
  137OSM    C3S14912   2.470   1.029   6.757 -0.5516 -0.5819  0.5148
  137OSM    H3S14913   2.564   1.059   6.807 -1.0259  1.0733  0.4840
  137OSM     O314914   2.366   1.108   6.815 -0.2261  0.5189 -0.4487
  137OSM    HO314915   2.331   1.054   6.887  1.6644 -0.9838 -0.5773
  137OSM    C4S14916   2.494   1.075   6.615  0.3100  0.2961 -0.2662
  137OSM    H4S14917   2.399   1.064   6.560 -0.1473  1.3444  0.2877
  137OSM    C5S14918   2.605   1.133   6.569  0.2292  0.3031  0.0262
  137OSM    H5S14919   2.683   1.166   6.640 -1.4049  1.1926  1.4895
  137OSM    C6S14920   2.630   1.173   6.431 -0.0153 -0.8794 -0.2823
  137OSM    H6S14921   2.736   1.202   6.418 -0.3422  1.5346  1.7032
  137OSM    H6T14922   2.565   1.256   6.395 -0.6561 -1.0326  0.5015
  137OSM    C7S14923   2.617   1.058   6.328 -0.5740 -0.0104 -0.7200
  137OSM    H7S14924   2.512   1.034   6.301 -0.8372 -1.8146  1.5270
  137OSM    H7T14925   2.660   0.965   6.370  1.7854  1.8162  1.3028
  137OSM    C8S14926   2.692   1.095   6.195 -0.1474  0.4142 -0.9756
  137OSM    H8S14927   2.799   1.112   6.220  0.1929  0.0383 -2.1070
  137OSM    H8T14928   2.645   1.187   6.154 -1.3321  0.0182 -0.5597
  137OSM    C9S14929   2.687   0.984   6.086 -0.7099 -0.4838 -0.4933
  137OSM    H9S14930   2.579   0.975   6.060 -1.0808  0.1352  0.7411
  137OSM    H9T14931   2.709   0.880   6.119 -0.3234 -0.1100  0.4759
  137OSM   C10S14932   2.788   1.025   5.974  0.2962  0.8780 -0.1045
  137OSM   H10S14933   2.803   0.933   5.913  2.0637  0.5048  0.8032
  137OSM   H10T14934   2.886   1.034   6.027 -0.0574 -2.4873  1.4077
  137OSM   C11S14935   2.748   1.153   5.894 -0.1751 -0.3181  0.2500
  137OSM   H11S14936   2.716   1.238   5.958 -0.2668  0.5271 -0.8722
  137OSM   H11T14937   2.656   1.135   5.833 -0.0351 -0.8001  0.1830
  137OSM   C12S14938   2.856   1.195   5.796  0.2546 -0.1821  0.3975
  137OSM   H12S14939   2.865   1.124   5.710  0.0406 -0.0116  0.2313
  137OSM   H12T14940   2.954   1.185   5.847  0.2045 -1.6840  0.2426
  137OSM   C13S14941   2.836   1.333   5.743 -0.0442  0.8263 -0.5716
  137OSM   H13S14942   2.929   1.361   5.690 -1.3266  1.7837 -2.3984
  137OSM   H13T14943   2.812   1.402   5.827 -0.7427 -0.8878  0.6888
  137OSM   C14S14944   2.716   1.357   5.645 -0.1374  0.4080  0.6027
  137OSM   H14S14945   2.685   1.463   5.658 -0.3271  0.4518 -0.1272
  137OSM   H14T14946   2.634   1.285   5.666  0.9412 -0.9410  0.2795
  137OSM   C15S14947   2.754   1.334   5.496 -0.0170  0.1650  0.2253
  137OSM   H15S14948   2.786   1.229   5.485  0.1152  0.4969 -3.9570
  137OSM   H15T14949   2.843   1.395   5.471  0.0009 -0.1429 -0.4786
  137OSM   C16S14950   2.635   1.361   5.409 -0.5796 -0.6081 -0.0919
  137OSM   H16S14951   2.621   1.470   5.426 -0.3677 -0.7008  0.7409
  137OSM   H16T14952   2.543   1.311   5.447 -1.7939  0.9573 -0.8674
  137OSM   C17S14953   2.652   1.314   5.260  0.1685  0.3272  0.2797
  137OSM   H17S14954   2.564   1.339   5.198  0.0103 -1.3460 -0.2240
  137OSM   H17T14955   2.655   1.203   5.262 -0.1374  0.2366 -1.7828
  137OSM   C18S14956   2.777   1.356   5.189  0.5876 -0.3411 -0.4973
  137OSM   H18S14957   2.773   1.354   5.078  0.0046  0.7790 -0.5165
  137OSM   H18T14958   2.872   1.306   5.218  1.6152  0.6405 -2.0050
  137OSM   H18U14959   2.798   1.463   5.209  2.4168 -0.6173 -0.8097
  137OSM    C1F14960   2.520   0.670   6.653  0.2197  0.1235 -0.3053
  137OSM     OF14961   2.417   0.606   6.685 -0.2569 -0.4777 -0.4359
  137OSM    C2F14962   2.638   0.609   6.596 -0.3846  0.3537  0.2518
  137OSM    H2F14963   2.716   0.600   6.675  0.7603  0.6990 -0.8225
  137OSM    H2G14964   2.681   0.674   6.517  1.8968 -0.1690  0.9890
  137OSM    C3F14965   2.628   0.465   6.544 -0.3021 -0.3358  0.2971
  137OSM    H3F14966   2.579   0.389   6.609 -3.3768  0.6435 -0.6801
  137OSM    H3G14967   2.730   0.428   6.521  0.7544  2.6745 -0.2478
  137OSM    C4F14968   2.560   0.453   6.406  0.4531  0.3643  0.8356
  137OSM    H4F14969   2.603   0.519   6.329  1.6246  0.6637  1.7215
  137OSM    H4G14970   2.452   0.477   6.418  0.1904 -0.0520 -0.5820
  137OSM    C5F14971   2.561   0.305   6.362  0.1817  0.2812 -0.2712
  137OSM    H5F14972   2.486   0.248   6.422  0.1447 -1.7354 -2.0685
  137OSM    H5G14973   2.657   0.254   6.385  0.0392 -0.0495 -0.3993
  137OSM    C6F14974   2.510   0.288   6.213 -0.3544  0.2036 -1.0018
  137OSM    H6F14975   2.579   0.348   6.150  0.8459  0.9529  0.9036
  137OSM    H6G14976   2.403   0.315   6.204 -0.3778  0.9308  0.9053
  137OSM    C7F14977   2.516   0.135   6.174  0.2004  0.0262  0.3687
  137OSM    H7F14978   2.488   0.077   6.264 -0.8292 -1.2140 -0.7050
  137OSM    H7G14979   2.620   0.117   6.137 -0.7227 -0.2056 -2.3041
  137OSM    C8F14980   2.422   0.087   6.072  0.5323  0.7990  0.3942
  137OSM    H8F14981   2.319   0.080   6.111  0.5736  1.7983  0.7191
  137OSM    H8G14982   2.442  -0.015   6.032  1.8192  1.8372 -1.8515
  137OSM    C9F14983   2.435   0.180   5.953 -0.0985  0.0243 -0.7525
  137OSM    H9F14984   2.371   0.269   5.961 -0.0589  0.0281 -0.4745
  137OSM   C10F14985   2.527   0.182   5.851  0.3515  0.3032 -0.6928
  137OSM   H10F14986   2.541   0.273   5.791 -1.5856  1.3782  0.3605
  137OSM   C11F14987   2.636   0.077   5.832 -0.0493  0.8537  0.0162
  137OSM   H11F14988   2.655   0.010   5.919 -1.3111 -2.3267 -2.0107
  137OSM   H11G14989   2.730   0.131   5.807  0.3383  1.3730  2.3402
  137OSM   C12F14990   2.608  -0.001   5.701  0.0946  0.2809 -0.8480
  137OSM   H12F14991   2.594   0.064   5.611  1.4189  0.3167 -1.0500
  137OSM   H12G14992   2.527  -0.074   5.718  2.0944 -1.4305  2.2060
  137OSM   C13F14993   2.731  -0.083   5.661  0.0320 -0.6105  0.5114
  137OSM   H13F14994   2.756  -0.139   5.753 -0.2148 -2.3118 -0.4212
  137OSM   H13G14995   2.809  -0.005   5.655 -1.7019  1.3004  1.5609
  137OSM   C14F14996   2.725  -0.171   5.541  0.3761 -0.3759  0.3008
  137OSM   H14F14997   2.712  -0.107   5.450 -1.7202 -1.0245  0.0927
  137OSM   H14G14998   2.637  -0.238   5.549 -0.0154  0.1059  0.0724
  137OSM   C15F14999   2.853  -0.253   5.524  0.6175 -0.3009  0.6548
  137OSM   H15F15000   2.856  -0.311   5.619 -0.4264 -3.2474 -0.9942
  137OSM   H15G15001   2.938  -0.181   5.520  1.2430 -1.0328  0.2828
  137OSM   C16F15002   2.861  -0.345   5.403 -0.1150 -0.4802  0.4677
  137OSM   H16F15003   2.958  -0.400   5.405  0.7715  1.0283  1.0899
  137OSM   H16G15004   2.857  -0.289   5.307  0.0618 -0.4613  0.4697
  137OSM   C17F15005   2.742  -0.442   5.400  0.3841 -0.0265  0.1779
  137OSM   H17F15006   2.656  -0.378   5.373  2.4279  3.1790  0.7761
  137OSM   H17G15007   2.732  -0.476   5.506 -1.7927 -1.8380 -0.5215
  137OSM   C18F15008   2.756  -0.563   5.305  0.1452  0.1191 -0.9498
  137OSM   H18F15009   2.676  -0.635   5.331  1.5484 -0.6263  1.5890
  137OSM   H18G15010   2.853  -0.616   5.313  0.8501  1.3736 -0.9484
  137OSM   H18H15011   2.747  -0.537   5.197  0.5332 -1.8521 -1.4946
  138OSM      N15012   5.655   6.579   6.937  0.7508 -0.1395 -0.2542
  138OSM    C1515013   5.579   6.698   6.990  0.3902 -0.2348  0.0060
  138OSM   H15A15014   5.526   6.752   6.913  0.3180  2.6276  1.9149
  138OSM   H15B15015   5.652   6.761   7.039 -0.6150 -0.2537  1.6257
  138OSM   H15C15016   5.506   6.668   7.065  1.3682  0.2103  1.1758
  138OSM    C1415017   5.685   6.487   7.050  0.0876 -0.0852 -0.4176
  138OSM   H14A15018   5.748   6.405   7.018  0.3397 -0.3767  0.7674
  138OSM   H14B15019   5.592   6.454   7.095 -0.0799  1.9073  0.7972
  138OSM   H14C15020   5.739   6.534   7.130 -0.8748  0.3670 -0.0189
  138OSM    C1315021   5.560   6.522   6.841 -0.0567  0.3793  0.2294
  138OSM   H13A15022   5.598   6.441   6.780  0.9386  1.6090 -0.8276
  138OSM   H13B15023   5.513   6.596   6.779  1.0439  1.0117  0.1397
  138OSM   H13C15024   5.481   6.471   6.894  0.8495 -0.6487  0.6403
  138OSM    C1215025   5.778   6.624   6.871  0.1001 -0.7731  0.1933
  138OSM   H12A15026   5.840   6.670   6.947  0.3824  0.2901 -0.6540
  138OSM   H12B15027   5.764   6.709   6.807  2.0886 -0.0901  0.5732
  138OSM    C1115028   5.866   6.526   6.794 -0.3568 -0.6325 -0.7282
  138OSM   H11A15029   5.952   6.568   6.739  0.8321 -1.0148  0.7677
  138OSM   H11B15030   5.800   6.482   6.716  0.1783 -0.2520 -1.4024
  138OSM      P15031   5.894   6.271   6.846  0.2548 -0.4801  0.0193
  138OSM    O1315032   5.972   6.188   6.943  0.6785 -0.0030 -0.1416
  138OSM    O1415033   5.746   6.243   6.854 -0.4826 -0.4487  0.3202
  138OSM    O1115034   5.946   6.254   6.695  0.7535 -0.4689 -0.5971
  138OSM    O1215035   5.921   6.425   6.881 -0.2190 -0.2811 -0.1453
  138OSM    C1S15036   6.080   6.285   6.658 -0.2317 -0.1944 -0.0473
  138OSM    H1S15037   6.154   6.254   6.735 -0.0136  0.9439  0.2286
  138OSM    H1T15038   6.096   6.393   6.639  1.5920 -0.1544  1.3896
  138OSM     NF15039   6.242   6.225   6.497 -0.6928 -0.4664 -0.1443
  138OSM    HNF15040   6.270   6.309   6.452 -2.0092 -0.8059 -1.7201
  138OSM    C2S15041   6.104   6.220   6.528 -0.6752  0.6169 -0.2387
  138OSM    H2S15042   6.075   6.114   6.540  2.6278 -0.6989 -2.5076
  138OSM    C3S15043   6.018   6.285   6.415 -0.7583  0.6329  0.4871
  138OSM    H3S15044   6.064   6.383   6.391  0.4595 -0.3385 -1.3848
  138OSM     O315045   5.886   6.320   6.442  0.3288 -0.2280  0.2015
  138OSM    HO315046   5.879   6.281   6.530  0.4247  2.1035  1.3072
  138OSM    C4S15047   6.037   6.207   6.294 -0.5030 -0.3299  0.2324
  138OSM    H4S15048   6.092   6.261   6.215 -3.7378  0.0638 -1.9734
  138OSM    C5S15049   5.973   6.100   6.250 -0.8164 -0.2137 -0.2318
  138OSM    H5S15050   5.891   6.059   6.311 -1.7638 -1.0258 -1.9852
  138OSM    C6S15051   6.000   6.038   6.119  0.2733  0.8792  0.1844
  138OSM    H6S15052   5.934   6.088   6.045  0.3211  0.2047 -0.3288
  138OSM    H6T15053   5.961   5.934   6.126  0.4413  0.9300  2.8004
  138OSM    C7S15054   6.144   6.027   6.079  0.5443  0.4564  0.3475
  138OSM    H7S15055   6.204   5.986   6.163 -0.9920 -0.9197  0.8278
  138OSM    H7T15056   6.182   6.128   6.056  3.4491 -0.7186 -0.4649
  138OSM    C8S15057   6.160   5.946   5.943  0.0658 -0.7077 -0.2483
  138OSM    H8S15058   6.084   5.979   5.869  2.5534  2.0475 -1.7933
  138OSM    H8T15059   6.153   5.838   5.966  3.9380 -1.1094 -0.4529
  138OSM    C9S15060   6.291   5.974   5.875 -0.3462 -0.2704 -0.0405
  138OSM    H9S15061   6.375   5.952   5.944 -0.7944 -0.8859  0.3187
  138OSM    H9T15062   6.294   6.083   5.852  0.8561 -0.0667  0.9627
  138OSM   C10S15063   6.328   5.883   5.751  0.2694 -0.2322 -0.5644
  138OSM   H10S15064   6.257   5.915   5.672 -0.7862 -2.3882 -0.5700
  138OSM   H10T15065   6.296   5.780   5.776 -1.8303  0.5498  0.1570
  138OSM   C11S15066   6.475   5.905   5.704 -0.1365 -0.0280  0.5052
  138OSM   H11S15067   6.499   5.825   5.630 -0.2311 -0.5154  0.9962
  138OSM   H11T15068   6.547   5.885   5.786  0.5006  2.4958  0.6391
  138OSM   C12S15069   6.507   6.052   5.677 -0.0357 -0.2194  0.4406
  138OSM   H12S15070   6.614   6.077   5.694 -0.4329  1.2545  0.9435
  138OSM   H12T15071   6.462   6.109   5.760 -0.3872 -1.2754  0.9867
  138OSM   C13S15072   6.457   6.098   5.539 -0.1536 -0.3078 -0.7147
  138OSM   H13S15073   6.488   6.205   5.532 -0.8202 -0.1127 -0.7622
  138OSM   H13T15074   6.347   6.116   5.537 -0.1759 -0.4367 -0.6411
  138OSM   C14S15075   6.513   6.028   5.417  0.3155  0.4466 -0.2333
  138OSM   H14S15076   6.478   5.923   5.406 -1.2880  1.1065 -2.0645
  138OSM   H14T15077   6.619   6.024   5.448 -0.5413 -2.7295  2.9897
  138OSM   C15S15078   6.498   6.095   5.281 -0.2525  0.2031 -0.4146
  138OSM   H15S15079   6.558   6.026   5.218  0.4791  1.0020 -0.6125
  138OSM   H15T15080   6.543   6.196   5.275  0.6491 -0.2566 -2.0023
  138OSM   C16S15081   6.346   6.101   5.237  0.3963 -0.1930  0.5209
  138OSM   H16S15082   6.298   6.194   5.274 -2.0035 -1.8531  1.8881
  138OSM   H16T15083   6.293   6.017   5.286 -1.4970 -0.2662 -1.5565
  138OSM   C17S15084   6.332   6.088   5.087  0.8734  0.1318 -0.4395
  138OSM   H17S15085   6.397   6.003   5.057  0.7554 -0.4638  0.9230
  138OSM   H17T15086   6.376   6.177   5.038 -0.2375  0.8326 -0.1943
  138OSM   C18S15087   6.187   6.075   5.041 -0.3602  0.1201 -0.5946
  138OSM   H18S15088   6.167   6.059   4.933 -0.4993 -1.7936 -0.3142
  138OSM   H18T15089   6.128   6.159   5.083  0.4591 -0.1307  1.1311
  138OSM   H18U15090   6.142   5.987   5.092 -1.2895  1.2351  0.5656
  138OSM    C1F15091   6.343   6.148   6.550  0.2989 -0.1253 -0.2003
  138OSM     OF15092   6.327   6.070   6.644 -0.2096 -0.0749  0.4092
  138OSM    C2F15093   6.477   6.168   6.492 -0.3375  0.0488 -0.6436
  138OSM    H2F15094   6.544   6.093   6.540  1.1533 -0.5571 -3.4651
  138OSM    H2G15095   6.514   6.270   6.520  1.7310 -0.4389 -1.3833
  138OSM    C3F15096   6.478   6.132   6.337 -0.4577 -0.0508 -0.1718
  138OSM    H3F15097   6.418   6.220   6.303 -1.1310  0.7676  2.8591
  138OSM    H3G15098   6.430   6.033   6.319 -0.1594 -0.8229  2.7704
  138OSM    C4F15099   6.620   6.141   6.283  0.6860 -0.3478  0.7951
  138OSM    H4F15100   6.656   6.037   6.296 -0.4910 -1.0804 -1.2571
  138OSM    H4G15101   6.679   6.215   6.342 -1.6920  3.2911 -0.9920
  138OSM    C5F15102   6.620   6.183   6.137 -0.6605 -0.1892 -0.0673
  138OSM    H5F15103   6.609   6.292   6.119 -0.6903 -0.2789 -0.5893
  138OSM    H5G15104   6.544   6.133   6.073 -0.0474 -1.0456 -0.1464
  138OSM    C6F15105   6.754   6.147   6.073  0.0132  0.2342 -0.5432
  138OSM    H6F15106   6.772   6.038   6.069  0.6693  0.3370 -0.6111
  138OSM    H6G15107   6.814   6.189   6.157  0.2546  0.8687 -1.0198
  138OSM    C7F15108   6.781   6.221   5.941 -0.1018 -0.5721  0.0783
  138OSM    H7F15109   6.713   6.309   5.943  1.2023  0.5139  2.6623
  138OSM    H7G15110   6.754   6.162   5.851 -0.3412  0.6636 -0.6856
  138OSM    C8F15111   6.921   6.268   5.944 -0.8590  0.0033  0.0862
  138OSM    H8F15112   7.000   6.190   5.936  1.4588  2.2484 -0.3070
  138OSM    H8G15113   6.935   6.325   6.039  0.1050 -2.7528  1.7276
  138OSM    C9F15114   6.943   6.352   5.821  0.3750 -0.2096 -0.0585
  138OSM    H9F15115   6.964   6.457   5.848  1.0967  0.4499 -2.9059
  138OSM   C10F15116   6.942   6.319   5.693 -0.1700 -0.3115  0.5518
  138OSM   H10F15117   6.959   6.399   5.619 -0.1126 -0.7665  0.0710
  138OSM   C11F15118   6.920   6.190   5.620 -0.9154  0.5347 -0.7616
  138OSM   H11F15119   6.864   6.115   5.680  2.3916  0.0229  1.9558
  138OSM   H11G15120   7.021   6.145   5.623 -0.3548  1.7581 -0.7450
  138OSM   C12F15121   6.860   6.218   5.486  0.3461 -0.2980  0.1018
  138OSM   H12F15122   6.770   6.281   5.502  0.8091  0.4816 -0.3094
  138OSM   H12G15123   6.826   6.118   5.451  2.6628 -0.3174 -2.4883
  138OSM   C13F15124   6.951   6.291   5.383 -0.4388  0.0226  0.4849
  138OSM   H13F15125   7.055   6.255   5.399  0.3901  0.9857 -2.1247
  138OSM   H13G15126   6.937   6.401   5.389 -0.0685  0.5038 -3.8627
  138OSM   C14F15127   6.900   6.255   5.239  0.0905 -0.3794 -0.1887
  138OSM   H14F15128   6.938   6.329   5.165 -0.5162 -1.3697 -1.5373
  138OSM   H14G15129   6.794   6.288   5.235 -0.0595 -0.9046 -3.2751
  138OSM   C15F15130   6.889   6.110   5.202  0.1826  0.4277 -0.5284
  138OSM   H15F15131   6.829   6.043   5.267  1.9927  0.3943  1.1967
  138OSM   H15G15132   6.987   6.061   5.217 -0.1745  0.4997  2.5765
  138OSM   C16F15133   6.829   6.086   5.062 -0.1342  0.0882 -0.3856
  138OSM   H16F15134   6.730   6.135   5.052 -0.3038 -0.0155  0.6946
  138OSM   H16G15135   6.809   5.978   5.050  0.9211 -0.1558 -0.0489
  138OSM   C17F15136   6.922   6.124   4.940 -0.0302  0.2784  0.8508
  138OSM   H17F15137   6.923   6.235   4.932 -0.5453  0.1529 -1.5302
  138OSM   H17G15138   6.869   6.084   4.851 -0.5516 -0.9756  1.6904
  138OSM   C18F15139   7.064   6.069   4.941  0.2141 -0.1559 -0.0060
  138OSM   H18F15140   7.113   6.086   4.843  0.3406 -1.0593 -0.1054
  138OSM   H18G15141   7.065   5.961   4.965 -2.8083 -0.0969  0.8132
  138OSM   H18H15142   7.121   6.129   5.015  0.7205 -1.9982  1.1499
  139OSM      N15143   1.892   3.997   7.246  0.2705  0.1069 -0.2438
  139OSM    C1515144   1.890   4.147   7.278  0.3653  0.1704  0.5903
  139OSM   H15A15145   1.862   4.191   7.184 -1.4456 -1.3914  0.3450
  139OSM   H15B15146   1.986   4.170   7.321  1.2692 -0.1880 -1.1314
  139OSM   H15C15147   1.812   4.174   7.347 -1.2270  0.7672 -1.3625
  139OSM    C1415148   2.032   3.968   7.190 -0.0176  0.0146 -0.0763
  139OSM   H14A15149   2.108   3.966   7.268  0.3163 -2.5096 -0.3984
  139OSM   H14B15150   2.062   4.042   7.117 -0.1618  0.2353  0.0879
  139OSM   H14C15151   2.030   3.865   7.158  0.9827 -0.1122  0.2305
  139OSM    C1315152   1.874   3.921   7.374 -0.6958 -0.4211  0.0740
  139OSM   H13A15153   1.800   3.962   7.442  1.4950  0.0072  2.3576
  139OSM   H13B15154   1.970   3.926   7.423 -0.5602 -1.8340 -0.0070
  139OSM   H13C15155   1.863   3.815   7.357 -0.3572 -1.0700  3.2487
  139OSM    C1215156   1.793   3.966   7.136  0.2113 -0.4031 -0.1942
  139OSM   H12A15157   1.840   3.965   7.039  2.0084 -1.7083  0.6189
  139OSM   H12B15158   1.708   4.032   7.142 -0.3289 -1.1790  1.1517
  139OSM    C1115159   1.751   3.815   7.140  0.0020 -0.8028 -0.8087
  139OSM   H11A15160   1.674   3.791   7.064 -0.4299  0.1675 -0.6784
  139OSM   H11B15161   1.715   3.800   7.243  2.3834  0.4294  0.2955
  139OSM      P15162   1.897   3.599   7.192  0.1967 -0.4107  0.1237
  139OSM    O1315163   2.043   3.571   7.200 -0.3528 -0.4484  0.2578
  139OSM    O1415164   1.834   3.608   7.326  0.4489  0.1093  0.6271
  139OSM    O1115165   1.835   3.480   7.111  0.6906  0.0106 -0.0436
  139OSM    O1215166   1.859   3.730   7.109 -0.2467 -0.3753  0.2428
  139OSM    C1S15167   1.767   3.486   6.987 -0.7093 -0.4418 -0.1290
  139OSM    H1S15168   1.715   3.581   6.966 -1.1612 -0.7337 -0.3565
  139OSM    H1T15169   1.686   3.411   6.997 -0.5055 -0.3604  3.6972
  139OSM     NF15170   1.788   3.448   6.749 -0.0087  0.4813 -0.5863
  139OSM    HNF15171   1.778   3.358   6.707 -0.2174  0.0393  0.3859
  139OSM    C2S15172   1.863   3.459   6.871 -0.3813 -0.0890 -0.7359
  139OSM    H2S15173   1.932   3.546   6.863  0.1631 -0.3365  0.8613
  139OSM    C3S15174   1.957   3.329   6.888 -0.2675 -1.1444  0.5383
  139OSM    H3S15175   1.902   3.235   6.866  2.5998 -2.6032 -0.9757
  139OSM     O315176   2.019   3.307   7.015  0.2823 -0.0097  0.1361
  139OSM    HO315177   1.976   3.378   7.063 -0.9585  0.1763 -1.1715
  139OSM    C4S15178   2.065   3.347   6.773 -0.0915 -0.7582  0.3624
  139OSM    H4S15179   2.034   3.329   6.669  1.4149 -1.1130 -0.0376
  139OSM    C5S15180   2.193   3.386   6.785  0.3994 -0.1694 -0.5207
  139OSM    H5S15181   2.224   3.419   6.885 -0.4594  0.1741 -0.3571
  139OSM    C6S15182   2.281   3.395   6.671 -0.6946 -0.0142  0.4154
  139OSM    H6S15183   2.359   3.316   6.684 -1.4001 -0.7293  0.3830
  139OSM    H6T15184   2.336   3.492   6.670 -1.2971  0.3242  0.1448
  139OSM    C7S15185   2.233   3.371   6.524  0.2581 -0.5221  0.3828
  139OSM    H7S15186   2.314   3.422   6.467 -0.6436  0.9320  0.3411
  139OSM    H7T15187   2.141   3.434   6.513  0.7681  0.8581  3.2613
  139OSM    C8S15188   2.207   3.227   6.492 -0.6669  0.8630  0.0269
  139OSM    H8S15189   2.133   3.184   6.563 -0.3579 -2.2191 -1.3765
  139OSM    H8T15190   2.305   3.175   6.489 -1.2371 -0.1897 -0.9591
  139OSM    C9S15191   2.131   3.210   6.360 -0.2629  0.0751 -0.1206
  139OSM    H9S15192   2.059   3.294   6.352  0.3809  0.6707  0.2386
  139OSM    H9T15193   2.083   3.110   6.350 -1.2088  0.5620 -0.6519
  139OSM   C10S15194   2.222   3.233   6.241  0.5714  0.5549 -0.1008
  139OSM   H10S15195   2.287   3.143   6.239 -1.5536 -1.0699 -1.2801
  139OSM   H10T15196   2.280   3.327   6.250 -3.5685  3.2382  1.5829
  139OSM   C11S15197   2.136   3.246   6.106 -0.3600 -0.9221  0.8493
  139OSM   H11S15198   2.047   3.310   6.122  0.5412  1.1168 -1.6512
  139OSM   H11T15199   2.103   3.143   6.081 -2.4541 -0.4652  1.5782
  139OSM   C12S15200   2.229   3.305   6.001 -0.3017 -0.4754 -0.4871
  139OSM   H12S15201   2.300   3.225   5.971 -0.9253 -1.1616 -0.1522
  139OSM   H12T15202   2.287   3.389   6.045 -1.0379  0.2889 -0.9374
  139OSM   C13S15203   2.156   3.354   5.876  0.3328 -0.3781 -0.3935
  139OSM   H13S15204   2.230   3.393   5.803 -0.2365 -0.9306 -1.2965
  139OSM   H13T15205   2.084   3.432   5.907 -2.1306 -2.5523 -0.2449
  139OSM   C14S15206   2.063   3.252   5.803  0.4801  0.0666 -0.5090
  139OSM   H14S15207   2.015   3.304   5.718  2.0568 -1.3825 -2.3699
  139OSM   H14T15208   1.981   3.220   5.872  1.2261 -0.9749 -0.0864
  139OSM   C15S15209   2.138   3.126   5.748  0.6794  0.3228 -0.2074
  139OSM   H15S15210   2.056   3.052   5.734  0.2526  1.1854 -2.9465
  139OSM   H15T15211   2.208   3.087   5.825  1.3927 -0.9740 -1.4530
  139OSM   C16S15212   2.208   3.137   5.613  0.5229 -0.4490 -0.2414
  139OSM   H16S15213   2.263   3.044   5.588  1.6433 -1.0600  3.8906
  139OSM   H16T15214   2.284   3.217   5.614 -0.5873  0.6386 -0.7713
  139OSM   C17S15215   2.110   3.171   5.498 -0.0524  0.2097 -0.1318
  139OSM   H17S15216   2.066   3.272   5.512  1.3680  0.6210  1.8301
  139OSM   H17T15217   2.027   3.098   5.503 -0.3746  0.5867  0.1007
  139OSM   C18S15218   2.180   3.163   5.358  0.1803  0.9122 -0.4998
  139OSM   H18S15219   2.228   3.065   5.337 -1.2198 -0.1894  1.2116
  139OSM   H18T15220   2.272   3.225   5.358  0.6834  0.1822 -0.9555
  139OSM   H18U15221   2.108   3.183   5.276  0.7147 -0.9368 -1.4781
  139OSM    C1F15222   1.722   3.558   6.706 -0.6300 -0.2050  0.7343
  139OSM     OF15223   1.755   3.671   6.745  0.2355  0.3946 -0.0489
  139OSM    C2F15224   1.625   3.536   6.595 -0.3448 -0.4633 -0.6334
  139OSM    H2F15225   1.543   3.481   6.646  0.8044 -0.4344  1.3642
  139OSM    H2G15226   1.679   3.482   6.514 -0.3682  0.7603 -1.4957
  139OSM    C3F15227   1.556   3.667   6.535  0.6326 -0.0062  0.2628
  139OSM    H3F15228   1.642   3.733   6.511 -1.0750  3.1810  2.1532
  139OSM    H3G15229   1.513   3.724   6.620 -0.0433  1.3428 -0.9289
  139OSM    C4F15230   1.454   3.639   6.427  0.4399  0.1774  0.4876
  139OSM    H4F15231   1.394   3.732   6.421  1.6570  1.0247  0.9393
  139OSM    H4G15232   1.378   3.565   6.459  1.6484 -1.7948 -0.9448
  139OSM    C5F15233   1.511   3.605   6.287 -0.3298 -1.5383 -0.6438
  139OSM    H5F15234   1.590   3.528   6.304  0.9534 -0.3967 -1.1784
  139OSM    H5G15235   1.563   3.693   6.243 -2.9518 -0.3322 -1.5162
  139OSM    C6F15236   1.419   3.551   6.177  0.1194 -0.1440 -0.2479
  139OSM    H6F15237   1.333   3.505   6.230 -0.6343  2.6358  1.1527
  139OSM    H6G15238   1.483   3.475   6.128  0.8820  0.0085  0.4864
  139OSM    C7F15239   1.387   3.651   6.066  0.2971  0.1436  0.0014
  139OSM    H7F15240   1.484   3.695   6.035 -0.1424 -0.3663 -2.2536
  139OSM    H7G15241   1.316   3.725   6.110 -1.0745 -0.3951 -1.2023
  139OSM    C8F15242   1.318   3.580   5.942  0.6456  0.4232 -0.6082
  139OSM    H8F15243   1.216   3.547   5.971  0.2656 -0.2902 -2.5804
  139OSM    H8G15244   1.361   3.481   5.914  1.4235 -0.3689  2.9214
  139OSM    C9F15245   1.328   3.672   5.822  0.5432 -0.2522  0.3932
  139OSM    H9F15246   1.382   3.768   5.829  0.8202 -0.4257  0.6142
  139OSM   C10F15247   1.276   3.643   5.699 -0.2086 -0.0544 -0.3996
  139OSM   H10F15248   1.299   3.712   5.617 -1.9313 -2.6967 -3.3418
  139OSM   C11F15249   1.194   3.531   5.646 -0.6622  0.5870 -0.2611
  139OSM   H11F15250   1.093   3.558   5.610 -1.7005 -3.1546 -0.5685
  139OSM   H11G15251   1.180   3.454   5.725  1.8439  1.5267  1.2177
  139OSM   C12F15252   1.275   3.464   5.526 -0.6040  0.4738  0.1744
  139OSM   H12F15253   1.367   3.415   5.563 -1.2137  0.0868  1.2436
  139OSM   H12G15254   1.308   3.543   5.456 -0.1648 -0.8465 -1.1676
  139OSM   C13F15255   1.194   3.353   5.447 -0.0576 -0.5078  1.0402
  139OSM   H13F15256   1.108   3.317   5.507 -1.4989  0.6852 -0.2055
  139OSM   H13G15257   1.251   3.263   5.418  1.2298  1.0634 -1.7222
  139OSM   C14F15258   1.133   3.408   5.317 -0.0083 -0.4835  1.2843
  139OSM   H14F15259   1.082   3.505   5.338  0.5967  0.0430  0.3611
  139OSM   H14G15260   1.055   3.332   5.294 -0.1607 -0.0292  0.2612
  139OSM   C15F15261   1.232   3.443   5.198  0.9186  0.6055  0.0614
  139OSM   H15F15262   1.291   3.533   5.228 -0.0845  1.2434  0.1580
  139OSM   H15G15263   1.174   3.467   5.107  0.5726 -0.8031 -0.1147
  139OSM   C16F15264   1.345   3.339   5.172  0.6715 -0.7876  0.2671
  139OSM   H16F15265   1.295   3.244   5.143  0.4021 -1.1654  1.8969
  139OSM   H16G15266   1.395   3.310   5.266 -0.8894 -2.0764  0.7518
  139OSM   C17F15267   1.427   3.390   5.053 -0.3301 -1.2847 -0.4095
  139OSM   H17F15268   1.488   3.304   5.017 -0.4382 -0.8106 -1.7849
  139OSM   H17G15269   1.501   3.463   5.092 -1.2437 -0.4238 -0.2498
  139OSM   C18F15270   1.363   3.450   4.922  0.0609  0.2840 -0.1247
  139OSM   H18F15271   1.444   3.475   4.850  0.4368  0.3058  0.2989
  139OSM   H18G15272   1.330   3.554   4.943  1.7303  0.7183  0.4471
  139OSM   H18H15273   1.294   3.372   4.883  0.6387 -0.0058 -0.5823
  140OSM      N15274   2.669   1.686   7.144  0.0826 -0.5709 -0.2880
  140OSM    C1515275   2.722   1.642   7.275 -0.1262  0.1703  0.0026
  140OSM   H15A15276   2.763   1.723   7.333  2.4709  0.6894 -2.3304
  140OSM   H15B15277   2.808   1.579   7.258  0.6995  1.3507 -0.2994
  140OSM   H15C15278   2.650   1.606   7.347  1.1492 -2.3982  0.1092
  140OSM    C1415279   2.768   1.784   7.076  0.5908  0.7238 -0.5459
  140OSM   H14A15280   2.722   1.815   6.983 -0.8613 -1.5064 -0.6445
  140OSM   H14B15281   2.862   1.735   7.059 -1.6673 -3.4862 -2.2797
  140OSM   H14C15282   2.791   1.875   7.129  0.0923  2.1809 -2.6932
  140OSM    C1315283   2.653   1.563   7.060  0.6900 -0.1593 -0.6004
  140OSM   H13A15284   2.751   1.517   7.055  0.5129 -0.4957 -1.0650
  140OSM   H13B15285   2.633   1.589   6.957  3.2071 -1.9623 -1.6588
  140OSM   H13C15286   2.594   1.487   7.107  0.3426  1.0327  0.9556
  140OSM    C1215287   2.531   1.759   7.156 -1.1010 -0.6127  0.3202
  140OSM   H12A15288   2.544   1.840   7.227 -1.3355  1.0249 -1.4091
  140OSM   H12B15289   2.456   1.690   7.191  0.6327 -3.8338 -1.8175
  140OSM    C1115290   2.468   1.822   7.027 -0.0029 -0.3015  0.5499
  140OSM   H11A15291   2.536   1.895   6.980 -1.1790  1.4156  1.3727
  140OSM   H11B15292   2.383   1.883   7.065  1.0994  1.6436 -0.0243
  140OSM      P15293   2.310   1.631   6.970 -0.0207 -0.2062  0.0874
  140OSM    O1315294   2.360   1.502   7.022 -0.2502  0.0278  0.5364
  140OSM    O1415295   2.216   1.698   7.060  0.0098 -0.6805  0.2265
  140OSM    O1115296   2.229   1.614   6.844  0.0003 -0.0200 -0.0991
  140OSM    O1215297   2.432   1.726   6.931 -0.0469  0.1266 -1.1709
  140OSM    C1S15298   2.275   1.589   6.712 -0.0074 -0.2510 -0.1452
  140OSM    H1S15299   2.316   1.486   6.704  0.1797 -0.5931  3.5145
  140OSM    H1T15300   2.361   1.655   6.688 -0.2061  0.4742  1.0480
  140OSM     NF15301   2.197   1.536   6.488 -0.0170 -0.1320 -0.0578
  140OSM    HNF15302   2.254   1.575   6.417 -0.3614 -0.5401 -0.5657
  140OSM    C2S15303   2.170   1.618   6.603 -0.0409  0.4587  0.5284
  140OSM    H2S15304   2.067   1.589   6.634  0.1324 -0.8751 -0.0420
  140OSM    C3S15305   2.164   1.772   6.575 -0.4579 -0.3552 -0.3579
  140OSM    H3S15306   2.267   1.804   6.547 -0.7085  1.6246  0.7984
  140OSM     O315307   2.146   1.841   6.701 -0.0031  0.1455  0.1798
  140OSM    HO315308   2.123   1.774   6.766 -3.0637 -1.4216 -2.2183
  140OSM    C4S15309   2.060   1.810   6.480  0.3769 -0.7749 -0.8424
  140OSM    H4S15310   1.959   1.790   6.518 -0.2901  3.3077  0.0067
  140OSM    C5S15311   2.087   1.846   6.356  1.2558  0.1541  0.5044
  140OSM    H5S15312   2.190   1.867   6.324  0.8246  0.0372 -1.0569
  140OSM    C6S15313   1.995   1.868   6.248 -0.6429  0.5242  0.6730
  140OSM    H6S15314   1.993   1.976   6.222 -0.7787  0.8049  1.7850
  140OSM    H6T15315   1.892   1.856   6.288 -1.0391 -0.2297 -0.5164
  140OSM    C7S15316   2.030   1.793   6.115  0.6149 -0.6673 -0.1005
  140OSM    H7S15317   2.044   1.683   6.122  0.1511 -0.6659  1.1932
  140OSM    H7T15318   2.131   1.830   6.087 -0.5343  2.1283 -0.8510
  140OSM    C8S15319   1.937   1.843   6.007  0.3434 -0.3830  0.5029
  140OSM    H8S15320   1.943   1.954   6.010  0.0167 -0.3565  0.2505
  140OSM    H8T15321   1.827   1.824   6.014  0.0822  0.3757 -1.1007
  140OSM    C9S15322   1.988   1.794   5.868  0.4749 -0.4735 -0.0018
  140OSM    H9S15323   1.990   1.683   5.859  2.8471 -0.4185 -0.8881
  140OSM    H9T15324   2.095   1.817   5.852  1.1689 -1.0996  3.1205
  140OSM   C10S15325   1.906   1.848   5.744  1.0701  0.3134 -0.5551
  140OSM   H10S15326   1.923   1.957   5.728  0.8103  0.2876 -1.0198
  140OSM   H10T15327   1.799   1.833   5.766  0.6772  3.4741  0.1726
  140OSM   C11S15328   1.931   1.785   5.606  0.0395  0.2543 -0.9826
  140OSM   H11S15329   1.943   1.676   5.623  1.4315  0.6357  0.8148
  140OSM   H11T15330   2.026   1.811   5.555 -0.7851  2.4318 -1.5385
  140OSM   C12S15331   1.825   1.815   5.503 -0.0304  0.0485 -0.4065
  140OSM   H12S15332   1.874   1.798   5.405 -0.3962 -1.7082 -0.3102
  140OSM   H12T15333   1.804   1.924   5.512 -1.3773 -0.3541  2.1083
  140OSM   C13S15334   1.696   1.731   5.499  0.6838  0.2834 -0.3507
  140OSM   H13S15335   1.646   1.728   5.598 -1.1937  0.0118 -1.2656
  140OSM   H13T15336   1.722   1.623   5.495  0.3777  0.2263 -0.9066
  140OSM   C14S15337   1.607   1.763   5.375  0.2220 -0.3504 -0.3023
  140OSM   H14S15338   1.529   1.683   5.377 -0.1058 -0.0210  0.2230
  140OSM   H14T15339   1.666   1.745   5.282  2.7297  1.6877  0.7772
  140OSM   C15S15340   1.530   1.900   5.382  0.4321 -0.5397 -0.5122
  140OSM   H15S15341   1.508   1.922   5.276 -0.9500 -1.4038 -0.4224
  140OSM   H15T15342   1.598   1.982   5.417 -0.6994  0.4202 -0.5004
  140OSM   C16S15343   1.401   1.904   5.461  0.2029  0.2637 -0.4501
  140OSM   H16S15344   1.434   1.897   5.567  2.4597 -2.7369 -1.1700
  140OSM   H16T15345   1.346   1.811   5.433  1.2440 -1.0052  1.4800
  140OSM   C17S15346   1.325   2.033   5.442 -0.2514  0.9075 -0.6710
  140OSM   H17S15347   1.387   2.108   5.496  2.0782 -2.3714  1.6227
  140OSM   H17T15348   1.231   2.022   5.500 -0.2329 -0.1813 -0.8194
  140OSM   C18S15349   1.282   2.079   5.303 -0.0827 -0.0598  0.6576
  140OSM   H18S15350   1.210   2.162   5.320 -0.3314 -0.1454  0.0110
  140OSM   H18T15351   1.234   1.994   5.251 -4.2627  1.2590  1.9690
  140OSM   H18U15352   1.369   2.114   5.243  0.1356 -0.1380  0.9238
  140OSM    C1F15353   2.161   1.407   6.471 -0.9497 -0.2101 -0.8350
  140OSM     OF15354   2.057   1.366   6.520 -0.1623  0.1135  0.2414
  140OSM    C2F15355   2.247   1.310   6.397 -0.2846 -0.1357 -0.1835
  140OSM    H2F15356   2.267   1.219   6.457  0.3374 -0.2909 -0.6048
  140OSM    H2G15357   2.349   1.350   6.377  0.2832 -1.6145 -0.4100
  140OSM    C3F15358   2.193   1.284   6.256 -0.4716  0.2186  0.4602
  140OSM    H3F15359   2.171   1.381   6.207  0.1040  0.5033  0.7564
  140OSM    H3G15360   2.100   1.223   6.250 -1.1226  1.2902 -0.9785
  140OSM    C4F15361   2.297   1.201   6.174  0.7098  0.9397 -0.3259
  140OSM    H4F15362   2.325   1.113   6.236  2.2802  0.3773 -1.7560
  140OSM    H4G15363   2.382   1.272   6.164  1.3654  0.4423  1.2828
  140OSM    C5F15364   2.241   1.146   6.042  0.6390 -0.6560  0.8864
  140OSM    H5F15365   2.171   1.228   6.015  2.9940  0.5975 -1.8986
  140OSM    H5G15366   2.186   1.050   6.046 -1.6092  0.4956 -0.3024
  140OSM    C6F15367   2.338   1.155   5.923 -0.1000  0.5765 -0.1819
  140OSM    H6F15368   2.423   1.085   5.943  0.8210  1.9582  0.9675
  140OSM    H6G15369   2.376   1.259   5.911  0.0438  0.3679 -1.8748
  140OSM    C7F15370   2.281   1.113   5.788 -0.2672 -0.0807 -0.6071
  140OSM    H7F15371   2.188   1.170   5.764 -0.4372 -0.0015  0.2131
  140OSM    H7G15372   2.239   1.010   5.787  0.1394 -0.2438 -1.0402
  140OSM    C8F15373   2.382   1.141   5.671  0.6440 -0.1708 -0.5091
  140OSM    H8F15374   2.471   1.079   5.694  0.6272  0.3546  1.0766
  140OSM    H8G15375   2.424   1.243   5.683  1.1932 -0.6320  1.9290
  140OSM    C9F15376   2.336   1.104   5.535  0.4148  0.1038 -0.0867
  140OSM    H9F15377   2.232   1.129   5.508 -0.0875 -2.0785 -0.3931
  140OSM   C10F15378   2.414   1.046   5.431  0.6585  0.2099  0.7625
  140OSM   H10F15379   2.367   1.020   5.335  3.4283 -0.4483 -0.5195
  140OSM   C11F15380   2.550   0.985   5.444 -0.6609 -0.0042  0.4759
  140OSM   H11F15381   2.616   1.054   5.501  1.7174 -0.2478 -1.7931
  140OSM   H11G15382   2.585   1.002   5.340 -0.3882  0.6145  0.6618
  140OSM   C12F15383   2.545   0.834   5.488 -0.3011 -1.2334  0.2355
  140OSM   H12F15384   2.529   0.833   5.598 -0.8634  0.1822  0.1877
  140OSM   H12G15385   2.643   0.788   5.464 -0.5970 -0.9458 -1.6785
  140OSM   C13F15386   2.438   0.755   5.415  0.1005  0.5399  0.4122
  140OSM   H13F15387   2.339   0.801   5.436 -0.5251 -0.6802  0.2255
  140OSM   H13G15388   2.439   0.656   5.464  0.5758  1.2919  2.0087
  140OSM   C14F15389   2.449   0.728   5.264  0.3356  0.2291 -0.0986
  140OSM   H14F15390   2.446   0.824   5.209 -2.9608 -0.0659 -0.6603
  140OSM   H14G15391   2.366   0.671   5.217 -0.0613  0.5785  0.1785
  140OSM   C15F15392   2.582   0.660   5.230 -0.1431  0.2187  0.6795
  140OSM   H15F15393   2.591   0.577   5.303 -2.3915 -1.8014 -1.1589
  140OSM   H15G15394   2.675   0.720   5.237  1.4146 -1.8296 -0.9840
  140OSM   C16F15395   2.580   0.584   5.096  0.5607  0.1389  0.1147
  140OSM   H16F15396   2.491   0.519   5.085 -0.1673  1.3022 -1.3887
  140OSM   H16G15397   2.656   0.508   5.125 -0.7876 -0.5217  2.1417
  140OSM   C17F15398   2.629   0.662   4.974  0.1799 -0.8330  0.2989
  140OSM   H17F15399   2.713   0.730   5.003  1.3775 -2.3348  0.4991
  140OSM   H17G15400   2.544   0.723   4.939 -1.3422 -3.2051 -0.3845
  140OSM   C18F15401   2.682   0.585   4.855  0.3611 -0.2135  0.4991
  140OSM   H18F15402   2.699   0.659   4.773  2.1479 -1.8117 -0.6714
  140OSM   H18G15403   2.616   0.502   4.822 -2.1169  1.5696  0.6877
  140OSM   H18H15404   2.779   0.537   4.882  0.7192  0.1352 -0.1174
  141OSM      N15405   1.282   1.075   7.444 -0.1531  0.4767 -0.1700
  141OSM    C1515406   1.315   0.935   7.437 -0.1922 -0.0507  0.4792
  141OSM   H15A15407   1.234   0.882   7.391  0.3816 -0.2728 -0.2979
  141OSM   H15B15408   1.345   0.886   7.528  3.1568  2.8522  1.1908
  141OSM   H15C15409   1.396   0.912   7.370 -0.6581 -2.2530  0.5947
  141OSM    C1415410   1.168   1.082   7.546  0.1243 -0.0142 -0.0196
  141OSM   H14A15411   1.193   1.036   7.640  0.3029  0.7587  0.3148
  141OSM   H14B15412   1.070   1.045   7.517  0.0251  1.1448 -1.2682
  141OSM   H14C15413   1.143   1.185   7.566 -1.1882 -0.3118 -0.0056
  141OSM    C1315414   1.408   1.144   7.483 -0.2133 -0.1733 -0.2499
  141OSM   H13A15415   1.429   1.117   7.586  0.3993  1.0433 -0.0399
  141OSM   H13B15416   1.389   1.250   7.489 -0.5384 -0.1766 -1.0658
  141OSM   H13C15417   1.496   1.118   7.427 -1.4557  0.8148 -2.8023
  141OSM    C1215418   1.239   1.126   7.316  0.1998  0.0831 -0.0859
  141OSM   H12A15419   1.211   1.229   7.330  1.0518  0.6477 -2.0905
  141OSM   H12B15420   1.157   1.062   7.287  0.5307 -0.3060 -0.1795
  141OSM    C1115421   1.332   1.124   7.188  0.4697  0.5375  0.2709
  141OSM   H11A15422   1.428   1.173   7.215  1.0606 -0.1047 -0.6196
  141OSM   H11B15423   1.293   1.195   7.112  0.8434  0.4543 -0.0015
  141OSM      P15424   1.258   0.926   7.042 -0.2561  0.2528  0.3271
  141OSM    O1315425   1.313   0.791   7.019 -0.5995 -0.0877 -0.8297
  141OSM    O1415426   1.116   0.930   7.098 -0.2158 -0.1824 -0.2867
  141OSM    O1115427   1.271   1.023   6.913  0.1367  0.2126 -0.1109
  141OSM    O1215428   1.356   0.992   7.137  0.4101 -0.4900 -0.0551
  141OSM    C1S15429   1.386   1.011   6.833 -0.9596 -0.3747  0.4629
  141OSM    H1S15430   1.436   0.912   6.826  0.4190  0.2945  0.5646
  141OSM    H1T15431   1.452   1.096   6.860 -3.3668  0.9584  2.5935
  141OSM     NF15432   1.452   1.008   6.593  0.3345 -0.1161  0.0973
  141OSM    HNF15433   1.518   1.080   6.574 -0.2170 -0.3604 -3.4131
  141OSM    C2S15434   1.348   1.041   6.684  0.1855 -0.5290 -0.0230
  141OSM    H2S15435   1.259   0.984   6.652  1.7978 -2.1773 -1.8062
  141OSM    C3S15436   1.290   1.180   6.663 -0.0503 -0.2240  0.1718
  141OSM    H3S15437   1.378   1.248   6.658 -0.2861  0.4349  2.9531
  141OSM     O315438   1.217   1.236   6.770  0.3306 -0.2290 -0.5523
  141OSM    HO315439   1.230   1.159   6.826  0.9846  0.0797 -0.2726
  141OSM    C4S15440   1.227   1.206   6.531 -0.2551  0.8571 -0.5914
  141OSM    H4S15441   1.300   1.207   6.450 -1.3983 -0.6913 -1.7022
  141OSM    C5S15442   1.097   1.207   6.506 -1.2148  0.4316 -0.0257
  141OSM    H5S15443   1.032   1.162   6.582  0.3721 -1.0681  0.5041
  141OSM    C6S15444   1.033   1.223   6.367 -0.0524 -0.8174 -0.8518
  141OSM    H6S15445   0.962   1.308   6.371  0.0652 -0.7659  0.6706
  141OSM    H6T15446   0.974   1.135   6.335 -1.4253 -0.4646  0.5817
  141OSM    C7S15447   1.132   1.233   6.246  0.2130  0.5310 -0.1299
  141OSM    H7S15448   1.175   1.131   6.233 -2.7138 -0.9572  0.8302
  141OSM    H7T15449   1.197   1.322   6.258 -2.0936  2.1816  1.0115
  141OSM    C8S15450   1.054   1.267   6.120 -0.3921  0.0620 -0.0044
  141OSM    H8S15451   0.993   1.359   6.131  0.2318  0.2784  2.1712
  141OSM    H8T15452   0.969   1.199   6.097 -2.9011  3.4014 -1.4240
  141OSM    C9S15453   1.146   1.290   5.993  0.1688  0.4632 -0.1502
  141OSM    H9S15454   1.204   1.196   5.977 -1.5892 -0.4566 -1.5114
  141OSM    H9T15455   1.212   1.377   6.010  0.0469  0.4855  0.1996
  141OSM   C10S15456   1.060   1.311   5.865  0.1600  0.1312 -0.4760
  141OSM   H10S15457   0.980   1.385   5.886  0.5277  0.0871  1.2581
  141OSM   H10T15458   1.017   1.210   5.845  0.5965 -0.8036  2.7139
  141OSM   C11S15459   1.140   1.376   5.751  0.3774 -0.5244 -0.4133
  141OSM   H11S15460   1.205   1.461   5.780 -0.2770  0.0434 -0.5570
  141OSM   H11T15461   1.074   1.409   5.668 -0.2602 -1.4538 -0.2966
  141OSM   C12S15462   1.228   1.277   5.666 -0.0979 -0.5448  0.3686
  141OSM   H12S15463   1.173   1.189   5.627  0.3453 -1.4673  1.7487
  141OSM   H12T15464   1.314   1.249   5.732  0.0779  1.4653  1.0697
  141OSM   C13S15465   1.289   1.358   5.548 -0.2435  0.2569  0.3743
  141OSM   H13S15466   1.390   1.323   5.519 -0.6058  1.1242 -2.2241
  141OSM   H13T15467   1.306   1.462   5.581  1.0252  0.1921 -0.0355
  141OSM   C14S15468   1.202   1.374   5.424 -0.1688 -0.1543  0.4908
  141OSM   H14S15469   1.110   1.435   5.441  0.2639  0.5160  0.4646
  141OSM   H14T15470   1.191   1.278   5.369 -1.8499  0.5459 -0.5063
  141OSM   C15S15471   1.285   1.465   5.333 -0.0932 -0.2036 -0.1196
  141OSM   H15S15472   1.386   1.421   5.322  0.2825  0.3827  0.8627
  141OSM   H15T15473   1.291   1.568   5.374  0.1632  0.1639 -1.0492
  141OSM   C16S15474   1.220   1.479   5.192  0.7012  0.9635  0.3039
  141OSM   H16S15475   1.112   1.497   5.213  0.6599 -0.8161  1.9409
  141OSM   H16T15476   1.242   1.383   5.140  2.0253  0.3644  1.9010
  141OSM   C17S15477   1.270   1.606   5.118  0.9883  0.3884 -0.1805
  141OSM   H17S15478   1.370   1.608   5.070 -0.0828  3.1034 -2.6216
  141OSM   H17T15479   1.284   1.686   5.195  1.2646  0.7880 -0.6418
  141OSM   C18S15480   1.167   1.645   5.005  0.1403  0.0380 -0.2631
  141OSM   H18S15481   1.193   1.577   4.921  2.1939  0.1124  0.2497
  141OSM   H18T15482   1.181   1.747   4.963  1.6167  0.0893  0.2885
  141OSM   H18U15483   1.061   1.649   5.037  0.2925  1.0874  0.1540
  141OSM    C1F15484   1.472   0.884   6.555  0.4622  0.2222  0.2202
  141OSM     OF15485   1.391   0.792   6.579 -0.2145  0.1329 -0.1790
  141OSM    C2F15486   1.588   0.862   6.457 -0.6312  0.0823  0.2787
  141OSM    H2F15487   1.637   0.762   6.469 -0.3887 -0.1670 -2.2471
  141OSM    H2G15488   1.669   0.935   6.481 -1.6987  1.1481  0.7091
  141OSM    C3F15489   1.538   0.880   6.315  0.3237  0.9037  0.0267
  141OSM    H3F15490   1.499   0.980   6.286  0.4810  1.1793  0.7413
  141OSM    H3G15491   1.451   0.812   6.305  0.2075  0.9260  0.8037
  141OSM    C4F15492   1.637   0.828   6.208  0.1017 -0.3537  0.1180
  141OSM    H4F15493   1.574   0.798   6.121  0.0100  3.0597 -1.1656
  141OSM    H4G15494   1.696   0.741   6.244 -0.6142 -0.8819  0.0376
  141OSM    C5F15495   1.735   0.931   6.163 -0.0332 -0.4060 -0.3362
  141OSM    H5F15496   1.802   0.958   6.248 -0.7550  1.8910 -0.4404
  141OSM    H5G15497   1.676   1.020   6.131  0.5920 -0.2786 -1.1720
  141OSM    C6F15498   1.815   0.881   6.046 -0.2142  0.3007  0.3589
  141OSM    H6F15499   1.871   0.791   6.078  1.1080  1.4729  1.4983
  141OSM    H6G15500   1.893   0.956   6.019 -0.9216  0.5844 -1.0060
  141OSM    C7F15501   1.742   0.856   5.907 -0.6227 -0.2835 -0.6281
  141OSM    H7F15502   1.707   0.959   5.882  1.0623 -0.0027 -2.0112
  141OSM    H7G15503   1.651   0.797   5.930  0.0515 -1.1335 -0.0937
  141OSM    C8F15504   1.825   0.797   5.793  0.4287  0.0439  0.0624
  141OSM    H8F15505   1.891   0.719   5.839  0.4373  0.5784  0.9805
  141OSM    H8G15506   1.894   0.877   5.759  1.3062  0.2397  2.1490
  141OSM    C9F15507   1.738   0.745   5.688  0.8054  0.0450  0.0758
  141OSM    H9F15508   1.652   0.684   5.721  0.3259  1.2675  1.1477
  141OSM   C10F15509   1.760   0.761   5.555 -0.7109  0.2674  0.3965
  141OSM   H10F15510   1.695   0.703   5.487  0.0012  0.3053 -0.3369
  141OSM   C11F15511   1.876   0.828   5.485  0.8169 -0.3686  0.0716
  141OSM   H11F15512   1.968   0.839   5.547 -0.2658 -1.7680  2.0384
  141OSM   H11G15513   1.837   0.929   5.460 -2.1097 -1.3005  0.5470
  141OSM   C12F15514   1.903   0.753   5.355 -0.0065  0.3417 -0.0377
  141OSM   H12F15515   1.810   0.751   5.294  0.2506  0.0667 -0.4272
  141OSM   H12G15516   1.945   0.651   5.368 -1.3270 -0.2954 -0.5629
  141OSM   C13F15517   2.001   0.833   5.257  0.1221  0.5838  0.0987
  141OSM   H13F15518   2.097   0.849   5.311 -0.2711  2.5292  0.3249
  141OSM   H13G15519   1.963   0.936   5.237  3.0899  1.5424 -1.1492
  141OSM   C14F15520   2.015   0.771   5.121  0.1692 -0.1986  0.2213
  141OSM   H14F15521   1.914   0.758   5.078  0.2697  1.7517 -0.6921
  141OSM   H14G15522   2.077   0.678   5.129  1.6721  0.7785  0.4669
  141OSM   C15F15523   2.075   0.873   5.018  0.1098 -0.2832 -0.6184
  141OSM   H15F15524   2.182   0.842   5.016  0.0260 -0.5893 -0.5069
  141OSM   H15G15525   2.070   0.976   5.060 -2.0546 -0.2700 -0.7628
  141OSM   C16F15526   2.003   0.861   4.879  0.5257 -0.0712  0.3868
  141OSM   H16F15527   1.964   0.760   4.855  0.7704  0.6820 -3.9639
  141OSM   H16G15528   2.075   0.886   4.798  0.8242 -1.6633  0.1269
  141OSM   C17F15529   1.888   0.961   4.888 -0.2005  0.0631  0.4557
  141OSM   H17F15530   1.920   1.060   4.926 -2.3310  0.8234  0.4209
  141OSM   H17G15531   1.818   0.935   4.970 -0.1778  0.1278  0.4957
  141OSM   C18F15532   1.809   0.989   4.758 -0.3916 -1.1316  0.0816
  141OSM   H18F15533   1.881   1.044   4.694  0.8452 -1.0739  1.4676
  141OSM   H18G15534   1.725   1.062   4.770 -0.4783 -0.8199 -2.0389
  141OSM   H18H15535   1.769   0.894   4.716 -2.2743 -0.6804  0.7593
  142OSM      N15536   1.755   0.258   7.243 -0.3278  0.3153 -0.7892
  142OSM    C1515537   1.808   0.273   7.385 -1.0157  0.2322 -0.4208
  142OSM   H15A15538   1.909   0.236   7.396 -1.4797 -0.5415  1.7790
  142OSM   H15B15539   1.754   0.216   7.460  0.2240  0.0927  0.4124
  142OSM   H15C15540   1.802   0.374   7.423 -2.4115 -0.6146  1.8029
  142OSM    C1415541   1.740   0.113   7.217  0.1627  1.0512 -0.1118
  142OSM   H14A15542   1.828   0.052   7.234 -0.2645  0.2707 -0.6127
  142OSM   H14B15543   1.700   0.101   7.118 -0.4199  0.3719  0.1970
  142OSM   H14C15544   1.666   0.067   7.281  0.0256  0.8754 -0.3954
  142OSM    C1315545   1.626   0.333   7.229 -0.0912  0.5848 -0.2274
  142OSM   H13A15546   1.636   0.440   7.239  0.4167  0.4641  0.6322
  142OSM   H13B15547   1.556   0.300   7.305  0.7818 -0.3687  0.1880
  142OSM   H13C15548   1.581   0.302   7.135 -1.7202 -0.2032  0.7712
  142OSM    C1215549   1.868   0.323   7.156  0.0968 -0.0534  0.0347
  142OSM   H12A15550   1.848   0.292   7.055 -2.6616 -0.9440  0.7666
  142OSM   H12B15551   1.960   0.274   7.182 -0.5202 -2.0034 -1.2174
  142OSM    C1115552   1.885   0.472   7.171  0.5571  0.0380  0.3414
  142OSM   H11A15553   1.988   0.494   7.137  1.1326 -2.2637  0.4515
  142OSM   H11B15554   1.884   0.502   7.278  0.2060  1.9429 -0.1533
  142OSM      P15555   1.813   0.695   7.074 -0.6548  0.1965  0.6981
  142OSM    O1315556   1.692   0.770   7.074  0.7900  0.1423 -0.5661
  142OSM    O1415557   1.926   0.739   7.160  0.3870 -0.4077 -0.7169
  142OSM    O1115558   1.871   0.712   6.932  0.2273 -0.1970  0.7401
  142OSM    O1215559   1.784   0.541   7.093 -0.1238 -0.5640  0.5317
  142OSM    C1S15560   1.898   0.618   6.833 -0.1138  0.2096 -0.2154
  142OSM    H1S15561   1.817   0.542   6.832 -0.5608  0.5910  2.0878
  142OSM    H1T15562   1.985   0.550   6.848  1.0558  1.1728 -2.0747
  142OSM     NF15563   1.924   0.579   6.592 -0.0527  0.1154  1.5465
  142OSM    HNF15564   2.012   0.546   6.560 -0.1427  0.3892  1.0003
  142OSM    C2S15565   1.923   0.680   6.692  0.0126  0.2417  0.2369
  142OSM    H2S15566   1.836   0.743   6.665  0.2107 -0.8763 -3.6507
  142OSM    C3S15567   2.055   0.758   6.697  0.5956 -0.0869 -0.1462
  142OSM    H3S15568   2.136   0.689   6.728  1.1192  0.4351 -0.3310
  142OSM     O315569   2.066   0.852   6.805  0.2911 -0.1304 -0.3363
  142OSM    HO315570   2.001   0.828   6.871  1.2619 -1.6492  0.1291
  142OSM    C4S15571   2.089   0.817   6.560  0.3745  0.0773 -0.1437
  142OSM    H4S15572   2.024   0.903   6.537 -1.2346 -1.3994 -1.4360
  142OSM    C5S15573   2.202   0.779   6.487  0.8789 -0.2756  0.3454
  142OSM    H5S15574   2.257   0.692   6.525 -2.2450 -2.2438  0.7029
  142OSM    C6S15575   2.248   0.835   6.350 -0.3111  0.7329 -0.1426
  142OSM    H6S15576   2.356   0.858   6.363 -0.0857 -0.9567  1.4670
  142OSM    H6T15577   2.198   0.929   6.318 -0.9887 -0.7002 -3.7067
  142OSM    C7S15578   2.247   0.721   6.243  1.3874  0.2723 -0.2707
  142OSM    H7S15579   2.145   0.678   6.237  1.5695  0.0146 -2.0894
  142OSM    H7T15580   2.315   0.640   6.274 -0.9557 -0.5752  3.2184
  142OSM    C8S15581   2.283   0.768   6.101 -0.0736 -0.1315  0.0472
  142OSM    H8S15582   2.379   0.823   6.097 -0.5189  0.6452 -3.2481
  142OSM    H8T15583   2.199   0.836   6.076 -0.4302 -0.6448 -0.1859
  142OSM    C9S15584   2.280   0.658   5.996 -0.5110 -0.7778 -0.2641
  142OSM    H9S15585   2.180   0.611   6.003 -1.0232  0.4384  1.2267
  142OSM    H9T15586   2.349   0.573   6.013 -1.2418 -1.1973  0.6779
  142OSM   C10S15587   2.321   0.702   5.854 -0.2543 -0.0833  0.1477
  142OSM   H10S15588   2.428   0.730   5.859 -0.2836 -0.0805  0.8812
  142OSM   H10T15589   2.252   0.785   5.827  0.1049  0.3570  0.5569
  142OSM   C11S15590   2.304   0.587   5.752  0.4101 -0.4124  0.4128
  142OSM   H11S15591   2.324   0.490   5.802  0.2049 -1.6886 -1.8766
  142OSM   H11T15592   2.379   0.597   5.670 -0.1188  1.6247  0.1166
  142OSM   C12S15593   2.165   0.578   5.687 -0.0388  0.2367 -0.6317
  142OSM   H12S15594   2.136   0.675   5.640 -0.1714  0.1241 -0.7868
  142OSM   H12T15595   2.085   0.567   5.763  0.3307  3.0893  0.2928
  142OSM   C13S15596   2.145   0.461   5.584 -0.0398 -0.1223 -0.0100
  142OSM   H13S15597   2.047   0.410   5.588 -2.1914  3.7175  2.7041
  142OSM   H13T15598   2.216   0.383   5.618  1.0798  0.8781  0.0493
  142OSM   C14S15599   2.196   0.495   5.447  0.7379 -0.0863  0.1743
  142OSM   H14S15600   2.299   0.528   5.471  0.1385 -0.4573  3.6876
  142OSM   H14T15601   2.146   0.589   5.417  0.9297 -1.0344 -3.6355
  142OSM   C15S15602   2.168   0.380   5.350 -0.3056  0.3866 -0.4722
  142OSM   H15S15603   2.060   0.355   5.338 -0.0347 -0.7989 -0.5290
  142OSM   H15T15604   2.218   0.289   5.389  2.1095  1.1811 -1.5368
  142OSM   C16S15605   2.223   0.402   5.219 -0.9993  0.3571  0.1898
  142OSM   H16S15606   2.330   0.432   5.222 -1.2544  1.8604 -2.5175
  142OSM   H16T15607   2.180   0.486   5.159  0.6787  0.9735 -0.2152
  142OSM   C17S15608   2.225   0.276   5.137  0.1995  0.2849  0.4230
  142OSM   H17S15609   2.120   0.239   5.126  1.4332 -3.0850 -1.4010
  142OSM   H17T15610   2.272   0.195   5.196  0.5725  0.7511  0.7728
  142OSM   C18S15611   2.295   0.291   5.001 -0.4652  0.2588  0.5944
  142OSM   H18S15612   2.276   0.191   4.956 -2.1148  1.5549 -1.7994
  142OSM   H18T15613   2.404   0.306   5.015 -0.1009 -1.3350 -0.2517
  142OSM   H18U15614   2.250   0.364   4.930  0.5223 -1.3504 -1.8232
  142OSM    C1F15615   1.818   0.503   6.562  0.0752 -0.3005 -0.1614
  142OSM     OF15616   1.708   0.522   6.619 -0.2867  0.5680 -0.0549
  142OSM    C2F15617   1.841   0.395   6.457 -0.0508 -0.4859  0.8101
  142OSM    H2F15618   1.744   0.345   6.434 -1.7162  1.8453  2.3729
  142OSM    H2G15619   1.914   0.313   6.478  1.0587 -0.8495 -3.4433
  142OSM    C3F15620   1.905   0.453   6.328  0.0657  0.2218 -0.2907
  142OSM    H3F15621   2.002   0.500   6.356  1.5842 -3.1814  0.6766
  142OSM    H3G15622   1.830   0.521   6.283 -1.8769  1.3047  4.0324
  142OSM    C4F15623   1.940   0.344   6.229  0.2575 -0.5680 -0.5458
  142OSM    H4F15624   1.856   0.273   6.211 -1.1037  0.7139  0.4737
  142OSM    H4G15625   2.023   0.288   6.276 -1.1313 -0.6683  1.9711
  142OSM    C5F15626   1.998   0.406   6.100 -1.2088  0.0602 -0.3066
  142OSM    H5F15627   2.073   0.478   6.139 -0.1768 -0.9278 -0.4508
  142OSM    H5G15628   1.921   0.449   6.032 -0.4085  1.1846 -0.5220
  142OSM    C6F15629   2.077   0.300   6.021 -0.3546  0.3517  0.5953
  142OSM    H6F15630   2.157   0.262   6.088  0.6701  2.3790  0.6000
  142OSM    H6G15631   2.125   0.353   5.936  1.5486 -0.0078  1.3973
  142OSM    C7F15632   1.995   0.187   5.959  0.9934 -0.1131  0.2339
  142OSM    H7F15633   1.906   0.231   5.910  0.7857  0.1138  0.8120
  142OSM    H7G15634   1.962   0.126   6.046  0.8794  2.1019  1.8098
  142OSM    C8F15635   2.071   0.088   5.871 -0.2077  0.3921  1.1279
  142OSM    H8F15636   2.002   0.008   5.836  1.3350 -1.0563  1.2735
  142OSM    H8G15637   2.132   0.019   5.933  1.2991  1.6385  1.0949
  142OSM    C9F15638   2.150   0.144   5.754 -0.1645 -0.4169  0.2406
  142OSM    H9F15639   2.141   0.253   5.741  0.4716 -0.2778  0.8594
  142OSM   C10F15640   2.220   0.086   5.656  0.0598  0.7517 -0.2514
  142OSM   H10F15641   2.267   0.145   5.576  1.4825  0.4839  0.3484
  142OSM   C11F15642   2.234  -0.064   5.656 -0.3487  0.1732 -0.2035
  142OSM   H11F15643   2.164  -0.122   5.719 -3.6249  1.2119 -2.6045
  142OSM   H11G15644   2.326  -0.095   5.710 -0.5833  0.1745  0.1977
  142OSM   C12F15645   2.221  -0.125   5.515 -0.2722  0.3354 -0.0230
  142OSM   H12F15646   2.234  -0.234   5.530 -2.0520  0.0600 -0.2703
  142OSM   H12G15647   2.300  -0.096   5.443  0.3868 -3.3541 -0.9747
  142OSM   C13F15648   2.083  -0.106   5.445  0.6931  0.6393 -0.9028
  142OSM   H13F15649   2.031  -0.019   5.490  0.8142 -0.0141  0.5488
  142OSM   H13G15650   2.026  -0.201   5.458  1.3575  0.2894 -0.5359
  142OSM   C14F15651   2.095  -0.063   5.297 -0.1960  0.2921  0.5055
  142OSM   H14F15652   2.146   0.036   5.293 -2.5689  1.6849  2.2268
  142OSM   H14G15653   1.991  -0.043   5.263 -0.1301  0.0463  0.1508
  142OSM   C15F15654   2.162  -0.165   5.212  0.5409  0.2347 -0.3825
  142OSM   H15F15655   2.082  -0.242   5.205 -0.6546  1.2773  0.9824
  142OSM   H15G15656   2.251  -0.214   5.257 -0.2633 -2.1803 -1.2489
  142OSM   C16F15657   2.197  -0.106   5.073 -0.0125  0.2960 -0.8545
  142OSM   H16F15658   2.292  -0.048   5.076 -0.2712  0.8632 -2.5820
  142OSM   H16G15659   2.130  -0.023   5.041  3.2607  2.9645 -1.2759
  142OSM   C17F15660   2.206  -0.215   4.975 -0.3342 -0.7209  0.6712
  142OSM   H17F15661   2.104  -0.257   4.971 -1.4096  1.6567 -3.6542
  142OSM   H17G15662   2.275  -0.287   5.024  0.7731 -1.2744 -1.5979
  142OSM   C18F15663   2.263  -0.164   4.837  0.4229 -0.2447 -0.9776
  142OSM   H18F15664   2.217  -0.223   4.755  0.3518  0.1311 -1.2148
  142OSM   H18G15665   2.374  -0.173   4.843  0.4754  0.7606 -0.1212
  142OSM   H18H15666   2.251  -0.053   4.831  1.4373 -0.0894 -0.4198
  143OSM      N15667   3.162   3.217   6.845  0.0078 -0.0327  0.5600
  143OSM    C1515668   3.211   3.269   6.713  0.4099  0.3180 -0.0821
  143OSM   H15A15669   3.160   3.221   6.631  0.7627 -1.3576  0.6301
  143OSM   H15B15670   3.316   3.245   6.710  0.6103 -0.2072  4.2505
  143OSM   H15C15671   3.181   3.370   6.692 -1.7611 -0.0344  1.0159
  143OSM    C1415672   3.175   3.066   6.838 -0.1481  0.3434  1.1731
  143OSM   H14A15673   3.276   3.039   6.810  0.7649 -1.1260  5.0978
  143OSM   H14B15674   3.101   3.029   6.770  1.5176 -0.4409 -0.2888
  143OSM   H14C15675   3.159   3.017   6.933 -0.9225 -1.7654 -0.0025
  143OSM    C1315676   3.253   3.276   6.950 -0.0415 -0.4074 -0.0097
  143OSM   H13A15677   3.237   3.383   6.953  2.0933  0.0842 -2.5215
  143OSM   H13B15678   3.355   3.256   6.923 -0.0739 -2.2463  1.0843
  143OSM   H13C15679   3.242   3.238   7.051  1.5566 -0.3656  0.1958
  143OSM    C1215680   3.017   3.256   6.867 -0.5482 -0.3345  0.9851
  143OSM   H12A15681   2.961   3.243   6.776 -2.0646  2.4145  1.3889
  143OSM   H12B15682   3.025   3.364   6.877  0.4895 -0.1897 -1.0189
  143OSM    C1115683   2.933   3.192   6.982 -0.5183 -0.2659 -0.1293
  143OSM   H11A15684   2.844   3.258   6.981  0.0295  0.4866  0.0694
  143OSM   H11B15685   2.995   3.210   7.072 -2.1848  3.5942  0.4274
  143OSM      P15686   2.784   3.011   6.871 -0.1247  0.2634  0.1020
  143OSM    O1315687   2.814   2.890   6.796 -0.4418 -0.1699 -0.2400
  143OSM    O1415688   2.656   3.013   6.953 -0.1842  0.0122  0.4124
  143OSM    O1115689   2.789   3.137   6.771  0.6574 -0.0740 -0.0539
  143OSM    O1215690   2.902   3.047   6.970  0.1315 -0.0500  0.4471
  143OSM    C1S15691   2.756   3.110   6.631  0.8525  0.1464 -0.5626
  143OSM    H1S15692   2.671   3.038   6.627  1.3304 -0.4086 -0.8927
  143OSM    H1T15693   2.841   3.070   6.572  0.8773 -0.3356 -0.2135
  143OSM     NF15694   2.708   3.206   6.408  0.6720 -0.6886 -0.3677
  143OSM    HNF15695   2.763   3.260   6.344 -1.3674  0.3209 -1.3824
  143OSM    C2S15696   2.715   3.240   6.549  0.2278 -0.5093  0.4680
  143OSM    H2S15697   2.621   3.284   6.588  0.8692  1.1476  0.2436
  143OSM    C3S15698   2.809   3.355   6.580 -0.1370  0.1024 -1.2047
  143OSM    H3S15699   2.918   3.332   6.569  0.5862  2.9288 -0.7307
  143OSM     O315700   2.819   3.398   6.717 -0.0492  0.5118  0.2160
  143OSM    HO315701   2.777   3.329   6.768 -1.5720  1.2079 -0.0549
  143OSM    C4S15702   2.787   3.472   6.490 -0.4424  0.1513 -0.1250
  143OSM    H4S15703   2.858   3.483   6.407  0.1015 -0.3075  0.2695
  143OSM    C5S15704   2.692   3.565   6.497  0.2919 -0.2234 -0.0179
  143OSM    H5S15705   2.610   3.556   6.570  0.2322  0.4694  0.0012
  143OSM    C6S15706   2.685   3.688   6.404 -0.5507  1.3236  0.2171
  143OSM    H6S15707   2.755   3.764   6.443  0.5917  0.1056  0.5886
  143OSM    H6T15708   2.582   3.731   6.409 -1.5067 -0.5861 -1.4940
  143OSM    C7S15709   2.707   3.665   6.254 -0.6245  0.0963  0.6334
  143OSM    H7S15710   2.813   3.647   6.227 -1.0136 -2.5921  0.6211
  143OSM    H7T15711   2.682   3.758   6.200  2.6328  0.2815 -0.7850
  143OSM    C8S15712   2.632   3.554   6.178 -0.3285 -0.1087  0.8636
  143OSM    H8S15713   2.522   3.560   6.194 -0.4083  0.8953  0.0429
  143OSM    H8T15714   2.663   3.455   6.216  1.3304  0.9459  2.4365
  143OSM    C9S15715   2.655   3.552   6.025  0.4856 -0.1160  0.4744
  143OSM    H9S15716   2.757   3.513   6.007  0.0324 -0.9660 -0.3781
  143OSM    H9T15717   2.642   3.660   6.001  0.4486  0.0318  1.1558
  143OSM   C10S15718   2.557   3.458   5.952  0.0039  0.4947 -0.1066
  143OSM   H10S15719   2.454   3.500   5.948  1.0195  3.0775 -0.8934
  143OSM   H10T15720   2.547   3.362   6.007 -0.8926 -0.1672 -1.3652
  143OSM   C11S15721   2.601   3.420   5.802  0.0262 -0.0806 -0.1111
  143OSM   H11S15722   2.701   3.374   5.814 -0.4365 -1.0478  0.1577
  143OSM   H11T15723   2.600   3.512   5.741  1.5728 -0.5596 -0.9103
  143OSM   C12S15724   2.515   3.317   5.735 -0.3822  0.1213  0.1018
  143OSM   H12S15725   2.429   3.365   5.684 -1.1609  1.4223  2.4772
  143OSM   H12T15726   2.477   3.258   5.821 -0.5507  2.4079  1.6881
  143OSM   C13S15727   2.577   3.228   5.628  0.1435  0.7589  0.3419
  143OSM   H13S15728   2.491   3.165   5.599  0.7719 -0.6205  1.3822
  143OSM   H13T15729   2.664   3.176   5.673  1.6615  1.4974 -1.5825
  143OSM   C14S15730   2.606   3.314   5.500  0.4610  0.0501 -0.5212
  143OSM   H14S15731   2.697   3.375   5.511 -0.1553  0.7904  0.5984
  143OSM   H14T15732   2.519   3.381   5.483  0.7405  0.4801 -0.2589
  143OSM   C15S15733   2.610   3.223   5.376  0.3017 -0.0279 -0.8701
  143OSM   H15S15734   2.507   3.200   5.342  0.7807 -1.0934 -1.6544
  143OSM   H15T15735   2.666   3.131   5.406  0.3792  0.9598  2.4267
  143OSM   C16S15736   2.684   3.280   5.255  0.4088 -0.2297 -0.5571
  143OSM   H16S15737   2.782   3.323   5.284  0.4683 -0.2476 -0.7307
  143OSM   H16T15738   2.626   3.365   5.214  0.7237  0.7538  0.9446
  143OSM   C17S15739   2.694   3.174   5.145 -0.4077 -0.4631 -0.0793
  143OSM   H17S15740   2.598   3.120   5.134 -1.0443  0.5950  0.1351
  143OSM   H17T15741   2.764   3.099   5.187 -0.5354  0.0043  0.9979
  143OSM   C18S15742   2.753   3.220   5.011 -0.0908 -0.3669  0.2682
  143OSM   H18S15743   2.843   3.283   5.024 -0.2186  0.3421 -1.9422
  143OSM   H18T15744   2.685   3.285   4.952 -1.2287 -2.8466 -1.3237
  143OSM   H18U15745   2.781   3.136   4.945  4.4399 -0.0800  1.4966
  143OSM    C1F15746   2.614   3.129   6.353 -0.6886  0.5518 -0.6730
  143OSM     OF15747   2.541   3.065   6.424 -0.1747  0.2428 -0.5349
  143OSM    C2F15748   2.609   3.124   6.203  0.1486  0.0966  0.0134
  143OSM    H2F15749   2.711   3.115   6.161  0.2427  0.6738  0.1068
  143OSM    H2G15750   2.543   3.205   6.164  0.8371  0.8455  0.3883
  143OSM    C3F15751   2.534   2.991   6.165  0.2322 -0.7079  0.0144
  143OSM    H3F15752   2.432   2.995   6.209  0.0931  1.4037 -0.4216
  143OSM    H3G15753   2.585   2.902   6.207 -0.3249  0.3063  3.1016
  143OSM    C4F15754   2.521   2.984   6.019  0.4589 -0.2713  0.9351
  143OSM    H4F15755   2.532   3.085   5.974 -3.6573 -0.6405 -1.3367
  143OSM    H4G15756   2.419   2.959   5.983  1.5368 -1.4683 -1.5577
  143OSM    C5F15757   2.618   2.881   5.952  0.4428  0.3634  0.5270
  143OSM    H5F15758   2.587   2.779   5.985 -0.9662  1.0312  1.3595
  143OSM    H5G15759   2.723   2.906   5.978  0.5478 -2.6792  3.7776
  143OSM    C6F15760   2.593   2.887   5.801 -0.1818 -0.4021  0.1781
  143OSM    H6F15761   2.598   2.995   5.774  0.2599 -0.6473 -0.7675
  143OSM    H6G15762   2.490   2.851   5.780 -0.3214  0.9117 -1.6534
  143OSM    C7F15763   2.688   2.817   5.704 -0.0025  0.2844 -0.2684
  143OSM    H7F15764   2.688   2.714   5.745  0.5037  0.6237  0.6095
  143OSM    H7G15765   2.788   2.864   5.710 -0.3891  1.5823 -2.5654
  143OSM    C8F15766   2.639   2.824   5.559 -0.0533  0.0169  0.3641
  143OSM    H8F15767   2.682   2.916   5.514  2.5649 -1.2088  0.1897
  143OSM    H8G15768   2.528   2.824   5.548 -0.1981  1.6500  1.5244
  143OSM    C9F15769   2.694   2.701   5.491 -1.0001  0.1736  0.1364
  143OSM    H9F15770   2.668   2.611   5.549  0.5284  0.1536  0.8377
  143OSM   C10F15771   2.770   2.700   5.377  0.0263  0.7559 -1.1001
  143OSM   H10F15772   2.807   2.601   5.345 -1.2554  0.0660 -0.5271
  143OSM   C11F15773   2.821   2.813   5.293 -0.1775  0.1304  0.4576
  143OSM   H11F15774   2.819   2.905   5.355  0.5775  0.6132 -0.2140
  143OSM   H11G15775   2.767   2.828   5.197 -1.5493  1.8267  1.4512
  143OSM   C12F15776   2.970   2.792   5.246  0.2380 -0.2862 -0.3062
  143OSM   H12F15777   3.002   2.687   5.225  2.4795 -0.0159  1.3140
  143OSM   H12G15778   3.030   2.831   5.332 -1.0436 -0.6524  0.7852
  143OSM   C13F15779   3.009   2.888   5.128  0.1813  0.5373  0.1961
  143OSM   H13F15780   3.118   2.908   5.138  0.4651 -1.3947  1.5577
  143OSM   H13G15781   2.943   2.977   5.139 -1.8722 -1.0601  1.3513
  143OSM   C14F15782   3.002   2.812   4.991 -0.6763  0.1072 -0.0879
  143OSM   H14F15783   2.894   2.793   4.974 -0.3947 -1.4314 -0.2456
  143OSM   H14G15784   3.046   2.711   5.003 -1.0482  0.0208  0.6254
  143OSM   C15F15785   3.064   2.883   4.873  0.1379 -0.6014  0.0248
  143OSM   H15F15786   3.175   2.889   4.877  0.0257  2.1624  1.1747
  143OSM   H15G15787   3.024   2.985   4.890 -1.2657 -1.1043 -0.1610
  143OSM   C16F15788   3.006   2.835   4.736 -0.1104  0.4945 -0.5614
  143OSM   H16F15789   2.900   2.801   4.745 -0.2200  1.0555  0.5189
  143OSM   H16G15790   3.072   2.757   4.695 -2.0215 -1.4814 -0.0792
  143OSM   C17F15791   2.990   2.947   4.629 -0.8775 -0.5854  0.5287
  143OSM   H17F15792   2.944   3.027   4.692  1.3246  0.9516  0.3093
  143OSM   H17G15793   2.926   2.911   4.546  0.2795 -2.7307  0.5157
  143OSM   C18F15794   3.109   2.994   4.551 -0.3222  0.0228  1.1039
  143OSM   H18F15795   3.079   3.072   4.478 -1.2192 -3.1563 -2.2163
  143OSM   H18G15796   3.149   2.912   4.488 -1.8521  2.0727 -2.9472
  143OSM   H18H15797   3.192   3.030   4.616  0.9706 -0.1767 -0.3853
  144OSM      N15798   2.065   2.312   7.056  0.5411 -0.1123 -0.2112
  144OSM    C1515799   2.036   2.423   7.143 -0.4948 -0.8706  0.0316
  144OSM   H15A15800   1.960   2.487   7.102 -1.1562 -1.2070  0.7053
  144OSM   H15B15801   2.121   2.482   7.173 -0.6874 -0.5623 -0.0362
  144OSM   H15C15802   1.991   2.397   7.238  0.7435 -0.7287  0.6726
  144OSM    C1415803   2.174   2.232   7.100 -0.3193  0.0420 -0.8743
  144OSM   H14A15804   2.265   2.290   7.103  0.1943 -0.5752  4.0124
  144OSM   H14B15805   2.192   2.144   7.040  0.3235  0.4858 -1.3482
  144OSM   H14C15806   2.152   2.195   7.199 -2.1776 -0.6145 -1.4856
  144OSM    C1315807   1.948   2.224   7.051 -0.5011  0.1540 -0.2658
  144OSM   H13A15808   1.927   2.180   7.147 -2.4952  2.7700  0.6167
  144OSM   H13B15809   1.961   2.134   6.992  0.1617 -0.3544  0.6320
  144OSM   H13C15810   1.859   2.272   7.014  0.0272  2.1960  0.9510
  144OSM    C1215811   2.094   2.372   6.924 -0.3331  0.4365 -0.0152
  144OSM   H12A15812   2.006   2.397   6.868 -0.4117  0.1302 -0.0316
  144OSM   H12B15813   2.129   2.289   6.864 -1.3872  0.7083 -1.0260
  144OSM    C1115814   2.205   2.492   6.908  0.3408  0.7500 -0.4415
  144OSM   H11A15815   2.165   2.580   6.963  0.2247  0.4952 -0.1128
  144OSM   H11B15816   2.213   2.508   6.799 -0.9176 -0.9193 -0.8275
  144OSM      P15817   2.454   2.538   6.933  0.4830 -0.3938 -0.5965
  144OSM    O1315818   2.496   2.601   7.065  0.0899  0.5128 -0.3306
  144OSM    O1415819   2.555   2.444   6.877  0.3924  0.2050  0.5651
  144OSM    O1115820   2.411   2.652   6.818 -0.0266 -0.2516  0.0483
  144OSM    O1215821   2.325   2.449   6.962  1.0808  0.0163 -0.2288
  144OSM    C1S15822   2.513   2.728   6.757  0.4200  0.2757  0.2514
  144OSM    H1S15823   2.608   2.672   6.759 -1.2520 -2.7566 -0.0944
  144OSM    H1T15824   2.523   2.827   6.808  0.5285  1.3832 -1.8094
  144OSM     NF15825   2.587   2.790   6.516  0.3554 -0.2289 -0.3184
  144OSM    HNF15826   2.575   2.875   6.466 -1.0479 -1.1219 -1.5832
  144OSM    C2S15827   2.474   2.763   6.608  0.4547  1.0401 -0.6997
  144OSM    H2S15828   2.437   2.665   6.569  0.4486  0.2749  1.1381
  144OSM    C3S15829   2.351   2.863   6.614  0.0997 -0.3425  0.0439
  144OSM    H3S15830   2.379   2.970   6.627  0.2018 -0.4537  0.8035
  144OSM     O315831   2.259   2.845   6.721  0.5928  0.5155 -0.1483
  144OSM    HO315832   2.313   2.793   6.780 -0.1889  0.6715  0.7169
  144OSM    C4S15833   2.291   2.870   6.472  0.6560  0.3194 -0.0160
  144OSM    H4S15834   2.323   2.968   6.434 -0.2989  1.7716  2.6691
  144OSM    C5S15835   2.212   2.785   6.399  0.5568 -0.5008 -0.0498
  144OSM    H5S15836   2.182   2.690   6.445  4.7595 -1.7165  0.5930
  144OSM    C6S15837   2.175   2.811   6.256  0.2749  0.3224 -0.1992
  144OSM    H6S15838   2.218   2.902   6.208 -2.6022  2.7691  1.4890
  144OSM    H6T15839   2.066   2.830   6.251  0.3123  0.7562  0.4610
  144OSM    C7S15840   2.203   2.693   6.168 -0.0421 -0.2285  0.3495
  144OSM    H7S15841   2.151   2.603   6.206 -0.2674 -0.6166 -0.8414
  144OSM    H7T15842   2.312   2.677   6.185  0.3053  2.0870  0.6244
  144OSM    C8S15843   2.172   2.711   6.020 -0.1250 -0.0238 -0.6744
  144OSM    H8S15844   2.177   2.818   5.992 -0.4105  0.5960  1.4796
  144OSM    H8T15845   2.068   2.675   6.002 -0.1059 -0.7915  0.5787
  144OSM    C9S15846   2.269   2.630   5.932 -0.2892 -0.6694  0.5684
  144OSM    H9S15847   2.259   2.524   5.963 -1.8499  0.5677  5.0814
  144OSM    H9T15848   2.369   2.669   5.958 -0.9196  1.0880  0.4766
  144OSM   C10S15849   2.247   2.635   5.776  0.3907 -0.3584  0.5299
  144OSM   H10S15850   2.259   2.742   5.746 -1.5016 -0.9628 -2.8110
  144OSM   H10T15851   2.139   2.615   5.763  0.3160  0.8931 -1.0922
  144OSM   C11S15852   2.333   2.543   5.700  0.2576  0.9938 -0.1639
  144OSM   H11S15853   2.325   2.436   5.725  3.6202 -0.2179 -3.2663
  144OSM   H11T15854   2.438   2.563   5.732  0.7118 -0.3038 -0.7642
  144OSM   C12S15855   2.307   2.563   5.548 -0.6699  0.1120  0.4027
  144OSM   H12S15856   2.335   2.662   5.507  2.0374 -0.5607  0.4390
  144OSM   H12T15857   2.199   2.545   5.530  0.0345 -2.1886 -2.3326
  144OSM   C13S15858   2.380   2.455   5.464  0.5229 -0.3959 -0.6406
  144OSM   H13S15859   2.342   2.356   5.498 -2.5245 -0.1212 -2.8754
  144OSM   H13T15860   2.487   2.464   5.490 -0.1649  0.5709  2.2095
  144OSM   C14S15861   2.340   2.477   5.321 -0.0519  0.0173 -0.0045
  144OSM   H14S15862   2.359   2.583   5.294  0.5517  0.1335  0.8586
  144OSM   H14T15863   2.230   2.463   5.310 -0.3960  2.1671  0.2806
  144OSM   C15S15864   2.423   2.393   5.224  0.2379 -0.9137  0.4074
  144OSM   H15S15865   2.445   2.295   5.271  1.7990 -1.2959 -1.0051
  144OSM   H15T15866   2.512   2.450   5.190 -1.3169  0.6080 -1.3804
  144OSM   C16S15867   2.334   2.367   5.103  0.4307  0.0884 -0.2524
  144OSM   H16S15868   2.298   2.467   5.070  1.7524  0.7217  0.1673
  144OSM   H16T15869   2.248   2.309   5.141 -0.5609  2.5461  1.5434
  144OSM   C17S15870   2.416   2.293   5.001 -0.2207  0.4860  0.1469
  144OSM   H17S15871   2.506   2.351   4.971 -0.7670  0.2774 -2.0863
  144OSM   H17T15872   2.354   2.283   4.909  0.3719 -1.7628 -0.0709
  144OSM   C18S15873   2.454   2.154   5.042 -0.5014  0.9601  0.1115
  144OSM   H18S15874   2.509   2.155   5.138  2.6317  1.6779 -1.5637
  144OSM   H18T15875   2.522   2.108   4.968 -1.6847 -0.8905  0.1034
  144OSM   H18U15876   2.364   2.091   5.058  1.1140 -1.7064 -0.5851
  144OSM    C1F15877   2.692   2.716   6.491 -0.2144  0.4735 -0.7227
  144OSM     OF15878   2.718   2.612   6.548  0.5487 -0.8885  0.0177
  144OSM    C2F15879   2.784   2.768   6.383 -0.6554  0.0149  0.1888
  144OSM    H2F15880   2.808   2.876   6.396  2.8673 -0.6631  0.1971
  144OSM    H2G15881   2.749   2.745   6.280 -0.8210  0.2341  0.1945
  144OSM    C3F15882   2.922   2.683   6.380 -0.5479  0.2317  0.3353
  144OSM    H3F15883   2.895   2.583   6.339  1.1229  0.2644 -0.9270
  144OSM    H3G15884   2.970   2.665   6.479  2.9476 -0.1574 -1.2798
  144OSM    C4F15885   3.026   2.745   6.277 -0.0021  0.0575 -0.2861
  144OSM    H4F15886   3.114   2.677   6.286 -0.3102 -0.3651 -0.4195
  144OSM    H4G15887   3.056   2.845   6.314 -0.5556  0.3536 -0.6312
  144OSM    C5F15888   2.977   2.732   6.138 -0.2394  0.0975  0.4441
  144OSM    H5F15889   2.887   2.793   6.115 -1.7323 -1.4065  1.9927
  144OSM    H5G15890   2.946   2.627   6.119 -1.1391  0.4907 -0.3353
  144OSM    C6F15891   3.083   2.758   6.025 -0.5954 -0.1355  0.2747
  144OSM    H6F15892   3.173   2.695   6.039 -0.3470 -0.0896 -0.9973
  144OSM    H6G15893   3.108   2.866   6.038 -1.8297  0.2050 -0.0155
  144OSM    C7F15894   3.025   2.731   5.891 -0.1968  0.0133 -0.4483
  144OSM    H7F15895   2.937   2.795   5.866 -1.1202 -1.0195  0.0578
  144OSM    H7G15896   2.985   2.627   5.887  2.0442 -0.9531  0.5751
  144OSM    C8F15897   3.128   2.754   5.779  0.6402  0.1701 -0.7806
  144OSM    H8F15898   3.211   2.688   5.811 -0.7127 -1.6791 -0.9012
  144OSM    H8G15899   3.154   2.861   5.775  1.0449  0.1755  1.1172
  144OSM    C9F15900   3.078   2.708   5.648 -0.3225 -0.3185 -0.3789
  144OSM    H9F15901   2.969   2.715   5.643 -0.3439  1.8026  1.5845
  144OSM   C10F15902   3.154   2.689   5.534 -0.4373 -0.1766 -0.5666
  144OSM   H10F15903   3.112   2.630   5.451 -0.4694 -1.0588  0.0638
  144OSM   C11F15904   3.307   2.686   5.528 -0.0740  0.7731  0.3726
  144OSM   H11F15905   3.349   2.595   5.575 -1.5074 -0.2926 -0.3402
  144OSM   H11G15906   3.364   2.764   5.583 -0.0323  0.4973  0.7223
  144OSM   C12F15907   3.371   2.697   5.390  0.7728  0.1254  0.2626
  144OSM   H12F15908   3.323   2.623   5.322  0.3768 -0.8639  1.5965
  144OSM   H12G15909   3.477   2.668   5.402  0.8217  1.2354  3.2690
  144OSM   C13F15910   3.371   2.840   5.338 -0.5046 -0.3028  1.4422
  144OSM   H13F15911   3.444   2.901   5.395  3.1819 -0.8863 -2.1429
  144OSM   H13G15912   3.279   2.901   5.351  1.2765  2.8358  0.6661
  144OSM   C14F15913   3.417   2.848   5.190 -0.4707 -0.1030 -0.2090
  144OSM   H14F15914   3.365   2.781   5.117  0.2917  2.0865 -2.9459
  144OSM   H14G15915   3.524   2.821   5.183 -0.3258  0.4757 -0.2785
  144OSM   C15F15916   3.416   2.992   5.134  0.1171  0.3208 -0.3034
  144OSM   H15F15917   3.469   3.060   5.204 -0.0401  0.7077 -0.5505
  144OSM   H15G15918   3.308   3.014   5.119 -0.0524 -0.9179 -1.0435
  144OSM   C16F15919   3.489   2.995   5.000  0.3584 -0.1045 -0.6415
  144OSM   H16F15920   3.463   2.912   4.931  1.7705 -0.4734 -0.7523
  144OSM   H16G15921   3.596   2.984   5.026 -0.5462 -1.1994  3.1611
  144OSM   C17F15922   3.474   3.135   4.941 -0.3420 -0.0139 -0.3427
  144OSM   H17F15923   3.540   3.200   5.002  0.7929 -0.3054 -1.2158
  144OSM   H17G15924   3.370   3.169   4.960 -1.2024 -2.7704  0.4687
  144OSM   C18F15925   3.519   3.140   4.788  0.0944  0.0380 -0.0525
  144OSM   H18F15926   3.624   3.105   4.784  0.2351  0.5671 -1.5867
  144OSM   H18G15927   3.520   3.240   4.742  1.1549 -1.5694 -3.9175
  144OSM   H18H15928   3.451   3.075   4.728 -0.0553  1.2197 -1.1860
  145OSM      N15929   4.248   3.946   6.947 -0.1836  0.1997 -0.0894
  145OSM    C1515930   4.281   3.851   7.059 -0.6844  0.1589 -0.2891
  145OSM   H15A15931   4.376   3.805   7.035 -0.5647 -0.8078  1.7388
  145OSM   H15B15932   4.203   3.777   7.075  0.2305 -0.4804  1.6346
  145OSM   H15C15933   4.287   3.910   7.149  1.7071  3.9908 -2.7000
  145OSM    C1415934   4.357   4.046   6.946  0.1290  0.0947 -0.1851
  145OSM   H14A15935   4.456   4.004   6.935 -0.8291 -2.4075  0.1561
  145OSM   H14B15936   4.363   4.101   7.039  1.4426 -1.0342  0.4221
  145OSM   H14C15937   4.342   4.116   6.865  1.0458 -0.9688 -1.3124
  145OSM    C1315938   4.253   3.864   6.822  0.2790 -0.3324  0.1540
  145OSM   H13A15939   4.357   3.834   6.818  1.0792  2.3664 -1.2508
  145OSM   H13B15940   4.216   3.927   6.742 -2.7280  1.6299  2.8696
  145OSM   H13C15941   4.190   3.776   6.830 -1.2131  0.3625 -2.5716
  145OSM    C1215942   4.115   4.005   6.973 -1.1499 -0.4686  0.1233
  145OSM   H12A15943   4.123   4.042   7.074  0.3403 -2.6441  0.8673
  145OSM   H12B15944   4.041   3.928   6.985 -1.0952 -0.3054  1.6862
  145OSM    C1115945   4.060   4.116   6.883 -0.1975  0.4502  0.4264
  145OSM   H11A15946   4.136   4.194   6.861  1.2539 -1.1209 -0.3115
  145OSM   H11B15947   3.977   4.169   6.934  0.2897  1.5587  0.0937
  145OSM      P15948   3.910   3.962   6.740  0.1575 -0.3482  0.0218
  145OSM    O1315949   3.945   3.870   6.630  0.2898  0.3902  0.2667
  145OSM    O1415950   3.885   3.902   6.874  0.0875  0.0405  0.1188
  145OSM    O1115951   3.785   4.046   6.692  0.1321 -0.2445  0.2766
  145OSM    O1215952   4.024   4.066   6.751 -0.3189 -0.1602  0.1533
  145OSM    C1S15953   3.783   4.156   6.593 -0.0065 -0.3191  0.6034
  145OSM    H1S15954   3.885   4.197   6.578  0.3631 -1.2926  0.3889
  145OSM    H1T15955   3.714   4.236   6.625 -0.7084 -0.8583  0.4724
  145OSM     NF15956   3.770   4.196   6.345 -0.1343  0.2186  0.4072
  145OSM    HNF15957   3.703   4.249   6.293  1.4787  1.9837  0.0094
  145OSM    C2S15958   3.728   4.101   6.450 -0.3155 -0.2140  0.0253
  145OSM    H2S15959   3.782   4.005   6.443  2.4800  1.2614 -0.3191
  145OSM    C3S15960   3.577   4.076   6.460 -0.1381 -0.0928  0.1582
  145OSM    H3S15961   3.528   4.176   6.464 -0.3589 -0.1321 -0.9859
  145OSM     O315962   3.536   4.027   6.582  0.2438  0.5470 -0.1441
  145OSM    HO315963   3.612   4.051   6.636 -0.1380  0.2094  0.5528
  145OSM    C4S15964   3.515   4.005   6.342 -0.0477  0.1188  0.0045
  145OSM    H4S15965   3.485   4.067   6.256 -2.7630 -0.4419  0.4558
  145OSM    C5S15966   3.502   3.871   6.340 -0.4056 -0.0155  0.5662
  145OSM    H5S15967   3.536   3.815   6.428 -0.0189 -2.3981 -0.9993
  145OSM    C6S15968   3.455   3.776   6.234  0.2837  0.3551 -0.0019
  145OSM    H6S15969   3.359   3.730   6.266 -0.7740  2.6749  0.4260
  145OSM    H6T15970   3.528   3.694   6.217 -1.6646 -1.5300  0.2598
  145OSM    C7S15971   3.429   3.842   6.092 -0.7636  0.2406  0.1321
  145OSM    H7S15972   3.523   3.885   6.052  0.3431 -0.0420  2.2886
  145OSM    H7T15973   3.346   3.914   6.106 -0.9815 -0.1355  0.8155
  145OSM    C8S15974   3.375   3.734   5.999 -0.5571 -0.4144  0.1856
  145OSM    H8S15975   3.285   3.694   6.050 -1.5927  2.9064  1.1851
  145OSM    H8T15976   3.453   3.655   5.986 -1.4383 -1.6780  2.0754
  145OSM    C9S15977   3.334   3.792   5.860  0.0841 -0.7680 -0.2371
  145OSM    H9S15978   3.262   3.876   5.876  1.5105  0.1097  2.0744
  145OSM    H9T15979   3.290   3.709   5.800  1.6403 -3.7306  2.4221
  145OSM   C10S15980   3.448   3.866   5.782 -0.1382  0.3698  0.6601
  145OSM   H10S15981   3.519   3.790   5.744 -0.7218 -0.6946  1.6517
  145OSM   H10T15982   3.506   3.934   5.849  1.4742  0.0847 -0.4004
  145OSM   C11S15983   3.405   3.939   5.650 -0.1747  0.9301 -0.5996
  145OSM   H11S15984   3.496   3.986   5.606  1.8772 -0.7903  1.5517
  145OSM   H11T15985   3.327   4.015   5.674 -0.0039  0.5961  1.1439
  145OSM   C12S15986   3.352   3.843   5.542  0.3474 -0.3149 -0.3099
  145OSM   H12S15987   3.258   3.799   5.580  0.7709  0.7624  2.1692
  145OSM   H12T15988   3.424   3.762   5.517  1.5145  1.0451 -1.5672
  145OSM   C13S15989   3.319   3.912   5.404 -0.4129  0.2784 -0.3796
  145OSM   H13S15990   3.248   3.995   5.424 -0.5277 -0.2864  1.7954
  145OSM   H13T15991   3.267   3.830   5.349 -0.4496 -0.4344  0.6859
  145OSM   C14S15992   3.448   3.964   5.318  0.0738  0.1597 -0.0971
  145OSM   H14S15993   3.514   3.884   5.277 -0.4861 -1.5652  2.1677
  145OSM   H14T15994   3.511   4.021   5.389  1.0353 -0.7301 -0.2086
  145OSM   C15S15995   3.398   4.065   5.213  0.3363 -0.2469  0.0617
  145OSM   H15S15996   3.474   4.132   5.168  0.8209  0.5424  1.9796
  145OSM   H15T15997   3.342   4.139   5.274  2.1406  0.9259  0.3758
  145OSM   C16S15998   3.313   4.003   5.094 -0.2729  0.2825 -0.7157
  145OSM   H16S15999   3.221   3.960   5.140  0.5625 -0.8367 -0.0433
  145OSM   H16T16000   3.370   3.922   5.043  2.4622  1.0352  0.9644
  145OSM   C17S16001   3.282   4.110   4.985  0.0076  0.1191  0.1244
  145OSM   H17S16002   3.366   4.180   4.969 -1.4553  1.5526 -1.7607
  145OSM   H17T16003   3.210   4.181   5.032 -0.9537 -0.7223 -0.0459
  145OSM   C18S16004   3.226   4.058   4.855 -0.7096 -0.9943  0.3808
  145OSM   H18S16005   3.288   3.970   4.826  1.7260  0.1826  1.6894
  145OSM   H18T16006   3.231   4.138   4.779  0.3197  0.0018  1.4680
  145OSM   H18U16007   3.120   4.026   4.865 -0.9238 -0.4701 -0.1892
  145OSM    C1F16008   3.893   4.236   6.319 -1.0594  0.0691 -0.1940
  145OSM     OF16009   3.992   4.160   6.350  0.8337 -0.2647 -0.1283
  145OSM    C2F16010   3.908   4.375   6.269  0.0484  0.2992 -0.1624
  145OSM    H2F16011   3.907   4.439   6.359 -1.3563  0.2960 -0.1522
  145OSM    H2G16012   3.814   4.404   6.216 -0.0406  3.2246  1.3856
  145OSM    C3F16013   4.026   4.399   6.172  0.3988  0.2759  0.4311
  145OSM    H3F16014   4.015   4.333   6.083  0.7386  0.8563 -0.0565
  145OSM    H3G16015   4.121   4.392   6.230  0.7755 -1.2222 -0.3151
  145OSM    C4F16016   4.023   4.547   6.130  0.5618 -0.1711  0.6292
  145OSM    H4F16017   3.991   4.612   6.214  1.9179  0.5149  0.6398
  145OSM    H4G16018   3.947   4.560   6.050 -2.8360  0.4881  3.7068
  145OSM    C5F16019   4.152   4.600   6.074  0.1148  0.1200 -0.1242
  145OSM    H5F16020   4.156   4.556   5.972 -1.6176 -1.0017  0.2555
  145OSM    H5G16021   4.240   4.562   6.132  0.6275  1.3008 -0.1011
  145OSM    C6F16022   4.167   4.749   6.083 -0.6543  0.1548 -0.0125
  145OSM    H6F16023   4.119   4.779   6.179  1.5066 -0.3412  1.2927
  145OSM    H6G16024   4.110   4.793   5.998  2.3517  3.5485 -0.4967
  145OSM    C7F16025   4.309   4.804   6.075  0.2959  0.3185  0.6758
  145OSM    H7F16026   4.363   4.762   6.162  0.4426 -2.1421 -0.5092
  145OSM    H7G16027   4.311   4.914   6.086  2.2056  0.4659 -0.5841
  145OSM    C8F16028   4.378   4.772   5.939 -0.6223  0.5162  0.9746
  145OSM    H8F16029   4.373   4.661   5.934  0.5803  0.4369  1.2742
  145OSM    H8G16030   4.488   4.787   5.943 -0.4573 -0.6325  1.0364
  145OSM    C9F16031   4.327   4.841   5.815 -0.5053 -0.0669  0.1348
  145OSM    H9F16032   4.346   4.949   5.811  1.2666 -0.3644 -0.1979
  145OSM   C10F16033   4.246   4.782   5.723  0.2314 -0.6382  0.2074
  145OSM   H10F16034   4.216   4.832   5.630 -2.1524 -0.5319  0.9548
  145OSM   C11F16035   4.204   4.639   5.709  0.1921 -0.2609 -0.4315
  145OSM   H11F16036   4.108   4.632   5.765  0.8146  0.8732  0.8168
  145OSM   H11G16037   4.274   4.566   5.755  1.4202  0.9317 -0.3709
  145OSM   C12F16038   4.155   4.595   5.565  0.5049  0.4585 -0.3062
  145OSM   H12F16039   4.088   4.675   5.528  1.0843  1.1972  0.2179
  145OSM   H12G16040   4.096   4.505   5.592 -1.9625  1.4065 -2.1664
  145OSM   C13F16041   4.269   4.563   5.470  0.3914  0.3578 -0.0323
  145OSM   H13F16042   4.337   4.482   5.506 -1.2345 -0.2308  1.8991
  145OSM   H13G16043   4.321   4.658   5.445 -0.9981  0.5366 -2.6486
  145OSM   C14F16044   4.216   4.502   5.341  0.5301 -0.0380 -0.2930
  145OSM   H14F16045   4.105   4.500   5.341  0.5294 -2.1051 -0.7130
  145OSM   H14G16046   4.247   4.396   5.340 -0.4943 -0.3380 -1.1623
  145OSM   C15F16047   4.267   4.585   5.224  0.6330 -0.1589  0.8018
  145OSM   H15F16048   4.372   4.614   5.245  1.6205 -0.9801 -2.4570
  145OSM   H15G16049   4.221   4.685   5.211  0.1724 -0.5861 -1.3377
  145OSM   C16F16050   4.276   4.498   5.096  0.2305 -0.7805  0.3441
  145OSM   H16F16051   4.342   4.410   5.111  0.3440 -0.6243  0.8030
  145OSM   H16G16052   4.337   4.565   5.033 -1.3879  0.8750  0.4337
  145OSM   C17F16053   4.139   4.454   5.050  0.3945  0.3688  0.2642
  145OSM   H17F16054   4.069   4.540   5.057  0.8035  1.1500 -3.4172
  145OSM   H17G16055   4.107   4.370   5.116  0.3219  2.4409  3.0872
  145OSM   C18F16056   4.146   4.410   4.904  0.5901  0.1804 -0.8321
  145OSM   H18F16057   4.058   4.439   4.843 -1.2037  1.4238  2.1580
  145OSM   H18G16058   4.157   4.300   4.895 -2.0247 -0.2245  0.1044
  145OSM   H18H16059   4.236   4.461   4.864  0.5272  1.0684  0.1044
  146OSM      N16060   0.348   6.380   7.014  0.0473 -0.1615 -0.0329
  146OSM    C1516061   0.386   6.524   7.002  0.2493 -0.0411  0.8472
  146OSM   H15A16062   0.307   6.580   6.955  0.1323 -2.5254 -2.2307
  146OSM   H15B16063   0.478   6.536   6.947 -2.2021  1.3162 -3.3377
  146OSM   H15C16064   0.406   6.570   7.098 -0.9596 -1.6137  1.9011
  146OSM    C1416065   0.460   6.313   7.092  0.4694 -0.4240  0.1509
  146OSM   H14A16066   0.497   6.384   7.164  0.3391 -1.9016  1.7455
  146OSM   H14B16067   0.540   6.303   7.021  0.1457 -0.6434 -0.1903
  146OSM   H14C16068   0.438   6.216   7.136  2.4419 -0.3525  1.4069
  146OSM    C1316069   0.222   6.366   7.079 -0.5007  0.0530  0.3495
  146OSM   H13A16070   0.231   6.350   7.185  1.1828 -2.6765 -0.0848
  146OSM   H13B16071   0.172   6.279   7.039 -3.2244  1.6842 -0.0044
  146OSM   H13C16072   0.147   6.440   7.058 -0.8038 -0.5834 -0.8921
  146OSM    C1216073   0.342   6.329   6.876 -0.5285  0.4945  0.6557
  146OSM   H12A16074   0.438   6.342   6.828  0.1788 -2.2514  1.1256
  146OSM   H12B16075   0.280   6.393   6.815 -1.1449 -0.1658  0.5714
  146OSM    C1116076   0.296   6.182   6.851  0.1115 -0.0622  0.8169
  146OSM   H11A16077   0.362   6.114   6.908  0.1500 -1.3495 -0.6993
  146OSM   H11B16078   0.315   6.167   6.743 -1.8544  0.4296  0.3607
  146OSM      P16079   0.040   6.186   6.771  0.3833 -0.2817 -0.6035
  146OSM    O1316080  -0.077   6.101   6.793  0.0647  0.4885 -0.0561
  146OSM    O1416081   0.016   6.329   6.771  0.0801  0.5650 -0.1799
  146OSM    O1116082   0.100   6.157   6.630 -0.2785 -0.1179  0.1473
  146OSM    O1216083   0.156   6.153   6.880  0.3310 -0.5450 -0.0317
  146OSM    C1S16084   0.132   6.019   6.599  0.4286  0.4004  0.0828
  146OSM    H1S16085   0.045   5.953   6.621  0.5679 -1.4320 -3.8686
  146OSM    H1T16086   0.219   5.986   6.660  0.2791 -0.4967 -0.1668
  146OSM     NF16087   0.161   5.872   6.390 -0.4007  0.2651 -0.5531
  146OSM    HNF16088   0.243   5.821   6.364  0.3488 -0.2764  2.5303
  146OSM    C2S16089   0.165   6.005   6.448  0.6745 -0.5703  0.1642
  146OSM    H2S16090   0.089   6.064   6.393  0.4477  0.9380  1.9932
  146OSM    C3S16091   0.294   6.085   6.431 -0.5441 -0.1959 -0.2076
  146OSM    H3S16092   0.377   6.040   6.489 -0.1590 -2.0002 -2.0680
  146OSM     O316093   0.281   6.226   6.463 -0.4470  0.3674  0.1192
  146OSM    HO316094   0.196   6.224   6.508 -0.3335 -1.1241  0.3396
  146OSM    C4S16095   0.344   6.083   6.291  0.2931  0.2679  0.0156
  146OSM    H4S16096   0.272   6.094   6.208  1.9833 -1.4365 -1.8138
  146OSM    C5S16097   0.475   6.043   6.260 -0.8820 -0.3348 -0.1066
  146OSM    H5S16098   0.546   6.019   6.340 -1.4626  0.6799  0.7525
  146OSM    C6S16099   0.529   6.027   6.124 -0.0527 -0.1142 -0.1641
  146OSM    H6S16100   0.629   5.979   6.123  0.2699  0.5128 -1.9325
  146OSM    H6T16101   0.540   6.121   6.065 -0.1286  1.7286  2.5696
  146OSM    C7S16102   0.456   5.931   6.033  0.2754  0.1927  0.1428
  146OSM    H7S16103   0.361   5.985   6.017  0.4601  0.3027 -0.6037
  146OSM    H7T16104   0.453   5.845   6.103  1.6954 -0.7367 -0.8913
  146OSM    C8S16105   0.521   5.889   5.902 -0.0036 -0.3887  0.2410
  146OSM    H8S16106   0.479   5.797   5.856 -0.1409  0.7846 -2.1447
  146OSM    H8T16107   0.629   5.866   5.916  0.9100  1.2246 -3.0966
  146OSM    C9S16108   0.489   6.003   5.804 -0.4075  0.1880 -0.0319
  146OSM    H9S16109   0.543   6.091   5.846  0.6020 -0.8398  0.8817
  146OSM    H9T16110   0.382   6.033   5.797 -0.1878  1.3462  1.2217
  146OSM   C10S16111   0.551   5.972   5.666 -0.3565 -0.2373 -0.5885
  146OSM   H10S16112   0.505   5.885   5.616  0.5563 -0.8508 -0.3890
  146OSM   H10T16113   0.661   5.957   5.676 -0.3437  1.2816  3.7034
  146OSM   C11S16114   0.546   6.088   5.567 -0.5300 -0.7674  0.0326
  146OSM   H11S16115   0.594   6.172   5.623 -2.5768  0.3659  0.1634
  146OSM   H11T16116   0.437   6.106   5.560 -0.3386  0.1526 -0.8666
  146OSM   C12S16117   0.604   6.056   5.422 -0.1838 -0.1733  0.2450
  146OSM   H12S16118   0.688   5.984   5.433  1.8623  1.9124 -0.9353
  146OSM   H12T16119   0.632   6.147   5.364 -1.5089  0.5925  0.7685
  146OSM   C13S16120   0.492   6.002   5.339 -0.8544  0.9607 -0.5564
  146OSM   H13S16121   0.405   6.072   5.336 -1.8152 -0.2179 -1.2265
  146OSM   H13T16122   0.453   5.909   5.386 -0.3843  1.9671  2.0137
  146OSM   C14S16123   0.522   5.982   5.195 -0.2601  0.4575  0.8095
  146OSM   H14S16124   0.565   6.072   5.145 -0.3531 -0.2575 -0.6154
  146OSM   H14T16125   0.425   5.960   5.146 -0.0594  1.5854 -0.1576
  146OSM   C15S16126   0.609   5.856   5.178  0.0575  0.6974 -0.5387
  146OSM   H15S16127   0.546   5.785   5.235  1.6735  1.2086  2.0040
  146OSM   H15T16128   0.707   5.867   5.228  0.0564 -1.3409 -0.0244
  146OSM   C16S16129   0.636   5.829   5.029  0.1649 -0.0345  0.2052
  146OSM   H16S16130   0.726   5.890   5.004 -0.0092 -0.2316 -0.9869
  146OSM   H16T16131   0.557   5.844   4.952  1.3139 -0.3888 -1.0916
  146OSM   C17S16132   0.698   5.685   5.006 -0.3391 -0.3008  0.2851
  146OSM   H17S16133   0.779   5.655   5.076  0.3290 -1.1481 -0.7977
  146OSM   H17T16134   0.741   5.677   4.904  3.2993 -0.0166  1.6607
  146OSM   C18S16135   0.596   5.571   5.012  0.4168 -0.5970 -0.6243
  146OSM   H18S16136   0.509   5.601   4.949  1.7993 -0.1765 -2.3999
  146OSM   H18T16137   0.552   5.548   5.112 -0.2216  1.1440 -0.4706
  146OSM   H18U16138   0.624   5.478   4.958  1.4719 -0.8213  0.2604
  146OSM    C1F16139   0.044   5.801   6.385 -0.0850 -0.7996  0.7389
  146OSM     OF16140  -0.069   5.845   6.424 -0.0031  0.3909 -0.8513
  146OSM    C2F16141   0.063   5.673   6.313 -0.5220 -0.1027  0.0003
  146OSM    H2F16142   0.145   5.611   6.355 -2.2381 -2.8534 -0.4913
  146OSM    H2G16143   0.102   5.697   6.212  3.0010  0.3478  1.3343
  146OSM    C3F16144  -0.062   5.588   6.319  0.2627 -1.0086 -0.1855
  146OSM    H3F16145  -0.147   5.638   6.268  0.8864  1.5251  1.0995
  146OSM    H3G16146  -0.080   5.575   6.428  2.3781 -0.8791  0.2228
  146OSM    C4F16147  -0.046   5.448   6.264  0.0476 -0.1398 -0.1018
  146OSM    H4F16148   0.046   5.399   6.301 -1.3140 -2.3816  0.4796
  146OSM    H4G16149  -0.036   5.450   6.153 -0.1754 -2.1185 -0.1806
  146OSM    C5F16150  -0.162   5.360   6.306  0.0100  0.2171  0.2905
  146OSM    H5F16151  -0.257   5.417   6.306 -0.1519 -0.0440  0.8135
  146OSM    H5G16152  -0.139   5.313   6.404  0.1468 -0.0158  0.1482
  146OSM    C6F16153  -0.169   5.244   6.214 -0.1496  0.0069  0.2940
  146OSM    H6F16154  -0.093   5.165   6.234 -0.4575 -0.1822  0.7207
  146OSM    H6G16155  -0.150   5.268   6.107 -0.7922 -1.5839 -0.2188
  146OSM    C7F16156  -0.300   5.165   6.210  0.3149  0.5693  0.4740
  146OSM    H7F16157  -0.377   5.238   6.178 -1.6388 -1.3005  0.6807
  146OSM    H7G16158  -0.314   5.135   6.316  0.8175 -0.5116  0.2459
  146OSM    C8F16159  -0.288   5.040   6.113  0.6364 -0.5986  0.0312
  146OSM    H8F16160  -0.214   4.965   6.149 -0.5230 -0.6157  2.5899
  146OSM    H8G16161  -0.262   5.089   6.016 -1.6444  0.3065 -0.2031
  146OSM    C9F16162  -0.421   4.972   6.120 -0.0419 -0.0191  0.5256
  146OSM    H9F16163  -0.468   4.974   6.219 -1.5997 -2.7049 -0.0442
  146OSM   C10F16164  -0.489   4.917   6.023  0.1103 -0.2880 -0.2647
  146OSM   H10F16165  -0.582   4.864   6.045  0.2083 -1.0957 -1.6963
  146OSM   C11F16166  -0.444   4.913   5.876  0.0708  0.0811 -0.2696
  146OSM   H11F16167  -0.444   4.809   5.836  1.7218 -0.3141  0.6726
  146OSM   H11G16168  -0.344   4.962   5.866  1.3147 -1.8483  1.7429
  146OSM   C12F16169  -0.535   5.009   5.794 -0.1461 -0.5091 -0.1217
  146OSM   H12F16170  -0.501   5.112   5.817  1.1369 -1.0824  0.6126
  146OSM   H12G16171  -0.639   4.982   5.822 -1.2614  1.2567 -2.2301
  146OSM   C13F16172  -0.507   5.000   5.639 -0.1058  0.2921 -0.3042
  146OSM   H13F16173  -0.513   4.895   5.604  0.9227  0.6484 -1.6575
  146OSM   H13G16174  -0.412   5.052   5.614  0.7657 -1.6810 -1.3352
  146OSM   C14F16175  -0.618   5.075   5.565 -0.5785 -0.4918 -0.3336
  146OSM   H14F16176  -0.720   5.033   5.583 -0.9963  0.6486  0.0857
  146OSM   H14G16177  -0.622   5.181   5.598  0.6138  0.2944 -2.5833
  146OSM   C15F16178  -0.598   5.072   5.419 -0.1433 -0.8110  0.0330
  146OSM   H15F16179  -0.597   4.972   5.372  0.9281 -1.9443  2.3217
  146OSM   H15G16180  -0.506   5.121   5.380  0.5883 -3.5157 -1.9086
  146OSM   C16F16181  -0.715   5.148   5.346 -0.2576  0.8307 -0.3374
  146OSM   H16F16182  -0.705   5.256   5.367  0.1196  0.8005 -0.3494
  146OSM   H16G16183  -0.812   5.114   5.388 -0.2561  2.3209  0.9364
  146OSM   C17F16184  -0.706   5.123   5.191 -0.6554 -0.0735 -0.4639
  146OSM   H17F16185  -0.750   5.022   5.177 -0.2594 -0.3684  0.3272
  146OSM   H17G16186  -0.598   5.120   5.165 -0.8049 -1.0858 -1.0450
  146OSM   C18F16187  -0.777   5.233   5.113 -1.0146  0.2231 -0.2040
  146OSM   H18F16188  -0.885   5.208   5.111 -1.1506  0.7017  0.7114
  146OSM   H18G16189  -0.738   5.233   5.009 -0.8291 -2.6921 -0.2105
  146OSM   H18H16190  -0.764   5.336   5.152 -2.5480  0.3540  0.0199
  147OSM      N16191   1.251   3.266   2.011  0.3255  0.2380  0.4930
  147OSM    C1516192   1.341   3.153   1.953 -0.1811  0.2391 -0.0644
  147OSM   H15A16193   1.292   3.121   1.862  1.9713  0.9567 -1.5463
  147OSM   H15B16194   1.339   3.067   2.018  1.6619 -1.2397 -1.8221
  147OSM   H15C16195   1.443   3.179   1.929  0.3009  0.6705  2.2150
  147OSM    C1416196   1.254   3.375   1.912  0.2030  0.0385 -0.0367
  147OSM   H14A16197   1.218   3.341   1.816  0.7276 -0.1479 -0.1699
  147OSM   H14B16198   1.353   3.416   1.900  1.1438 -1.1469  2.9331
  147OSM   H14C16199   1.190   3.451   1.955 -1.5781 -0.5566 -1.4994
  147OSM    C1316200   1.114   3.212   2.015 -0.4733 -0.2260 -0.3959
  147OSM   H13A16201   1.081   3.169   1.922 -1.6368  0.7093 -0.4401
  147OSM   H13B16202   1.052   3.297   2.039 -1.3859 -1.1538  0.6380
  147OSM   H13C16203   1.107   3.142   2.097  1.1733  1.1695  1.0236
  147OSM    C1216204   1.301   3.305   2.149 -0.2996  0.2821  0.0963
  147OSM   H12A16205   1.406   3.330   2.151 -0.3745  0.6123  1.8873
  147OSM   H12B16206   1.298   3.225   2.222  0.7888  1.9251  2.0464
  147OSM    C1116207   1.238   3.429   2.218 -0.5415  0.2847  0.0946
  147OSM   H11A16208   1.269   3.424   2.325  1.4216  0.4697 -0.4343
  147OSM   H11B16209   1.128   3.415   2.222 -0.8316  2.5933  2.2952
  147OSM      P16210   1.190   3.679   2.186  0.0069 -0.0338 -0.1444
  147OSM    O1316211   1.284   3.792   2.158 -0.4171 -0.3978 -0.1388
  147OSM    O1416212   1.055   3.674   2.118 -0.3496 -0.1927  0.0781
  147OSM    O1116213   1.165   3.662   2.342  0.2301 -0.0841 -0.4850
  147OSM    O1216214   1.278   3.555   2.150  0.5361 -0.3286  0.5874
  147OSM    C1S16215   1.102   3.767   2.424  0.0795  0.2127  0.0194
  147OSM    H1S16216   1.014   3.801   2.365  1.5148 -2.1240 -3.9072
  147OSM    H1T16217   1.178   3.847   2.441  0.5068  0.2636 -1.8926
  147OSM     NF16218   0.952   3.784   2.614 -0.1614  0.5950 -0.7372
  147OSM    HNF16219   0.992   3.852   2.674  1.2137 -1.5833  0.9554
  147OSM    C2S16220   1.055   3.701   2.553  0.0280  0.6703 -0.4619
  147OSM    H2S16221   1.010   3.608   2.513 -2.1623  1.5658 -0.2455
  147OSM    C3S16222   1.174   3.664   2.643 -0.0017  0.1224  0.3894
  147OSM    H3S16223   1.240   3.751   2.662  0.6882 -0.8473  2.7364
  147OSM     O316224   1.252   3.557   2.591 -0.4253  0.3887 -0.0154
  147OSM    HO316225   1.238   3.546   2.497 -1.0356 -0.7953  0.1907
  147OSM    C4S16226   1.126   3.627   2.779 -0.5325  1.0459 -0.3413
  147OSM    H4S16227   1.048   3.550   2.768  0.2180  0.4100 -1.4587
  147OSM    C5S16228   1.165   3.666   2.901 -0.2688  1.0022  0.2130
  147OSM    H5S16229   1.251   3.735   2.901 -0.0162  0.6900 -0.0500
  147OSM    C6S16230   1.112   3.634   3.038 -0.0046 -0.8377 -0.0598
  147OSM    H6S16231   1.030   3.561   3.022 -0.3730 -0.2993 -0.7042
  147OSM    H6T16232   1.065   3.725   3.081  0.5052  0.2581 -1.7198
  147OSM    C7S16233   1.212   3.572   3.135 -0.4390 -0.1554  0.0522
  147OSM    H7S16234   1.308   3.627   3.126 -0.6183  0.2965  0.7967
  147OSM    H7T16235   1.210   3.462   3.121 -0.8848 -0.2052  0.4852
  147OSM    C8S16236   1.162   3.598   3.282 -0.3891 -0.3687  0.2675
  147OSM    H8S16237   1.067   3.543   3.297 -0.0924 -0.8608  0.3530
  147OSM    H8T16238   1.145   3.708   3.285  3.2053  0.4128 -1.8257
  147OSM    C9S16239   1.264   3.555   3.390 -0.1731 -0.3450 -0.1171
  147OSM    H9S16240   1.348   3.628   3.386 -0.7260  0.3067 -0.1047
  147OSM    H9T16241   1.302   3.454   3.365  2.1749  0.7123 -1.1551
  147OSM   C10S16242   1.203   3.554   3.533  0.9190  0.4296  0.1259
  147OSM   H10S16243   1.106   3.500   3.540 -0.0818  1.7253 -2.5972
  147OSM   H10T16244   1.183   3.661   3.554 -0.9580  0.3062 -0.8445
  147OSM   C11S16245   1.310   3.498   3.624  0.2158  0.1178 -0.7465
  147OSM   H11S16246   1.404   3.555   3.615  1.0625 -0.8650  1.2915
  147OSM   H11T16247   1.348   3.404   3.579  4.6253  2.1971 -1.8402
  147OSM   C12S16248   1.262   3.497   3.763 -0.4469  0.0515 -0.3083
  147OSM   H12S16249   1.163   3.450   3.779 -0.5712  0.1862 -0.6817
  147OSM   H12T16250   1.251   3.606   3.779  4.7888  0.5862  1.7147
  147OSM   C13S16251   1.373   3.435   3.848  0.3190  0.6650 -0.8906
  147OSM   H13S16252   1.465   3.497   3.838  0.7218 -0.0052 -1.4660
  147OSM   H13T16253   1.394   3.337   3.799  0.1873 -0.9987  2.1541
  147OSM   C14S16254   1.351   3.401   3.995  0.5720 -0.8041  0.7390
  147OSM   H14S16255   1.445   3.371   4.047  0.3720 -2.7745  0.0625
  147OSM   H14T16256   1.277   3.321   4.015  0.0416 -0.1621  1.3882
  147OSM   C15S16257   1.295   3.524   4.072 -0.2625 -0.4710 -0.1791
  147OSM   H15S16258   1.210   3.568   4.015 -0.6315  0.0488  0.7478
  147OSM   H15T16259   1.382   3.592   4.085 -0.5395 -0.0433 -0.5089
  147OSM   C16S16260   1.263   3.481   4.217 -0.0750 -0.1952  0.0657
  147OSM   H16S16261   1.354   3.442   4.267  0.4868  1.6956  0.5797
  147OSM   H16T16262   1.181   3.405   4.217 -0.5333  0.2854 -0.7839
  147OSM   C17S16263   1.209   3.598   4.306 -0.0513 -0.3138 -0.0905
  147OSM   H17S16264   1.102   3.606   4.277 -0.6148 -2.5692  1.1315
  147OSM   H17T16265   1.276   3.682   4.278  0.4826 -0.6997  0.0055
  147OSM   C18S16266   1.214   3.580   4.461  0.1308 -0.5975  0.4116
  147OSM   H18S16267   1.157   3.491   4.494 -0.6529 -0.1804  0.2284
  147OSM   H18T16268   1.168   3.663   4.518  1.4933 -0.2373  1.0129
  147OSM   H18U16269   1.316   3.567   4.501  0.1512 -0.4656  0.4047
  147OSM    C1F16270   0.841   3.810   2.552  0.7857 -0.5508 -0.6506
  147OSM     OF16271   0.801   3.745   2.456  0.3611 -0.2011  0.1764
  147OSM    C2F16272   0.756   3.921   2.607 -0.4804 -0.5536 -0.0910
  147OSM    H2F16273   0.722   3.978   2.518  0.7475  0.5994  0.1532
  147OSM    H2G16274   0.822   3.994   2.659 -1.0983 -0.5481  0.6945
  147OSM    C3F16275   0.640   3.878   2.701 -0.0461 -0.6721 -0.6308
  147OSM    H3F16276   0.589   3.785   2.669  0.4083 -0.5830 -1.6741
  147OSM    H3G16277   0.561   3.955   2.707  2.0537  1.5090  1.0269
  147OSM    C4F16278   0.695   3.852   2.847 -0.0659  0.2776 -0.2722
  147OSM    H4F16279   0.722   3.954   2.880 -0.0788  0.0834  0.3495
  147OSM    H4G16280   0.780   3.781   2.838 -1.4084 -1.5245  0.6602
  147OSM    C5F16281   0.595   3.797   2.940  0.3227  0.4246 -0.8456
  147OSM    H5F16282   0.541   3.715   2.889 -2.2480  2.0237 -0.8795
  147OSM    H5G16283   0.514   3.868   2.967  1.2075  0.8711  0.7666
  147OSM    C6F16284   0.671   3.770   3.074  0.4399  0.3951  0.3053
  147OSM    H6F16285   0.712   3.872   3.088 -1.5503  1.5471 -1.6872
  147OSM    H6G16286   0.757   3.703   3.054  0.1246  0.3472 -1.0081
  147OSM    C7F16287   0.584   3.701   3.171 -0.1273 -0.1251 -0.1359
  147OSM    H7F16288   0.530   3.613   3.131 -2.2135  0.8298  0.4345
  147OSM    H7G16289   0.511   3.780   3.201  1.3339  1.5777 -0.8646
  147OSM    C8F16290   0.664   3.661   3.291 -0.3078 -0.4576  0.7685
  147OSM    H8F16291   0.745   3.587   3.275 -1.2744 -1.7548  1.7307
  147OSM    H8G16292   0.598   3.606   3.361 -1.4265 -1.8418 -1.2733
  147OSM    C9F16293   0.714   3.779   3.362 -0.3768 -0.0078 -0.6000
  147OSM    H9F16294   0.734   3.864   3.295 -0.0391  0.0907 -0.3723
  147OSM   C10F16295   0.720   3.807   3.490  0.0128 -0.3278  0.4202
  147OSM   H10F16296   0.752   3.907   3.522 -0.0734 -0.7039  1.7299
  147OSM   C11F16297   0.679   3.712   3.601 -0.4500 -0.2986 -0.6530
  147OSM   H11F16298   0.628   3.619   3.567 -1.8069 -0.5816  1.8676
  147OSM   H11G16299   0.596   3.761   3.657 -0.6147  1.9046 -2.6823
  147OSM   C12F16300   0.798   3.677   3.688  0.1274 -0.7137 -0.1685
  147OSM   H12F16301   0.826   3.766   3.749  0.6464 -0.9686 -0.0276
  147OSM   H12G16302   0.878   3.624   3.631  0.0535 -0.9364 -0.0645
  147OSM   C13F16303   0.767   3.586   3.811 -0.7199 -0.0055 -0.0401
  147OSM   H13F16304   0.705   3.499   3.778  1.3960 -1.2875 -0.8372
  147OSM   H13G16305   0.729   3.632   3.904  1.9730  0.0283  1.1283
  147OSM   C14F16306   0.903   3.529   3.864 -0.0866 -0.2186  0.1959
  147OSM   H14F16307   0.970   3.612   3.894 -0.5021  0.3751 -0.4708
  147OSM   H14G16308   0.945   3.486   3.770  1.3868  2.2600 -0.3736
  147OSM   C15F16309   0.888   3.425   3.971  0.6333  0.4829  0.3022
  147OSM   H15F16310   0.992   3.389   3.991  0.7809  1.2556  0.9850
  147OSM   H15G16311   0.824   3.344   3.929  0.2997  2.3331 -3.0784
  147OSM   C16F16312   0.825   3.479   4.102 -0.2797 -0.1926 -0.4612
  147OSM   H16F16313   0.720   3.507   4.083 -0.1688  1.5224  1.2356
  147OSM   H16G16314   0.897   3.559   4.129 -0.4660  0.2599 -1.2630
  147OSM   C17F16315   0.813   3.370   4.216 -1.0564 -0.3478  0.2622
  147OSM   H17F16316   0.751   3.297   4.159 -2.0014 -0.1160  0.9688
  147OSM   H17G16317   0.763   3.411   4.306 -0.6995 -0.6799  0.6147
  147OSM   C18F16318   0.948   3.304   4.255 -0.2839 -0.8961  0.7285
  147OSM   H18F16319   1.019   3.302   4.170  0.0139  1.8943  0.8165
  147OSM   H18G16320   0.929   3.209   4.309 -0.0188 -1.7239 -0.6064
  147OSM   H18H16321   1.008   3.369   4.323  3.5522  0.1859 -3.2172
  148OSM      N16322   1.515   5.247   2.120 -0.3289 -0.3654  0.5434
  148OSM    C1516323   1.405   5.325   2.053 -0.3760 -0.3018  0.1113
  148OSM   H15A16324   1.416   5.426   2.092 -1.3193 -0.3669  0.5842
  148OSM   H15B16325   1.311   5.282   2.084  0.1621 -0.4422  1.6673
  148OSM   H15C16326   1.426   5.316   1.948 -0.6017 -0.6795  0.1004
  148OSM    C1416327   1.487   5.103   2.084  0.2115 -0.0158 -0.5021
  148OSM   H14A16328   1.565   5.034   2.113 -2.2721 -2.2723  1.1818
  148OSM   H14B16329   1.473   5.106   1.977 -2.3717  1.3902 -0.2089
  148OSM   H14C16330   1.399   5.076   2.140  0.0163 -1.5211 -1.4690
  148OSM    C1316331   1.646   5.280   2.059 -0.4196 -0.3739 -0.3935
  148OSM   H13A16332   1.643   5.243   1.957 -1.2487  0.7180 -0.7825
  148OSM   H13B16333   1.736   5.242   2.106  1.5543  0.5313 -3.1533
  148OSM   H13C16334   1.660   5.386   2.046 -0.2609 -0.3289  0.1373
  148OSM    C1216335   1.510   5.266   2.277  1.0567  0.8591  0.0766
  148OSM   H12A16336   1.523   5.370   2.302 -0.5317  1.3743 -1.0411
  148OSM   H12B16337   1.591   5.209   2.321  0.9224  0.7850  0.2273
  148OSM    C1116338   1.371   5.228   2.342 -0.4148  0.3045  0.3732
  148OSM   H11A16339   1.377   5.215   2.453  0.4218  0.1990  0.3234
  148OSM   H11B16340   1.338   5.134   2.293  0.3915  1.5034 -2.6404
  148OSM      P16341   1.274   5.468   2.354  0.1778  0.1558 -0.0307
  148OSM    O1316342   1.399   5.500   2.422  0.9140  0.5940 -0.2383
  148OSM    O1416343   1.239   5.565   2.247 -0.2761  0.0028  0.1815
  148OSM    O1116344   1.160   5.460   2.462  0.0977 -0.3025 -0.2016
  148OSM    O1216345   1.268   5.321   2.298 -1.1655  0.6722 -0.1420
  148OSM    C1S16346   1.160   5.347   2.554  0.5435 -0.0672  0.5442
  148OSM    H1S16347   1.263   5.315   2.580  0.4516 -0.8734 -0.0626
  148OSM    H1T16348   1.104   5.257   2.519  1.4416 -0.2626 -0.4516
  148OSM     NF16349   1.105   5.267   2.796  0.1080 -0.2956  0.4308
  148OSM    HNF16350   1.025   5.207   2.799  2.1904 -3.1948  2.9999
  148OSM    C2S16351   1.101   5.383   2.698  0.2784 -0.4082 -0.6280
  148OSM    H2S16352   1.163   5.462   2.746 -0.4976  0.3608 -0.8730
  148OSM    C3S16353   0.962   5.446   2.685  0.6485  0.5401  0.5207
  148OSM    H3S16354   0.903   5.359   2.648  0.0994  1.0560  0.1570
  148OSM     O316355   0.949   5.551   2.590 -0.0830 -0.2211  0.2899
  148OSM    HO316356   1.032   5.546   2.543 -0.6118 -1.2575 -0.5898
  148OSM    C4S16357   0.905   5.502   2.814  0.0656 -0.2673 -0.5512
  148OSM    H4S16358   0.965   5.585   2.855 -1.4440  0.6129 -0.0530
  148OSM    C5S16359   0.787   5.466   2.875 -0.7138  0.3552  0.3276
  148OSM    H5S16360   0.730   5.383   2.831  1.3064 -0.0181 -1.7934
  148OSM    C6S16361   0.747   5.515   3.011 -0.2659  0.0543 -0.7634
  148OSM    H6S16362   0.719   5.426   3.071 -1.1441 -0.1434 -1.4479
  148OSM    H6T16363   0.650   5.569   3.014 -0.0629  0.3967  0.1196
  148OSM    C7S16364   0.850   5.602   3.088 -0.1812 -0.5616 -0.0003
  148OSM    H7S16365   0.863   5.698   3.034  1.8926  0.1490  1.6349
  148OSM    H7T16366   0.952   5.560   3.096 -0.5107 -1.7036 -1.4835
  148OSM    C8S16367   0.807   5.641   3.230  0.1065 -0.4258  0.1207
  148OSM    H8S16368   0.699   5.623   3.242 -0.2236  1.6099  0.5653
  148OSM    H8T16369   0.826   5.750   3.239  1.3154 -0.3121 -2.5894
  148OSM    C9S16370   0.870   5.560   3.352 -0.5365 -1.0744  0.1471
  148OSM    H9S16371   0.976   5.590   3.370 -0.3520 -3.0353  3.0603
  148OSM    H9T16372   0.878   5.450   3.344 -1.6822 -1.1604  0.0098
  148OSM   C10S16373   0.805   5.584   3.483 -0.3550  0.1891 -0.1112
  148OSM   H10S16374   0.718   5.516   3.485 -0.3592  0.0768 -1.9926
  148OSM   H10T16375   0.764   5.686   3.495 -1.5791 -0.3833  0.6840
  148OSM   C11S16376   0.898   5.567   3.606  0.5743  0.5752 -1.0487
  148OSM   H11S16377   0.966   5.655   3.614  0.8116  0.2764  0.5074
  148OSM   H11T16378   0.958   5.474   3.596  0.2005  0.0694  0.9095
  148OSM   C12S16379   0.832   5.571   3.747  0.3468 -0.0064 -0.0661
  148OSM   H12S16380   0.773   5.481   3.775  2.0870 -0.6462  1.7786
  148OSM   H12T16381   0.767   5.661   3.747  1.5054  0.8538 -0.3356
  148OSM   C13S16382   0.933   5.595   3.869 -0.2750  0.3535  0.1649
  148OSM   H13S16383   1.014   5.659   3.826 -0.9013  0.2772 -1.1716
  148OSM   H13T16384   0.982   5.496   3.882  0.6861  0.5814 -1.4242
  148OSM   C14S16385   0.860   5.613   3.994  0.2962 -0.6343 -0.0260
  148OSM   H14S16386   0.795   5.526   4.018 -1.6301  0.5826 -0.5662
  148OSM   H14T16387   0.790   5.699   3.984  0.8335 -0.2031 -0.0929
  148OSM   C15S16388   0.948   5.635   4.115  0.0123 -0.5896  0.1993
  148OSM   H15S16389   1.011   5.723   4.091 -0.0849 -0.6573 -0.3354
  148OSM   H15T16390   1.022   5.553   4.122 -1.4707 -1.8364  2.7121
  148OSM   C16S16391   0.880   5.682   4.246 -0.3522  0.3859  0.1050
  148OSM   H16S16392   0.789   5.622   4.268 -0.0104 -0.5244 -0.8523
  148OSM   H16T16393   0.858   5.791   4.249  4.1448  1.5075  0.8850
  148OSM   C17S16394   0.967   5.663   4.365 -0.3169  0.4930  0.3161
  148OSM   H17S16395   1.019   5.566   4.347  1.5693  1.7870 -1.5970
  148OSM   H17T16396   0.911   5.664   4.461 -0.7759  1.9949  0.0508
  148OSM   C18S16397   1.080   5.762   4.388 -0.2442  1.1379  0.3017
  148OSM   H18S16398   1.156   5.729   4.461 -0.2865 -0.7599 -0.4578
  148OSM   H18T16399   1.044   5.861   4.426  0.0520  1.0670  0.7709
  148OSM   H18U16400   1.133   5.793   4.295 -0.1998  2.9405  0.8784
  148OSM    C1F16401   1.213   5.230   2.859  0.2756 -0.1082  0.1369
  148OSM     OF16402   1.325   5.250   2.814 -0.0994 -0.2646 -0.2222
  148OSM    C2F16403   1.197   5.155   2.989 -0.4151  0.7098  0.2147
  148OSM    H2F16404   1.291   5.100   3.014 -0.0862  1.4216  0.5751
  148OSM    H2G16405   1.108   5.090   2.982  0.8073 -1.2106  1.3471
  148OSM    C3F16406   1.181   5.242   3.114 -0.0714 -0.2637  0.1288
  148OSM    H3F16407   1.094   5.310   3.106  1.5821  2.1722  1.4168
  148OSM    H3G16408   1.275   5.300   3.128  1.1319 -1.3531 -2.6909
  148OSM    C4F16409   1.169   5.149   3.240  0.0417 -0.1524 -0.5240
  148OSM    H4F16410   1.271   5.105   3.252 -0.3473 -1.1164 -0.6107
  148OSM    H4G16411   1.087   5.077   3.218 -2.6238  1.5449  2.8808
  148OSM    C5F16412   1.125   5.223   3.373  0.8350 -0.0848  0.5044
  148OSM    H5F16413   1.015   5.237   3.373  0.8661  0.1749  0.5586
  148OSM    H5G16414   1.181   5.318   3.388  0.3109 -0.0596  2.5334
  148OSM    C6F16415   1.153   5.138   3.499 -0.0198 -0.8636  0.4119
  148OSM    H6F16416   1.260   5.110   3.491  0.3643  0.8146 -0.8296
  148OSM    H6G16417   1.096   5.042   3.504 -1.1086 -0.3100 -0.7290
  148OSM    C7F16418   1.126   5.224   3.623 -0.6961 -0.5446 -0.1449
  148OSM    H7F16419   1.031   5.275   3.594 -0.0179  1.1456  0.4791
  148OSM    H7G16420   1.207   5.299   3.634  0.7920 -2.0878 -0.0997
  148OSM    C8F16421   1.100   5.142   3.752 -0.2208  0.5443  0.1187
  148OSM    H8F16422   1.035   5.052   3.739  1.1104 -0.2972 -1.0437
  148OSM    H8G16423   1.041   5.210   3.816  0.8032 -1.0811  2.9658
  148OSM    C9F16424   1.234   5.094   3.813  0.3636  0.5136 -0.2374
  148OSM    H9F16425   1.266   5.001   3.762 -0.1000  0.9923 -1.4288
  148OSM   C10F16426   1.306   5.151   3.908 -0.3727  0.1089  0.0481
  148OSM   H10F16427   1.394   5.095   3.941 -0.0733 -0.0778 -1.0322
  148OSM   C11F16428   1.273   5.276   3.985  0.2248 -0.0358  0.1747
  148OSM   H11F16429   1.173   5.260   4.030  0.0822 -0.1519 -0.1763
  148OSM   H11G16430   1.262   5.373   3.931  1.7362  0.1155  0.0948
  148OSM   C12F16431   1.358   5.311   4.104 -0.3730 -0.3384 -0.3840
  148OSM   H12F16432   1.318   5.408   4.142  1.9114 -0.1593  1.8798
  148OSM   H12G16433   1.460   5.339   4.070 -0.7767  1.1044 -0.4570
  148OSM   C13F16434   1.371   5.197   4.213 -0.5270 -0.1544  0.3492
  148OSM   H13F16435   1.426   5.107   4.177  0.7378  0.7479 -0.0196
  148OSM   H13G16436   1.272   5.161   4.250 -0.9249  1.6640  1.1793
  148OSM   C14F16437   1.465   5.251   4.330 -0.2821  1.0798  0.1804
  148OSM   H14F16438   1.420   5.347   4.365 -0.6875  0.5380  1.2095
  148OSM   H14G16439   1.570   5.265   4.296 -0.4321 -1.3810 -1.5811
  148OSM   C15F16440   1.475   5.162   4.458 -0.8775 -0.4219  0.6991
  148OSM   H15F16441   1.511   5.059   4.434  1.4929  0.7370 -1.1115
  148OSM   H15G16442   1.374   5.172   4.503 -0.8223  0.8358  0.5682
  148OSM   C16F16443   1.572   5.209   4.564  0.6561  0.0978  0.4053
  148OSM   H16F16444   1.541   5.315   4.580 -1.5934  0.0144 -2.5450
  148OSM   H16G16445   1.669   5.220   4.510  1.6496 -0.0934  2.0803
  148OSM   C17F16446   1.583   5.126   4.692 -0.0427 -0.1627  0.4523
  148OSM   H17F16447   1.627   5.029   4.659  1.3057  1.5594 -3.3446
  148OSM   H17G16448   1.477   5.105   4.718 -0.6777  1.0651 -1.0116
  148OSM   C18F16449   1.667   5.179   4.804  0.2424 -1.0256 -0.3872
  148OSM   H18F16450   1.630   5.283   4.818 -1.9073 -1.6390 -0.9957
  148OSM   H18G16451   1.773   5.190   4.775  0.0632 -0.4340 -0.8558
  148OSM   H18H16452   1.654   5.121   4.898 -2.8545  2.0448  1.3134
  149OSM      N16453   2.251   2.892   2.506  0.6515 -0.6635 -0.4020
  149OSM    C1516454   2.138   2.886   2.598 -0.6823 -1.0091 -0.0884
  149OSM   H15A16455   2.047   2.878   2.541  0.0391  2.2415 -1.9274
  149OSM   H15B16456   2.127   2.972   2.662  0.4966 -1.2003  0.4077
  149OSM   H15C16457   2.155   2.803   2.665 -0.0088 -1.0690 -0.3235
  149OSM    C1416458   2.381   2.879   2.590  0.2144  0.2086  0.9322
  149OSM   H14A16459   2.383   2.971   2.647 -1.0991 -0.3144  1.8692
  149OSM   H14B16460   2.471   2.884   2.531 -0.9857  2.1963 -0.8603
  149OSM   H14C16461   2.384   2.793   2.655  1.9166 -0.0313  0.5731
  149OSM    C1316462   2.252   2.778   2.415  0.6864 -0.0775 -0.0501
  149OSM   H13A16463   2.241   2.687   2.473 -1.7264 -0.2858 -0.7350
  149OSM   H13B16464   2.331   2.787   2.343  2.2680 -2.4509  1.2391
  149OSM   H13C16465   2.154   2.775   2.370 -0.0378  1.4252  1.3265
  149OSM    C1216466   2.250   3.018   2.410 -0.4866 -0.0717 -0.6159
  149OSM   H12A16467   2.162   3.026   2.348 -1.2412 -2.3480  0.0525
  149OSM   H12B16468   2.333   3.000   2.343 -0.9447  0.4915 -1.3481
  149OSM    C1116469   2.268   3.156   2.485 -0.0824 -0.3199  0.4882
  149OSM   H11A16470   2.290   3.243   2.420 -0.1321 -1.0962 -0.6101
  149OSM   H11B16471   2.369   3.154   2.530  1.1202  0.6945 -1.9481
  149OSM      P16472   2.026   3.241   2.533 -0.1767 -0.1120 -0.1708
  149OSM    O1316473   2.026   3.392   2.529  0.8529 -0.0927  0.7560
  149OSM    O1416474   1.975   3.171   2.419 -0.1532  0.7332  0.4912
  149OSM    O1116475   1.948   3.198   2.662  0.0315  0.1816 -0.7621
  149OSM    O1216476   2.170   3.184   2.582  1.0124 -0.1984 -0.6966
  149OSM    C1S16477   1.998   3.225   2.792 -1.0638  0.4058  0.1789
  149OSM    H1S16478   2.033   3.329   2.809  0.5739 -0.2299  0.9442
  149OSM    H1T16479   2.090   3.163   2.806 -1.3237 -0.0656 -0.1705
  149OSM     NF16480   1.939   3.223   3.032  0.2342  0.0407  0.2774
  149OSM    HNF16481   1.974   3.158   3.100 -0.4113 -1.2985 -0.6280
  149OSM    C2S16482   1.901   3.171   2.902 -0.2426  0.4763  0.3149
  149OSM    H2S16483   1.803   3.218   2.877 -0.3356  0.2994  0.3429
  149OSM    C3S16484   1.901   3.015   2.887  0.3633 -0.7432  0.5076
  149OSM    H3S16485   2.004   2.977   2.899  1.3674  2.3153  2.7767
  149OSM     O316486   1.865   2.971   2.752  0.1299  0.1873 -0.8052
  149OSM    HO316487   1.890   3.041   2.691 -0.2387 -0.2676 -1.4935
  149OSM    C4S16488   1.793   2.962   2.974  0.5208  0.3467 -0.2159
  149OSM    H4S16489   1.690   2.990   2.947 -0.5738 -0.2932  2.8967
  149OSM    C5S16490   1.823   2.872   3.070 -0.0657  0.1130 -0.7071
  149OSM    H5S16491   1.927   2.853   3.099 -0.0260 -1.6232 -1.8611
  149OSM    C6S16492   1.727   2.805   3.172  0.8949  0.0563  0.1495
  149OSM    H6S16493   1.768   2.807   3.275 -1.7383 -1.2400  1.3276
  149OSM    H6T16494   1.720   2.694   3.160  3.0882 -0.3305  1.8945
  149OSM    C7S16495   1.583   2.863   3.169 -0.0391  0.1547 -0.1736
  149OSM    H7S16496   1.545   2.835   3.069 -1.3804  1.1221  0.0441
  149OSM    H7T16497   1.581   2.974   3.173 -0.9584  0.1207  0.5126
  149OSM    C8S16498   1.494   2.806   3.282 -0.6035  0.4842  0.3435
  149OSM    H8S16499   1.463   2.701   3.262 -3.1910  1.3417 -0.5689
  149OSM    H8T16500   1.400   2.863   3.264 -0.5089 -0.1264 -2.5811
  149OSM    C9S16501   1.556   2.824   3.426 -0.4617 -0.5533 -0.2830
  149OSM    H9S16502   1.600   2.924   3.448 -0.9603 -0.8051  2.1468
  149OSM    H9T16503   1.638   2.750   3.433 -0.0081 -0.0323  0.0453
  149OSM   C10S16504   1.453   2.795   3.540  0.3690  0.1843  0.4632
  149OSM   H10S16505   1.398   2.701   3.517  0.6686  0.6086 -2.2175
  149OSM   H10T16506   1.386   2.882   3.555 -0.1810  0.1363 -1.5027
  149OSM   C11S16507   1.533   2.745   3.667  0.0756 -0.0195 -0.3052
  149OSM   H11S16508   1.587   2.834   3.708 -0.8994  1.2549 -1.6736
  149OSM   H11T16509   1.609   2.671   3.635  0.2718  0.2513 -0.4746
  149OSM   C12S16510   1.446   2.692   3.779 -0.0344 -0.3295 -0.0117
  149OSM   H12S16511   1.397   2.600   3.740 -0.0496  0.6396 -2.4446
  149OSM   H12T16512   1.365   2.767   3.793 -0.2088 -0.3303 -0.9412
  149OSM   C13S16513   1.527   2.671   3.900  0.1395 -0.0099 -0.0360
  149OSM   H13S16514   1.602   2.750   3.920  0.4633 -0.4648  0.5650
  149OSM   H13T16515   1.601   2.588   3.885  1.3512  0.2798  3.4669
  149OSM   C14S16516   1.451   2.652   4.028 -0.0616 -0.1519 -0.4412
  149OSM   H14S16517   1.360   2.592   4.005 -1.8342  1.2708  2.2087
  149OSM   H14T16518   1.416   2.749   4.070  1.6777 -0.4195  1.8348
  149OSM   C15S16519   1.528   2.595   4.149  0.4532 -0.4806  0.5015
  149OSM   H15S16520   1.597   2.669   4.195  0.5437 -1.1682  1.5066
  149OSM   H15T16521   1.590   2.514   4.104  0.3180  0.1879 -0.9413
  149OSM   C16S16522   1.425   2.531   4.245 -0.1200  0.1355  0.0717
  149OSM   H16S16523   1.346   2.481   4.186  0.5843 -1.7739  0.6872
  149OSM   H16T16524   1.379   2.606   4.314  0.5789  0.4950  0.1529
  149OSM   C17S16525   1.493   2.422   4.326 -0.5773 -0.5035 -0.8766
  149OSM   H17S16526   1.537   2.345   4.259 -1.6748 -0.9244 -1.1269
  149OSM   H17T16527   1.422   2.374   4.397  0.6263 -1.1745 -0.0972
  149OSM   C18S16528   1.609   2.476   4.410  0.5515  0.2710  0.1612
  149OSM   H18S16529   1.651   2.385   4.457 -1.8998 -1.3356 -0.5704
  149OSM   H18T16530   1.561   2.534   4.491 -1.1720 -0.4938 -0.2698
  149OSM   H18U16531   1.677   2.545   4.355  0.6818 -0.7987 -1.0860
  149OSM    C1F16532   1.920   3.347   3.061  0.3471  0.2317  0.6038
  149OSM     OF16533   1.878   3.426   2.986  0.0211  0.1457  0.6060
  149OSM    C2F16534   1.935   3.384   3.204  0.3766  0.0804 -0.5559
  149OSM    H2F16535   1.960   3.302   3.274 -2.3237  0.9743  1.6045
  149OSM    H2G16536   1.838   3.429   3.233  0.4695 -0.1488  0.1168
  149OSM    C3F16537   2.035   3.502   3.217  0.6418 -0.1238 -0.1012
  149OSM    H3F16538   2.003   3.583   3.148  2.0815 -0.0118 -0.6684
  149OSM    H3G16539   2.134   3.466   3.185  1.0125  0.8325 -0.0689
  149OSM    C4F16540   2.047   3.557   3.358 -0.8969 -0.4150 -0.4129
  149OSM    H4F16541   2.075   3.482   3.436 -1.1010  0.3610  0.4249
  149OSM    H4G16542   1.955   3.599   3.402  0.7920  2.6516  0.5105
  149OSM    C5F16543   2.159   3.666   3.366 -0.0339 -0.2319 -0.3211
  149OSM    H5F16544   2.144   3.742   3.286 -0.3934 -0.0303 -0.0654
  149OSM    H5G16545   2.254   3.611   3.349 -0.0579 -0.9279  1.5623
  149OSM    C6F16546   2.172   3.732   3.503  0.0897 -0.7416 -0.6127
  149OSM    H6F16547   2.276   3.750   3.537  0.0500  0.5381 -1.1400
  149OSM    H6G16548   2.111   3.678   3.579 -1.2849  1.0451 -0.3900
  149OSM    C7F16549   2.117   3.878   3.490 -0.3207 -0.0142 -0.2064
  149OSM    H7F16550   2.010   3.879   3.461 -1.3305 -2.1524  2.8606
  149OSM    H7G16551   2.177   3.918   3.406 -2.3481  2.0301 -0.7835
  149OSM    C8F16552   2.141   3.956   3.622  0.5623  0.0206  0.5237
  149OSM    H8F16553   2.137   4.062   3.592 -0.2219 -0.0369  0.3881
  149OSM    H8G16554   2.247   3.944   3.651  0.6185 -0.7268  0.0240
  149OSM    C9F16555   2.043   3.925   3.730  0.3888  0.4149 -0.2232
  149OSM    H9F16556   1.948   3.981   3.726  0.1464  0.2935  2.1941
  149OSM   C10F16557   2.068   3.856   3.846 -0.1153  0.1236 -0.2653
  149OSM   H10F16558   1.991   3.856   3.924 -1.0864 -0.6268 -1.2049
  149OSM   C11F16559   2.208   3.789   3.873  0.5964  0.1414 -0.2985
  149OSM   H11F16560   2.298   3.847   3.844  1.8534 -2.7943 -2.8663
  149OSM   H11G16561   2.224   3.696   3.815 -1.7759  0.3833 -1.4710
  149OSM   C12F16562   2.227   3.781   4.027  0.1535  0.2704 -0.4283
  149OSM   H12F16563   2.231   3.882   4.073  0.6330 -0.2836  0.8042
  149OSM   H12G16564   2.329   3.741   4.047 -0.5979 -0.8689  1.4005
  149OSM   C13F16565   2.123   3.704   4.106 -0.3230 -0.4542  0.1110
  149OSM   H13F16566   2.097   3.608   4.056  3.6794 -1.3535 -0.5947
  149OSM   H13G16567   2.030   3.765   4.110  0.8493  1.5714 -1.6461
  149OSM   C14F16568   2.165   3.683   4.253  0.8221  0.5111  0.1501
  149OSM   H14F16569   2.213   3.773   4.296  0.6844  0.8398 -0.3694
  149OSM   H14G16570   2.238   3.600   4.248  0.2760  0.0436 -0.2074
  149OSM   C15F16571   2.046   3.646   4.342 -0.1746 -0.3708 -0.0248
  149OSM   H15F16572   1.979   3.572   4.293 -0.8233  0.5680 -0.5966
  149OSM   H15G16573   1.974   3.731   4.334  0.3420  0.0957  0.2213
  149OSM   C16F16574   2.077   3.610   4.490  0.2242 -1.0333  0.8342
  149OSM   H16F16575   2.104   3.698   4.552 -0.7898  1.0164 -1.4309
  149OSM   H16G16576   2.174   3.557   4.480  0.9615  0.4999 -0.7698
  149OSM   C17F16577   1.973   3.510   4.552  0.2504 -0.2227 -0.5631
  149OSM   H17F16578   2.040   3.468   4.630  1.5170  1.1416 -0.8645
  149OSM   H17G16579   1.948   3.435   4.475  1.7992 -1.5418  0.1531
  149OSM   C18F16580   1.858   3.567   4.633  0.2618 -0.3312 -0.5439
  149OSM   H18F16581   1.808   3.657   4.592 -0.4869 -0.2962  0.4032
  149OSM   H18G16582   1.882   3.581   4.741  1.3804  0.2228 -0.8542
  149OSM   H18H16583   1.774   3.494   4.639 -0.6863  0.7193 -0.7531
  150OSM      N16584   0.218   4.984   2.167 -0.0560  0.6308 -0.1938
  150OSM    C1516585   0.185   4.912   2.297  0.2473 -0.3358  0.2172
  150OSM   H15A16586   0.186   4.805   2.281 -2.6843 -0.3456 -0.4849
  150OSM   H15B16587   0.084   4.930   2.332 -0.5436  0.2231 -2.1947
  150OSM   H15C16588   0.258   4.938   2.372  1.0081 -2.9851  0.4773
  150OSM    C1416589   0.346   4.940   2.110 -0.0655 -0.1927 -0.1502
  150OSM   H14A16590   0.356   4.956   2.003  0.9413  2.2048  0.2349
  150OSM   H14B16591   0.362   4.835   2.132  0.8486 -0.4185 -1.6865
  150OSM   H14C16592   0.431   4.994   2.148  0.6111 -0.6059 -1.0200
  150OSM    C1316593   0.119   4.936   2.067 -0.4036 -0.3786 -0.3640
  150OSM   H13A16594   0.020   4.960   2.103  0.0658  0.3377  0.4810
  150OSM   H13B16595   0.134   4.830   2.049  1.3249  0.1313 -2.3270
  150OSM   H13C16596   0.134   4.985   1.972  0.6872  0.0403  0.0054
  150OSM    C1216597   0.209   5.134   2.187 -0.1548 -0.2902 -0.3676
  150OSM   H12A16598   0.105   5.164   2.190  0.4706  2.3103 -1.6205
  150OSM   H12B16599   0.246   5.183   2.098  3.3492  1.1596  1.7282
  150OSM    C1116600   0.279   5.195   2.315 -0.3477 -0.5739  0.8123
  150OSM   H11A16601   0.236   5.143   2.403  1.3468 -1.2967  1.2532
  150OSM   H11B16602   0.250   5.302   2.323  2.9242  0.4975  0.0496
  150OSM      P16603   0.501   5.109   2.427 -0.0709  0.4303  0.0453
  150OSM    O1316604   0.626   5.055   2.375 -1.0201  0.1705 -0.3340
  150OSM    O1416605   0.506   5.213   2.533  0.0027  0.9576 -0.3684
  150OSM    O1116606   0.403   4.991   2.474 -0.1247 -0.6814 -0.2303
  150OSM    O1216607   0.417   5.168   2.306 -0.3557  0.2551 -0.1071
  150OSM    C1S16608   0.457   4.865   2.518 -0.2497  0.4707  0.8301
  150OSM    H1S16609   0.562   4.841   2.494 -0.1113  0.8443  1.0461
  150OSM    H1T16610   0.390   4.785   2.481 -0.3830  1.1553 -0.5136
  150OSM     NF16611   0.507   4.760   2.741 -0.4225  0.0725  0.3471
  150OSM    HNF16612   0.457   4.702   2.804  0.3104  0.2532  1.1081
  150OSM    C2S16613   0.430   4.861   2.674  0.1433 -0.2129 -0.6895
  150OSM    H2S16614   0.479   4.953   2.713 -0.7913 -0.6172  1.6072
  150OSM    C3S16615   0.278   4.863   2.715  0.1781 -0.1279  0.4451
  150OSM    H3S16616   0.228   4.780   2.661  1.4344  1.0388 -2.7295
  150OSM     O316617   0.213   4.975   2.644  0.7610  0.5521 -0.5705
  150OSM    HO316618   0.285   5.007   2.590  1.7655  2.0064  1.5054
  150OSM    C4S16619   0.265   4.857   2.866  0.6153 -0.3147 -0.3285
  150OSM    H4S16620   0.292   4.763   2.917 -1.4080 -1.3257 -1.0056
  150OSM    C5S16621   0.210   4.964   2.936  0.3787 -0.0818  0.6999
  150OSM    H5S16622   0.163   5.048   2.883 -0.7046 -0.5088  0.9408
  150OSM    C6S16623   0.190   4.968   3.084  0.9305  0.0604  0.0919
  150OSM    H6S16624   0.259   4.902   3.140 -0.1970 -3.2089 -2.0902
  150OSM    H6T16625   0.083   4.943   3.091  1.0393 -0.7105 -0.8019
  150OSM    C7S16626   0.200   5.108   3.144 -0.5392 -0.3719  0.0264
  150OSM    H7S16627   0.145   5.175   3.075  0.8181  1.5363  0.7056
  150OSM    H7T16628   0.302   5.150   3.132 -0.7129  0.0857  0.1381
  150OSM    C8S16629   0.141   5.123   3.284 -0.4773  0.3864 -0.4020
  150OSM    H8S16630   0.067   5.043   3.303  2.3313 -1.8352  2.3287
  150OSM    H8T16631   0.106   5.226   3.307 -1.1135 -0.1481  1.1090
  150OSM    C9S16632   0.253   5.088   3.382 -0.3413 -0.0674 -0.3799
  150OSM    H9S16633   0.336   5.157   3.358 -1.2654  1.0738 -0.3676
  150OSM    H9T16634   0.285   4.983   3.364  1.4291  0.9318 -4.0509
  150OSM   C10S16635   0.200   5.097   3.524 -0.0278 -0.0310 -0.6721
  150OSM   H10S16636   0.244   5.018   3.590 -4.1876 -1.9582  0.0848
  150OSM   H10T16637   0.098   5.055   3.536  0.5038 -1.2376 -0.2259
  150OSM   C11S16638   0.215   5.225   3.600  0.4229 -0.5549  0.2154
  150OSM   H11S16639   0.166   5.306   3.542  0.8257  0.3454  1.1025
  150OSM   H11T16640   0.320   5.259   3.591 -0.0766  0.8645 -0.5977
  150OSM   C12S16641   0.158   5.229   3.741 -0.0448  0.1794 -0.3412
  150OSM   H12S16642   0.063   5.171   3.737  1.5252 -2.5914 -0.0335
  150OSM   H12T16643   0.146   5.337   3.767 -1.8098 -0.2096  0.6956
  150OSM   C13S16644   0.251   5.169   3.848 -0.2934  0.6547  0.2524
  150OSM   H13S16645   0.354   5.207   3.832  0.0418  0.1740  1.2207
  150OSM   H13T16646   0.251   5.058   3.841  0.9991  0.6452  0.2904
  150OSM   C14S16647   0.210   5.204   3.991 -0.5288 -0.8525  0.0998
  150OSM   H14S16648   0.103   5.173   4.000 -0.8146  0.2032  0.4140
  150OSM   H14T16649   0.221   5.314   3.994 -1.3579 -0.4891 -3.8666
  150OSM   C15S16650   0.286   5.133   4.111 -0.8684 -0.2692  0.0487
  150OSM   H15S16651   0.392   5.167   4.101 -0.7925 -0.6360 -0.4071
  150OSM   H15T16652   0.277   5.023   4.106  2.0012 -0.6655  1.4547
  150OSM   C16S16653   0.235   5.180   4.244  0.1179 -0.6831  1.0013
  150OSM   H16S16654   0.258   5.288   4.258  1.1600 -0.5327 -1.4553
  150OSM   H16T16655   0.282   5.123   4.327 -0.5775 -0.0090  1.8821
  150OSM   C17S16656   0.087   5.164   4.256  0.6254  0.4007 -0.1219
  150OSM   H17S16657   0.064   5.061   4.221  1.4624 -0.3135  1.2880
  150OSM   H17T16658   0.044   5.230   4.178 -0.7691 -1.5766 -1.1140
  150OSM   C18S16659   0.027   5.185   4.392  0.1971  0.4634 -0.4760
  150OSM   H18S16660   0.096   5.263   4.431 -0.6874  0.5524  0.9653
  150OSM   H18T16661   0.037   5.091   4.450  0.2814  1.9465  2.0564
  150OSM   H18U16662  -0.079   5.219   4.390 -0.2428 -0.8736 -1.6144
  150OSM    C1F16663   0.640   4.769   2.741 -0.0065  0.3595  0.6332
  150OSM     OF16664   0.705   4.852   2.686 -0.2001 -0.3951 -0.0760
  150OSM    C2F16665   0.707   4.649   2.813 -0.3244 -0.0575  0.3316
  150OSM    H2F16666   0.726   4.566   2.741 -0.2858 -0.5220  0.8650
  150OSM    H2G16667   0.637   4.615   2.893 -1.1013  1.6986  0.4473
  150OSM    C3F16668   0.838   4.691   2.881 -0.0234  0.4009 -0.4242
  150OSM    H3F16669   0.907   4.744   2.811 -0.0599  0.6074 -0.3036
  150OSM    H3G16670   0.883   4.598   2.922 -1.7293  0.6099  2.1202
  150OSM    C4F16671   0.800   4.766   3.010  0.2132 -0.4355 -0.3320
  150OSM    H4F16672   0.738   4.700   3.075  0.7649  0.5687  1.2582
  150OSM    H4G16673   0.735   4.853   2.985 -0.4876 -0.7375  0.3751
  150OSM    C5F16674   0.920   4.810   3.090 -0.3840  0.3492 -1.0699
  150OSM    H5F16675   0.968   4.892   3.032  2.0431  0.4919  0.9791
  150OSM    H5G16676   0.992   4.728   3.109 -0.3278  0.7353  0.6059
  150OSM    C6F16677   0.878   4.870   3.229 -0.5020 -0.5886  0.0681
  150OSM    H6F16678   0.965   4.906   3.289 -0.1422 -0.6626 -0.4095
  150OSM    H6G16679   0.826   4.792   3.288 -1.6340  0.3488  0.3560
  150OSM    C7F16680   0.781   4.991   3.228  0.3336  0.1154 -0.9532
  150OSM    H7F16681   0.684   4.968   3.180  0.2629 -3.5816  0.6237
  150OSM    H7G16682   0.831   5.075   3.175 -1.6280  1.1583 -1.2275
  150OSM    C8F16683   0.757   5.036   3.371  0.5857 -0.3226 -0.6174
  150OSM    H8F16684   0.854   5.073   3.410 -1.0282  1.3152  2.2160
  150OSM    H8G16685   0.728   4.940   3.418 -0.4751 -0.5036 -1.6000
  150OSM    C9F16686   0.656   5.145   3.381 -0.8494  0.7751  0.3815
  150OSM    H9F16687   0.610   5.168   3.283  0.9963 -0.9807 -0.9712
  150OSM   C10F16688   0.617   5.201   3.495  0.1524 -0.4666 -0.7653
  150OSM   H10F16689   0.542   5.281   3.498  0.6896  0.0328  0.0626
  150OSM   C11F16690   0.698   5.178   3.621  0.2764 -0.1103 -0.3517
  150OSM   H11F16691   0.722   5.276   3.668  1.8030 -0.7042  0.1737
  150OSM   H11G16692   0.797   5.131   3.603  0.9278  1.9977 -3.1897
  150OSM   C12F16693   0.633   5.079   3.717  0.8549 -0.6759 -0.3814
  150OSM   H12F16694   0.627   4.975   3.677 -1.6663 -1.7939  2.4433
  150OSM   H12G16695   0.527   5.110   3.732  0.7958 -0.9430 -0.2273
  150OSM   C13F16696   0.716   5.070   3.848  0.2690  0.3410  0.6905
  150OSM   H13F16697   0.820   5.055   3.814 -0.1279  1.2790 -1.1180
  150OSM   H13G16698   0.672   4.978   3.891 -0.6227 -0.6029 -2.0403
  150OSM   C14F16699   0.687   5.183   3.949  0.1774 -0.0086 -0.3462
  150OSM   H14F16700   0.577   5.196   3.954  0.1030 -0.8461  0.8165
  150OSM   H14G16701   0.727   5.280   3.914  0.6489  0.3407  1.0950
  150OSM   C15F16702   0.744   5.155   4.087 -0.4040  0.3611 -0.3401
  150OSM   H15F16703   0.727   5.052   4.127 -0.2073  0.7835  0.8782
  150OSM   H15G16704   0.688   5.224   4.154  0.5590  1.3333 -0.5132
  150OSM   C16F16705   0.893   5.182   4.081 -0.1088  0.3225  0.6648
  150OSM   H16F16706   0.925   5.280   4.039 -2.5835  0.1608 -1.8829
  150OSM   H16G16707   0.939   5.097   4.026  1.4665  0.1040  2.2059
  150OSM   C17F16708   0.969   5.167   4.215 -0.1419 -0.3206 -0.0810
  150OSM   H17F16709   1.060   5.106   4.201 -0.9808 -1.2546 -1.7635
  150OSM   H17G16710   0.906   5.100   4.277 -0.2341 -0.1937 -0.0365
  150OSM   C18F16711   0.982   5.297   4.293  0.2348  0.0571 -0.0339
  150OSM   H18F16712   1.040   5.364   4.225  0.0186  0.8589  0.5611
  150OSM   H18G16713   1.038   5.300   4.389 -0.9944  1.1444  0.6871
  150OSM   H18H16714   0.883   5.340   4.319 -0.5005 -1.7480  0.3023
  151OSM      N16715   6.204   4.232   2.460 -0.1444  0.1067 -0.1508
  151OSM    C1516716   6.138   4.110   2.492  0.6150  0.0630 -0.2310
  151OSM   H15A16717   6.175   4.071   2.586  2.6596  1.8734 -0.2081
  151OSM   H15B16718   6.142   4.035   2.415  2.1652  0.1963 -0.3173
  151OSM   H15C16719   6.033   4.125   2.508  0.3730 -1.6296 -0.0028
  151OSM    C1416720   6.160   4.282   2.326 -0.4536  0.3153 -0.4905
  151OSM   H14A16721   6.214   4.367   2.287 -1.4256  1.7908  1.2036
  151OSM   H14B16722   6.053   4.298   2.316 -0.5744 -0.0560  0.1598
  151OSM   H14C16723   6.167   4.194   2.264 -0.5675 -0.9616  1.2632
  151OSM    C1316724   6.167   4.327   2.570 -0.1604  0.5719  0.0388
  151OSM   H13A16725   6.186   4.290   2.669 -1.5613  0.0501  0.1313
  151OSM   H13B16726   6.063   4.353   2.562 -0.6388 -1.0716  0.5274
  151OSM   H13C16727   6.228   4.414   2.550  0.8200  0.0497  0.6555
  151OSM    C1216728   6.354   4.203   2.449 -0.1995 -0.3711 -0.4995
  151OSM   H12A16729   6.401   4.216   2.546 -0.8864 -1.2023 -0.0362
  151OSM   H12B16730   6.399   4.288   2.400  1.2361  0.4307  1.9834
  151OSM    C1116731   6.411   4.074   2.384 -0.6534 -0.1675 -0.5054
  151OSM   H11A16732   6.384   3.990   2.452  1.3170 -1.7033 -1.5148
  151OSM   H11B16733   6.522   4.084   2.379 -0.5572 -1.5874 -2.0945
  151OSM      P16734   6.292   3.918   2.207 -0.2534 -0.1429 -0.0751
  151OSM    O1316735   6.177   3.947   2.112  0.1524  0.3885 -0.6717
  151OSM    O1416736   6.396   3.825   2.154 -0.4454 -0.4965  0.8013
  151OSM    O1116737   6.227   3.853   2.331 -0.7227 -0.1114  0.0297
  151OSM    O1216738   6.353   4.057   2.254 -0.1215 -0.5506 -0.2392
  151OSM    C1S16739   6.283   3.735   2.394 -0.1853  0.0298  0.4257
  151OSM    H1S16740   6.390   3.726   2.368 -0.5642  0.1891 -1.2759
  151OSM    H1T16741   6.234   3.642   2.359 -1.7676  1.3619 -1.0724
  151OSM     NF16742   6.333   3.617   2.606  0.7994 -0.1020  0.7344
  151OSM    HNF16743   6.275   3.538   2.625  0.9905 -0.4029  0.0751
  151OSM    C2S16744   6.257   3.725   2.545 -0.1319 -0.2741 -0.1999
  151OSM    H2S16745   6.307   3.816   2.585 -0.0286  0.3026 -1.5887
  151OSM    C3S16746   6.104   3.731   2.574 -0.7620  0.1725 -0.4356
  151OSM    H3S16747   6.068   3.629   2.547 -0.1505 -0.7524  1.9882
  151OSM     O316748   6.033   3.833   2.504 -0.7437  0.5209  0.3436
  151OSM    HO316749   6.094   3.842   2.430 -0.5121 -1.8549  0.1732
  151OSM    C4S16750   6.078   3.746   2.724  0.5232 -0.2283 -0.6283
  151OSM    H4S16751   6.098   3.655   2.782  0.6601  0.5772  0.6364
  151OSM    C5S16752   6.031   3.855   2.799  0.2995 -0.0098 -0.3716
  151OSM    H5S16753   5.999   3.945   2.744 -2.6376  0.1404  1.3702
  151OSM    C6S16754   6.008   3.864   2.946  0.0995 -0.1610 -0.5073
  151OSM    H6S16755   6.029   3.767   2.995 -0.9043 -0.4813 -0.6888
  151OSM    H6T16756   5.906   3.893   2.980  0.0973 -2.0800  1.2952
  151OSM    C7S16757   6.111   3.965   3.006 -0.6466  0.4218  0.4383
  151OSM    H7S16758   6.093   4.062   2.955  0.2760 -0.0399 -0.8344
  151OSM    H7T16759   6.213   3.923   2.990 -1.7588 -1.8719 -1.2972
  151OSM    C8S16760   6.092   3.948   3.157 -0.5268  0.4562 -0.0635
  151OSM    H8S16761   6.107   3.842   3.185  2.4568  1.5527  3.3300
  151OSM    H8T16762   5.995   3.985   3.196  0.2699  2.2932  0.3241
  151OSM    C9S16763   6.208   4.012   3.249  0.1106  0.0093 -0.0493
  151OSM    H9S16764   6.195   4.122   3.251  1.9126  0.2346  0.3856
  151OSM    H9T16765   6.306   3.981   3.207  0.8787 -2.8934  3.3929
  151OSM   C10S16766   6.192   3.965   3.393 -0.8753  0.3005  0.6161
  151OSM   H10S16767   6.232   3.863   3.408  1.5423  1.1123  0.2120
  151OSM   H10T16768   6.083   3.973   3.414 -0.9029 -0.3563  0.7395
  151OSM   C11S16769   6.265   4.055   3.485 -0.0553  0.0487 -0.3619
  151OSM   H11S16770   6.229   4.158   3.463 -1.3130 -0.6259 -1.6074
  151OSM   H11T16771   6.368   4.037   3.446 -0.1280 -2.3375  0.3706
  151OSM   C12S16772   6.263   4.019   3.629 -0.2311  0.0925 -0.3779
  151OSM   H12S16773   6.280   3.911   3.652 -1.1184 -0.1331 -0.7343
  151OSM   H12T16774   6.165   4.039   3.677 -0.9646 -0.7170 -1.4772
  151OSM   C13S16775   6.367   4.098   3.718  0.9353  0.2741  0.3716
  151OSM   H13S16776   6.371   4.198   3.669  0.2261 -0.4379 -1.2056
  151OSM   H13T16777   6.462   4.045   3.698 -0.0941 -0.9747 -1.4785
  151OSM   C14S16778   6.316   4.098   3.863  0.3520  0.5034  0.0258
  151OSM   H14S16779   6.330   3.993   3.897  0.7624  0.4205 -0.3921
  151OSM   H14T16780   6.208   4.124   3.868 -0.4289 -1.4164 -3.6672
  151OSM   C15S16781   6.400   4.173   3.960 -0.3189 -0.1449 -0.1135
  151OSM   H15S16782   6.390   4.283   3.949 -0.3583 -0.3060 -1.9523
  151OSM   H15T16783   6.506   4.147   3.938 -0.9333 -2.1588 -0.8540
  151OSM   C16S16784   6.364   4.125   4.103 -0.2464 -0.0520  0.1467
  151OSM   H16S16785   6.400   4.023   4.131  0.7871  0.1270 -0.4874
  151OSM   H16T16786   6.254   4.115   4.105 -0.3903  0.9560 -1.3827
  151OSM   C17S16787   6.404   4.226   4.205  0.3933  0.3839  0.2413
  151OSM   H17S16788   6.366   4.328   4.185  1.2154  0.8147  0.8241
  151OSM   H17T16789   6.513   4.243   4.213  1.1724 -4.2932  3.5317
  151OSM   C18S16790   6.357   4.169   4.347  0.0438  0.2470 -0.1419
  151OSM   H18S16791   6.384   4.063   4.365  0.1185  0.6728  2.8504
  151OSM   H18T16792   6.246   4.171   4.344  0.0553  0.1744 -0.5972
  151OSM   H18U16793   6.406   4.223   4.431 -0.9728  1.2108 -0.1491
  151OSM    C1F16794   6.467   3.604   2.626  0.1759 -0.0537  0.8078
  151OSM     OF16795   6.544   3.687   2.584 -0.5045 -0.7058 -0.4154
  151OSM    C2F16796   6.504   3.477   2.697  0.2522 -0.2290 -0.3644
  151OSM    H2F16797   6.556   3.424   2.614 -0.4030 -0.3302 -0.7206
  151OSM    H2G16798   6.413   3.422   2.730 -0.5077  1.7674  1.0172
  151OSM    C3F16799   6.596   3.510   2.816 -0.7372  0.3821  0.0719
  151OSM    H3F16800   6.676   3.580   2.784 -0.0340 -0.6650 -0.5341
  151OSM    H3G16801   6.641   3.412   2.839  1.2950  0.7712 -1.9030
  151OSM    C4F16802   6.524   3.556   2.946 -0.5372  0.1193 -0.3001
  151OSM    H4F16803   6.448   3.483   2.983 -1.8123  0.9540 -1.2089
  151OSM    H4G16804   6.471   3.651   2.924 -2.0151 -0.6702 -0.3189
  151OSM    C5F16805   6.617   3.586   3.055 -0.1355 -0.0732 -0.6870
  151OSM    H5F16806   6.668   3.675   3.012 -0.4671  0.9740  0.9986
  151OSM    H5G16807   6.688   3.508   3.091 -1.8687 -0.6700  1.6239
  151OSM    C6F16808   6.541   3.622   3.187  0.6219  0.7529  0.1722
  151OSM    H6F16809   6.486   3.532   3.221 -0.2707  1.3597  0.3704
  151OSM    H6G16810   6.470   3.704   3.162  2.4491  1.8968 -1.5660
  151OSM    C7F16811   6.634   3.674   3.299  0.9898  0.4771 -0.1910
  151OSM    H7F16812   6.712   3.741   3.257  4.0019 -2.2550  0.6206
  151OSM    H7G16813   6.688   3.591   3.348 -0.5603  0.7463  2.1109
  151OSM    C8F16814   6.544   3.739   3.413 -0.6550 -0.5514 -1.0181
  151OSM    H8F16815   6.511   3.836   3.369  2.7560  1.9978  1.4422
  151OSM    H8G16816   6.622   3.784   3.478  0.7174 -0.9403 -2.3346
  151OSM    C9F16817   6.443   3.659   3.490  0.3351  0.1924 -0.2618
  151OSM    H9F16818   6.343   3.641   3.448 -0.6874  0.5307  1.9185
  151OSM   C10F16819   6.470   3.602   3.610 -0.7041  0.2558 -0.1920
  151OSM   H10F16820   6.390   3.551   3.665 -0.2056 -0.3779 -0.0336
  151OSM   C11F16821   6.596   3.623   3.689 -0.2819  0.0729  0.0052
  151OSM   H11F16822   6.674   3.679   3.632 -0.7236  1.5301  0.7653
  151OSM   H11G16823   6.628   3.525   3.729 -0.5162  0.2635  0.6766
  151OSM   C12F16824   6.558   3.718   3.800 -0.8201 -0.0639 -0.0829
  151OSM   H12F16825   6.467   3.684   3.854 -2.4848  0.9633 -2.0638
  151OSM   H12G16826   6.546   3.818   3.751  2.0198  0.5885  0.4206
  151OSM   C13F16827   6.673   3.738   3.902  0.1046 -0.9782 -0.4266
  151OSM   H13F16828   6.761   3.788   3.856 -0.7611  0.1358 -0.9235
  151OSM   H13G16829   6.690   3.633   3.933 -1.4855 -1.6520 -1.7280
  151OSM   C14F16830   6.623   3.820   4.019  0.4704 -0.0266 -0.0537
  151OSM   H14F16831   6.531   3.778   4.065 -0.5226  1.0623 -0.9761
  151OSM   H14G16832   6.591   3.915   3.971  0.2221  0.7546  1.5752
  151OSM   C15F16833   6.736   3.845   4.128  0.8982  0.4836  0.3108
  151OSM   H15F16834   6.824   3.891   4.078  0.8899 -0.0711 -0.2281
  151OSM   H15G16835   6.770   3.751   4.177 -0.2074  0.7951  1.7541
  151OSM   C16F16836   6.701   3.950   4.232  1.0444  0.2686  0.0117
  151OSM   H16F16837   6.606   3.918   4.279  1.6919  1.2410  2.1281
  151OSM   H16G16838   6.683   4.045   4.176 -1.1713  0.8528  1.5780
  151OSM   C17F16839   6.803   3.962   4.338  0.0080  0.6030 -0.5037
  151OSM   H17F16840   6.892   4.013   4.295  1.0187  1.4011  2.2944
  151OSM   H17G16841   6.841   3.863   4.371 -1.7906 -0.6380 -2.0066
  151OSM   C18F16842   6.763   4.046   4.455  0.1488  0.1703  0.8747
  151OSM   H18F16843   6.673   4.014   4.513 -1.0599 -0.8267 -1.4393
  151OSM   H18G16844   6.744   4.150   4.422 -1.6243 -0.6539 -0.9347
  151OSM   H18H16845   6.855   4.039   4.517  1.2090  2.5388 -0.3093
  152OSM      N16846   1.783   5.653   2.344  0.1195  0.1386  0.0870
  152OSM    C1516847   1.850   5.785   2.323  0.4521  0.2694  0.3326
  152OSM   H15A16848   1.863   5.830   2.421 -1.3212 -0.4786  0.9539
  152OSM   H15B16849   1.806   5.855   2.254  1.8411  1.4949  0.6306
  152OSM   H15C16850   1.947   5.771   2.276  0.2935  2.3549 -0.7297
  152OSM    C1416851   1.644   5.664   2.390  0.1294 -0.2214  0.3380
  152OSM   H14A16852   1.638   5.723   2.480 -0.8716  3.2484 -1.8035
  152OSM   H14B16853   1.604   5.565   2.403  0.3590 -0.1905  1.3810
  152OSM   H14C16854   1.582   5.709   2.314  0.1707  1.8064  1.4439
  152OSM    C1316855   1.790   5.565   2.219 -0.4706 -0.2349 -0.1610
  152OSM   H13A16856   1.736   5.475   2.243  0.7091 -0.8942  0.0877
  152OSM   H13B16857   1.888   5.526   2.201 -0.5577 -0.9295  0.7930
  152OSM   H13C16858   1.754   5.610   2.128  1.4576  0.3237 -0.6806
  152OSM    C1216859   1.864   5.582   2.460 -0.2743  0.2047 -0.3785
  152OSM   H12A16860   1.864   5.645   2.548  0.6117  0.5090 -0.5862
  152OSM   H12B16861   1.965   5.578   2.423  1.1804  2.8873  2.7909
  152OSM    C1116862   1.805   5.447   2.511 -0.1946  0.1056 -0.5491
  152OSM   H11A16863   1.697   5.448   2.539  0.0821 -0.9711  0.6548
  152OSM   H11B16864   1.864   5.411   2.598 -2.7165  1.8033  2.0383
  152OSM      P16865   1.875   5.202   2.426  0.2625 -0.1617 -0.6968
  152OSM    O1316866   1.805   5.115   2.338 -0.0049  0.2044  0.7474
  152OSM    O1416867   2.022   5.219   2.405  0.1185 -0.0794  0.5790
  152OSM    O1116868   1.837   5.172   2.577  0.0318 -0.4847  0.0258
  152OSM    O1216869   1.816   5.350   2.402  0.6127 -0.1998  0.0500
  152OSM    C1S16870   1.698   5.136   2.594  0.5470  0.6792 -0.0964
  152OSM    H1S16871   1.679   5.041   2.539 -0.5559  0.1031  1.2491
  152OSM    H1T16872   1.633   5.219   2.559 -0.1484  0.1773 -0.0152
  152OSM     NF16873   1.547   5.053   2.764  0.7988 -0.1847 -0.2572
  152OSM    HNF16874   1.481   5.115   2.806 -0.5418 -1.3597 -0.5385
  152OSM    C2S16875   1.675   5.108   2.751 -0.3559 -0.5605 -0.0532
  152OSM    H2S16876   1.746   5.025   2.773  0.5507  0.2634  0.1955
  152OSM    C3S16877   1.707   5.229   2.836  0.3321 -0.8437  0.9165
  152OSM    H3S16878   1.639   5.307   2.796  0.5674 -1.6428 -1.1413
  152OSM     O316879   1.843   5.270   2.831 -0.2784  0.4130  0.3276
  152OSM    HO316880   1.870   5.251   2.741 -0.0206 -0.1213  0.5122
  152OSM    C4S16881   1.669   5.183   2.975 -0.1330 -0.3269  0.4265
  152OSM    H4S16882   1.726   5.094   3.004 -0.4491 -0.2400  1.3491
  152OSM    C5S16883   1.583   5.245   3.055  0.2635 -0.1104  0.6661
  152OSM    H5S16884   1.525   5.331   3.017  0.7531 -0.1435 -0.1907
  152OSM    C6S16885   1.545   5.196   3.193  0.6020 -0.1478 -0.6198
  152OSM    H6S16886   1.537   5.085   3.202 -3.2127 -0.1046 -1.7737
  152OSM    H6T16887   1.446   5.234   3.225  0.9748  0.4059 -0.1009
  152OSM    C7S16888   1.652   5.264   3.292  0.3138  0.5009  0.6680
  152OSM    H7S16889   1.653   5.374   3.278 -0.1877  0.3221 -0.9837
  152OSM    H7T16890   1.752   5.231   3.258  0.2694  2.6860 -1.9046
  152OSM    C8S16891   1.630   5.239   3.445  0.6432 -0.0421  0.3543
  152OSM    H8S16892   1.643   5.132   3.470  0.5862 -0.2479 -0.4554
  152OSM    H8T16893   1.521   5.258   3.460  0.1961 -0.3138 -2.0824
  152OSM    C9S16894   1.718   5.331   3.532  0.3126 -0.0838 -0.7663
  152OSM    H9S16895   1.693   5.436   3.505  0.3286 -0.2879 -1.6121
  152OSM    H9T16896   1.827   5.314   3.515  1.0759  1.5057  1.9100
  152OSM   C10S16897   1.681   5.306   3.678 -0.8506  0.8075 -0.1681
  152OSM   H10S16898   1.682   5.198   3.705 -0.8740  0.4941 -1.3420
  152OSM   H10T16899   1.572   5.324   3.691 -0.7333  0.2172  1.8649
  152OSM   C11S16900   1.774   5.381   3.776 -0.0473 -0.0821 -0.5284
  152OSM   H11S16901   1.772   5.488   3.748  2.4145 -0.3477 -1.9659
  152OSM   H11T16902   1.878   5.342   3.769 -0.0724 -0.1818 -0.3493
  152OSM   C12S16903   1.728   5.363   3.916  0.5671 -0.0943 -0.0377
  152OSM   H12S16904   1.744   5.254   3.933 -1.6431 -0.4260  0.2319
  152OSM   H12T16905   1.619   5.382   3.918  0.1053 -1.9755 -2.1161
  152OSM   C13S16906   1.814   5.449   4.013 -0.1838  0.5637  0.3425
  152OSM   H13S16907   1.811   5.558   3.988 -1.2832  1.2177  2.9971
  152OSM   H13T16908   1.921   5.423   4.018 -0.9333 -2.6741  3.4830
  152OSM   C14S16909   1.758   5.434   4.153  0.5339 -0.8421 -0.6543
  152OSM   H14S16910   1.724   5.331   4.177 -0.4394 -0.5557 -0.7435
  152OSM   H14T16911   1.665   5.495   4.158  1.6157  0.7459  0.8700
  152OSM   C15S16912   1.860   5.489   4.255 -0.0614 -0.0111  0.3301
  152OSM   H15S16913   1.868   5.599   4.253  2.5386 -0.1491 -1.0116
  152OSM   H15T16914   1.966   5.461   4.236 -0.1705 -0.6209  0.5761
  152OSM   C16S16915   1.841   5.446   4.400  0.1864 -0.0023 -0.4812
  152OSM   H16S16916   1.872   5.340   4.411 -1.4839 -0.6538 -1.6679
  152OSM   H16T16917   1.740   5.474   4.436  0.6867  0.1843  0.8286
  152OSM   C17S16918   1.939   5.520   4.497  0.2078 -0.7187  0.0496
  152OSM   H17S16919   1.944   5.625   4.463  0.7348 -1.3071 -1.7938
  152OSM   H17T16920   2.047   5.501   4.478  0.3838  1.5499 -1.5736
  152OSM   C18S16921   1.912   5.507   4.648 -0.5367  0.1140  0.2160
  152OSM   H18S16922   1.937   5.402   4.671  1.1627  0.3701 -0.3114
  152OSM   H18T16923   1.809   5.545   4.665  0.1800  2.0911  0.3998
  152OSM   H18U16924   1.983   5.568   4.708  1.2362 -1.9495  0.3120
  152OSM    C1F16925   1.508   4.936   2.715  0.2755 -0.2651  0.6120
  152OSM     OF16926   1.586   4.856   2.661  0.0865 -0.1934  0.6267
  152OSM    C2F16927   1.361   4.921   2.723 -0.1136 -0.1570  0.1415
  152OSM    H2F16928   1.322   4.951   2.623  2.8290  2.6435 -0.3410
  152OSM    H2G16929   1.316   4.991   2.796 -1.9242 -1.0798 -0.0294
  152OSM    C3F16930   1.327   4.776   2.761  0.2669 -0.1204  0.5199
  152OSM    H3F16931   1.358   4.700   2.686  0.7096 -0.2790  0.8587
  152OSM    H3G16932   1.218   4.761   2.769  0.2568 -0.5544 -0.2830
  152OSM    C4F16933   1.409   4.719   2.873  0.3358  0.7854 -0.1853
  152OSM    H4F16934   1.516   4.709   2.846  0.0897 -2.1571 -0.3664
  152OSM    H4G16935   1.370   4.620   2.903  1.9652  0.0681 -0.3159
  152OSM    C5F16936   1.399   4.802   3.005  0.1323  0.0845 -0.0802
  152OSM    H5F16937   1.413   4.911   2.987 -0.8051  0.3501  0.7409
  152OSM    H5G16938   1.482   4.764   3.068  0.1490 -0.6307 -0.5220
  152OSM    C6F16939   1.268   4.774   3.080 -0.0683 -0.5248  0.0107
  152OSM    H6F16940   1.178   4.787   3.016 -0.0240 -2.1753 -0.4470
  152OSM    H6G16941   1.264   4.856   3.154 -0.2473  1.2640 -1.8650
  152OSM    C7F16942   1.283   4.640   3.154 -0.2384 -0.1127 -0.1907
  152OSM    H7F16943   1.345   4.567   3.098 -0.9004 -1.1728  0.4296
  152OSM    H7G16944   1.184   4.591   3.166 -0.7179  0.1116 -2.5712
  152OSM    C8F16945   1.349   4.654   3.294 -0.3730  0.5565 -0.3944
  152OSM    H8F16946   1.459   4.648   3.290 -0.2455  2.0987  0.2528
  152OSM    H8G16947   1.321   4.562   3.349 -1.7464  0.6364 -0.8933
  152OSM    C9F16948   1.299   4.768   3.382 -0.3773 -0.2276  0.0277
  152OSM    H9F16949   1.215   4.828   3.346  0.4542  0.9071 -0.0774
  152OSM   C10F16950   1.343   4.789   3.510  0.1877 -0.4197  0.4378
  152OSM   H10F16951   1.294   4.875   3.559 -1.3800  0.2951 -2.1969
  152OSM   C11F16952   1.458   4.714   3.573  0.5047 -0.0636 -0.7620
  152OSM   H11F16953   1.544   4.781   3.594  1.5939 -1.0167 -1.9677
  152OSM   H11G16954   1.487   4.620   3.521 -0.4645 -1.9985  1.9128
  152OSM   C12F16955   1.412   4.665   3.714 -1.0842  0.0631 -1.1007
  152OSM   H12F16956   1.336   4.585   3.700 -1.3252 -0.0158  0.4683
  152OSM   H12G16957   1.377   4.739   3.789 -0.3965  1.1712 -1.8409
  152OSM   C13F16958   1.536   4.593   3.782  0.3669  0.0282 -0.3630
  152OSM   H13F16959   1.576   4.526   3.703 -1.0919 -0.4566 -0.7242
  152OSM   H13G16960   1.499   4.533   3.868 -0.1206  1.5145  0.5020
  152OSM   C14F16961   1.635   4.695   3.846 -0.3079 -0.2124  0.0598
  152OSM   H14F16962   1.570   4.760   3.908  1.1046  1.1253  0.1784
  152OSM   H14G16963   1.660   4.771   3.769 -1.3433  1.2441  1.0956
  152OSM   C15F16964   1.753   4.645   3.921 -0.0874  0.2877 -0.3562
  152OSM   H15F16965   1.805   4.739   3.950  0.3599 -0.0081 -0.2024
  152OSM   H15G16966   1.814   4.575   3.860 -0.9868 -0.8402  0.0019
  152OSM   C16F16967   1.722   4.583   4.051  0.5114  0.0408 -0.0923
  152OSM   H16F16968   1.669   4.486   4.044  1.4235 -0.3827 -1.7157
  152OSM   H16G16969   1.650   4.649   4.104 -0.9293 -1.8581  0.3851
  152OSM   C17F16970   1.853   4.553   4.133  0.5822 -0.3803  0.3634
  152OSM   H17F16971   1.902   4.650   4.157  1.4010 -0.1491 -1.9505
  152OSM   H17G16972   1.907   4.485   4.064  0.0545 -0.0654 -0.3828
  152OSM   C18F16973   1.815   4.485   4.261 -0.5321  0.1686 -0.8631
  152OSM   H18F16974   1.908   4.443   4.307 -1.3742 -1.5441 -0.6179
  152OSM   H18G16975   1.765   4.387   4.243 -0.6735 -0.2056  1.2551
  152OSM   H18H16976   1.741   4.534   4.328  0.5521  1.5099 -0.6136
  153OSM      N16977   1.335   0.061   2.042  0.4586  0.4150 -0.6004
  153OSM    C1516978   1.395   0.014   1.911 -0.7662 -0.2669  0.1937
  153OSM   H15A16979   1.324  -0.039   1.850 -2.3029 -1.1044  2.5581
  153OSM   H15B16980   1.462  -0.069   1.929 -0.6999 -0.5284 -1.1935
  153OSM   H15C16981   1.449   0.089   1.855 -0.7694  0.5499  1.2359
  153OSM    C1416982   1.252   0.185   2.008 -0.4016  0.6710 -0.3857
  153OSM   H14A16983   1.325   0.258   1.977  0.4543 -0.1584 -0.3528
  153OSM   H14B16984   1.197   0.226   2.092  1.1539  0.1724  0.9386
  153OSM   H14C16985   1.205   0.168   1.912  0.9973  0.0886 -0.9972
  153OSM    C1316986   1.236  -0.047   2.083  0.3381 -0.4795  0.7734
  153OSM   H13A16987   1.223  -0.053   2.190  1.5087 -1.9608  0.8694
  153OSM   H13B16988   1.264  -0.147   2.054  1.5950 -0.2477  1.1003
  153OSM   H13C16989   1.141  -0.026   2.036  1.0128 -2.4333 -1.6838
  153OSM    C1216990   1.433   0.092   2.145  0.5801 -0.2805 -0.5041
  153OSM   H12A16991   1.504   0.171   2.128  0.0043  0.4650  0.4026
  153OSM   H12B16992   1.494   0.003   2.152 -0.0663 -0.6555  0.7605
  153OSM    C1116993   1.373   0.117   2.293  0.0420  0.3540 -0.5186
  153OSM   H11A16994   1.462   0.132   2.358 -0.1469 -0.1457 -0.1379
  153OSM   H11B16995   1.325   0.026   2.335 -1.3431  1.0663 -0.4992
  153OSM      P16996   1.361   0.375   2.287  0.0197 -0.3720  0.0471
  153OSM    O1316997   1.493   0.368   2.219  0.0645 -0.0753  0.3169
  153OSM    O1416998   1.261   0.466   2.223 -0.5458  0.4762 -0.5169
  153OSM    O1116999   1.379   0.423   2.435 -0.0605 -0.5727 -0.1522
  153OSM    O1217000   1.296   0.236   2.304  0.3892  0.1065 -0.0000
  153OSM    C1S17001   1.306   0.374   2.542 -0.5237  0.7180 -0.7089
  153OSM    H1S17002   1.313   0.263   2.547  0.9374  0.7736 -1.0489
  153OSM    H1T17003   1.195   0.385   2.539 -0.5431  1.2057  0.7483
  153OSM     NF17004   1.311   0.343   2.784 -0.0073  0.3897  0.2166
  153OSM    HNF17005   1.232   0.378   2.833  0.8041  2.3541  0.2010
  153OSM    C2S17006   1.368   0.421   2.682  0.3714 -0.0109  0.7207
  153OSM    H2S17007   1.476   0.398   2.665  0.3693  0.6038 -0.2171
  153OSM    C3S17008   1.369   0.574   2.705 -0.0113 -0.5723  0.1180
  153OSM    H3S17009   1.264   0.607   2.718 -0.0324  0.4950 -2.2017
  153OSM     O317010   1.406   0.652   2.592  0.6603  0.3943  0.0748
  153OSM    HO317011   1.399   0.583   2.526 -0.0318  1.1998 -0.7214
  153OSM    C4S17012   1.446   0.621   2.825 -0.6295 -0.1875  0.2410
  153OSM    H4S17013   1.385   0.611   2.916  1.2664  1.5086  1.8037
  153OSM    C5S17014   1.572   0.665   2.839  0.3502  0.0088  0.2117
  153OSM    H5S17015   1.631   0.666   2.746 -0.0027 -2.9267 -0.1311
  153OSM    C6S17016   1.630   0.702   2.976 -0.3376  0.2084  0.4339
  153OSM    H6S17017   1.654   0.810   2.975  1.1563 -0.0990  0.0151
  153OSM    H6T17018   1.726   0.647   2.987 -2.2870 -3.1420  2.5674
  153OSM    C7S17019   1.552   0.658   3.108  0.0857 -0.2704 -0.2795
  153OSM    H7S17020   1.538   0.548   3.107  2.0850 -0.5482 -1.2551
  153OSM    H7T17021   1.451   0.702   3.093  0.2512 -0.0770 -0.8641
  153OSM    C8S17022   1.600   0.715   3.247  0.0259 -0.2135  0.2889
  153OSM    H8S17023   1.627   0.819   3.216  1.0647 -0.1742  1.2799
  153OSM    H8T17024   1.693   0.661   3.273  1.7443  1.7642 -1.2845
  153OSM    C9S17025   1.496   0.703   3.354 -0.0471  0.3556  0.3044
  153OSM    H9S17026   1.492   0.598   3.390  0.0681  0.7810  1.6061
  153OSM    H9T17027   1.397   0.725   3.308  0.4534  2.0970  0.0197
  153OSM   C10S17028   1.508   0.785   3.478 -0.5540  0.3153  0.2244
  153OSM   H10S17029   1.429   0.762   3.553 -0.2164 -1.5392  0.0530
  153OSM   H10T17030   1.499   0.889   3.439  0.1077 -0.8530 -3.4378
  153OSM   C11S17031   1.641   0.750   3.539 -0.7788  0.3119 -0.5968
  153OSM   H11S17032   1.726   0.776   3.473  1.3636  1.0546  2.2303
  153OSM   H11T17033   1.634   0.642   3.562 -0.7076  0.1636 -1.2842
  153OSM   C12S17034   1.658   0.817   3.674 -0.7078 -0.6264 -0.3069
  153OSM   H12S17035   1.640   0.926   3.663 -1.3253 -0.5658  1.0726
  153OSM   H12T17036   1.766   0.815   3.697 -0.5701 -1.0345 -0.9456
  153OSM   C13S17037   1.580   0.765   3.797 -0.7335 -0.1295  1.1227
  153OSM   H13S17038   1.626   0.666   3.818 -0.2631 -0.2396 -0.2983
  153OSM   H13T17039   1.476   0.739   3.769 -0.3358 -0.4684 -0.1266
  153OSM   C14S17040   1.577   0.861   3.919  0.5192 -0.2066 -0.5532
  153OSM   H14S17041   1.505   0.944   3.907 -0.2989 -0.7806  0.2307
  153OSM   H14T17042   1.680   0.899   3.936  0.9488 -1.1894 -0.9028
  153OSM   C15S17043   1.534   0.794   4.051  0.2308 -0.2282 -0.4391
  153OSM   H15S17044   1.604   0.711   4.072  1.1148  1.0670  2.1642
  153OSM   H15T17045   1.432   0.749   4.056  0.1412 -0.0701 -0.7951
  153OSM   C16S17046   1.524   0.905   4.164  0.9473  0.5806 -0.2640
  153OSM   H16S17047   1.435   0.964   4.135 -0.3245 -1.2814 -0.3524
  153OSM   H16T17048   1.611   0.972   4.174 -0.0174  1.9763 -0.8867
  153OSM   C17S17049   1.492   0.844   4.304 -0.7900 -0.2001  0.0943
  153OSM   H17S17050   1.558   0.757   4.324 -0.4604  0.2157  0.8861
  153OSM   H17T17051   1.384   0.820   4.297 -0.5713 -0.8906 -1.1923
  153OSM   C18S17052   1.525   0.944   4.415 -0.4991 -0.5946 -0.1826
  153OSM   H18S17053   1.471   1.039   4.397 -1.2556 -1.1935 -1.1189
  153OSM   H18T17054   1.634   0.964   4.423 -0.8935  0.8793  4.0881
  153OSM   H18U17055   1.500   0.910   4.518  1.5161 -0.1205  0.5078
  153OSM    C1F17056   1.350   0.221   2.813 -0.1391  0.2795 -0.5164
  153OSM     OF17057   1.427   0.156   2.745  0.2912  0.0611 -0.0614
  153OSM    C2F17058   1.270   0.161   2.928  0.1583  0.6493  0.3745
  153OSM    H2F17059   1.161   0.170   2.906 -0.1136 -0.8206  0.9815
  153OSM    H2G17060   1.284   0.230   3.013 -1.1426  0.0110  1.1415
  153OSM    C3F17061   1.314   0.015   2.955 -0.5849 -0.0559 -0.1504
  153OSM    H3F17062   1.424   0.014   2.973 -0.4247  2.3189 -0.7336
  153OSM    H3G17063   1.315  -0.054   2.867 -0.2231  0.1962 -0.3466
  153OSM    C4F17064   1.243  -0.052   3.074  0.8247 -0.1057 -0.1788
  153OSM    H4F17065   1.141  -0.059   3.030  1.5281 -0.5570 -1.8011
  153OSM    H4G17066   1.250   0.020   3.158 -1.0024  1.3939 -1.2125
  153OSM    C5F17067   1.297  -0.190   3.099  0.6061  0.5770  0.1653
  153OSM    H5F17068   1.408  -0.190   3.090  0.5525  1.1866 -0.5005
  153OSM    H5G17069   1.260  -0.262   3.024 -1.4216  0.9056  0.7924
  153OSM    C6F17070   1.247  -0.238   3.231 -0.3851  0.0319  0.2389
  153OSM    H6F17071   1.262  -0.348   3.227 -2.2402 -0.2347 -0.2875
  153OSM    H6G17072   1.139  -0.217   3.243 -0.2784  1.4474 -0.9774
  153OSM    C7F17073   1.320  -0.182   3.352  0.4628  0.0386 -0.2539
  153OSM    H7F17074   1.306  -0.073   3.342 -1.0066 -0.2381 -1.5687
  153OSM    H7G17075   1.431  -0.191   3.358  0.6338  2.5416  2.0747
  153OSM    C8F17076   1.261  -0.204   3.489  0.4670  0.8482 -0.6889
  153OSM    H8F17077   1.157  -0.168   3.475  0.9132  2.2982 -0.4893
  153OSM    H8G17078   1.321  -0.140   3.558 -0.8031  0.7974  0.5142
  153OSM    C9F17079   1.266  -0.347   3.524  0.0604  1.1824  0.7132
  153OSM    H9F17080   1.256  -0.419   3.442  1.3659 -1.0716  2.4176
  153OSM   C10F17081   1.279  -0.392   3.649 -0.5646  0.4362 -0.2589
  153OSM   H10F17082   1.301  -0.498   3.666  1.5918  0.8161 -0.4985
  153OSM   C11F17083   1.279  -0.299   3.768  0.1198  0.1822  0.0822
  153OSM   H11F17084   1.190  -0.340   3.820 -0.5043  2.3970  0.8717
  153OSM   H11G17085   1.248  -0.194   3.751  1.7212  0.4939 -1.1425
  153OSM   C12F17086   1.406  -0.297   3.853 -0.6814 -0.1474  0.3001
  153OSM   H12F17087   1.495  -0.269   3.792  0.7119 -1.6248  1.5440
  153OSM   H12G17088   1.426  -0.402   3.882 -1.0882 -0.6732 -1.2489
  153OSM   C13F17089   1.395  -0.224   3.989  0.2138 -1.0348  0.1550
  153OSM   H13F17090   1.369  -0.118   3.971 -0.1132 -0.6113  2.7447
  153OSM   H13G17091   1.491  -0.225   4.045 -0.5664  0.6489  1.6414
  153OSM   C14F17092   1.278  -0.278   4.079  0.1136 -0.1070 -0.1291
  153OSM   H14F17093   1.314  -0.381   4.100  0.0759 -0.5349 -1.9936
  153OSM   H14G17094   1.177  -0.282   4.034 -0.2662 -0.2968  0.7089
  153OSM   C15F17095   1.278  -0.202   4.217  0.1521  0.6583  0.5749
  153OSM   H15F17096   1.190  -0.236   4.275  1.0076  0.3744  1.7379
  153OSM   H15G17097   1.275  -0.093   4.198 -0.2358  0.4796 -0.4616
  153OSM   C16F17098   1.403  -0.240   4.307  0.7115 -0.8007 -0.3691
  153OSM   H16F17099   1.498  -0.240   4.250  0.7466 -2.1302 -0.3460
  153OSM   H16G17100   1.398  -0.344   4.347  1.4707 -0.4428  0.6763
  153OSM   C17F17101   1.419  -0.133   4.422  1.1929 -0.5804 -0.3025
  153OSM   H17F17102   1.319  -0.116   4.466  1.4616  0.3985 -0.0425
  153OSM   H17G17103   1.439  -0.035   4.375  1.3079  0.7778  2.3856
  153OSM   C18F17104   1.525  -0.151   4.526  0.1973  0.2258 -0.3223
  153OSM   H18F17105   1.620  -0.164   4.471  0.7505 -0.0749  0.6717
  153OSM   H18G17106   1.518  -0.248   4.581  0.6308  1.4596  2.0506
  153OSM   H18H17107   1.548  -0.068   4.596  2.0468  0.4867 -1.1962
  154OSM      N17108   6.535   3.134   2.165 -0.1476 -0.7427  0.5114
  154OSM    C1517109   6.514   3.255   2.082  0.4418 -0.7542  0.6508
  154OSM   H15A17110   6.598   3.322   2.089 -1.2347  1.3238  2.0762
  154OSM   H15B17111   6.424   3.309   2.109  0.6859 -0.8123  1.6239
  154OSM   H15C17112   6.506   3.219   1.981  0.0269 -2.1617  1.1683
  154OSM    C1417113   6.657   3.068   2.104 -0.7775  0.9033 -1.0652
  154OSM   H14A17114   6.675   2.976   2.158  2.4572  1.0448 -1.6614
  154OSM   H14B17115   6.753   3.118   2.109  1.4927 -3.0294 -0.8528
  154OSM   H14C17116   6.632   3.036   2.004  0.1703 -1.1419 -0.7138
  154OSM    C1317117   6.559   3.183   2.308 -0.6183  0.4325 -0.0507
  154OSM   H13A17118   6.642   3.251   2.320 -0.9085  0.6393  0.8598
  154OSM   H13B17119   6.567   3.096   2.372 -0.7036  1.9163  2.0638
  154OSM   H13C17120   6.467   3.233   2.334 -1.4946 -0.9236 -0.4245
  154OSM    C1217121   6.425   3.036   2.159  0.5358 -0.0486 -0.1441
  154OSM   H12A17122   6.460   2.951   2.216  0.2000  0.8096  1.3911
  154OSM   H12B17123   6.415   2.997   2.058 -4.0276  1.3897 -0.4390
  154OSM    C1117124   6.276   3.067   2.207  0.8574 -0.0914  0.1653
  154OSM   H11A17125   6.266   3.072   2.317 -0.1831 -0.9388  0.1244
  154OSM   H11B17126   6.213   2.979   2.181  2.6087 -0.5684 -3.0731
  154OSM      P17127   6.068   3.226   2.144 -0.2085 -0.0891  0.2700
  154OSM    O1317128   6.039   3.310   2.028 -0.1142 -0.4511 -0.4857
  154OSM    O1417129   5.992   3.100   2.152  0.6052 -0.1236  0.9643
  154OSM    O1117130   6.035   3.304   2.274 -0.1741 -0.4704  0.3231
  154OSM    O1217131   6.222   3.185   2.146  0.2306 -0.4364 -0.4093
  154OSM    C1S17132   6.033   3.244   2.402  0.8139 -0.1390 -0.6652
  154OSM    H1S17133   6.135   3.241   2.444 -0.4890 -0.0326  2.8612
  154OSM    H1T17134   5.999   3.138   2.400  0.0680 -0.0586  2.6676
  154OSM     NF17135   5.974   3.285   2.646 -0.1139 -0.3898  0.2666
  154OSM    HNF17136   5.907   3.225   2.688 -1.2432 -1.6138 -2.9921
  154OSM    C2S17137   5.951   3.328   2.506  0.2572  0.0994  0.3972
  154OSM    H2S17138   5.986   3.433   2.497  1.4777 -0.4475 -2.4901
  154OSM    C3S17139   5.800   3.336   2.459  0.5833 -0.4239  1.2727
  154OSM    H3S17140   5.771   3.230   2.444  0.4086 -0.0682 -1.3408
  154OSM     O317141   5.780   3.406   2.334 -0.0092  0.0117 -0.0856
  154OSM    HO317142   5.866   3.398   2.293 -0.0507 -1.0969  0.0153
  154OSM    C4S17143   5.718   3.395   2.574  0.6842  0.3833  0.1104
  154OSM    H4S17144   5.713   3.326   2.659  2.1590  0.1082  0.0147
  154OSM    C5S17145   5.684   3.527   2.589 -0.5067 -0.3365 -0.0792
  154OSM    H5S17146   5.724   3.602   2.519 -0.0685  1.3705  1.8911
  154OSM    C6S17147   5.622   3.589   2.716  1.0246 -0.2384 -0.6767
  154OSM    H6S17148   5.532   3.643   2.680  0.2326 -2.0298 -1.4405
  154OSM    H6T17149   5.692   3.673   2.737  0.4423  1.0340 -3.3742
  154OSM    C7S17150   5.576   3.491   2.822 -0.1664  0.5024  0.8343
  154OSM    H7S17151   5.529   3.404   2.772 -1.9799  1.3425  1.0108
  154OSM    H7T17152   5.502   3.537   2.890 -1.1712  0.3254 -0.1104
  154OSM    C8S17153   5.688   3.458   2.922  0.2251  0.2501  0.1844
  154OSM    H8S17154   5.772   3.407   2.871  0.6850  2.1167 -0.9994
  154OSM    H8T17155   5.635   3.391   2.994 -0.5010  0.7831  0.1639
  154OSM    C9S17156   5.737   3.566   3.013 -0.1405 -0.6448  0.1059
  154OSM    H9S17157   5.764   3.664   2.966  0.3308  0.5875  2.7444
  154OSM    H9T17158   5.832   3.527   3.057  0.4827 -2.3519 -2.4969
  154OSM   C10S17159   5.638   3.598   3.124  0.2661  0.3849  0.5057
  154OSM   H10S17160   5.584   3.508   3.159  2.6695 -1.2903  0.1773
  154OSM   H10T17161   5.567   3.678   3.093 -0.1353 -0.1348  0.0686
  154OSM   C11S17162   5.727   3.640   3.241 -0.0843 -0.3976 -0.4502
  154OSM   H11S17163   5.787   3.732   3.223 -0.6719  0.6565  2.5092
  154OSM   H11T17164   5.806   3.566   3.267  0.0081 -0.0135  0.3965
  154OSM   C12S17165   5.648   3.677   3.368  0.1370  0.4231  0.4305
  154OSM   H12S17166   5.614   3.587   3.424  0.8877  0.4095  0.8742
  154OSM   H12T17167   5.560   3.742   3.353  1.2198  1.7889 -0.2030
  154OSM   C13S17168   5.734   3.754   3.473  0.0110 -0.1273 -0.2383
  154OSM   H13S17169   5.790   3.837   3.425 -1.0923  2.2376  2.2915
  154OSM   H13T17170   5.819   3.692   3.508  1.0771  1.7064  0.5758
  154OSM   C14S17171   5.644   3.792   3.593 -0.0872 -0.4703  0.5863
  154OSM   H14S17172   5.593   3.703   3.635 -0.6356 -0.5024 -0.1224
  154OSM   H14T17173   5.560   3.856   3.556 -1.3376 -2.3991 -0.0542
  154OSM   C15S17174   5.720   3.870   3.703  0.2194 -0.2383  0.1819
  154OSM   H15S17175   5.639   3.895   3.775  0.8557 -0.1761  0.8894
  154OSM   H15T17176   5.767   3.961   3.659  1.3423 -0.5819  0.6356
  154OSM   C16S17177   5.830   3.788   3.771  0.2581 -0.4721 -0.4202
  154OSM   H16S17178   5.909   3.758   3.699  0.5658 -2.8038  0.7881
  154OSM   H16T17179   5.784   3.692   3.804  0.3625  0.1753  1.7337
  154OSM   C17S17180   5.888   3.861   3.895 -0.0331  0.5018  0.3184
  154OSM   H17S17181   5.944   3.791   3.961  0.2533  0.7615  0.3522
  154OSM   H17T17182   5.800   3.877   3.961  0.1732  1.9523  0.2701
  154OSM   C18S17183   5.949   4.004   3.882  0.6231  0.4651 -0.0321
  154OSM   H18S17184   6.007   4.013   3.787  1.1117  1.8951  0.3701
  154OSM   H18T17185   6.032   4.004   3.957 -0.3110 -0.1173  1.0312
  154OSM   H18U17186   5.871   4.082   3.891 -1.7825 -1.7549 -0.6538
  154OSM    C1F17187   6.083   3.316   2.715  0.4626  0.4194  0.5496
  154OSM     OF17188   6.165   3.387   2.659 -0.3173 -0.4375  0.0166
  154OSM    C2F17189   6.104   3.253   2.848  0.1447  0.5054  0.0678
  154OSM    H2F17190   6.152   3.155   2.827  0.1396  0.6138 -0.4539
  154OSM    H2G17191   6.006   3.227   2.894  0.1703  1.5516  0.7497
  154OSM    C3F17192   6.184   3.338   2.946 -0.4490  0.1302  0.3401
  154OSM    H3F17193   6.277   3.381   2.903  0.7844 -4.0688 -1.8027
  154OSM    H3G17194   6.221   3.269   3.025 -0.4957 -0.1302  0.1377
  154OSM    C4F17195   6.108   3.443   3.026  0.0084 -0.8514 -0.4117
  154OSM    H4F17196   6.028   3.387   3.079  1.9487 -2.2248  1.2484
  154OSM    H4G17197   6.071   3.513   2.948 -0.5847  1.8316  2.0944
  154OSM    C5F17198   6.200   3.516   3.121  0.5881 -1.0662  1.1381
  154OSM    H5F17199   6.232   3.618   3.090 -0.5170 -0.9710  0.2328
  154OSM    H5G17200   6.291   3.455   3.141  2.1358 -0.0456 -2.1508
  154OSM    C6F17201   6.126   3.546   3.256  0.4287  0.4359 -1.2025
  154OSM    H6F17202   6.016   3.557   3.243 -0.1416  0.5015  2.5617
  154OSM    H6G17203   6.169   3.641   3.294  2.1771 -1.1487  1.0673
  154OSM    C7F17204   6.146   3.427   3.358 -0.4050 -0.6285  0.4701
  154OSM    H7F17205   6.252   3.436   3.390 -0.4852  1.0336  0.3876
  154OSM    H7G17206   6.126   3.332   3.304 -0.0021 -0.6764  0.4011
  154OSM    C8F17207   6.043   3.442   3.478  0.7936  0.3033  0.0103
  154OSM    H8F17208   6.053   3.348   3.536 -1.1119  0.9249  1.4684
  154OSM    H8G17209   5.942   3.456   3.436  0.2447 -1.0340  0.8170
  154OSM    C9F17210   6.072   3.564   3.567  0.1064 -0.2695  0.0824
  154OSM    H9F17211   6.068   3.665   3.522  0.8205 -0.0459  0.5066
  154OSM   C10F17212   6.129   3.575   3.693  0.3677  0.5372 -0.2581
  154OSM   H10F17213   6.154   3.671   3.741 -1.8180  0.4744  1.2023
  154OSM   C11F17214   6.156   3.457   3.782  0.3958  0.3166  0.5141
  154OSM   H11F17215   6.257   3.411   3.775 -0.0246 -0.8072  1.4265
  154OSM   H11G17216   6.089   3.373   3.752  1.7168 -0.5150 -0.2247
  154OSM   C12F17217   6.130   3.486   3.937 -0.3030 -0.3734  0.8548
  154OSM   H12F17218   6.129   3.389   3.991  0.5598  0.0946  1.7596
  154OSM   H12G17219   6.027   3.527   3.946 -0.7241 -1.3702  0.7045
  154OSM   C13F17220   6.232   3.584   4.001  0.5581 -0.2723 -0.1248
  154OSM   H13F17221   6.221   3.681   3.950 -0.8266 -0.5783 -0.4584
  154OSM   H13G17222   6.336   3.551   3.981  1.2425  1.3160  0.6424
  154OSM   C14F17223   6.203   3.606   4.146  0.3938 -0.5158 -0.0013
  154OSM   H14F17224   6.163   3.512   4.188 -0.7362 -0.1046 -0.1330
  154OSM   H14G17225   6.116   3.674   4.153 -0.5503 -1.8080  1.5275
  154OSM   C15F17226   6.320   3.660   4.232  0.4467  0.1774  0.1500
  154OSM   H15F17227   6.339   3.765   4.203 -1.9968  0.6012 -0.1683
  154OSM   H15G17228   6.403   3.589   4.216  1.8849  1.2353  2.4617
  154OSM   C16F17229   6.288   3.659   4.385  0.7042 -0.7714  0.7074
  154OSM   H16F17230   6.385   3.667   4.439  2.0957  0.3261 -1.8183
  154OSM   H16G17231   6.243   3.560   4.408 -0.6793 -0.9092 -2.1951
  154OSM   C17F17232   6.194   3.769   4.431 -0.2419 -0.0165 -0.2358
  154OSM   H17F17233   6.091   3.733   4.451  0.6348 -2.5798  0.1132
  154OSM   H17G17234   6.181   3.835   4.343  1.1163  0.0230 -0.4356
  154OSM   C18F17235   6.241   3.838   4.559  0.4851  0.0493 -0.3594
  154OSM   H18F17236   6.342   3.883   4.548 -0.9674  3.6245 -0.6028
  154OSM   H18G17237   6.240   3.774   4.649  0.5819  0.4115 -0.0987
  154OSM   H18H17238   6.175   3.926   4.575  0.4018 -0.3724  1.9121
  155OSM      N17239   1.661   2.302   2.328  0.3029 -0.0419 -0.5735
  155OSM    C1517240   1.734   2.354   2.451 -0.3298  0.1593  0.4758
  155OSM   H15A17241   1.837   2.322   2.450 -0.3581  0.0622  0.6490
  155OSM   H15B17242   1.695   2.314   2.543  1.1446  1.6597  1.8164
  155OSM   H15C17243   1.734   2.462   2.462 -1.6468  0.1254  0.9723
  155OSM    C1417244   1.529   2.364   2.316  0.3234  0.2303 -0.0647
  155OSM   H14A17245   1.469   2.339   2.402 -0.4647  1.5396 -0.2052
  155OSM   H14B17246   1.471   2.319   2.237  0.1613  0.8955 -0.3316
  155OSM   H14C17247   1.535   2.471   2.304  1.9200  0.1587 -0.1267
  155OSM    C1317248   1.744   2.359   2.215 -0.1401 -0.2816 -0.4481
  155OSM   H13A17249   1.693   2.348   2.120  0.5016  1.1105 -0.9893
  155OSM   H13B17250   1.836   2.304   2.215  0.9202  1.3716  0.9684
  155OSM   H13C17251   1.757   2.465   2.233 -2.6352  0.0717 -0.3393
  155OSM    C1217252   1.667   2.148   2.333 -0.8220 -0.4759 -0.5388
  155OSM   H12A17253   1.609   2.096   2.408 -1.3918 -0.0700 -0.6915
  155OSM   H12B17254   1.768   2.119   2.360 -0.8641 -0.9478 -0.8866
  155OSM    C1117255   1.634   2.079   2.205 -0.6887  0.9940 -0.3031
  155OSM   H11A17256   1.645   1.969   2.219 -1.8234  1.0694  1.7535
  155OSM   H11B17257   1.707   2.108   2.128 -0.0800 -2.8243 -1.3727
  155OSM      P17258   1.376   2.018   2.215 -0.5750 -0.1893 -0.0169
  155OSM    O1317259   1.258   2.114   2.212  0.4298  0.2630  0.5354
  155OSM    O1417260   1.378   1.886   2.145 -0.3108 -0.0304 -0.2568
  155OSM    O1117261   1.403   1.991   2.367 -0.5185 -0.3909  0.0380
  155OSM    O1217262   1.498   2.102   2.168 -0.1184 -0.1012  0.3675
  155OSM    C1S17263   1.319   2.034   2.470 -0.4556 -0.4922  0.3262
  155OSM    H1S17264   1.215   1.994   2.459  0.1502 -1.6923 -1.6847
  155OSM    H1T17265   1.316   2.145   2.462  2.0909 -0.4158 -0.1711
  155OSM     NF17266   1.290   2.078   2.704  0.6734 -0.5709  0.7563
  155OSM    HNF17267   1.331   2.168   2.713  0.6248 -0.4676 -0.0462
  155OSM    C2S17268   1.357   1.990   2.618 -0.3147  0.6328  1.1578
  155OSM    H2S17269   1.350   1.881   2.635  1.3514  0.7253  2.8042
  155OSM    C3S17270   1.509   2.010   2.633  0.5879 -0.0425 -0.2532
  155OSM    H3S17271   1.534   2.117   2.619  1.3513 -0.0319  1.0005
  155OSM     O317272   1.590   1.939   2.540 -0.1658  0.1284  0.1889
  155OSM    HO317273   1.525   1.930   2.471  0.1414  2.0722 -0.4160
  155OSM    C4S17274   1.560   1.986   2.774 -0.2117  0.2458  0.3616
  155OSM    H4S17275   1.586   2.077   2.829  2.6060 -0.9178  1.1510
  155OSM    C5S17276   1.595   1.865   2.819  0.4738  0.5158  0.3430
  155OSM    H5S17277   1.574   1.779   2.754  1.4864  1.2019 -0.9576
  155OSM    C6S17278   1.665   1.831   2.950 -0.0288  0.2533 -0.1502
  155OSM    H6S17279   1.701   1.928   2.989  0.5099 -0.2346  0.5734
  155OSM    H6T17280   1.754   1.767   2.937 -0.7945 -0.5635 -1.6289
  155OSM    C7S17281   1.562   1.770   3.047  0.5451  0.7723 -0.6562
  155OSM    H7S17282   1.515   1.676   3.012 -0.0965  1.0768 -0.6288
  155OSM    H7T17283   1.472   1.834   3.053  0.4424  0.4811  2.4219
  155OSM    C8S17284   1.614   1.772   3.188  0.5092  0.2710 -1.2819
  155OSM    H8S17285   1.666   1.866   3.216 -2.8054  1.7457  0.4046
  155OSM    H8T17286   1.697   1.699   3.204  0.1168  0.3477  1.6031
  155OSM    C9S17287   1.510   1.737   3.295 -0.3787  0.0757  0.3103
  155OSM    H9S17288   1.459   1.640   3.278  2.5931 -1.2121 -2.1930
  155OSM    H9T17289   1.430   1.809   3.266 -0.0580  0.1520 -0.3816
  155OSM   C10S17290   1.577   1.768   3.434 -0.2590 -0.2783 -0.2776
  155OSM   H10S17291   1.605   1.876   3.436 -0.8649 -0.1132 -0.4795
  155OSM   H10T17292   1.668   1.708   3.454 -0.2186  0.2321  1.1816
  155OSM   C11S17293   1.484   1.747   3.553 -0.2548  0.3895 -0.1158
  155OSM   H11S17294   1.448   1.642   3.563 -4.2418  1.3488 -2.3805
  155OSM   H11T17295   1.395   1.813   3.540 -1.8035 -1.7264 -0.7548
  155OSM   C12S17296   1.561   1.776   3.685 -0.4278 -0.1153  1.2549
  155OSM   H12S17297   1.587   1.884   3.688 -1.2751  0.1387  0.2866
  155OSM   H12T17298   1.655   1.719   3.677 -0.0033  0.8495 -2.0484
  155OSM   C13S17299   1.480   1.725   3.812  0.2859 -0.0752 -0.2961
  155OSM   H13S17300   1.515   1.620   3.828  0.3307 -0.1281 -0.7453
  155OSM   H13T17301   1.371   1.725   3.790 -0.0024 -0.9026  0.9707
  155OSM   C14S17302   1.506   1.801   3.944 -0.2748  1.2765  0.3983
  155OSM   H14S17303   1.464   1.900   3.918 -0.8162  0.5675 -1.6632
  155OSM   H14T17304   1.614   1.821   3.961 -0.9556  2.1839  4.6367
  155OSM   C15S17305   1.450   1.728   4.059  0.3494  0.9049  0.1373
  155OSM   H15S17306   1.482   1.623   4.076  0.1839  1.0901  1.7705
  155OSM   H15T17307   1.342   1.709   4.048 -0.0569  1.4061  2.6137
  155OSM   C16S17308   1.468   1.800   4.189 -0.1530 -0.3933 -0.4910
  155OSM   H16S17309   1.373   1.802   4.246 -0.9266 -0.5133 -1.7341
  155OSM   H16T17310   1.481   1.910   4.180  1.2017 -0.5254 -0.3754
  155OSM   C17S17311   1.586   1.749   4.271 -0.3962  0.1278  0.6286
  155OSM   H17S17312   1.674   1.769   4.206 -1.3096  2.1226 -0.0679
  155OSM   H17T17313   1.584   1.638   4.281 -2.1420  0.0674 -0.0456
  155OSM   C18S17314   1.594   1.821   4.401 -0.3062 -0.2665 -0.3663
  155OSM   H18S17315   1.577   1.930   4.389 -1.1367 -0.4832 -1.3362
  155OSM   H18T17316   1.687   1.803   4.458 -0.3080  0.9972  0.0582
  155OSM   H18U17317   1.506   1.786   4.460 -0.2096 -0.1176 -0.1363
  155OSM    C1F17318   1.176   2.040   2.766 -0.6798 -1.2022 -0.3008
  155OSM     OF17319   1.100   1.955   2.720  0.3600  0.0297  0.6462
  155OSM    C2F17320   1.152   2.125   2.886  0.2304  0.0660 -0.6118
  155OSM    H2F17321   1.084   2.209   2.859  0.8501  0.2768 -1.5710
  155OSM    H2G17322   1.253   2.162   2.914 -0.0203 -0.2218  0.7444
  155OSM    C3F17323   1.091   2.033   2.996 -0.6719  0.0734 -0.6475
  155OSM    H3F17324   1.169   1.959   3.022  0.3721  1.4998  0.4618
  155OSM    H3G17325   0.996   1.981   2.971 -0.0747 -1.3787 -0.0411
  155OSM    C4F17326   1.083   2.119   3.128  0.5976 -0.1819 -0.2588
  155OSM    H4F17327   0.983   2.168   3.126 -0.6660 -2.6023 -1.5944
  155OSM    H4G17328   1.166   2.192   3.125  0.2336  0.2572  0.3069
  155OSM    C5F17329   1.091   2.037   3.255 -0.4071 -0.4045  0.2902
  155OSM    H5F17330   1.194   1.996   3.265 -0.1890 -0.3769 -1.5490
  155OSM    H5G17331   1.034   1.944   3.232 -1.9123  0.9748 -1.9393
  155OSM    C6F17332   1.036   2.114   3.380 -0.2247  0.3685  0.2344
  155OSM    H6F17333   0.931   2.139   3.356 -0.6124  0.6872  2.1597
  155OSM    H6G17334   1.077   2.214   3.406  1.5908 -0.2684 -0.0019
  155OSM    C7F17335   1.013   2.020   3.502  0.0017 -0.1689  0.4716
  155OSM    H7F17336   0.977   1.928   3.452  0.0271  0.5243 -0.8526
  155OSM    H7G17337   0.931   2.061   3.565  0.2002  1.4161 -0.2582
  155OSM    C8F17338   1.131   2.003   3.603 -0.6523  0.1782  0.3821
  155OSM    H8F17339   1.195   1.924   3.557 -0.7706 -0.0211  0.5571
  155OSM    H8G17340   1.083   1.946   3.685 -1.3869 -0.4250 -0.4582
  155OSM    C9F17341   1.190   2.132   3.652 -0.1908 -0.2452 -0.4807
  155OSM    H9F17342   1.243   2.187   3.573  1.1736 -0.7975  0.0174
  155OSM   C10F17343   1.200   2.188   3.774  0.2105 -0.1101 -0.2489
  155OSM   H10F17344   1.256   2.283   3.775  0.7658 -0.3985  1.7915
  155OSM   C11F17345   1.138   2.122   3.899  0.6018  0.0070  0.0733
  155OSM   H11F17346   1.222   2.065   3.945  1.4521  0.1153 -1.2764
  155OSM   H11G17347   1.048   2.062   3.872  2.9248 -4.0156  0.4304
  155OSM   C12F17348   1.099   2.237   3.992 -0.3963  0.0702  0.3010
  155OSM   H12F17349   1.000   2.278   3.962  0.8050  2.4625 -0.6636
  155OSM   H12G17350   1.175   2.318   3.993  0.3026 -0.5574 -0.4293
  155OSM   C13F17351   1.079   2.184   4.142  0.3885  0.5941 -0.0578
  155OSM   H13F17352   0.990   2.118   4.149 -0.2814  1.5978  1.6903
  155OSM   H13G17353   1.052   2.270   4.207 -1.2831  0.8130 -0.9791
  155OSM   C14F17354   1.205   2.108   4.197  0.2633  0.4558  0.0832
  155OSM   H14F17355   1.295   2.172   4.182  1.5163 -1.1460  0.4516
  155OSM   H14G17356   1.220   2.010   4.147 -1.7184  0.9783 -1.6606
  155OSM   C15F17357   1.186   2.078   4.347  0.1537 -0.4156 -0.0938
  155OSM   H15F17358   1.134   1.980   4.349 -0.4775 -0.0946  2.1244
  155OSM   H15G17359   1.131   2.167   4.384  0.5277  0.1358 -0.8327
  155OSM   C16F17360   1.324   2.068   4.408 -0.2681 -0.0356  0.1731
  155OSM   H16F17361   1.377   2.165   4.400  2.3348 -1.4305 -0.8879
  155OSM   H16G17362   1.370   1.983   4.352  1.9530  0.7031  0.7789
  155OSM   C17F17363   1.316   2.022   4.554  0.5792 -0.0978  0.5495
  155OSM   H17F17364   1.285   2.115   4.606  1.4535  1.7958 -2.0977
  155OSM   H17G17365   1.419   1.999   4.589  0.1236  0.6813  2.5000
  155OSM   C18F17366   1.231   1.897   4.590  0.9445 -0.6692  0.4558
  155OSM   H18F17367   1.261   1.805   4.535 -0.5123 -1.2133  0.5470
  155OSM   H18G17368   1.125   1.923   4.572  1.4376  1.3574  0.2085
  155OSM   H18H17369   1.238   1.868   4.697 -1.0571 -0.3554  0.6935
  156OSM      N17370   4.506   6.634   2.442 -0.3332 -0.3405 -0.6341
  156OSM    C1517371   4.445   6.583   2.575  0.1492  0.4471  0.2713
  156OSM   H15A17372   4.353   6.531   2.555  1.2132 -0.8820 -1.4791
  156OSM   H15B17373   4.424   6.671   2.634  1.9717  1.9091 -1.1045
  156OSM   H15C17374   4.508   6.513   2.630  1.2789  0.3003 -1.1525
  156OSM    C1417375   4.518   6.510   2.366  0.0991 -0.1996 -0.1714
  156OSM   H14A17376   4.416   6.477   2.351 -1.0778  2.7175  0.6149
  156OSM   H14B17377   4.572   6.431   2.417  2.4340  0.0212 -2.1135
  156OSM   H14C17378   4.560   6.510   2.267 -0.5982 -2.4796 -0.5366
  156OSM    C1317379   4.413   6.727   2.364  0.0018 -0.6543 -0.0761
  156OSM   H13A17380   4.382   6.813   2.422  1.0927  0.2702 -0.8007
  156OSM   H13B17381   4.324   6.671   2.342 -0.5396 -0.0990  0.6448
  156OSM   H13C17382   4.462   6.758   2.273 -1.3515  1.1572 -0.2462
  156OSM    C1217383   4.648   6.694   2.466 -0.0485  0.2368 -0.6889
  156OSM   H12A17384   4.700   6.719   2.374  0.8918 -0.7558 -0.4507
  156OSM   H12B17385   4.711   6.616   2.505 -0.0845  0.4058 -0.2951
  156OSM    C1117386   4.664   6.817   2.557 -0.7578 -0.0642 -0.7203
  156OSM   H11A17387   4.771   6.826   2.585 -0.1864  0.7899 -2.9846
  156OSM   H11B17388   4.607   6.796   2.651  0.4369  1.6059  0.4342
  156OSM      P17389   4.668   7.001   2.376  0.2017  0.4285 -0.4864
  156OSM    O1317390   4.705   6.897   2.279 -0.2534  0.5463 -0.3566
  156OSM    O1417391   4.574   7.097   2.320 -0.5046 -0.1060  0.5568
  156OSM    O1117392   4.783   7.076   2.447 -0.2056  0.2137 -0.0512
  156OSM    O1217393   4.600   6.932   2.499 -0.1807 -0.3751 -0.2509
  156OSM    C1S17394   4.781   7.188   2.532  0.3263 -0.0541 -0.3111
  156OSM    H1S17395   4.679   7.231   2.539  1.0214  1.7272 -0.6034
  156OSM    H1T17396   4.841   7.275   2.500 -0.3255 -0.5774 -3.2723
  156OSM     NF17397   4.783   7.243   2.777 -0.0375  0.6863 -0.4053
  156OSM    HNF17398   4.844   7.310   2.818  1.3826 -0.7310 -0.1303
  156OSM    C2S17399   4.819   7.146   2.684 -0.0873  0.6989 -0.0429
  156OSM    H2S17400   4.758   7.053   2.693 -1.3925  1.4625 -0.5906
  156OSM    C3S17401   4.971   7.106   2.689  0.6948 -0.3521  0.1217
  156OSM    H3S17402   5.034   7.198   2.687  0.1081  0.1003  1.4419
  156OSM     O317403   5.023   7.027   2.581 -0.2388 -0.0665  0.0608
  156OSM    HO317404   4.947   7.026   2.522 -2.1679  3.3415  2.1175
  156OSM    C4S17405   4.997   7.047   2.816 -0.6580  0.3297  0.0616
  156OSM    H4S17406   5.032   7.108   2.900  2.1838 -0.0076 -0.7417
  156OSM    C5S17407   4.991   6.914   2.843  0.1608 -0.0840  0.7410
  156OSM    H5S17408   4.963   6.847   2.760  0.4860 -3.2645  3.0067
  156OSM    C6S17409   5.021   6.845   2.972  0.1898 -0.5418 -0.6677
  156OSM    H6S17410   5.093   6.761   2.964  1.6334  0.3230  2.1743
  156OSM    H6T17411   4.931   6.805   3.022  0.9052 -1.0074  0.2633
  156OSM    C7S17412   5.083   6.933   3.083  0.4394 -0.3077  0.0238
  156OSM    H7S17413   4.999   7.001   3.112  0.6113 -0.4467  0.8582
  156OSM    H7T17414   5.164   7.003   3.053 -0.8559  0.9062 -0.7887
  156OSM    C8S17415   5.121   6.855   3.207  0.6840  0.5864 -0.2871
  156OSM    H8S17416   5.211   6.791   3.201  0.7933  0.4478  2.0895
  156OSM    H8T17417   5.033   6.791   3.227  1.0008  0.2725  0.1073
  156OSM    C9S17418   5.155   6.954   3.327  0.5809  0.0724 -0.5714
  156OSM    H9S17419   5.105   7.052   3.314  1.8921  0.8192 -0.1579
  156OSM    H9T17420   5.262   6.984   3.321  0.3314  1.2214  0.3454
  156OSM   C10S17421   5.131   6.892   3.461  0.3899  0.3177 -0.0807
  156OSM   H10S17422   5.179   6.792   3.467 -0.6398 -0.2208 -0.5633
  156OSM   H10T17423   5.021   6.882   3.472  0.5519  0.9579  3.7089
  156OSM   C11S17424   5.198   6.965   3.567  1.0691  0.4409  0.3090
  156OSM   H11S17425   5.152   7.066   3.560 -2.4007 -0.9144  1.5372
  156OSM   H11T17426   5.308   6.954   3.559  0.8129 -3.6142  0.1565
  156OSM   C12S17427   5.166   6.919   3.711 -0.6073  0.3953  0.0030
  156OSM   H12S17428   5.198   6.814   3.723 -1.3781 -0.0946 -1.9240
  156OSM   H12T17429   5.056   6.926   3.724 -0.7036 -0.3482 -0.3576
  156OSM   C13S17430   5.230   7.019   3.814  0.2306  0.1847  0.1151
  156OSM   H13S17431   5.182   7.117   3.795 -1.8786 -1.0394 -1.1450
  156OSM   H13T17432   5.341   7.025   3.804  0.0021  0.8071 -2.9998
  156OSM   C14S17433   5.192   6.971   3.955 -0.0265 -0.6882  0.4943
  156OSM   H14S17434   5.263   6.899   4.001  0.6490  0.3921  1.2010
  156OSM   H14T17435   5.096   6.917   3.940  1.1815 -2.6244 -0.8017
  156OSM   C15S17436   5.161   7.083   4.065 -0.2406 -0.6157  0.5986
  156OSM   H15S17437   5.100   7.162   4.017  1.8738  0.8203  0.0910
  156OSM   H15T17438   5.254   7.137   4.095 -1.4399  1.9561  0.0011
  156OSM   C16S17439   5.090   7.024   4.188 -0.1628 -0.2725  0.2125
  156OSM   H16S17440   4.996   6.969   4.171 -0.2926  0.0050  0.0292
  156OSM   H16T17441   5.070   7.112   4.252  0.6249 -1.2543  1.8920
  156OSM   C17S17442   5.170   6.936   4.279 -0.2444  0.7705 -0.8357
  156OSM   H17S17443   5.263   6.986   4.314 -0.0864 -1.1963  1.8166
  156OSM   H17T17444   5.182   6.843   4.220 -3.0117  0.1679 -0.5849
  156OSM   C18S17445   5.094   6.901   4.407 -0.2557 -0.8214  0.3269
  156OSM   H18S17446   5.077   6.996   4.462 -0.7513 -0.5174 -0.3352
  156OSM   H18T17447   5.159   6.833   4.467  1.3944  1.2893  1.0399
  156OSM   H18U17448   4.996   6.852   4.386 -0.0667 -1.1973  0.3084
  156OSM    C1F17449   4.653   7.262   2.808 -0.1748  0.1605 -0.2201
  156OSM     OF17450   4.557   7.188   2.767  0.1733  0.7913  0.1043
  156OSM    C2F17451   4.621   7.380   2.899  0.7794 -0.2533  0.4314
  156OSM    H2F17452   4.534   7.429   2.850  0.2483  1.4017  2.8402
  156OSM    H2G17453   4.714   7.441   2.902  0.6963  0.0203 -1.2289
  156OSM    C3F17454   4.580   7.329   3.036  0.6526  0.5488 -0.4458
  156OSM    H3F17455   4.659   7.271   3.088  0.8473 -0.1985 -1.5356
  156OSM    H3G17456   4.500   7.253   3.020  0.6555  0.7949 -1.8058
  156OSM    C4F17457   4.533   7.438   3.126  0.1180 -0.0242 -0.7972
  156OSM    H4F17458   4.471   7.512   3.072  0.4489  1.9502  1.3887
  156OSM    H4G17459   4.620   7.490   3.172  1.4960 -3.3808  0.7426
  156OSM    C5F17460   4.456   7.377   3.237  0.2060  0.5311 -0.0726
  156OSM    H5F17461   4.492   7.280   3.278  1.7762  1.5126  0.9993
  156OSM    H5G17462   4.361   7.359   3.184  0.4514  1.5321 -0.8916
  156OSM    C6F17463   4.414   7.472   3.348 -0.3243  0.0259  1.0431
  156OSM    H6F17464   4.324   7.437   3.403 -1.6695  2.9172  0.8756
  156OSM    H6G17465   4.383   7.573   3.315  1.7344 -0.1398 -1.8056
  156OSM    C7F17466   4.521   7.485   3.458  0.3643  0.4302  0.5824
  156OSM    H7F17467   4.608   7.538   3.413 -0.3963  0.7842 -0.5166
  156OSM    H7G17468   4.540   7.383   3.496  0.6697  1.2191  2.6561
  156OSM    C8F17469   4.495   7.583   3.573  0.2172 -0.1494 -0.1160
  156OSM    H8F17470   4.496   7.687   3.532  1.9071 -0.3468 -0.6661
  156OSM    H8G17471   4.588   7.588   3.634 -0.5692 -0.1152  1.1132
  156OSM    C9F17472   4.383   7.543   3.663  0.2341  0.1020 -0.0124
  156OSM    H9F17473   4.303   7.489   3.609  1.2894 -0.7514 -0.7648
  156OSM   C10F17474   4.380   7.535   3.792  0.3385 -0.2272 -1.1187
  156OSM   H10F17475   4.287   7.494   3.834  1.9219 -1.4068  1.4870
  156OSM   C11F17476   4.490   7.569   3.887  0.6846  0.0459 -0.0169
  156OSM   H11F17477   4.445   7.604   3.983 -1.5936 -1.4004 -0.5066
  156OSM   H11G17478   4.553   7.648   3.840 -0.1370  0.5872 -0.2224
  156OSM   C12F17479   4.575   7.447   3.911 -0.1838  0.2019 -0.3495
  156OSM   H12F17480   4.652   7.481   3.983  1.1371 -0.2576 -1.5013
  156OSM   H12G17481   4.627   7.417   3.817  0.8752 -0.2285  0.3520
  156OSM   C13F17482   4.500   7.328   3.973  0.0476  0.0137  0.2588
  156OSM   H13F17483   4.447   7.280   3.887  0.0089 -0.7509  0.7049
  156OSM   H13G17484   4.422   7.363   4.044  2.1659  2.1935  1.6536
  156OSM   C14F17485   4.588   7.224   4.043  0.2803  0.0360 -0.2678
  156OSM   H14F17486   4.524   7.136   4.067 -1.3542  0.9295 -1.1967
  156OSM   H14G17487   4.627   7.263   4.140  0.5950  2.8213 -1.4291
  156OSM   C15F17488   4.725   7.188   3.983  0.3775 -0.3954 -0.0743
  156OSM   H15F17489   4.790   7.119   4.041  0.3529 -0.8249 -0.5493
  156OSM   H15G17490   4.786   7.282   3.978 -0.1035 -0.1419 -1.7878
  156OSM   C16F17491   4.710   7.134   3.842  0.2750 -0.2511  0.5448
  156OSM   H16F17492   4.674   7.215   3.775  1.9641 -0.2143 -0.3808
  156OSM   H16G17493   4.655   7.038   3.834  3.1690 -2.2856  2.6385
  156OSM   C17F17494   4.845   7.102   3.783 -0.3989 -0.1133  0.1401
  156OSM   H17F17495   4.880   7.002   3.817 -3.3838 -1.2023  0.3375
  156OSM   H17G17496   4.914   7.174   3.832 -1.2014  1.6619 -1.2396
  156OSM   C18F17497   4.854   7.117   3.627  0.4177 -0.1723 -0.1733
  156OSM   H18F17498   4.780   7.044   3.589 -2.3433  2.3389 -0.0284
  156OSM   H18G17499   4.948   7.091   3.575 -0.0152 -0.9921 -0.5671
  156OSM   H18H17500   4.827   7.221   3.598  1.8325  0.3624  0.3502
  157OSM      N17501   4.673   1.207   2.531 -0.4132  0.2661  0.1468
  157OSM    C1517502   4.593   1.266   2.414 -0.2713  0.5510 -0.1734
  157OSM   H15A17503   4.592   1.190   2.337 -0.9790 -1.4622  1.6964
  157OSM   H15B17504   4.634   1.355   2.369 -0.4517  0.9095  0.3703
  157OSM   H15C17505   4.493   1.286   2.450 -0.4569 -1.5062  0.6298
  157OSM    C1417506   4.609   1.085   2.593  0.7286 -1.0757  0.0538
  157OSM   H14A17507   4.511   1.094   2.638  0.3263 -0.5609 -0.8995
  157OSM   H14B17508   4.678   1.054   2.669  0.4188 -1.8347  0.0316
  157OSM   H14C17509   4.595   1.001   2.527 -0.6522 -1.8353  1.2484
  157OSM    C1317510   4.808   1.161   2.473  0.0520 -0.0988  0.5996
  157OSM   H13A17511   4.857   1.252   2.441  1.4326 -1.0656 -0.0996
  157OSM   H13B17512   4.801   1.095   2.388  1.9379 -0.2495  0.5200
  157OSM   H13C17513   4.884   1.120   2.539  0.6310  0.9969  0.6348
  157OSM    C1217514   4.693   1.326   2.632  0.0894  0.3667  0.1081
  157OSM   H12A17515   4.752   1.400   2.581 -0.4415  0.7558  0.0505
  157OSM   H12B17516   4.745   1.283   2.716 -1.4757  0.7267  1.3097
  157OSM    C1117517   4.573   1.404   2.691 -0.3795  0.3632  0.3558
  157OSM   H11A17518   4.617   1.437   2.788 -0.2153 -2.4501  1.3315
  157OSM   H11B17519   4.489   1.341   2.727 -0.6289  1.2463  1.3787
  157OSM      P17520   4.593   1.646   2.601  0.1242  0.2397 -0.0385
  157OSM    O1317521   4.739   1.626   2.596  0.2213  0.1588 -0.4402
  157OSM    O1417522   4.534   1.728   2.490 -0.0898 -0.3700  0.1374
  157OSM    O1117523   4.563   1.730   2.730  0.1233 -0.4968  0.8083
  157OSM    O1217524   4.514   1.513   2.613 -0.0653 -0.1845  0.2420
  157OSM    C1S17525   4.443   1.728   2.806 -0.5244 -0.5795  0.0984
  157OSM    H1S17526   4.380   1.636   2.809 -0.3653 -0.6700  0.9716
  157OSM    H1T17527   4.374   1.801   2.759  1.4336  1.4819  0.2662
  157OSM     NF17528   4.353   1.749   3.021 -0.1272 -0.2144 -0.3554
  157OSM    HNF17529   4.294   1.823   3.052  1.1666  0.1971  1.2984
  157OSM    C2S17530   4.476   1.776   2.952  0.3229  0.9234  1.0162
  157OSM    H2S17531   4.556   1.711   2.995  0.6593 -0.0249 -0.8874
  157OSM    C3S17532   4.539   1.918   2.958  0.2913 -0.1490  0.8593
  157OSM    H3S17533   4.462   1.997   2.948 -0.3429 -0.7303  1.0943
  157OSM     O317534   4.637   1.944   2.851 -0.5315 -0.0669 -0.5499
  157OSM    HO317535   4.625   1.868   2.794 -2.8701  1.3044 -2.0344
  157OSM    C4S17536   4.600   1.943   3.090  0.0964 -0.1831  0.5144
  157OSM    H4S17537   4.684   1.878   3.120  1.1185  1.2265  0.8265
  157OSM    C5S17538   4.569   2.034   3.183  0.2051 -0.4203  0.5127
  157OSM    H5S17539   4.497   2.114   3.160 -0.0851 -0.9670 -0.5495
  157OSM    C6S17540   4.631   2.040   3.318  0.2023  0.3585  0.3812
  157OSM    H6S17541   4.645   2.148   3.340  0.8317  0.3975 -0.1710
  157OSM    H6T17542   4.729   1.989   3.326  0.5604  0.9869  0.1213
  157OSM    C7S17543   4.547   1.962   3.417 -0.1628  0.0200  0.9785
  157OSM    H7S17544   4.557   1.855   3.390  2.4297  0.3315  0.4142
  157OSM    H7T17545   4.446   2.008   3.417 -0.4609 -0.6278  0.9532
  157OSM    C8S17546   4.602   1.971   3.554 -0.0031  0.4546 -0.5585
  157OSM    H8S17547   4.705   1.931   3.559  0.4504  1.5961 -0.3702
  157OSM    H8T17548   4.537   1.913   3.623  0.7809  0.6907  0.4103
  157OSM    C9S17549   4.614   2.113   3.608  0.1523 -0.7927  0.7684
  157OSM    H9S17550   4.521   2.171   3.586  0.2969  0.1313  2.4520
  157OSM    H9T17551   4.707   2.154   3.562 -1.6329  0.3961 -2.0637
  157OSM   C10S17552   4.615   2.129   3.761  1.0256  0.5548  0.7231
  157OSM   H10S17553   4.520   2.082   3.794 -0.9616  2.6174 -1.7207
  157OSM   H10T17554   4.608   2.235   3.792  0.8144  0.1256  2.2312
  157OSM   C11S17555   4.725   2.057   3.836  0.9736  0.5143  0.1184
  157OSM   H11S17556   4.822   2.071   3.783  0.6930  0.9220 -0.2980
  157OSM   H11T17557   4.718   1.947   3.833 -0.3268  0.6054 -2.0161
  157OSM   C12S17558   4.726   2.098   3.978  0.3132  0.1863 -0.0340
  157OSM   H12S17559   4.794   2.027   4.029 -0.1701 -0.0902  0.2368
  157OSM   H12T17560   4.621   2.078   4.009 -0.0226  0.1948 -1.1046
  157OSM   C13S17561   4.767   2.244   4.002 -0.3498 -0.3874 -0.0920
  157OSM   H13S17562   4.691   2.313   3.959  0.2260 -0.8751 -1.9679
  157OSM   H13T17563   4.863   2.272   3.955 -2.0047  1.6822 -2.5301
  157OSM   C14S17564   4.773   2.268   4.152 -0.4614 -0.2127 -0.7334
  157OSM   H14S17565   4.876   2.236   4.178  1.2613  4.3881 -0.9962
  157OSM   H14T17566   4.702   2.215   4.220  0.2138 -0.4189 -0.1762
  157OSM   C15S17567   4.784   2.425   4.189 -0.1765 -0.4024  0.3967
  157OSM   H15S17568   4.686   2.475   4.170  0.2463 -0.1859 -1.4284
  157OSM   H15T17569   4.843   2.467   4.105  1.3827 -1.7322  0.7709
  157OSM   C16S17570   4.844   2.449   4.323  0.6346 -0.0278  0.5424
  157OSM   H16S17571   4.952   2.425   4.323  0.8959  1.0887  0.5005
  157OSM   H16T17572   4.789   2.376   4.388 -0.1687  0.5271  0.5084
  157OSM   C17S17573   4.842   2.596   4.360 -0.2494 -0.5513  0.1931
  157OSM   H17S17574   4.881   2.609   4.463  0.9051  1.8359 -0.4735
  157OSM   H17T17575   4.738   2.632   4.348  0.5050  1.5442 -0.4672
  157OSM   C18S17576   4.935   2.688   4.274  0.0743  0.0647  0.1389
  157OSM   H18S17577   4.931   2.663   4.166  0.8254  1.5958 -0.2589
  157OSM   H18T17578   5.037   2.663   4.308 -0.2448  0.4090  1.3968
  157OSM   H18U17579   4.906   2.794   4.286  1.5964  0.5320 -0.1356
  157OSM    C1F17580   4.320   1.624   3.055  0.3646 -0.0148  0.4542
  157OSM     OF17581   4.391   1.529   3.015 -0.1908  0.3301  0.2559
  157OSM    C2F17582   4.198   1.600   3.130  0.3210  0.8187 -1.0189
  157OSM    H2F17583   4.194   1.491   3.153 -2.8049  1.1546  0.5577
  157OSM    H2G17584   4.110   1.628   3.068  0.5514  0.7918 -1.3626
  157OSM    C3F17585   4.196   1.665   3.267 -0.6800 -0.3466 -0.2105
  157OSM    H3F17586   4.109   1.626   3.325 -0.8008 -2.3857 -1.6566
  157OSM    H3G17587   4.173   1.774   3.262 -2.1778 -0.5938  0.6672
  157OSM    C4F17588   4.324   1.639   3.351  0.3114 -0.1599 -0.4989
  157OSM    H4F17589   4.340   1.709   3.435  0.8863 -1.8217  0.8162
  157OSM    H4G17590   4.418   1.664   3.299 -0.8633 -0.4118 -2.9012
  157OSM    C5F17591   4.347   1.493   3.406 -0.3617 -0.3573  0.8136
  157OSM    H5F17592   4.400   1.443   3.322 -0.3163 -0.4150  0.8768
  157OSM    H5G17593   4.247   1.445   3.417 -0.6935 -0.2516 -1.3356
  157OSM    C6F17594   4.430   1.490   3.531 -0.4801  0.4177  0.2222
  157OSM    H6F17595   4.365   1.526   3.613  0.0173  1.5069  0.1483
  157OSM    H6G17596   4.509   1.567   3.523 -0.7576  0.5695 -1.2823
  157OSM    C7F17597   4.484   1.348   3.559 -0.3749 -0.5986 -0.0000
  157OSM    H7F17598   4.557   1.323   3.479  0.4506 -0.2416  0.6281
  157OSM    H7G17599   4.401   1.274   3.547  0.5832 -1.4945 -1.3442
  157OSM    C8F17600   4.556   1.337   3.695  0.0119 -0.1712  0.3302
  157OSM    H8F17601   4.492   1.378   3.776 -0.6480  0.9786 -0.7299
  157OSM    H8G17602   4.647   1.401   3.694  1.7330 -2.3961 -2.9621
  157OSM    C9F17603   4.586   1.193   3.718  0.0259 -0.1252  0.3740
  157OSM    H9F17604   4.503   1.125   3.698  1.4596 -2.4273  1.7582
  157OSM   C10F17605   4.708   1.132   3.723 -0.0343  0.6339 -0.6988
  157OSM   H10F17606   4.714   1.025   3.749 -0.1094  0.8428  0.2269
  157OSM   C11F17607   4.838   1.204   3.729  0.3270  0.0015  0.4664
  157OSM   H11F17608   4.923   1.137   3.757  1.5856  1.3398 -0.0401
  157OSM   H11G17609   4.843   1.279   3.811 -1.1471 -0.2534  0.8188
  157OSM   C12F17610   4.879   1.261   3.586  0.4228  0.1083  0.1257
  157OSM   H12F17611   4.977   1.312   3.600  1.7671 -2.0790 -0.8333
  157OSM   H12G17612   4.802   1.328   3.544  0.8810 -0.0688 -1.0331
  157OSM   C13F17613   4.909   1.155   3.477  0.1143  0.2049 -0.4666
  157OSM   H13F17614   4.842   1.067   3.468 -1.6469  1.3552  0.9217
  157OSM   H13G17615   5.012   1.115   3.490  1.1668  2.6846 -0.5622
  157OSM   C14F17616   4.909   1.222   3.334 -1.0282 -0.2328 -0.4966
  157OSM   H14F17617   5.005   1.279   3.328 -1.2520  0.3027  0.7262
  157OSM   H14G17618   4.829   1.296   3.316 -0.5998  0.4691  0.4329
  157OSM   C15F17619   4.911   1.122   3.228  0.1163  0.3178 -0.2578
  157OSM   H15F17620   4.821   1.057   3.229  0.6178 -0.3891 -0.2106
  157OSM   H15G17621   4.994   1.057   3.265  1.0032  2.4177  1.6459
  157OSM   C16F17622   4.943   1.178   3.089  0.5823  0.4427  0.4781
  157OSM   H16F17623   5.025   1.252   3.094  0.0177  1.0584  0.8539
  157OSM   H16G17624   4.848   1.223   3.052 -0.6167  0.7340  3.5726
  157OSM   C17F17625   4.993   1.081   2.987 -1.2870  0.2360  0.1350
  157OSM   H17F17626   4.930   0.993   2.963 -2.7555  0.7679  1.7628
  157OSM   H17G17627   5.085   1.039   3.035 -1.8797 -0.9036  0.3040
  157OSM   C18F17628   5.033   1.149   2.854 -0.6258 -0.4996  1.0606
  157OSM   H18F17629   5.101   1.235   2.876  1.0238 -1.4464 -0.0874
  157OSM   H18G17630   4.942   1.190   2.806  0.7669  1.1205 -0.3612
  157OSM   H18H17631   5.088   1.075   2.791 -0.1339 -0.3691  1.3277
  158OSM      N17632   1.818   0.856   2.143  0.7507  0.0500 -0.0652
  158OSM    C1517633   1.716   0.786   2.227 -0.5075  0.2043 -0.3159
  158OSM   H15A17634   1.738   0.681   2.218 -0.6889  0.1563 -0.2128
  158OSM   H15B17635   1.611   0.789   2.199 -0.6895 -0.6854  0.2103
  158OSM   H15C17636   1.732   0.813   2.330  2.2175 -0.0446 -0.6143
  158OSM    C1417637   1.799   0.823   1.994 -0.3391  0.1539 -0.1798
  158OSM   H14A17638   1.888   0.850   1.940 -1.1558  1.1619 -1.0609
  158OSM   H14B17639   1.709   0.858   1.946 -2.3337 -2.6720  1.2077
  158OSM   H14C17640   1.781   0.717   1.988 -1.4233  0.2746  0.5264
  158OSM    C1317641   1.796   1.005   2.159 -0.1217  0.0996  0.1635
  158OSM   H13A17642   1.804   1.034   2.263 -1.4917  0.2218  0.2448
  158OSM   H13B17643   1.698   1.042   2.132  0.4210  1.5218  0.0557
  158OSM   H13C17644   1.869   1.068   2.111  0.9785 -0.0533  1.5747
  158OSM    C1217645   1.954   0.821   2.186  0.0924  0.4670  0.0211
  158OSM   H12A17646   2.024   0.889   2.139  0.7147 -0.6875 -0.7802
  158OSM   H12B17647   1.987   0.727   2.143 -0.3207  0.4510 -0.2654
  158OSM    C1117648   2.001   0.818   2.340 -0.0128 -0.4776  0.8113
  158OSM   H11A17649   1.959   0.903   2.398 -3.6987 -3.2268  2.5806
  158OSM   H11B17650   2.112   0.818   2.354  0.0522  0.6592  0.3590
  158OSM      P17651   2.011   0.556   2.379  0.2643 -0.3204  0.1440
  158OSM    O1317652   1.901   0.466   2.380 -0.2126 -0.5497  0.2058
  158OSM    O1417653   2.103   0.557   2.261  0.6978  0.3287  0.0599
  158OSM    O1117654   2.102   0.526   2.508  0.3485 -0.0592 -0.2962
  158OSM    O1217655   1.952   0.702   2.399  0.7242  0.5228  0.3199
  158OSM    C1S17656   2.102   0.599   2.634  0.0003 -0.5299 -0.0990
  158OSM    H1S17657   2.075   0.705   2.614  0.7500 -0.2826  0.1613
  158OSM    H1T17658   2.204   0.613   2.677  0.3785  1.2265 -1.4578
  158OSM     NF17659   1.999   0.643   2.853 -0.6584 -0.0620 -0.1250
  158OSM    HNF17660   2.052   0.607   2.929 -3.2269 -1.6461  1.0739
  158OSM    C2S17661   1.995   0.552   2.736  0.7734  0.1051 -0.5497
  158OSM    H2S17662   1.900   0.561   2.679  1.2673 -1.0919 -1.6074
  158OSM    C3S17663   2.018   0.403   2.773 -0.4690 -0.9684 -0.2504
  158OSM    H3S17664   2.115   0.396   2.826  1.0941 -2.2294 -3.0212
  158OSM     O317665   2.021   0.315   2.659 -0.0047 -0.5325  0.0925
  158OSM    HO317666   2.022   0.375   2.584  2.1500 -1.4285 -0.6859
  158OSM    C4S17667   1.911   0.362   2.861 -0.4275 -0.0307  0.2906
  158OSM    H4S17668   1.948   0.365   2.965  0.1833  0.2711  0.0726
  158OSM    C5S17669   1.803   0.289   2.836  1.0361 -0.5981 -0.3891
  158OSM    H5S17670   1.779   0.273   2.730  2.7769 -0.2031 -0.8714
  158OSM    C6S17671   1.704   0.224   2.935  0.0789  0.2718 -0.2724
  158OSM    H6S17672   1.704   0.115   2.914  1.1657 -0.4832  2.9851
  158OSM    H6T17673   1.602   0.262   2.913  0.6534  0.7001 -2.3894
  158OSM    C7S17674   1.735   0.234   3.080  0.6551 -0.3321 -0.4242
  158OSM    H7S17675   1.736   0.342   3.104  1.1392 -0.2166 -0.9340
  158OSM    H7T17676   1.830   0.188   3.116  1.7976  3.3488  1.7207
  158OSM    C8S17677   1.623   0.174   3.166 -0.5011  0.2962  0.4709
  158OSM    H8S17678   1.608   0.066   3.144 -0.1974  0.2975  0.2564
  158OSM    H8T17679   1.523   0.214   3.139  0.7095  1.9300 -1.9501
  158OSM    C9S17680   1.635   0.201   3.316 -0.1241  0.2343  0.3689
  158OSM    H9S17681   1.655   0.309   3.334  2.9431 -0.7413  4.0398
  158OSM    H9T17682   1.720   0.149   3.365 -0.0391 -0.9157 -0.9365
  158OSM   C10S17683   1.512   0.171   3.399  0.6521 -0.0800 -0.3976
  158OSM   H10S17684   1.489   0.063   3.384  2.2950 -0.3836 -0.9436
  158OSM   H10T17685   1.438   0.245   3.363 -0.1736 -0.9423 -0.5273
  158OSM   C11S17686   1.535   0.186   3.548  0.1956 -0.5715  1.2357
  158OSM   H11S17687   1.603   0.272   3.566  1.7474 -0.8685 -2.3486
  158OSM   H11T17688   1.589   0.099   3.591 -0.7360 -1.6296  0.3265
  158OSM   C12S17689   1.413   0.199   3.632 -0.1578  0.5306 -0.2781
  158OSM   H12S17690   1.341   0.129   3.585  0.3946  0.2333 -0.7047
  158OSM   H12T17691   1.361   0.297   3.628 -0.4571  0.3527 -0.8901
  158OSM   C13S17692   1.436   0.146   3.775 -0.4580 -0.2891 -0.9439
  158OSM   H13S17693   1.437   0.036   3.759 -1.1056 -0.4453 -0.0300
  158OSM   H13T17694   1.346   0.170   3.835 -1.8913  1.9049 -3.7380
  158OSM   C14S17695   1.556   0.193   3.852  0.6347 -0.0880  0.7922
  158OSM   H14S17696   1.647   0.171   3.794  0.0415 -0.1884 -0.1202
  158OSM   H14T17697   1.565   0.149   3.954  0.9499 -0.9904  0.3832
  158OSM   C15S17698   1.559   0.345   3.870  0.1966 -0.4577 -0.4840
  158OSM   H15S17699   1.560   0.398   3.773 -0.8757 -0.2138 -0.3702
  158OSM   H15T17700   1.648   0.377   3.928 -0.1587 -0.6894  0.1922
  158OSM   C16S17701   1.444   0.405   3.945 -0.4132  0.4195 -0.7390
  158OSM   H16S17702   1.343   0.387   3.901 -0.9406 -3.0413  1.4794
  158OSM   H16T17703   1.446   0.515   3.928 -0.4311  0.1692 -2.5753
  158OSM   C17S17704   1.421   0.363   4.094 -0.2374 -0.4954  1.1251
  158OSM   H17S17705   1.508   0.402   4.149 -0.2700 -1.3959  1.8386
  158OSM   H17T17706   1.418   0.252   4.097 -1.0570 -0.4992  0.6441
  158OSM   C18S17707   1.297   0.435   4.157 -0.0609  0.1441  0.6610
  158OSM   H18S17708   1.250   0.389   4.246 -1.0051 -0.0584  0.0700
  158OSM   H18T17709   1.218   0.440   4.079 -2.1010 -0.5650  2.5856
  158OSM   H18U17710   1.321   0.540   4.184 -2.1927  0.4825  1.4366
  158OSM    C1F17711   1.978   0.777   2.848 -0.3111 -0.6488 -0.1988
  158OSM     OF17712   1.920   0.826   2.750  0.2122 -0.6336 -0.7191
  158OSM    C2F17713   2.036   0.863   2.961 -0.0402 -0.1835 -0.3602
  158OSM    H2F17714   2.128   0.910   2.920 -0.6745  0.0846 -1.5033
  158OSM    H2G17715   2.070   0.795   3.042  3.3404  0.3768 -1.1704
  158OSM    C3F17716   1.940   0.966   3.007  0.4048 -0.5465 -0.1483
  158OSM    H3F17717   1.843   0.933   3.050  0.8861  0.0337  1.4834
  158OSM    H3G17718   1.925   1.042   2.928  1.9261  0.6316  0.6252
  158OSM    C4F17719   2.006   1.027   3.136  0.2171  0.3676  0.2799
  158OSM    H4F17720   1.945   1.114   3.168 -0.0078 -0.3263  1.8230
  158OSM    H4G17721   2.110   1.058   3.113  0.2232  1.1323  1.2744
  158OSM    C5F17722   2.008   0.928   3.256  0.1329 -1.1438  0.7301
  158OSM    H5F17723   2.095   0.859   3.256  0.7214 -0.4322  1.7216
  158OSM    H5G17724   1.915   0.869   3.250  0.1238 -1.0889  0.3570
  158OSM    C6F17725   2.023   1.018   3.381 -0.1390  0.5442  0.1380
  158OSM    H6F17726   1.959   1.109   3.379 -0.7568  0.1212  0.5711
  158OSM    H6G17727   2.131   1.046   3.393 -0.5295  1.7745  1.1087
  158OSM    C7F17728   1.979   0.954   3.514  0.1728 -0.6724 -0.0294
  158OSM    H7F17729   2.047   0.868   3.533 -0.3707 -0.9994  0.4576
  158OSM    H7G17730   1.879   0.908   3.504 -0.3837  0.5396 -0.1643
  158OSM    C8F17731   1.988   1.056   3.629 -0.3221 -0.0263 -0.7243
  158OSM    H8F17732   1.895   1.116   3.615 -0.4656  0.4507  1.7724
  158OSM    H8G17733   2.080   1.117   3.617  1.3759 -1.6457  2.7357
  158OSM    C9F17734   2.001   0.983   3.755  0.7367 -0.0294  0.3678
  158OSM    H9F17735   2.055   0.887   3.747 -0.0410 -0.4991  0.6913
  158OSM   C10F17736   1.935   1.006   3.869  0.2641  0.8741 -0.0875
  158OSM   H10F17737   1.943   0.943   3.959  0.9725  1.2318  0.1132
  158OSM   C11F17738   1.848   1.123   3.891  0.3381 -0.0281 -0.1824
  158OSM   H11F17739   1.749   1.079   3.916 -1.4354  0.8948 -4.7001
  158OSM   H11G17740   1.836   1.193   3.806 -1.1004 -0.8336 -0.6853
  158OSM   C12F17741   1.902   1.210   4.003  0.3453  0.7432 -0.6773
  158OSM   H12F17742   1.845   1.304   3.986 -1.8517 -0.2234  0.7917
  158OSM   H12G17743   2.009   1.237   3.990  0.8727 -0.3898  0.9451
  158OSM   C13F17744   1.885   1.158   4.151 -0.3101 -0.2307 -1.0434
  158OSM   H13F17745   1.955   1.078   4.182  1.2384  0.9064 -1.4713
  158OSM   H13G17746   1.780   1.129   4.173 -0.2066  0.1745  0.0416
  158OSM   C14F17747   1.915   1.266   4.262 -0.0686 -0.1497  0.4927
  158OSM   H14F17748   1.895   1.370   4.227  0.6888 -0.4891 -1.0386
  158OSM   H14G17749   2.018   1.260   4.302  0.7158 -1.7522 -1.6002
  158OSM   C15F17750   1.822   1.253   4.384 -0.4809 -0.0106  0.8543
  158OSM   H15F17751   1.838   1.156   4.436 -1.5190 -1.2278 -0.9851
  158OSM   H15G17752   1.720   1.238   4.346 -0.2193  1.9523 -0.8063
  158OSM   C16F17753   1.803   1.372   4.483  0.1932  0.2378  0.2573
  158OSM   H16F17754   1.796   1.472   4.436 -1.6635  0.4365  0.8820
  158OSM   H16G17755   1.894   1.382   4.547 -1.7105  1.2014  3.0435
  158OSM   C17F17756   1.691   1.363   4.584  0.2675 -0.7462  0.6835
  158OSM   H17F17757   1.690   1.452   4.649  0.7092 -0.1757 -0.0717
  158OSM   H17G17758   1.688   1.270   4.645 -1.3401 -0.3632  1.2302
  158OSM   C18F17759   1.551   1.376   4.514 -0.9876  0.4597  0.2062
  158OSM   H18F17760   1.477   1.334   4.586  0.3307 -3.4226 -0.4308
  158OSM   H18G17761   1.540   1.323   4.416  1.9027 -1.0993  0.6101
  158OSM   H18H17762   1.528   1.481   4.486 -0.6159  0.4301 -0.2250
  159OSM      N17763   3.646   1.597   2.658 -0.0509 -0.0264 -0.2365
  159OSM    C1517764   3.590   1.533   2.535 -0.2938 -0.6102  0.0004
  159OSM   H15A17765   3.484   1.544   2.516 -0.1574  1.8176  0.2923
  159OSM   H15B17766   3.615   1.428   2.536 -0.6828 -0.7251  2.0671
  159OSM   H15C17767   3.650   1.573   2.454  0.5253  1.9738  1.7431
  159OSM    C1417768   3.615   1.745   2.663 -0.1223  0.3699 -0.3552
  159OSM   H14A17769   3.515   1.776   2.689 -0.8115 -1.4845 -0.6233
  159OSM   H14B17770   3.645   1.801   2.576 -1.0814  1.6290  0.0985
  159OSM   H14C17771   3.679   1.786   2.739  1.4268  3.1349 -2.9345
  159OSM    C1317772   3.579   1.535   2.782  0.4956  0.5147 -0.1869
  159OSM   H13A17773   3.621   1.570   2.874 -2.8310  2.1209  0.8902
  159OSM   H13B17774   3.590   1.427   2.786  1.9550  0.6546 -0.1275
  159OSM   H13C17775   3.473   1.556   2.784  0.2568 -0.6075 -0.3899
  159OSM    C1217776   3.797   1.565   2.663  0.0492  0.1030 -0.1485
  159OSM   H12A17777   3.838   1.587   2.565 -0.1086 -0.4998 -0.3570
  159OSM   H12B17778   3.812   1.458   2.671  1.6487  0.2245 -1.0889
  159OSM    C1117779   3.886   1.624   2.767 -0.2486 -0.9228 -0.0334
  159OSM   H11A17780   3.986   1.577   2.782  0.4719  1.0540  1.9737
  159OSM   H11B17781   3.835   1.628   2.865  0.5777  0.8111  0.3645
  159OSM      P17782   3.995   1.819   2.635  0.2026  0.1863 -0.4834
  159OSM    O1317783   4.088   1.713   2.585  0.2444 -0.3709 -0.0714
  159OSM    O1417784   3.905   1.869   2.527 -0.1447 -0.1498  0.2300
  159OSM    O1117785   4.083   1.934   2.687  0.6028 -0.7081  0.0775
  159OSM    O1217786   3.910   1.765   2.750 -0.1012 -0.6178 -0.7680
  159OSM    C1S17787   4.054   2.016   2.803  0.1813 -0.1322 -0.2679
  159OSM    H1S17788   4.016   1.957   2.889  1.9375 -0.8376  0.0763
  159OSM    H1T17789   3.980   2.096   2.783  1.5772  0.7620 -2.1500
  159OSM     NF17790   4.163   2.145   2.977 -0.9696  0.4927  0.2144
  159OSM    HNF17791   4.145   2.242   2.973 -1.1204  0.5429  1.7515
  159OSM    C2S17792   4.184   2.082   2.850  0.1382 -0.3543  0.4544
  159OSM    H2S17793   4.253   1.997   2.869 -1.3262 -0.9727  3.5809
  159OSM    C3S17794   4.232   2.180   2.740  0.2169  0.1476  0.2651
  159OSM    H3S17795   4.157   2.262   2.734  1.2841  1.2174  1.0072
  159OSM     O317796   4.251   2.115   2.614 -0.3671  0.1938 -0.2704
  159OSM    HO317797   4.203   2.033   2.624  0.1737 -0.2979 -1.4846
  159OSM    C4S17798   4.360   2.252   2.775 -0.2190  0.6447 -1.1659
  159OSM    H4S17799   4.431   2.177   2.813 -1.1915 -1.9466 -4.0805
  159OSM    C5S17800   4.392   2.376   2.732  0.8130  0.0962 -0.1048
  159OSM    H5S17801   4.322   2.416   2.656  0.4618 -1.2819 -0.5329
  159OSM    C6S17802   4.519   2.447   2.759 -0.3430 -0.0506  0.1453
  159OSM    H6S17803   4.492   2.551   2.790 -0.9338  0.6022 -2.3269
  159OSM    H6T17804   4.575   2.455   2.664  0.1706  1.3983  0.5368
  159OSM    C7S17805   4.618   2.383   2.856  1.0822  0.2874 -0.0124
  159OSM    H7S17806   4.654   2.282   2.828  2.8568  0.2848  1.9883
  159OSM    H7T17807   4.565   2.379   2.954 -2.5233  1.3433 -1.7574
  159OSM    C8S17808   4.745   2.466   2.861 -0.3726 -0.2475 -0.2696
  159OSM    H8S17809   4.787   2.467   2.757  2.0207  1.9758  0.6078
  159OSM    H8T17810   4.824   2.410   2.916  0.3581 -0.0905 -1.1201
  159OSM    C9S17811   4.736   2.611   2.898 -0.5890 -0.3698  0.4234
  159OSM    H9S17812   4.677   2.664   2.820  1.2661  1.3252  0.0809
  159OSM    H9T17813   4.840   2.651   2.897  0.3838 -2.7601  0.0236
  159OSM   C10S17814   4.673   2.646   3.033 -0.4965 -0.2675  0.2878
  159OSM   H10S17815   4.571   2.604   3.039 -1.0670  0.8599 -0.9964
  159OSM   H10T17816   4.674   2.757   3.037 -2.6879 -0.0024 -2.9963
  159OSM   C11S17817   4.759   2.574   3.144  0.1874 -0.2340  0.1841
  159OSM   H11S17818   4.861   2.615   3.152  0.4878 -0.5198 -1.7885
  159OSM   H11T17819   4.775   2.467   3.118 -1.6652 -0.5135  0.0579
  159OSM   C12S17820   4.680   2.577   3.270  0.2143 -0.4766 -0.5426
  159OSM   H12S17821   4.587   2.521   3.246  1.0300 -2.2287  0.1700
  159OSM   H12T17822   4.665   2.686   3.287  3.1939 -0.0463 -0.1466
  159OSM   C13S17823   4.751   2.513   3.387  0.1217  0.6362 -0.4341
  159OSM   H13S17824   4.862   2.519   3.388  0.4077 -0.9287  4.5602
  159OSM   H13T17825   4.728   2.405   3.376  1.8226  0.3964 -2.1870
  159OSM   C14S17826   4.708   2.552   3.523 -0.6653 -0.7194 -0.0370
  159OSM   H14S17827   4.766   2.640   3.558 -1.7282 -0.8924  2.3309
  159OSM   H14T17828   4.762   2.484   3.593 -0.6494  0.9153  1.6052
  159OSM   C15S17829   4.561   2.571   3.558 -0.0304 -0.1861  0.0139
  159OSM   H15S17830   4.515   2.472   3.579 -0.5153 -0.7039 -3.0447
  159OSM   H15T17831   4.510   2.620   3.473  0.4625 -1.5579 -1.1169
  159OSM   C16S17832   4.546   2.655   3.684  0.0168 -0.8629 -0.2211
  159OSM   H16S17833   4.440   2.665   3.716  0.0359 -0.6668 -0.2183
  159OSM   H16T17834   4.579   2.759   3.662 -2.3942  0.4344  1.7764
  159OSM   C17S17835   4.633   2.617   3.805  0.5653 -0.1732  0.0505
  159OSM   H17S17836   4.737   2.651   3.785 -0.2400  1.7585 -1.1594
  159OSM   H17T17837   4.635   2.506   3.811  0.0562 -0.1351  1.0061
  159OSM   C18S17838   4.582   2.669   3.942  0.0398  0.2222 -0.1539
  159OSM   H18S17839   4.580   2.779   3.926  2.4617  0.1669 -1.2697
  159OSM   H18T17840   4.653   2.643   4.024 -0.1702 -0.6539 -0.2413
  159OSM   H18U17841   4.482   2.630   3.971  0.8935 -0.4218  2.1760
  159OSM    C1F17842   4.149   2.074   3.088  0.4911 -0.4586 -0.3026
  159OSM     OF17843   4.181   1.956   3.086  0.1285  0.3328  0.2685
  159OSM    C2F17844   4.096   2.147   3.213 -0.0244 -0.2258  0.7129
  159OSM    H2F17845   3.994   2.106   3.227 -0.0259 -0.2301  0.6885
  159OSM    H2G17846   4.092   2.257   3.202 -0.0031 -0.2933  0.0187
  159OSM    C3F17847   4.191   2.122   3.330  0.2643 -0.3387 -0.1075
  159OSM    H3F17848   4.287   2.177   3.317  0.3407 -0.0541  1.4384
  159OSM    H3G17849   4.207   2.013   3.341  2.1698 -0.0392  0.5577
  159OSM    C4F17850   4.141   2.166   3.466  0.0581 -0.2709  0.1384
  159OSM    H4F17851   4.078   2.087   3.512  0.7041 -0.8044  0.1181
  159OSM    H4G17852   4.074   2.253   3.450  0.0906 -0.1760  0.5170
  159OSM    C5F17853   4.241   2.201   3.574  0.2260 -0.3027  0.5429
  159OSM    H5F17854   4.318   2.275   3.543  2.6907 -1.6941  2.8710
  159OSM    H5G17855   4.303   2.112   3.598 -0.3013 -0.3754  1.7620
  159OSM    C6F17856   4.184   2.249   3.715 -0.6042  0.2385  1.0336
  159OSM    H6F17857   4.104   2.181   3.751 -1.0816 -1.2326 -2.3853
  159OSM    H6G17858   4.138   2.349   3.704 -2.2624 -0.7036 -1.5871
  159OSM    C7F17859   4.288   2.248   3.829 -0.2805  0.6292  0.1134
  159OSM    H7F17860   4.373   2.311   3.798 -0.5035  2.0317  2.1642
  159OSM    H7G17861   4.317   2.143   3.852  2.3265  0.9154 -1.5296
  159OSM    C8F17862   4.229   2.304   3.963  0.1443 -0.1341 -0.3865
  159OSM    H8F17863   4.146   2.245   4.007  0.1866 -0.6134 -0.9403
  159OSM    H8G17864   4.187   2.403   3.935  1.9486  0.3251 -1.6455
  159OSM    C9F17865   4.336   2.328   4.074 -0.4957 -0.6366  0.9228
  159OSM    H9F17866   4.412   2.406   4.060  0.6814 -1.5959  1.7345
  159OSM   C10F17867   4.345   2.258   4.186  0.3399 -0.2958 -0.0026
  159OSM   H10F17868   4.410   2.297   4.267 -0.4480  0.8127  0.1124
  159OSM   C11F17869   4.274   2.136   4.232 -0.2365  0.3704  0.4800
  159OSM   H11F17870   4.179   2.127   4.177 -0.4726  0.3204  0.8875
  159OSM   H11G17871   4.256   2.144   4.342  1.9276 -2.1410  1.1512
  159OSM   C12F17872   4.365   2.013   4.213 -0.7429 -0.1051  0.0608
  159OSM   H12F17873   4.417   2.015   4.115 -1.1678 -0.5060 -0.1752
  159OSM   H12G17874   4.321   1.912   4.203 -0.3984 -0.0534 -2.6097
  159OSM   C13F17875   4.480   2.004   4.321  0.4764 -0.0928  0.4073
  159OSM   H13F17876   4.437   1.975   4.420  1.7201 -0.2487  0.9168
  159OSM   H13G17877   4.524   2.106   4.330  2.1468 -0.8546  1.4444
  159OSM   C14F17878   4.595   1.916   4.286  0.1379  0.1967  0.0932
  159OSM   H14F17879   4.647   1.962   4.199 -2.2349  2.0458 -0.4345
  159OSM   H14G17880   4.555   1.816   4.257  1.2496 -0.1512 -0.3189
  159OSM   C15F17881   4.700   1.898   4.402  0.2881  0.0632  0.5801
  159OSM   H15F17882   4.725   2.003   4.428 -1.7825  0.3425  1.6583
  159OSM   H15G17883   4.784   1.847   4.348 -1.3179 -1.8669 -0.2398
  159OSM   C16F17884   4.648   1.827   4.518  0.8584 -0.2014 -0.9184
  159OSM   H16F17885   4.631   1.720   4.493  1.7736 -0.3773 -0.8070
  159OSM   H16G17886   4.548   1.864   4.551  0.9737 -0.3630 -0.3678
  159OSM   C17F17887   4.737   1.841   4.642 -0.3113 -0.6856 -0.1346
  159OSM   H17F17888   4.715   1.940   4.689 -1.3829 -1.1969  0.4702
  159OSM   H17G17889   4.837   1.847   4.595 -0.1773  0.8980  0.2883
  159OSM   C18F17890   4.745   1.722   4.739  0.0624 -0.1552  0.1535
  159OSM   H18F17891   4.783   1.637   4.680  1.7912  1.2986 -0.9341
  159OSM   H18G17892   4.651   1.703   4.796 -0.0283  1.0180  0.4254
  159OSM   H18H17893   4.823   1.750   4.814 -0.0812  1.1488 -0.1669
  160OSM      N17894   0.698   1.481   1.949 -0.0830 -0.3705  0.8146
  160OSM    C1517895   0.602   1.590   1.908  0.2066  0.9472 -0.6562
  160OSM   H15A17896   0.501   1.572   1.941  0.3656 -0.6493 -0.9805
  160OSM   H15B17897   0.591   1.610   1.803  0.6289 -2.3159 -1.4082
  160OSM   H15C17898   0.641   1.680   1.954 -0.2737  0.6995  0.2602
  160OSM    C1417899   0.652   1.349   1.900 -0.2357  0.4614  0.9000
  160OSM   H14A17900   0.572   1.300   1.954 -0.6211 -0.4551 -0.4515
  160OSM   H14B17901   0.729   1.276   1.882 -2.9457 -1.6301 -3.9185
  160OSM   H14C17902   0.615   1.364   1.800  0.4678  0.9750  0.7092
  160OSM    C1317903   0.827   1.513   1.869 -0.2535 -0.1477 -0.1978
  160OSM   H13A17904   0.794   1.533   1.768 -2.7606 -1.0363  0.3691
  160OSM   H13B17905   0.892   1.427   1.868 -1.0770 -0.9093  2.1746
  160OSM   H13C17906   0.874   1.596   1.920  0.0363  0.5542 -1.5808
  160OSM    C1217907   0.729   1.474   2.091 -0.3468  0.2919 -0.0083
  160OSM   H12A17908   0.830   1.437   2.103 -0.5325 -1.2014 -2.3074
  160OSM   H12B17909   0.673   1.394   2.137  2.4056 -2.6723 -1.4469
  160OSM    C1117910   0.720   1.611   2.165 -0.5329  0.6274  0.0947
  160OSM   H11A17911   0.767   1.579   2.261 -1.7282  1.5292  1.0098
  160OSM   H11B17912   0.612   1.634   2.175 -0.9586 -1.6358  1.3819
  160OSM      P17913   0.940   1.760   2.136  0.0323  0.0671 -0.2340
  160OSM    O1317914   1.032   1.692   2.044  0.3029  0.2275  0.3015
  160OSM    O1417915   0.942   1.910   2.139  0.1467 -0.4472  0.2504
  160OSM    O1117916   0.965   1.701   2.282  0.5555  0.3682  0.3134
  160OSM    O1217917   0.793   1.715   2.100  0.0315  0.2943 -0.1657
  160OSM    C1S17918   0.923   1.765   2.404 -0.4030  0.1606  0.0873
  160OSM    H1S17919   0.818   1.799   2.400 -0.0183  1.2931 -1.3820
  160OSM    H1T17920   0.989   1.854   2.412  0.4460 -0.4548  0.1227
  160OSM     NF17921   0.907   1.764   2.646 -0.0293  0.3185  0.3658
  160OSM    HNF17922   0.965   1.837   2.683  1.8003 -0.6268 -0.4947
  160OSM    C2S17923   0.956   1.683   2.530  0.2000 -0.0388  0.1163
  160OSM    H2S17924   0.898   1.589   2.515  0.4313 -0.0185 -1.0178
  160OSM    C3S17925   1.106   1.642   2.537  0.5541 -0.3588 -0.4577
  160OSM    H3S17926   1.161   1.737   2.521 -1.6711  1.4553  1.8112
  160OSM     O317927   1.137   1.554   2.438 -0.3617 -0.0589  0.0319
  160OSM    HO317928   1.064   1.574   2.379  2.0011  3.5092 -2.0907
  160OSM    C4S17929   1.134   1.571   2.670  0.4404  0.1067 -1.0672
  160OSM    H4S17930   1.078   1.478   2.691 -1.0563  0.6256 -2.5677
  160OSM    C5S17931   1.231   1.606   2.758  0.1002  0.6351 -0.5761
  160OSM    H5S17932   1.299   1.692   2.745  1.3331  0.0984  1.8010
  160OSM    C6S17933   1.257   1.525   2.884 -0.4833  0.1661  0.6174
  160OSM    H6S17934   1.368   1.529   2.890 -0.3487  0.0023 -1.1365
  160OSM    H6T17935   1.229   1.418   2.875  1.3243 -0.3940  1.2164
  160OSM    C7S17936   1.181   1.582   3.000 -0.0981  0.0638 -0.3112
  160OSM    H7S17937   1.074   1.566   2.974 -0.1308 -1.6072  0.7333
  160OSM    H7T17938   1.208   1.689   3.012 -1.0125  0.4729 -1.6379
  160OSM    C8S17939   1.209   1.518   3.135 -0.3087  0.3929 -0.3231
  160OSM    H8S17940   1.318   1.527   3.152 -0.3476  2.4522 -0.8700
  160OSM    H8T17941   1.179   1.412   3.118  0.4915  0.1333 -0.1352
  160OSM    C9S17942   1.129   1.589   3.250  0.6141 -0.4753  0.4878
  160OSM    H9S17943   1.020   1.578   3.233  0.3720  1.2482  0.7175
  160OSM    H9T17944   1.134   1.700   3.237  1.3742 -0.7122 -1.5759
  160OSM   C10S17945   1.170   1.567   3.391  0.3349 -0.4862  0.3533
  160OSM   H10S17946   1.275   1.598   3.412  0.1650  0.3370  0.0083
  160OSM   H10T17947   1.166   1.457   3.405 -1.1359 -0.3508  1.1719
  160OSM   C11S17948   1.075   1.645   3.495 -0.2184  0.3463 -0.2313
  160OSM   H11S17949   0.979   1.590   3.505  0.5504 -0.9999 -0.0136
  160OSM   H11T17950   1.068   1.751   3.461 -2.1234  1.3029  2.7763
  160OSM   C12S17951   1.126   1.635   3.637  0.1012 -0.5431 -0.3454
  160OSM   H12S17952   1.225   1.687   3.642 -0.4019  0.4786 -0.7262
  160OSM   H12T17953   1.161   1.530   3.647  2.1147  0.2465  2.6532
  160OSM   C13S17954   1.020   1.680   3.740 -0.6376 -0.2421  0.6940
  160OSM   H13S17955   0.938   1.605   3.733 -1.9138  1.2079 -0.5733
  160OSM   H13T17956   0.978   1.776   3.705  2.3424  2.0096  2.8494
  160OSM   C14S17957   1.073   1.700   3.876 -0.1491 -0.3085  0.7855
  160OSM   H14S17958   1.136   1.792   3.876 -0.3519 -0.0418 -2.5967
  160OSM   H14T17959   1.135   1.609   3.893 -0.5775 -0.6951  0.3225
  160OSM   C15S17960   0.968   1.705   3.978 -0.5485  0.3656 -0.7625
  160OSM   H15S17961   0.903   1.617   3.957 -0.5049  0.2361 -0.3664
  160OSM   H15T17962   0.905   1.792   3.951 -3.2065 -1.4961 -0.9555
  160OSM   C16S17963   1.023   1.712   4.121  0.3410  0.3947 -0.0071
  160OSM   H16S17964   1.106   1.787   4.122  0.7892 -0.0476 -1.3134
  160OSM   H16T17965   1.060   1.611   4.149  1.3507 -0.0675 -2.6745
  160OSM   C17S17966   0.917   1.753   4.227  0.0774  0.5221  0.3179
  160OSM   H17S17967   0.852   1.835   4.191  0.9599  0.4462 -1.5345
  160OSM   H17T17968   0.974   1.794   4.314 -0.7016 -0.6266  1.4051
  160OSM   C18S17969   0.834   1.637   4.281  0.5815 -0.2474  0.2015
  160OSM   H18S17970   0.754   1.667   4.352 -1.6801 -1.7100 -1.5424
  160OSM   H18T17971   0.906   1.576   4.339 -1.2527  0.0063  2.9067
  160OSM   H18U17972   0.793   1.573   4.199  1.9532 -0.5309 -0.2910
  160OSM    C1F17973   0.781   1.755   2.693 -0.7746 -0.2425  0.2911
  160OSM     OF17974   0.696   1.687   2.640  0.5823 -0.1124  0.2431
  160OSM    C2F17975   0.758   1.831   2.824  0.1759 -0.4655 -0.1660
  160OSM    H2F17976   0.660   1.884   2.826 -0.0145 -0.7408  3.0599
  160OSM    H2G17977   0.834   1.911   2.832  0.4031 -0.6434 -0.5454
  160OSM    C3F17978   0.775   1.747   2.948 -0.1054 -0.1601 -0.6088
  160OSM    H3F17979   0.881   1.714   2.948  0.3928  1.1997  2.0958
  160OSM    H3G17980   0.725   1.649   2.933 -0.9709  0.4329 -1.8814
  160OSM    C4F17981   0.729   1.810   3.087  0.1845  0.5865  0.6047
  160OSM    H4F17982   0.635   1.868   3.087 -1.2094 -1.5659  0.7033
  160OSM    H4G17983   0.803   1.887   3.117 -1.2764  1.4499  2.1480
  160OSM    C5F17984   0.701   1.701   3.188 -0.0198 -0.5293 -0.8154
  160OSM    H5F17985   0.792   1.638   3.201  0.0636 -0.5694 -1.5175
  160OSM    H5G17986   0.624   1.627   3.159 -0.5416 -0.5386  0.5259
  160OSM    C6F17987   0.643   1.746   3.323 -0.5841 -0.3055 -0.2060
  160OSM    H6F17988   0.561   1.821   3.317 -0.8424 -0.6878 -1.6096
  160OSM    H6G17989   0.729   1.800   3.369  0.3410 -0.9465 -1.1393
  160OSM    C7F17990   0.601   1.626   3.414  0.7941 -0.0198 -0.6054
  160OSM    H7F17991   0.697   1.575   3.437  1.7146  2.1283  0.7388
  160OSM    H7G17992   0.545   1.551   3.356  1.5548 -0.1408 -1.2047
  160OSM    C8F17993   0.526   1.686   3.536  0.5270  0.3320  0.0889
  160OSM    H8F17994   0.459   1.609   3.580  1.6777  0.8669  2.9850
  160OSM    H8G17995   0.465   1.770   3.496  0.8429 -0.5666 -2.4379
  160OSM    C9F17996   0.622   1.754   3.629 -0.4694 -0.5469 -0.0077
  160OSM    H9F17997   0.697   1.824   3.589  0.7960 -0.2017  2.7274
  160OSM   C10F17998   0.629   1.734   3.763  0.1101  0.0870  0.1756
  160OSM   H10F17999   0.702   1.788   3.825  1.6930  0.4563 -1.8959
  160OSM   C11F18000   0.551   1.630   3.840  0.0488 -0.0328  0.7273
  160OSM   H11F18001   0.619   1.545   3.865 -0.5690 -0.6791  0.2796
  160OSM   H11G18002   0.460   1.593   3.788 -0.3035  1.4455  0.2672
  160OSM   C12F18003   0.511   1.677   3.977  0.1570 -0.4521 -0.2383
  160OSM   H12F18004   0.461   1.776   3.979 -0.2675 -0.6671  2.0299
  160OSM   H12G18005   0.596   1.680   4.049  0.3636  1.1471 -0.5066
  160OSM   C13F18006   0.408   1.581   4.043  0.3527 -0.2077 -0.7386
  160OSM   H13F18007   0.458   1.492   4.086 -2.4138 -0.8261  1.4714
  160OSM   H13G18008   0.342   1.561   3.956 -0.2967  2.3074 -0.9057
  160OSM   C14F18009   0.323   1.652   4.162 -0.3220 -0.4344 -0.4753
  160OSM   H14F18010   0.255   1.724   4.110  0.7050  0.7830 -0.1612
  160OSM   H14G18011   0.386   1.702   4.238 -0.1192  1.2943 -1.7226
  160OSM   C15F18012   0.237   1.551   4.231 -0.0012 -0.0617 -0.4235
  160OSM   H15F18013   0.298   1.469   4.275  1.1348  0.8551 -0.2273
  160OSM   H15G18014   0.172   1.503   4.154  2.5195 -1.0081 -2.0907
  160OSM   C16F18015   0.172   1.631   4.348  0.5826 -0.4089 -0.7680
  160OSM   H16F18016   0.093   1.696   4.306 -0.2142  0.3357  1.7399
  160OSM   H16G18017   0.247   1.697   4.397  1.2298 -1.2495 -0.5889
  160OSM   C17F18018   0.105   1.529   4.448  0.3495 -0.4303 -0.0571
  160OSM   H17F18019   0.081   1.582   4.543 -0.0123  1.4752 -1.1598
  160OSM   H17G18020   0.187   1.456   4.465 -1.0454 -2.3363 -1.1124
  160OSM   C18F18021  -0.016   1.468   4.378 -0.0031 -1.1039 -0.6917
  160OSM   H18F18022  -0.072   1.402   4.448  0.8986  0.0720  1.2355
  160OSM   H18G18023   0.005   1.412   4.284 -0.6339 -0.3430 -1.2933
  160OSM   H18H18024  -0.084   1.553   4.359  1.2313  0.0177 -0.2788
  161OSM      N18025   6.305   6.207   2.334 -0.3518 -0.5376 -0.0963
  161OSM    C1518026   6.401   6.173   2.223 -0.4722 -0.0536  0.3963
  161OSM   H15A18027   6.469   6.255   2.207 -0.1497 -0.5508 -0.8765
  161OSM   H15B18028   6.357   6.142   2.130  0.2066 -1.3175  0.4681
  161OSM   H15C18029   6.462   6.090   2.255 -0.2016  0.4359  1.1863
  161OSM    C1418030   6.385   6.274   2.443  0.0248 -0.1092  0.0358
  161OSM   H14A18031   6.429   6.364   2.402 -0.5440 -0.2061 -0.8139
  161OSM   H14B18032   6.463   6.210   2.481  1.2978  0.9278 -0.7173
  161OSM   H14C18033   6.320   6.301   2.525 -0.0370 -3.0954  1.0933
  161OSM    C1318034   6.210   6.309   2.287  0.9968 -0.6536 -0.6737
  161OSM   H13A18035   6.151   6.355   2.366  1.7309  1.2454 -1.1615
  161OSM   H13B18036   6.139   6.264   2.219 -1.0856 -0.1111  1.0320
  161OSM   H13C18037   6.270   6.394   2.258  1.9044 -0.9493  0.3179
  161OSM    C1218038   6.233   6.086   2.390 -0.1655 -0.1918  0.3859
  161OSM   H12A18039   6.311   6.031   2.441  0.5125 -1.1380 -1.5592
  161OSM   H12B18040   6.211   6.017   2.309  2.0068  0.0841 -0.5120
  161OSM    C1118041   6.117   6.099   2.487  0.0990 -0.0934 -0.5121
  161OSM   H11A18042   6.136   6.161   2.577 -0.4153  1.0521 -1.1745
  161OSM   H11B18043   6.100   6.000   2.535 -1.4731  0.0626 -0.7221
  161OSM      P18044   5.922   6.048   2.330 -0.2912  0.1195 -0.6388
  161OSM    O1318045   5.908   6.106   2.198  0.2343 -0.1009 -0.2441
  161OSM    O1418046   5.993   5.914   2.337 -0.4708 -0.0274 -0.0282
  161OSM    O1118047   5.778   6.042   2.379 -0.2599 -0.0396  0.1444
  161OSM    O1218048   5.997   6.153   2.425 -1.0389  0.1064 -0.1959
  161OSM    C1S18049   5.751   5.991   2.507 -0.1938 -0.0196  0.5692
  161OSM    H1S18050   5.833   5.932   2.554  0.4984  1.6650  1.5962
  161OSM    H1T18051   5.657   5.932   2.511  1.7695 -3.6947 -1.5998
  161OSM     NF18052   5.715   6.038   2.753 -0.2183  0.4224  0.3637
  161OSM    HNF18053   5.620   6.027   2.782 -0.6802  2.3986 -0.2609
  161OSM    C2S18054   5.736   6.101   2.623  0.4741  0.1539  1.0569
  161OSM    H2S18055   5.828   6.163   2.621 -0.8909  2.2938 -0.9250
  161OSM    C3S18056   5.618   6.200   2.580  0.1865  0.1566 -0.4373
  161OSM    H3S18057   5.531   6.134   2.561 -1.4076  0.9746  3.1717
  161OSM     O318058   5.647   6.273   2.463  0.6810  0.6526 -0.2547
  161OSM    HO318059   5.727   6.228   2.436  0.3581 -1.1743  1.5832
  161OSM    C4S18060   5.572   6.294   2.694 -0.5608  0.0683 -0.1692
  161OSM    H4S18061   5.485   6.261   2.752  0.3671 -0.5659  0.9043
  161OSM    C5S18062   5.626   6.414   2.725 -0.2215  0.3312  0.4119
  161OSM    H5S18063   5.722   6.444   2.683  0.1384  0.1182  1.0644
  161OSM    C6S18064   5.566   6.511   2.830  0.0963  0.1983  0.1134
  161OSM    H6S18065   5.473   6.547   2.780  0.0220 -1.0606 -0.7046
  161OSM    H6T18066   5.640   6.591   2.850 -0.2631  0.1015  2.0710
  161OSM    C7S18067   5.517   6.440   2.953 -0.0153 -0.0006 -0.1083
  161OSM    H7S18068   5.606   6.382   2.984  0.8008  0.1309 -2.0658
  161OSM    H7T18069   5.424   6.380   2.942  0.0487  0.0198 -0.8179
  161OSM    C8S18070   5.504   6.531   3.074 -0.1946 -0.2246  0.3045
  161OSM    H8S18071   5.421   6.604   3.065  2.4987  2.9011 -1.8895
  161OSM    H8T18072   5.598   6.589   3.085 -0.8812  0.7976  0.8349
  161OSM    C9S18073   5.481   6.460   3.203 -0.3000 -0.3853  0.5553
  161OSM    H9S18074   5.574   6.405   3.225  0.0233 -0.1175 -0.1078
  161OSM    H9T18075   5.395   6.390   3.191  0.7010 -1.5140 -0.3460
  161OSM   C10S18076   5.449   6.561   3.317 -0.2690 -0.3105  0.6804
  161OSM   H10S18077   5.349   6.602   3.291 -0.1305 -1.6203 -2.3978
  161OSM   H10T18078   5.516   6.649   3.311 -1.3401  0.7731  3.3582
  161OSM   C11S18079   5.444   6.500   3.459  0.9422  0.5164 -1.0025
  161OSM   H11S18080   5.517   6.417   3.459  0.0769 -0.2922 -2.1322
  161OSM   H11T18081   5.346   6.450   3.476  0.7536  1.6679  1.7168
  161OSM   C12S18082   5.470   6.590   3.578  0.2435 -0.6715  0.4225
  161OSM   H12S18083   5.396   6.673   3.567  1.3307  0.5755  2.0689
  161OSM   H12T18084   5.574   6.628   3.583 -0.6851  2.2294  0.0794
  161OSM   C13S18085   5.450   6.521   3.711 -0.0590 -0.1888 -0.0975
  161OSM   H13S18086   5.510   6.428   3.716  0.0123 -0.1671 -0.5223
  161OSM   H13T18087   5.344   6.491   3.727 -0.8598  2.2057 -0.5031
  161OSM   C14S18088   5.477   6.617   3.826 -0.6654  0.7879  0.3704
  161OSM   H14S18089   5.428   6.715   3.809  0.7252  1.6906  1.3262
  161OSM   H14T18090   5.586   6.634   3.842 -0.3660  1.0221 -1.6959
  161OSM   C15S18091   5.413   6.571   3.952 -0.2234  0.2516 -0.4375
  161OSM   H15S18092   5.445   6.467   3.976  0.8962  0.5185 -0.6944
  161OSM   H15T18093   5.304   6.565   3.930 -0.1563  1.0769 -1.0362
  161OSM   C16S18094   5.442   6.663   4.069  0.4735  0.4295 -0.4894
  161OSM   H16S18095   5.380   6.751   4.043  0.6634  0.8896  0.5773
  161OSM   H16T18096   5.547   6.698   4.074  0.4949  0.5079 -1.3351
  161OSM   C17S18097   5.409   6.598   4.214 -0.5867 -0.3063 -0.2456
  161OSM   H17S18098   5.423   6.489   4.198 -0.5516 -0.5405  1.2594
  161OSM   H17T18099   5.299   6.603   4.229 -0.7102 -1.7336 -0.5505
  161OSM   C18S18100   5.476   6.653   4.338  0.0678  0.3401  0.1840
  161OSM   H18S18101   5.428   6.611   4.429 -1.2693  2.7915  0.6804
  161OSM   H18T18102   5.459   6.762   4.350 -0.3590  0.6223 -2.4231
  161OSM   H18U18103   5.585   6.634   4.348 -0.2438 -2.0778 -0.3478
  161OSM    C1F18104   5.811   5.983   2.825 -0.6531 -0.3601 -0.0087
  161OSM     OF18105   5.925   5.980   2.781  0.1477 -0.2948 -0.1856
  161OSM    C2F18106   5.774   5.925   2.953 -0.0817 -0.0043  0.2622
  161OSM    H2F18107   5.673   5.878   2.958  0.9924 -2.4396  0.7444
  161OSM    H2G18108   5.780   6.012   3.022 -2.0365  1.4070 -1.2445
  161OSM    C3F18109   5.866   5.807   2.991  0.3022 -0.0055  0.2895
  161OSM    H3F18110   5.970   5.845   2.991 -0.2282  1.5588  0.2450
  161OSM    H3G18111   5.855   5.736   2.907 -2.0714 -0.7873  1.1620
  161OSM    C4F18112   5.822   5.723   3.115 -0.2375 -0.4567  0.0158
  161OSM    H4F18113   5.867   5.622   3.120  0.4773 -0.1448 -0.0252
  161OSM    H4G18114   5.711   5.713   3.107 -0.1483 -0.6197 -1.1738
  161OSM    C5F18115   5.866   5.795   3.245  0.4566  0.4599  0.4453
  161OSM    H5F18116   5.812   5.892   3.251 -0.2540 -0.0345  2.5631
  161OSM    H5G18117   5.972   5.825   3.231  0.1730  1.0116 -0.7007
  161OSM    C6F18118   5.843   5.710   3.375  0.3150 -0.1703  0.2997
  161OSM    H6F18119   5.909   5.622   3.360 -0.6080 -0.8935  0.3715
  161OSM    H6G18120   5.741   5.666   3.377  0.6828 -1.0380  1.6486
  161OSM    C7F18121   5.873   5.791   3.504 -0.4963 -0.2310 -0.1524
  161OSM    H7F18122   5.792   5.863   3.529 -0.4455 -0.5977  1.1548
  161OSM    H7G18123   5.960   5.851   3.472 -0.9896  0.5558 -0.0496
  161OSM    C8F18124   5.908   5.710   3.634 -0.0369 -0.3932 -0.0459
  161OSM    H8F18125   5.982   5.633   3.603 -0.8348 -1.0713 -0.3047
  161OSM    H8G18126   5.821   5.641   3.641 -0.0525 -0.3288  0.3959
  161OSM    C9F18127   5.924   5.792   3.766 -0.1251  0.1025 -0.4081
  161OSM    H9F18128   5.866   5.883   3.785 -0.0455  0.0710 -0.0153
  161OSM   C10F18129   6.010   5.754   3.868 -0.1499  1.0518  0.4832
  161OSM   H10F18130   6.035   5.826   3.947  2.3760 -0.2027  0.9523
  161OSM   C11F18131   6.096   5.623   3.869  0.6710 -0.2619 -0.5624
  161OSM   H11F18132   6.202   5.657   3.859  0.9466 -1.4374 -2.2195
  161OSM   H11G18133   6.073   5.556   3.783 -0.3022  2.3777 -2.4962
  161OSM   C12F18134   6.072   5.533   3.998  0.2789 -0.7921  0.4644
  161OSM   H12F18135   5.969   5.494   4.013 -0.5765  1.5030  0.9453
  161OSM   H12G18136   6.082   5.601   4.085 -0.4849  1.1765 -0.9200
  161OSM   C13F18137   6.188   5.429   4.018  0.1727 -0.0723  0.2931
  161OSM   H13F18138   6.283   5.474   3.983 -0.2975 -0.2270 -1.2328
  161OSM   H13G18139   6.174   5.357   3.935 -1.4965  0.4863  0.0616
  161OSM   C14F18140   6.201   5.358   4.153  0.0014  1.2392  0.0505
  161OSM   H14F18141   6.242   5.256   4.141 -0.0900  0.9535  1.8289
  161OSM   H14G18142   6.095   5.347   4.187 -0.1911 -0.6740 -1.0314
  161OSM   C15F18143   6.294   5.438   4.239  0.0357 -1.2105  0.1795
  161OSM   H15F18144   6.246   5.539   4.245 -0.0330 -1.0899 -1.8617
  161OSM   H15G18145   6.394   5.452   4.193 -0.3044 -0.5459 -0.3824
  161OSM   C16F18146   6.312   5.381   4.374 -0.0714  0.7926  0.8506
  161OSM   H16F18147   6.345   5.275   4.373 -1.4195  0.3512 -0.1594
  161OSM   H16G18148   6.210   5.368   4.415 -0.9146 -2.7072 -1.7933
  161OSM   C17F18149   6.379   5.475   4.476  0.6745 -0.0302 -0.4554
  161OSM   H17F18150   6.332   5.574   4.492  3.5649  1.1256  1.6531
  161OSM   H17G18151   6.482   5.488   4.439 -0.2287 -0.2330 -3.2723
  161OSM   C18F18152   6.391   5.417   4.624 -0.2630  0.3632  0.2025
  161OSM   H18F18153   6.475   5.453   4.687 -0.9922 -2.1748  2.8192
  161OSM   H18G18154   6.409   5.307   4.623  0.3306  0.4530  0.1616
  161OSM   H18H18155   6.297   5.435   4.679 -2.4771 -0.3747 -3.0417
  162OSM      N18156   6.666   0.121   2.360 -0.1298  0.9928  0.8973
  162OSM    C1518157   6.707   0.051   2.231  0.7141  0.2342  0.7730
  162OSM   H15A18158   6.700  -0.057   2.242 -0.3633  0.0778 -0.9689
  162OSM   H15B18159   6.808   0.076   2.203  1.3669 -0.3080  2.5423
  162OSM   H15C18160   6.644   0.073   2.147 -0.7050 -0.3753  1.6411
  162OSM    C1418161   6.695   0.266   2.343  0.7113  0.2121 -0.6800
  162OSM   H14A18162   6.629   0.304   2.266 -2.2194 -0.4697  1.3484
  162OSM   H14B18163   6.799   0.280   2.319  0.5997 -1.2345 -2.2160
  162OSM   H14C18164   6.674   0.325   2.430  0.9354 -1.5139  0.5935
  162OSM    C1318165   6.521   0.101   2.389  0.2020  0.0759  0.2845
  162OSM   H13A18166   6.495  -0.004   2.398 -0.1540 -0.0975 -2.1764
  162OSM   H13B18167   6.459   0.133   2.307  1.2178 -0.0580 -0.5531
  162OSM   H13C18168   6.503   0.160   2.478 -1.4574  0.2647 -0.1474
  162OSM    C1218169   6.757   0.072   2.470 -0.1637 -0.2468  0.2017
  162OSM   H12A18170   6.742   0.124   2.563 -1.5153 -2.5347  1.3603
  162OSM   H12B18171   6.859   0.092   2.441 -0.1701 -1.4376 -0.7338
  162OSM    C1118172   6.733  -0.076   2.516 -0.4080 -0.9530  0.6674
  162OSM   H11A18173   6.625  -0.084   2.540 -0.5395 -1.5339 -0.0788
  162OSM   H11B18174   6.788  -0.098   2.610  0.0347  0.5841  0.8033
  162OSM      P18175   6.702  -0.306   2.397 -0.5117  0.8085  0.2930
  162OSM    O1318176   6.573  -0.269   2.331  0.8059 -0.1724 -0.1060
  162OSM    O1418177   6.790  -0.410   2.333 -0.4584  0.2037  0.1221
  162OSM    O1118178   6.672  -0.350   2.550 -0.3251  0.7626 -0.3749
  162OSM    O1218179   6.780  -0.167   2.418  0.4490 -0.4301 -0.1715
  162OSM    C1S18180   6.787  -0.401   2.633  0.0878 -0.3117  0.3934
  162OSM    H1S18181   6.879  -0.338   2.628 -1.6686  2.3539 -0.2033
  162OSM    H1T18182   6.816  -0.494   2.581  0.5183 -0.8093  1.4860
  162OSM     NF18183   6.855  -0.478   2.868  0.9589 -0.6183  0.2838
  162OSM    HNF18184   6.865  -0.577   2.863 -0.0166 -0.6903 -0.6225
  162OSM    C2S18185   6.748  -0.428   2.783  0.0909  0.1372 -0.2027
  162OSM    H2S18186   6.722  -0.329   2.826 -0.4705  0.2514 -0.7935
  162OSM    C3S18187   6.630  -0.523   2.791 -0.2945  0.2915 -0.2100
  162OSM    H3S18188   6.677  -0.622   2.775  1.7738  0.9771  1.1255
  162OSM     O318189   6.529  -0.519   2.694  0.2957 -0.3524  0.3399
  162OSM    HO318190   6.563  -0.462   2.625 -3.4460 -0.6464 -2.0635
  162OSM    C4S18191   6.566  -0.512   2.931 -0.0352  0.3079 -0.3218
  162OSM    H4S18192   6.633  -0.551   3.009 -1.9306  0.1744  1.3125
  162OSM    C5S18193   6.448  -0.454   2.970  0.5293  0.6418  0.6349
  162OSM    H5S18194   6.379  -0.407   2.899 -1.0092 -2.0294  0.2194
  162OSM    C6S18195   6.389  -0.436   3.109 -0.0026 -0.0033  0.2814
  162OSM    H6S18196   6.296  -0.495   3.121  0.7331 -1.0732  0.8790
  162OSM    H6T18197   6.374  -0.327   3.128 -1.3648  0.0933 -1.1086
  162OSM    C7S18198   6.483  -0.465   3.226 -0.2211  0.3507  0.4762
  162OSM    H7S18199   6.582  -0.415   3.220  0.0953 -0.3959 -0.7796
  162OSM    H7T18200   6.491  -0.576   3.227 -1.3338  0.2312 -0.9626
  162OSM    C8S18201   6.402  -0.455   3.362 -1.0264 -0.2344  0.4992
  162OSM    H8S18202   6.316  -0.526   3.352  1.2700 -2.8169 -3.7256
  162OSM    H8T18203   6.361  -0.352   3.371 -1.7074 -0.2582 -1.6846
  162OSM    C9S18204   6.482  -0.481   3.491  0.0580 -0.8216  0.3478
  162OSM    H9S18205   6.581  -0.439   3.464 -1.1448  0.4490 -2.4141
  162OSM    H9T18206   6.500  -0.591   3.494  0.7692 -0.7537 -0.9009
  162OSM   C10S18207   6.426  -0.407   3.615  0.0471  0.0303  0.4535
  162OSM   H10S18208   6.323  -0.443   3.632  0.0260  0.0026  0.2650
  162OSM   H10T18209   6.404  -0.300   3.598 -0.5362 -0.2060 -0.3655
  162OSM   C11S18210   6.508  -0.420   3.740 -0.1384  0.4152 -0.2258
  162OSM   H11S18211   6.614  -0.393   3.725 -0.1545  2.4335  2.5591
  162OSM   H11T18212   6.501  -0.527   3.770 -0.1586  0.2200 -0.9147
  162OSM   C12S18213   6.436  -0.336   3.852  0.5389  0.0931  0.0256
  162OSM   H12S18214   6.327  -0.355   3.862  0.6836 -0.5623  0.4321
  162OSM   H12T18215   6.444  -0.229   3.826 -1.6732  0.2437 -0.2321
  162OSM   C13S18216   6.483  -0.361   3.997  0.1438 -0.0428 -0.0788
  162OSM   H13S18217   6.483  -0.471   4.012  0.7608 -0.1625 -0.9131
  162OSM   H13T18218   6.420  -0.320   4.078 -0.9792 -1.6720 -0.0829
  162OSM   C14S18219   6.629  -0.309   4.017 -0.3854  0.2816 -0.0612
  162OSM   H14S18220   6.618  -0.202   3.987 -0.8779  0.2392 -0.0423
  162OSM   H14T18221   6.708  -0.365   3.963  0.4930  0.5373  0.9284
  162OSM   C15S18222   6.681  -0.314   4.165  0.0259  0.4891 -0.0394
  162OSM   H15S18223   6.624  -0.251   4.237 -1.1094  0.8810 -1.2585
  162OSM   H15T18224   6.781  -0.267   4.160 -0.7641  2.2337 -0.0722
  162OSM   C16S18225   6.697  -0.454   4.226  0.0108 -0.2092 -0.3236
  162OSM   H16S18226   6.594  -0.490   4.243 -0.1064  0.0044 -0.5873
  162OSM   H16T18227   6.747  -0.451   4.326 -2.0940  0.0912  0.7827
  162OSM   C17S18228   6.782  -0.551   4.135 -0.2194 -0.3930  0.5369
  162OSM   H17S18229   6.864  -0.492   4.091 -0.3718 -0.3466  0.3159
  162OSM   H17T18230   6.717  -0.585   4.051 -3.6271  2.2151  1.8709
  162OSM   C18S18231   6.833  -0.672   4.204  0.6432  0.5102  0.4003
  162OSM   H18S18232   6.885  -0.655   4.300  0.5568  0.2248  0.4982
  162OSM   H18T18233   6.897  -0.719   4.125  0.6557 -0.3377  0.9062
  162OSM   H18U18234   6.746  -0.740   4.217 -0.2243  1.4309 -0.4343
  162OSM    C1F18235   6.951  -0.392   2.887  0.3024  0.4057 -0.5683
  162OSM     OF18236   6.936  -0.275   2.854  0.0046  0.1535  0.2908
  162OSM    C2F18237   7.081  -0.450   2.935 -0.0302  0.2933 -0.5989
  162OSM    H2F18238   7.159  -0.380   2.900 -0.4134  0.0211 -2.0612
  162OSM    H2G18239   7.114  -0.547   2.891  0.5850  0.4525 -0.5018
  162OSM    C3F18240   7.080  -0.467   3.093 -0.4052  0.5809  1.0764
  162OSM    H3F18241   7.170  -0.532   3.103 -1.3137 -0.7007  1.1999
  162OSM    H3G18242   6.995  -0.523   3.139 -0.0901 -1.8940 -1.0958
  162OSM    C4F18243   7.114  -0.341   3.176  0.4983 -0.0917 -0.7304
  162OSM    H4F18244   7.017  -0.286   3.179  0.6916  0.2082 -0.0011
  162OSM    H4G18245   7.192  -0.274   3.134 -0.3256  1.2369 -0.2040
  162OSM    C5F18246   7.157  -0.387   3.316 -0.7177  0.1903 -1.1571
  162OSM    H5F18247   7.236  -0.465   3.316  0.7229  1.4787  1.7449
  162OSM    H5G18248   7.068  -0.433   3.365 -0.1467  0.9332  0.7025
  162OSM    C6F18249   7.192  -0.273   3.413 -0.0567 -0.8892 -0.2258
  162OSM    H6F18250   7.179  -0.301   3.520 -3.0712  0.9320 -0.0181
  162OSM    H6G18251   7.129  -0.185   3.388  1.0851  0.1757  0.5745
  162OSM    C7F18252   7.340  -0.219   3.410 -0.4869 -0.2303  0.0365
  162OSM    H7F18253   7.345  -0.118   3.454  2.6385  0.0993 -0.8340
  162OSM    H7G18254   7.367  -0.199   3.304 -2.1592  0.8519 -0.2249
  162OSM    C8F18255   7.436  -0.311   3.476  0.7841 -0.6829  0.4198
  162OSM    H8F18256   7.463  -0.392   3.405  1.0937 -1.6577  1.6023
  162OSM    H8G18257   7.377  -0.356   3.559  2.2542 -2.0565  0.7719
  162OSM    C9F18258   7.567  -0.242   3.519 -0.2371  0.1634 -0.6143
  162OSM    H9F18259   7.595  -0.152   3.462 -2.5767  1.0862 -0.3990
  162OSM   C10F18260   7.647  -0.266   3.624  0.8351 -0.0120 -0.1249
  162OSM   H10F18261   7.746  -0.218   3.630  0.2300  1.2721 -0.1012
  162OSM   C11F18262   7.623  -0.370   3.733  0.5769  0.0810 -0.0069
  162OSM   H11F18263   7.697  -0.453   3.727  0.2715 -0.0988 -1.6167
  162OSM   H11G18264   7.519  -0.411   3.728  0.3558  0.5338  0.6662
  162OSM   C12F18265   7.652  -0.301   3.874 -0.0258 -0.2453  0.4215
  162OSM   H12F18266   7.590  -0.209   3.878 -0.6470 -0.6406  0.0677
  162OSM   H12G18267   7.760  -0.274   3.878  0.1217 -0.0162 -2.6551
  162OSM   C13F18268   7.618  -0.400   3.987 -0.5666 -0.5256 -0.1342
  162OSM   H13F18269   7.676  -0.494   3.975  1.9814  1.1373 -1.8375
  162OSM   H13G18270   7.510  -0.427   3.992 -0.5592 -1.7881 -3.5055
  162OSM   C14F18271   7.643  -0.334   4.122 -0.0750  0.3906  0.5038
  162OSM   H14F18272   7.570  -0.250   4.128 -1.4476 -0.6329 -0.9668
  162OSM   H14G18273   7.740  -0.284   4.144 -0.4862  0.7755  1.5009
  162OSM   C15F18274   7.641  -0.424   4.242  0.4510  0.1655 -0.9524
  162OSM   H15F18275   7.709  -0.510   4.227 -0.8345 -1.2218  0.6790
  162OSM   H15G18276   7.535  -0.456   4.239  0.3635  0.4991 -3.3239
  162OSM   C16F18277   7.673  -0.353   4.382  0.2216 -0.1873  0.3746
  162OSM   H16F18278   7.780  -0.322   4.382 -0.2854  1.7307 -1.1554
  162OSM   H16G18279   7.665  -0.420   4.470 -3.2553 -1.7233 -0.9194
  162OSM   C17F18280   7.592  -0.226   4.393  0.4046  0.3088  0.2475
  162OSM   H17F18281   7.491  -0.239   4.348 -0.1794  2.1187  0.9816
  162OSM   H17G18282   7.646  -0.143   4.343 -0.3843  0.2191 -0.8055
  162OSM   C18F18283   7.566  -0.189   4.538  0.0492 -0.3456  0.3155
  162OSM   H18F18284   7.488  -0.112   4.549 -0.2823 -0.7749  1.0273
  162OSM   H18G18285   7.659  -0.144   4.579 -0.4869  0.0256  1.1502
  162OSM   H18H18286   7.523  -0.277   4.590 -2.2540 -0.8492 -2.2469
  163OSM      N18287   4.944   0.332   2.028 -0.7703  0.0941  0.0978
  163OSM    C1518288   4.878   0.216   1.963 -0.4708 -0.2332 -0.6805
  163OSM   H15A18289   4.939   0.130   1.941 -0.7873 -0.1027 -2.1767
  163OSM   H15B18290   4.841   0.246   1.866 -1.6843 -1.3855 -0.6107
  163OSM   H15C18291   4.788   0.185   2.015  0.4301  0.6902  1.5181
  163OSM    C1418292   5.043   0.385   1.940 -0.0162  0.2906 -0.3386
  163OSM   H14A18293   5.003   0.431   1.850  0.7905  1.3322 -0.1893
  163OSM   H14B18294   5.111   0.309   1.906  0.2276 -1.2287  3.1943
  163OSM   H14C18295   5.099   0.468   1.982  1.7115  0.2078 -2.2900
  163OSM    C1318296   4.837   0.439   2.039 -0.7085 -0.6236 -0.0500
  163OSM   H13A18297   4.744   0.412   2.085 -2.5135  1.1408 -2.4182
  163OSM   H13B18298   4.836   0.486   1.942  0.2738 -0.8578 -0.1841
  163OSM   H13C18299   4.865   0.522   2.103 -3.6912  1.1807 -0.8990
  163OSM    C1218300   5.000   0.298   2.163 -0.0711 -0.4777  0.3105
  163OSM   H12A18301   5.069   0.216   2.154  2.1965  1.1792  1.4736
  163OSM   H12B18302   4.913   0.261   2.215 -0.5520 -1.4333 -1.1235
  163OSM    C1118303   5.070   0.401   2.254  0.0544  0.6334  1.0239
  163OSM   H11A18304   5.081   0.363   2.358 -0.2253 -1.3087  0.3967
  163OSM   H11B18305   5.004   0.490   2.262  1.4327  1.7239  0.5159
  163OSM      P18306   5.284   0.558   2.239 -0.1387  0.0762  0.1295
  163OSM    O1318307   5.411   0.535   2.177 -0.0537 -0.2096 -0.3260
  163OSM    O1418308   5.224   0.689   2.215 -0.1546 -0.5989  0.0265
  163OSM    O1118309   5.295   0.527   2.390  0.1244  0.4650  0.3128
  163OSM    O1218310   5.191   0.447   2.189  0.2560 -0.7131  0.7370
  163OSM    C1S18311   5.351   0.619   2.487  0.0606  0.4161  0.6183
  163OSM    H1S18312   5.285   0.709   2.490  0.3815  0.6940 -0.3023
  163OSM    H1T18313   5.452   0.648   2.450  1.6294 -1.6861  2.9327
  163OSM     NF18314   5.416   0.651   2.734 -0.2229 -0.3002 -0.3835
  163OSM    HNF18315   5.513   0.644   2.758 -0.1175 -0.4213 -0.8316
  163OSM    C2S18316   5.379   0.551   2.630 -0.8732 -0.6652  0.1209
  163OSM    H2S18317   5.280   0.509   2.659 -0.2366 -1.2521  1.4749
  163OSM    C3S18318   5.478   0.426   2.620 -0.2613 -0.2785 -0.1893
  163OSM    H3S18319   5.579   0.467   2.598 -1.4858  2.8668 -0.5915
  163OSM     O318320   5.467   0.347   2.500 -0.1952  0.3908  0.0046
  163OSM    HO318321   5.420   0.409   2.444 -1.7976  0.0598  0.9085
  163OSM    C4S18322   5.470   0.351   2.746 -0.3345  0.0394 -0.1897
  163OSM    H4S18323   5.529   0.414   2.815  2.6660 -3.6975  0.9880
  163OSM    C5S18324   5.430   0.232   2.791 -0.2799 -0.2059 -0.3512
  163OSM    H5S18325   5.395   0.156   2.719  2.4012 -3.3959  1.4215
  163OSM    C6S18326   5.442   0.161   2.922  0.1410 -0.0126  0.1842
  163OSM    H6S18327   5.504   0.069   2.924  0.4512  0.1987  1.1271
  163OSM    H6T18328   5.338   0.128   2.943  0.2452 -1.5327 -1.4698
  163OSM    C7S18329   5.502   0.244   3.032 -0.2170 -0.0124 -0.5799
  163OSM    H7S18330   5.425   0.315   3.069 -0.1184 -0.1576 -0.0904
  163OSM    H7T18331   5.582   0.317   3.006  0.0662  0.2887  1.0080
  163OSM    C8S18332   5.522   0.155   3.156 -0.4547  0.0687  0.4689
  163OSM    H8S18333   5.613   0.093   3.139  0.9915  2.2626 -0.2691
  163OSM    H8T18334   5.433   0.093   3.181  0.6460 -1.9017 -0.3391
  163OSM    C9S18335   5.558   0.231   3.285 -0.5526 -0.7252  0.0442
  163OSM    H9S18336   5.480   0.302   3.319  0.2972  0.0250  0.4540
  163OSM    H9T18337   5.653   0.281   3.259 -1.7338  0.5956 -2.0921
  163OSM   C10S18338   5.592   0.130   3.394  0.1260 -0.5520  0.1084
  163OSM   H10S18339   5.661   0.052   3.353  0.4742 -0.1971  0.0134
  163OSM   H10T18340   5.501   0.072   3.419 -1.1069  0.9352 -0.7951
  163OSM   C11S18341   5.625   0.212   3.520 -0.1508  0.4717 -0.5518
  163OSM   H11S18342   5.535   0.273   3.541 -0.7761 -0.8518  0.8360
  163OSM   H11T18343   5.710   0.284   3.516 -0.7477  1.1334 -1.8188
  163OSM   C12S18344   5.629   0.136   3.652  0.3294 -0.1589 -0.3940
  163OSM   H12S18345   5.708   0.058   3.655  0.5105  0.0585  1.2838
  163OSM   H12T18346   5.528   0.094   3.673  0.7187  0.1710  2.5978
  163OSM   C13S18347   5.652   0.242   3.767 -0.4421 -0.1209  0.7589
  163OSM   H13S18348   5.584   0.330   3.769  0.7373  0.8210 -0.0084
  163OSM   H13T18349   5.749   0.291   3.745 -0.2380  0.4931  2.7837
  163OSM   C14S18350   5.662   0.181   3.908  0.4305 -0.0916 -0.4209
  163OSM   H14S18351   5.720   0.086   3.900  0.8561  0.0428  0.7804
  163OSM   H14T18352   5.559   0.154   3.938  0.4309  0.0675 -0.2727
  163OSM   C15S18353   5.736   0.267   4.008 -0.8248 -0.0422 -0.0052
  163OSM   H15S18354   5.702   0.371   4.029  2.2457  0.9449  0.6553
  163OSM   H15T18355   5.842   0.278   3.976 -0.2495 -1.2353  1.3617
  163OSM   C16S18356   5.752   0.225   4.158 -0.2126  0.5886  0.6432
  163OSM   H16S18357   5.812   0.301   4.210  0.2918  0.1288  0.7408
  163OSM   H16T18358   5.819   0.137   4.153 -1.1151 -0.1304  0.7964
  163OSM   C17S18359   5.621   0.193   4.220 -0.2844 -0.3324 -0.2485
  163OSM   H17S18360   5.656   0.151   4.317  0.8636 -1.5897 -1.1839
  163OSM   H17T18361   5.568   0.112   4.167  1.7025 -2.5113  0.9197
  163OSM   C18S18362   5.524   0.312   4.246  0.3557  0.4409 -0.2341
  163OSM   H18S18363   5.452   0.271   4.319  2.7067 -2.0563  0.8377
  163OSM   H18T18364   5.489   0.342   4.145  1.0943 -0.6744 -0.8557
  163OSM   H18U18365   5.572   0.392   4.306 -1.0865  0.2168  1.2957
  163OSM    C1F18366   5.343   0.761   2.769 -0.3179 -0.0925  0.2326
  163OSM     OF18367   5.233   0.773   2.718  0.3211 -0.0099 -0.5032
  163OSM    C2F18368   5.399   0.853   2.871  0.1049  0.0504 -0.9199
  163OSM    H2F18369   5.480   0.805   2.931 -1.7236 -0.8863  0.9152
  163OSM    H2G18370   5.315   0.890   2.933  0.6020  0.6375 -0.5767
  163OSM    C3F18371   5.452   0.978   2.795  0.3541  0.2880 -0.8233
  163OSM    H3F18372   5.360   1.014   2.744 -2.1680 -0.4574  2.8471
  163OSM    H3G18373   5.520   0.957   2.709  0.1793 -2.6083 -0.3748
  163OSM    C4F18374   5.504   1.094   2.883 -0.3623 -0.1052  0.1722
  163OSM    H4F18375   5.513   1.178   2.812 -1.0398 -0.2522 -0.0912
  163OSM    H4G18376   5.610   1.071   2.909 -1.0428 -1.9967  1.4749
  163OSM    C5F18377   5.434   1.124   3.014  0.2045  0.2239 -0.2357
  163OSM    H5F18378   5.464   1.032   3.067  2.5651  0.4635 -1.0356
  163OSM    H5G18379   5.324   1.134   2.998  0.2738  0.6566 -0.4592
  163OSM    C6F18380   5.477   1.246   3.092  0.0024  1.2409  0.0943
  163OSM    H6F18381   5.499   1.318   3.010 -0.4508  1.4357  0.1408
  163OSM    H6G18382   5.577   1.227   3.136  0.6019 -0.1388 -1.6901
  163OSM    C7F18383   5.366   1.321   3.168 -0.2619  0.0448 -0.7586
  163OSM    H7F18384   5.277   1.329   3.102 -0.1186  0.9147 -0.8654
  163OSM    H7G18385   5.399   1.423   3.197  0.9402 -0.0822 -1.5954
  163OSM    C8F18386   5.318   1.252   3.301 -0.2551 -0.0634  0.3527
  163OSM    H8F18387   5.300   1.146   3.273  2.5950 -1.3657  2.8097
  163OSM    H8G18388   5.219   1.294   3.329 -0.3001  0.1554 -0.1332
  163OSM    C9F18389   5.438   1.250   3.398 -0.2557  0.1120  0.5581
  163OSM    H9F18390   5.540   1.273   3.363 -0.8096  2.0542  0.1168
  163OSM   C10F18391   5.418   1.224   3.527 -0.0372  0.1385  0.3966
  163OSM   H10F18392   5.501   1.211   3.598 -0.2359 -1.8843  0.3084
  163OSM   C11F18393   5.282   1.210   3.598  0.2554 -0.8106  0.3237
  163OSM   H11F18394   5.229   1.114   3.579 -1.3623  0.3696 -1.5040
  163OSM   H11G18395   5.208   1.287   3.568  2.0132 -0.3836 -3.6045
  163OSM   C12F18396   5.307   1.200   3.749 -0.2099 -0.1808 -0.4061
  163OSM   H12F18397   5.368   1.288   3.777  1.0682 -0.7646 -1.2348
  163OSM   H12G18398   5.361   1.106   3.773 -0.6486  0.0311  1.5840
  163OSM   C13F18399   5.171   1.203   3.821 -0.4535  0.3273  0.0093
  163OSM   H13F18400   5.119   1.105   3.818  1.7918 -0.9152 -1.1191
  163OSM   H13G18401   5.113   1.284   3.772  0.0013  0.4161 -0.3797
  163OSM   C14F18402   5.175   1.237   3.975 -0.0885  0.7715  0.3370
  163OSM   H14F18403   5.201   1.344   3.989  0.6907  0.7462 -0.7353
  163OSM   H14G18404   5.254   1.165   4.005 -2.3728 -1.6539  0.8829
  163OSM   C15F18405   5.042   1.191   4.036  0.5373  0.2872 -0.1132
  163OSM   H15F18406   5.044   1.081   4.017 -1.1572  0.3590 -0.8235
  163OSM   H15G18407   4.943   1.225   3.998  0.5837 -0.5350 -1.0273
  163OSM   C16F18408   5.045   1.213   4.184  0.1644  0.1145 -0.2535
  163OSM   H16F18409   5.147   1.188   4.219 -0.6871 -0.4909  1.9776
  163OSM   H16G18410   4.974   1.141   4.231 -1.7491  1.5432 -0.8484
  163OSM   C17F18411   4.999   1.347   4.237  0.7828  0.7971  0.2911
  163OSM   H17F18412   4.913   1.389   4.179  0.1360 -0.5723  0.2328
  163OSM   H17G18413   5.074   1.425   4.210  1.5097 -0.6510 -2.1527
  163OSM   C18F18414   4.964   1.361   4.389  0.5858  0.0527 -0.5913
  163OSM   H18F18415   4.885   1.292   4.424  0.2597  0.8383  0.2549
  163OSM   H18G18416   4.922   1.460   4.417  1.0303  0.3885 -1.0797
  163OSM   H18H18417   5.048   1.330   4.455 -0.1931 -1.4649 -0.2569
  164OSM      N18418   0.527   0.901   2.012  1.3270  0.1579  0.0425
  164OSM    C1518419   0.434   0.855   2.123  0.3942 -0.1259  0.7429
  164OSM   H15A18420   0.349   0.805   2.080 -0.2699  2.6005 -1.4345
  164OSM   H15B18421   0.401   0.942   2.177  0.7158 -0.1140  0.9261
  164OSM   H15C18422   0.486   0.797   2.198  0.4608 -1.3403 -0.2063
  164OSM    C1418423   0.586   0.786   1.947  0.1529  0.1517  0.1946
  164OSM   H14A18424   0.516   0.704   1.958  0.0203  0.1361 -0.6720
  164OSM   H14B18425   0.680   0.765   1.994  0.8170 -1.8061 -1.8380
  164OSM   H14C18426   0.612   0.786   1.842 -0.2420 -0.1439  0.0954
  164OSM    C1318427   0.434   0.985   1.926 -0.2057 -0.0774  0.0389
  164OSM   H13A18428   0.489   1.030   1.845 -1.2851 -0.1024 -0.7295
  164OSM   H13B18429   0.387   1.060   1.987 -0.1934 -0.0728  0.0425
  164OSM   H13C18430   0.350   0.930   1.886 -0.1642  0.5674 -0.9837
  164OSM    C1218431   0.643   0.979   2.065 -0.1663 -0.7676  0.1043
  164OSM   H12A18432   0.715   1.005   1.989 -2.0489  0.5533 -1.3326
  164OSM   H12B18433   0.701   0.910   2.125  3.0791 -0.1261 -1.9972
  164OSM    C1118434   0.617   1.101   2.153  0.0794 -0.6983  0.1459
  164OSM   H11A18435   0.713   1.155   2.164  0.1856 -0.4917 -1.6354
  164OSM   H11B18436   0.589   1.068   2.256 -1.0548 -3.0296 -0.8312
  164OSM      P18437   0.409   1.264   2.184 -0.1673 -0.0164 -0.2615
  164OSM    O1318438   0.372   1.380   2.105 -0.1122 -0.0232 -0.0611
  164OSM    O1418439   0.301   1.166   2.213  0.0524  0.2160  0.0305
  164OSM    O1118440   0.492   1.296   2.309  0.5952 -0.0105  0.2441
  164OSM    O1218441   0.519   1.187   2.099  0.2361  0.3942 -0.8744
  164OSM    C1S18442   0.451   1.400   2.396  0.5156 -0.4539  0.4642
  164OSM    H1S18443   0.341   1.405   2.412  0.5939  0.1723  0.8630
  164OSM    H1T18444   0.476   1.496   2.348 -2.4590  1.0821  1.7098
  164OSM     NF18445   0.489   1.517   2.615  0.2698 -0.0904  0.1342
  164OSM    HNF18446   0.559   1.582   2.642 -1.1271  1.3231  0.5257
  164OSM    C2S18447   0.525   1.398   2.535 -0.2070  0.4573 -0.0495
  164OSM    H2S18448   0.488   1.306   2.584  3.5132 -1.3720 -0.3432
  164OSM    C3S18449   0.679   1.371   2.523 -0.8159  0.2931  0.2831
  164OSM    H3S18450   0.729   1.460   2.480  0.1293 -0.0609  0.6129
  164OSM     O318451   0.718   1.257   2.441 -0.0416  0.6102 -0.0229
  164OSM    HO318452   0.642   1.227   2.390 -1.1494  2.7783  0.2301
  164OSM    C4S18453   0.747   1.371   2.661 -0.5232 -0.6145  0.3743
  164OSM    H4S18454   0.769   1.475   2.689 -1.3594  0.0310 -1.2142
  164OSM    C5S18455   0.780   1.274   2.738 -0.3756  0.5012 -0.8216
  164OSM    H5S18456   0.770   1.171   2.701  1.8382  0.0885 -0.4003
  164OSM    C6S18457   0.859   1.296   2.872  0.0785  0.4075  0.4351
  164OSM    H6S18458   0.876   1.403   2.894  0.2861  0.0401  2.1723
  164OSM    H6T18459   0.959   1.248   2.864 -0.4173 -0.3918 -1.7746
  164OSM    C7S18460   0.793   1.228   2.989 -0.1306  0.1720  0.0680
  164OSM    H7S18461   0.795   1.124   2.949 -0.0776 -0.1490  0.8871
  164OSM    H7T18462   0.687   1.262   2.992 -0.4086 -0.5696 -0.9234
  164OSM    C8S18463   0.859   1.250   3.123  0.6954  0.1751 -0.4596
  164OSM    H8S18464   0.910   1.349   3.117 -1.3958  1.3076 -0.4129
  164OSM    H8T18465   0.939   1.177   3.148 -0.9640 -1.8922 -0.9212
  164OSM    C9S18466   0.755   1.251   3.239  0.2777 -0.1396 -0.1028
  164OSM    H9S18467   0.706   1.152   3.250  0.0135 -0.0394 -0.3930
  164OSM    H9T18468   0.675   1.326   3.220  0.8338 -0.4736 -4.8086
  164OSM   C10S18469   0.808   1.287   3.376 -0.6124  0.1237 -0.8692
  164OSM   H10S18470   0.859   1.386   3.368  0.1547 -0.3206 -1.6674
  164OSM   H10T18471   0.887   1.214   3.406 -2.5608 -0.9527  2.1174
  164OSM   C11S18472   0.707   1.286   3.493 -0.0905 -0.5389 -0.1104
  164OSM   H11S18473   0.660   1.188   3.513 -2.2842  0.6178  0.7602
  164OSM   H11T18474   0.623   1.354   3.466  0.3798  0.0570 -0.1096
  164OSM   C12S18475   0.762   1.332   3.629 -0.3852  0.3341 -0.2491
  164OSM   H12S18476   0.683   1.328   3.706  0.3651  0.3192  0.5433
  164OSM   H12T18477   0.799   1.437   3.625 -3.3605  1.4850 -0.1483
  164OSM   C13S18478   0.875   1.239   3.688 -0.5904  0.4804  0.3006
  164OSM   H13S18479   0.975   1.263   3.645  1.7142  0.0252  4.7679
  164OSM   H13T18480   0.847   1.137   3.655 -0.7094  1.4326 -2.8764
  164OSM   C14S18481   0.895   1.252   3.844  0.1385  0.0117  0.4263
  164OSM   H14S18482   0.903   1.363   3.851 -0.6980  0.1089 -0.0481
  164OSM   H14T18483   0.999   1.218   3.865  0.4893  2.0359  2.3010
  164OSM   C15S18484   0.793   1.179   3.934  0.0594  0.2132  0.3877
  164OSM   H15S18485   0.770   1.074   3.907  0.1674 -0.4276  2.5836
  164OSM   H15T18486   0.692   1.225   3.933  1.7850  4.4333 -0.9448
  164OSM   C16S18487   0.846   1.197   4.081  0.2270 -0.1136 -0.1059
  164OSM   H16S18488   0.855   1.307   4.097  0.3398 -0.3967  2.1166
  164OSM   H16T18489   0.944   1.147   4.091  0.6436  0.2738 -1.9252
  164OSM   C17S18490   0.738   1.143   4.183  0.5823  0.5348  0.9217
  164OSM   H17S18491   0.717   1.034   4.176 -2.9869  1.1697 -2.5009
  164OSM   H17T18492   0.634   1.172   4.157  0.6595 -1.5284 -2.3457
  164OSM   C18S18493   0.768   1.190   4.325 -0.0556 -0.1325  0.4131
  164OSM   H18S18494   0.838   1.121   4.376  1.5440  1.1122 -0.0178
  164OSM   H18T18495   0.671   1.195   4.379  0.2144 -0.9820  0.9944
  164OSM   H18U18496   0.804   1.295   4.334 -1.9848  0.5314  0.8398
  164OSM    C1F18497   0.368   1.564   2.648 -0.2155  0.0035  0.4757
  164OSM     OF18498   0.263   1.498   2.629  0.1685 -0.2213 -0.1737
  164OSM    C2F18499   0.368   1.705   2.707 -0.6745 -0.0521 -0.6397
  164OSM    H2F18500   0.384   1.787   2.634  1.3089  0.1433 -0.0587
  164OSM    H2G18501   0.454   1.707   2.777  0.2331  1.1806 -1.7437
  164OSM    C3F18502   0.243   1.727   2.793  0.2717 -0.2411 -0.2820
  164OSM    H3F18503   0.200   1.636   2.840 -0.7345  1.3854  2.1166
  164OSM    H3G18504   0.168   1.760   2.718  0.9869 -0.6564 -1.2114
  164OSM    C4F18505   0.251   1.833   2.907  0.0314  0.3296 -0.5524
  164OSM    H4F18506   0.148   1.844   2.948 -0.4330 -1.0952 -1.2994
  164OSM    H4G18507   0.287   1.929   2.863  0.6323 -0.0935 -0.9863
  164OSM    C5F18508   0.358   1.808   3.015 -0.7764 -0.0903  0.2253
  164OSM    H5F18509   0.440   1.881   3.000 -1.3457  0.4654 -0.2240
  164OSM    H5G18510   0.400   1.705   3.005  1.1001  0.7565 -1.2478
  164OSM    C6F18511   0.295   1.815   3.159 -0.2092 -0.4399  0.3871
  164OSM    H6F18512   0.357   1.759   3.232 -0.3116  0.9034  1.5537
  164OSM    H6G18513   0.198   1.762   3.149  0.4147 -1.3233 -1.4506
  164OSM    C7F18514   0.275   1.958   3.204 -0.3008 -0.2203 -0.3419
  164OSM    H7F18515   0.208   2.011   3.133 -1.0190  0.2820  0.6870
  164OSM    H7G18516   0.373   2.010   3.199  0.3567 -1.3164  0.6945
  164OSM    C8F18517   0.215   1.969   3.343 -0.0055 -0.0358  0.6776
  164OSM    H8F18518   0.292   1.919   3.406 -0.7029  0.5927  2.0471
  164OSM    H8G18519   0.119   1.912   3.342 -0.0282 -0.0078 -0.5433
  164OSM    C9F18520   0.206   2.107   3.400 -0.4190 -0.5042 -0.6862
  164OSM    H9F18521   0.180   2.191   3.334  0.4954 -0.3531 -0.8781
  164OSM   C10F18522   0.235   2.126   3.530 -0.3894 -0.3363  0.3380
  164OSM   H10F18523   0.223   2.225   3.576  0.2571 -0.6691  1.2752
  164OSM   C11F18524   0.275   2.026   3.634 -1.1408  0.5102  0.4557
  164OSM   H11F18525   0.385   2.013   3.639 -0.8049  0.6124 -3.3515
  164OSM   H11G18526   0.223   1.928   3.622  1.8724 -1.2304  0.5646
  164OSM   C12F18527   0.225   2.065   3.775  0.0843 -0.1065  0.1704
  164OSM   H12F18528   0.118   2.094   3.763 -0.1636 -1.9062 -2.9979
  164OSM   H12G18529   0.276   2.163   3.790 -1.3455  0.4855  1.4146
  164OSM   C13F18530   0.252   1.979   3.887 -0.3395 -0.0711 -0.5750
  164OSM   H13F18531   0.352   1.999   3.932 -1.0347  2.0223  0.1217
  164OSM   H13G18532   0.250   1.875   3.847  0.0553 -0.5174  0.5204
  164OSM   C14F18533   0.163   1.985   4.013 -0.4459 -0.5734  0.2324
  164OSM   H14F18534   0.184   1.893   4.073  1.7941 -0.4580 -0.3251
  164OSM   H14G18535   0.062   1.978   3.966  0.2340 -0.6567 -1.2722
  164OSM   C15F18536   0.181   2.111   4.091 -0.0222 -0.0336 -0.8176
  164OSM   H15F18537   0.104   2.190   4.076  0.4314  0.2579 -1.6722
  164OSM   H15G18538   0.280   2.154   4.064  0.0393  1.7931  1.8892
  164OSM   C16F18539   0.182   2.095   4.244  0.3771  0.6750 -0.3290
  164OSM   H16F18540   0.231   2.001   4.277 -2.2983 -0.7707 -0.1279
  164OSM   H16G18541   0.077   2.090   4.281  0.4489  0.4752 -0.1507
  164OSM   C17F18542   0.253   2.217   4.306  0.5281 -0.2281 -0.8855
  164OSM   H17F18543   0.235   2.296   4.230 -0.4277 -0.3883 -0.8400
  164OSM   H17G18544   0.361   2.205   4.286  0.9131  2.3126 -0.6885
  164OSM   C18F18545   0.207   2.247   4.445 -0.0002  0.0622  0.1084
  164OSM   H18F18546   0.230   2.164   4.514  0.0500 -0.0668 -0.0619
  164OSM   H18G18547   0.100   2.274   4.453 -0.3276 -0.5838 -1.6231
  164OSM   H18H18548   0.259   2.337   4.485  0.0184  0.0053  0.2119
  165SAPS     N18549   6.481   2.432   7.439  0.3735  0.3016 -0.0631
  165SAPS   HN118550   6.571   2.398   7.478 -0.3024 -1.2534  0.2355
  165SAPS   HN218551   6.413   2.354   7.449 -1.1418  1.7307  1.4106
  165SAPS   HN318552   6.492   2.439   7.336  2.4052  0.0526  0.0907
  165SAPS   C1218553   6.430   2.555   7.497  0.4303 -0.3127  1.1982
  165SAPS  H12A18554   6.379   2.524   7.588 -0.6762 -1.8038  0.1239
  165SAPS   C1318555   6.544   2.652   7.538  0.1459 -0.3830 -0.7272
  165SAPS  O13A18556   6.658   2.611   7.567 -0.2258  0.7099  0.0117
  165SAPS  O13B18557   6.512   2.772   7.573  0.0879  0.0945  0.2590
  165SAPS   C1118558   6.329   2.627   7.403  0.4126  0.4118 -0.1699
  165SAPS  H11A18559   6.370   2.632   7.300  1.6917 -2.6410  0.0849
  165SAPS  H11B18560   6.310   2.732   7.434 -2.4265  0.0609 -0.4635
  165SAPS     P18561   6.088   2.605   7.325 -0.2864  0.2805  0.0081
  165SAPS   O1318562   5.972   2.624   7.407  0.0946  0.0593  0.2312
  165SAPS   O1418563   6.142   2.721   7.245 -0.5383 -0.0909  0.0252
  165SAPS   O1218564   6.209   2.556   7.411  0.5788  0.1412 -0.1254
  165SAPS   O1118565   6.072   2.482   7.232 -0.0587  0.7495 -0.3538
  165SAPS    C118566   6.173   2.452   7.132 -0.7574 -0.5979 -0.2604
  165SAPS    HA18567   6.272   2.456   7.183 -0.8188 -0.1362 -0.1646
  165SAPS    HB18568   6.163   2.348   7.094 -1.8726 -0.9718  0.9616
  165SAPS    C218569   6.167   2.550   7.007 -0.5818  0.2755  0.8301
  165SAPS    HS18570   6.214   2.648   7.032  2.1660 -0.9597  0.8880
  165SAPS   O2118571   6.035   2.548   6.951 -0.0761  0.1811 -0.3077
  165SAPS   C2118572   5.962   2.660   6.938 -0.1279  0.6715 -0.1027
  165SAPS   O2218573   6.013   2.771   6.948 -0.0850 -0.4824 -0.1817
  165SAPS   C2218574   5.820   2.626   6.888  0.2436  0.9477 -0.3320
  165SAPS   H2R18575   5.811   2.520   6.857 -1.9354  1.5990 -2.1829
  165SAPS   H2S18576   5.750   2.625   6.973  1.2272  0.8124  0.4990
  165SAPS    C318577   6.268   2.510   6.892 -0.6106 -0.2487 -1.1688
  165SAPS    HX18578   6.363   2.473   6.937 -0.9333  0.1572 -0.1080
  165SAPS    HY18579   6.290   2.593   6.822  1.1426  0.4830  0.1703
  165SAPS   O3118580   6.221   2.400   6.825 -0.3175  0.8038  0.0822
  165SAPS   C3118581   6.158   2.417   6.712 -1.0280 -0.1021 -0.0285
  165SAPS   O3218582   6.142   2.521   6.647 -0.4617  0.3530 -0.4917
  165SAPS   C3218583   6.124   2.273   6.656  0.5294  0.8388  0.2464
  165SAPS   H2X18584   6.067   2.221   6.736 -1.5385  0.0840 -1.6206
  165SAPS   H2Y18585   6.219   2.219   6.634  0.0949  0.7422 -1.5248
  165SAPS   C2318586   5.763   2.705   6.771  0.8085  0.0267  0.0191
  165SAPS   H3R18587   5.827   2.705   6.681  0.3452 -0.8683 -0.3259
  165SAPS   H3S18588   5.752   2.810   6.804  0.6452 -0.2974  1.0339
  165SAPS   C2418589   5.624   2.645   6.738 -0.3687  1.0511  0.1913
  165SAPS   H4R18590   5.558   2.661   6.826 -1.2223  0.0042 -0.2330
  165SAPS   H4S18591   5.637   2.538   6.708 -1.3351  0.3077  2.2610
  165SAPS   C2518592   5.574   2.729   6.624  0.5107  0.1070  0.4352
  165SAPS   H5R18593   5.508   2.802   6.673 -2.3927 -2.5107  0.7135
  165SAPS   C2618594   5.583   2.708   6.494  0.0142 -1.0375  0.4527
  165SAPS   H6R18595   5.538   2.784   6.428  1.5842 -0.8626 -0.4710
  165SAPS   C2718596   5.669   2.601   6.426 -0.5605  0.9958  0.0846
  165SAPS   H7R18597   5.618   2.566   6.334 -2.6905  3.4782  0.1959
  165SAPS   H7S18598   5.673   2.507   6.484 -0.5088  1.7518  1.3465
  165SAPS   C2818599   5.812   2.652   6.404 -0.1462  0.7694 -0.0985
  165SAPS   H8R18600   5.872   2.685   6.490  0.9695  0.1838 -0.6311
  165SAPS   C2918601   5.867   2.668   6.285  0.2723 -0.4881 -0.2863
  165SAPS   H9R18602   5.968   2.711   6.294 -0.8384  2.4162 -0.4563
  165SAPS  C21018603   5.798   2.658   6.145 -0.5629  0.4546 -0.6076
  165SAPS  H10R18604   5.690   2.647   6.172  0.0776  0.6551  2.4520
  165SAPS  H10S18605   5.828   2.565   6.092 -0.2592  0.3494 -0.2531
  165SAPS  C21118606   5.819   2.796   6.080 -0.7567  0.6021  0.1209
  165SAPS  H11R18607   5.798   2.880   6.148 -0.2025  1.3259 -0.5846
  165SAPS  C21218608   5.887   2.815   5.964 -0.3845 -0.7515 -0.0310
  165SAPS  H12R18609   5.879   2.920   5.934 -3.2926 -1.1290 -0.8384
  165SAPS  C21318610   5.950   2.712   5.870 -0.1791  0.1580  1.0196
  165SAPS  H13R18611   5.935   2.611   5.914 -0.1562 -0.1202  0.3971
  165SAPS  H13S18612   6.059   2.726   5.888  0.2736 -2.9408  1.2999
  165SAPS  C21418613   5.904   2.715   5.724  0.0330  0.5873 -0.1973
  165SAPS  H14R18614   5.974   2.766   5.657 -0.1592  0.2687 -0.6435
  165SAPS  C21518615   5.795   2.657   5.670 -0.2846 -0.0811  0.0969
  165SAPS  H15R18616   5.780   2.671   5.562  0.3350  1.8593  0.2283
  165SAPS  C21618617   5.690   2.574   5.735 -0.4356 -0.3038 -0.3105
  165SAPS  H16R18618   5.713   2.546   5.840 -2.6638  0.2941  0.4083
  165SAPS  H16S18619   5.661   2.481   5.682 -0.0227 -0.0808 -0.9376
  165SAPS  C21718620   5.570   2.681   5.739 -0.5524 -0.1783  0.3296
  165SAPS  H17R18621   5.548   2.701   5.632  1.7296 -0.2025 -0.1977
  165SAPS  H17S18622   5.602   2.780   5.779  1.5758 -0.9283  0.6147
  165SAPS  C21818623   5.449   2.625   5.813  0.1805 -0.2378  0.1885
  165SAPS  H18R18624   5.439   2.518   5.785 -0.7556  0.3360 -1.8951
  165SAPS  H18S18625   5.356   2.670   5.772  0.4051 -0.2650 -0.3670
  165SAPS  C21918626   5.464   2.645   5.970 -0.0744  0.5163  0.1730
  165SAPS  H19R18627   5.493   2.750   5.992 -2.6382  0.9053  2.2060
  165SAPS  H19S18628   5.546   2.579   6.004 -0.8985 -0.5197  0.1906
  165SAPS  C22018629   5.331   2.611   6.054 -0.2568  0.5934  0.2271
  165SAPS  H20R18630   5.347   2.601   6.163 -0.0547  0.7187  0.2091
  165SAPS  H20S18631   5.294   2.511   6.022 -0.8224  0.8042  0.2023
  165SAPS  H20T18632   5.256   2.689   6.029 -1.6293 -0.1758  1.8279
  165SAPS   C3318633   6.037   2.272   6.531 -0.1712  0.4756  0.0703
  165SAPS   H3X18634   5.954   2.346   6.537 -0.1560  0.4803  0.2296
  165SAPS   H3Y18635   5.988   2.173   6.521  2.6779 -1.2217  1.6094
  165SAPS   C3418636   6.118   2.289   6.403 -0.3176 -0.2128  0.9329
  165SAPS   H4X18637   6.199   2.214   6.389  0.4070  0.3844  1.8036
  165SAPS   H4Y18638   6.165   2.390   6.396 -1.6319  0.2999 -2.8056
  165SAPS   C3518639   6.026   2.281   6.279  0.3001  0.0803  0.2035
  165SAPS   H5X18640   5.943   2.350   6.306  0.2920  0.5519 -0.9590
  165SAPS   H5Y18641   5.977   2.182   6.268  0.9451 -0.0970 -1.3519
  165SAPS   C3618642   6.086   2.323   6.150 -0.7405 -0.0930 -0.3786
  165SAPS   H6X18643   6.184   2.272   6.136 -0.1843  0.7078  0.4481
  165SAPS   H6Y18644   6.112   2.431   6.161  2.1361 -0.5637 -1.7346
  165SAPS   C3718645   5.996   2.308   6.029 -0.0014  0.4259 -0.1422
  165SAPS   H7X18646   5.917   2.387   6.036  0.3481  0.7081  0.6376
  165SAPS   H7Y18647   5.953   2.206   6.036 -0.9395  0.7419 -0.9164
  165SAPS   C3818648   6.077   2.343   5.897 -0.2950  0.9532  0.3218
  165SAPS   H8X18649   6.167   2.280   5.888 -0.4194  0.5623  1.6287
  165SAPS   H8Y18650   6.111   2.449   5.886 -0.4936  0.8627 -1.5521
  165SAPS   C3918651   5.975   2.315   5.782 -0.3364  0.0673 -0.1366
  165SAPS   H9X18652   5.871   2.346   5.805 -0.0854 -0.2050  1.4649
  165SAPS   H9Y18653   5.987   2.206   5.765  1.8737  0.1035  0.8572
  165SAPS  C31018654   6.030   2.376   5.649  0.2120  0.0771  0.6527
  165SAPS  H10X18655   6.141   2.379   5.640  0.4232  1.0689  2.8579
  165SAPS  H10Y18656   5.992   2.479   5.633 -1.0536 -0.7461 -2.2213
  165SAPS  C31118657   5.988   2.294   5.529  0.3253  0.0721 -0.0819
  165SAPS  H11X18658   5.879   2.272   5.527  0.0694  1.0728  1.0661
  165SAPS  H11Y18659   6.056   2.207   5.528  0.5732  0.2512 -1.4339
  165SAPS  C31218660   6.020   2.367   5.399 -0.0053 -0.4422  0.4426
  165SAPS  H12X18661   6.130   2.371   5.383 -0.1488 -4.2503 -3.5638
  165SAPS  H12Y18662   5.980   2.469   5.418  1.4622 -0.1255  2.0309
  165SAPS  C31318663   5.945   2.304   5.279 -0.4059  0.4213 -0.6937
  165SAPS  H13X18664   5.836   2.324   5.292 -0.2616 -0.2872  2.0199
  165SAPS  H13Y18665   5.951   2.193   5.279 -1.6179  0.3446  0.0121
  165SAPS  C31418666   5.995   2.351   5.142 -0.4070  0.5369  0.6289
  165SAPS  H14X18667   6.106   2.342   5.136 -0.6534 -2.6717 -1.8189
  165SAPS  H14Y18668   5.964   2.457   5.135 -1.1513  0.4855  2.5698
  165SAPS  C31518669   5.965   2.262   5.018  0.3210  0.7909  0.3489
  165SAPS  H15X18670   5.854   2.260   5.013  0.2703 -0.5704  1.3920
  165SAPS  H15Y18671   5.986   2.159   5.055 -0.7962  0.5479  0.3472
  165SAPS  C31618672   6.007   2.300   4.881 -0.0073 -0.6164 -0.8619
  165SAPS  H16X18673   5.967   2.223   4.812  1.6666 -1.4261 -0.9819
  165SAPS  H16Y18674   6.115   2.292   4.903 -0.5049 -2.6789  1.2219
  165SAPS  C31718675   5.980   2.445   4.837 -0.8460  0.7162 -0.0473
  165SAPS  H17X18676   6.036   2.455   4.742 -0.5721 -2.1961 -0.2798
  165SAPS  H17Y18677   6.021   2.524   4.904 -0.2417  1.3914 -1.1761
  165SAPS  C31818678   5.837   2.480   4.813 -0.6432  0.4447  0.0446
  165SAPS  H18X18679   5.780   2.386   4.795  0.6174 -0.6616  1.4941
  165SAPS  H18Y18680   5.840   2.558   4.735  1.5830  1.1878  0.7852
  165SAPS  H18Z18681   5.798   2.521   4.909 -0.5209  0.4163  0.1077
  166SAPS     N18682   4.623   2.687   6.759  0.6006  0.3635  0.5987
  166SAPS   HN118683   4.574   2.619   6.698  1.4666  0.1471  0.1210
  166SAPS   HN218684   4.585   2.782   6.738  0.7201  0.2055 -0.3475
  166SAPS   HN318685   4.722   2.697   6.728 -0.4176  2.5195 -2.4355
  166SAPS   C1218686   4.616   2.654   6.903  1.1474  0.1434 -0.0968
  166SAPS  H12A18687   4.681   2.719   6.960 -0.2231  0.2459  1.4312
  166SAPS   C1318688   4.480   2.677   6.971  0.9506  0.0408 -0.2050
  166SAPS  O13A18689   4.383   2.714   6.905 -0.4296 -0.1159 -0.3244
  166SAPS  O13B18690   4.466   2.657   7.095 -0.0996  0.6969  0.0342
  166SAPS   C1118691   4.662   2.510   6.914  0.0535 -0.3286 -0.1998
  166SAPS  H11A18692   4.651   2.487   7.022 -3.1929  0.7074 -0.1982
  166SAPS  H11B18693   4.766   2.514   6.876 -0.0837  0.1431 -0.5341
  166SAPS     P18694   4.628   2.266   6.850 -0.3469 -0.3924 -0.3397
  166SAPS   O1318695   4.673   2.245   6.991 -0.2584 -0.1139  0.0303
  166SAPS   O1418696   4.512   2.194   6.798  0.0898  0.6993  0.5090
  166SAPS   O1218697   4.595   2.418   6.829  0.5431  0.0285 -0.1897
  166SAPS   O1118698   4.754   2.248   6.754  0.0602  0.3876 -0.5364
  166SAPS    C118699   4.751   2.309   6.625 -0.5028 -0.0478 -0.4037
  166SAPS    HA18700   4.705   2.410   6.635 -0.7322 -0.2329  0.5509
  166SAPS    HB18701   4.851   2.318   6.579 -0.5362  2.3030 -0.1501
  166SAPS    C218702   4.675   2.230   6.519  0.7183 -1.0921 -0.4518
  166SAPS    HS18703   4.578   2.218   6.571  0.9731 -2.2894 -0.2136
  166SAPS   O2118704   4.726   2.096   6.488  0.0191  0.3104 -0.0454
  166SAPS   C2118705   4.633   2.011   6.452 -0.1383 -0.0696  0.2791
  166SAPS   O2218706   4.513   2.024   6.454  0.2562 -0.0923 -0.6216
  166SAPS   C2218707   4.709   1.887   6.394  0.3409  0.4504 -0.4174
  166SAPS   H2R18708   4.788   1.924   6.325 -0.4713 -0.1658 -1.7150
  166SAPS   H2S18709   4.763   1.838   6.478  0.6809 -2.2453 -2.1018
  166SAPS    C318710   4.649   2.323   6.394 -0.5025  0.4246  0.0690
  166SAPS    HX18711   4.757   2.330   6.369 -0.3553  2.3215  1.0866
  166SAPS    HY18712   4.629   2.428   6.421  0.7760  0.4707  0.9587
  166SAPS   O3118713   4.564   2.258   6.293 -0.5354 -0.4831  0.2762
  166SAPS   C3118714   4.439   2.289   6.314 -0.0301  0.6573  0.8169
  166SAPS   O3218715   4.403   2.372   6.393 -0.2217  0.2806 -0.1986
  166SAPS   C3218716   4.356   2.190   6.234 -0.1801 -0.7666 -0.3891
  166SAPS   H2X18717   4.341   2.106   6.305 -0.5289  0.8161  1.4820
  166SAPS   H2Y18718   4.413   2.138   6.154 -0.4866 -2.1740  0.2850
  166SAPS   C2318719   4.615   1.771   6.325 -0.2396  0.1733 -0.2978
  166SAPS   H3R18720   4.530   1.751   6.393  0.3736  5.0528  2.3516
  166SAPS   H3S18721   4.673   1.679   6.306 -0.5816 -0.2363  0.5969
  166SAPS   C2418722   4.555   1.814   6.190  0.2378  0.1918  0.1940
  166SAPS   H4R18723   4.494   1.906   6.196 -1.0428 -0.7164  2.0079
  166SAPS   H4S18724   4.479   1.735   6.173 -1.0758  1.1049  1.5853
  166SAPS   C2518725   4.652   1.794   6.077  0.0698 -0.3315 -0.4600
  166SAPS   H5R18726   4.678   1.687   6.065 -0.0516 -0.6404  1.5891
  166SAPS   C2618727   4.709   1.895   6.004 -1.0794 -0.4583  0.5583
  166SAPS   H6R18728   4.764   1.866   5.913  1.0226  0.1987  1.5419
  166SAPS   C2718729   4.699   2.051   6.026 -0.0739  0.3709  0.0127
  166SAPS   H7R18730   4.728   2.083   6.128  2.0571  2.2352 -1.0873
  166SAPS   H7S18731   4.594   2.083   6.009  0.1126  0.7207 -0.5193
  166SAPS   C2818732   4.771   2.139   5.922 -0.2260  0.3628  0.3047
  166SAPS   H8R18733   4.863   2.184   5.961  0.1119 -0.3103  0.2881
  166SAPS   C2918734   4.730   2.171   5.803  0.2964 -0.3130  0.0631
  166SAPS   H9R18735   4.797   2.237   5.747  0.7918 -0.6410  0.2627
  166SAPS  C21018736   4.606   2.125   5.730  0.3480  0.3347 -0.0629
  166SAPS  H10R18737   4.536   2.065   5.792  2.3472 -1.0985  0.9115
  166SAPS  H10S18738   4.639   2.057   5.648  2.5399  0.9649  0.2553
  166SAPS  C21118739   4.533   2.238   5.659 -0.6745 -0.1252 -0.2155
  166SAPS  H11R18740   4.443   2.267   5.715 -1.2715  0.3898 -1.3933
  166SAPS  C21218741   4.562   2.295   5.537 -0.1942 -0.2609 -0.1325
  166SAPS  H12R18742   4.507   2.384   5.505 -0.1429 -1.0837 -2.7510
  166SAPS  C21318743   4.680   2.260   5.446  0.8746 -0.7392 -0.8865
  166SAPS  H13R18744   4.777   2.272   5.499  1.1276 -0.1348 -1.4850
  166SAPS  H13S18745   4.683   2.337   5.367  0.9322  0.3520  0.1437
  166SAPS  C21418746   4.660   2.126   5.381 -0.1224 -0.0065  0.9446
  166SAPS  H14R18747   4.636   2.039   5.443  0.5067 -1.0710 -0.2541
  166SAPS  C21518748   4.689   2.110   5.249 -0.0776  0.0844 -0.2153
  166SAPS  H15R18749   4.671   2.011   5.204  1.1948 -0.5595  0.6204
  166SAPS  C21618750   4.738   2.226   5.157 -0.2588 -0.1004 -0.3130
  166SAPS  H16R18751   4.831   2.260   5.207 -0.1120 -1.2140  0.2139
  166SAPS  H16S18752   4.669   2.312   5.148  0.2922  0.3810 -0.0224
  166SAPS  C21718753   4.774   2.177   5.016 -0.1439 -0.1077  0.2684
  166SAPS  H17R18754   4.696   2.110   4.973 -0.5005 -2.7211  4.4568
  166SAPS  H17S18755   4.866   2.114   5.013  0.8427  1.1284  2.4727
  166SAPS  C21818756   4.806   2.297   4.919  0.6555  0.9106  0.3176
  166SAPS  H18R18757   4.900   2.347   4.950  0.6656  0.2400  1.3788
  166SAPS  H18S18758   4.718   2.365   4.919 -0.4969 -0.5531  0.2727
  166SAPS  C21918759   4.838   2.235   4.777  0.3175 -0.1769  0.0557
  166SAPS  H19R18760   4.750   2.180   4.737 -0.2190 -0.3157  1.3678
  166SAPS  H19S18761   4.917   2.158   4.786  0.4563 -0.0060  0.3075
  166SAPS  C22018762   4.882   2.345   4.679  0.4086  0.2716 -0.3031
  166SAPS  H20R18763   4.970   2.404   4.712  0.1271 -0.1664  1.3230
  166SAPS  H20S18764   4.794   2.411   4.661 -1.4482 -1.9267  0.1020
  166SAPS  H20T18765   4.916   2.297   4.584  1.2985  0.3339 -0.0198
  166SAPS   C3318766   4.215   2.233   6.187  0.0100  0.0445 -0.1373
  166SAPS   H3X18767   4.161   2.294   6.263 -1.2089 -0.8536 -0.2474
  166SAPS   H3Y18768   4.164   2.135   6.170  1.5572 -0.8936  0.3791
  166SAPS   C3418769   4.213   2.293   6.043 -0.7119  0.2909 -0.3030
  166SAPS   H4X18770   4.267   2.216   5.983 -0.4953 -0.5766  0.9835
  166SAPS   H4Y18771   4.269   2.388   6.030 -0.9925  0.3224 -1.3673
  166SAPS   C3518772   4.070   2.309   5.987 -0.4697 -0.4662 -0.3435
  166SAPS   H5X18773   4.025   2.371   6.068  0.3894 -0.6060  0.2584
  166SAPS   H5Y18774   4.012   2.214   5.983 -1.9265  0.3216  0.9144
  166SAPS   C3618775   4.062   2.385   5.853 -0.3315  0.0033  0.2669
  166SAPS   H6X18776   4.088   2.492   5.866  0.8647 -0.1129 -1.0355
  166SAPS   H6Y18777   3.954   2.392   5.827 -0.0172  1.0138 -0.8408
  166SAPS   C3718778   4.144   2.317   5.750  0.8137 -0.5931 -0.1692
  166SAPS   H7X18779   4.129   2.207   5.755  0.4213 -0.5528 -0.4713
  166SAPS   H7Y18780   4.253   2.340   5.743  0.8843 -0.4126  1.1409
  166SAPS   C3818781   4.088   2.348   5.611 -0.3018 -0.1779  0.0300
  166SAPS   H8X18782   4.072   2.458   5.607  2.9431  0.4116  0.7862
  166SAPS   H8Y18783   3.988   2.299   5.611  0.3237 -1.6953  2.9148
  166SAPS   C3918784   4.185   2.315   5.498  0.2160 -0.4066  0.2714
  166SAPS   H9X18785   4.197   2.204   5.506 -1.6032 -0.7320 -1.0117
  166SAPS   H9Y18786   4.282   2.367   5.516 -1.1153  2.4476 -0.3947
  166SAPS  C31018787   4.124   2.340   5.359 -0.2324 -0.1787 -0.8526
  166SAPS  H10X18788   4.150   2.443   5.328  1.3937 -0.5336 -0.7890
  166SAPS  H10Y18789   4.013   2.338   5.360 -0.2362 -0.3481  0.5121
  166SAPS  C31118790   4.156   2.227   5.255  0.6768 -0.5001 -0.1100
  166SAPS  H11X18791   4.098   2.255   5.165  1.4576 -1.3628 -0.9107
  166SAPS  H11Y18792   4.117   2.131   5.294  0.5107 -0.6923 -0.7412
  166SAPS  C31218793   4.304   2.227   5.214 -0.4279 -0.3318 -0.5746
  166SAPS  H12X18794   4.361   2.159   5.282  0.2663 -1.0884 -1.8766
  166SAPS  H12Y18795   4.344   2.330   5.226 -0.9462 -0.2700  0.7722
  166SAPS  C31318796   4.331   2.185   5.069 -0.2958  0.0109 -0.3532
  166SAPS  H13X18797   4.439   2.201   5.048 -0.2488  0.3785  0.1609
  166SAPS  H13Y18798   4.271   2.239   4.994 -2.6854 -1.2145  0.5797
  166SAPS  C31418799   4.306   2.033   5.046 -0.1658 -0.2965  0.7261
  166SAPS  H14X18800   4.197   2.014   5.056 -0.3967  1.5131  2.2489
  166SAPS  H14Y18801   4.348   1.982   5.135 -1.4885 -0.5302  1.2302
  166SAPS  C31518802   4.372   1.978   4.918 -0.2213  0.6585  0.2338
  166SAPS  H15X18803   4.372   1.867   4.921  1.8815  0.5456 -1.4779
  166SAPS  H15Y18804   4.479   2.009   4.919  0.8915 -2.8035  1.3166
  166SAPS  C31618805   4.321   2.031   4.785  1.0446 -0.5310  0.3526
  166SAPS  H16X18806   4.394   2.019   4.702  2.3707  5.0143  0.3343
  166SAPS  H16Y18807   4.304   2.140   4.802 -0.5040 -0.8258  0.8313
  166SAPS  C31718808   4.188   1.959   4.738  0.8992 -0.2974  0.1306
  166SAPS  H17X18809   4.128   1.945   4.830  1.7674 -2.5146  0.4044
  166SAPS  H17Y18810   4.219   1.862   4.694  2.8449  1.1261 -1.8400
  166SAPS  C31818811   4.115   2.050   4.634 -0.7109 -0.3062 -0.4982
  166SAPS  H18X18812   4.181   2.065   4.546 -0.5308  2.0397 -0.0279
  166SAPS  H18Y18813   4.110   2.154   4.672  1.9330  0.3132 -1.5804
  166SAPS  H18Z18814   4.019   2.002   4.607 -1.0874 -0.3235  0.8329
  167SAPS     N18815   0.034   4.612   6.883  0.1298 -0.9247 -0.6008
  167SAPS   HN118816  -0.033   4.647   6.812  2.7860  0.6627 -2.5006
  167SAPS   HN218817   0.111   4.573   6.824  0.5112 -0.6114 -0.3200
  167SAPS   HN318818   0.003   4.529   6.939  1.4717  0.5920  2.6933
  167SAPS   C1218819   0.077   4.733   6.969  0.2986 -0.0919  1.0542
  167SAPS  H12A18820  -0.017   4.782   6.990 -0.6239 -2.1426  1.9664
  167SAPS   C1318821   0.134   4.704   7.107  0.8426  0.0776  0.1112
  167SAPS  O13A18822   0.139   4.584   7.147 -0.5140  0.2388 -0.0110
  167SAPS  O13B18823   0.171   4.801   7.172  0.5353 -0.1461  0.0387
  167SAPS   C1118824   0.174   4.824   6.879 -0.3864  0.4306  0.0268
  167SAPS  H11A18825   0.244   4.747   6.840 -1.6178 -2.4044  2.9755
  167SAPS  H11B18826   0.216   4.908   6.939  1.1864  0.4076 -0.9754
  167SAPS     P18827   0.160   4.952   6.645  0.0575  0.6660 -0.3253
  167SAPS   O1318828   0.101   5.090   6.646  0.4273  0.0517  0.1624
  167SAPS   O1418829   0.303   4.946   6.635 -0.5827 -0.1280  0.8523
  167SAPS   O1218830   0.103   4.882   6.772  0.0686  0.0023 -0.1236
  167SAPS   O1118831   0.103   4.863   6.522 -0.9644  0.1144  0.0030
  167SAPS    C118832  -0.030   4.862   6.497  0.1064 -0.2888  0.1548
  167SAPS    HA18833  -0.081   4.819   6.586  1.8058 -1.1941  0.7339
  167SAPS    HB18834  -0.069   4.965   6.484 -1.2235 -0.6649  0.8896
  167SAPS    C218835  -0.062   4.789   6.362 -0.1190  0.3107 -0.1332
  167SAPS    HS18836  -0.004   4.695   6.373  0.9979  1.2344  2.8281
  167SAPS   O2118837  -0.027   4.871   6.247  0.3976 -0.0050  0.3247
  167SAPS   C2118838   0.078   4.840   6.179  0.3779  0.5954  0.2865
  167SAPS   O2218839   0.152   4.745   6.200  0.2101  0.0085  0.1741
  167SAPS   C2218840   0.106   4.949   6.079 -0.6853  0.1762 -0.1098
  167SAPS   H2R18841   0.146   4.905   5.985 -0.4017  1.2957 -0.5305
  167SAPS   H2S18842   0.005   4.991   6.056 -0.3184 -0.6500 -3.9745
  167SAPS    C318843  -0.215   4.745   6.361 -0.3038 -0.7559 -0.1264
  167SAPS    HX18844  -0.268   4.837   6.392  3.0849  0.6838  2.0603
  167SAPS    HY18845  -0.233   4.664   6.435 -2.5895 -0.5495 -0.3935
  167SAPS   O3118846  -0.256   4.707   6.226  0.2101 -0.0452 -0.5011
  167SAPS   C3118847  -0.225   4.583   6.203  0.1377  0.8376  0.5962
  167SAPS   O3218848  -0.169   4.507   6.278 -0.5716  0.2440  0.2255
  167SAPS   C3218849  -0.279   4.543   6.068  0.0108  0.0596  0.2435
  167SAPS   H2X18850  -0.385   4.574   6.055  0.2682  0.4423 -1.1448
  167SAPS   H2Y18851  -0.285   4.432   6.064 -0.7205  0.1226 -1.0036
  167SAPS   C2318852   0.199   5.053   6.145  0.2980  0.1521  0.5093
  167SAPS   H3R18853   0.303   5.020   6.168  0.8003  1.0738 -0.3655
  167SAPS   H3S18854   0.160   5.081   6.245  2.0774  0.6767  1.1049
  167SAPS   C2418855   0.206   5.191   6.064 -0.1561 -0.1336 -1.1054
  167SAPS   H4R18856   0.267   5.258   6.128  0.7170 -0.5842 -1.4492
  167SAPS   H4S18857   0.109   5.246   6.066 -0.3839 -0.5057 -1.5797
  167SAPS   C2518858   0.269   5.183   5.930 -0.3190 -0.8595 -0.2339
  167SAPS   H5R18859   0.378   5.169   5.929 -0.2431 -0.3186 -1.4228
  167SAPS   C2618860   0.198   5.187   5.814 -1.0287  0.9691 -1.0125
  167SAPS   H6R18861   0.266   5.170   5.729 -0.6660 -0.7604 -0.4233
  167SAPS   C2718862   0.054   5.211   5.799 -0.7371 -0.2698  0.6682
  167SAPS   H7R18863   0.050   5.313   5.754  1.2022 -1.0814 -1.6251
  167SAPS   H7S18864   0.002   5.218   5.897 -2.1947  1.3512 -0.1555
  167SAPS   C2818865  -0.016   5.111   5.710 -0.1107  0.3420 -0.1320
  167SAPS   H8R18866  -0.093   5.049   5.757 -0.9558  1.4500 -0.0168
  167SAPS   C2918867  -0.000   5.117   5.574  0.5375 -0.4062 -0.0617
  167SAPS   H9R18868  -0.032   5.032   5.512  0.5154  0.4377 -1.2516
  167SAPS  C21018869   0.081   5.212   5.492 -1.1289 -0.4163  0.0151
  167SAPS  H10R18870   0.158   5.153   5.439 -2.6309 -0.9536 -1.6846
  167SAPS  H10S18871   0.135   5.287   5.553 -0.1815 -0.0131 -1.2701
  167SAPS  C21118872   0.014   5.288   5.382 -0.0447 -0.1552 -0.2633
  167SAPS  H11R18873  -0.022   5.387   5.412  0.9692 -0.2765  1.4914
  167SAPS  C21218874  -0.028   5.234   5.268  0.2543 -0.3682  0.1808
  167SAPS  H12R18875  -0.051   5.309   5.191  2.5947  1.6002  1.2673
  167SAPS  C21318876  -0.001   5.103   5.220  0.9700 -0.3063 -0.2727
  167SAPS  H13R18877   0.087   5.062   5.274  1.5600  1.5697  0.2692
  167SAPS  H13S18878   0.039   5.097   5.117 -0.2666 -1.2653 -0.7270
  167SAPS  C21418879  -0.127   5.014   5.243 -0.3014  1.0934 -0.1536
  167SAPS  H14R18880  -0.110   4.952   5.332 -2.4869  1.0269  0.2801
  167SAPS  C21518881  -0.248   5.005   5.184  0.3218  0.1484  0.0834
  167SAPS  H15R18882  -0.320   4.927   5.215 -0.5552 -0.3243 -2.8805
  167SAPS  C21618883  -0.287   5.102   5.074  0.2979 -0.5008 -0.1551
  167SAPS  H16R18884  -0.208   5.178   5.057 -0.2975  0.2285  0.2655
  167SAPS  H16S18885  -0.375   5.159   5.110  0.6528  0.0492 -0.1351
  167SAPS  C21718886  -0.325   5.020   4.948 -0.5378  0.4996  0.4361
  167SAPS  H17R18887  -0.379   5.084   4.875 -0.7809 -0.1541  0.0366
  167SAPS  H17S18888  -0.393   4.935   4.973  1.9686 -2.0117 -0.6815
  167SAPS  C21818889  -0.203   4.945   4.887 -0.1102 -0.2209 -0.1452
  167SAPS  H18R18890  -0.161   4.873   4.961 -0.4534 -0.9072 -0.6070
  167SAPS  H18S18891  -0.123   5.022   4.884  0.0673 -0.3001  1.4660
  167SAPS  C21918892  -0.218   4.870   4.754  0.2617  0.0200 -0.1903
  167SAPS  H19R18893  -0.292   4.920   4.689  1.6379  0.1958 -1.6944
  167SAPS  H19S18894  -0.258   4.771   4.784  0.4787  0.8535  3.2882
  167SAPS  C22018895  -0.085   4.841   4.674  0.2554  0.3954  0.0707
  167SAPS  H20R18896  -0.023   4.776   4.739  1.4356  0.0606 -1.3452
  167SAPS  H20S18897  -0.027   4.933   4.652  0.2854  0.7086  1.3598
  167SAPS  H20T18898  -0.106   4.788   4.579 -1.1137  0.4109  0.3431
  167SAPS   C3318899  -0.214   4.620   5.942  0.4731 -0.2283  0.8631
  167SAPS   H3X18900  -0.104   4.603   5.936  0.2010 -1.9177  0.2564
  167SAPS   H3Y18901  -0.233   4.727   5.964 -2.6697 -0.2494 -1.1992
  167SAPS   C3418902  -0.276   4.586   5.806  0.8728 -0.2723 -0.1393
  167SAPS   H4X18903  -0.383   4.612   5.794  1.3219  2.3813  0.9410
  167SAPS   H4Y18904  -0.259   4.476   5.799  2.0704 -0.0428 -1.1361
  167SAPS   C3518905  -0.207   4.668   5.693 -0.8787  0.0259  0.4097
  167SAPS   H5X18906  -0.096   4.674   5.697 -0.7544 -1.8884  1.0453
  167SAPS   H5Y18907  -0.238   4.774   5.680  0.2143  0.2513 -0.4984
  167SAPS   C3618908  -0.246   4.600   5.558  0.2683  0.4608  0.6726
  167SAPS   H6X18909  -0.356   4.586   5.551  0.3973  0.3682 -2.9691
  167SAPS   H6Y18910  -0.215   4.493   5.564 -1.5267 -0.0712  0.8313
  167SAPS   C3718911  -0.200   4.673   5.431  0.0474 -0.0146  0.2590
  167SAPS   H7X18912  -0.102   4.624   5.410 -0.5319 -0.6927 -0.9834
  167SAPS   H7Y18913  -0.177   4.779   5.457 -0.6086  0.3094 -0.4399
  167SAPS   C3818914  -0.284   4.652   5.300 -0.5587  0.3101 -0.0299
  167SAPS   H8X18915  -0.245   4.713   5.216  2.3811 -2.8328 -1.1710
  167SAPS   H8Y18916  -0.385   4.693   5.322 -1.0530 -0.9003  0.0571
  167SAPS   C3918917  -0.308   4.508   5.258 -0.3195  0.5764 -0.1975
  167SAPS   H9X18918  -0.351   4.507   5.156 -0.5454 -2.4179 -0.1487
  167SAPS   H9Y18919  -0.396   4.464   5.308  1.2371 -1.5539  0.8229
  167SAPS  C31018920  -0.203   4.400   5.276 -0.9633 -0.5930 -0.1812
  167SAPS  H10X18921  -0.189   4.387   5.385 -0.7913  0.6560 -0.0385
  167SAPS  H10Y18922  -0.108   4.422   5.222 -0.5166  0.6958  1.0595
  167SAPS  C31118923  -0.237   4.269   5.214  0.5094  0.0476 -0.1666
  167SAPS  H11X18924  -0.263   4.307   5.112 -0.9223  1.3657  0.6403
  167SAPS  H11Y18925  -0.321   4.215   5.263  0.3578 -0.4868 -1.0006
  167SAPS  C31218926  -0.120   4.178   5.200  0.1411  0.0144 -0.0183
  167SAPS  H12X18927  -0.093   4.130   5.297  1.7402 -0.0522 -0.4710
  167SAPS  H12Y18928  -0.029   4.234   5.171 -0.7473  0.6284 -1.7114
  167SAPS  C31318929  -0.139   4.054   5.111 -0.6192 -0.3418 -0.3393
  167SAPS  H13X18930  -0.221   3.982   5.133 -0.6583  0.2396  1.6728
  167SAPS  H13Y18931  -0.048   3.990   5.104 -0.4309 -0.0279 -0.7755
  167SAPS  C31418932  -0.163   4.089   4.963  0.6055  0.7282  0.4785
  167SAPS  H14X18933  -0.068   4.137   4.930  1.6605 -2.1424 -1.0279
  167SAPS  H14Y18934  -0.237   4.171   4.960  0.9032  1.0136  0.8008
  167SAPS  C31518935  -0.191   3.964   4.871 -0.7053  0.1296  0.1727
  167SAPS  H15X18936  -0.204   3.997   4.765  2.4074  0.9049 -0.0567
  167SAPS  H15Y18937  -0.278   3.901   4.900 -0.9115  0.3885  0.1184
  167SAPS  C31618938  -0.071   3.867   4.858 -0.5134 -0.0398 -0.1748
  167SAPS  H16X18939  -0.053   3.818   4.956 -1.7510 -1.5773 -0.6710
  167SAPS  H16Y18940   0.022   3.911   4.815  0.6259 -0.4667  1.7267
  167SAPS  C31718941  -0.112   3.745   4.769  0.1369 -0.6244 -0.2226
  167SAPS  H17X18942  -0.017   3.694   4.742  0.4968 -0.2974  0.4178
  167SAPS  H17Y18943  -0.154   3.777   4.671  0.0584 -0.0950 -0.0207
  167SAPS  C31818944  -0.196   3.640   4.852 -0.0379  0.1719 -0.6169
  167SAPS  H18X18945  -0.270   3.682   4.923 -0.2022 -0.0591 -0.6528
  167SAPS  H18Y18946  -0.125   3.572   4.904 -0.1458  1.8063  1.8559
  167SAPS  H18Z18947  -0.252   3.579   4.779 -1.1185  2.2147 -1.5974
  168SAPS     N18948   5.172   2.962   7.178  0.1731  0.0586  0.0667
  168SAPS   HN118949   5.177   3.064   7.162 -2.3782  0.0923 -0.8306
  168SAPS   HN218950   5.185   2.920   7.084 -0.7724  0.9907 -0.4932
  168SAPS   HN318951   5.079   2.951   7.223  0.6085 -1.6108  0.6650
  168SAPS   C1218952   5.282   2.905   7.265  0.0398 -0.1402 -0.4531
  168SAPS  H12A18953   5.268   2.954   7.360 -0.8128  0.9482 -1.1176
  168SAPS   C1318954   5.275   2.754   7.286  0.0744 -0.5664  0.5775
  168SAPS  O13A18955   5.194   2.687   7.214  0.6975 -0.0346 -0.6243
  168SAPS  O13B18956   5.372   2.699   7.351 -0.3723 -0.2007  0.0070
  168SAPS   C1118957   5.418   2.959   7.214  0.1985 -0.1034  0.0331
  168SAPS  H11A18958   5.448   2.901   7.123  0.1345 -0.4686  0.2437
  168SAPS  H11B18959   5.500   2.926   7.281  0.7226 -1.3209 -1.1480
  168SAPS     P18960   5.530   3.187   7.139 -0.2341 -0.0124 -0.0605
  168SAPS   O1318961   5.482   3.324   7.116  0.0747  0.5085  0.3441
  168SAPS   O1418962   5.643   3.177   7.239 -0.5621 -0.1501  0.0888
  168SAPS   O1218963   5.409   3.101   7.187  0.2470  0.4168  0.0275
  168SAPS   O1118964   5.579   3.119   7.010  0.3199 -0.0548  0.5236
  168SAPS    C118965   5.490   3.064   6.912  0.1954  0.1478  0.4176
  168SAPS    HA18966   5.496   2.953   6.916 -2.3074 -0.0830 -0.5380
  168SAPS    HB18967   5.384   3.096   6.918  0.4236  1.8034 -2.5881
  168SAPS    C218968   5.530   3.114   6.772 -0.3385  0.0176 -0.3478
  168SAPS    HS18969   5.481   3.047   6.697 -2.0697  0.1288  0.6256
  168SAPS   O2118970   5.676   3.108   6.768  0.3289 -0.6838  0.1599
  168SAPS   C2118971   5.735   3.088   6.654 -0.5790 -0.2877  0.8389
  168SAPS   O2218972   5.670   3.065   6.553  0.9686 -0.2526 -0.2109
  168SAPS   C2218973   5.882   3.081   6.669 -0.1562 -0.5032  0.2938
  168SAPS   H2R18974   5.899   3.140   6.761 -2.9049  0.6818  0.1292
  168SAPS   H2S18975   5.917   2.977   6.690  0.8722 -0.8912 -2.7912
  168SAPS    C318976   5.483   3.263   6.761  0.0820  0.0832 -0.2895
  168SAPS    HX18977   5.546   3.318   6.834 -0.6750  0.4800  0.0848
  168SAPS    HY18978   5.382   3.292   6.798  0.1949  0.0890  0.0094
  168SAPS   O3118979   5.513   3.328   6.635 -0.1320 -0.3754  0.0506
  168SAPS   C3118980   5.434   3.288   6.531 -0.3861 -0.5514  0.3869
  168SAPS   O3218981   5.354   3.199   6.541  0.2965 -0.1173  0.3441
  168SAPS   C3218982   5.480   3.362   6.403 -0.3347 -0.4280  0.3829
  168SAPS   H2X18983   5.582   3.319   6.397 -0.8203 -1.6157  0.3523
  168SAPS   H2Y18984   5.477   3.471   6.423  1.1133 -0.0579 -1.2370
  168SAPS   C2318985   5.963   3.144   6.552  0.0946  0.0519  0.0774
  168SAPS   H3R18986   5.936   3.092   6.457 -2.0170 -0.8207  1.0788
  168SAPS   H3S18987   6.070   3.133   6.580  0.2179 -3.0592 -1.1580
  168SAPS   C2418988   5.912   3.293   6.529  0.3296 -0.1151  0.7761
  168SAPS   H4R18989   5.887   3.340   6.627 -1.2997 -0.0855  0.3664
  168SAPS   H4S18990   5.816   3.307   6.475  0.4103 -0.5698  0.5115
  168SAPS   C2518991   6.013   3.388   6.464 -0.7783  0.5422  0.2980
  168SAPS   H5R18992   6.084   3.446   6.526 -0.4404  0.2979  0.1399
  168SAPS   C2618993   6.027   3.391   6.332 -0.3835  0.4470 -0.0069
  168SAPS   H6R18994   6.104   3.457   6.289  3.0459 -2.2535  1.4952
  168SAPS   C2718995   5.944   3.317   6.228 -0.3631 -0.1113 -0.1230
  168SAPS   H7R18996   5.851   3.372   6.203  0.7031  1.9783  0.2731
  168SAPS   H7S18997   5.907   3.220   6.267 -0.1527 -0.4412 -0.7282
  168SAPS   C2818998   6.025   3.306   6.103  0.0295 -0.2305  0.3622
  168SAPS   H8R18999   6.132   3.290   6.121 -0.1764 -2.5257 -0.1616
  168SAPS   C2919000   5.982   3.289   5.969 -0.3213 -0.4255 -0.2042
  168SAPS   H9R19001   6.055   3.270   5.888  0.2908  2.0742 -0.3343
  168SAPS  C21019002   5.844   3.287   5.917  0.3105 -0.4883 -0.9462
  168SAPS  H10R19003   5.821   3.366   5.842  1.0096  0.4295 -0.2053
  168SAPS  H10S19004   5.780   3.330   5.998  0.7060 -2.0012  0.2143
  168SAPS  C21119005   5.773   3.161   5.891  0.9925  0.4123  0.4671
  168SAPS  H11R19006   5.750   3.111   5.986  0.3569 -0.4778 -0.1306
  168SAPS  C21219007   5.739   3.118   5.770 -0.0991 -0.7807  0.5597
  168SAPS  H12R19008   5.678   3.028   5.752  0.6703 -1.1113 -0.4789
  168SAPS  C21319009   5.783   3.188   5.643 -0.0447 -0.0418  0.6264
  168SAPS  H13R19010   5.732   3.285   5.622  3.4322  1.4771 -1.7013
  168SAPS  H13S19011   5.739   3.124   5.563 -0.9384 -0.2845  1.2841
  168SAPS  C21419012   5.935   3.206   5.625 -0.8498  0.2823  0.5352
  168SAPS  H14R19013   6.003   3.155   5.695  0.4500  0.6894 -0.3836
  168SAPS  C21519014   5.990   3.265   5.517 -0.4195  0.5771  0.8023
  168SAPS  H15R19015   6.100   3.262   5.505 -0.6704 -0.5039 -1.9799
  168SAPS  C21619016   5.908   3.318   5.399  0.1403  0.4138 -0.4000
  168SAPS  H16R19017   5.951   3.415   5.365  0.1599  0.4058 -0.3980
  168SAPS  H16S19018   5.805   3.336   5.438  0.3765  0.0242  0.4390
  168SAPS  C21719019   5.923   3.226   5.281  0.2548 -0.0965  0.6003
  168SAPS  H17R19020   5.876   3.130   5.310 -0.8992  0.3511  0.2410
  168SAPS  H17S19021   6.032   3.210   5.267  0.3952  0.8070  0.6004
  168SAPS  C21819022   5.864   3.273   5.150  0.0413 -0.0547 -1.3505
  168SAPS  H18R19023   5.888   3.378   5.122 -1.8416  0.9560  0.4355
  168SAPS  H18S19024   5.753   3.285   5.154  0.0198 -0.4292 -0.2189
  168SAPS  C21919025   5.900   3.168   5.043 -0.2186 -0.0469  0.0481
  168SAPS  H19R19026   5.891   3.066   5.087  1.3551 -0.0832  0.3367
  168SAPS  H19S19027   6.008   3.181   5.021 -0.0580 -0.0734  0.8111
  168SAPS  C22019028   5.817   3.197   4.919  0.5096  0.5317  0.2128
  168SAPS  H20R19029   5.707   3.195   4.931  0.4537 -0.8313 -0.3987
  168SAPS  H20S19030   5.841   3.111   4.853 -0.4357 -1.1128  1.9388
  168SAPS  H20T19031   5.847   3.290   4.867  0.4455 -0.1695 -1.1131
  168SAPS   C3319032   5.394   3.341   6.280  0.1795 -0.4697 -0.5561
  168SAPS   H3X19033   5.286   3.362   6.296  0.3808  0.8308 -0.8040
  168SAPS   H3Y19034   5.386   3.234   6.252 -1.7095 -0.9010  1.4143
  168SAPS   C3419035   5.451   3.431   6.168  0.3344  0.0452 -0.5359
  168SAPS   H4X19036   5.562   3.436   6.173  0.4665 -2.2205 -0.1849
  168SAPS   H4Y19037   5.406   3.532   6.176 -0.0370 -0.1129 -0.6190
  168SAPS   C3519038   5.401   3.372   6.032 -1.2780 -0.3374  0.0943
  168SAPS   H5X19039   5.292   3.356   6.022 -1.6248  1.5879  0.3332
  168SAPS   H5Y19040   5.457   3.276   6.026 -0.7844 -0.1113  0.8575
  168SAPS   C3619041   5.429   3.465   5.916 -0.3081 -0.0094  0.3953
  168SAPS   H6X19042   5.539   3.484   5.917 -0.6890  2.6283 -0.3869
  168SAPS   H6Y19043   5.362   3.553   5.921 -1.6750 -0.8419 -1.6227
  168SAPS   C3719044   5.406   3.393   5.779  0.4281  0.3961 -0.0952
  168SAPS   H7X19045   5.299   3.361   5.777  0.4083  0.4831 -0.5048
  168SAPS   H7Y19046   5.459   3.296   5.774 -1.3977 -0.5993 -2.6457
  168SAPS   C3819047   5.442   3.479   5.662  0.1959  0.2063  0.4904
  168SAPS   H8X19048   5.545   3.515   5.683  1.1703 -2.2324  0.2505
  168SAPS   H8Y19049   5.380   3.570   5.651 -4.6811 -2.8886 -0.9491
  168SAPS   C3919050   5.426   3.406   5.530 -0.6628  0.6163  0.7919
  168SAPS   H9X19051   5.321   3.373   5.514  0.3442 -2.2296 -0.4711
  168SAPS   H9Y19052   5.490   3.315   5.532  0.1303  1.1679  1.3872
  168SAPS  C31019053   5.452   3.491   5.410 -0.4528  0.1562  0.0065
  168SAPS  H10X19054   5.561   3.512   5.425 -0.4857 -0.7700  1.7746
  168SAPS  H10Y19055   5.392   3.584   5.401  1.9106  1.5909 -2.3115
  168SAPS  C31119056   5.435   3.411   5.281  0.6479  0.0395  0.1787
  168SAPS  H11X19057   5.333   3.366   5.278  0.1742  1.1278 -1.0138
  168SAPS  H11Y19058   5.508   3.328   5.289  1.0462  0.0857 -2.4229
  168SAPS  C31219059   5.450   3.486   5.141 -0.3845 -0.2854  0.1554
  168SAPS  H12X19060   5.543   3.546   5.145  0.7734 -2.0123  0.2311
  168SAPS  H12Y19061   5.355   3.542   5.127 -1.0001 -1.3260  0.0506
  168SAPS  C31319062   5.451   3.381   5.038  0.4746 -0.1974  0.8585
  168SAPS  H13X19063   5.349   3.342   5.020  1.1617 -0.8187 -2.3280
  168SAPS  H13Y19064   5.516   3.294   5.060  1.5833  0.1439 -0.8658
  168SAPS  C31419065   5.508   3.441   4.904  0.1291 -0.3434 -0.4228
  168SAPS  H14X19066   5.615   3.466   4.918  0.1016  0.5539 -1.7013
  168SAPS  H14Y19067   5.451   3.534   4.884  2.3522  1.3003  0.4439
  168SAPS  C31519068   5.497   3.353   4.779 -0.1931  0.3006  0.0073
  168SAPS  H15X19069   5.396   3.307   4.774  0.2657 -0.6531 -0.8674
  168SAPS  H15Y19070   5.569   3.269   4.795 -0.8596 -0.1180  0.9449
  168SAPS  C31619071   5.536   3.425   4.650 -1.0165 -0.1690  0.4529
  168SAPS  H16X19072   5.560   3.345   4.577 -0.6433 -0.7923  1.2492
  168SAPS  H16Y19073   5.633   3.479   4.658 -0.2449 -1.3896 -0.2955
  168SAPS  C31719074   5.437   3.524   4.601  0.8719 -0.4726 -0.2382
  168SAPS  H17X19075   5.407   3.594   4.681 -1.7487 -0.4891 -1.1327
  168SAPS  H17Y19076   5.347   3.466   4.573  0.4689  0.4947 -0.9687
  168SAPS  C31819077   5.489   3.595   4.483  0.1266 -0.0493 -1.0038
  168SAPS  H18X19078   5.585   3.647   4.503 -0.5772  1.0049 -0.2394
  168SAPS  H18Y19079   5.425   3.682   4.457 -0.4246 -0.4009 -0.8458
  168SAPS  H18Z19080   5.504   3.544   4.386  1.7592  0.5382 -1.0939
  169SAPS     N19081   1.746   5.905   7.090 -0.0220 -0.2633  0.2605
  169SAPS   HN119082   1.771   5.946   7.182 -1.0074 -1.8727  1.3091
  169SAPS   HN219083   1.830   5.877   7.035 -1.1267  0.6040 -2.0001
  169SAPS   HN319084   1.712   5.985   7.033  3.2420  1.4145  0.4347
  169SAPS   C1219085   1.646   5.798   7.120 -0.0382 -0.3144  0.0774
  169SAPS  H12A19086   1.685   5.736   7.199  0.2663 -2.0041 -1.3519
  169SAPS   C1319087   1.512   5.840   7.168  1.3046 -0.7083 -0.4827
  169SAPS  O13A19088   1.499   5.959   7.211  0.0295  0.9211 -0.2811
  169SAPS  O13B19089   1.421   5.758   7.182  0.1133 -0.0686  0.0691
  169SAPS   C1119090   1.620   5.706   7.000  0.6991 -0.2843 -0.0385
  169SAPS  H11A19091   1.591   5.766   6.912 -0.4427  0.6445  0.9390
  169SAPS  H11B19092   1.544   5.629   7.027  1.0023 -0.6518 -0.2161
  169SAPS     P19093   1.778   5.589   6.819 -0.1344 -0.1096 -0.0188
  169SAPS   O1319094   1.787   5.706   6.723 -0.0409 -0.9690 -0.0571
  169SAPS   O1419095   1.895   5.507   6.833 -0.3285  0.9729 -0.3725
  169SAPS   O1219096   1.744   5.639   6.969  0.5814 -0.2478  1.0425
  169SAPS   O1119097   1.643   5.509   6.785  0.2671 -0.0365 -0.1380
  169SAPS    C119098   1.626   5.374   6.846  0.4662 -0.5341  0.6605
  169SAPS    HA19099   1.724   5.323   6.854  1.0695 -0.4620 -3.6784
  169SAPS    HB19100   1.581   5.392   6.946 -0.8693  1.5652 -0.2351
  169SAPS    C219101   1.521   5.291   6.762 -0.9966  0.7593  0.0019
  169SAPS    HS19102   1.534   5.181   6.777 -1.3790  0.6700 -0.3210
  169SAPS   O2119103   1.544   5.317   6.620 -0.2949 -0.2687  0.7963
  169SAPS   C2119104   1.663   5.279   6.572 -0.7517 -0.5891  0.2135
  169SAPS   O2219105   1.726   5.187   6.616 -0.8015 -0.3198 -0.0727
  169SAPS   C2219106   1.697   5.363   6.454  0.5896 -0.0764  0.2823
  169SAPS   H2R19107   1.753   5.297   6.384  0.2985 -1.6399  1.4602
  169SAPS   H2S19108   1.601   5.402   6.414  1.4951  1.1525 -0.7992
  169SAPS    C319109   1.373   5.330   6.800  0.2604  0.2489 -0.2363
  169SAPS    HX19110   1.360   5.436   6.771  0.4213  1.0458  2.3206
  169SAPS    HY19111   1.367   5.311   6.909 -0.8393 -1.8188 -0.6025
  169SAPS   O3119112   1.272   5.245   6.728  0.1387 -0.2360  0.7849
  169SAPS   C3119113   1.158   5.294   6.766 -0.5108 -0.0538 -0.0750
  169SAPS   O3219114   1.145   5.362   6.868  0.0118  0.3304 -0.0605
  169SAPS   C3219115   1.047   5.267   6.659 -0.4415  0.3906  0.0112
  169SAPS   H2X19116   0.955   5.323   6.684 -0.0703  0.3182  1.6492
  169SAPS   H2Y19117   1.021   5.160   6.670 -1.0579  0.6027  0.6543
  169SAPS   C2319118   1.784   5.493   6.490 -0.1569  0.0804  0.0429
  169SAPS   H3R19119   1.878   5.479   6.548 -1.0910 -0.5285  1.4750
  169SAPS   H3S19120   1.715   5.556   6.550  0.3052 -1.1816  1.9990
  169SAPS   C2419121   1.822   5.569   6.361  0.3561  0.1688 -0.6052
  169SAPS   H4R19122   1.860   5.669   6.390 -1.0196  0.7901 -0.8794
  169SAPS   H4S19123   1.732   5.573   6.297 -0.8042 -1.1114  0.8812
  169SAPS   C2519124   1.939   5.498   6.295  0.1314  0.1523  0.2139
  169SAPS   H5R19125   2.036   5.501   6.346  2.5027 -0.3795 -3.8372
  169SAPS   C2619126   1.927   5.417   6.181 -0.0313 -0.7784 -0.6320
  169SAPS   H6R19127   2.023   5.372   6.153  2.5470  3.6331  0.2095
  169SAPS   C2719128   1.802   5.384   6.097 -0.3325  0.1080  0.1725
  169SAPS   H7R19129   1.710   5.370   6.159 -0.7006 -0.1325 -0.4202
  169SAPS   H7S19130   1.821   5.289   6.043 -1.7014 -0.4923  0.7028
  169SAPS   C2819131   1.775   5.499   5.999  0.2676  0.4181 -0.6781
  169SAPS   H8R19132   1.780   5.601   6.040  1.2596  0.6942 -1.4491
  169SAPS   C2919133   1.759   5.495   5.858 -0.1785 -0.4233 -0.1707
  169SAPS   H9R19134   1.763   5.591   5.806  1.5269  0.6659  1.8216
  169SAPS  C21019135   1.736   5.372   5.769 -0.8785  0.5884 -0.0062
  169SAPS  H10R19136   1.645   5.384   5.706 -1.2840 -0.2985  0.4014
  169SAPS  H10S19137   1.724   5.283   5.834  0.0375  0.4542 -0.0054
  169SAPS  C21119138   1.860   5.340   5.683  0.2534 -0.3136 -0.2494
  169SAPS  H11R19139   1.951   5.363   5.740  0.6164  1.7400 -1.5159
  169SAPS  C21219140   1.862   5.286   5.560 -0.1448  0.2470  0.3870
  169SAPS  H12R19141   1.962   5.264   5.518 -1.3966 -2.4930 -1.5337
  169SAPS  C21319142   1.748   5.246   5.478  0.3950 -0.5894  0.4394
  169SAPS  H13R19143   1.698   5.344   5.461  0.3155 -0.8322 -0.8410
  169SAPS  H13S19144   1.684   5.167   5.523 -0.8289  0.8587  1.3764
  169SAPS  C21419145   1.779   5.205   5.340 -0.7155  0.4887 -0.6313
  169SAPS  H14R19146   1.770   5.279   5.259  0.3457  0.5000 -0.7563
  169SAPS  C21519147   1.819   5.079   5.305  0.2697  0.2419  0.3919
  169SAPS  H15R19148   1.841   5.053   5.201 -1.5759  2.0218 -0.5192
  169SAPS  C21619149   1.847   4.964   5.398  0.3056  0.0104 -0.1324
  169SAPS  H16R19150   1.810   4.980   5.502  0.5850 -1.3668  0.1921
  169SAPS  H16S19151   1.956   4.944   5.409 -0.3079 -3.2741  1.3262
  169SAPS  C21719152   1.793   4.833   5.348 -0.8582  0.2340 -0.4444
  169SAPS  H17R19153   1.857   4.801   5.263 -0.6226  0.0978 -0.2177
  169SAPS  H17S19154   1.690   4.849   5.311 -1.8159  1.1697  2.3346
  169SAPS  C21819155   1.795   4.720   5.446  0.5021 -0.0088 -0.3944
  169SAPS  H18R19156   1.710   4.717   5.518  0.4892 -1.7601 -0.4306
  169SAPS  H18S19157   1.877   4.755   5.512 -0.3042  0.6369  0.2899
  169SAPS  C21919158   1.792   4.579   5.376 -0.5685  0.4411 -0.0497
  169SAPS  H19R19159   1.779   4.505   5.459 -0.1923  1.2195  0.7142
  169SAPS  H19S19160   1.882   4.565   5.313 -0.9799  0.6791 -0.6900
  169SAPS  C22019161   1.673   4.568   5.283 -0.2725  0.3656 -0.2950
  169SAPS  H20R19162   1.676   4.635   5.195 -2.4091 -0.2540 -0.8950
  169SAPS  H20S19163   1.590   4.614   5.342  0.7898  1.0078  0.7366
  169SAPS  H20T19164   1.632   4.467   5.262 -2.7311  0.6940  2.2759
  169SAPS   C3319165   1.094   5.310   6.518  0.4261  0.1628  0.1563
  169SAPS   H3X19166   1.200   5.285   6.499 -0.3051 -1.6131 -1.9251
  169SAPS   H3Y19167   1.097   5.420   6.500  0.0454 -0.1167 -1.8037
  169SAPS   C3419168   1.020   5.233   6.404 -0.1956 -0.2415  0.5199
  169SAPS   H4X19169   1.024   5.124   6.425 -0.3322 -0.4052 -0.2801
  169SAPS   H4Y19170   1.075   5.271   6.315 -1.3158 -0.0184 -0.0881
  169SAPS   C3519171   0.869   5.273   6.379 -0.2229 -0.0233  0.3046
  169SAPS   H5X19172   0.852   5.381   6.360 -2.4995 -0.3597  0.1530
  169SAPS   H5Y19173   0.814   5.239   6.469  0.6401  0.8115  1.1700
  169SAPS   C3619174   0.809   5.200   6.254 -0.3995 -0.1813  0.4755
  169SAPS   H6X19175   0.699   5.206   6.239 -0.3491 -0.7776 -0.1739
  169SAPS   H6Y19176   0.818   5.090   6.266  0.7739 -0.1024  0.4134
  169SAPS   C3719177   0.890   5.239   6.129 -0.4419 -0.3594 -0.1232
  169SAPS   H7X19178   0.996   5.207   6.135  0.5497  2.6932  0.1103
  169SAPS   H7Y19179   0.893   5.350   6.125  1.2327 -0.3712  0.0018
  169SAPS   C3819180   0.839   5.180   5.998  0.6348 -0.3099 -0.0664
  169SAPS   H8X19181   0.815   5.073   6.015  0.1587 -0.4148 -1.2460
  169SAPS   H8Y19182   0.925   5.186   5.927  0.2528  0.1798 -0.4982
  169SAPS   C3919183   0.725   5.261   5.927  0.3050 -0.4208  0.0140
  169SAPS   H9X19184   0.743   5.371   5.920 -0.5460 -0.2489  0.4354
  169SAPS   H9Y19185   0.628   5.236   5.974 -0.1496  0.1379 -0.6043
  169SAPS  C31019186   0.720   5.231   5.779  0.1933  0.4868  0.1879
  169SAPS  H10X19187   0.735   5.122   5.762  0.3253  0.4240  0.6981
  169SAPS  H10Y19188   0.813   5.273   5.735 -0.6666  0.7050 -1.5040
  169SAPS  C31119189   0.594   5.282   5.712  0.0185  0.0413  0.1545
  169SAPS  H11X19190   0.587   5.393   5.702 -2.7033 -0.0981 -0.4816
  169SAPS  H11Y19191   0.499   5.241   5.753  0.1761 -2.5536 -1.7985
  169SAPS  C31219192   0.600   5.227   5.566 -0.4366  0.1135  0.0093
  169SAPS  H12X19193   0.633   5.121   5.565 -1.1798 -0.1571  1.7255
  169SAPS  H12Y19194   0.675   5.290   5.513 -0.1653 -0.1236  0.1131
  169SAPS  C31319195   0.469   5.244   5.489  0.3983  0.0308  0.5084
  169SAPS  H13X19196   0.420   5.343   5.507  1.5060  0.5129  0.9580
  169SAPS  H13Y19197   0.402   5.165   5.529  0.2657 -0.6059 -0.9295
  169SAPS  C31419198   0.472   5.208   5.341  0.0055  0.8056 -0.6005
  169SAPS  H14X19199   0.367   5.202   5.307  0.2078 -3.7178 -0.9866
  169SAPS  H14Y19200   0.531   5.114   5.337  0.8576  1.2841  0.3424
  169SAPS  C31519201   0.552   5.303   5.260 -0.6144  0.1083 -0.4730
  169SAPS  H15X19202   0.647   5.334   5.309 -0.5644  1.5792 -1.4325
  169SAPS  H15Y19203   0.485   5.388   5.235 -0.0088  0.4832 -0.8454
  169SAPS  C31619204   0.616   5.239   5.137  0.3619 -0.6609  0.6712
  169SAPS  H16X19205   0.681   5.154   5.166  2.5366  0.1847 -1.4407
  169SAPS  H16Y19206   0.679   5.307   5.077 -1.1955 -0.2684 -0.6096
  169SAPS  C31719207   0.507   5.181   5.043 -0.3453 -0.3112 -0.1103
  169SAPS  H17X19208   0.442   5.269   5.026 -0.7636 -0.4545  0.7133
  169SAPS  H17Y19209   0.454   5.097   5.094  0.8368 -0.9299  0.1577
  169SAPS  C31819210   0.569   5.129   4.916 -0.2886  0.1490 -0.8903
  169SAPS  H18X19211   0.493   5.121   4.836  0.2825  1.7790 -1.6496
  169SAPS  H18Y19212   0.611   5.030   4.941 -0.8388  0.4694  1.6363
  169SAPS  H18Z19213   0.653   5.189   4.875  1.7726 -3.1595 -1.8938
  170SAPS     N19214   1.253   4.450   6.700 -0.1438  0.5332 -0.4589
  170SAPS   HN119215   1.357   4.448   6.693  0.0163  3.1897 -0.0894
  170SAPS   HN219216   1.218   4.382   6.630  0.3663 -0.1929 -0.0217
  170SAPS   HN319217   1.210   4.539   6.667 -0.7075  0.5581  0.2989
  170SAPS   C1219218   1.200   4.425   6.845 -0.1145  0.4995  0.7395
  170SAPS  H12A19219   1.243   4.332   6.878 -1.1766  0.4737  2.1395
  170SAPS   C1319220   1.230   4.545   6.949  0.2871 -0.2481  0.1499
  170SAPS  O13A19221   1.310   4.635   6.910 -0.1565  0.4245  0.5892
  170SAPS  O13B19222   1.174   4.532   7.059  0.2082 -0.3811  0.1753
  170SAPS   C1119223   1.045   4.410   6.828  0.1328  0.3306 -0.6603
  170SAPS  H11A19224   1.006   4.511   6.803 -0.8121  0.2080  0.2532
  170SAPS  H11B19225   0.994   4.385   6.923 -2.3137  1.3893 -1.6169
  170SAPS     P19226   0.862   4.289   6.709 -0.1940 -0.0017  0.4639
  170SAPS   O1319227   0.799   4.255   6.836  0.0158 -0.0082 -0.0252
  170SAPS   O1419228   0.794   4.399   6.633 -0.5377 -0.3985 -0.0460
  170SAPS   O1219229   1.013   4.314   6.726  0.1764  1.1824 -0.1113
  170SAPS   O1119230   0.856   4.164   6.621  0.0583  0.3762 -0.3466
  170SAPS    C119231   0.962   4.066   6.602  0.1630  0.5658 -0.6278
  170SAPS    HA19232   0.994   4.039   6.704 -0.1908  2.3642 -0.0130
  170SAPS    HB19233   0.930   3.973   6.549  0.0158  0.6366 -0.6650
  170SAPS    C219234   1.081   4.121   6.526 -1.3968 -0.1377 -0.0615
  170SAPS    HS19235   1.147   4.171   6.600  0.0243 -0.5847 -0.9854
  170SAPS   O2119236   1.034   4.214   6.428 -0.5054 -0.1360  0.1459
  170SAPS   C2119237   1.111   4.315   6.402  1.1542 -0.0388 -0.1951
  170SAPS   O2219238   1.206   4.341   6.470  0.0255 -0.3016  0.2028
  170SAPS   C2219239   1.061   4.387   6.280  0.2247  0.7040 -1.7590
  170SAPS   H2R19240   0.973   4.330   6.244 -0.2615 -1.4249  2.2108
  170SAPS   H2S19241   1.019   4.486   6.309  0.2610  0.7274 -1.7846
  170SAPS    C319242   1.162   4.008   6.453 -0.2179 -0.5284  0.1262
  170SAPS    HX19243   1.100   3.981   6.364 -0.4011 -1.5063  0.5357
  170SAPS    HY19244   1.167   3.918   6.518  0.1456 -0.2428  0.5011
  170SAPS   O3119245   1.291   4.051   6.400 -0.4761 -0.0029  0.1279
  170SAPS   C3119246   1.390   4.037   6.488  0.8992 -0.3727  0.3621
  170SAPS   O3219247   1.377   3.980   6.595  0.0164 -0.5046 -0.0106
  170SAPS   C3219248   1.502   4.128   6.450 -0.6387  0.0221 -0.4827
  170SAPS   H2X19249   1.572   4.144   6.535 -0.9935  1.1749 -0.3839
  170SAPS   H2Y19250   1.464   4.232   6.435  2.3236  1.8409  2.9306
  170SAPS   C2319251   1.175   4.414   6.176  0.0728  0.6801 -0.1363
  170SAPS   H3R19252   1.206   4.322   6.121  0.0352 -0.3737  1.5509
  170SAPS   H3S19253   1.269   4.437   6.230  0.6646 -0.8955 -0.4147
  170SAPS   C2419254   1.154   4.529   6.079  0.8867 -0.1901  0.5890
  170SAPS   H4R19255   1.085   4.495   5.999  1.9043 -1.6335  0.2928
  170SAPS   H4S19256   1.248   4.543   6.021  1.8249 -3.4219  1.1398
  170SAPS   C2519257   1.128   4.655   6.153 -0.0843  0.5731 -0.9905
  170SAPS   H5R19258   1.176   4.661   6.251 -1.4244 -2.0774 -0.0812
  170SAPS   C2619259   1.049   4.756   6.111 -0.2432  0.9386  0.3126
  170SAPS   H6R19260   1.037   4.854   6.160 -0.5779  1.0610 -0.0133
  170SAPS   C2719261   0.969   4.766   5.980  0.3619 -0.1736  0.3106
  170SAPS   H7R19262   0.876   4.824   5.996  0.9230  0.5802  0.9663
  170SAPS   H7S19263   0.939   4.665   5.944  0.3242  0.1066 -0.4633
  170SAPS   C2819264   1.046   4.840   5.878  0.3575  0.4578  0.4511
  170SAPS   H8R19265   1.127   4.904   5.916  0.6774  0.1949  0.2133
  170SAPS   C2919266   1.003   4.864   5.749  0.0661  0.4635 -0.0058
  170SAPS   H9R19267   1.070   4.921   5.684 -0.3815 -1.5679 -2.3764
  170SAPS  C21019268   0.874   4.806   5.686 -0.8355  0.4666  0.0212
  170SAPS  H10R19269   0.810   4.887   5.646 -0.6026  0.2211 -0.8884
  170SAPS  H10S19270   0.816   4.761   5.769 -0.7979  1.7766  0.7811
  170SAPS  C21119271   0.912   4.702   5.583  0.3097  0.8019  0.3563
  170SAPS  H11R19272   0.985   4.628   5.617 -0.3785 -0.2906 -0.4781
  170SAPS  C21219273   0.883   4.698   5.450 -0.4747  0.4643  0.6399
  170SAPS  H12R19274   0.942   4.630   5.388  0.5672  1.2459  0.7417
  170SAPS  C21319275   0.792   4.791   5.384 -0.1036  0.1333  0.8507
  170SAPS  H13R19276   0.834   4.893   5.368 -0.1974  0.4868  2.6287
  170SAPS  H13S19277   0.702   4.806   5.447  0.4438  2.6122  1.1537
  170SAPS  C21419278   0.756   4.749   5.247  0.2946 -0.0794  0.7389
  170SAPS  H14R19279   0.684   4.666   5.247  0.3115 -0.1076 -0.2767
  170SAPS  C21519280   0.793   4.798   5.122 -0.2602  0.1631  0.0977
  170SAPS  H15R19281   0.747   4.757   5.031  1.7090 -1.1016 -0.3889
  170SAPS  C21619282   0.878   4.924   5.098 -0.5337  0.1608  0.6749
  170SAPS  H16R19283   0.934   4.952   5.191 -0.0552  0.7431  0.2190
  170SAPS  H16S19284   0.811   5.012   5.091 -0.9072 -0.1744  0.0407
  170SAPS  C21719285   0.967   4.933   4.969 -0.0043  0.0091 -0.1722
  170SAPS  H17R19286   1.031   4.842   4.968 -0.6843 -0.4727 -0.3459
  170SAPS  H17S19287   1.020   5.031   4.971  0.1826 -0.0835 -0.5614
  170SAPS  C21819288   0.895   4.929   4.838  0.8689  0.2086  0.2083
  170SAPS  H18R19289   0.806   4.996   4.838 -0.0082 -0.9274  0.1782
  170SAPS  H18S19290   0.855   4.825   4.830 -2.0076  1.1939  0.3264
  170SAPS  C21919291   0.979   4.952   4.714  0.0368 -0.1559  0.1816
  170SAPS  H19R19292   1.034   4.858   4.692 -0.7501 -0.7727  0.7594
  170SAPS  H19S19293   1.048   5.036   4.736 -1.6481  1.0959  0.8566
  170SAPS  C22019294   0.893   4.975   4.582  0.1387  0.2984 -0.3449
  170SAPS  H20R19295   0.821   5.057   4.606 -1.2006 -0.8430 -0.3552
  170SAPS  H20S19296   0.829   4.888   4.558  0.7424  0.1155 -1.3487
  170SAPS  H20T19297   0.956   5.000   4.495 -1.6771 -2.6367 -2.6738
  170SAPS   C3319298   1.584   4.066   6.334 -1.1974  0.0647 -0.5755
  170SAPS   H3X19299   1.630   3.970   6.364 -1.9532 -0.1505 -0.0854
  170SAPS   H3Y19300   1.668   4.137   6.319  0.1943 -1.2257  0.8712
  170SAPS   C3419301   1.515   4.046   6.202  0.1429 -0.1651  0.6356
  170SAPS   H4X19302   1.467   4.140   6.168  0.0467  0.1535  1.6474
  170SAPS   H4Y19303   1.432   3.972   6.210  0.3410 -0.3374  1.1142
  170SAPS   C3519304   1.616   4.006   6.088 -0.7621  0.0677 -1.0326
  170SAPS   H5X19305   1.662   3.905   6.090 -0.2946  0.2925 -0.1536
  170SAPS   H5Y19306   1.701   4.078   6.088 -2.7037  2.4743 -0.2783
  170SAPS   C3619307   1.549   4.025   5.949 -0.8641 -0.0346  0.3681
  170SAPS   H6X19308   1.530   4.132   5.929  1.2171 -0.1907 -3.5281
  170SAPS   H6Y19309   1.452   3.971   5.946 -0.6111 -0.4641 -2.1024
  170SAPS   C3719310   1.644   3.986   5.832 -0.4946  0.5179  0.5262
  170SAPS   H7X19311   1.662   3.878   5.849  0.1275  0.3969 -0.8218
  170SAPS   H7Y19312   1.740   4.042   5.839 -0.7494  0.8986  1.0380
  170SAPS   C3819313   1.582   4.002   5.693 -0.2511  0.1931  0.3876
  170SAPS   H8X19314   1.567   4.110   5.672 -2.1448  0.4692  2.6945
  170SAPS   H8Y19315   1.483   3.950   5.692 -0.1170 -0.0572  0.2504
  170SAPS   C3919316   1.687   3.950   5.584 -0.3067  0.2582  0.0249
  170SAPS   H9X19317   1.694   3.839   5.578  0.3520  0.3699 -1.8257
  170SAPS   H9Y19318   1.784   3.996   5.614  0.2006 -0.5510 -0.3269
  170SAPS  C31019319   1.635   3.995   5.444  0.1706 -0.0643  0.0018
  170SAPS  H10X19320   1.720   3.958   5.382  1.2199 -1.6560  2.2366
  170SAPS  H10Y19321   1.624   4.105   5.441 -1.1514 -0.1957 -0.4896
  170SAPS  C31119322   1.498   3.938   5.400 -0.0621  0.2910 -0.6381
  170SAPS  H11X19323   1.421   3.968   5.475  0.7925 -0.9457  0.7887
  170SAPS  H11Y19324   1.501   3.827   5.407 -0.9243  0.3701  3.5001
  170SAPS  C31219325   1.463   3.973   5.254  0.4524  0.3228  0.5955
  170SAPS  H12X19326   1.552   3.943   5.195 -0.5966 -0.9903 -0.3766
  170SAPS  H12Y19327   1.470   4.084   5.264  1.6499  0.1071  2.7381
  170SAPS  C31319328   1.329   3.918   5.205  0.2372 -0.1600  0.3908
  170SAPS  H13X19329   1.329   3.807   5.203  1.0316 -0.2049  1.8841
  170SAPS  H13Y19330   1.315   3.956   5.101 -0.4601  0.7093  0.7869
  170SAPS  C31419331   1.202   3.963   5.284 -0.7682  0.2292 -0.3405
  170SAPS  H14X19332   1.206   4.072   5.306  0.4468  0.2596 -0.6295
  170SAPS  H14Y19333   1.215   3.909   5.380 -0.8067 -1.6339 -1.3378
  170SAPS  C31519334   1.066   3.926   5.216 -0.2478  0.2217  0.5138
  170SAPS  H15X19335   1.049   3.817   5.228 -0.7687  0.3097  0.5885
  170SAPS  H15Y19336   1.066   3.959   5.110  0.0489 -0.1819  0.3798
  170SAPS  C31619337   0.950   3.980   5.297 -0.1062  0.4319  0.1208
  170SAPS  H16X19338   0.850   3.945   5.264  0.3113  0.5187 -1.3431
  170SAPS  H16Y19339   0.947   4.086   5.266  0.6770 -0.3105 -2.8280
  170SAPS  C31719340   0.950   3.973   5.449 -1.1435  0.1665 -0.1726
  170SAPS  H17X19341   0.870   4.042   5.484 -2.8474 -2.2093  0.9632
  170SAPS  H17Y19342   1.046   4.000   5.497 -0.9576 -1.6225  0.5634
  170SAPS  C31819343   0.917   3.834   5.505  0.1073  0.5275  0.9430
  170SAPS  H18X19344   0.810   3.808   5.487 -0.2864  1.7014  1.4724
  170SAPS  H18Y19345   0.930   3.829   5.615 -1.7968  1.1753  1.2374
  170SAPS  H18Z19346   0.979   3.758   5.454 -0.3534  1.3800 -0.9874
  171SAPS     N19347   2.595   4.037   7.134 -0.2417  0.1131  0.4120
  171SAPS   HN119348   2.506   3.983   7.128 -0.9331  1.1098  1.3093
  171SAPS   HN219349   2.617   4.063   7.035 -0.0291 -0.5278  0.2814
  171SAPS   HN319350   2.661   3.966   7.173 -0.0436 -0.2844 -0.6121
  171SAPS   C1219351   2.578   4.164   7.220  0.6011  0.1014 -0.2262
  171SAPS  H12A19352   2.525   4.136   7.309 -0.3884 -0.4126 -0.9603
  171SAPS   C1319353   2.714   4.228   7.265 -0.4590 -0.0914 -0.1164
  171SAPS  O13A19354   2.824   4.197   7.203 -0.1515 -0.0319  0.1794
  171SAPS  O13B19355   2.695   4.341   7.320 -0.3368 -0.5632 -0.1517
  171SAPS   C1119356   2.498   4.277   7.139  0.1873 -0.0037 -0.3181
  171SAPS  H11A19357   2.553   4.305   7.047 -1.2668  2.5815 -0.4978
  171SAPS  H11B19358   2.479   4.363   7.207 -2.3890  0.3918 -1.4163
  171SAPS     P19359   2.271   4.273   7.010 -0.1159 -0.4632 -0.0611
  171SAPS   O1319360   2.159   4.174   6.988 -0.3059  0.8129  0.2623
  171SAPS   O1419361   2.237   4.410   7.054 -0.1175  0.0681 -0.5166
  171SAPS   O1219362   2.375   4.218   7.110  0.3692  0.3711  0.4039
  171SAPS   O1119363   2.354   4.293   6.878  0.9785  0.3464  0.1907
  171SAPS    C119364   2.319   4.222   6.757  0.1811 -0.9972 -0.1976
  171SAPS    HA19365   2.211   4.204   6.739  0.1004 -1.1119  0.3671
  171SAPS    HB19366   2.339   4.295   6.676  0.7038  2.0374  2.4317
  171SAPS    C219367   2.404   4.095   6.734  0.3821  1.0117  0.5264
  171SAPS    HS19368   2.413   4.035   6.827  2.0250  0.8275  0.2839
  171SAPS   O2119369   2.528   4.144   6.688 -0.0244 -0.7767  0.2615
  171SAPS   C2119370   2.636   4.123   6.759 -0.8212 -0.1326  0.3554
  171SAPS   O2219371   2.635   4.063   6.866  0.3222  0.1600 -0.4550
  171SAPS   C2219372   2.758   4.188   6.691  0.3813 -0.0826 -0.5235
  171SAPS   H2R19373   2.731   4.250   6.603  1.9180  0.5051 -0.6154
  171SAPS   H2S19374   2.795   4.266   6.761  1.2553 -1.0110  0.0709
  171SAPS    C319375   2.364   3.983   6.625  0.0186 -0.1121  0.3924
  171SAPS    HX19376   2.453   3.916   6.622  1.3125  1.4594  1.5758
  171SAPS    HY19377   2.360   4.031   6.525  2.2021 -0.8928 -0.1218
  171SAPS   O3119378   2.234   3.921   6.655  0.2608 -0.3519  0.1977
  171SAPS   C3119379   2.195   3.845   6.551 -0.7518  0.2792  0.1713
  171SAPS   O3219380   2.265   3.807   6.455 -0.3592 -0.6699  0.4489
  171SAPS   C3219381   2.057   3.787   6.594 -0.1291  0.1245  0.9850
  171SAPS   H2X19382   1.995   3.874   6.627  0.5110  0.9214  0.1621
  171SAPS   H2Y19383   2.085   3.729   6.684  2.9786 -0.9252 -0.5156
  171SAPS   C2319384   2.875   4.096   6.651 -0.2301 -0.4973  0.4998
  171SAPS   H3R19385   2.856   4.015   6.578  0.4771  0.6211 -0.9727
  171SAPS   H3S19386   2.893   4.042   6.746 -1.1490 -1.9777 -0.1386
  171SAPS   C2419387   2.999   4.173   6.615 -1.1108 -0.0676  0.9158
  171SAPS   H4R19388   3.020   4.259   6.682 -0.0576  0.1715  0.3128
  171SAPS   H4S19389   2.977   4.205   6.511 -3.6294 -2.7466  0.5255
  171SAPS   C2519390   3.115   4.075   6.618  1.0160  0.4094 -0.2961
  171SAPS   H5R19391   3.167   4.069   6.715 -1.7627 -0.7992  1.2355
  171SAPS   C2619392   3.160   4.003   6.510  0.0411  0.1715 -0.5965
  171SAPS   H6R19393   3.251   3.942   6.524  0.4545  0.2313 -2.6799
  171SAPS   C2719394   3.102   4.004   6.372  0.2482  0.6292 -0.1581
  171SAPS   H7R19395   2.993   4.019   6.378  0.3450  1.5094 -0.5246
  171SAPS   H7S19396   3.112   3.900   6.332  1.0239  1.4371 -2.2031
  171SAPS   C2819397   3.161   4.120   6.288 -0.0301  0.6439  0.0105
  171SAPS   H8R19398   3.191   4.213   6.339 -0.2963  0.5563  0.3355
  171SAPS   C2919399   3.146   4.120   6.157 -0.8509  0.5169 -0.6114
  171SAPS   H9R19400   3.184   4.204   6.098  2.9364 -2.5748 -3.1006
  171SAPS  C21019401   3.098   4.007   6.069 -0.1352 -0.1594 -0.5430
  171SAPS  H10R19402   3.107   3.906   6.114 -0.0031 -0.2052 -0.6734
  171SAPS  H10S19403   3.160   4.011   5.977  0.1161  1.0645 -0.3357
  171SAPS  C21119404   2.959   4.030   6.021 -0.5403  0.3798 -0.1762
  171SAPS  H11R19405   2.906   4.119   6.058  0.0507  0.8513 -0.4484
  171SAPS  C21219406   2.898   3.941   5.940  0.0472  0.1366  0.0286
  171SAPS  H12R19407   2.799   3.968   5.902 -0.2673  0.7358  1.2573
  171SAPS  C21319408   2.942   3.811   5.882 -0.4315 -0.0594  0.1208
  171SAPS  H13R19409   2.876   3.724   5.901 -1.9512  1.3276  1.4920
  171SAPS  H13S19410   3.034   3.773   5.932 -0.0458 -0.6663 -1.0039
  171SAPS  C21419411   2.993   3.839   5.742 -0.2941 -0.3808  0.6162
  171SAPS  H14R19412   3.072   3.915   5.736 -1.1735  0.5266  0.3090
  171SAPS  C21519413   2.940   3.808   5.623  0.0603 -0.1302 -0.1623
  171SAPS  H15R19414   2.998   3.839   5.535 -1.9037 -1.3327 -1.9583
  171SAPS  C21619415   2.821   3.726   5.601  0.1021 -0.1457  0.1220
  171SAPS  H16R19416   2.747   3.758   5.678 -1.1477  0.0884 -1.1334
  171SAPS  H16S19417   2.834   3.616   5.611 -0.5793 -0.2185  0.2971
  171SAPS  C21719418   2.750   3.749   5.465  0.1338  0.0742  0.5266
  171SAPS  H17R19419   2.731   3.858   5.455  0.0474 -0.1246 -1.7830
  171SAPS  H17S19420   2.653   3.696   5.468  1.6951 -3.2532 -2.0474
  171SAPS  C21819421   2.831   3.696   5.345  0.1564  0.8653  0.1816
  171SAPS  H18R19422   2.822   3.586   5.330  0.9087  0.4786  2.2192
  171SAPS  H18S19423   2.937   3.729   5.349  0.8481 -1.2116  0.2284
  171SAPS  C21919424   2.777   3.750   5.210 -0.1445 -0.2906 -0.1782
  171SAPS  H19R19425   2.730   3.849   5.231  1.0805  0.1386  0.6573
  171SAPS  H19S19426   2.681   3.701   5.182 -1.3320  1.8889 -0.1358
  171SAPS  C22019427   2.885   3.757   5.103  0.2107 -0.2104  0.4583
  171SAPS  H20R19428   2.859   3.808   5.008  0.8101 -0.2375  0.2784
  171SAPS  H20S19429   2.907   3.651   5.080  1.7482  0.1943 -0.0662
  171SAPS  H20T19430   2.979   3.809   5.131 -0.2966  0.9055  0.1436
  171SAPS   C3319431   1.977   3.700   6.494 -0.4866 -0.3549 -0.1248
  171SAPS   H3X19432   1.874   3.683   6.530 -0.3797 -2.0753 -0.5604
  171SAPS   H3Y19433   2.022   3.599   6.485 -2.3964 -1.2133 -0.3626
  171SAPS   C3419434   1.958   3.776   6.358 -0.0026  0.6766 -0.3299
  171SAPS   H4X19435   2.060   3.772   6.313  1.3858 -4.0816  2.4835
  171SAPS   H4Y19436   1.924   3.881   6.363  0.4498  0.9641 -2.3162
  171SAPS   C3519437   1.867   3.707   6.255 -0.1775 -0.0401  0.5019
  171SAPS   H5X19438   1.868   3.781   6.172  0.0587 -0.6581 -0.0423
  171SAPS   H5Y19439   1.763   3.702   6.294  0.7810 -1.1717  3.1811
  171SAPS   C3619440   1.911   3.567   6.205  0.6309  0.1007 -0.0437
  171SAPS   H6X19441   1.916   3.501   6.294 -1.1621 -0.4744 -0.3209
  171SAPS   H6Y19442   2.009   3.575   6.155 -0.0597  1.8224 -1.2059
  171SAPS   C3719443   1.832   3.496   6.094  0.2377  0.6601  0.1330
  171SAPS   H7X19444   1.736   3.454   6.132  0.8876 -2.3326 -1.2357
  171SAPS   H7Y19445   1.885   3.408   6.051 -2.5945 -1.2912  0.3176
  171SAPS   C3819446   1.789   3.588   5.982 -0.0313 -0.8835 -0.1020
  171SAPS   H8X19447   1.884   3.632   5.944 -0.4040 -1.1134 -1.3483
  171SAPS   H8Y19448   1.713   3.663   6.010 -0.5789 -1.7285  0.7167
  171SAPS   C3919449   1.720   3.506   5.871 -0.3153  0.0735  0.2322
  171SAPS   H9X19450   1.617   3.484   5.907  0.2861 -0.4257  1.7606
  171SAPS   H9Y19451   1.777   3.411   5.877  1.6081  1.1643  0.0333
  171SAPS  C31019452   1.717   3.580   5.733  0.4306  1.0785  0.5560
  171SAPS  H10X19453   1.814   3.617   5.692 -0.2524 -0.5753 -2.9276
  171SAPS  H10Y19454   1.646   3.664   5.744 -0.8798  0.0086  0.4592
  171SAPS  C31119455   1.663   3.483   5.633 -0.5208 -0.0144  0.0057
  171SAPS  H11X19456   1.565   3.439   5.663  0.1892 -2.2013 -0.6937
  171SAPS  H11Y19457   1.745   3.409   5.621 -0.9156 -0.1791 -2.1677
  171SAPS  C31219458   1.654   3.541   5.495  0.5753  0.3014  0.2246
  171SAPS  H12X19459   1.600   3.638   5.488  0.1639 -0.0417 -2.4561
  171SAPS  H12Y19460   1.599   3.465   5.436 -0.5070 -0.3144  1.9809
  171SAPS  C31319461   1.781   3.553   5.419  0.0631  0.7687 -0.8032
  171SAPS  H13X19462   1.833   3.456   5.407  2.2908  1.9612 -1.3065
  171SAPS  H13Y19463   1.853   3.619   5.471  0.7734 -0.9594  0.5082
  171SAPS  C31419464   1.745   3.610   5.282  0.6946 -0.2486  0.2366
  171SAPS  H14X19465   1.732   3.718   5.303 -0.5652 -0.5460  1.1003
  171SAPS  H14Y19466   1.649   3.576   5.237  0.9287 -0.9448  0.2459
  171SAPS  C31519467   1.852   3.599   5.174 -0.1552  0.6038 -0.3484
  171SAPS  H15X19468   1.947   3.638   5.217 -0.5813  2.4325 -0.9741
  171SAPS  H15Y19469   1.847   3.677   5.095  0.5420  0.4783 -0.5301
  171SAPS  C31619470   1.887   3.450   5.129 -0.0169 -0.1465 -0.0794
  171SAPS  H16X19471   1.809   3.401   5.066  0.5025 -0.4498 -0.4955
  171SAPS  H16Y19472   1.903   3.386   5.218  1.4233  0.2835  0.0051
  171SAPS  C31719473   2.009   3.455   5.027  0.3283  0.6628 -0.1233
  171SAPS  H17X19474   2.089   3.471   5.103 -0.5239 -1.0016  1.2053
  171SAPS  H17Y19475   2.005   3.542   4.959  1.5898  1.2867  0.5771
  171SAPS  C31819476   2.052   3.321   4.964 -0.3301  0.1408 -0.1793
  171SAPS  H18X19477   2.047   3.234   5.034 -0.5358  0.9163  0.7914
  171SAPS  H18Y19478   2.152   3.330   4.916 -0.0850  1.6213  0.5527
  171SAPS  H18Z19479   1.982   3.293   4.882  0.9219 -0.6943 -1.0001
  172SAPS     N19480   3.108   5.465   6.935  0.0701  0.0562 -0.1002
  172SAPS   HN119481   3.048   5.389   6.896  3.0557 -2.3709 -0.3156
  172SAPS   HN219482   3.140   5.446   7.032  2.0263 -0.1408 -0.7415
  172SAPS   HN319483   3.045   5.547   6.939 -0.2942 -0.2411  0.4904
  172SAPS   C1219484   3.236   5.475   6.873 -0.7864 -0.2784  0.7038
  172SAPS  H12A19485   3.295   5.520   6.952  0.8422  1.2483 -1.2563
  172SAPS   C1319486   3.308   5.342   6.848  0.0335  0.0940 -0.6103
  172SAPS  O13A19487   3.266   5.228   6.889 -0.1054  0.0446  0.4740
  172SAPS  O13B19488   3.426   5.344   6.804  0.3959 -0.5301 -0.2482
  172SAPS   C1119489   3.241   5.577   6.750 -0.7566 -0.4700 -0.4165
  172SAPS  H11A19490   3.186   5.530   6.666 -1.5932 -1.2389  0.5281
  172SAPS  H11B19491   3.346   5.594   6.715 -0.5162  0.8876  0.8699
  172SAPS     P19492   3.252   5.833   6.809  0.2505 -0.2586 -0.2805
  172SAPS   O1319493   3.174   5.911   6.904 -0.5176  0.0766  0.3006
  172SAPS   O1419494   3.393   5.801   6.841  0.6151  0.7795 -0.3726
  172SAPS   O1219495   3.171   5.697   6.780  0.0407  0.3051 -0.0010
  172SAPS   O1119496   3.257   5.923   6.677 -0.1292 -0.2792  0.5825
  172SAPS    C119497   3.180   5.885   6.559  0.8886  0.1321 -0.7367
  172SAPS    HA19498   3.112   5.800   6.578  1.7763 -0.3615  0.3039
  172SAPS    HB19499   3.109   5.967   6.536 -0.3122 -0.8352 -0.5734
  172SAPS    C219500   3.253   5.852   6.426 -0.1027 -0.3764 -0.4240
  172SAPS    HS19501   3.173   5.855   6.348 -0.6788  0.5938  0.1882
  172SAPS   O2119502   3.320   5.725   6.461 -0.2994 -0.1786 -0.2511
  172SAPS   C2119503   3.337   5.653   6.351  0.1499 -0.2765 -0.0799
  172SAPS   O2219504   3.304   5.683   6.236  0.1855  0.3309 -0.0496
  172SAPS   C2219505   3.409   5.522   6.387 -0.4204  0.4501 -0.0161
  172SAPS   H2R19506   3.516   5.543   6.368 -0.5146 -0.2102 -1.3693
  172SAPS   H2S19507   3.389   5.485   6.490  0.0982 -3.2928 -1.1174
  172SAPS    C319508   3.354   5.960   6.393 -0.4027 -0.1231 -0.0160
  172SAPS    HX19509   3.430   5.954   6.474 -1.7324 -0.8340  1.2536
  172SAPS    HY19510   3.310   6.062   6.398  0.6964  0.4126 -0.8373
  172SAPS   O3119511   3.415   5.928   6.262 -0.4707  0.2049 -0.1573
  172SAPS   C3119512   3.336   5.984   6.163  0.7103 -0.0391  0.6929
  172SAPS   O3219513   3.240   6.054   6.177 -0.1901  0.5000  0.1931
  172SAPS   C3219514   3.380   5.947   6.026 -0.1927 -0.2394  0.6759
  172SAPS   H2X19515   3.366   5.837   6.021 -1.2406 -0.1192  0.8187
  172SAPS   H2Y19516   3.485   5.984   6.023 -0.3196  0.0379 -1.6680
  172SAPS   C2319517   3.378   5.402   6.293 -0.3160 -0.9333  0.2725
  172SAPS   H3R19518   3.439   5.419   6.201  0.1188  0.5506  0.8042
  172SAPS   H3S19519   3.269   5.407   6.270 -0.1709 -0.5717 -0.3691
  172SAPS   C2419520   3.413   5.269   6.347 -0.0463 -0.4807  0.3404
  172SAPS   H4R19521   3.511   5.260   6.398  2.0161  2.1649 -2.6983
  172SAPS   H4S19522   3.419   5.199   6.261  1.6642 -1.1985  1.0038
  172SAPS   C2519523   3.307   5.210   6.441 -0.9524  0.2430  0.3179
  172SAPS   H5R19524   3.333   5.224   6.546 -0.9161 -0.3610  0.3936
  172SAPS   C2619525   3.199   5.134   6.415 -0.0571  0.3580 -0.2624
  172SAPS   H6R19526   3.143   5.089   6.498  0.9416 -2.0199 -0.7958
  172SAPS   C2719527   3.133   5.093   6.287 -0.1994 -0.1761  0.6762
  172SAPS   H7R19528   3.082   4.998   6.313 -1.8692  1.0572  2.1430
  172SAPS   H7S19529   3.213   5.060   6.218  0.0601 -2.0219  1.7892
  172SAPS   C2819530   3.037   5.193   6.229  0.1778  0.8443 -0.0072
  172SAPS   H8R19531   3.036   5.296   6.267 -0.8185  0.2203  1.8068
  172SAPS   C2919532   2.927   5.152   6.171  0.2763  0.2653  0.2283
  172SAPS   H9R19533   2.854   5.231   6.147 -1.0608 -1.4221 -1.6289
  172SAPS  C21019534   2.883   5.011   6.121 -0.8714 -0.2313  0.4204
  172SAPS  H10R19535   2.965   4.945   6.158 -0.3731 -0.9621 -1.8490
  172SAPS  H10S19536   2.883   5.020   6.011 -0.6182 -2.5580  0.1882
  172SAPS  C21119537   2.751   4.958   6.177 -0.6146  0.4172 -1.1609
  172SAPS  H11R19538   2.733   4.972   6.285 -0.3077 -2.9406 -0.5608
  172SAPS  C21219539   2.673   4.875   6.110 -0.2952  0.1933  0.0680
  172SAPS  H12R19540   2.570   4.866   6.148 -0.6330 -2.5695 -1.3004
  172SAPS  C21319541   2.681   4.837   5.962 -0.2632  0.1750  0.4862
  172SAPS  H13R19542   2.779   4.864   5.917 -0.4021 -0.5204 -0.2560
  172SAPS  H13S19543   2.602   4.894   5.908  1.3926  0.0062 -2.3213
  172SAPS  C21419544   2.663   4.687   5.940  0.0143 -0.0535  0.1545
  172SAPS  H14R19545   2.656   4.633   6.035  0.2891  0.7573  0.6408
  172SAPS  C21519546   2.620   4.619   5.829 -0.5161 -0.3501  0.2643
  172SAPS  H15R19547   2.602   4.511   5.840  0.0033 -0.5886 -1.0557
  172SAPS  C21619548   2.621   4.672   5.686 -0.1531 -0.3454 -0.1648
  172SAPS  H16R19549   2.638   4.781   5.692  1.9725 -0.6363  0.0051
  172SAPS  H16S19550   2.520   4.668   5.641 -0.9025 -0.0319  1.4116
  172SAPS  C21719551   2.736   4.615   5.591 -0.0246  0.0079  0.4500
  172SAPS  H17R19552   2.703   4.509   5.600 -0.7665  0.3070  1.4467
  172SAPS  H17S19553   2.833   4.630   5.643 -0.3556  0.1947  1.0286
  172SAPS  C21819554   2.735   4.671   5.446 -0.0296  0.5463 -0.1805
  172SAPS  H18R19555   2.833   4.645   5.400  1.6154  2.2460  2.0631
  172SAPS  H18S19556   2.735   4.782   5.448 -3.0950  0.6284 -0.4770
  172SAPS  C21919557   2.613   4.637   5.364  0.0422 -0.0153 -0.5402
  172SAPS  H19R19558   2.513   4.666   5.402  0.2609  0.4300 -0.2944
  172SAPS  H19S19559   2.604   4.528   5.343 -1.7704 -0.2915  1.2522
  172SAPS  C22019560   2.626   4.713   5.226 -0.6669  0.0591 -0.8081
  172SAPS  H20R19561   2.707   4.670   5.164  0.7242  1.0392  0.2754
  172SAPS  H20S19562   2.649   4.820   5.247  0.3412 -0.6703  2.2373
  172SAPS  H20T19563   2.533   4.700   5.166 -0.7116 -0.9782 -0.5392
  172SAPS   C3319564   3.307   6.012   5.905 -0.6609 -0.0036 -0.1196
  172SAPS   H3X19565   3.316   6.123   5.910  2.7566 -0.2322  3.0191
  172SAPS   H3Y19566   3.202   5.976   5.894 -0.8091  0.2534  0.4305
  172SAPS   C3419567   3.369   5.964   5.777  0.4684 -0.1744 -0.0210
  172SAPS   H4X19568   3.368   5.854   5.791 -2.7100 -0.1435  0.8445
  172SAPS   H4Y19569   3.471   6.004   5.760  0.0084  0.0971 -2.4800
  172SAPS   C3519570   3.284   6.002   5.654 -0.3827  0.0013 -1.1355
  172SAPS   H5X19571   3.298   6.112   5.645  0.6803  0.0850  0.8695
  172SAPS   H5Y19572   3.179   5.972   5.671  0.3634 -2.1090  0.2950
  172SAPS   C3619573   3.338   5.931   5.530  0.3744  0.0522 -0.1178
  172SAPS   H6X19574   3.345   5.822   5.551  0.3481  0.3664  1.7532
  172SAPS   H6Y19575   3.442   5.968   5.519  0.8581 -0.2775  2.5046
  172SAPS   C3719576   3.279   5.956   5.388  0.0087  0.1034 -0.9871
  172SAPS   H7X19577   3.263   6.066   5.381 -0.8248  0.0259 -0.3665
  172SAPS   H7Y19578   3.178   5.910   5.385 -0.1669  0.3265  0.8365
  172SAPS   C3819579   3.366   5.895   5.279  0.1303  0.3348  0.2715
  172SAPS   H8X19580   3.378   5.787   5.301  2.5788  0.5001  0.0383
  172SAPS   H8Y19581   3.469   5.930   5.303  0.8542 -2.6158  1.9253
  172SAPS   C3919582   3.329   5.938   5.134  0.5390 -0.2867 -0.2306
  172SAPS   H9X19583   3.415   5.900   5.074 -0.0791  0.5840 -1.7375
  172SAPS   H9Y19584   3.340   6.048   5.125  1.0953  0.0752  3.4765
  172SAPS  C31019585   3.191   5.887   5.088  0.1720  0.7188 -0.2288
  172SAPS  H10X19586   3.112   5.915   5.161 -1.7080  0.3968 -2.0141
  172SAPS  H10Y19587   3.196   5.776   5.097 -1.1350  0.8038  2.7213
  172SAPS  C31119588   3.147   5.919   4.941  0.2328 -0.3212  0.4235
  172SAPS  H11X19589   3.049   5.871   4.922 -0.2112  0.0493  1.6455
  172SAPS  H11Y19590   3.221   5.876   4.871 -0.3395 -1.0843  0.2757
  172SAPS  C31219591   3.130   6.072   4.917  0.7974  0.4813  0.0686
  172SAPS  H12X19592   3.112   6.089   4.809  1.3385 -0.0571 -0.1087
  172SAPS  H12Y19593   3.220   6.130   4.947  0.9446  0.3759 -0.1765
  172SAPS  C31319594   3.010   6.130   4.990 -0.5086  0.5211 -0.1514
  172SAPS  H13X19595   3.019   6.124   5.101  1.1138 -1.7181 -0.3393
  172SAPS  H13Y19596   2.923   6.066   4.965  1.4995 -2.1605 -0.6366
  172SAPS  C31419597   2.986   6.277   4.951  0.4188  0.0058  0.2308
  172SAPS  H14X19598   2.885   6.303   4.991  0.5131  1.1027 -0.2216
  172SAPS  H14Y19599   2.985   6.293   4.841 -0.7414 -2.1481 -0.1386
  172SAPS  C31519600   3.090   6.366   5.007 -0.1252 -0.4300 -0.1288
  172SAPS  H15X19601   3.166   6.378   4.926  1.6042  2.5152  1.7660
  172SAPS  H15Y19602   3.151   6.317   5.086 -0.5396 -1.7884 -0.6193
  172SAPS  C31619603   3.046   6.512   5.043  0.0865 -0.0330  0.1432
  172SAPS  H16X19604   2.952   6.508   5.101 -0.0475 -1.0177 -0.1252
  172SAPS  H16Y19605   3.117   6.550   5.119  0.6244 -2.3499  0.8705
  172SAPS  C31719606   3.036   6.608   4.916 -0.6042 -0.0505 -0.0548
  172SAPS  H17X19607   2.992   6.704   4.951  1.9528  0.1089  3.1755
  172SAPS  H17Y19608   2.975   6.564   4.835  0.2035  1.0456 -1.3138
  172SAPS  C31819609   3.163   6.646   4.832  0.2308 -0.4864 -0.2895
  172SAPS  H18X19610   3.130   6.682   4.732 -0.1482 -0.5803 -0.2007
  172SAPS  H18Y19611   3.236   6.564   4.818  1.1674 -0.2002  2.4119
  172SAPS  H18Z19612   3.227   6.722   4.882 -0.0727  0.2231 -0.9587
  173SAPS     N19613   2.908   5.930   2.310  0.4686  0.4202  0.6462
  173SAPS   HN119614   3.009   5.955   2.306  0.8780 -1.2236 -0.9108
  173SAPS   HN219615   2.841   6.000   2.271 -1.1719  0.0316  2.5980
  173SAPS   HN319616   2.885   5.929   2.411  0.6752 -2.2689  0.7559
  173SAPS   C1219617   2.904   5.796   2.249  0.6740 -0.5419  0.5807
  173SAPS  H12A19618   2.857   5.791   2.152 -1.8163  1.3000  1.5693
  173SAPS   C1319619   3.040   5.728   2.241  0.1406 -0.3484  1.0243
  173SAPS  O13A19620   3.137   5.781   2.299  0.3873  0.2792  0.2150
  173SAPS  O13B19621   3.050   5.620   2.184  0.0927 -0.3405  0.5810
  173SAPS   C1119622   2.803   5.703   2.325  0.3250  0.0934  0.5623
  173SAPS  H11A19623   2.864   5.676   2.414 -0.4784 -0.6312  0.9051
  173SAPS  H11B19624   2.795   5.612   2.262 -1.2413  1.1834 -0.9102
  173SAPS     P19625   2.560   5.659   2.406  0.0837 -0.3843 -0.0977
  173SAPS   O1319626   2.429   5.717   2.367  0.1887  0.4878 -0.1994
  173SAPS   O1419627   2.597   5.525   2.357 -0.2472  0.2222  0.3203
  173SAPS   O1219628   2.679   5.761   2.370 -0.1267 -0.4886  0.1968
  173SAPS   O1119629   2.563   5.651   2.563 -0.2094  0.2436 -0.8445
  173SAPS    C119630   2.675   5.599   2.632 -0.2632 -0.1763  0.5143
  173SAPS    HA19631   2.685   5.490   2.614 -0.9618 -0.0654 -0.6268
  173SAPS    HB19632   2.772   5.645   2.606 -0.7398  0.0028 -1.0501
  173SAPS    C219633   2.656   5.630   2.784 -0.3014 -0.8301 -0.8987
  173SAPS    HS19634   2.755   5.626   2.835 -0.2255 -1.3013 -1.0778
  173SAPS   O2119635   2.572   5.541   2.853  0.1886 -0.0108  0.6194
  173SAPS   C2119636   2.621   5.418   2.861  0.7247 -0.4073 -0.2448
  173SAPS   O2219637   2.729   5.376   2.822 -0.3920  0.5047  0.0657
  173SAPS   C2219638   2.521   5.330   2.945  0.2910  0.3385  0.3472
  173SAPS   H2R19639   2.422   5.381   2.945  0.9481  1.6374  0.7335
  173SAPS   H2S19640   2.506   5.238   2.885  0.4731  0.1443  0.5974
  173SAPS    C319641   2.607   5.774   2.807 -0.6438  0.4790 -0.0379
  173SAPS    HX19642   2.511   5.792   2.754  0.5571 -0.2017 -2.6420
  173SAPS    HY19643   2.684   5.837   2.757  0.4763  1.4181  2.6730
  173SAPS   O3119644   2.608   5.802   2.946  0.1497  0.3688 -0.3429
  173SAPS   C3119645   2.631   5.921   2.985 -0.2360 -0.3908 -0.1252
  173SAPS   O3219646   2.682   6.007   2.911 -0.6324 -0.3573  0.0604
  173SAPS   C3219647   2.586   5.940   3.128  0.6244 -1.1367 -0.1509
  173SAPS   H2X19648   2.624   5.852   3.185  0.6109 -2.1476 -1.6377
  173SAPS   H2Y19649   2.475   5.927   3.129  0.4553  0.1738  0.4652
  173SAPS   C2319650   2.562   5.294   3.092 -0.2255 -0.2784  0.0060
  173SAPS   H3R19651   2.467   5.267   3.141 -0.8004 -1.5424 -1.6998
  173SAPS   H3S19652   2.605   5.392   3.120 -0.3391 -0.2458  0.0620
  173SAPS   C2419653   2.671   5.186   3.112  0.2619  0.1690  0.5914
  173SAPS   H4R19654   2.713   5.182   3.215 -0.2759  1.1362  0.8585
  173SAPS   H4S19655   2.754   5.228   3.051 -1.9457  2.6855 -0.8354
  173SAPS   C2519656   2.634   5.044   3.071  0.0381 -0.8909 -0.0264
  173SAPS   H5R19657   2.589   5.036   2.971 -0.1436  1.0491 -0.1365
  173SAPS   C2619658   2.637   4.933   3.148 -0.4230  0.1114 -1.2703
  173SAPS   H6R19659   2.606   4.839   3.100 -2.8467 -0.5447  1.3038
  173SAPS   C2719660   2.673   4.913   3.291  0.1921 -0.7267  0.5243
  173SAPS   H7R19661   2.592   4.853   3.338 -0.6734  0.9958  1.3619
  173SAPS   H7S19662   2.681   5.008   3.349 -0.8038 -0.1418 -0.2708
  173SAPS   C2819663   2.811   4.857   3.315 -0.8458  0.4331 -0.2811
  173SAPS   H8R19664   2.830   4.754   3.279  3.2394  0.3137  1.6297
  173SAPS   C2919665   2.917   4.917   3.383  0.7202 -0.1454  0.3046
  173SAPS   H9R19666   3.011   4.862   3.392  0.8071 -0.1667 -0.6118
  173SAPS  C21019667   2.923   5.055   3.435 -0.4541 -0.7826  0.0782
  173SAPS  H10R19668   2.882   5.046   3.538  1.5376 -2.0672  0.8191
  173SAPS  H10S19669   2.850   5.122   3.386 -0.0482  1.0766  1.8497
  173SAPS  C21119670   3.051   5.128   3.440 -0.1510 -0.3207  0.3709
  173SAPS  H11R19671   3.099   5.156   3.345 -1.2919  1.0528  0.1637
  173SAPS  C21219672   3.129   5.153   3.544  0.3176  0.4837  0.2628
  173SAPS  H12R19673   3.223   5.210   3.538  0.7032 -0.0750  0.7991
  173SAPS  C21319674   3.098   5.116   3.687 -0.1523  0.2184  0.5424
  173SAPS  H13R19675   2.989   5.099   3.700 -0.2732  0.5124 -0.0664
  173SAPS  H13S19676   3.115   5.197   3.761  0.0037 -0.5829  1.3944
  173SAPS  C21419677   3.170   4.991   3.737 -0.1001 -0.3857 -0.1869
  173SAPS  H14R19678   3.160   4.904   3.671 -1.0234  0.0335 -0.6245
  173SAPS  C21519679   3.235   4.973   3.854  0.4336  0.0494  0.2805
  173SAPS  H15R19680   3.284   4.875   3.858  0.1487 -0.3830 -3.1382
  173SAPS  C21619681   3.249   5.081   3.968 -0.8522 -0.1919 -0.0131
  173SAPS  H16R19682   3.185   5.167   3.936 -0.3572 -0.0015 -0.5159
  173SAPS  H16S19683   3.354   5.116   3.979 -0.2500  0.3294 -4.9085
  173SAPS  C21719684   3.185   5.025   4.099  0.2376 -0.0734 -0.3183
  173SAPS  H17R19685   3.085   4.980   4.083  0.5589 -0.3620 -1.5834
  173SAPS  H17S19686   3.155   5.105   4.170 -0.1429 -1.0555  0.6547
  173SAPS  C21819687   3.293   4.944   4.175  0.2617  0.4465  0.7378
  173SAPS  H18R19688   3.390   4.987   4.142 -0.5343  1.1898 -0.6801
  173SAPS  H18S19689   3.291   4.836   4.149  1.3998  1.4450 -4.7074
  173SAPS  C21919690   3.303   4.975   4.324  0.4195  0.1140 -0.3720
  173SAPS  H19R19691   3.373   4.900   4.365  0.0462 -1.6336 -2.7410
  173SAPS  H19S19692   3.203   4.958   4.371  0.3941  1.0898 -0.0503
  173SAPS  C22019693   3.344   5.117   4.358 -0.6269 -0.4948 -0.1184
  173SAPS  H20R19694   3.449   5.137   4.327 -0.1543 -3.5436 -0.7817
  173SAPS  H20S19695   3.328   5.126   4.468  0.7066  0.6046  0.0150
  173SAPS  H20T19696   3.268   5.182   4.310 -0.9148 -1.5347 -1.1240
  173SAPS   C3319697   2.624   6.081   3.189  0.0630 -0.3830  0.4430
  173SAPS   H3X19698   2.561   6.160   3.143 -0.6393 -0.5153  1.1547
  173SAPS   H3Y19699   2.732   6.104   3.173 -0.4683  0.9958 -1.5677
  173SAPS   C3419700   2.592   6.087   3.340 -0.5942  0.6229 -0.3463
  173SAPS   H4X19701   2.503   6.026   3.365 -0.2894 -0.2388 -1.2903
  173SAPS   H4Y19702   2.564   6.192   3.362  0.4360  0.7161  0.5704
  173SAPS   C3519703   2.696   6.032   3.438  0.2389  0.1743  0.4432
  173SAPS   H5X19704   2.784   6.007   3.376 -0.9251  0.8052 -1.5637
  173SAPS   H5Y19705   2.666   5.942   3.497  1.8657 -0.0224  1.0224
  173SAPS   C3619706   2.730   6.144   3.533 -0.3266 -0.6808 -0.0570
  173SAPS   H6X19707   2.635   6.189   3.570 -0.3394  0.6117 -1.5360
  173SAPS   H6Y19708   2.765   6.232   3.473 -0.6958 -0.5156 -0.0341
  173SAPS   C3719709   2.821   6.107   3.650  0.7368  0.6153  0.0946
  173SAPS   H7X19710   2.846   6.204   3.697 -0.2309  0.9643 -0.0940
  173SAPS   H7Y19711   2.917   6.061   3.620  1.9588  0.2282  4.0915
  173SAPS   C3819712   2.752   6.032   3.759 -0.1801  0.0013 -0.2102
  173SAPS   H8X19713   2.745   5.923   3.736 -0.7324  0.0893 -0.4621
  173SAPS   H8Y19714   2.650   6.075   3.772  0.2221  0.7558  0.5216
  173SAPS   C3919715   2.821   6.047   3.895  0.5575  0.8210  0.4554
  173SAPS   H9X19716   2.833   6.153   3.927 -0.5136  0.7495  1.1492
  173SAPS   H9Y19717   2.923   6.004   3.901 -0.3155 -1.2386  1.1753
  173SAPS  C31019718   2.743   5.980   4.005  0.6647 -0.2921 -0.1058
  173SAPS  H10X19719   2.750   5.869   4.003  0.8258 -0.3316  1.3779
  173SAPS  H10Y19720   2.639   6.020   4.001  0.8310  0.0496 -1.2388
  173SAPS  C31119721   2.795   6.015   4.146  0.5512 -0.2902  0.8412
  173SAPS  H11X19722   2.786   6.126   4.151  0.0688 -0.3120  0.5438
  173SAPS  H11Y19723   2.899   5.978   4.156  1.7230  1.2662 -3.4768
  173SAPS  C31219724   2.702   5.956   4.256 -0.5787  0.6776 -0.3388
  173SAPS  H12X19725   2.695   5.845   4.252 -3.1952  0.7166  1.1293
  173SAPS  H12Y19726   2.602   6.003   4.243 -1.4464 -0.3323  2.1612
  173SAPS  C31319727   2.751   6.005   4.396  0.3983  0.6591  0.0634
  173SAPS  H13X19728   2.731   6.114   4.392  1.8620  0.9618  0.3204
  173SAPS  H13Y19729   2.861   5.986   4.393  0.3802  0.4743  0.4614
  173SAPS  C31419730   2.683   5.944   4.516  0.4039  0.0479 -0.3095
  173SAPS  H14X19731   2.574   5.943   4.495  0.4908 -1.5197 -0.7777
  173SAPS  H14Y19732   2.681   6.011   4.605 -3.4505  0.4478 -0.5345
  173SAPS  C31519733   2.752   5.808   4.550  0.1655  0.8593  0.0096
  173SAPS  H15X19734   2.855   5.830   4.586  0.1067  1.4391 -0.1765
  173SAPS  H15Y19735   2.752   5.741   4.461 -2.1029 -0.0536  0.6467
  173SAPS  C31619736   2.691   5.736   4.670 -0.4620 -0.2644 -0.1194
  173SAPS  H16X19737   2.663   5.805   4.753  1.2449  0.0510  0.2260
  173SAPS  H16Y19738   2.770   5.667   4.706 -0.7288 -2.9534 -4.0818
  173SAPS  C31719739   2.567   5.646   4.638  0.7085  0.2561 -0.1728
  173SAPS  H17X19740   2.558   5.574   4.723 -0.5940 -0.1274 -0.6152
  173SAPS  H17Y19741   2.588   5.587   4.546  2.9377  1.6805 -0.6580
  173SAPS  C31819742   2.436   5.717   4.622 -0.2164  0.4814 -0.0978
  173SAPS  H18X19743   2.398   5.749   4.721  0.1370 -0.8545  0.5010
  173SAPS  H18Y19744   2.367   5.638   4.584 -0.0504  0.0559  0.4727
  173SAPS  H18Z19745   2.433   5.797   4.546 -1.5448  0.9653  0.4362
  174SAPS     N19746   0.003   3.613   2.476 -0.1662 -0.3465 -0.3034
  174SAPS   HN119747  -0.072   3.662   2.529 -0.4348  1.4668 -2.2224
  174SAPS   HN219748  -0.003   3.509   2.479  1.7030 -0.4654  1.9543
  174SAPS   HN319749   0.096   3.641   2.514 -0.3190 -0.5122  0.1895
  174SAPS   C1219750  -0.001   3.660   2.327 -0.1282  0.3067 -0.6532
  174SAPS  H12A19751  -0.105   3.656   2.299 -0.4980  0.7969  0.6206
  174SAPS   C1319752   0.035   3.808   2.334  0.1087  0.3951  0.1462
  174SAPS  O13A19753   0.102   3.848   2.433  0.1131  0.2244  0.1046
  174SAPS  O13B19754   0.018   3.882   2.233  0.0643 -0.1122  0.3271
  174SAPS   C1119755   0.103   3.588   2.242  0.3621  0.1563  0.7656
  174SAPS  H11A19756   0.207   3.594   2.280  0.7750 -0.7723 -0.1472
  174SAPS  H11B19757   0.097   3.637   2.142 -0.3164 -3.0504 -0.8929
  174SAPS     P19758   0.168   3.356   2.156  0.1746  0.0216 -0.0961
  174SAPS   O1319759   0.122   3.217   2.155 -0.0245  0.0594 -0.3180
  174SAPS   O1419760   0.221   3.414   2.028  0.1447  0.0231  0.6668
  174SAPS   O1219761   0.064   3.451   2.224  0.0956  0.4409  0.2095
  174SAPS   O1119762   0.292   3.359   2.261  0.8967 -0.2652 -0.2486
  174SAPS    C119763   0.294   3.264   2.367  0.2489  0.5867 -1.0733
  174SAPS    HA19764   0.193   3.221   2.389 -0.0358  1.3514 -0.8722
  174SAPS    HB19765   0.365   3.183   2.339  1.6651  2.0679 -1.9080
  174SAPS    C219766   0.339   3.330   2.496 -0.2853 -0.3772 -0.0303
  174SAPS    HS19767   0.278   3.423   2.503  0.8437  0.5704 -2.0139
  174SAPS   O2119768   0.476   3.358   2.485  0.3838  0.2788 -0.3497
  174SAPS   C2119769   0.531   3.441   2.564  0.5697  0.5451  0.7291
  174SAPS   O2219770   0.479   3.517   2.638  0.1003 -0.0469  0.2884
  174SAPS   C2219771   0.687   3.441   2.540 -0.4372 -0.2192  0.5414
  174SAPS   H2R19772   0.707   3.350   2.480 -0.8710 -0.1055  0.2207
  174SAPS   H2S19773   0.700   3.521   2.464 -1.0470 -0.9746 -0.3847
  174SAPS    C319774   0.312   3.229   2.614  0.1186  0.0242 -0.0382
  174SAPS    HX19775   0.383   3.145   2.600 -1.0391 -0.9337 -0.3798
  174SAPS    HY19776   0.216   3.173   2.610  1.4054 -2.2810 -0.4039
  174SAPS   O3119777   0.339   3.286   2.748  0.4334 -0.2450  0.0444
  174SAPS   C3119778   0.243   3.367   2.789 -0.4051  0.5267  0.4965
  174SAPS   O3219779   0.134   3.378   2.736  0.7107  0.3602  0.0135
  174SAPS   C3219780   0.294   3.450   2.920  0.2871  0.3650 -0.4316
  174SAPS   H2X19781   0.378   3.516   2.888 -0.2120  1.1387 -0.1577
  174SAPS   H2Y19782   0.331   3.362   2.977  0.0069 -1.2962 -2.6476
  174SAPS   C2319783   0.772   3.448   2.672  0.2041 -0.4435  0.2434
  174SAPS   H3R19784   0.746   3.542   2.724 -0.3450 -0.0920 -0.6354
  174SAPS   H3S19785   0.877   3.471   2.641 -0.1279 -0.6152 -1.0969
  174SAPS   C2419786   0.768   3.318   2.745 -0.1108 -0.3537 -0.2734
  174SAPS   H4R19787   0.828   3.245   2.686  0.5184 -1.0050  1.1261
  174SAPS   H4S19788   0.662   3.288   2.760 -0.4157  1.4116  1.4924
  174SAPS   C2519789   0.840   3.352   2.881 -0.3032  0.3440  0.5328
  174SAPS   H5R19790   0.942   3.392   2.874 -0.6446  1.2522  0.7054
  174SAPS   C2619791   0.782   3.344   3.003 -0.2627 -0.0840  0.1228
  174SAPS   H6R19792   0.856   3.355   3.084  0.5315  0.2159 -0.6314
  174SAPS   C2719793   0.634   3.325   3.036 -0.4266 -0.0779  0.8597
  174SAPS   H7R19794   0.562   3.326   2.951 -1.8470 -1.4599  1.9680
  174SAPS   H7S19795   0.594   3.408   3.098 -2.9655 -2.1416  2.2424
  174SAPS   C2819796   0.631   3.189   3.100  0.1219  0.0086  0.8167
  174SAPS   H8R19797   0.644   3.106   3.029 -0.5090  0.8525 -0.3002
  174SAPS   C2919798   0.609   3.169   3.232 -0.1775 -0.1749 -0.6718
  174SAPS   H9R19799   0.607   3.071   3.283  2.2241 -0.0296 -0.1758
  174SAPS  C21019800   0.590   3.277   3.335 -0.1806 -0.4043 -0.4685
  174SAPS  H10R19801   0.559   3.376   3.296 -0.6507  0.0103  0.9254
  174SAPS  H10S19802   0.696   3.292   3.366 -0.6729 -1.1738  1.7515
  174SAPS  C21119803   0.498   3.230   3.449  0.2531 -0.6501 -0.2440
  174SAPS  H11R19804   0.391   3.250   3.432 -0.0978 -0.9380  1.4097
  174SAPS  C21219805   0.533   3.156   3.558 -0.3722  0.4460 -0.0069
  174SAPS  H12R19806   0.452   3.126   3.626 -1.2666 -4.1549 -2.6572
  174SAPS  C21319807   0.678   3.118   3.602 -0.5355 -0.2561  0.8265
  174SAPS  H13R19808   0.718   3.191   3.676  0.5995 -0.1121  0.0929
  174SAPS  H13S19809   0.746   3.124   3.514 -1.8346 -0.3140 -0.2072
  174SAPS  C21419810   0.686   2.977   3.651  0.5463 -0.4108 -0.8795
  174SAPS  H14R19811   0.656   2.906   3.572 -0.9967  0.8085 -1.4553
  174SAPS  C21519812   0.703   2.931   3.785 -0.0614  0.3671  0.2006
  174SAPS  H15R19813   0.708   2.824   3.808  1.9920  0.2640 -0.4820
  174SAPS  C21619814   0.721   3.009   3.910  0.1630  0.6318  0.0051
  174SAPS  H16R19815   0.748   3.115   3.889  1.3634  0.7797  2.0063
  174SAPS  H16S19816   0.810   2.968   3.962  0.1282 -1.4584 -1.4822
  174SAPS  C21719817   0.607   3.001   4.002  0.3664  0.3181 -0.5573
  174SAPS  H17R19818   0.631   3.033   4.106 -1.5671 -0.1554  0.0687
  174SAPS  H17S19819   0.574   2.896   4.020  0.7459 -0.1569 -2.4139
  174SAPS  C21819820   0.485   3.075   3.940 -0.0867  0.5341  0.0665
  174SAPS  H18R19821   0.460   3.022   3.846 -1.4864  1.7128 -0.2603
  174SAPS  H18S19822   0.523   3.172   3.902  1.0268  1.4082  3.1228
  174SAPS  C21919823   0.365   3.086   4.027  0.2566 -0.3947  0.1466
  174SAPS  H19R19824   0.333   2.985   4.062 -2.1458  0.3129  0.1646
  174SAPS  H19S19825   0.278   3.122   3.969 -0.0351 -1.8481 -0.3647
  174SAPS  C22019826   0.386   3.177   4.152 -0.4480 -0.3758 -0.0230
  174SAPS  H20R19827   0.482   3.149   4.201  0.3182  1.1784 -0.5691
  174SAPS  H20S19828   0.306   3.164   4.227  0.4068  0.0179  0.9766
  174SAPS  H20T19829   0.401   3.283   4.122  1.7033 -0.3136  1.1281
  174SAPS   C3319830   0.178   3.537   2.981 -0.0432  0.7372  0.1832
  174SAPS   H3X19831   0.096   3.467   3.006  0.0760  0.7441  0.5963
  174SAPS   H3Y19832   0.139   3.599   2.897  0.7165 -1.1552 -1.6803
  174SAPS   C3419833   0.237   3.622   3.097  0.1050  0.0544 -0.0259
  174SAPS   H4X19834   0.153   3.691   3.117  0.3769  0.1612  0.7638
  174SAPS   H4Y19835   0.326   3.674   3.055  0.1609 -0.8255 -1.0403
  174SAPS   C3519836   0.268   3.537   3.226 -0.0435 -0.0264 -0.0034
  174SAPS   H5X19837   0.357   3.475   3.205 -0.0125 -0.1125  0.3770
  174SAPS   H5Y19838   0.186   3.465   3.246 -0.2732  0.1955 -0.1297
  174SAPS   C3619839   0.272   3.627   3.354 -0.5530  0.6046  0.9216
  174SAPS   H6X19840   0.202   3.710   3.334  1.4922  2.3139  0.5464
  174SAPS   H6Y19841   0.371   3.677   3.360 -0.5133  0.3405  3.0776
  174SAPS   C3719842   0.239   3.566   3.485 -0.4772  0.3582 -0.4200
  174SAPS   H7X19843   0.314   3.488   3.509  0.5087  1.9541  2.0569
  174SAPS   H7Y19844   0.141   3.516   3.475  0.3402 -1.4107 -0.0013
  174SAPS   C3819845   0.258   3.664   3.598  0.3355 -1.3317 -0.8500
  174SAPS   H8X19846   0.171   3.733   3.590  1.1377 -0.5012 -3.0839
  174SAPS   H8Y19847   0.340   3.737   3.577 -0.8540 -0.1822 -1.6338
  174SAPS   C3919848   0.284   3.598   3.741  0.9697  0.2328 -0.5573
  174SAPS   H9X19849   0.374   3.533   3.730 -0.7604 -1.9719 -2.7726
  174SAPS   H9Y19850   0.188   3.545   3.755  1.8621 -0.8237  2.0818
  174SAPS  C31019851   0.308   3.692   3.858 -0.0867  0.3140 -0.4797
  174SAPS  H10X19852   0.216   3.751   3.880 -0.4861 -0.1579 -0.8587
  174SAPS  H10Y19853   0.390   3.762   3.830 -0.3289  0.1521 -1.6518
  174SAPS  C31119854   0.335   3.608   3.983  0.0342  0.5382 -0.2108
  174SAPS  H11X19855   0.426   3.550   3.956 -0.5405  0.2231 -1.5720
  174SAPS  H11Y19856   0.253   3.536   4.004  1.3732 -1.3732 -1.1778
  174SAPS  C31219857   0.356   3.696   4.107 -0.1340 -0.2199  0.3188
  174SAPS  H12X19858   0.260   3.744   4.135  0.8621  1.6436  0.6908
  174SAPS  H12Y19859   0.417   3.787   4.094 -1.0238  0.2853 -0.4851
  174SAPS  C31319860   0.409   3.618   4.235  0.4949 -0.0670 -0.2301
  174SAPS  H13X19861   0.431   3.696   4.311  1.0283 -0.5872  0.1479
  174SAPS  H13Y19862   0.499   3.554   4.219  0.0920 -1.1237  1.4885
  174SAPS  C31419863   0.297   3.526   4.294  0.7790  0.0137  0.3271
  174SAPS  H14X19864   0.288   3.435   4.231 -0.5474  0.7425 -0.6088
  174SAPS  H14Y19865   0.204   3.586   4.307 -0.3450 -1.2904 -1.2884
  174SAPS  C31519866   0.328   3.485   4.443  0.3045 -0.5840  0.3440
  174SAPS  H15X19867   0.329   3.576   4.508  0.1991  0.1204 -0.6121
  174SAPS  H15Y19868   0.419   3.423   4.449 -0.8944 -2.2711  2.1904
  174SAPS  C31619869   0.218   3.396   4.512  0.3251  0.2555  0.2329
  174SAPS  H16X19870   0.198   3.306   4.449  0.7854 -0.9807  1.7699
  174SAPS  H16Y19871   0.124   3.454   4.522  1.0180  1.8966 -1.9618
  174SAPS  C31719872   0.255   3.336   4.658  0.8873  0.3308  0.2050
  174SAPS  H17X19873   0.168   3.285   4.703  0.9012 -1.8890 -2.0683
  174SAPS  H17Y19874   0.306   3.412   4.722 -0.0905  2.5449 -1.4921
  174SAPS  C31819875   0.364   3.220   4.638  0.2895  0.1876 -0.5731
  174SAPS  H18X19876   0.404   3.181   4.734  1.4242  1.3093 -0.5618
  174SAPS  H18Y19877   0.442   3.260   4.570 -0.8533 -0.5237 -2.3693
  174SAPS  H18Z19878   0.318   3.134   4.587 -3.1217  1.5208 -0.0270
  175SAPS     N19879   4.101   3.784   2.268 -0.5335  0.4097  0.4552
  175SAPS   HN119880   4.035   3.727   2.210 -2.4551  0.1491  2.7524
  175SAPS   HN219881   4.177   3.726   2.309 -1.3973 -1.5116 -0.5000
  175SAPS   HN319882   4.042   3.815   2.348 -2.5398  1.2757 -1.2620
  175SAPS   C1219883   4.151   3.908   2.205 -0.8938  0.3214 -0.2812
  175SAPS  H12A19884   4.211   3.963   2.275 -0.6032  0.9487 -1.0236
  175SAPS   C1319885   4.246   3.865   2.085 -0.5460  0.2043 -0.7196
  175SAPS  O13A19886   4.260   3.740   2.055  0.7840 -0.5440  0.3991
  175SAPS  O13B19887   4.293   3.954   2.013  0.6456 -0.0317  0.1176
  175SAPS   C1119888   4.031   3.991   2.153  0.0531 -0.8722 -0.3202
  175SAPS  H11A19889   3.971   3.943   2.072 -0.2129  0.7985 -1.1661
  175SAPS  H11B19890   4.094   4.074   2.114 -1.1736  1.0162  1.5102
  175SAPS     P19891   3.954   4.196   2.304 -0.0208 -0.1254  0.3490
  175SAPS   O1319892   3.977   4.289   2.195 -0.0435 -0.0657  0.2434
  175SAPS   O1419893   3.850   4.234   2.393  0.2147  0.2218 -0.2459
  175SAPS   O1219894   3.950   4.042   2.261  0.2407 -0.3661  0.8740
  175SAPS   O1119895   4.080   4.186   2.393  0.2184  0.6107 -0.0638
  175SAPS    C119896   4.111   4.080   2.499 -0.0854 -0.2593 -0.0308
  175SAPS    HA19897   4.072   3.980   2.471 -0.3101  0.1521 -1.2610
  175SAPS    HB19898   4.221   4.065   2.498 -0.2268 -1.4107  0.3406
  175SAPS    C219899   4.061   4.125   2.645  0.3889 -0.7202 -0.2634
  175SAPS    HS19900   3.951   4.113   2.644  0.3086 -0.0665 -1.4500
  175SAPS   O2119901   4.094   4.264   2.684 -0.1164 -0.2631  0.3113
  175SAPS   C2119902   4.035   4.299   2.800  0.7315 -0.2704 -0.2277
  175SAPS   O2219903   3.947   4.237   2.857  0.0286 -0.2722 -0.3669
  175SAPS   C2219904   4.103   4.428   2.854 -0.5803 -0.2392 -0.4331
  175SAPS   H2R19905   4.183   4.447   2.779  1.8784 -1.8880  1.5910
  175SAPS   H2S19906   4.026   4.508   2.853 -0.4359 -0.0885  0.1034
  175SAPS    C319907   4.125   4.016   2.743  0.5277  0.1390  0.2266
  175SAPS    HX19908   4.100   3.920   2.692 -1.0021  1.4113 -1.5505
  175SAPS    HY19909   4.080   4.030   2.844  0.5302  1.6031  0.0399
  175SAPS   O3119910   4.266   4.043   2.754 -0.2302 -0.2889 -0.4977
  175SAPS   C3119911   4.330   3.962   2.843 -0.0154  0.3094 -0.4264
  175SAPS   O3219912   4.268   3.871   2.898  0.1582  0.2080  0.4455
  175SAPS   C3219913   4.473   4.008   2.872  0.2478 -0.0119  0.6077
  175SAPS   H2X19914   4.472   4.118   2.860 -1.2047 -0.1336 -0.5107
  175SAPS   H2Y19915   4.547   3.962   2.803  0.4745  1.8156 -0.4066
  175SAPS   C2319916   4.154   4.418   2.999 -0.3655  0.1866  0.2470
  175SAPS   H3R19917   4.072   4.404   3.072  1.1037  0.6697  2.0498
  175SAPS   H3S19918   4.210   4.508   3.029 -0.2805  0.8866 -1.8343
  175SAPS   C2419919   4.262   4.300   3.013  0.1201 -0.7792  0.0890
  175SAPS   H4R19920   4.344   4.327   2.944 -1.3396  0.3772 -1.2938
  175SAPS   H4S19921   4.215   4.204   2.985 -0.2623 -0.7745  0.7019
  175SAPS   C2519922   4.323   4.297   3.150 -0.0394  0.1110 -0.0217
  175SAPS   H5R19923   4.411   4.360   3.170 -0.3090  0.4452  0.1364
  175SAPS   C2619924   4.285   4.217   3.250  0.2484 -0.3956 -0.4791
  175SAPS   H6R19925   4.327   4.226   3.351 -0.6449 -1.2607 -0.0160
  175SAPS   C2719926   4.163   4.130   3.243 -0.9174  0.9411  0.3078
  175SAPS   H7R19927   4.097   4.171   3.164 -0.7289  2.2914  0.8274
  175SAPS   H7S19928   4.100   4.134   3.335 -2.5170 -0.7155 -0.6359
  175SAPS   C2819929   4.191   3.979   3.216 -0.4815 -0.3075  0.2652
  175SAPS   H8R19930   4.186   3.957   3.108 -0.1416  2.3483 -0.3552
  175SAPS   C2919931   4.211   3.888   3.311  0.5379 -0.2589  1.1478
  175SAPS   H9R19932   4.230   3.782   3.289  1.0520 -0.1890  1.2294
  175SAPS  C21019933   4.222   3.918   3.456  0.7566 -0.4315 -0.5483
  175SAPS  H10R19934   4.124   3.889   3.501  0.8607  1.3819  1.0194
  175SAPS  H10S19935   4.229   4.026   3.481  0.9563 -0.9026  1.6455
  175SAPS  C21119936   4.335   3.848   3.525  0.3124 -0.3508 -0.0035
  175SAPS  H11R19937   4.430   3.850   3.469 -0.6742  1.8803 -1.7740
  175SAPS  C21219938   4.336   3.817   3.658 -0.3505 -0.5238 -0.3262
  175SAPS  H12R19939   4.429   3.782   3.705 -1.7122  0.5422  3.5419
  175SAPS  C21319940   4.214   3.797   3.744 -0.2407 -0.0277 -0.1148
  175SAPS  H13R19941   4.249   3.716   3.811  0.3417 -0.5932 -1.0750
  175SAPS  H13S19942   4.128   3.757   3.687 -2.2761  0.5798  2.3859
  175SAPS  C21419943   4.190   3.926   3.813  1.0442 -0.3718  0.1566
  175SAPS  H14R19944   4.234   4.017   3.769  2.5585 -1.2228 -0.1608
  175SAPS  C21519945   4.114   3.948   3.920  0.1720 -0.2438  0.9233
  175SAPS  H15R19946   4.119   4.052   3.955 -1.6715 -0.1623  1.0863
  175SAPS  C21619947   4.033   3.845   3.995 -0.1464 -0.6987  0.1742
  175SAPS  H16R19948   4.055   3.742   3.961 -1.2480 -0.7190 -0.5297
  175SAPS  H16S19949   3.926   3.866   3.976 -0.0892 -1.1253 -0.6751
  175SAPS  C21719950   4.065   3.853   4.146 -0.2892  0.6531  0.5124
  175SAPS  H17R19951   3.988   3.793   4.199 -0.2882  0.7101  0.5786
  175SAPS  H17S19952   4.049   3.953   4.192  0.8082  0.2879  1.7386
  175SAPS  C21819953   4.206   3.797   4.174 -0.2755 -0.3555 -0.1698
  175SAPS  H18R19954   4.288   3.846   4.118 -1.1836 -0.1166 -1.3448
  175SAPS  H18S19955   4.218   3.689   4.150 -1.5219 -0.5032 -0.2036
  175SAPS  C21919956   4.243   3.800   4.323 -0.1704  0.1211  0.0059
  175SAPS  H19R19957   4.193   3.720   4.382  0.0297 -0.3387 -0.4416
  175SAPS  H19S19958   4.204   3.896   4.363  1.1096  0.6953 -0.0932
  175SAPS  C22019959   4.397   3.814   4.342  0.0390  0.7463 -0.2674
  175SAPS  H20R19960   4.455   3.767   4.259  0.1408 -3.3163  1.8673
  175SAPS  H20S19961   4.424   3.752   4.429 -2.6408  1.0990  0.9179
  175SAPS  H20T19962   4.426   3.922   4.345 -0.0040  0.7604 -0.3451
  175SAPS   C3319963   4.516   3.978   3.016 -0.8582  0.3317 -0.0678
  175SAPS   H3X19964   4.527   3.868   3.019  1.8064  0.5317  0.4760
  175SAPS   H3Y19965   4.439   4.007   3.090  0.0133  0.2147  0.9007
  175SAPS   C3419966   4.652   4.042   3.061  0.5966  0.2063 -0.5539
  175SAPS   H4X19967   4.657   4.147   3.025  0.9229 -0.2778 -1.9831
  175SAPS   H4Y19968   4.729   3.997   2.995  0.3228  0.5383 -1.1086
  175SAPS   C3519969   4.700   4.031   3.207 -0.4056  0.6526  0.2268
  175SAPS   H5X19970   4.800   4.073   3.230 -0.9450  0.6716  2.9499
  175SAPS   H5Y19971   4.714   3.921   3.210  2.1583  0.8976 -0.6955
  175SAPS   C3619972   4.605   4.066   3.315 -0.2818  0.0542 -0.2780
  175SAPS   H6X19973   4.520   3.995   3.311  1.1318 -1.6830 -1.0674
  175SAPS   H6Y19974   4.574   4.170   3.292  1.9861  0.6265 -1.0555
  175SAPS   C3719975   4.657   4.056   3.453 -0.2383  0.3170 -0.3693
  175SAPS   H7X19976   4.760   4.097   3.468 -1.2513  2.0064  2.9132
  175SAPS   H7Y19977   4.667   3.951   3.486  0.2822  1.1975  2.5366
  175SAPS   C3819978   4.566   4.128   3.551  0.3699 -0.3764  0.0780
  175SAPS   H8X19979   4.461   4.119   3.516 -0.9604 -0.6531  3.7285
  175SAPS   H8Y19980   4.589   4.237   3.557 -0.0345 -0.3292  0.8277
  175SAPS   C3919981   4.573   4.074   3.701  0.4653  0.7401 -0.3747
  175SAPS   H9X19982   4.678   4.076   3.737  0.4309  0.8359 -0.2787
  175SAPS   H9Y19983   4.536   3.969   3.700  2.0431  0.1639  0.0802
  175SAPS  C31019984   4.482   4.148   3.796  0.3571 -0.7116  0.0847
  175SAPS  H10X19985   4.380   4.163   3.754  0.6564  2.1239  0.1702
  175SAPS  H10Y19986   4.515   4.255   3.795 -2.0888  0.1614  2.1907
  175SAPS  C31119987   4.476   4.097   3.944  0.1515 -0.1471  0.4006
  175SAPS  H11X19988   4.434   3.994   3.946  0.6183 -0.3262  1.7204
  175SAPS  H11Y19989   4.418   4.162   4.013 -0.4829 -0.8535  0.5467
  175SAPS  C31219990   4.614   4.090   4.008 -0.1019 -0.3772  0.1657
  175SAPS  H12X19991   4.670   4.186   3.995  0.3172 -0.5744  0.4804
  175SAPS  H12Y19992   4.669   4.007   3.958  0.3343 -0.0217  0.0459
  175SAPS  C31319993   4.609   4.058   4.157 -0.5104  0.1003 -0.4482
  175SAPS  H13X19994   4.561   3.958   4.154  0.3753 -0.4478  1.6022
  175SAPS  H13Y19995   4.544   4.137   4.201 -1.7675 -0.7420 -0.7289
  175SAPS  C31419996   4.742   4.037   4.231 -0.2166 -0.4415  0.2310
  175SAPS  H14X19997   4.728   4.045   4.341 -1.7044 -1.4156  0.1409
  175SAPS  H14Y19998   4.804   4.126   4.207  0.5867 -0.6392  1.5141
  175SAPS  C31519999   4.817   3.911   4.191  0.3825 -0.1261 -0.1031
  175SAPS  H15X20000   4.844   3.923   4.083 -0.0585 -0.2542 -0.2284
  175SAPS  H15Y20001   4.745   3.826   4.190 -0.4946  0.6049 -1.3073
  175SAPS  C31620002   4.946   3.864   4.268  0.0601 -0.0792  0.3646
  175SAPS  H16X20003   5.019   3.947   4.254  0.0952 -0.4439 -2.0581
  175SAPS  H16Y20004   4.973   3.773   4.211  1.5777  0.9061 -0.5604
  175SAPS  C31720005   4.923   3.843   4.418 -0.0088  0.0592 -0.0363
  175SAPS  H17X20006   4.827   3.789   4.436 -0.8380  1.4287 -0.2524
  175SAPS  H17Y20007   4.916   3.938   4.473  1.9234  1.1308 -1.5197
  175SAPS  C31820008   5.040   3.767   4.481 -0.2225 -0.0424  0.5120
  175SAPS  H18X20009   5.017   3.751   4.589  0.0504 -1.6325  0.3594
  175SAPS  H18Y20010   5.132   3.827   4.462  0.0320 -1.1146 -2.1292
  175SAPS  H18Z20011   5.054   3.667   4.435  1.8814  0.3698  0.1503
  176SAPS     N20012   3.444   2.234   2.556 -0.0493 -0.3369 -0.3407
  176SAPS   HN120013   3.419   2.326   2.514  0.9805 -0.3401 -1.0122
  176SAPS   HN220014   3.436   2.239   2.660  1.7630 -1.5811 -0.0861
  176SAPS   HN320015   3.544   2.216   2.532  0.2296 -3.4449  2.4570
  176SAPS   C1220016   3.361   2.132   2.497  0.2840  0.2801 -0.2928
  176SAPS  H12A20017   3.285   2.181   2.438  0.5223 -0.4381 -1.2047
  176SAPS   C1320018   3.437   2.032   2.402 -0.2402 -0.5248 -0.4159
  176SAPS  O13A20019   3.563   2.028   2.414  0.3901 -0.2811  0.5720
  176SAPS  O13B20020   3.373   1.953   2.328  0.3627  0.2766 -0.2010
  176SAPS   C1120021   3.298   2.050   2.610  0.6626  0.5417 -0.3534
  176SAPS  H11A20022   3.375   1.993   2.667  0.0625  0.4012  0.3345
  176SAPS  H11B20023   3.235   1.968   2.570 -1.4114  2.0795 -0.3646
  176SAPS     P20024   3.248   2.184   2.846 -0.3704  0.0380 -0.4286
  176SAPS   O1320025   3.358   2.284   2.825 -0.2836  0.8134  0.3428
  176SAPS   O1420026   3.124   2.231   2.902 -0.6939  0.6676 -0.2994
  176SAPS   O1220027   3.219   2.134   2.698  0.3691 -0.7077  0.1094
  176SAPS   O1120028   3.311   2.071   2.926  0.1629 -0.0337  0.3492
  176SAPS    C120029   3.377   2.103   3.051 -0.1676 -0.3101 -0.8161
  176SAPS    HA20030   3.466   2.167   3.034 -0.6219  0.3571 -0.6914
  176SAPS    HB20031   3.312   2.175   3.105  0.3130  0.2600 -0.9881
  176SAPS    C220032   3.376   1.988   3.154 -0.1784 -0.1899  0.0570
  176SAPS    HS20033   3.384   2.049   3.246 -4.0774  0.5115  0.0880
  176SAPS   O2120034   3.484   1.897   3.140 -0.3772 -0.0684 -0.4409
  176SAPS   C2120035   3.605   1.940   3.164 -0.6730  0.6801 -0.3175
  176SAPS   O2220036   3.626   2.051   3.214 -0.5391 -0.4353 -0.3851
  176SAPS   C2220037   3.708   1.831   3.142  0.3871 -0.4116  0.4908
  176SAPS   H2R20038   3.674   1.735   3.187 -1.2486  0.5682  1.4397
  176SAPS   H2S20039   3.709   1.827   3.031  2.0731 -1.5110  0.5002
  176SAPS    C320040   3.235   1.914   3.147 -0.1916 -0.6254 -0.4790
  176SAPS    HX20041   3.255   1.846   3.061  2.3559 -0.0203 -0.4578
  176SAPS    HY20042   3.158   1.986   3.113 -0.1314  0.2749  1.1870
  176SAPS   O3120043   3.201   1.855   3.272  0.3193  0.4808  0.5979
  176SAPS   C3120044   3.084   1.790   3.256 -0.0785  0.0576  0.0686
  176SAPS   O3220045   3.019   1.773   3.151 -0.2104 -0.5812 -0.3349
  176SAPS   C3220046   3.045   1.731   3.396 -0.5615  0.1367 -0.6200
  176SAPS   H2X20047   3.094   1.632   3.402  0.6324  0.7487  0.2883
  176SAPS   H2Y20048   2.938   1.706   3.379 -1.2217  2.4326 -0.1721
  176SAPS   C2320049   3.845   1.863   3.203  0.3442 -0.2840 -0.2480
  176SAPS   H3R20050   3.862   1.968   3.171 -0.0207  0.2188  1.1504
  176SAPS   H3S20051   3.920   1.796   3.156  0.2799  0.9348 -2.2357
  176SAPS   C2420052   3.850   1.872   3.355 -0.2605  0.5221  0.2567
  176SAPS   H4R20053   3.782   1.956   3.383 -1.1918 -0.0189 -0.3263
  176SAPS   H4S20054   3.949   1.917   3.377  0.6012  0.5105 -3.1562
  176SAPS   C2520055   3.815   1.748   3.436  0.2439 -0.3938  0.0704
  176SAPS   H5R20056   3.736   1.681   3.400 -1.1786  0.6181  1.2022
  176SAPS   C2620057   3.893   1.702   3.537  0.5932 -0.2830 -0.1312
  176SAPS   H6R20058   3.861   1.612   3.592 -2.1023  0.2170 -0.7112
  176SAPS   C2720059   4.013   1.766   3.599  0.5028  0.4453 -0.3731
  176SAPS   H7R20060   4.040   1.864   3.555 -0.2127  0.0699 -1.6998
  176SAPS   H7S20061   4.101   1.701   3.580 -0.3924 -1.0024  0.2418
  176SAPS   C2820062   3.970   1.788   3.747  0.2345 -0.0275  0.3899
  176SAPS   H8R20063   3.869   1.830   3.762 -0.8591 -2.9128  1.8504
  176SAPS   C2920064   4.041   1.746   3.849  0.2752  0.5565  0.4371
  176SAPS   H9R20065   4.003   1.763   3.951 -0.2809  1.4570  0.0861
  176SAPS  C21020066   4.169   1.672   3.840 -0.6178 -0.4501 -0.2539
  176SAPS  H10R20067   4.174   1.587   3.768  0.6772 -1.1246  0.5849
  176SAPS  H10S20068   4.186   1.626   3.940 -0.6063  2.9994  1.4544
  176SAPS  C21120069   4.280   1.773   3.809 -0.3265  0.2500 -0.2380
  176SAPS  H11R20070   4.265   1.846   3.728  1.1717 -0.8652 -1.6029
  176SAPS  C21220071   4.401   1.777   3.874  0.0676 -0.4473  0.7226
  176SAPS  H12R20072   4.478   1.845   3.833 -1.6045 -0.1253 -2.1283
  176SAPS  C21320073   4.441   1.688   3.981 -1.2135 -0.6656  0.1705
  176SAPS  H13R20074   4.379   1.598   4.001  0.1874 -1.1207  2.8778
  176SAPS  H13S20075   4.437   1.738   4.080  0.7952  1.3840 -0.6854
  176SAPS  C21420076   4.588   1.643   3.963 -0.4046  0.0685 -0.3834
  176SAPS  H14R20077   4.632   1.676   3.868 -0.3571  0.5488 -0.1998
  176SAPS  C21520078   4.664   1.561   4.042  0.6854  0.4190 -0.1488
  176SAPS  H15R20079   4.767   1.537   4.009 -0.1094 -2.0821 -1.0244
  176SAPS  C21620080   4.609   1.504   4.168  0.1470  0.0054 -0.2009
  176SAPS  H16R20081   4.525   1.565   4.208 -1.0246 -0.4167 -1.8964
  176SAPS  H16S20082   4.676   1.495   4.256 -0.7370  1.3577  0.6460
  176SAPS  C21720083   4.547   1.360   4.149 -0.5708 -0.3297  0.0499
  176SAPS  H17R20084   4.462   1.363   4.078 -1.2748 -0.6100  0.8652
  176SAPS  H17S20085   4.501   1.333   4.246  2.1008 -0.2942  1.4225
  176SAPS  C21820086   4.647   1.250   4.110  0.1446 -0.4565  1.3200
  176SAPS  H18R20087   4.748   1.261   4.154  2.4137 -2.2821 -2.9438
  176SAPS  H18S20088   4.659   1.248   4.000  1.5825  2.2444  1.3544
  176SAPS  C21920089   4.596   1.114   4.153 -0.3086 -0.3808 -0.1734
  176SAPS  H19R20090   4.578   1.118   4.262 -1.5450 -4.6408 -0.0595
  176SAPS  H19S20091   4.673   1.040   4.125 -1.5790 -1.6370 -0.4320
  176SAPS  C22020092   4.466   1.070   4.087  0.5714 -0.1836  0.1703
  176SAPS  H20R20093   4.421   0.977   4.128 -0.7813  0.0361 -0.7539
  176SAPS  H20S20094   4.477   1.051   3.979  3.7438 -2.6293  0.7943
  176SAPS  H20T20095   4.394   1.154   4.098 -2.0169 -2.1440 -0.7774
  176SAPS   C3320096   3.062   1.815   3.524 -0.2368 -0.1455 -0.6970
  176SAPS   H3X20097   3.016   1.915   3.507 -1.4907 -0.6629 -0.4471
  176SAPS   H3Y20098   3.171   1.816   3.543 -0.3274 -2.4407  0.2306
  176SAPS   C3420099   2.998   1.734   3.639  0.3866  0.3887  0.3938
  176SAPS   H4X20100   3.027   1.627   3.651 -2.0537 -0.2031  1.6015
  176SAPS   H4Y20101   2.888   1.732   3.622  0.5686 -1.0735 -0.8313
  176SAPS   C3520102   3.018   1.806   3.775 -0.0634  0.6160 -0.1872
  176SAPS   H5X20103   2.942   1.886   3.788 -2.3479 -1.4757  0.0851
  176SAPS   H5Y20104   3.110   1.869   3.770 -0.4046  1.0796 -0.7201
  176SAPS   C3620105   3.005   1.716   3.900  0.0485  0.1879 -0.1957
  176SAPS   H6X20106   3.068   1.626   3.887  2.3716  1.6583  0.2848
  176SAPS   H6Y20107   2.898   1.686   3.895  1.1769 -4.4723 -0.7435
  176SAPS   C3720108   3.041   1.786   4.034 -0.2314  0.4759 -0.0026
  176SAPS   H7X20109   2.958   1.847   4.075 -0.9318 -1.0917  0.9692
  176SAPS   H7Y20110   3.123   1.862   4.029 -0.9483  1.2076 -1.0524
  176SAPS   C3820111   3.076   1.671   4.137  0.0968  0.1256 -0.3298
  176SAPS   H8X20112   3.152   1.605   4.090  1.8401  0.7392  1.4959
  176SAPS   H8Y20113   2.982   1.610   4.143  1.9069 -2.8679 -0.4517
  176SAPS   C3920114   3.140   1.720   4.264 -0.3940 -1.2064  0.2005
  176SAPS   H9X20115   3.091   1.816   4.291  0.5886  0.2687 -2.8359
  176SAPS   H9Y20116   3.250   1.727   4.254 -0.4275 -0.4130  0.3597
  176SAPS  C31020117   3.119   1.620   4.379 -0.7160 -0.3062  0.5779
  176SAPS  H10X20118   3.159   1.517   4.367  0.9272 -0.0285  2.9137
  176SAPS  H10Y20119   3.009   1.617   4.395 -1.2205  0.4841 -2.2429
  176SAPS  C31120120   3.178   1.673   4.515  0.1187 -0.3179 -0.0800
  176SAPS  H11X20121   3.145   1.776   4.539 -0.7944 -0.3862 -0.9666
  176SAPS  H11Y20122   3.288   1.682   4.499  0.2001  0.1246  0.6788
  176SAPS  C31220123   3.157   1.583   4.633  0.2082 -0.1705  0.2488
  176SAPS  H12X20124   3.225   1.612   4.717  0.0547  3.5378 -0.7054
  176SAPS  H12Y20125   3.193   1.484   4.599  0.8158  0.2866 -0.4651
  176SAPS  C31320126   3.020   1.584   4.689 -0.5623  0.1885 -0.7987
  176SAPS  H13X20127   2.936   1.560   4.620 -0.2939 -0.6228 -0.8585
  176SAPS  H13Y20128   3.003   1.688   4.725 -3.0793 -0.6676  0.7820
  176SAPS  C31420129   3.024   1.496   4.810  0.0252 -0.6068  0.1855
  176SAPS  H14X20130   3.062   1.546   4.901 -1.0316 -1.7529  1.2956
  176SAPS  H14Y20131   3.082   1.403   4.792  0.3283 -0.4723  0.4639
  176SAPS  C31520132   2.884   1.437   4.848  0.5196  0.1100 -0.1372
  176SAPS  H15X20133   2.890   1.356   4.924  1.0898  1.0795  0.8787
  176SAPS  H15Y20134   2.834   1.384   4.764  1.3287 -1.6712  0.4390
  176SAPS  C31620135   2.780   1.550   4.881  0.3221 -0.1333 -0.2022
  176SAPS  H16X20136   2.784   1.636   4.810 -1.1541 -0.2271 -0.4313
  176SAPS  H16Y20137   2.801   1.591   4.982 -2.5743 -0.4623  0.6387
  176SAPS  C31720138   2.630   1.489   4.876 -0.3006 -0.4185 -0.2792
  176SAPS  H17X20139   2.628   1.393   4.932  0.3466 -0.8958 -1.0530
  176SAPS  H17Y20140   2.590   1.463   4.776 -1.9023 -1.3438  0.5509
  176SAPS  C31820141   2.529   1.577   4.960  0.6634 -0.0812  0.6895
  176SAPS  H18X20142   2.518   1.678   4.915 -1.5851 -0.3451  0.5103
  176SAPS  H18Y20143   2.555   1.601   5.065 -2.5058  0.6282  1.4399
  176SAPS  H18Z20144   2.434   1.520   4.953 -1.0250  2.3866  2.0168
  177SAPS     N20145   4.898   5.932   2.269 -0.5383 -0.5495  0.3003
  177SAPS   HN120146   4.990   5.969   2.235 -0.8492  0.3528  0.4011
  177SAPS   HN220147   4.840   6.019   2.272 -1.9037 -1.4500  0.6490
  177SAPS   HN320148   4.910   5.892   2.364 -1.8552  1.1567  1.2568
  177SAPS   C1220149   4.829   5.837   2.186  0.7219  0.7641  0.4586
  177SAPS  H12A20150   4.764   5.789   2.256 -0.2158  1.1633 -0.1251
  177SAPS   C1320151   4.759   5.892   2.060 -0.9430 -0.4910  0.6013
  177SAPS  O13A20152   4.738   6.014   2.035  0.5641  1.0222 -0.4077
  177SAPS  O13B20153   4.694   5.807   1.997  0.0322 -0.2009 -0.0106
  177SAPS   C1120154   4.923   5.719   2.131 -0.3789 -0.6686 -0.2345
  177SAPS  H11A20155   4.993   5.763   2.056 -0.8077 -0.3619 -0.4612
  177SAPS  H11B20156   4.864   5.645   2.073  0.4795 -1.1894 -0.4532
  177SAPS     P20157   5.063   5.518   2.223 -0.0607  0.1589 -0.3832
  177SAPS   O1320158   5.113   5.498   2.083  0.2538 -0.3780  0.0131
  177SAPS   O1420159   5.159   5.496   2.331 -0.8624 -0.2575 -0.6852
  177SAPS   O1220160   4.992   5.657   2.240  0.5991 -0.3406  0.3577
  177SAPS   O1120161   4.954   5.412   2.232  0.2052  0.1439 -0.4488
  177SAPS    C120162   4.811   5.422   2.258  0.0906  0.9181  0.5953
  177SAPS    HA20163   4.756   5.503   2.205 -0.9937  1.2105  2.1168
  177SAPS    HB20164   4.769   5.325   2.222 -0.3056  1.1981  0.2913
  177SAPS    C220165   4.774   5.432   2.405 -1.4208 -0.0788  0.2659
  177SAPS    HS20166   4.838   5.508   2.454  0.6518 -0.5433 -1.5785
  177SAPS   O2120167   4.789   5.300   2.461  0.5522  0.2667  0.0609
  177SAPS   C2120168   4.819   5.299   2.593  0.2357  0.2993 -0.4219
  177SAPS   O2220169   4.843   5.395   2.661  0.3734  0.2923 -0.0076
  177SAPS   C2220170   4.815   5.160   2.654 -0.2337  0.1336  0.3786
  177SAPS   H2R20171   4.717   5.115   2.629 -0.9104  1.7420  0.0208
  177SAPS   H2S20172   4.895   5.097   2.608 -0.3060  2.1429 -2.7941
  177SAPS    C320173   4.632   5.492   2.418  0.0672  0.1376  0.2291
  177SAPS    HX20174   4.561   5.437   2.352  0.0960  0.6502 -0.2307
  177SAPS    HY20175   4.641   5.592   2.372  0.6674 -0.7217 -1.5992
  177SAPS   O3120176   4.588   5.485   2.556 -0.3344 -0.2858  0.0930
  177SAPS   C3120177   4.608   5.594   2.626 -0.4790  0.3354 -0.4806
  177SAPS   O3220178   4.646   5.698   2.574 -0.7541 -0.4375 -0.7132
  177SAPS   C3220179   4.570   5.579   2.772 -0.4422 -0.2405 -0.3073
  177SAPS   H2X20180   4.580   5.472   2.799  1.5286 -0.1639 -0.5925
  177SAPS   H2Y20181   4.469   5.620   2.794  0.0410  0.1101  1.4917
  177SAPS   C2320182   4.817   5.170   2.807  0.0709 -0.4803 -0.1707
  177SAPS   H3R20183   4.753   5.254   2.841  1.0895  0.9014 -1.4974
  177SAPS   H3S20184   4.916   5.193   2.851 -0.2576 -1.3920  1.0909
  177SAPS   C2420185   4.749   5.047   2.879 -0.4345 -0.5461 -0.2027
  177SAPS   H4R20186   4.641   5.045   2.853 -0.7027  2.1171  0.3751
  177SAPS   H4S20187   4.741   5.070   2.987  1.0573  0.3134 -0.2491
  177SAPS   C2520188   4.828   4.919   2.861 -0.2243 -0.3958  0.4975
  177SAPS   H5R20189   4.815   4.872   2.762  1.9637  1.3676 -0.7311
  177SAPS   C2620190   4.910   4.867   2.952  0.2418  0.2456  0.0289
  177SAPS   H6R20191   4.945   4.765   2.932  1.2660  0.4313  0.7668
  177SAPS   C2720192   4.935   4.915   3.095  0.5673 -0.5197 -0.1797
  177SAPS   H7R20193   4.931   4.823   3.158 -0.8576 -0.3400  0.0222
  177SAPS   H7S20194   4.850   4.974   3.134  0.9397  0.9311 -1.4526
  177SAPS   C2820195   5.060   4.994   3.118 -0.2910  0.0693 -0.9148
  177SAPS   H8R20196   5.119   5.032   3.034  1.6097 -0.4393  0.1142
  177SAPS   C2920197   5.093   5.026   3.247  0.1078  0.7539  0.3574
  177SAPS   H9R20198   5.187   5.073   3.278 -0.5518  1.0433  2.0343
  177SAPS  C21020199   5.012   4.991   3.367 -0.2898 -0.4107 -0.2055
  177SAPS  H10R20200   4.907   5.015   3.339 -0.8809 -1.8429  0.6926
  177SAPS  H10S20201   5.035   5.067   3.446 -2.2139 -1.5364  1.5408
  177SAPS  C21120202   5.023   4.861   3.438  0.1023  0.0096  0.1751
  177SAPS  H11R20203   5.044   4.775   3.372  0.3213 -0.1722  0.4764
  177SAPS  C21220204   5.033   4.830   3.570 -0.1029  0.3367  0.5518
  177SAPS  H12R20205   5.027   4.724   3.600  1.8365 -0.1979 -0.7580
  177SAPS  C21320206   5.037   4.927   3.686  0.0767  0.7713  0.1874
  177SAPS  H13R20207   5.037   5.033   3.651  3.6529  0.0080 -2.7653
  177SAPS  H13S20208   5.130   4.912   3.745  1.2965  0.8467 -1.6307
  177SAPS  C21420209   4.921   4.912   3.778  0.5124 -0.1817 -0.4001
  177SAPS  H14R20210   4.827   4.958   3.743  1.2346  2.5793  0.9936
  177SAPS  C21520211   4.914   4.850   3.896  0.1869 -0.4378 -0.0403
  177SAPS  H15R20212   4.817   4.838   3.947  1.3292  0.4858  2.5476
  177SAPS  C21620213   5.029   4.779   3.969  0.0939  0.3943 -0.1157
  177SAPS  H16R20214   5.115   4.770   3.899 -1.4206  3.5732 -2.6234
  177SAPS  H16S20215   4.993   4.677   3.995 -2.0298 -0.0307 -3.9155
  177SAPS  C21720216   5.076   4.861   4.088 -0.4787 -0.1540  0.7301
  177SAPS  H17R20217   5.100   4.965   4.058 -1.4064 -0.2146 -0.2903
  177SAPS  H17S20218   5.170   4.814   4.125 -1.5204 -2.7517  0.2760
  177SAPS  C21820219   4.973   4.882   4.200  0.4764  0.6881  0.2738
  177SAPS  H18R20220   4.956   4.780   4.242  2.3350  0.3520  0.3079
  177SAPS  H18S20221   4.887   4.936   4.155  3.0258  4.1127 -0.8836
  177SAPS  C21920222   5.035   4.953   4.320 -0.2263  0.0308 -0.6188
  177SAPS  H19R20223   5.045   5.062   4.298 -0.7527  0.4246  0.9475
  177SAPS  H19S20224   5.143   4.929   4.334 -0.5430 -1.1075  0.0192
  177SAPS  C22020225   4.962   4.928   4.455 -0.2089 -0.1363  0.3061
  177SAPS  H20R20226   5.004   4.994   4.534 -0.2599 -0.2467  0.4246
  177SAPS  H20S20227   4.954   4.823   4.488  0.2234 -0.3961 -0.3884
  177SAPS  H20T20228   4.856   4.953   4.435  0.2482  0.8623 -1.0735
  177SAPS   C3320229   4.663   5.655   2.881 -0.7263  0.3028  0.7495
  177SAPS   H3X20230   4.670   5.764   2.857  0.2615 -0.0011 -0.4608
  177SAPS   H3Y20231   4.764   5.609   2.874 -0.6431  0.2262  2.1884
  177SAPS   C3420232   4.625   5.638   3.022 -0.0374 -0.2978 -0.0737
  177SAPS   H4X20233   4.712   5.679   3.078  1.1137 -1.9028 -0.6141
  177SAPS   H4Y20234   4.612   5.533   3.055  3.2517 -0.4856  1.0541
  177SAPS   C3520235   4.506   5.726   3.054  0.4314 -0.6232  0.2890
  177SAPS   H5X20236   4.416   5.699   2.996 -0.6591  1.5172  0.8774
  177SAPS   H5Y20237   4.529   5.831   3.024  0.9053 -0.9182 -0.4025
  177SAPS   C3620238   4.476   5.733   3.206 -0.4485  0.1132  0.5590
  177SAPS   H6X20239   4.561   5.781   3.260  0.3522 -0.7271  0.0699
  177SAPS   H6Y20240   4.455   5.633   3.248  2.7707 -1.0066 -0.2237
  177SAPS   C3720241   4.346   5.809   3.232 -0.6093 -0.1544  0.4432
  177SAPS   H7X20242   4.274   5.785   3.151  2.2654 -0.1741 -2.2812
  177SAPS   H7Y20243   4.372   5.915   3.212  0.3147 -0.2086  1.2546
  177SAPS   C3820244   4.299   5.786   3.371  0.0257  0.0333  0.4491
  177SAPS   H8X20245   4.376   5.816   3.445  1.1232 -2.5066  0.4631
  177SAPS   H8Y20246   4.280   5.677   3.382  1.6110 -0.1556  1.5024
  177SAPS   C3920247   4.171   5.863   3.389  0.6580  0.1173 -0.6189
  177SAPS   H9X20248   4.102   5.852   3.303 -1.2845  4.3460  0.1409
  177SAPS   H9Y20249   4.188   5.972   3.402  0.2391  0.1221 -0.0835
  177SAPS  C31020250   4.092   5.815   3.514  0.4209 -0.0279 -0.7951
  177SAPS  H10X20251   4.025   5.730   3.484 -0.9679  0.8470 -0.2877
  177SAPS  H10Y20252   4.023   5.899   3.538 -1.9767 -2.3897  1.2457
  177SAPS  C31120253   4.168   5.811   3.644 -1.0297  0.1951  0.5977
  177SAPS  H11X20254   4.250   5.886   3.646  0.1740 -1.1001  1.6000
  177SAPS  H11Y20255   4.226   5.716   3.648  0.1190  0.8615  0.2403
  177SAPS  C31220256   4.074   5.816   3.760 -0.2999 -0.4988 -0.8841
  177SAPS  H12X20257   4.018   5.721   3.759 -0.8520 -0.1718 -1.6686
  177SAPS  H12Y20258   4.011   5.908   3.761 -0.8281 -0.8617  0.0190
  177SAPS  C31320259   4.158   5.838   3.896  1.0192 -0.7711 -0.5697
  177SAPS  H13X20260   4.220   5.930   3.902  1.8095 -1.3923  2.8932
  177SAPS  H13Y20261   4.225   5.751   3.910  0.5630 -0.7385  2.7966
  177SAPS  C31420262   4.066   5.855   4.016  0.5948 -0.2861 -0.4772
  177SAPS  H14X20263   4.013   5.761   4.041  1.2266 -0.8006 -1.0271
  177SAPS  H14Y20264   3.983   5.924   3.990 -0.0476 -0.6164  0.6409
  177SAPS  C31520265   4.135   5.923   4.140 -0.0997 -0.1043 -0.5311
  177SAPS  H15X20266   4.058   5.954   4.214  0.5348  1.8332 -0.6107
  177SAPS  H15Y20267   4.191   6.014   4.108  2.4321 -1.1134  0.7575
  177SAPS  C31620268   4.248   5.833   4.188  0.5487 -0.1721 -0.1213
  177SAPS  H16X20269   4.294   5.893   4.269 -1.2843  3.0443 -1.2557
  177SAPS  H16Y20270   4.320   5.819   4.105 -1.3503 -0.4899 -1.8064
  177SAPS  C31720271   4.205   5.700   4.240 -0.0014  0.0238 -0.3153
  177SAPS  H17X20272   4.174   5.642   4.150 -4.3664  3.4008 -1.3354
  177SAPS  H17Y20273   4.110   5.693   4.297 -0.6567 -1.5035 -1.5075
  177SAPS  C31820274   4.320   5.624   4.316 -0.4518  0.3349 -0.1097
  177SAPS  H18X20275   4.408   5.602   4.252  0.4614  2.1853  0.4382
  177SAPS  H18Y20276   4.286   5.526   4.356  1.4988 -0.3347  0.0368
  177SAPS  H18Z20277   4.346   5.686   4.405 -2.6054 -0.2339  1.0062
  178SAPS     N20278   4.110   0.107   2.353 -0.1829  0.8496  0.5082
  178SAPS   HN120279   4.135   0.099   2.454 -1.2714  2.2266  0.9251
  178SAPS   HN220280   4.187   0.111   2.284  0.4177  0.1432  1.1107
  178SAPS   HN320281   4.074   0.204   2.342  2.7793  2.2681  2.1031
  178SAPS   C1220282   4.009   0.006   2.310  0.2590  0.0761 -0.3465
  178SAPS  H12A20283   3.919   0.043   2.358  0.5381 -1.4973  1.5086
  178SAPS   C1320284   3.986  -0.012   2.159 -0.2166  0.3169 -0.2488
  178SAPS  O13A20285   4.057   0.043   2.072 -0.2463 -0.2563  0.3574
  178SAPS  O13B20286   3.893  -0.087   2.123 -0.0189 -0.6508  0.3712
  178SAPS   C1120287   4.035  -0.133   2.390 -0.6292  0.2855  0.9942
  178SAPS  H11A20288   3.946  -0.200   2.396  1.0340 -2.2722 -0.6316
  178SAPS  H11B20289   4.058  -0.106   2.495  0.2268  0.2767  0.8150
  178SAPS     P20290   4.162  -0.356   2.319  0.0285  0.3678  0.2187
  178SAPS   O1320291   4.028  -0.424   2.306 -0.1310  0.2247 -0.3357
  178SAPS   O1420292   4.250  -0.375   2.204 -0.3829 -0.0352 -0.0514
  178SAPS   O1220293   4.143  -0.201   2.339 -0.3691  0.3382  0.5285
  178SAPS   O1120294   4.236  -0.393   2.457  0.0483 -0.0766  0.4322
  178SAPS    C120295   4.180  -0.470   2.554 -0.4265 -0.3141 -0.2249
  178SAPS    HA20296   4.128  -0.395   2.617  0.7836  1.3564 -1.1593
  178SAPS    HB20297   4.100  -0.538   2.517  1.3055 -1.6796 -1.6172
  178SAPS    C220298   4.282  -0.546   2.639  0.2066  0.5332  0.0174
  178SAPS    HS20299   4.225  -0.617   2.703  0.4065  1.3777  1.1513
  178SAPS   O2120300   4.348  -0.464   2.729  0.0861 -0.3262  0.0233
  178SAPS   C2120301   4.285  -0.428   2.840 -0.6173  0.2446 -0.6093
  178SAPS   O2220302   4.171  -0.462   2.866 -0.0994 -0.1895  0.5111
  178SAPS   C2220303   4.370  -0.342   2.930 -0.5070  0.3504 -0.0302
  178SAPS   H2R20304   4.393  -0.248   2.875  1.0714 -0.2118 -0.3820
  178SAPS   H2S20305   4.319  -0.313   3.024 -0.5670 -0.5288  0.2152
  178SAPS    C320306   4.382  -0.628   2.548  0.8866  0.1741 -0.2938
  178SAPS    HX20307   4.434  -0.572   2.468 -0.1187 -0.5110 -1.4683
  178SAPS    HY20308   4.312  -0.687   2.485 -1.5724  0.5300  1.9326
  178SAPS   O3120309   4.470  -0.699   2.639 -0.4124 -0.6626  0.4802
  178SAPS   C3120310   4.593  -0.651   2.645  0.2090  0.6333 -0.2461
  178SAPS   O3220311   4.627  -0.547   2.596  0.2270 -0.5598  0.0186
  178SAPS   C3220312   4.677  -0.737   2.744  0.4426 -0.7665  0.5870
  178SAPS   H2X20313   4.688  -0.836   2.695  3.0889 -0.0793 -0.3557
  178SAPS   H2Y20314   4.619  -0.741   2.838 -0.1623  1.7655  0.3966
  178SAPS   C2320315   4.495  -0.424   2.983 -0.1174 -0.5153 -0.6639
  178SAPS   H3R20316   4.540  -0.483   2.900  3.4482  2.3044 -0.9911
  178SAPS   H3S20317   4.447  -0.487   3.060 -2.3692 -2.3308 -3.3372
  178SAPS   C2420318   4.608  -0.337   3.043  0.4950 -0.0980 -0.1844
  178SAPS   H4R20319   4.676  -0.405   3.099 -0.5613 -0.1995  1.0215
  178SAPS   H4S20320   4.572  -0.268   3.123 -0.1291  0.2177 -0.7282
  178SAPS   C2520321   4.693  -0.270   2.939 -0.3502  0.2227  0.1893
  178SAPS   H5R20322   4.777  -0.328   2.898  0.1279  0.6353  0.5840
  178SAPS   C2620323   4.676  -0.139   2.899 -0.2292 -0.1787 -0.0643
  178SAPS   H6R20324   4.748  -0.097   2.828 -1.6480  0.0105 -1.4441
  178SAPS   C2720325   4.576  -0.038   2.957  0.7196  0.1373  0.1156
  178SAPS   H7R20326   4.536  -0.065   3.057  0.0872  0.9827  0.1069
  178SAPS   H7S20327   4.485  -0.029   2.893  0.9757  0.7872 -0.1701
  178SAPS   C2820328   4.646   0.099   2.956  0.2919  0.0355  0.4773
  178SAPS   H8R20329   4.702   0.123   2.864  1.4145 -0.6547  0.9445
  178SAPS   C2920330   4.657   0.184   3.062  0.2299  0.8369 -0.5352
  178SAPS   H9R20331   4.700   0.283   3.038 -3.0367  2.0919 -1.7280
  178SAPS  C21020332   4.608   0.170   3.204  1.0003  0.5958 -0.3766
  178SAPS  H10R20333   4.530   0.090   3.202  1.2783  0.2367  1.4345
  178SAPS  H10S20334   4.565   0.270   3.227 -1.3591 -0.5715  0.6261
  178SAPS  C21120335   4.717   0.139   3.305 -0.1323 -0.1057  0.2712
  178SAPS  H11R20336   4.797   0.215   3.306  0.0629 -0.3118  0.6253
  178SAPS  C21220337   4.723   0.042   3.401 -0.2086  1.1823 -0.7316
  178SAPS  H12R20338   4.809   0.047   3.470  0.0330 -0.7995 -0.8148
  178SAPS  C21320339   4.623  -0.060   3.443 -0.7572 -0.0306  0.5055
  178SAPS  H13R20340   4.652  -0.156   3.395 -0.1417  0.2005  0.4009
  178SAPS  H13S20341   4.523  -0.047   3.396 -0.6531 -4.1745 -1.3067
  178SAPS  C21420342   4.613  -0.082   3.590  0.1437  0.2553 -0.2328
  178SAPS  H14R20343   4.632  -0.002   3.664  2.9521 -0.1152 -0.4357
  178SAPS  C21520344   4.557  -0.188   3.648 -0.3323  0.1227  0.1472
  178SAPS  H15R20345   4.534  -0.190   3.755  0.0898 -0.3500  0.2361
  178SAPS  C21620346   4.518  -0.317   3.568  0.8671 -0.4504 -0.7386
  178SAPS  H16R20347   4.555  -0.313   3.464  2.1641  4.3454 -0.3037
  178SAPS  H16S20348   4.407  -0.319   3.564  0.8998 -0.5580 -2.9549
  178SAPS  C21720349   4.556  -0.447   3.643  0.2626 -0.2932  0.4064
  178SAPS  H17R20350   4.510  -0.447   3.744  0.1101  1.5427  0.3670
  178SAPS  H17S20351   4.663  -0.446   3.673 -0.1092 -0.6860  1.8460
  178SAPS  C21820352   4.520  -0.575   3.564  0.1537 -0.6046  0.1968
  178SAPS  H18R20353   4.411  -0.595   3.572 -0.3998  1.3676 -1.4188
  178SAPS  H18S20354   4.567  -0.665   3.608  0.9494 -0.4402 -0.2956
  178SAPS  C21920355   4.574  -0.581   3.418 -0.3690 -0.7362 -0.2260
  178SAPS  H19R20356   4.683  -0.600   3.419 -0.5183 -1.6378 -0.3327
  178SAPS  H19S20357   4.558  -0.485   3.364 -1.5390 -0.7553  0.0576
  178SAPS  C22020358   4.531  -0.699   3.334 -0.1728  0.3080 -0.3928
  178SAPS  H20R20359   4.565  -0.693   3.228  0.5797  0.9871 -0.1242
  178SAPS  H20S20360   4.420  -0.696   3.338 -0.2288 -1.8996  2.5476
  178SAPS  H20T20361   4.578  -0.784   3.388  2.1334  1.1565 -0.9219
  178SAPS   C3320362   4.818  -0.674   2.779  0.5884  0.0848  0.1539
  178SAPS   H3X20363   4.810  -0.564   2.791 -1.3336  0.3321 -2.4478
  178SAPS   H3Y20364   4.877  -0.677   2.685  0.6606  2.0495  0.0941
  178SAPS   C3420365   4.906  -0.744   2.886 -1.0127 -0.2852 -0.8278
  178SAPS   H4X20366   4.999  -0.686   2.905 -1.4123  0.7763 -2.0470
  178SAPS   H4Y20367   4.936  -0.846   2.852 -3.0934 -0.6814 -1.6273
  178SAPS   C3520368   4.839  -0.759   3.025 -0.1899  0.0390 -0.0735
  178SAPS   H5X20369   4.741  -0.807   3.004 -0.6013  0.7055  0.3007
  178SAPS   H5Y20370   4.807  -0.657   3.053  1.0860  0.7407 -1.0808
  178SAPS   C3620371   4.924  -0.830   3.128  0.4189  0.0016  0.3710
  178SAPS   H6X20372   5.011  -0.764   3.150  0.6375  0.2578 -1.1223
  178SAPS   H6Y20373   4.960  -0.920   3.074  0.9655  1.6473 -2.2184
  178SAPS   C3720374   4.855  -0.880   3.260 -0.1921 -0.3900  0.4214
  178SAPS   H7X20375   4.773  -0.946   3.223 -1.0817  0.9718 -0.1041
  178SAPS   H7Y20376   4.807  -0.796   3.314 -0.8107 -0.3878 -0.1114
  178SAPS   C3820377   4.961  -0.951   3.361  0.3456 -0.1510 -0.0674
  178SAPS   H8X20378   5.032  -1.000   3.291  0.0580  0.4311 -0.7865
  178SAPS   H8Y20379   4.920  -1.036   3.419  0.2104  0.4051  0.6667
  178SAPS   C3920380   5.040  -0.843   3.436  0.2618  0.4041  0.0669
  178SAPS   H9X20381   5.064  -0.767   3.358 -0.1496  0.1528 -0.3140
  178SAPS   H9Y20382   5.138  -0.880   3.472  0.1472 -0.4783 -0.4931
  178SAPS  C31020383   4.957  -0.784   3.557 -0.0874  0.1035  0.1059
  178SAPS  H10X20384   4.849  -0.787   3.532 -0.3906  1.0709  1.2143
  178SAPS  H10Y20385   4.999  -0.685   3.585 -1.2880  0.4022  0.8838
  178SAPS  C31120386   4.967  -0.879   3.680  0.0838 -0.1793 -0.3335
  178SAPS  H11X20387   5.073  -0.908   3.699  0.7748  2.2054 -0.1731
  178SAPS  H11Y20388   4.914  -0.975   3.663 -1.1568  0.4467 -0.1332
  178SAPS  C31220389   4.898  -0.809   3.805 -0.1004  0.3638 -1.3029
  178SAPS  H12X20390   4.967  -0.739   3.858  1.9797 -2.5687  0.1701
  178SAPS  H12Y20391   4.890  -0.896   3.874  1.1897 -0.9058 -2.6851
  178SAPS  C31320392   4.756  -0.751   3.778  0.1650  0.0390 -0.2615
  178SAPS  H13X20393   4.699  -0.830   3.724  0.7681 -0.0099 -0.8449
  178SAPS  H13Y20394   4.764  -0.656   3.721 -1.0175  0.3596  0.0837
  178SAPS  C31420395   4.670  -0.720   3.908  0.3141  0.3528 -0.0230
  178SAPS  H14X20396   4.651  -0.810   3.970 -0.4500  0.3945 -0.1927
  178SAPS  H14Y20397   4.572  -0.681   3.874  1.6863  2.4829 -1.7783
  178SAPS  C31520398   4.732  -0.609   3.994 -0.3855 -0.2664 -0.9057
  178SAPS  H15X20399   4.723  -0.512   3.941  0.7911  0.4185  0.0882
  178SAPS  H15Y20400   4.842  -0.606   4.012 -0.1114  1.0673 -2.5716
  178SAPS  C31620401   4.648  -0.602   4.121  0.4628  0.3160  0.0210
  178SAPS  H16X20402   4.541  -0.618   4.098 -0.5649  3.6626  1.8287
  178SAPS  H16Y20403   4.666  -0.502   4.166  1.0119  0.3763 -0.3219
  178SAPS  C31720404   4.702  -0.705   4.227  0.5132  0.2880  0.0822
  178SAPS  H17X20405   4.800  -0.668   4.263  0.5902 -1.4579  1.8584
  178SAPS  H17Y20406   4.712  -0.796   4.164  0.3962  2.1682 -2.8482
  178SAPS  C31820407   4.619  -0.733   4.357  0.5466 -0.5453 -0.4891
  178SAPS  H18X20408   4.683  -0.752   4.446  0.3171 -2.4175 -0.6818
  178SAPS  H18Y20409   4.552  -0.820   4.341  1.8179 -1.7063  0.3118
  178SAPS  H18Z20410   4.558  -0.643   4.382  1.3803 -0.1496  0.1536
  179SAPS     N20411   5.676   1.470   1.844 -0.3583 -0.3253  0.4544
  179SAPS   HN120412   5.710   1.561   1.808 -0.0743 -0.9726 -0.9948
  179SAPS   HN220413   5.703   1.405   1.767  0.4399  1.8664 -1.2157
  179SAPS   HN320414   5.572   1.469   1.852 -0.8593 -0.9622 -3.9197
  179SAPS   C1220415   5.738   1.421   1.968  0.7729 -0.2865 -0.9631
  179SAPS  H12A20416   5.676   1.339   2.004 -0.1650  1.1408  0.8716
  179SAPS   C1320417   5.883   1.361   1.950 -0.6302  0.6525  0.1322
  179SAPS  O13A20418   5.919   1.343   1.830  0.0663 -1.0882 -0.0425
  179SAPS  O13B20419   5.918   1.287   2.047 -0.0412  0.3035  0.0235
  179SAPS   C1120420   5.729   1.539   2.068 -0.6766  0.1872 -0.1340
  179SAPS  H11A20421   5.791   1.628   2.042 -1.4713  0.3593 -1.5320
  179SAPS  H11B20422   5.773   1.502   2.163  0.9496  1.4809 -0.3427
  179SAPS     P20423   5.495   1.521   2.186  0.2635  0.3511 -0.1370
  179SAPS   O1320424   5.389   1.613   2.231  0.2263 -0.1400  0.1650
  179SAPS   O1420425   5.445   1.397   2.121  0.0899 -0.3491 -0.0219
  179SAPS   O1220426   5.600   1.593   2.089 -0.1849 -0.0174  0.1034
  179SAPS   O1120427   5.569   1.492   2.318  0.6774 -0.8268 -0.4072
  179SAPS    C120428   5.651   1.379   2.346  0.0052  0.0226 -0.0243
  179SAPS    HA20429   5.657   1.303   2.265 -2.1346  0.0060 -0.2225
  179SAPS    HB20430   5.752   1.418   2.373  0.4075 -1.7167  1.1329
  179SAPS    C220431   5.598   1.297   2.456  0.1966  0.0811 -0.0683
  179SAPS    HS20432   5.494   1.268   2.428  0.7776 -2.3860  0.1485
  179SAPS   O2120433   5.603   1.367   2.586  0.1941  0.2058 -0.0439
  179SAPS   C2120434   5.500   1.440   2.616  0.5353  0.2594 -0.0962
  179SAPS   O2220435   5.388   1.437   2.570 -0.0304 -0.0064  0.5273
  179SAPS   C2220436   5.546   1.545   2.716  0.3912 -0.7585  0.5625
  179SAPS   H2R20437   5.644   1.512   2.756  0.4993 -1.3078 -0.1470
  179SAPS   H2S20438   5.561   1.636   2.654 -1.8679  0.3360  1.4783
  179SAPS    C320439   5.664   1.156   2.469  0.4950 -0.3816  0.2753
  179SAPS    HX20440   5.650   1.090   2.381  1.7257 -0.7571  0.3392
  179SAPS    HY20441   5.596   1.110   2.544 -0.6140 -0.1604 -0.5668
  179SAPS   O3120442   5.800   1.162   2.510  0.2199  0.4624 -0.0284
  179SAPS   C3120443   5.832   1.060   2.587  0.3554 -0.0462 -0.0552
  179SAPS   O3220444   5.769   0.961   2.615  0.2026  0.2559  0.4334
  179SAPS   C3220445   5.982   1.074   2.623  0.1027  0.2737  0.1495
  179SAPS   H2X20446   6.013   1.174   2.586 -1.8968  0.2010 -1.9173
  179SAPS   H2Y20447   6.038   1.002   2.559 -1.7405 -2.6486  1.6079
  179SAPS   C2320448   5.447   1.580   2.828  0.2309  0.2027 -0.1840
  179SAPS   H3R20449   5.394   1.491   2.867  1.2871 -1.5394 -2.4524
  179SAPS   H3S20450   5.370   1.648   2.786 -2.8846 -2.8855  0.0634
  179SAPS   C2420451   5.504   1.655   2.948 -0.1651 -0.7075 -0.1871
  179SAPS   H4R20452   5.416   1.683   3.009  2.2310  3.5699  1.8263
  179SAPS   H4S20453   5.553   1.746   2.908  0.9658 -1.4716 -0.5911
  179SAPS   C2520454   5.604   1.583   3.032 -0.0114  0.4501 -0.1487
  179SAPS   H5R20455   5.648   1.488   2.998  3.5060  0.9995  2.2700
  179SAPS   C2620456   5.647   1.623   3.148 -0.0976 -0.4811 -0.2700
  179SAPS   H6R20457   5.715   1.558   3.205 -0.2248 -0.5908 -0.2430
  179SAPS   C2720458   5.602   1.750   3.217  0.0368  0.1785 -0.3629
  179SAPS   H7R20459   5.522   1.803   3.161  0.2601  0.9223  0.0042
  179SAPS   H7S20460   5.690   1.819   3.223 -1.2338  1.7744  1.0736
  179SAPS   C2820461   5.558   1.724   3.358  0.2364 -0.1398 -0.0497
  179SAPS   H8R20462   5.497   1.633   3.373 -0.2868 -0.0854 -1.6736
  179SAPS   C2920463   5.592   1.787   3.470 -0.2968 -0.1478 -0.3718
  179SAPS   H9R20464   5.540   1.757   3.562  0.7636  0.9624  0.6168
  179SAPS  C21020465   5.667   1.923   3.490 -0.4079  0.4017  0.0518
  179SAPS  H10R20466   5.589   2.001   3.507 -0.9956 -0.0557 -0.5086
  179SAPS  H10S20467   5.733   1.953   3.406  2.1537  0.4049  1.9558
  179SAPS  C21120468   5.749   1.898   3.614 -0.1857  0.0015 -0.4527
  179SAPS  H11R20469   5.812   1.808   3.607 -0.3918 -0.3188  1.2018
  179SAPS  C21220470   5.734   1.966   3.727  0.1227 -0.0692  0.7260
  179SAPS  H12R20471   5.794   1.944   3.817  1.3950  0.7927  0.0969
  179SAPS  C21320472   5.632   2.075   3.756  0.4846 -0.4491  0.2571
  179SAPS  H13R20473   5.535   2.026   3.782  0.3257 -2.7311 -3.9068
  179SAPS  H13S20474   5.615   2.124   3.658 -1.0714  0.2697  0.8387
  179SAPS  C21420475   5.669   2.180   3.852  0.1814 -0.0647  0.2062
  179SAPS  H14R20476   5.713   2.268   3.803  3.8163 -0.2075  2.7749
  179SAPS  C21520477   5.667   2.159   3.979  0.1321 -0.2403 -0.0781
  179SAPS  H15R20478   5.671   2.243   4.050 -0.2671 -0.5662  0.3386
  179SAPS  C21620479   5.619   2.034   4.037 -0.1818  0.0696 -0.6284
  179SAPS  H16R20480   5.576   1.957   3.970 -0.3269 -0.6884  0.3210
  179SAPS  H16S20481   5.539   2.058   4.109 -0.3989 -0.8922 -0.5434
  179SAPS  C21720482   5.723   1.957   4.116 -0.0423 -0.5317 -0.0003
  179SAPS  H17R20483   5.742   2.025   4.202  0.4675  0.6779 -1.0323
  179SAPS  H17S20484   5.818   1.933   4.065 -0.5824 -0.7787 -0.9107
  179SAPS  C21820485   5.666   1.820   4.166  0.1694 -1.2416 -0.2407
  179SAPS  H18R20486   5.655   1.754   4.077 -2.3760  0.8120 -1.5863
  179SAPS  H18S20487   5.562   1.823   4.205  0.4229 -0.6589  0.3994
  179SAPS  C21920488   5.740   1.760   4.280  0.7090 -0.1332 -0.1095
  179SAPS  H19R20489   5.839   1.732   4.239  0.4230  0.6874 -1.4214
  179SAPS  H19S20490   5.689   1.662   4.294  0.5243  0.3683  3.7210
  179SAPS  C22020491   5.747   1.843   4.406 -0.2325 -0.0117 -0.8863
  179SAPS  H20R20492   5.659   1.888   4.457  0.5827  0.7780 -0.1456
  179SAPS  H20S20493   5.817   1.928   4.390  0.6013 -0.8694 -1.9593
  179SAPS  H20T20494   5.798   1.779   4.480  0.9866  1.0623 -0.7487
  179SAPS   C3320495   6.001   1.052   2.769 -0.2309  0.2322 -0.2380
  179SAPS   H3X20496   6.107   1.030   2.792  0.4899  1.3108 -2.2444
  179SAPS   H3Y20497   5.949   0.957   2.793 -0.9713  0.5736 -0.4587
  179SAPS   C3420498   5.952   1.175   2.842 -0.3130  0.4329 -0.0462
  179SAPS   H4X20499   5.845   1.199   2.822 -0.8803 -1.2987  0.7439
  179SAPS   H4Y20500   6.014   1.263   2.815 -0.7093  0.0976 -2.2892
  179SAPS   C3520501   5.971   1.154   2.993  0.8361 -0.3305 -0.0482
  179SAPS   H5X20502   6.078   1.164   3.020  0.3203  0.6077  1.8258
  179SAPS   H5Y20503   5.935   1.051   3.016  0.7255 -0.2239  0.2619
  179SAPS   C3620504   5.878   1.246   3.074  0.1581  0.6895 -0.4154
  179SAPS   H6X20505   5.775   1.211   3.051  0.1840  1.1008 -1.1994
  179SAPS   H6Y20506   5.873   1.352   3.039  0.3392  1.9170  2.9276
  179SAPS   C3720507   5.914   1.241   3.220 -0.3794  0.4441  0.2877
  179SAPS   H7X20508   6.023   1.252   3.241 -0.3631 -3.7428  3.9345
  179SAPS   H7Y20509   5.892   1.139   3.257  0.1488  0.2573  0.0982
  179SAPS   C3820510   5.831   1.340   3.304  0.0412  0.0055  0.0124
  179SAPS   H8X20511   5.730   1.357   3.260  0.3794  0.3302 -0.6510
  179SAPS   H8Y20512   5.874   1.440   3.280 -1.5857  0.9192  0.7213
  179SAPS   C3920513   5.811   1.305   3.449 -0.1357  0.3953  0.5914
  179SAPS   H9X20514   5.910   1.270   3.486 -0.1449  0.2932  0.5223
  179SAPS   H9Y20515   5.739   1.221   3.463 -0.1399  0.4863  1.1037
  179SAPS  C31020516   5.775   1.429   3.530 -0.5215 -0.7374 -0.7095
  179SAPS  H10X20517   5.676   1.468   3.499 -1.5825  1.3434  4.2831
  179SAPS  H10Y20518   5.851   1.508   3.509 -0.9480  0.6868  2.5156
  179SAPS  C31120519   5.786   1.398   3.683  1.1000  0.2369 -0.3727
  179SAPS  H11X20520   5.880   1.341   3.701  0.5479 -0.9474 -1.1248
  179SAPS  H11Y20521   5.709   1.321   3.704  0.3357  0.4841 -2.1259
  179SAPS  C31220522   5.783   1.519   3.787  0.6646  0.4180  0.4943
  179SAPS  H12X20523   5.717   1.600   3.750 -0.2463 -1.2614 -1.8071
  179SAPS  H12Y20524   5.884   1.565   3.794  0.8647 -0.2261  4.7203
  179SAPS  C31320525   5.730   1.479   3.924  0.2428  0.2560 -0.5935
  179SAPS  H13X20526   5.726   1.574   3.981 -1.4304 -0.5244  0.6836
  179SAPS  H13Y20527   5.803   1.409   3.971 -0.9413 -0.0935  0.8171
  179SAPS  C31420528   5.587   1.417   3.913 -0.3485  0.1825  0.0054
  179SAPS  H14X20529   5.580   1.326   3.850  2.4396  0.9347 -1.5514
  179SAPS  H14Y20530   5.529   1.497   3.861  0.6814  0.4854 -0.7047
  179SAPS  C31520531   5.527   1.370   4.046  0.5336 -0.2799  0.2001
  179SAPS  H15X20532   5.417   1.355   4.037 -0.1474  3.3743  0.6747
  179SAPS  H15Y20533   5.538   1.458   4.114  1.8456  0.3871 -0.8308
  179SAPS  C31620534   5.594   1.240   4.078 -0.1225  0.1461 -0.0718
  179SAPS  H16X20535   5.702   1.251   4.102 -0.5272  0.8164  1.5115
  179SAPS  H16Y20536   5.595   1.170   3.991 -1.2673  0.6511 -0.5083
  179SAPS  C31720537   5.528   1.167   4.201  0.2731  0.2283 -0.1939
  179SAPS  H17X20538   5.557   1.060   4.206  2.0526  0.7057  0.3751
  179SAPS  H17Y20539   5.418   1.168   4.183  0.4161  0.1989 -1.1302
  179SAPS  C31820540   5.560   1.226   4.341  0.2003 -0.7282  0.5238
  179SAPS  H18X20541   5.665   1.200   4.368  0.0978 -0.5457  1.1161
  179SAPS  H18Y20542   5.485   1.183   4.409 -1.8400 -3.0732 -2.9124
  179SAPS  H18Z20543   5.548   1.337   4.338 -0.9954 -0.7997  1.9902
  180SAPS     N20544   6.376   0.372   1.686 -0.5095 -0.2416 -0.3560
  180SAPS   HN120545   6.405   0.299   1.755  0.1356  0.9361  0.6639
  180SAPS   HN220546   6.282   0.357   1.643 -0.3366 -0.6264 -0.6054
  180SAPS   HN320547   6.444   0.364   1.608 -1.2982 -1.3672 -0.9660
  180SAPS   C1220548   6.387   0.500   1.759  0.1885  0.0311 -0.0104
  180SAPS  H12A20549   6.493   0.509   1.777 -0.0686  2.2636  0.7561
  180SAPS   C1320550   6.354   0.626   1.665 -0.3601  0.1983 -0.4209
  180SAPS  O13A20551   6.295   0.600   1.555 -0.4985 -0.0105  0.2886
  180SAPS  O13B20552   6.379   0.742   1.708  0.3179 -0.4360 -0.3831
  180SAPS   C1120553   6.297   0.494   1.885 -0.3995  0.2571 -0.1129
  180SAPS  H11A20554   6.186   0.492   1.876 -0.7279  1.0520  2.7390
  180SAPS  H11B20555   6.328   0.581   1.946 -1.0071 -0.1696  0.8302
  180SAPS     P20556   6.275   0.317   2.095 -0.1262  0.5203 -0.0932
  180SAPS   O1320557   6.145   0.250   2.063 -0.2418 -0.0396  0.1719
  180SAPS   O1420558   6.378   0.214   2.141 -0.1588 -0.1231  0.4123
  180SAPS   O1220559   6.339   0.384   1.965  0.6118 -0.0930  0.0643
  180SAPS   O1120560   6.249   0.431   2.206 -0.3599 -0.0922 -0.0013
  180SAPS    C120561   6.119   0.490   2.185 -0.0912  0.0310 -0.0024
  180SAPS    HA20562   6.137   0.595   2.152  2.0853 -0.2642  0.0799
  180SAPS    HB20563   6.042   0.448   2.117 -2.5288  0.9334  2.0273
  180SAPS    C220564   6.040   0.500   2.321  0.5318  1.1262 -0.0190
  180SAPS    HS20565   5.956   0.574   2.312  1.1895  1.9612  0.5524
  180SAPS   O2120566   6.117   0.539   2.437 -0.2125  0.4598  0.8664
  180SAPS   C2120567   6.135   0.673   2.440 -0.0565  0.2172  0.2721
  180SAPS   O2220568   6.102   0.754   2.355 -0.0264  0.5785  0.6974
  180SAPS   C2220569   6.223   0.708   2.565 -0.2490 -0.3269  0.5617
  180SAPS   H2R20570   6.292   0.623   2.582  0.1043 -0.8486 -2.7341
  180SAPS   H2S20571   6.274   0.801   2.532 -0.0707 -1.0533 -1.3697
  180SAPS    C320572   5.977   0.357   2.345  0.4266 -0.0737  0.6772
  180SAPS    HX20573   6.059   0.282   2.352 -0.1445 -0.9459 -1.2388
  180SAPS    HY20574   5.918   0.329   2.254  1.3349  0.9821 -0.2625
  180SAPS   O3120575   5.895   0.347   2.466  0.9663  0.6427  0.0938
  180SAPS   C3120576   5.947   0.297   2.580  0.7687 -0.7322 -0.2188
  180SAPS   O3220577   6.060   0.254   2.586  0.2321  0.4205 -0.5129
  180SAPS   C3220578   5.852   0.311   2.697  0.2774 -0.2544 -0.3528
  180SAPS   H2X20579   5.757   0.267   2.661  1.6461 -1.9445 -2.1642
  180SAPS   H2Y20580   5.843   0.418   2.725  0.2087 -0.2396 -0.4309
  180SAPS   C2320581   6.149   0.732   2.693  0.0986  0.5016 -0.1402
  180SAPS   H3R20582   6.069   0.807   2.676 -0.6749  0.8468  3.9311
  180SAPS   H3S20583   6.216   0.782   2.767  0.5570  1.2385 -1.0376
  180SAPS   C2420584   6.089   0.603   2.757  0.1306  0.3728  0.4159
  180SAPS   H4R20585   6.038   0.553   2.671  0.4859 -0.2687  0.5739
  180SAPS   H4S20586   6.018   0.641   2.833 -0.4223  0.3958 -0.1073
  180SAPS   C2520587   6.199   0.520   2.806 -0.0793  0.1010  0.2574
  180SAPS   H5R20588   6.260   0.467   2.731  0.3122  0.6305  0.1936
  180SAPS   C2620589   6.235   0.508   2.931  0.0900  0.5921  0.5435
  180SAPS   H6R20590   6.305   0.427   2.956 -1.4083 -1.5321 -1.6184
  180SAPS   C2720591   6.185   0.583   3.050  0.0477  1.0001  0.6556
  180SAPS   H7R20592   6.129   0.514   3.116  1.0247 -0.2144  0.2685
  180SAPS   H7S20593   6.120   0.665   3.014  0.0726  0.6808 -0.1457
  180SAPS   C2820594   6.310   0.629   3.125 -0.0869 -0.4558  0.2270
  180SAPS   H8R20595   6.377   0.681   3.055  0.4165 -1.4543 -0.0571
  180SAPS   C2920596   6.345   0.623   3.258 -0.0560  0.0719 -0.4042
  180SAPS   H9R20597   6.446   0.652   3.291 -0.9306  0.1255  2.5276
  180SAPS  C21020598   6.264   0.556   3.370 -0.7062 -0.4934 -0.6952
  180SAPS  H10R20599   6.322   0.473   3.415  0.2561  1.3672  1.7532
  180SAPS  H10S20600   6.174   0.501   3.334 -1.7923 -1.0329  2.5247
  180SAPS  C21120601   6.223   0.653   3.479  0.1775  0.1698  0.1399
  180SAPS  H11R20602   6.199   0.755   3.447 -0.2500 -0.0896 -0.3855
  180SAPS  C21220603   6.235   0.624   3.611 -0.0072  0.3739  0.0098
  180SAPS  H12R20604   6.195   0.709   3.668 -3.9440  0.8905 -3.1162
  180SAPS  C21320605   6.286   0.496   3.672 -0.6454 -0.1586 -0.0006
  180SAPS  H13R20606   6.333   0.420   3.607 -0.0491 -1.3447  1.7503
  180SAPS  H13S20607   6.189   0.451   3.704 -0.6555 -0.5311 -0.5549
  180SAPS  C21420608   6.368   0.523   3.798 -0.1856 -0.4405  0.2839
  180SAPS  H14R20609   6.475   0.520   3.770 -0.1122  1.2541  0.2576
  180SAPS  C21520610   6.337   0.559   3.929  0.2086 -0.4981  0.0394
  180SAPS  H15R20611   6.418   0.570   4.003  1.6658  0.2522 -1.5688
  180SAPS  C21620612   6.193   0.563   3.978 -0.7128  0.6486  0.3728
  180SAPS  H16R20613   6.119   0.542   3.898  0.0773  0.1914 -0.2492
  180SAPS  H16S20614   6.168   0.659   4.028  0.0558  0.4719  1.1111
  180SAPS  C21720615   6.167   0.445   4.082 -0.4115 -0.3533  0.3842
  180SAPS  H17R20616   6.247   0.439   4.159 -1.1241 -1.3129  1.0676
  180SAPS  H17S20617   6.171   0.348   4.029  0.7205 -0.2285  0.2061
  180SAPS  C21820618   6.036   0.476   4.150 -0.3599  0.2865 -0.9583
  180SAPS  H18R20619   6.003   0.376   4.188 -0.9107  0.4643 -0.9604
  180SAPS  H18S20620   5.948   0.516   4.094 -2.3689  0.9546  2.3752
  180SAPS  C21920621   6.063   0.558   4.273  0.1105 -0.3759  0.0658
  180SAPS  H19R20622   6.142   0.636   4.260  0.3230 -0.4770  0.7021
  180SAPS  H19S20623   6.126   0.504   4.347  0.1795  1.7029  1.6404
  180SAPS  C22020624   5.937   0.616   4.339 -0.1321  0.3794  0.7621
  180SAPS  H20R20625   5.880   0.659   4.254  0.6340  0.4366  0.2629
  180SAPS  H20S20626   5.880   0.529   4.378 -0.5090 -0.9315 -2.3800
  180SAPS  H20T20627   5.949   0.689   4.422  0.3656 -1.1450  2.0880
  180SAPS   C3320628   5.877   0.215   2.820  0.4190  0.1727  0.2001
  180SAPS   H3X20629   5.932   0.124   2.787 -0.8187 -0.6188  0.2255
  180SAPS   H3Y20630   5.777   0.177   2.853  0.2067  0.7984  0.2891
  180SAPS   C3420631   5.932   0.280   2.944  0.0473  0.3254 -0.6519
  180SAPS   H4X20632   5.864   0.356   2.988 -0.0182 -1.4477  2.6431
  180SAPS   H4Y20633   6.022   0.338   2.913  0.7972 -0.0668  0.6645
  180SAPS   C3520634   5.961   0.186   3.056  0.3124  0.3653 -0.0132
  180SAPS   H5X20635   6.035   0.109   3.024 -1.3599 -1.7200  0.8098
  180SAPS   H5Y20636   5.873   0.121   3.074  0.6256 -0.1116 -0.1649
  180SAPS   C3620637   6.007   0.260   3.177  0.2323  0.2603  0.7386
  180SAPS   H6X20638   5.924   0.334   3.188 -0.9184 -0.9354  0.2673
  180SAPS   H6Y20639   6.107   0.308   3.179 -0.0034  0.8246 -0.2532
  180SAPS   C3720640   6.002   0.161   3.295 -0.9344  0.0034 -0.8202
  180SAPS   H7X20641   6.083   0.092   3.261 -2.8238 -1.5884 -2.3501
  180SAPS   H7Y20642   5.905   0.109   3.298 -1.2450  0.4116 -2.6364
  180SAPS   C3820643   6.031   0.237   3.427 -0.3270 -0.8478  1.2424
  180SAPS   H8X20644   5.956   0.314   3.455 -1.4588 -1.9670  1.3735
  180SAPS   H8Y20645   6.125   0.296   3.419 -0.6255 -0.2829  1.7717
  180SAPS   C3920646   6.029   0.124   3.537  0.5782 -0.7099  0.1824
  180SAPS   H9X20647   6.086   0.041   3.491  1.4797 -0.0772  0.1340
  180SAPS   H9Y20648   5.923   0.089   3.541  0.2455  0.2111 -0.2220
  180SAPS  C31020649   6.081   0.152   3.674 -0.6455 -0.4838 -0.1101
  180SAPS  H10X20650   6.012   0.227   3.719 -0.1196  0.7148 -1.2158
  180SAPS  H10Y20651   6.176   0.208   3.660 -0.3376 -1.0362 -0.2277
  180SAPS  C31120652   6.101   0.028   3.773 -0.1904 -0.4511 -0.8091
  180SAPS  H11X20653   6.171  -0.051   3.740 -0.3926 -2.9708  3.8634
  180SAPS  H11Y20654   6.001  -0.020   3.788  0.5050 -1.3437  1.2804
  180SAPS  C31220655   6.161   0.060   3.909  1.1371 -0.2771  0.3401
  180SAPS  H12X20656   6.093   0.133   3.960  2.2650  0.4167  0.8956
  180SAPS  H12Y20657   6.258   0.108   3.887  0.0440  1.2613 -1.4392
  180SAPS  C31320658   6.170  -0.068   3.991 -0.2042  0.3848 -0.4753
  180SAPS  H13X20659   6.233  -0.135   3.929  0.6187  2.9771 -2.6582
  180SAPS  H13Y20660   6.085  -0.138   4.008  0.6552 -0.4062  0.7396
  180SAPS  C31420661   6.206  -0.039   4.133 -1.0016  0.5226  1.1864
  180SAPS  H14X20662   6.307   0.007   4.128 -1.5322  1.6539  0.1013
  180SAPS  H14Y20663   6.237  -0.134   4.182  1.1031 -0.5293 -1.9046
  180SAPS  C31520664   6.103   0.033   4.212  0.2087 -0.6576  1.0280
  180SAPS  H15X20665   6.002   0.026   4.166  0.5221  0.8541  0.0492
  180SAPS  H15Y20666   6.127   0.140   4.195 -0.8705 -0.7641 -1.6455
  180SAPS  C31620667   6.085   0.004   4.362 -0.2071  0.5455 -0.1430
  180SAPS  H16X20668   6.059   0.099   4.413 -0.7442  1.1331 -1.4608
  180SAPS  H16Y20669   6.187  -0.010   4.403 -0.1688  0.2567 -0.3346
  180SAPS  C31720670   5.991  -0.112   4.388 -0.0742  0.8932 -0.0244
  180SAPS  H17X20671   6.000  -0.140   4.495 -1.1128 -0.0267 -0.1622
  180SAPS  H17Y20672   6.032  -0.196   4.327  1.4766  1.5052  0.1129
  180SAPS  C31820673   5.844  -0.094   4.359 -0.3208  0.1338 -0.0401
  180SAPS  H18X20674   5.794  -0.019   4.424 -0.4490 -0.4556  0.5519
  180SAPS  H18Y20675   5.787  -0.190   4.359 -2.2294  1.1779  2.2812
  180SAPS  H18Z20676   5.844  -0.056   4.255  0.5095  0.1269 -0.0555
  181POPC     N20677   6.105   1.193   6.970  0.0929 -0.5157  0.8031
  181POPC   C1220678   6.198   1.187   6.849 -1.0872  0.3030 -0.5288
  181POPC  H12A20679   6.301   1.180   6.882 -0.8599  0.0078 -1.2726
  181POPC  H12B20680   6.183   1.280   6.795  0.9288  1.3140  0.5026
  181POPC   C1320681   6.126   1.316   7.056 -0.0769  0.0146 -0.5777
  181POPC  H13A20682   6.229   1.345   7.071  1.0046 -3.1972 -0.8819
  181POPC  H13B20683   6.082   1.401   7.007 -0.0146  0.2390 -0.2420
  181POPC  H13C20684   6.072   1.315   7.149  0.0077  0.3913 -0.5267
  181POPC   C1420685   5.963   1.174   6.918 -0.1222  0.0322 -0.3753
  181POPC  H14A20686   5.923   1.245   6.847  1.6180  0.0395 -1.4164
  181POPC  H14B20687   5.967   1.079   6.866 -0.4957 -1.4200  2.1404
  181POPC  H14C20688   5.892   1.167   6.998  0.1949 -2.2789 -0.2205
  181POPC   C1520689   6.140   1.075   7.053 -0.2090  0.2652 -0.6499
  181POPC  H15A20690   6.154   0.985   6.995  2.3801 -0.3932  0.8161
  181POPC  H15B20691   6.087   1.059   7.146 -0.2799  0.1330 -0.7121
  181POPC  H15C20692   6.238   1.091   7.095 -1.1471  1.4324  1.2156
  181POPC   C1120693   6.201   1.061   6.755 -0.4476  0.1351  0.4318
  181POPC  H11A20694   6.250   1.078   6.657 -0.3797 -1.3875  0.1682
  181POPC  H11B20695   6.099   1.034   6.721  0.5103 -0.5358 -2.1020
  181POPC     P20696   6.407   0.930   6.841  0.1825 -0.4986 -0.0870
  181POPC   O1320697   6.430   0.810   6.921  0.2920  0.0852 -0.2495
  181POPC   O1420698   6.455   1.061   6.890  0.3250  0.7046  0.9472
  181POPC   O1220699   6.253   0.937   6.820  0.3102 -0.3776  0.1094
  181POPC   O1120700   6.466   0.913   6.697  0.7640 -0.4977  0.2809
  181POPC    C120701   6.609   0.867   6.695  0.8384 -0.4205 -0.2880
  181POPC    HA20702   6.593   0.778   6.630  0.6311 -0.1571 -0.6018
  181POPC    HB20703   6.649   0.837   6.795 -1.7715  3.1215  2.0684
  181POPC    C220704   6.692   0.973   6.619 -0.4884  0.0360 -0.2631
  181POPC    HS20705   6.648   0.994   6.519 -0.9727  2.0106  0.3256
  181POPC   O2120706   6.829   0.934   6.619  0.0553 -0.3356 -0.1773
  181POPC   C2120707   6.860   0.863   6.514 -0.7535  0.3423  0.6041
  181POPC   O2220708   6.793   0.783   6.457 -0.5365  0.6199 -0.1266
  181POPC   C2220709   6.998   0.907   6.459 -0.5682 -0.1869 -0.1946
  181POPC   H2R20710   7.038   0.827   6.394 -1.6412 -1.0716  0.2057
  181POPC   H2S20711   7.068   0.917   6.545  1.2499 -1.0537 -1.5178
  181POPC    C320712   6.688   1.112   6.688 -0.6622 -0.3755 -0.4024
  181POPC    HX20713   6.727   1.111   6.792 -1.2339  0.2658 -0.1745
  181POPC    HY20714   6.580   1.138   6.691 -0.1975  1.6481  1.4230
  181POPC   O3120715   6.757   1.213   6.610 -0.7581  0.0264 -0.2126
  181POPC   C3120716   6.735   1.336   6.653  0.4451 -1.2548 -0.2700
  181POPC   O3220717   6.675   1.371   6.755  0.3748 -0.0053  0.2059
  181POPC   C3220718   6.786   1.436   6.541 -0.2704  0.2720  0.3393
  181POPC   H2X20719   6.761   1.388   6.444  0.1474  0.2895  0.2169
  181POPC   H2Y20720   6.895   1.423   6.561 -0.7876 -1.3463  2.3826
  181POPC   C2320721   6.995   1.041   6.378 -0.0373 -1.4433 -0.4654
  181POPC   H3R20722   7.097   1.082   6.364 -1.0103  0.3985 -2.8048
  181POPC   H3S20723   6.937   1.125   6.421  0.9578 -1.4750  1.0106
  181POPC   C2420724   6.950   0.999   6.242  0.0243  0.2285  0.2035
  181POPC   H4R20725   6.841   0.973   6.241  0.0025  0.3235 -0.1673
  181POPC   H4S20726   7.007   0.908   6.212 -1.1676 -0.2938 -0.5905
  181POPC   C2520727   6.949   1.111   6.138  0.6778  0.0516  0.8191
  181POPC   H5R20728   7.053   1.146   6.117  0.2865 -0.5963 -2.8843
  181POPC   H5S20729   6.892   1.200   6.175  1.3411 -0.4118  3.1163
  181POPC   C2620730   6.904   1.067   5.997 -0.6370  0.5024  0.1469
  181POPC   H6R20731   6.905   1.151   5.925 -0.3676  1.3450  1.1149
  181POPC   H6S20732   6.800   1.028   6.000  0.9912 -4.7228 -0.6659
  181POPC   C2720733   7.000   0.974   5.927  0.3167  0.8696  0.0793
  181POPC   H7R20734   7.001   0.881   5.988  1.4671  0.5736 -0.3741
  181POPC   H7S20735   7.100   1.021   5.936  0.3792  0.6070  0.8666
  181POPC   C2820736   6.957   0.949   5.777 -0.0850 -0.2448 -0.4292
  181POPC   H8R20737   6.846   0.942   5.778 -0.0097 -1.9140  0.7345
  181POPC   H8S20738   7.001   0.852   5.747  0.9091  0.3145 -0.8338
  181POPC   C2920739   7.012   1.056   5.684 -0.4162 -0.4433 -0.4787
  181POPC   H9120740   6.986   1.162   5.701 -1.3742  0.2083 -4.8187
  181POPC  C21020741   7.100   1.034   5.585 -0.1517 -0.2939  0.9042
  181POPC  H10120742   7.137   1.117   5.522 -3.1480  1.6588  1.5237
  181POPC  C21120743   7.151   0.896   5.549  0.8415 -0.2298  0.1733
  181POPC  H11R20744   7.076   0.815   5.566  1.3484 -0.9292 -0.8322
  181POPC  H11S20745   7.242   0.866   5.604  0.4863 -0.0583  0.8572
  181POPC  C21220746   7.186   0.888   5.395  0.4827 -0.4108 -0.3573
  181POPC  H12R20747   7.271   0.949   5.358 -0.7432  0.8480 -1.2028
  181POPC  H12S20748   7.097   0.931   5.345  0.5541  0.3656  0.1661
  181POPC  C21320749   7.211   0.747   5.346 -0.2485  0.7716 -0.6071
  181POPC  H13R20750   7.127   0.680   5.372  1.1444 -1.8936 -2.4989
  181POPC  H13S20751   7.303   0.711   5.397 -0.3101 -1.2870 -1.8508
  181POPC  C21420752   7.228   0.740   5.197 -0.3077 -0.2885 -0.1686
  181POPC  H14R20753   7.326   0.778   5.163  0.2051 -1.3900  0.0171
  181POPC  H14S20754   7.151   0.800   5.143 -0.9433 -0.8548  0.0869
  181POPC  C21520755   7.211   0.589   5.153  0.1107 -0.1848  0.1677
  181POPC  H15R20756   7.102   0.565   5.163 -0.0053 -0.5885 -1.7718
  181POPC  H15S20757   7.276   0.525   5.217 -0.3052 -1.0736 -0.2658
  181POPC  C21620758   7.249   0.578   5.002 -1.1231  0.2640  0.2419
  181POPC  H16R20759   7.348   0.625   4.987 -2.2281  1.9614 -2.4058
  181POPC  H16S20760   7.176   0.627   4.935 -2.0927  1.6669  2.2190
  181POPC  C21720761   7.269   0.435   4.949  0.0599  0.1124  0.0467
  181POPC  H17R20762   7.170   0.386   4.964 -0.0411  0.4230  0.4178
  181POPC  H17S20763   7.347   0.382   5.007 -1.1289 -3.1871 -1.0979
  181POPC  C21820764   7.309   0.437   4.802  0.4580  0.2098 -0.4368
  181POPC  H18R20765   7.250   0.506   4.738 -1.7559 -0.9183  0.2678
  181POPC  H18S20766   7.281   0.336   4.765  2.8063 -0.5697 -0.2501
  181POPC  H18T20767   7.418   0.446   4.785  0.2068  1.9492 -1.3891
  181POPC   C3320768   6.730   1.579   6.565  0.2954 -0.0531  0.0200
  181POPC   H3X20769   6.756   1.618   6.666  0.2863 -1.3306  0.5284
  181POPC   H3Y20770   6.621   1.558   6.559  0.1749  0.8810 -2.4606
  181POPC   C3420771   6.771   1.678   6.447  0.0702  0.0857  0.6027
  181POPC   H4X20772   6.814   1.626   6.358  0.9941  2.9610 -0.7703
  181POPC   H4Y20773   6.850   1.746   6.485  0.3129  0.4495 -0.5194
  181POPC   C3520774   6.647   1.773   6.415  0.1680 -0.6810 -0.2553
  181POPC   H5X20775   6.614   1.821   6.510  0.2398  0.6353 -0.8723
  181POPC   H5Y20776   6.559   1.725   6.366  1.3419 -0.7262 -2.4552
  181POPC   C3620777   6.679   1.880   6.305  0.4252  0.0587 -0.5241
  181POPC   H6X20778   6.745   1.957   6.350 -0.9760  0.1822  1.4752
  181POPC   H6Y20779   6.584   1.932   6.278  1.1891  1.7795 -0.0830
  181POPC   C3720780   6.741   1.808   6.189  0.1170  0.4567 -0.3129
  181POPC   H7X20781   6.683   1.715   6.176 -2.0654  1.9798 -2.3926
  181POPC   H7Y20782   6.847   1.782   6.212 -0.6672 -2.7427  0.1359
  181POPC   C3820783   6.721   1.867   6.050 -0.2459  0.4241 -0.2490
  181POPC   H8X20784   6.777   1.962   6.065 -0.6739  0.4428  1.4160
  181POPC   H8Y20785   6.614   1.889   6.032 -0.1153  0.8407 -0.5471
  181POPC   C3920786   6.766   1.779   5.929  0.5858  0.4806 -0.4203
  181POPC   H9X20787   6.711   1.683   5.928  0.0362  0.7974 -1.7105
  181POPC   H9Y20788   6.876   1.766   5.923  0.7366  0.6660  1.3959
  181POPC  C31020789   6.718   1.854   5.804 -0.2557  1.0123  0.1335
  181POPC  H10X20790   6.768   1.953   5.799 -0.3512  1.0864  0.6193
  181POPC  H10Y20791   6.614   1.892   5.797 -0.0622  1.5015 -0.1204
  181POPC  C31120792   6.743   1.766   5.681  0.5422 -0.0871 -0.2021
  181POPC  H11X20793   6.691   1.669   5.696 -0.1381  0.1462 -0.9639
  181POPC  H11Y20794   6.851   1.738   5.681  0.1368 -1.7725  0.2611
  181POPC  C31220795   6.715   1.844   5.554 -1.1792 -0.5147  0.3882
  181POPC  H12X20796   6.747   1.949   5.571  2.2209 -1.4121  0.2374
  181POPC  H12Y20797   6.608   1.851   5.527 -1.1474 -2.3832 -0.4356
  181POPC  C31320798   6.774   1.775   5.427 -0.0725 -0.0177  0.1879
  181POPC  H13X20799   6.751   1.666   5.429  0.4774 -0.1221  1.9118
  181POPC  H13Y20800   6.884   1.784   5.443 -0.1657 -1.4067  1.9039
  181POPC  C31420801   6.743   1.852   5.301 -0.7946 -0.2227  0.0953
  181POPC  H14X20802   6.750   1.963   5.313 -3.3674  0.3485 -2.6390
  181POPC  H14Y20803   6.635   1.842   5.280 -1.0896 -0.0916  1.4470
  181POPC  C31520804   6.828   1.811   5.177  0.1564 -0.6288 -0.1914
  181POPC  H15X20805   6.930   1.852   5.190  0.0160  0.4089 -2.0308
  181POPC  H15Y20806   6.791   1.853   5.081  0.1812 -0.6950 -0.2301
  181POPC  C31620807   6.837   1.661   5.154 -0.2700  0.2486  0.1469
  181POPC  H16X20808   6.862   1.639   5.048  2.3399 -0.1364  0.7784
  181POPC  H16Y20809   6.733   1.630   5.178 -0.7616  1.3552 -0.5071
  181POPC  H16Z20810   6.910   1.612   5.222 -0.6567  1.9658  1.8711
  182POPC     N20811   3.428   6.288   6.692  0.1048 -0.2646 -0.6433
  182POPC   C1220812   3.295   6.217   6.730  0.0670  0.4166  0.3034
  182POPC  H12A20813   3.306   6.188   6.833  0.4314 -1.0580 -0.1234
  182POPC  H12B20814   3.293   6.117   6.687 -0.0684  0.4408  0.2505
  182POPC   C1320815   3.430   6.412   6.768 -0.2345 -1.1265 -0.1935
  182POPC  H13A20816   3.424   6.403   6.876 -2.0731  0.0183 -0.1663
  182POPC  H13B20817   3.524   6.461   6.750 -0.7339  0.4863  1.3372
  182POPC  H13C20818   3.352   6.484   6.750  0.7921 -0.1368 -0.7859
  182POPC   C1420819   3.547   6.204   6.725  0.1025 -0.5596 -0.1486
  182POPC  H14A20820   3.632   6.270   6.725  0.0221 -0.4308  1.1113
  182POPC  H14B20821   3.539   6.177   6.829  1.3011 -0.5156 -0.0305
  182POPC  H14C20822   3.570   6.120   6.661  1.6949  1.8858 -3.0698
  182POPC   C1520823   3.429   6.308   6.546  0.0781 -0.9357  1.3035
  182POPC  H15A20824   3.329   6.325   6.508  1.6766  1.4421 -2.3556
  182POPC  H15B20825   3.454   6.221   6.488 -1.5157 -0.2994 -0.4347
  182POPC  H15C20826   3.497   6.382   6.508 -0.7497 -1.8793 -2.3617
  182POPC   C1120827   3.159   6.292   6.715 -0.2596  0.2835  0.2731
  182POPC  H11A20828   3.084   6.212   6.734 -1.1177  0.8353 -0.6251
  182POPC  H11B20829   3.138   6.331   6.612  0.2265  0.2659  0.1678
  182POPC     P20830   3.030   6.502   6.822 -0.1791 -0.1384  0.2418
  182POPC   O1320831   3.077   6.640   6.861  0.7262  0.0781  0.8975
  182POPC   O1420832   2.931   6.445   6.913 -0.0828  0.0463  0.2602
  182POPC   O1220833   3.143   6.399   6.808 -0.0199  0.1779  0.6683
  182POPC   O1120834   2.979   6.508   6.675 -0.3544 -0.0779 -0.1860
  182POPC    C120835   2.838   6.544   6.649  0.6124 -0.5960 -0.2904
  182POPC    HA20836   2.820   6.650   6.675  2.8343  0.1056 -1.3664
  182POPC    HB20837   2.762   6.487   6.707 -1.0014 -0.5202 -2.2536
  182POPC    C220838   2.803   6.517   6.499  0.1511  0.1685  0.1760
  182POPC    HS20839   2.693   6.510   6.498  0.0107  1.3626  1.7465
  182POPC   O2120840   2.868   6.389   6.453 -0.3004 -1.2380 -0.5779
  182POPC   C2120841   2.816   6.283   6.519 -0.6043  0.1104 -0.0454
  182POPC   O2220842   2.718   6.292   6.593  0.6600 -0.1770  0.2269
  182POPC   C2220843   2.875   6.153   6.469  0.3709  0.8050  1.0324
  182POPC   H2R20844   2.943   6.113   6.547 -0.6121  1.5879  2.3236
  182POPC   H2S20845   2.940   6.180   6.383 -1.7439  1.2931 -0.5092
  182POPC    C320846   2.856   6.631   6.402  0.3033  0.2853  0.5126
  182POPC    HX20847   2.958   6.660   6.434  0.6482  0.3098 -0.5713
  182POPC    HY20848   2.781   6.709   6.426 -1.9600 -0.8925 -2.1380
  182POPC   O3120849   2.845   6.592   6.264 -0.3153  0.1431  0.3850
  182POPC   C3120850   2.950   6.531   6.217 -0.5785 -0.5185 -0.5778
  182POPC   O3220851   3.051   6.506   6.280  0.4098  0.0352 -0.3171
  182POPC   C3220852   2.938   6.505   6.066 -0.8865  0.0904 -0.1473
  182POPC   H2X20853   2.992   6.592   6.024 -0.9092 -0.0901 -0.5556
  182POPC   H2Y20854   2.837   6.529   6.028  0.1241  3.7838 -0.8691
  182POPC   C2320855   2.763   6.050   6.431  0.2612  0.3244  0.0261
  182POPC   H3R20856   2.707   6.018   6.522  0.6816 -2.0107 -0.4612
  182POPC   H3S20857   2.813   5.962   6.386 -1.5640 -0.1833 -1.1289
  182POPC   C2420858   2.669   6.107   6.327  0.4187  0.3922 -0.3111
  182POPC   H4R20859   2.728   6.170   6.257  1.8331 -1.7032 -1.1180
  182POPC   H4S20860   2.593   6.173   6.374 -0.1594 -0.8589  0.5561
  182POPC   C2520861   2.600   5.998   6.239 -0.0383 -0.4262 -0.1967
  182POPC   H5R20862   2.682   5.940   6.189  1.4018 -0.1787  1.7693
  182POPC   H5S20863   2.547   6.041   6.151  0.1429  0.3723  0.0753
  182POPC   C2620864   2.494   5.914   6.304 -0.3267  0.5171  0.0072
  182POPC   H6R20865   2.401   5.974   6.314 -2.6745 -2.8199 -0.0522
  182POPC   H6S20866   2.525   5.884   6.407  0.0025 -0.8171 -0.4681
  182POPC   C2720867   2.460   5.786   6.234  0.3281 -0.3340 -0.3068
  182POPC   H7R20868   2.552   5.724   6.235  1.5348  1.3844 -0.7807
  182POPC   H7S20869   2.440   5.806   6.127  1.4875 -2.4461 -0.9673
  182POPC   C2820870   2.343   5.701   6.293  0.2397 -0.2266 -0.1386
  182POPC   H8R20871   2.347   5.698   6.404 -1.8927  0.6321  0.0229
  182POPC   H8S20872   2.349   5.595   6.263  3.3421 -1.0406  2.7923
  182POPC   C2920873   2.216   5.758   6.244 -1.1136  0.5618  0.6497
  182POPC   H9120874   2.176   5.834   6.313 -0.2248 -0.6844  2.6225
  182POPC  C21020875   2.153   5.730   6.131 -0.1243 -0.8159  0.3744
  182POPC  H10120876   2.055   5.779   6.117 -1.2270 -1.9914  3.2343
  182POPC  C21120877   2.199   5.635   6.026 -1.2202  0.0502  0.0292
  182POPC  H11R20878   2.152   5.534   6.028 -0.7834 -0.2145 -1.6185
  182POPC  H11S20879   2.306   5.609   6.043 -0.8563  1.4422 -0.0340
  182POPC  C21220880   2.200   5.688   5.885 -0.0741 -0.5060  0.1234
  182POPC  H12R20881   2.283   5.761   5.874 -0.1608 -0.6259 -1.5936
  182POPC  H12S20882   2.100   5.733   5.866 -0.3422 -0.0060  2.4356
  182POPC  C21320883   2.211   5.579   5.780 -0.7178 -0.6427  0.8629
  182POPC  H13R20884   2.115   5.543   5.738 -0.4015 -0.1119 -0.3692
  182POPC  H13S20885   2.271   5.499   5.828  0.2728 -0.9226 -0.7394
  182POPC  C21420886   2.282   5.623   5.654 -0.2375  0.2028 -0.6594
  182POPC  H14R20887   2.380   5.668   5.681 -0.5031  1.5899 -1.8850
  182POPC  H14S20888   2.223   5.704   5.605 -0.0805  1.1513  0.6626
  182POPC  C21520889   2.312   5.513   5.566 -0.8010 -0.2679 -0.0276
  182POPC  H15R20890   2.217   5.487   5.515 -0.9106  1.3241 -0.7038
  182POPC  H15S20891   2.345   5.422   5.620  0.2218 -0.0486 -0.2574
  182POPC  C21620892   2.408   5.555   5.461 -0.4320  0.5060  0.1867
  182POPC  H16R20893   2.505   5.592   5.502  0.7490  0.2550 -2.1831
  182POPC  H16S20894   2.360   5.634   5.399 -1.0724  0.4768  0.6430
  182POPC  C21720895   2.442   5.443   5.355  1.0235 -0.5828 -0.5354
  182POPC  H17R20896   2.462   5.490   5.257  0.7382 -0.6849 -0.6447
  182POPC  H17S20897   2.349   5.387   5.332 -0.3909  1.0461  0.9273
  182POPC  C21820898   2.548   5.348   5.396  0.6459  0.4911 -0.1942
  182POPC  H18R20899   2.522   5.291   5.488 -1.3862 -1.5334 -1.8841
  182POPC  H18S20900   2.654   5.380   5.392  1.3058 -1.5973 -1.1881
  182POPC  H18T20901   2.540   5.274   5.313 -0.0185  0.8146 -0.4278
  182POPC   C3320902   2.984   6.369   6.025 -0.7314 -0.2771  0.7623
  182POPC   H3X20903   2.955   6.283   6.089 -2.7277 -1.8487 -2.0525
  182POPC   H3Y20904   3.093   6.392   6.018 -1.5615  3.8704 -3.3878
  182POPC   C3420905   2.924   6.342   5.887  0.4549 -0.7414  0.1035
  182POPC   H4X20906   2.961   6.426   5.824  0.4534 -0.7921  0.0349
  182POPC   H4Y20907   2.814   6.351   5.888  0.4612 -0.7068  1.0853
  182POPC   C3520908   2.982   6.203   5.826  0.2002 -0.4454  0.1435
  182POPC   H5X20909   3.006   6.134   5.910  0.7196  1.1925  1.3770
  182POPC   H5Y20910   3.059   6.225   5.750  1.3252  0.2691  1.4482
  182POPC   C3620911   2.869   6.131   5.750 -0.6074 -1.0433 -0.6281
  182POPC   H6X20912   2.805   6.216   5.719 -0.4328 -0.0277  1.5690
  182POPC   H6Y20913   2.817   6.067   5.824 -0.3407 -0.6248 -0.0701
  182POPC   C3720914   2.907   6.039   5.637  0.2815  0.9582 -0.0385
  182POPC   H7X20915   2.993   5.981   5.677  1.3460  3.6517  1.8710
  182POPC   H7Y20916   2.927   6.102   5.548  2.2513 -0.2472 -0.5075
  182POPC   C3820917   2.792   5.942   5.610 -1.1419  0.0063  0.1064
  182POPC   H8X20918   2.717   6.013   5.568  1.4906  2.0474 -1.4455
  182POPC   H8Y20919   2.759   5.907   5.710 -0.7189 -0.6532  0.0216
  182POPC   C3920920   2.820   5.822   5.519 -0.0105  0.0966 -0.0143
  182POPC   H9X20921   2.741   5.744   5.525  0.4345 -0.4338 -0.8435
  182POPC   H9Y20922   2.914   5.770   5.549 -0.3161  0.4440  1.6855
  182POPC  C31020923   2.825   5.855   5.365 -0.4937 -0.3087 -0.6802
  182POPC  H10X20924   2.912   5.917   5.334 -1.7910  0.9457 -1.9582
  182POPC  H10Y20925   2.737   5.920   5.349  1.7495  3.0205 -0.4368
  182POPC  C31120926   2.810   5.729   5.269 -0.3578 -1.0575  0.3855
  182POPC  H11X20927   2.749   5.653   5.323 -1.2486 -1.6328 -1.3577
  182POPC  H11Y20928   2.914   5.692   5.256  0.1246  0.5530 -0.6045
  182POPC  C31220929   2.749   5.763   5.130  0.0931 -0.2603  0.5861
  182POPC  H12X20930   2.805   5.847   5.084 -0.4826 -0.1080  0.1561
  182POPC  H12Y20931   2.644   5.794   5.150  0.1642  1.1346 -0.9705
  182POPC  C31320932   2.754   5.647   5.029  0.0888 -0.1656  0.1852
  182POPC  H13X20933   2.849   5.657   4.973  0.0258  1.3319  0.2978
  182POPC  H13Y20934   2.662   5.663   4.969 -0.6545  0.3215  1.4148
  182POPC  C31420935   2.747   5.504   5.086 -0.0637 -0.0063  0.0911
  182POPC  H14X20936   2.653   5.501   5.145  0.1344 -0.7421  0.3758
  182POPC  H14Y20937   2.836   5.492   5.151  0.0688  2.1208  0.3875
  182POPC  C31520938   2.744   5.398   4.982  0.1658 -0.0913 -0.5649
  182POPC  H15X20939   2.840   5.394   4.926 -0.7233 -1.6774 -2.0825
  182POPC  H15Y20940   2.662   5.427   4.913  0.3292  3.0506  0.3877
  182POPC  C31620941   2.736   5.250   5.033  0.6665 -0.2572  0.7389
  182POPC  H16X20942   2.830   5.226   5.087  0.9120  1.2228  1.0211
  182POPC  H16Y20943   2.730   5.185   4.943 -2.6786 -0.1505  0.7442
  182POPC  H16Z20944   2.648   5.254   5.101  0.3616  0.0381  0.3298
  183POPC     N20945   4.841   4.934   6.994 -0.7906  0.3385  0.5212
  183POPC   C1220946   4.962   4.838   6.951 -0.0223 -0.1906 -0.3575
  183POPC  H12A20947   5.044   4.907   6.941  1.0155 -1.0294  1.7426
  183POPC  H12B20948   4.944   4.796   6.853  0.1894 -0.0018 -0.4802
  183POPC   C1320949   4.716   4.853   7.004  0.3464  0.4049  0.2563
  183POPC  H13A20950   4.733   4.776   7.077 -1.1927 -0.6578 -0.4499
  183POPC  H13B20951   4.632   4.914   7.037  0.2689 -0.1851  1.1951
  183POPC  H13C20952   4.683   4.811   6.911  2.1324  0.5530 -0.4670
  183POPC   C1420953   4.880   5.005   7.114 -0.4323  0.1109  0.0922
  183POPC  H14A20954   4.983   5.035   7.101 -0.4448  0.4979  0.8453
  183POPC  H14B20955   4.824   5.095   7.137 -0.2572  0.0140  0.9160
  183POPC  H14C20956   4.878   4.937   7.197  0.4952 -0.0121  0.0240
  183POPC   C1520957   4.832   5.036   6.883  0.0419 -0.2801 -0.1445
  183POPC  H15A20958   4.917   5.103   6.882 -0.4404  0.4425  1.8168
  183POPC  H15B20959   4.760   5.114   6.906  2.9373  3.6942 -3.0441
  183POPC  H15C20960   4.807   4.985   6.791 -1.3653 -2.1200  1.1780
  183POPC   C1120961   4.992   4.715   7.044  0.6738  0.3932 -0.1293
  183POPC  H11A20962   5.005   4.769   7.140 -0.2116  0.1875  0.1077
  183POPC  H11B20963   5.084   4.652   7.041  0.6348  0.2776  0.7735
  183POPC     P20964   4.859   4.509   6.961 -0.0823  0.1558  0.2727
  183POPC   O1320965   4.712   4.471   6.955 -0.2240 -0.0584 -0.6059
  183POPC   O1420966   4.949   4.393   6.982 -0.5049  0.0843 -0.2531
  183POPC   O1220967   4.879   4.627   7.065  0.3499 -0.1451  0.7587
  183POPC   O1120968   4.905   4.572   6.822  0.1964 -0.3980  0.2019
  183POPC    C120969   4.804   4.600   6.723 -0.8164  0.1826  0.0694
  183POPC    HA20970   4.850   4.669   6.649 -1.2819  0.4520  0.0297
  183POPC    HB20971   4.721   4.656   6.770 -2.0837 -0.1336 -1.7185
  183POPC    C220972   4.762   4.480   6.641  0.6156  0.6223  0.0087
  183POPC    HS20973   4.699   4.413   6.704  0.1905 -1.6897 -2.6477
  183POPC   O2120974   4.885   4.406   6.607 -0.3342 -0.7490  0.2778
  183POPC   C2120975   4.857   4.285   6.563 -1.0140  0.3428  0.3127
  183POPC   O2220976   4.750   4.227   6.563 -0.8857 -0.3136 -0.0804
  183POPC   C2220977   4.995   4.218   6.524  0.3198 -0.4126  0.1355
  183POPC   H2R20978   4.974   4.121   6.475  1.5254  0.8404 -3.1520
  183POPC   H2S20979   5.039   4.214   6.626  1.3363  0.7771 -0.2313
  183POPC    C320980   4.679   4.523   6.520  0.0681  0.0835 -0.0487
  183POPC    HX20981   4.584   4.566   6.556 -0.3197 -0.9974  0.2530
  183POPC    HY20982   4.651   4.435   6.458 -0.0956 -0.5910  0.9597
  183POPC   O3120983   4.763   4.612   6.438 -0.4900  0.3330  0.1155
  183POPC   C3120984   4.703   4.661   6.329 -0.2865 -0.4823  0.0520
  183POPC   O3220985   4.594   4.627   6.285 -0.3249  0.0409  0.9317
  183POPC   C3220986   4.779   4.779   6.274  0.1505 -0.5965  0.3084
  183POPC   H2X20987   4.881   4.752   6.238 -1.1297 -1.9599 -2.6503
  183POPC   H2Y20988   4.786   4.853   6.357  0.0846  1.6049 -1.5279
  183POPC   C2320989   5.096   4.281   6.429 -0.1710  0.0175 -1.1042
  183POPC   H3R20990   5.179   4.209   6.415  0.0123 -0.0114  0.0144
  183POPC   H3S20991   5.135   4.376   6.472  0.4905 -1.2969  1.4389
  183POPC   C2420992   5.036   4.300   6.284  0.3335  0.1632  0.2028
  183POPC   H4R20993   4.985   4.211   6.242  0.6166  0.2913 -0.4210
  183POPC   H4S20994   5.131   4.306   6.227  0.0255  1.1187 -0.2148
  183POPC   C2520995   4.969   4.442   6.273  0.7927  0.0005  1.0247
  183POPC   H5R20996   5.027   4.515   6.332  0.3769 -1.3324  3.1816
  183POPC   H5S20997   4.861   4.445   6.302  0.6192  2.8075  0.3816
  183POPC   C2620998   4.959   4.482   6.124  0.2467 -0.0534 -0.0873
  183POPC   H6R20999   4.875   4.551   6.097  1.0213  0.2411 -1.9130
  183POPC   H6S21000   4.937   4.403   6.049 -1.8300  0.7972 -0.4617
  183POPC   C2721001   5.085   4.550   6.079  0.4586  0.2109 -0.0330
  183POPC   H7R21002   5.176   4.501   6.120  0.6073  1.5727  1.3612
  183POPC   H7S21003   5.084   4.651   6.124 -1.0872 -0.1897  0.9001
  183POPC   C2821004   5.098   4.561   5.924 -0.4725  0.2697  0.0195
  183POPC   H8R21005   5.185   4.628   5.903  0.4601 -0.8614  0.1745
  183POPC   H8S21006   5.012   4.615   5.880 -2.5670 -3.5292 -0.9901
  183POPC   C2921007   5.092   4.431   5.857  1.2149  0.4087  0.3835
  183POPC   H9121008   5.131   4.348   5.919  1.1352  0.1962  0.1523
  183POPC  C21021009   5.030   4.402   5.739  0.3733 -0.0700  0.6107
  183POPC  H10121010   5.029   4.298   5.704  1.2270 -0.2008  0.9635
  183POPC  C21121011   4.963   4.497   5.648 -0.3168  0.4827 -0.4378
  183POPC  H11R21012   4.968   4.604   5.677 -0.4815  0.3890 -0.0454
  183POPC  H11S21013   4.853   4.484   5.662 -0.3789  2.1691  1.0701
  183POPC  C21221014   4.999   4.488   5.495 -0.6999  0.3152 -0.3046
  183POPC  H12R21015   4.976   4.383   5.466  0.0105 -0.3580  1.4477
  183POPC  H12S21016   5.105   4.512   5.471 -0.3988  0.0498  0.7454
  183POPC  C21321017   4.913   4.581   5.411 -0.2237  0.3029  0.0990
  183POPC  H13R21018   4.950   4.685   5.397  1.9263 -0.5992 -1.4128
  183POPC  H13S21019   4.811   4.574   5.456 -0.4798  2.1690 -0.1005
  183POPC  C21421020   4.894   4.545   5.269  0.0170  0.3162 -0.0261
  183POPC  H14R21021   4.877   4.436   5.256 -1.0598  0.2816  1.3473
  183POPC  H14S21022   4.992   4.563   5.220  0.6600  1.6628  1.6518
  183POPC  C21521023   4.792   4.627   5.191 -0.5302 -0.1220 -1.1369
  183POPC  H15R21024   4.800   4.736   5.212 -3.0454 -0.2580  1.0495
  183POPC  H15S21025   4.691   4.596   5.224 -0.9150 -0.1801 -2.3165
  183POPC  C21621026   4.799   4.597   5.039 -0.0594  0.2971 -0.2812
  183POPC  H16R21027   4.816   4.489   5.023 -1.9356  0.3117 -2.9974
  183POPC  H16S21028   4.889   4.647   4.998 -0.6574  0.6782 -1.1550
  183POPC  C21721029   4.675   4.631   4.968  0.4148 -0.4015  0.3143
  183POPC  H17R21030   4.653   4.739   4.982 -0.4802 -0.2382 -2.0068
  183POPC  H17S21031   4.590   4.572   5.010  0.6464  0.5205  2.2136
  183POPC  C21821032   4.685   4.604   4.814 -0.4134  0.7642  0.0161
  183POPC  H18R21033   4.709   4.696   4.757 -1.6873  0.3441 -1.2482
  183POPC  H18S21034   4.581   4.573   4.791 -0.8464 -0.9308  3.4798
  183POPC  H18T21035   4.760   4.528   4.785 -1.0670  0.0647  0.1097
  183POPC   C3321036   4.707   4.834   6.152  0.0712 -0.4734  0.2808
  183POPC   H3X21037   4.603   4.872   6.163 -0.4592 -1.7890  0.0397
  183POPC   H3Y21038   4.693   4.753   6.077 -0.5902  0.7961 -1.0116
  183POPC   C3421039   4.790   4.946   6.076  0.3762  0.7284 -0.1766
  183POPC   H4X21040   4.896   4.922   6.099  0.4524  0.5223 -0.7125
  183POPC   H4Y21041   4.775   5.044   6.126 -0.2943  0.1137  0.8754
  183POPC   C3521042   4.773   4.957   5.924  0.2333  0.1447 -0.0284
  183POPC   H5X21043   4.827   5.049   5.893  0.3692 -0.4248 -1.5764
  183POPC   H5Y21044   4.664   4.975   5.906 -0.2596 -0.1472  2.3158
  183POPC   C3621045   4.836   4.844   5.835  0.4986  0.0935  0.2148
  183POPC   H6X21046   4.801   4.739   5.849 -1.8361  0.7457 -0.2914
  183POPC   H6Y21047   4.946   4.849   5.850  0.1262  0.9405  3.5162
  183POPC   C3721048   4.825   4.878   5.687  0.0487 -0.0350 -0.4739
  183POPC   H7X21049   4.907   4.838   5.623  1.6909  1.1080  0.8290
  183POPC   H7Y21050   4.830   4.987   5.668 -1.9835  0.1476 -0.1487
  183POPC   C3821051   4.694   4.834   5.624  0.2507  0.7975 -0.5781
  183POPC   H8X21052   4.608   4.877   5.681 -0.2020 -0.4188 -0.3070
  183POPC   H8Y21053   4.705   4.725   5.638  2.1388  1.3318  3.7389
  183POPC   C3921054   4.675   4.884   5.479  0.3085  0.1372  0.1557
  183POPC   H9X21055   4.757   4.849   5.413 -0.6471  1.6106 -1.9349
  183POPC   H9Y21056   4.703   4.992   5.470  1.0495 -0.0987 -0.4713
  183POPC  C31021057   4.544   4.852   5.398 -0.3384 -0.3103  0.5642
  183POPC  H10X21058   4.460   4.887   5.461 -0.4165  1.0286 -0.2330
  183POPC  H10Y21059   4.539   4.741   5.395  0.4998 -0.3761  1.2670
  183POPC  C31121060   4.544   4.920   5.259  0.0521  0.0685  0.2921
  183POPC  H11X21061   4.613   4.861   5.195 -0.4413 -0.5601  0.3299
  183POPC  H11Y21062   4.596   5.018   5.267  0.4801 -0.3161  2.9048
  183POPC  C31221063   4.401   4.930   5.188 -0.0646 -0.3357  0.3082
  183POPC  H12X21064   4.345   4.999   5.254 -1.2683 -0.0048 -1.0149
  183POPC  H12Y21065   4.346   4.834   5.187 -0.6180 -0.0722  2.0135
  183POPC  C31321066   4.422   4.990   5.048  0.1930  0.5471  0.1085
  183POPC  H13X21067   4.500   4.930   4.996  1.2218  1.4696  0.5831
  183POPC  H13Y21068   4.455   5.095   5.051 -1.5927  1.1105  1.9137
  183POPC  C31421069   4.291   4.981   4.975 -0.1098 -0.3869  0.3269
  183POPC  H14X21070   4.217   5.010   5.053  1.0605 -0.9575  1.6903
  183POPC  H14Y21071   4.273   4.874   4.949 -2.1379  0.4455 -2.1684
  183POPC  C31521072   4.280   5.066   4.849 -0.7025  0.1778  0.3324
  183POPC  H15X21073   4.366   5.043   4.783 -2.6314  1.2622 -2.7941
  183POPC  H15Y21074   4.295   5.172   4.879 -0.9797  0.8943 -1.8951
  183POPC  C31621075   4.156   5.046   4.759 -0.2501 -0.3176  1.1931
  183POPC  H16X21076   4.135   4.947   4.712  0.1675  0.3808 -0.5395
  183POPC  H16Y21077   4.160   5.125   4.682  0.4230 -0.5489  0.9864
  183POPC  H16Z21078   4.070   5.063   4.828 -1.1341 -1.6171  0.4711
  184POPC     N21079   5.460   4.919   7.538  0.3146  0.3209  0.3158
  184POPC   C1221080   5.377   4.955   7.415  0.0401 -0.2440  0.7258
  184POPC  H12A21081   5.367   5.061   7.399 -1.3914 -0.2296  1.5910
  184POPC  H12B21082   5.276   4.921   7.430  0.5975 -1.8307  1.1927
  184POPC   C1321083   5.603   4.962   7.520 -0.4954  0.0891 -1.1845
  184POPC  H13A21084   5.647   4.929   7.427 -1.5398 -1.5552 -1.1356
  184POPC  H13B21085   5.600   5.070   7.513 -0.1286  0.2586  0.6371
  184POPC  H13C21086   5.660   4.932   7.607  1.3232 -2.1069 -2.9840
  184POPC   C1421087   5.395   4.987   7.659  0.3296 -0.3169 -0.0522
  184POPC  H14A21088   5.438   4.948   7.751 -1.2732 -1.2559  0.3463
  184POPC  H14B21089   5.410   5.093   7.645 -0.7696 -0.0821  0.4477
  184POPC  H14C21090   5.291   4.958   7.661  0.3092 -0.2264  0.1955
  184POPC   C1521091   5.439   4.770   7.555  0.3025  0.4960  0.0102
  184POPC  H15A21092   5.341   4.738   7.523  1.1169 -0.6396 -1.4687
  184POPC  H15B21093   5.465   4.733   7.653  1.4979 -2.5428 -1.3240
  184POPC  H15C21094   5.515   4.727   7.491  1.3003  2.1433  0.0183
  184POPC   C1121095   5.422   4.899   7.276  0.1699 -0.7758  0.0370
  184POPC  H11A21096   5.342   4.903   7.199  1.6630  0.9022 -1.5406
  184POPC  H11B21097   5.447   4.791   7.278 -0.4818 -0.9791  3.6802
  184POPC     P21098   5.549   5.110   7.163 -0.5541 -0.0890 -0.1007
  184POPC   O1321099   5.689   5.129   7.119  0.4582  0.2364 -0.0230
  184POPC   O1421100   5.494   5.209   7.257 -0.3657 -0.0386  0.0797
  184POPC   O1221101   5.546   4.966   7.229 -0.0558 -0.0452 -0.5173
  184POPC   O1121102   5.454   5.096   7.035 -0.2978  0.2280 -0.6789
  184POPC    C121103   5.478   4.983   6.954 -0.3183 -0.3732 -0.1933
  184POPC    HA21104   5.383   4.964   6.900 -0.4039 -1.2244  0.2303
  184POPC    HB21105   5.508   4.891   7.009  0.5877  0.6636  1.1342
  184POPC    C221106   5.587   5.003   6.847  0.0710  0.3276 -0.2229
  184POPC    HS21107   5.686   4.982   6.893 -1.1356  0.4340  2.6890
  184POPC   O2121108   5.566   5.135   6.795 -0.3595 -0.2284 -0.0268
  184POPC   C2121109   5.657   5.165   6.708 -0.2258 -0.4066  0.4871
  184POPC   O2221110   5.754   5.106   6.669 -0.2874 -0.4484 -0.2849
  184POPC   C2221111   5.632   5.309   6.659  1.0804  0.0414  0.0283
  184POPC   H2R21112   5.731   5.356   6.644  1.6303 -0.4183  1.9112
  184POPC   H2S21113   5.587   5.359   6.748 -2.7619 -1.8432 -0.6202
  184POPC    C321114   5.555   4.893   6.735  0.1494 -0.5262  0.6126
  184POPC    HX21115   5.553   4.791   6.778 -1.6395 -1.3680 -1.3086
  184POPC    HY21116   5.650   4.886   6.677 -0.0778  1.3873 -0.0628
  184POPC   O3121117   5.447   4.911   6.643  0.4087 -0.0616 -0.1480
  184POPC   C3121118   5.458   4.876   6.512  0.3457 -0.0054 -0.4095
  184POPC   O3221119   5.561   4.829   6.466 -0.1793  0.0699 -0.7544
  184POPC   C3221120   5.323   4.898   6.444 -1.2077 -0.2509 -0.1127
  184POPC   H2X21121   5.275   4.979   6.503  0.2709  0.5351  0.0613
  184POPC   H2Y21122   5.269   4.802   6.458  0.7244 -0.9570  3.7298
  184POPC   C2321123   5.536   5.322   6.548  0.1049  0.3179  0.2703
  184POPC   H3R21124   5.526   5.425   6.508 -0.3534 -0.8415 -2.8862
  184POPC   H3S21125   5.435   5.300   6.588  0.8594  0.8754  2.6653
  184POPC   C2421126   5.574   5.245   6.422  0.4554  0.1771  0.6126
  184POPC   H4R21127   5.550   5.137   6.424  1.4487 -0.0794 -0.2662
  184POPC   H4S21128   5.682   5.261   6.403 -0.2757  5.0790 -0.8936
  184POPC   C2521129   5.509   5.301   6.294 -0.1577  0.7760 -0.4503
  184POPC   H5R21130   5.526   5.410   6.284 -1.9622  1.0275 -1.1780
  184POPC   H5S21131   5.400   5.287   6.313 -0.4630  1.3323 -1.6573
  184POPC   C2621132   5.565   5.242   6.166 -0.3955  0.7361 -0.0267
  184POPC   H6R21133   5.544   5.133   6.164 -0.4251  0.7037  1.4439
  184POPC   H6S21134   5.675   5.252   6.175 -0.2558  0.4713 -1.2781
  184POPC   C2721135   5.500   5.318   6.043  0.2112  0.3372 -0.2736
  184POPC   H7R21136   5.519   5.427   6.056 -0.6146  0.4973 -0.3660
  184POPC   H7S21137   5.392   5.291   6.035  0.4267 -0.7539  0.3096
  184POPC   C2821138   5.562   5.288   5.901  0.2948 -0.2461 -0.0529
  184POPC   H8R21139   5.530   5.187   5.867 -2.1672 -0.3055  2.1368
  184POPC   H8S21140   5.672   5.278   5.911  0.2770 -1.4904 -0.8542
  184POPC   C2921141   5.547   5.397   5.809 -0.3557 -0.2962 -0.0691
  184POPC   H9121142   5.582   5.491   5.856 -0.0630 -0.5561  0.2409
  184POPC  C21021143   5.505   5.401   5.685  0.3255 -0.2335  0.0811
  184POPC  H10121144   5.479   5.494   5.633 -1.2464  0.6359  2.2783
  184POPC  C21121145   5.472   5.276   5.610 -0.1640 -0.8034  0.1770
  184POPC  H11R21146   5.375   5.238   5.649 -0.7410 -0.8696 -1.2720
  184POPC  H11S21147   5.545   5.200   5.645  2.5265  2.3154  1.7661
  184POPC  C21221148   5.453   5.258   5.455  0.4197  0.2105 -0.2175
  184POPC  H12R21149   5.359   5.307   5.424  0.4900  0.7708  0.4548
  184POPC  H12S21150   5.446   5.148   5.439  3.3874 -0.0077 -0.6638
  184POPC  C21321151   5.568   5.311   5.365 -0.6230  0.4266  0.0205
  184POPC  H13R21152   5.659   5.253   5.392  0.6733  2.0054 -0.8185
  184POPC  H13S21153   5.566   5.417   5.396  0.8857  0.3347  0.4968
  184POPC  C21421154   5.550   5.308   5.213 -0.8482 -0.1104  0.3972
  184POPC  H14R21155   5.454   5.357   5.187 -0.1271  1.0276 -0.1960
  184POPC  H14S21156   5.534   5.201   5.185  0.0631 -0.3251  0.6595
  184POPC  C21521157   5.656   5.386   5.146  0.3920  0.1222  0.2066
  184POPC  H15R21158   5.758   5.372   5.189  0.4244 -1.0858 -0.2147
  184POPC  H15S21159   5.637   5.493   5.167  0.0206  0.0823  0.0753
  184POPC  C21621160   5.663   5.358   4.997 -0.4882  0.3727 -0.3379
  184POPC  H16R21161   5.569   5.396   4.951 -1.2675  0.5896  1.3537
  184POPC  H16S21162   5.672   5.249   4.979  0.4806  0.2165  0.9986
  184POPC  C21721163   5.783   5.426   4.933 -0.3407 -0.1365 -0.7414
  184POPC  H17R21164   5.865   5.423   5.008  0.2550  2.4782 -1.1849
  184POPC  H17S21165   5.761   5.535   4.925  1.9943  0.3596 -1.2871
  184POPC  C21821166   5.844   5.384   4.797 -0.2222 -0.1105 -0.5244
  184POPC  H18R21167   5.773   5.374   4.712  0.4595  3.4484 -1.6690
  184POPC  H18S21168   5.886   5.283   4.814  1.0309  0.4788  0.0013
  184POPC  H18T21169   5.933   5.436   4.756 -0.9535 -1.3226 -3.9633
  184POPC   C3321170   5.348   4.938   6.300  0.2380 -0.3002  0.3733
  184POPC   H3X21171   5.408   4.857   6.252 -0.9299 -0.7995 -0.2854
  184POPC   H3Y21172   5.403   5.033   6.284  2.6816 -1.7390 -0.2411
  184POPC   C3421173   5.227   4.937   6.221  0.5783 -0.1295  1.0016
  184POPC   H4X21174   5.158   5.003   6.276 -0.0263 -0.7597  1.0079
  184POPC   H4Y21175   5.179   4.837   6.222 -1.1376  0.6685  0.7509
  184POPC   C3521176   5.244   4.983   6.074  0.6786 -0.1464 -0.1790
  184POPC   H5X21177   5.270   5.090   6.062 -0.2827  0.0949 -0.1456
  184POPC   H5Y21178   5.145   4.966   6.027  0.5167 -0.7870  0.3751
  184POPC   C3621179   5.341   4.909   5.982  0.1687  0.2103  0.0117
  184POPC   H6X21180   5.324   4.800   5.994 -2.2666  0.6116  0.5723
  184POPC   H6Y21181   5.443   4.931   6.022 -0.2104  1.4813  0.3304
  184POPC   C3721182   5.337   4.950   5.840 -0.2283 -0.8862  0.8503
  184POPC   H7X21183   5.440   4.952   5.798  0.0440  1.6462  1.4659
  184POPC   H7Y21184   5.297   5.054   5.837 -1.2666 -1.2922 -1.4514
  184POPC   C3821185   5.264   4.857   5.739 -0.0026 -0.1047 -0.4899
  184POPC   H8X21186   5.157   4.886   5.738 -0.1294 -0.5068  0.2846
  184POPC   H8Y21187   5.278   4.751   5.768  1.0305  0.6994  2.2545
  184POPC   C3921188   5.319   4.880   5.604 -0.4740 -0.8809 -0.3815
  184POPC   H9X21189   5.424   4.843   5.594  1.0508  3.3712 -2.3360
  184POPC   H9Y21190   5.333   4.986   5.575  2.0502 -1.0368  0.0066
  184POPC  C31021191   5.233   4.809   5.500 -0.7267 -0.2403 -0.2539
  184POPC  H10X21192   5.132   4.852   5.513 -1.0931 -1.2688  0.3719
  184POPC  H10Y21193   5.241   4.702   5.526  1.5492  0.1271  0.7878
  184POPC  C31121194   5.283   4.812   5.353 -0.2023 -0.1559  0.1693
  184POPC  H11X21195   5.381   4.760   5.342 -0.0341 -0.6435  3.2268
  184POPC  H11Y21196   5.298   4.920   5.333 -0.8604 -0.0652  0.1642
  184POPC  C31221197   5.200   4.751   5.241  0.1466 -0.7330  0.1536
  184POPC  H12X21198   5.113   4.817   5.219  1.1742  0.8140  0.6453
  184POPC  H12Y21199   5.144   4.657   5.264  0.2358 -1.0671 -0.9375
  184POPC  C31321200   5.283   4.723   5.113  0.4013  0.1767 -0.1242
  184POPC  H13X21201   5.381   4.674   5.134  0.0275 -1.2621 -1.5669
  184POPC  H13Y21202   5.322   4.819   5.073  1.0752  0.3816  0.9907
  184POPC  C31421203   5.200   4.646   5.011 -0.1122 -0.3918 -0.8365
  184POPC  H14X21204   5.114   4.710   4.981  0.9501  0.5193 -2.0393
  184POPC  H14Y21205   5.181   4.543   5.046  1.6420 -1.1922 -2.1171
  184POPC  C31521206   5.284   4.632   4.886 -0.3284 -0.0426  0.6861
  184POPC  H15X21207   5.257   4.541   4.829  0.5513  1.4927 -2.4525
  184POPC  H15Y21208   5.387   4.605   4.919 -0.5713 -1.3536  0.3970
  184POPC  C31621209   5.284   4.750   4.789 -0.5312  0.0092 -0.2831
  184POPC  H16X21210   5.310   4.847   4.838  0.5108  0.7370 -2.1602
  184POPC  H16Y21211   5.180   4.760   4.753 -1.2648 -0.3011  1.6120
  184POPC  H16Z21212   5.341   4.743   4.694 -0.1936 -1.4831  0.0138
  185POPC     N21213   2.564   3.469   2.183  1.4009  0.3548  0.1816
  185POPC   C1221214   2.540   3.562   2.298 -0.4313 -0.0010  0.2875
  185POPC  H12A21215   2.495   3.655   2.265  0.9876  0.6832  0.1917
  185POPC  H12B21216   2.635   3.593   2.340 -0.1392  1.3018 -1.2598
  185POPC   C1321217   2.656   3.359   2.232 -0.2077  0.1307 -0.0202
  185POPC  H13A21218   2.600   3.317   2.314  0.5453 -1.5692 -0.3201
  185POPC  H13B21219   2.670   3.289   2.150  0.6972  0.9661 -0.5893
  185POPC  H13C21220   2.753   3.389   2.266 -0.2933 -0.8840  1.2161
  185POPC   C1421221   2.427   3.416   2.138  0.5650  0.3089  0.3832
  185POPC  H14A21222   2.446   3.330   2.075  1.6784  0.3117  0.6967
  185POPC  H14B21223   2.368   3.384   2.222 -1.9950  1.7218 -0.7416
  185POPC  H14C21224   2.366   3.493   2.094  2.1617  0.7511 -1.1819
  185POPC   C1521225   2.627   3.551   2.073  0.6954 -0.4346  0.5296
  185POPC  H15A21226   2.558   3.618   2.025 -1.5651 -2.1642  1.2153
  185POPC  H15B21227   2.649   3.487   1.989 -0.9163 -0.6659  0.2600
  185POPC  H15C21228   2.718   3.601   2.102  0.7198  0.2474 -0.6517
  185POPC   C1121229   2.448   3.510   2.407  0.5955 -0.5449 -0.9005
  185POPC  H11A21230   2.341   3.492   2.383  1.0414 -2.0800 -1.8340
  185POPC  H11B21231   2.445   3.598   2.475 -0.5025  0.5411 -2.2806
  185POPC     P21232   2.550   3.396   2.622 -0.1324 -0.0970  0.4000
  185POPC   O1321233   2.693   3.439   2.618  0.0881 -0.1987 -0.0075
  185POPC   O1421234   2.533   3.260   2.672  0.3341 -0.3124 -0.2294
  185POPC   O1221235   2.501   3.397   2.472 -0.0772  0.2683  0.6122
  185POPC   O1121236   2.464   3.506   2.698  0.6266  0.2680 -0.3778
  185POPC    C121237   2.333   3.486   2.761  0.0403  0.1949 -0.0946
  185POPC    HA21238   2.294   3.382   2.749 -0.3121  0.3155 -0.0001
  185POPC    HB21239   2.261   3.546   2.701  0.5090  1.2807  0.4115
  185POPC    C221240   2.335   3.532   2.908 -0.4772 -0.1864 -0.8886
  185POPC    HS21241   2.234   3.534   2.954  0.2232 -1.0434  0.7304
  185POPC   O2121242   2.403   3.660   2.924  0.5537 -0.3159 -0.1521
  185POPC   C2121243   2.318   3.757   2.884  0.4584 -0.3488  0.6500
  185POPC   O2221244   2.200   3.737   2.852 -0.1465  0.0437  0.0062
  185POPC   C2221245   2.388   3.891   2.897  0.0149 -0.3232  0.1546
  185POPC   H2R21246   2.468   3.896   2.821  0.3527 -1.7991  0.3824
  185POPC   H2S21247   2.437   3.877   2.996 -0.8794 -4.5424  0.2112
  185POPC    C321248   2.428   3.434   2.993 -0.3828  0.5997  0.0037
  185POPC    HX21249   2.520   3.432   2.931 -0.6302  1.2195 -0.3883
  185POPC    HY21250   2.385   3.332   2.997 -1.1290  0.9345  0.8610
  185POPC   O3121251   2.442   3.465   3.135 -0.4539  0.2436 -0.0374
  185POPC   C3121252   2.563   3.508   3.177 -1.1937  0.0734  0.7875
  185POPC   O3221253   2.668   3.492   3.110 -0.2978 -0.2339 -0.2883
  185POPC   C3221254   2.555   3.564   3.320 -0.7554  0.1719 -0.4320
  185POPC   H2X21255   2.503   3.491   3.385 -0.4501  1.6346  1.5150
  185POPC   H2Y21256   2.485   3.648   3.303 -3.4587 -2.3545 -3.1597
  185POPC   C2321257   2.285   4.012   2.893 -0.3034 -0.0221 -0.4925
  185POPC   H3R21258   2.220   4.010   2.802  0.5492  1.3834 -1.1724
  185POPC   H3S21259   2.339   4.107   2.876 -2.8000  1.6368  0.3161
  185POPC   C2421260   2.191   4.018   3.009 -0.2923  0.3334 -0.4813
  185POPC   H4R21261   2.235   3.992   3.108 -0.0479  1.7377 -0.1928
  185POPC   H4S21262   2.110   3.943   3.001 -0.0417 -0.0274  0.2413
  185POPC   C2521263   2.134   4.159   3.021 -0.2072  0.1416 -0.3761
  185POPC   H5R21264   2.117   4.196   2.918  0.6608  0.9227 -0.2569
  185POPC   H5S21265   2.219   4.224   3.051 -0.2318  1.3916 -2.7486
  185POPC   C2621266   2.017   4.186   3.113  0.3849  0.1417  0.0124
  185POPC   H6R21267   1.929   4.127   3.080  0.7428  0.5082 -1.7025
  185POPC   H6S21268   2.003   4.296   3.103 -1.5125 -0.0419  0.2090
  185POPC   C2721269   2.050   4.166   3.255 -0.3447 -0.1714  0.0163
  185POPC   H7R21270   2.131   4.237   3.280 -1.4641  0.7398  1.2060
  185POPC   H7S21271   2.078   4.058   3.255  0.0308 -0.0766 -0.5448
  185POPC   C2821272   1.930   4.183   3.350  0.2953 -0.7303  0.0844
  185POPC   H8R21273   1.963   4.129   3.441  0.7529 -0.0650  0.3226
  185POPC   H8S21274   1.844   4.125   3.312 -1.9498  2.3158  0.1077
  185POPC   C2921275   1.879   4.322   3.379 -0.2410 -0.4238  0.8252
  185POPC   H9121276   1.836   4.367   3.288  3.1887  2.1289  0.2484
  185POPC  C21021277   1.898   4.404   3.483 -0.0255 -0.8585 -0.0598
  185POPC  H10121278   1.859   4.507   3.477  1.4798 -0.2409  0.4323
  185POPC  C21121279   1.972   4.371   3.609 -0.0785  0.6725 -0.4241
  185POPC  H11R21280   2.000   4.462   3.665  0.2776 -0.7435  1.8139
  185POPC  H11S21281   2.068   4.320   3.585 -0.0306  0.2471  0.6165
  185POPC  C21221282   1.901   4.293   3.717  0.8656 -0.0688 -0.3239
  185POPC  H12R21283   1.872   4.191   3.685 -1.5050  0.1674  0.8374
  185POPC  H12S21284   1.805   4.343   3.741 -0.4345 -1.8104 -1.6355
  185POPC  C21321285   1.993   4.277   3.837 -0.7938  0.5797  1.0344
  185POPC  H13R21286   2.024   4.375   3.879  0.9194  0.2960  0.4799
  185POPC  H13S21287   2.082   4.221   3.803 -0.0438  2.0544  0.4993
  185POPC  C21421288   1.918   4.206   3.953  0.0743  0.1728  0.2042
  185POPC  H14R21289   1.880   4.105   3.923 -0.2233 -0.1872  1.7298
  185POPC  H14S21290   1.831   4.267   3.985 -0.7277 -0.7588 -0.1434
  185POPC  C21521291   2.013   4.162   4.072 -0.3221 -0.4576 -0.2366
  185POPC  H15R21292   2.053   4.260   4.107 -0.1723  0.3231 -2.4374
  185POPC  H15S21293   2.091   4.097   4.027 -0.4987 -1.4343  0.8237
  185POPC  C21621294   1.926   4.103   4.189 -0.4623 -0.8287  0.3560
  185POPC  H16R21295   1.858   4.029   4.140 -1.1990 -0.7518  1.2329
  185POPC  H16S21296   1.871   4.182   4.245  0.7140  1.2943 -1.3168
  185POPC  C21721297   2.026   4.045   4.293  0.2141  0.6382 -0.0865
  185POPC  H17R21298   2.068   3.948   4.260 -2.6191 -1.6615  2.3920
  185POPC  H17S21299   1.960   4.011   4.377 -0.7252 -1.0205 -1.4459
  185POPC  C21821300   2.132   4.135   4.346  0.5602 -0.6443  0.5924
  185POPC  H18R21301   2.205   4.164   4.269 -1.1935  0.9685 -0.5317
  185POPC  H18S21302   2.185   4.098   4.437 -0.0497  0.0207  1.2327
  185POPC  H18T21303   2.095   4.235   4.377  1.4880 -0.1704  0.1829
  185POPC   C3321304   2.697   3.598   3.384  0.0609 -0.2064 -0.0673
  185POPC   H3X21305   2.760   3.507   3.371 -0.2142 -0.7098  1.9218
  185POPC   H3Y21306   2.691   3.615   3.493 -1.2698  2.4167 -0.4615
  185POPC   C3421307   2.757   3.726   3.324 -0.3286 -0.2335  0.0072
  185POPC   H4X21308   2.719   3.752   3.223 -1.0458 -2.6187 -0.3954
  185POPC   H4Y21309   2.864   3.702   3.305 -0.5617 -0.2096 -1.4040
  185POPC   C3521310   2.760   3.856   3.417 -0.5512  0.0521 -0.1827
  185POPC   H5X21311   2.654   3.889   3.419 -0.4882  0.3676 -1.3265
  185POPC   H5Y21312   2.820   3.926   3.355  0.4049 -2.5372 -2.3995
  185POPC   C3621313   2.820   3.830   3.558  0.3804 -1.1528 -0.0932
  185POPC   H6X21314   2.916   3.776   3.544  0.8551  0.0483 -1.8009
  185POPC   H6Y21315   2.753   3.766   3.619  0.0977 -0.8469 -0.0766
  185POPC   C3721316   2.843   3.964   3.642  0.3411  0.3398  0.4950
  185POPC   H7X21317   2.745   4.008   3.672  0.1121 -0.7801  1.4562
  185POPC   H7Y21318   2.900   4.033   3.575  3.0780 -1.1136  1.1720
  185POPC   C3821319   2.929   3.930   3.767 -0.7961 -0.2747  0.4739
  185POPC   H8X21320   3.034   3.910   3.738 -0.8882  0.2270 -0.2497
  185POPC   H8Y21321   2.898   3.831   3.806 -0.9688 -0.2014  0.5263
  185POPC   C3921322   2.932   4.051   3.864 -0.6853  0.1619  0.4908
  185POPC   H9X21323   2.824   4.060   3.892 -1.2833 -1.4585 -1.1217
  185POPC   H9Y21324   2.972   4.143   3.818  1.3688 -0.6572  0.5491
  185POPC  C31021325   2.997   4.034   3.996  0.0424  0.4043 -0.9190
  185POPC  H10X21326   2.951   3.955   4.060  1.8113  0.7847  0.9242
  185POPC  H10Y21327   2.977   4.128   4.051 -2.0756 -0.4513 -0.1202
  185POPC  C31121328   3.146   4.013   3.998 -0.2865  0.0733  0.7065
  185POPC  H11X21329   3.193   4.093   3.936 -0.1339 -0.2404  0.4156
  185POPC  H11Y21330   3.157   3.912   3.953 -1.4117  0.5516 -0.7304
  185POPC  C31221331   3.202   4.014   4.140  0.6651 -1.0136 -0.6180
  185POPC  H12X21332   3.166   3.938   4.214 -1.5710  2.7347  2.5486
  185POPC  H12Y21333   3.165   4.105   4.191 -0.0949 -2.6641  1.9986
  185POPC  C31321334   3.356   4.012   4.127 -0.0150  0.0825  0.3727
  185POPC  H13X21335   3.392   4.050   4.029  0.1079 -1.1408 -0.0859
  185POPC  H13Y21336   3.372   3.902   4.130  1.3910  0.2838  1.7807
  185POPC  C31421337   3.425   4.078   4.237 -0.4520  0.5119  0.1981
  185POPC  H14X21338   3.400   4.040   4.339 -0.2356 -0.2119 -0.0095
  185POPC  H14Y21339   3.399   4.185   4.246  0.2885  0.6375  1.1382
  185POPC  C31521340   3.577   4.072   4.221  0.0784  0.3645  0.0649
  185POPC  H15X21341   3.615   4.155   4.157  0.9503  1.9544  2.4883
  185POPC  H15Y21342   3.599   3.970   4.182 -1.8241 -0.0536 -0.0267
  185POPC  C31621343   3.655   4.084   4.346 -0.4769 -0.2661  0.0486
  185POPC  H16X21344   3.611   4.014   4.420 -0.8944  0.1548  0.2048
  185POPC  H16Y21345   3.639   4.184   4.393  0.1219 -1.5390  3.1641
  185POPC  H16Z21346   3.758   4.055   4.319 -0.5096  1.9308 -3.0094
  186POPC     N21347   5.476   6.321   1.959 -0.1201  0.1816 -0.0205
  186POPC   C1221348   5.529   6.275   2.096 -0.1916 -0.0221 -0.1677
  186POPC  H12A21349   5.585   6.353   2.145 -1.0462 -0.7450  2.1332
  186POPC  H12B21350   5.599   6.193   2.095 -0.1280 -0.2001  3.5470
  186POPC   C1321351   5.591   6.367   1.871  0.2092 -0.4106 -0.0957
  186POPC  H13A21352   5.554   6.415   1.781 -0.3402 -0.3271  0.1722
  186POPC  H13B21353   5.658   6.432   1.925 -0.4031 -1.0327  1.4420
  186POPC  H13C21354   5.653   6.282   1.844  0.9824 -0.7809  2.5873
  186POPC   C1421355   5.408   6.204   1.886  0.2795  0.0708 -0.1292
  186POPC  H14A21356   5.484   6.142   1.840  2.3859 -0.3651  3.5808
  186POPC  H14B21357   5.340   6.159   1.956 -1.9441  0.0833 -2.1412
  186POPC  H14C21358   5.342   6.239   1.807  0.6743  0.7365 -0.1761
  186POPC   C1521359   5.384   6.440   1.969 -0.0745 -0.2116 -0.1488
  186POPC  H15A21360   5.433   6.523   2.019 -1.1284  0.4839 -0.2338
  186POPC  H15B21361   5.300   6.416   2.033  0.0881  1.0272  0.5701
  186POPC  H15C21362   5.353   6.479   1.873  2.3320 -0.6119 -1.1479
  186POPC   C1121363   5.424   6.241   2.200  0.4613  0.3622 -0.3770
  186POPC  H11A21364   5.370   6.334   2.229 -1.4790 -0.9294  0.3231
  186POPC  H11B21365   5.475   6.204   2.292  1.0238 -0.5153 -1.0247
  186POPC     P21366   5.173   6.162   2.190 -0.0256 -0.3716  0.1764
  186POPC   O1321367   5.090   6.049   2.139  0.7871  0.1345  0.1749
  186POPC   O1421368   5.131   6.302   2.152  0.2352  0.4148 -0.5266
  186POPC   O1221369   5.326   6.133   2.158 -0.5170 -0.1858 -0.1111
  186POPC   O1121370   5.174   6.161   2.344  0.5497  0.5060 -0.4186
  186POPC    C121371   5.234   6.066   2.425 -0.3378 -0.3480 -0.3531
  186POPC    HA21372   5.343   6.057   2.411 -0.5246  0.0823 -2.4049
  186POPC    HB21373   5.188   5.965   2.418 -0.5631 -0.5091  2.2979
  186POPC    C221374   5.198   6.088   2.581  0.1359  0.2977 -0.0974
  186POPC    HS21375   5.089   6.069   2.593 -0.0135  1.1004 -0.1749
  186POPC   O2121376   5.237   6.220   2.630  0.3497  0.2897 -0.0141
  186POPC   C2121377   5.135   6.314   2.613  0.2852  0.4815  0.3745
  186POPC   O2221378   5.025   6.292   2.576  0.0959 -0.2719 -0.1951
  186POPC   C2221379   5.190   6.451   2.649  0.2155 -0.4498 -0.3827
  186POPC   H2R21380   5.162   6.525   2.571 -0.8122  0.3925  0.7377
  186POPC   H2S21381   5.299   6.442   2.667 -0.2871  0.3721  4.3516
  186POPC    C321382   5.263   5.980   2.668  0.7271  0.0862  0.0724
  186POPC    HX21383   5.371   5.974   2.642  0.7025 -0.2502  0.0533
  186POPC    HY21384   5.214   5.885   2.638 -1.5601  0.3561  2.5553
  186POPC   O3121385   5.236   6.005   2.805 -0.0513  0.2444 -0.7470
  186POPC   C3121386   5.342   6.017   2.889  0.6058  0.8736 -0.0025
  186POPC   O3221387   5.459   5.997   2.865  0.4236  0.3278 -0.2797
  186POPC   C3221388   5.286   6.058   3.031  0.3921  0.0963 -0.0433
  186POPC   H2X21389   5.231   5.973   3.077  0.2461  1.2063  1.9399
  186POPC   H2Y21390   5.221   6.148   3.025  0.3450  0.1796  1.3650
  186POPC   C2321391   5.118   6.499   2.777  0.1228 -0.0376 -0.0375
  186POPC   H3R21392   5.014   6.517   2.742 -0.6284 -2.0846  0.9618
  186POPC   H3S21393   5.153   6.603   2.793 -2.4522  0.6105  2.2711
  186POPC   C2421394   5.128   6.410   2.904  0.6367 -0.3806 -0.0787
  186POPC   H4R21395   5.226   6.357   2.904  0.5007 -0.6326 -0.1842
  186POPC   H4S21396   5.057   6.326   2.889 -0.0406  0.4844 -2.0019
  186POPC   C2521397   5.100   6.481   3.038  0.5777  0.4143 -0.2718
  186POPC   H5R21398   5.029   6.566   3.029 -0.2646 -0.3400 -0.9030
  186POPC   H5S21399   5.194   6.528   3.073 -0.2293  1.2978  0.7851
  186POPC   C2621400   5.053   6.380   3.149  0.6504 -0.2018  0.0761
  186POPC   H6R21401   5.140   6.317   3.175  1.8708  1.5992  0.5584
  186POPC   H6S21402   4.967   6.328   3.101  2.1566 -1.1628 -1.6838
  186POPC   C2721403   4.996   6.459   3.269  0.3123  0.3540  0.6354
  186POPC   H7R21404   4.903   6.506   3.229 -1.0445 -1.7378  1.0982
  186POPC   H7S21405   5.071   6.539   3.283 -1.7274  2.1618  1.9838
  186POPC   C2821406   4.960   6.374   3.393  0.8005 -0.1979 -0.6464
  186POPC   H8R21407   4.913   6.275   3.378  0.9577 -0.9793  2.9715
  186POPC   H8S21408   4.883   6.438   3.442  0.3667  0.1675 -1.7824
  186POPC   C2921409   5.067   6.348   3.491  0.9149  0.1816  0.1861
  186POPC   H9121410   5.144   6.282   3.448 -0.1868 -0.2480 -1.1839
  186POPC  C21021411   5.080   6.405   3.609  0.3145 -0.1766 -0.2463
  186POPC  H10121412   5.165   6.370   3.669 -1.9488 -1.6128  2.3434
  186POPC  C21121413   4.987   6.503   3.681 -0.2713 -0.0955  0.1476
  186POPC  H11R21414   4.882   6.465   3.683 -0.5997  0.7501 -0.4874
  186POPC  H11S21415   4.985   6.603   3.633 -0.3866 -0.9070 -1.6116
  186POPC  C21221416   5.049   6.529   3.815  0.5145  0.1239 -0.5881
  186POPC  H12R21417   5.148   6.579   3.807  0.6454  0.5427  2.5907
  186POPC  H12S21418   5.062   6.438   3.878 -0.4454 -0.8353 -1.7208
  186POPC  C21321419   4.947   6.615   3.901 -0.0480  0.0611  0.3700
  186POPC  H13R21420   4.849   6.561   3.905 -0.0241 -0.0314 -0.2902
  186POPC  H13S21421   4.948   6.711   3.846  0.3030 -0.6431 -0.8912
  186POPC  C21421422   4.995   6.651   4.047  0.1529  0.2866  0.3137
  186POPC  H14R21423   4.926   6.733   4.074  1.1707  1.3648 -0.2916
  186POPC  H14S21424   5.093   6.703   4.040  1.9963 -3.0888 -1.8323
  186POPC  C21521425   5.003   6.531   4.147 -0.0234 -0.0090  0.4361
  186POPC  H15R21426   5.082   6.457   4.123  0.5721  0.1398  1.8751
  186POPC  H15S21427   4.907   6.480   4.124 -0.8478  2.1548 -1.2909
  186POPC  C21621428   5.023   6.579   4.282  0.2541 -0.3246 -0.0108
  186POPC  H16R21429   4.931   6.622   4.328  0.0329 -0.2069 -0.5588
  186POPC  H16S21430   5.111   6.647   4.289  0.5026 -0.6314 -0.1128
  186POPC  C21721431   5.056   6.461   4.373  0.4462  0.1724  0.2713
  186POPC  H17R21432   5.136   6.391   4.341 -0.2504 -0.4437 -0.1581
  186POPC  H17S21433   4.964   6.397   4.379  1.1951 -0.8255  2.3307
  186POPC  C21821434   5.087   6.493   4.518 -0.5000 -0.5976  0.1534
  186POPC  H18R21435   5.008   6.553   4.568  0.6040  0.1081  1.0915
  186POPC  H18S21436   5.104   6.397   4.572  0.1051 -0.7429 -0.2908
  186POPC  H18T21437   5.176   6.559   4.518 -0.7253 -0.2429 -1.5673
  186POPC   C3321438   5.401   6.074   3.135 -0.3175 -0.4786  0.0312
  186POPC   H3X21439   5.454   6.166   3.104 -3.0501  0.4625 -2.2068
  186POPC   H3Y21440   5.471   5.987   3.137 -0.4192 -0.5873 -0.7460
  186POPC   C3421441   5.353   6.091   3.282  0.3240 -0.4394  0.2983
  186POPC   H4X21442   5.293   6.002   3.310 -1.0987  0.5979  0.6290
  186POPC   H4Y21443   5.283   6.176   3.274  0.7858 -0.1465 -0.7159
  186POPC   C3521444   5.468   6.123   3.377 -0.6496 -0.1676 -0.1260
  186POPC   H5X21445   5.533   6.207   3.344  0.7901 -0.5776  1.5101
  186POPC   H5Y21446   5.535   6.034   3.372  0.4091  0.5299  0.9956
  186POPC   C3621447   5.420   6.141   3.521  0.7339 -0.3300  0.1237
  186POPC   H6X21448   5.357   6.052   3.545 -1.1868  0.8585 -0.3446
  186POPC   H6Y21449   5.351   6.228   3.529  0.1320 -0.6739 -1.1793
  186POPC   C3721450   5.535   6.134   3.622  0.8304  0.3662  0.5890
  186POPC   H7X21451   5.576   6.237   3.622  2.8413 -0.3493 -1.5506
  186POPC   H7Y21452   5.613   6.067   3.580 -0.7483  0.0181 -2.0146
  186POPC   C3821453   5.487   6.087   3.762 -0.4993 -0.0370 -0.6648
  186POPC   H8X21454   5.565   6.092   3.842 -1.9337  0.8620  0.7518
  186POPC   H8Y21455   5.460   5.980   3.752  0.0428 -0.1133 -1.3424
  186POPC   C3921456   5.362   6.163   3.812  0.3769 -0.6752  0.0738
  186POPC   H9X21457   5.279   6.125   3.749  0.8714 -0.6804 -0.5874
  186POPC   H9Y21458   5.378   6.271   3.789 -0.5206 -0.2729  1.2634
  186POPC  C31021459   5.346   6.152   3.964  0.0520 -0.4479  0.2991
  186POPC  H10X21460   5.429   6.199   4.022 -0.7290  1.4411 -0.0349
  186POPC  H10Y21461   5.363   6.046   3.994  1.0607 -1.4855 -3.4154
  186POPC  C31121462   5.212   6.198   4.021  0.3521 -0.2220  0.0253
  186POPC  H11X21463   5.144   6.142   3.954  0.7281  0.5308 -1.0166
  186POPC  H11Y21464   5.196   6.308   4.020  0.4233 -0.2097  0.1697
  186POPC  C31221465   5.189   6.167   4.170 -0.5819 -0.0624 -0.3514
  186POPC  H12X21466   5.086   6.201   4.190 -1.1343 -0.1979 -2.6467
  186POPC  H12Y21467   5.254   6.238   4.225 -2.1866 -0.1707  1.7950
  186POPC  C31321468   5.212   6.016   4.225  0.2356  0.1209 -0.4056
  186POPC  H13X21469   5.188   6.015   4.333  0.3539  0.3475 -0.3771
  186POPC  H13Y21470   5.319   5.993   4.209 -0.1146 -1.4366 -0.7606
  186POPC  C31421471   5.132   5.910   4.146  0.2485 -0.1263  0.5284
  186POPC  H14X21472   5.182   5.881   4.051  0.9999  3.0901 -0.1616
  186POPC  H14Y21473   5.036   5.957   4.118  1.8246  1.1272 -3.3704
  186POPC  C31521474   5.121   5.779   4.215 -1.1077  0.4961  0.0948
  186POPC  H15X21475   5.091   5.705   4.137  0.7220  0.1958 -0.3849
  186POPC  H15Y21476   5.042   5.783   4.292 -0.3351 -0.4021  0.9668
  186POPC  C31621477   5.259   5.742   4.282 -0.1509  0.2666 -0.2300
  186POPC  H16X21478   5.259   5.635   4.310 -0.2837  0.1219 -0.7580
  186POPC  H16Y21479   5.264   5.793   4.380 -1.7876 -0.4983  0.2708
  186POPC  H16Z21480   5.344   5.762   4.213 -1.9025  1.7489 -2.0744
  187POPC     N21481   2.807   2.247   2.647 -0.1032 -0.0387 -0.0437
  187POPC   C1221482   2.661   2.215   2.610  0.6805 -0.2850 -0.3365
  187POPC  H12A21483   2.625   2.133   2.670 -3.5744 -0.2503 -2.4573
  187POPC  H12B21484   2.653   2.176   2.509 -1.1163 -0.3029 -0.2281
  187POPC   C1321485   2.875   2.340   2.553  0.1504 -0.3048  0.2204
  187POPC  H13A21486   2.979   2.346   2.583  0.3460 -0.6094 -0.3834
  187POPC  H13B21487   2.866   2.301   2.453 -0.5858  0.7963 -0.1567
  187POPC  H13C21488   2.825   2.434   2.572  0.4937 -0.4805  2.2725
  187POPC   C1421489   2.811   2.297   2.787 -0.8405  0.0393  0.6079
  187POPC  H14A21490   2.908   2.322   2.826 -1.3698 -0.9251  2.6883
  187POPC  H14B21491   2.757   2.390   2.796 -0.8100  0.0026  1.2428
  187POPC  H14C21492   2.771   2.223   2.855  0.3346  0.9296  2.3385
  187POPC   C1521493   2.889   2.121   2.643 -0.4065  0.4306 -1.1338
  187POPC  H15A21494   2.877   2.076   2.546 -0.1414 -0.1341 -0.9125
  187POPC  H15B21495   2.868   2.048   2.720  1.1656  1.5590  0.4574
  187POPC  H15C21496   2.991   2.145   2.667 -0.9137  1.1870  0.3961
  187POPC   C1121497   2.546   2.327   2.610 -0.6071 -0.1669  0.4494
  187POPC  H11A21498   2.456   2.263   2.621 -0.7451  0.0898  0.8245
  187POPC  H11B21499   2.551   2.373   2.509  0.5822 -1.4243 -0.1043
  187POPC     P21500   2.476   2.535   2.760 -0.1364  0.3482  0.0178
  187POPC   O1321501   2.329   2.502   2.738  0.4504  0.5311  0.2278
  187POPC   O1421502   2.535   2.643   2.686  0.3883  0.6106 -0.5540
  187POPC   O1221503   2.566   2.414   2.721  0.5388 -0.4018 -0.3923
  187POPC   O1121504   2.500   2.550   2.918 -0.7274  0.6231  0.6258
  187POPC    C121505   2.498   2.440   3.008 -0.1613  0.5383  0.1826
  187POPC    HA21506   2.600   2.440   3.053  0.0757 -0.1343 -0.3288
  187POPC    HB21507   2.492   2.341   2.958 -2.6125  0.7454 -0.0536
  187POPC    C221508   2.391   2.446   3.115  0.3761  0.6156  0.8734
  187POPC    HS21509   2.293   2.460   3.063  1.8389  0.0588 -2.3066
  187POPC   O2121510   2.430   2.553   3.208 -0.3384 -0.2787 -0.2547
  187POPC   C2121511   2.336   2.593   3.286  0.4872  0.6616 -0.6975
  187POPC   O2221512   2.216   2.572   3.262  0.3175 -0.7056 -0.1583
  187POPC   C2221513   2.396   2.670   3.404 -0.3007  0.6784 -0.0471
  187POPC   H2R21514   2.324   2.753   3.420 -1.9183 -0.7503  0.4687
  187POPC   H2S21515   2.499   2.705   3.384  0.1463 -0.7190 -0.3012
  187POPC    C321516   2.383   2.315   3.192 -0.2311  0.5608  0.1417
  187POPC    HX21517   2.351   2.233   3.124  0.0239 -1.9171  2.8245
  187POPC    HY21518   2.302   2.333   3.267 -1.7371  2.2466 -1.7599
  187POPC   O3121519   2.518   2.289   3.255  0.0297  0.6523  0.0242
  187POPC   C3121520   2.510   2.235   3.367 -0.3433  0.4573 -0.3114
  187POPC   O3221521   2.416   2.193   3.433  0.5207  0.4358 -0.6762
  187POPC   C3221522   2.656   2.208   3.407 -0.1950  0.0095 -0.0197
  187POPC   H2X21523   2.700   2.147   3.325  1.1568  0.8981  0.0185
  187POPC   H2Y21524   2.661   2.142   3.497 -2.1808 -1.3906 -0.8394
  187POPC   C2321525   2.384   2.591   3.532  0.2648 -0.1058 -0.0324
  187POPC   H3R21526   2.421   2.486   3.540  3.2934  0.9347  0.6167
  187POPC   H3S21527   2.276   2.565   3.543  0.4533 -0.9744 -0.1212
  187POPC   C2421528   2.439   2.680   3.645  0.2195  0.0463  0.2152
  187POPC   H4R21529   2.378   2.772   3.650 -0.8508 -0.5616 -1.0341
  187POPC   H4S21530   2.548   2.699   3.636  0.3914 -1.3968 -1.5554
  187POPC   C2521531   2.424   2.605   3.780 -0.3925 -0.1202 -0.7210
  187POPC   H5R21532   2.489   2.515   3.770  0.5344  0.5977 -1.3409
  187POPC   H5S21533   2.322   2.563   3.788 -1.1669  1.5348 -1.4788
  187POPC   C2621534   2.483   2.687   3.895  0.1688  0.3317  0.2540
  187POPC   H6R21535   2.418   2.774   3.918 -0.4003  0.6026 -2.1125
  187POPC   H6S21536   2.588   2.708   3.865  0.4248 -0.5903  0.4713
  187POPC   C2721537   2.490   2.592   4.024  0.4546 -0.2582 -0.2337
  187POPC   H7R21538   2.499   2.490   3.979  1.6174 -0.4421  0.3729
  187POPC   H7S21539   2.395   2.595   4.081  1.2692 -3.4755  1.5562
  187POPC   C2821540   2.616   2.612   4.116  0.0742  0.4081  0.1383
  187POPC   H8R21541   2.633   2.721   4.127  3.7760 -0.1504  1.5680
  187POPC   H8S21542   2.702   2.586   4.050  0.4189  2.1691 -0.1452
  187POPC   C2921543   2.623   2.523   4.242 -0.1250  0.2240  0.4743
  187POPC   H9121544   2.650   2.417   4.225  1.2541  0.6262  0.0643
  187POPC  C21021545   2.612   2.557   4.373  0.1314  0.4738  1.0717
  187POPC  H10121546   2.619   2.471   4.442 -1.3478 -1.4828 -1.0435
  187POPC  C21121547   2.565   2.691   4.422  0.0436 -0.1052 -0.4739
  187POPC  H11R21548   2.525   2.750   4.337 -0.5835 -0.4774 -0.4450
  187POPC  H11S21549   2.651   2.746   4.467  0.5463 -0.9297 -0.3902
  187POPC  C21221550   2.458   2.675   4.535  0.3867 -0.8957  0.1741
  187POPC  H12R21551   2.368   2.622   4.499  0.8659 -1.7488  0.2038
  187POPC  H12S21552   2.417   2.776   4.558  3.7391  0.8005 -0.5590
  187POPC  C21321553   2.507   2.605   4.667  0.1761 -0.5846  0.0590
  187POPC  H13R21554   2.603   2.658   4.684 -0.3363  0.8351 -1.1750
  187POPC  H13S21555   2.522   2.498   4.642  0.5624 -0.4442 -0.3321
  187POPC  C21421556   2.405   2.615   4.782 -0.1531 -0.0293 -0.1572
  187POPC  H14R21557   2.409   2.537   4.861 -1.4855 -0.1609 -0.1853
  187POPC  H14S21558   2.304   2.594   4.740 -1.1142 -1.0702  2.4275
  187POPC  C21521559   2.410   2.750   4.852 -0.6320  0.3213 -0.0166
  187POPC  H15R21560   2.310   2.797   4.841 -0.4386  0.7277 -0.0334
  187POPC  H15S21561   2.482   2.822   4.809  0.0175 -1.7223 -2.6399
  187POPC  C21621562   2.441   2.725   4.999  0.7723  0.0816 -0.2084
  187POPC  H16R21563   2.537   2.669   4.998  1.3839  1.0727  0.8402
  187POPC  H16S21564   2.355   2.675   5.047  0.6223  2.4127  2.2172
  187POPC  C21721565   2.470   2.854   5.079 -0.1225  0.0958  0.2464
  187POPC  H17R21566   2.405   2.942   5.059  2.6704  2.4377  0.7361
  187POPC  H17S21567   2.577   2.878   5.061  0.1413 -0.8071  0.5409
  187POPC  C21821568   2.442   2.846   5.232  0.1916 -0.5043 -0.0231
  187POPC  H18R21569   2.454   2.947   5.276 -1.0148 -0.0947 -0.5832
  187POPC  H18S21570   2.514   2.779   5.285  0.9871 -0.5660 -1.1504
  187POPC  H18T21571   2.338   2.815   5.258 -0.5205 -0.2743 -2.3931
  187POPC   C3321572   2.741   2.328   3.442 -0.3279 -0.8386 -0.1933
  187POPC   H3X21573   2.704   2.410   3.377  0.6318 -0.6423 -0.5104
  187POPC   H3Y21574   2.846   2.310   3.410 -0.0925 -0.0550  0.1181
  187POPC   C3421575   2.721   2.373   3.586 -0.5187 -0.1227 -0.6417
  187POPC   H4X21576   2.614   2.359   3.612 -0.6358  1.4886 -0.1630
  187POPC   H4Y21577   2.736   2.483   3.587  0.9580 -0.3045 -0.6960
  187POPC   C3521578   2.807   2.307   3.697  0.3891 -0.5156  0.7142
  187POPC   H5X21579   2.914   2.338   3.692 -0.1255  1.7747  2.2134
  187POPC   H5Y21580   2.774   2.201   3.705 -2.0101  0.1137 -0.0124
  187POPC   C3621581   2.769   2.368   3.838  0.2867 -0.6339  1.0804
  187POPC   H6X21582   2.659   2.362   3.852  0.4446 -1.4730  2.1087
  187POPC   H6Y21583   2.805   2.471   3.856 -0.8060 -0.3818  1.9134
  187POPC   C3721584   2.822   2.275   3.944 -0.3663  0.5235  0.0663
  187POPC   H7X21585   2.778   2.173   3.941  2.5465 -0.8106 -1.8413
  187POPC   H7Y21586   2.802   2.312   4.047  1.0388 -0.6165  0.7686
  187POPC   C3821587   2.974   2.258   3.955  0.4780 -1.1846  0.5383
  187POPC   H8X21588   3.029   2.349   3.924 -1.0092  0.6780  3.0010
  187POPC   H8Y21589   3.011   2.185   3.880 -0.3940 -1.0778 -0.0145
  187POPC   C3921590   3.007   2.206   4.091 -0.6636 -1.1205 -0.3969
  187POPC   H9X21591   2.972   2.102   4.102  0.0518 -1.1645  2.0890
  187POPC   H9Y21592   2.962   2.272   4.168  0.5961 -2.0697  1.2215
  187POPC  C31021593   3.162   2.214   4.128  0.6703 -0.1371  0.6339
  187POPC  H10X21594   3.192   2.319   4.144  0.0416 -0.2851  3.2144
  187POPC  H10Y21595   3.224   2.171   4.046 -1.5257 -1.5357 -0.4007
  187POPC  C31121596   3.197   2.133   4.259  0.5725  0.0860  0.3056
  187POPC  H11X21597   3.168   2.026   4.249 -0.9599  0.6215 -1.4535
  187POPC  H11Y21598   3.121   2.178   4.326 -1.6705 -0.6555 -1.5969
  187POPC  C31221599   3.337   2.156   4.318  0.8991  0.0022 -0.3360
  187POPC  H12X21600   3.343   2.266   4.331  0.2454 -0.1049  1.0710
  187POPC  H12Y21601   3.408   2.126   4.238  0.4143 -0.8167 -0.4689
  187POPC  C31321602   3.367   2.100   4.460  0.0649  0.7537  0.4014
  187POPC  H13X21603   3.270   2.088   4.513 -2.4104  2.1017 -3.3668
  187POPC  H13Y21604   3.425   2.181   4.510  0.3274  1.0290 -0.3320
  187POPC  C31421605   3.427   1.957   4.456  0.1196 -0.1562  0.1137
  187POPC  H14X21606   3.371   1.886   4.391  2.1099 -1.3221 -0.4204
  187POPC  H14Y21607   3.444   1.915   4.557  3.2988  1.2178  0.2605
  187POPC  C31521608   3.573   1.958   4.406 -0.0316 -0.8760 -0.5844
  187POPC  H15X21609   3.573   2.014   4.310  1.2985  2.4725  1.2135
  187POPC  H15Y21610   3.605   1.853   4.391 -2.0748 -2.0573  2.4350
  187POPC  C31621611   3.688   2.004   4.489 -0.0937  0.5699 -0.7255
  187POPC  H16X21612   3.694   1.939   4.578  0.1173  0.8901 -0.5031
  187POPC  H16Y21613   3.675   2.109   4.523 -1.9587 -0.1294  0.8931
  187POPC  H16Z21614   3.781   1.992   4.428 -1.1029  2.2737 -2.7357
  188POPC     N21615   5.666   4.164   1.930  0.2560  0.5544 -0.3429
  188POPC   C1221616   5.625   4.106   2.067 -0.1203  0.1433 -0.4213
  188POPC  H12A21617   5.563   4.021   2.040 -1.0898  0.4541  0.7317
  188POPC  H12B21618   5.567   4.180   2.121  0.1467  0.2324 -0.2588
  188POPC   C1321619   5.745   4.289   1.943 -0.3938  0.3882  0.3570
  188POPC  H13A21620   5.818   4.279   2.022  0.2641 -1.7937 -0.4606
  188POPC  H13B21621   5.796   4.305   1.849 -1.2697 -1.6842 -0.5022
  188POPC  H13C21622   5.697   4.385   1.959 -1.5424 -0.3647  1.6796
  188POPC   C1421623   5.737   4.063   1.854 -0.4567 -0.5777 -0.0183
  188POPC  H14A21624   5.765   4.097   1.755 -1.8950  1.3020  0.1661
  188POPC  H14B21625   5.822   4.037   1.915 -0.4978  1.7910  1.1586
  188POPC  H14C21626   5.679   3.971   1.844 -1.0576 -0.3311  1.0824
  188POPC   C1521627   5.549   4.203   1.850  0.0381  0.5018  0.3716
  188POPC  H15A21628   5.497   4.291   1.886  0.9239  1.3241 -0.2841
  188POPC  H15B21629   5.479   4.123   1.866  1.1211 -0.8597 -1.2961
  188POPC  H15C21630   5.561   4.214   1.743  0.6446 -0.9711  0.2664
  188POPC   C1121631   5.733   4.056   2.163  0.4871 -0.3012  0.8745
  188POPC  H11A21632   5.800   3.987   2.107 -1.7392 -1.7998 -0.1078
  188POPC  H11B21633   5.689   3.993   2.243  0.6965  0.2454  1.4288
  188POPC     P21634   5.765   4.245   2.337  0.2551 -0.5878 -0.6222
  188POPC   O1321635   5.615   4.240   2.350  0.0971 -0.2947  0.8864
  188POPC   O1421636   5.826   4.385   2.315  0.4098 -0.3672  0.2835
  188POPC   O1221637   5.816   4.154   2.218 -0.0780 -0.4461 -0.0625
  188POPC   O1121638   5.842   4.167   2.453  0.1051  0.2957  0.5775
  188POPC    C121639   5.773   4.054   2.522  0.5072 -0.5172  0.2376
  188POPC    HA21640   5.849   3.985   2.564 -0.6085 -0.5355  2.3556
  188POPC    HB21641   5.704   4.000   2.454  1.1403  0.5553 -1.3146
  188POPC    C221642   5.694   4.099   2.648 -0.0120 -1.0383 -0.2334
  188POPC    HS21643   5.594   4.137   2.617  0.2817  1.1895  1.3415
  188POPC   O2121644   5.764   4.191   2.729 -0.3555 -0.3671  0.1811
  188POPC   C2121645   5.728   4.316   2.731  0.2556  0.3411 -0.3672
  188POPC   O2221646   5.633   4.367   2.681 -0.3604  0.0131  0.5201
  188POPC   C2221647   5.834   4.398   2.813 -0.5234 -0.3233 -0.1951
  188POPC   H2R21648   5.778   4.489   2.844  2.1649  1.0858  0.9549
  188POPC   H2S21649   5.910   4.412   2.733 -1.5686 -1.2630 -1.3737
  188POPC    C321650   5.671   3.969   2.737  0.4041 -0.0416 -0.1339
  188POPC    HX21651   5.768   3.916   2.743  1.0934  1.2951  1.1582
  188POPC    HY21652   5.604   3.899   2.681  0.4060  0.2405 -0.4921
  188POPC   O3121653   5.631   3.997   2.875 -0.0440  0.0062  0.3942
  188POPC   C3121654   5.505   4.027   2.887 -0.3584 -0.1140  0.9049
  188POPC   O3221655   5.431   4.029   2.787  0.6921  0.9276 -0.0160
  188POPC   C3221656   5.473   4.076   3.026  0.3632 -0.9085  0.4154
  188POPC   H2X21657   5.559   4.124   3.079  0.6298  0.9396 -1.5779
  188POPC   H2Y21658   5.446   3.984   3.082 -1.6925  0.4844  1.8510
  188POPC   C2321659   5.891   4.332   2.946  0.7043 -0.6540 -0.1278
  188POPC   H3R21660   5.996   4.299   2.930  0.5784 -0.3248 -1.8354
  188POPC   H3S21661   5.831   4.242   2.971  0.0679 -0.2766 -0.2677
  188POPC   C2421662   5.883   4.428   3.064  0.5760  0.0675 -0.4307
  188POPC   H4R21663   5.779   4.453   3.095 -0.1170 -1.3335 -1.5074
  188POPC   H4S21664   5.936   4.516   3.023  1.9062 -0.4316  0.1479
  188POPC   C2521665   5.947   4.376   3.195 -0.7412  0.8326  0.2306
  188POPC   H5R21666   6.057   4.376   3.182 -0.6879 -3.8804 -1.2923
  188POPC   H5S21667   5.929   4.267   3.190  0.4293  0.6761 -1.3956
  188POPC   C2621668   5.886   4.440   3.328 -0.5464 -0.2943  0.0295
  188POPC   H6R21669   5.777   4.435   3.309 -0.1105 -3.0929 -2.5911
  188POPC   H6S21670   5.915   4.547   3.337  0.4737 -0.7409  2.7680
  188POPC   C2721671   5.908   4.371   3.460 -0.5494 -0.3370  0.0121
  188POPC   H7R21672   5.874   4.266   3.453 -0.2004 -0.5216  0.9647
  188POPC   H7S21673   5.847   4.413   3.542 -1.0456 -2.7881  0.9715
  188POPC   C2821674   6.061   4.370   3.496  0.2361  0.2750  0.9116
  188POPC   H8R21675   6.130   4.326   3.421  1.8974  2.3440  1.1392
  188POPC   H8S21676   6.071   4.300   3.581  0.0394 -0.2144  0.5408
  188POPC   C2921677   6.114   4.505   3.533 -0.1444 -0.1632 -0.2514
  188POPC   H9121678   6.145   4.565   3.447 -2.0959  1.5264  0.1465
  188POPC  C21021679   6.139   4.553   3.662 -0.8968  0.3778  0.4983
  188POPC  H10121680   6.180   4.654   3.677 -0.7980  0.1248  2.0692
  188POPC  C21121681   6.117   4.490   3.795 -0.5864  0.1946 -0.5829
  188POPC  H11R21682   6.209   4.476   3.855 -1.0723 -0.6777 -0.0121
  188POPC  H11S21683   6.050   4.402   3.782 -1.8708  1.1422 -0.5797
  188POPC  C21221684   6.032   4.595   3.873  0.0715  0.4034 -0.0019
  188POPC  H12R21685   5.929   4.576   3.835  0.6444  0.8438 -1.9029
  188POPC  H12S21686   6.058   4.701   3.852  0.5064  0.4578  0.7735
  188POPC  C21321687   6.020   4.576   4.023 -0.3679 -0.3264  0.5660
  188POPC  H13R21688   5.966   4.667   4.057  0.0690  0.3653 -0.5155
  188POPC  H13S21689   6.126   4.585   4.055 -0.7465  0.6410  1.6398
  188POPC  C21421690   5.953   4.444   4.070  0.3438  0.1350  0.3335
  188POPC  H14R21691   5.975   4.364   3.996  0.8107  0.3668  0.2180
  188POPC  H14S21692   5.845   4.458   4.053  0.6267  0.3626 -1.4600
  188POPC  C21521693   5.984   4.387   4.211 -0.7262  0.4260  0.2968
  188POPC  H15R21694   5.943   4.452   4.291  1.7398 -1.2851  3.1802
  188POPC  H15S21695   6.093   4.383   4.233 -0.8305  2.0618  1.2200
  188POPC  C21621696   5.928   4.249   4.232  0.4594  0.4115 -0.2520
  188POPC  H16R21697   5.964   4.174   4.159  0.4270 -1.5755  1.6440
  188POPC  H16S21698   5.818   4.259   4.220  0.1253  0.4030  2.1788
  188POPC  C21721699   5.952   4.201   4.371  0.0962 -0.4519 -1.1708
  188POPC  H17R21700   5.907   4.274   4.441  1.5271 -1.4094  0.8196
  188POPC  H17S21701   6.058   4.220   4.395 -0.6537 -0.2011  2.5331
  188POPC  C21821702   5.935   4.058   4.410  0.0174  0.1104 -0.3157
  188POPC  H18R21703   5.997   3.997   4.341  0.2682  0.1458 -0.1198
  188POPC  H18S21704   5.831   4.018   4.410  0.4413 -1.0476  0.9832
  188POPC  H18T21705   5.975   4.030   4.510 -0.2230 -1.0264 -0.5309
  188POPC   C3321706   5.340   4.157   3.037 -0.0392  0.2860  0.5875
  188POPC   H3X21707   5.262   4.119   2.968 -0.0847  1.0747  0.1853
  188POPC   H3Y21708   5.348   4.262   3.001  2.3362  0.9649  2.7407
  188POPC   C3421709   5.273   4.152   3.172  0.0860 -0.0875  0.0032
  188POPC   H4X21710   5.251   4.048   3.203  0.3433  0.5361  2.4679
  188POPC   H4Y21711   5.181   4.213   3.176  0.3978  0.4914 -1.1714
  188POPC   C3521712   5.348   4.210   3.286 -0.2990 -0.3554  0.5331
  188POPC   H5X21713   5.304   4.311   3.303  0.7921  0.6967 -2.2385
  188POPC   H5Y21714   5.454   4.224   3.254 -0.7601 -0.0924 -0.9427
  188POPC   C3621715   5.350   4.141   3.425  0.0260 -0.4004  0.1022
  188POPC   H6X21716   5.377   4.035   3.408  3.3327  0.1300  1.3907
  188POPC   H6Y21717   5.241   4.145   3.447  0.1459  0.6192  0.5638
  188POPC   C3721718   5.426   4.225   3.533 -0.0171  0.1855 -0.5098
  188POPC   H7X21719   5.386   4.327   3.548  0.3522  0.1692  0.7031
  188POPC   H7Y21720   5.528   4.250   3.496  0.2141  1.9930  1.1935
  188POPC   C3821721   5.445   4.161   3.668  0.2044  0.0470  0.4204
  188POPC   H8X21722   5.516   4.075   3.676 -0.0356  0.0082  2.5207
  188POPC   H8Y21723   5.345   4.138   3.710 -0.7728  0.3488 -1.6210
  188POPC   C3921724   5.496   4.265   3.776  0.2852  0.0434 -0.4580
  188POPC   H9X21725   5.424   4.350   3.771 -3.1145 -2.6568 -1.9584
  188POPC   H9Y21726   5.596   4.299   3.743 -0.4344  1.5629 -1.1813
  188POPC  C31021727   5.494   4.201   3.921  0.2563 -0.5195 -0.2860
  188POPC  H10X21728   5.542   4.100   3.920  1.8624  0.1821 -2.7864
  188POPC  H10Y21729   5.385   4.187   3.942  0.4118 -2.3012 -0.5067
  188POPC  C31121730   5.574   4.274   4.029  0.0275 -0.2343  0.0489
  188POPC  H11X21731   5.556   4.384   4.036 -1.2041 -0.2623 -2.0223
  188POPC  H11Y21732   5.682   4.254   4.011 -0.5726 -1.7300 -2.1899
  188POPC  C31221733   5.541   4.211   4.167  0.1111  0.2865 -0.3887
  188POPC  H12X21734   5.632   4.211   4.231  0.2737  0.1889 -0.6169
  188POPC  H12Y21735   5.503   4.108   4.145 -0.9540  0.1530  1.8037
  188POPC  C31321736   5.426   4.283   4.246  0.3588 -0.2144  0.0530
  188POPC  H13X21737   5.347   4.298   4.170  1.1027  1.6340 -0.4025
  188POPC  H13Y21738   5.450   4.385   4.281 -0.8006  0.3160 -0.6387
  188POPC  C31421739   5.381   4.210   4.371  0.0287  0.0823  0.1735
  188POPC  H14X21740   5.320   4.120   4.347  0.4475 -0.3573  0.7328
  188POPC  H14Y21741   5.305   4.277   4.415 -2.9070 -0.8927 -2.9622
  188POPC  C31521742   5.492   4.180   4.466 -0.2826 -0.5423  0.5078
  188POPC  H15X21743   5.563   4.265   4.474 -1.0496  0.2986 -1.1841
  188POPC  H15Y21744   5.543   4.092   4.421 -0.3991 -2.3467  3.5649
  188POPC  C31621745   5.441   4.130   4.596 -0.0213  0.5588  0.0228
  188POPC  H16X21746   5.405   4.025   4.589 -0.6428  0.4820  2.9516
  188POPC  H16Y21747   5.367   4.193   4.650 -0.4731  0.6314 -0.6762
  188POPC  H16Z21748   5.519   4.130   4.676  1.3225 -1.7179 -1.1775
  189SAPI   C1221749   5.976   0.559   6.742 -1.1126  0.2499 -0.4331
  189SAPI    H221750   6.074   0.513   6.766 -2.4053 -2.1656  0.5420
  189SAPI    O221751   5.886   0.531   6.850  0.4605  0.3570 -0.3021
  189SAPI   HO221752   5.819   0.471   6.815 -1.5502  0.8679  2.3522
  189SAPI   C1321753   5.991   0.712   6.729 -0.1671 -0.2083 -0.1442
  189SAPI    H321754   6.061   0.737   6.646 -2.7941  1.3567 -2.0571
  189SAPI    O321755   6.057   0.761   6.849  0.1520 -0.3746 -0.4017
  189SAPI   HO321756   6.117   0.830   6.817  2.1751 -1.7746  0.1580
  189SAPI   C1421757   5.858   0.775   6.702  0.3231  0.4541  0.3162
  189SAPI    H421758   5.813   0.773   6.804 -0.4738  0.1907 -0.0335
  189SAPI    O421759   5.881   0.907   6.660 -0.0695  0.2355  0.0829
  189SAPI   HO421760   5.947   0.906   6.590  1.3630  2.1084  1.3053
  189SAPI   C1521761   5.756   0.690   6.623  0.6212  0.3981  0.3295
  189SAPI    H521762   5.744   0.748   6.529  0.0076 -2.5655 -1.5486
  189SAPI    O521763   5.622   0.698   6.671  0.6190 -0.5180  0.4427
  189SAPI   HO521764   5.584   0.786   6.664  1.9766  0.2626  2.0006
  189SAPI   C1621765   5.793   0.547   6.582  0.3290  0.4304 -0.4093
  189SAPI    H621766   5.724   0.484   6.642 -1.5190  1.7842 -1.0178
  189SAPI    O621767   5.761   0.518   6.447  0.1240  0.1203  0.2641
  189SAPI   HO621768   5.745   0.425   6.426  0.2437 -0.0731  1.0212
  189SAPI   C1121769   5.937   0.508   6.615  0.3578  0.0881 -0.4351
  189SAPI    H121770   6.001   0.556   6.538 -0.4975  1.9737 -0.0313
  189SAPI     P21771   6.075   0.270   6.574 -0.0880  0.0035  0.2532
  189SAPI   O1321772   6.103   0.204   6.705  0.8655 -0.0799  0.1104
  189SAPI   O1421773   6.180   0.348   6.513  0.0953 -0.1783  0.0484
  189SAPI   O1221774   5.942   0.367   6.602  0.1373 -0.0799 -0.4029
  189SAPI   O1121775   6.024   0.158   6.478  0.3119 -0.1917 -0.4318
  189SAPI    C121776   5.925   0.061   6.501 -0.2782  0.5461 -0.0014
  189SAPI    HA21777   5.968  -0.034   6.461 -1.6219  0.7860 -2.1737
  189SAPI    HB21778   5.899   0.040   6.606  2.4745  0.6810  0.7946
  189SAPI    C221779   5.798   0.078   6.414 -0.4066  0.5278 -0.2273
  189SAPI    HS21780   5.760  -0.018   6.371  1.2566 -0.4935  0.5096
  189SAPI   O2121781   5.807   0.174   6.304 -0.4528  0.1018  0.0670
  189SAPI   C2121782   5.876   0.145   6.201  0.0948 -0.5746 -0.2298
  189SAPI   O2221783   5.953   0.052   6.191 -0.1311 -0.1926  0.2613
  189SAPI   C2221784   5.848   0.252   6.091  0.1782 -0.8517 -0.6516
  189SAPI   H2R21785   5.920   0.336   6.108  1.8172 -2.2278 -0.5814
  189SAPI   H2S21786   5.895   0.212   5.999  0.5966 -0.9681 -0.3896
  189SAPI    C321787   5.686   0.131   6.507  0.3017  0.6397 -0.4590
  189SAPI    HX21788   5.695   0.238   6.537  1.0568  0.1283  1.2471
  189SAPI    HY21789   5.692   0.072   6.601  0.6012  0.1250 -0.8011
  189SAPI   O3121790   5.555   0.093   6.449  0.2929  0.1885 -0.6992
  189SAPI   C3121791   5.484   0.196   6.398 -0.1812 -0.3258  0.0073
  189SAPI   O3221792   5.521   0.312   6.391  0.1520  0.0127  0.0204
  189SAPI   C3221793   5.337   0.158   6.359 -0.0064 -0.1890 -0.2828
  189SAPI   H2X21794   5.272   0.243   6.391  1.6477  1.6932 -1.6887
  189SAPI   H2Y21795   5.317   0.083   6.439 -0.5392  1.0255  0.7468
  189SAPI   C2321796   5.710   0.316   6.093  0.4701  0.7787  1.5864
  189SAPI   H3R21797   5.705   0.417   6.140 -2.0177  1.2865  0.4046
  189SAPI   H3S21798   5.629   0.259   6.143  0.9226 -1.2058  0.1574
  189SAPI   C2421799   5.661   0.327   5.946  0.0618  0.2965 -0.0113
  189SAPI   H4R21800   5.723   0.394   5.883  0.0790  0.9964  0.7431
  189SAPI   H4S21801   5.561   0.375   5.952 -0.9826 -1.7966  0.2372
  189SAPI   C2521802   5.646   0.190   5.894 -0.7286 -0.4161 -1.1740
  189SAPI   H5R21803   5.577   0.133   5.958  0.6619 -0.8376  0.0185
  189SAPI   C2621804   5.700   0.147   5.779  0.8227  0.7125 -0.0526
  189SAPI   H6R21805   5.671   0.044   5.756 -2.2327  1.0675  1.6584
  189SAPI   C2721806   5.782   0.225   5.680  0.3987  0.0198  1.0071
  189SAPI   H7R21807   5.843   0.307   5.723 -3.6501  3.0821  1.4193
  189SAPI   H7S21808   5.706   0.274   5.617  1.0177  1.6819  1.4986
  189SAPI   C2821809   5.865   0.132   5.590 -0.0121 -0.4614  0.1607
  189SAPI   H8R21810   5.932   0.060   5.639 -0.2355 -1.9980 -1.6567
  189SAPI   C2921811   5.879   0.133   5.454  0.9099  0.4214 -0.9341
  189SAPI   H9R21812   5.927   0.046   5.407 -0.7149 -2.0413  1.6435
  189SAPI  C21021813   5.785   0.210   5.359 -0.6931  0.0793 -0.0832
  189SAPI  H10R21814   5.831   0.231   5.260 -2.4049 -0.0746 -0.9553
  189SAPI  H10S21815   5.740   0.303   5.400  2.2005  0.9144  1.4165
  189SAPI  C21121816   5.662   0.120   5.333 -0.0466 -0.1315 -0.1916
  189SAPI  H11R21817   5.616   0.075   5.422  1.7287 -0.5309  0.5698
  189SAPI  C21221818   5.618   0.094   5.210  0.5204 -1.0730  0.1418
  189SAPI  H12R21819   5.530   0.027   5.212  0.6704 -1.3064  2.8187
  189SAPI  C21321820   5.681   0.140   5.079  0.2439  0.3533 -0.1473
  189SAPI  H13R21821   5.763   0.212   5.096  1.1637 -0.1379 -2.2401
  189SAPI  H13S21822   5.601   0.195   5.025 -1.1305 -1.0744  0.3261
  189SAPI  C21421823   5.728   0.021   4.999 -0.0244 -0.5568  0.3975
  189SAPI  H14R21824   5.651  -0.056   4.979 -1.6360 -0.1008  4.0718
  189SAPI  C21521825   5.844   0.009   4.944 -0.0544  0.1492 -0.4468
  189SAPI  H15R21826   5.859  -0.085   4.889  0.3772  0.0937 -0.2306
  189SAPI  C21621827   5.967   0.103   4.946  0.6789  0.6687  0.3050
  189SAPI  H16R21828   6.052   0.057   4.999  2.9662  4.4911  0.2948
  189SAPI  H16S21829   5.935   0.194   5.000 -1.5489  0.8526 -1.1833
  189SAPI  C21721830   6.004   0.132   4.802  0.0017  0.7389 -0.4862
  189SAPI  H17R21831   5.916   0.181   4.754 -1.4105 -0.2970  0.9411
  189SAPI  H17S21832   6.023   0.033   4.756 -0.6962 -0.6957  2.1420
  189SAPI  C21821833   6.133   0.215   4.786  0.3448  0.1399  0.0186
  189SAPI  H18R21834   6.203   0.169   4.859 -0.1233 -2.1956 -0.9096
  189SAPI  H18S21835   6.110   0.318   4.821 -3.4649 -0.2164 -0.9323
  189SAPI  C21921836   6.193   0.199   4.643 -0.4544 -0.3221 -0.1012
  189SAPI  H19R21837   6.109   0.228   4.576 -0.0558 -0.6049 -0.7324
  189SAPI  H19S21838   6.205   0.089   4.632 -0.1460 -0.3596  0.5554
  189SAPI  C22021839   6.322   0.275   4.608 -0.2282  0.0114 -0.2035
  189SAPI  H20R21840   6.397   0.230   4.676 -0.7324 -1.7980 -0.7977
  189SAPI  H20S21841   6.302   0.378   4.646 -0.0280  0.2381 -0.6940
  189SAPI  H20T21842   6.363   0.273   4.505 -0.3278 -2.5427 -0.2405
  189SAPI   C3321843   5.321   0.079   6.224  0.5466  0.7898 -0.2371
  189SAPI   H3X21844   5.216   0.042   6.228  0.5635  0.8085  0.5048
  189SAPI   H3Y21845   5.387  -0.010   6.217  1.0477  1.1318  0.0191
  189SAPI   C3421846   5.330   0.157   6.107 -0.1622 -0.2175  0.1341
  189SAPI   H4X21847   5.429   0.206   6.098  1.9184 -3.8170  1.5164
  189SAPI   H4Y21848   5.258   0.243   6.108  0.3996  0.2633 -0.2728
  189SAPI   C3521849   5.309   0.076   5.976 -0.3234 -0.2192 -0.1875
  189SAPI   H5X21850   5.208   0.029   5.975 -0.1692 -0.5618  0.0101
  189SAPI   H5Y21851   5.394   0.006   5.956  1.8536  3.1189 -3.9552
  189SAPI   C3621852   5.316   0.158   5.846  0.0447  0.7051  0.0850
  189SAPI   H6X21853   5.399   0.231   5.842 -0.8443  1.6697 -1.4391
  189SAPI   H6Y21854   5.220   0.213   5.834  0.0298  1.1700  2.0010
  189SAPI   C3721855   5.324   0.062   5.720  0.6331 -0.4263 -0.4590
  189SAPI   H7X21856   5.260  -0.027   5.735  0.2373 -0.0069  0.3942
  189SAPI   H7Y21857   5.427   0.022   5.710  0.0721 -1.7449 -1.2096
  189SAPI   C3821858   5.277   0.129   5.584 -0.4088 -0.4008  0.3812
  189SAPI   H8X21859   5.334   0.220   5.555 -1.6233  0.7293  1.3800
  189SAPI   H8Y21860   5.170   0.159   5.590 -0.8653 -1.9808  0.5373
  189SAPI   C3921861   5.277   0.028   5.470 -0.4794  0.6407 -0.2734
  189SAPI   H9X21862   5.209  -0.054   5.500 -1.0409  1.8142  1.8952
  189SAPI   H9Y21863   5.378  -0.014   5.449  0.2454 -0.2174  4.0290
  189SAPI  C31021864   5.213   0.074   5.333 -0.2494  0.3411 -0.6349
  189SAPI  H10X21865   5.271   0.160   5.294 -1.0979  0.4348 -1.6960
  189SAPI  H10Y21866   5.113   0.112   5.363  0.0454  0.7001 -0.0820
  189SAPI  C31121867   5.186  -0.038   5.242 -0.3900  0.1512  0.3146
  189SAPI  H11X21868   5.117  -0.107   5.295 -0.7372  1.5583  1.7749
  189SAPI  H11Y21869   5.276  -0.096   5.212  0.8703  1.3016  1.7148
  189SAPI  C31221870   5.115  -0.002   5.106  0.5149  0.3580  0.2897
  189SAPI  H12X21871   5.031   0.061   5.140  2.9122  3.2028  1.4489
  189SAPI  H12Y21872   5.071  -0.083   5.045  2.1330  0.0521 -0.5282
  189SAPI  C31321873   5.196   0.090   5.010  0.0934 -0.1175 -0.5494
  189SAPI  H13X21874   5.252   0.162   5.073 -0.4402 -2.1114  2.4402
  189SAPI  H13Y21875   5.119   0.147   4.952 -2.8242 -2.3700  0.8051
  189SAPI  C31421876   5.272   0.002   4.914 -0.4737 -0.4587  0.1329
  189SAPI  H14X21877   5.208  -0.088   4.899 -0.8282 -0.3380  0.8475
  189SAPI  H14Y21878   5.354  -0.049   4.969 -1.6091 -1.5950  0.8399
  189SAPI  C31521879   5.306   0.059   4.781  0.3975 -0.0149  0.0189
  189SAPI  H15X21880   5.242   0.145   4.753  0.8431  0.9204  1.6978
  189SAPI  H15Y21881   5.284  -0.018   4.704 -0.8902  0.3531 -0.0143
  189SAPI  C31621882   5.447   0.118   4.782  0.3072 -0.2361 -0.0123
  189SAPI  H16X21883   5.507   0.032   4.820  0.6724 -0.2699 -0.6540
  189SAPI  H16Y21884   5.467   0.188   4.866 -1.0598 -0.3550  0.4250
  189SAPI  C31721885   5.487   0.167   4.644 -0.3675  0.1769  0.6419
  189SAPI  H17X21886   5.426   0.102   4.577  0.4666  0.3980 -0.3451
  189SAPI  H17Y21887   5.595   0.146   4.632 -0.0453  1.3770  1.3239
  189SAPI  C31821888   5.460   0.319   4.622  0.1029 -0.0133 -0.4164
  189SAPI  H18X21889   5.352   0.343   4.618 -0.2781 -1.4889  0.2886
  189SAPI  H18Y21890   5.502   0.362   4.528 -0.5856  0.7201 -0.3955
  189SAPI  H18Z21891   5.500   0.380   4.705  2.3722  0.3708 -1.6972
  190SAPI   C1221892   5.394   3.715   6.990 -0.5898  0.0921  0.0573
  190SAPI    H221893   5.422   3.723   6.883 -2.6475  0.5099 -0.4844
  190SAPI    O221894   5.278   3.629   6.995  0.6487  0.1379 -0.1107
  190SAPI   HO221895   5.268   3.599   6.905  0.1362  0.4796 -0.1728
  190SAPI   C1321896   5.513   3.650   7.059  0.3900 -0.1539  0.3258
  190SAPI    H321897   5.599   3.719   7.045  1.0746 -0.5277  2.3010
  190SAPI    O321898   5.554   3.531   6.988  0.9849 -0.2036 -0.4918
  190SAPI   HO321899   5.503   3.460   7.028  0.3122  2.1011  3.2783
  190SAPI   C1421900   5.487   3.636   7.207 -0.5396 -0.2141 -0.3666
  190SAPI    H421901   5.405   3.561   7.217 -0.1111 -0.6023  0.3444
  190SAPI    O421902   5.603   3.582   7.266 -0.3559 -0.3079 -0.3270
  190SAPI   HO421903   5.601   3.486   7.269 -3.7198 -0.3189  2.5674
  190SAPI   C1521904   5.435   3.761   7.279 -0.3236  0.2179  0.2203
  190SAPI    H521905   5.526   3.823   7.294  1.1193 -0.6571 -3.6383
  190SAPI    O521906   5.383   3.720   7.404 -0.8864  0.4199  0.0536
  190SAPI   HO521907   5.442   3.664   7.454 -3.7424 -2.9866  0.0392
  190SAPI   C1621908   5.332   3.847   7.201  0.8612  0.2554  0.0965
  190SAPI    H621909   5.234   3.797   7.217  1.3832 -0.9354 -0.3495
  190SAPI    O621910   5.337   3.982   7.252 -0.1659 -0.1458  0.0694
  190SAPI   HO621911   5.301   3.972   7.341  0.4752 -2.0150  0.1630
  190SAPI   C1121912   5.358   3.851   7.051  0.1335  0.2645 -0.2760
  190SAPI    H121913   5.454   3.905   7.041  0.9578 -0.8072  1.3674
  190SAPI     P21914   5.276   3.987   6.828 -0.4450 -0.0852 -0.2110
  190SAPI   O1321915   5.420   4.005   6.806 -0.4723 -0.1262 -0.0940
  190SAPI   O1421916   5.186   4.105   6.827 -0.1774 -0.0296  0.0286
  190SAPI   O1221917   5.254   3.913   6.976 -0.8589  0.0928  0.0072
  190SAPI   O1121918   5.221   3.884   6.732  0.1628 -0.2983  0.4410
  190SAPI    C121919   5.083   3.863   6.721 -0.5128  0.2190 -0.2849
  190SAPI    HA21920   5.056   3.808   6.814 -1.0953 -1.4491 -1.3986
  190SAPI    HB21921   5.031   3.961   6.718  0.6722  0.8511 -1.8844
  190SAPI    C221922   5.034   3.786   6.591 -0.9952 -0.4784  0.4497
  190SAPI    HS21923   5.073   3.683   6.599  1.8758  0.5836  1.3828
  190SAPI   O2121924   5.089   3.856   6.473  0.4420  0.0400 -0.3181
  190SAPI   C2121925   5.183   3.793   6.410  0.0804 -0.2403  0.3823
  190SAPI   O2221926   5.254   3.702   6.451 -0.1427 -0.1001  0.0733
  190SAPI   C2221927   5.187   3.841   6.264 -0.2209  0.1114  0.5612
  190SAPI   H2R21928   5.229   3.944   6.267  0.7211 -0.2848  2.0026
  190SAPI   H2S21929   5.259   3.775   6.210 -0.4554 -0.3875  0.8548
  190SAPI    C321930   4.878   3.780   6.585  0.8809  0.0301 -0.5153
  190SAPI    HX21931   4.848   3.883   6.612  0.3765 -0.5902  1.4188
  190SAPI    HY21932   4.847   3.705   6.660  0.8798  0.9086  0.3843
  190SAPI   O3121933   4.831   3.738   6.454  0.3595 -0.0431 -0.5145
  190SAPI   C3121934   4.742   3.815   6.399 -0.3836  0.5041  1.1977
  190SAPI   O3221935   4.705   3.928   6.439 -0.5823  0.1449 -0.3646
  190SAPI   C3221936   4.695   3.755   6.263  1.2451  0.3564  0.2831
  190SAPI   H2X21937   4.702   3.644   6.265  1.2092  0.3298 -0.6111
  190SAPI   H2Y21938   4.768   3.780   6.183  0.7119  1.4295  0.1084
  190SAPI   C2321939   5.052   3.845   6.192 -0.0397  0.1313 -0.5977
  190SAPI   H3R21940   4.985   3.924   6.233 -1.1555 -1.3537  0.5470
  190SAPI   H3S21941   5.007   3.744   6.202  0.0539  0.0706 -0.7919
  190SAPI   C2421942   5.060   3.858   6.037  0.4696  0.3406 -0.2130
  190SAPI   H4R21943   4.955   3.843   6.005 -0.5123  0.6422  2.6124
  190SAPI   H4S21944   5.128   3.784   5.990  1.1779  1.6809 -1.3674
  190SAPI   C2521945   5.104   3.995   6.002 -0.5365 -0.4981  0.9714
  190SAPI   H5R21946   5.094   4.072   6.080 -0.6942  1.1192 -0.5712
  190SAPI   C2621947   5.181   4.029   5.895 -0.7300  0.1637  0.4664
  190SAPI   H6R21948   5.204   4.136   5.884  1.6131 -0.2685  0.6240
  190SAPI   C2721949   5.223   3.947   5.772  0.1231  0.5460 -0.8834
  190SAPI   H7R21950   5.213   3.838   5.793 -0.6617  0.8128  0.2588
  190SAPI   H7S21951   5.330   3.952   5.745  0.6893 -2.1846  0.5351
  190SAPI   C2821952   5.131   3.979   5.655  0.0959  1.6374  0.8801
  190SAPI   H8R21953   5.031   3.937   5.674  0.8532 -0.3666  0.6665
  190SAPI   C2921954   5.162   4.054   5.545  0.6077  0.0328 -0.7590
  190SAPI   H9R21955   5.092   4.067   5.461 -1.3372  0.5485  0.8637
  190SAPI  C21021956   5.295   4.125   5.538 -0.5748 -0.7107  0.4181
  190SAPI  H10R21957   5.365   4.068   5.473  1.3527  1.0434  0.8415
  190SAPI  H10S21958   5.358   4.139   5.629  1.3363 -3.8133 -0.2611
  190SAPI  C21121959   5.283   4.268   5.487  0.0568 -0.2718 -0.4279
  190SAPI  H11R21960   5.288   4.353   5.557 -1.1739  0.4724 -1.2136
  190SAPI  C21221961   5.265   4.305   5.357 -0.0180 -0.9975  0.0352
  190SAPI  H12R21962   5.260   4.410   5.325  1.9886 -0.9459 -0.2076
  190SAPI  C21321963   5.251   4.203   5.247 -0.0446  0.0342  1.3272
  190SAPI  H13R21964   5.316   4.115   5.267 -1.3631 -1.8815 -2.0194
  190SAPI  H13S21965   5.276   4.253   5.151  0.5809 -2.8008 -0.0898
  190SAPI  C21421966   5.115   4.151   5.214  0.3861  0.4905 -0.4520
  190SAPI  H14R21967   5.034   4.224   5.201 -0.9487 -0.9814 -0.5969
  190SAPI  C21521968   5.072   4.020   5.212 -0.1187  0.3722  0.8568
  190SAPI  H15R21969   4.970   3.995   5.179  0.7377 -1.5540 -0.5385
  190SAPI  C21621970   5.149   3.892   5.240  0.5832 -0.3576  0.2009
  190SAPI  H16R21971   5.093   3.836   5.318 -1.7754 -0.2969 -1.3726
  190SAPI  H16S21972   5.245   3.919   5.290 -0.6191 -0.1895  2.5748
  190SAPI  C21721973   5.165   3.793   5.126 -0.1811  0.2958 -0.0690
  190SAPI  H17R21974   5.071   3.779   5.070  0.0750  1.4023 -0.8029
  190SAPI  H17S21975   5.183   3.700   5.185 -0.7197 -0.5420 -1.2009
  190SAPI  C21821976   5.284   3.820   5.033  0.5917  0.0036  0.1521
  190SAPI  H18R21977   5.374   3.800   5.096  1.5379  0.3873 -1.0381
  190SAPI  H18S21978   5.278   3.923   4.994 -0.5740  0.4231  1.3729
  190SAPI  C21921979   5.299   3.732   4.909  0.0858  0.0268 -0.6199
  190SAPI  H19R21980   5.268   3.626   4.920 -0.2507  0.2094  0.2394
  190SAPI  H19S21981   5.402   3.742   4.869 -0.9897  3.4067 -2.9737
  190SAPI  C22021982   5.216   3.794   4.800  0.3469  0.4575  0.0322
  190SAPI  H20R21983   5.240   3.898   4.770  1.5350 -0.4523 -2.4368
  190SAPI  H20S21984   5.109   3.783   4.827  0.3925  1.5419  0.7121
  190SAPI  H20T21985   5.226   3.728   4.711  0.4985 -0.2229  0.5403
  190SAPI   C3321986   4.554   3.813   6.220 -0.4175 -0.4072  1.0174
  190SAPI   H3X21987   4.572   3.906   6.161 -0.1154 -0.6161  0.7745
  190SAPI   H3Y21988   4.498   3.842   6.311 -1.7521  0.2268  0.0241
  190SAPI   C3421989   4.468   3.740   6.111 -0.3293  0.3886  0.2892
  190SAPI   H4X21990   4.373   3.797   6.104  0.9340  2.6960  1.0987
  190SAPI   H4Y21991   4.455   3.635   6.144 -1.6516  0.1441 -0.8981
  190SAPI   C3521992   4.541   3.735   5.974  1.0722 -0.4201  0.4860
  190SAPI   H5X21993   4.634   3.673   5.974  0.4972 -1.2972  0.0184
  190SAPI   H5Y21994   4.570   3.838   5.942  2.2127 -1.1645 -1.0482
  190SAPI   C3621995   4.461   3.665   5.870  0.2487  0.0127  0.9667
  190SAPI   H6X21996   4.355   3.693   5.883 -0.0517 -0.8767  0.5217
  190SAPI   H6Y21997   4.448   3.555   5.882  1.2026 -0.3205 -0.7061
  190SAPI   C3721998   4.492   3.713   5.723 -0.2299  0.1870 -0.4767
  190SAPI   H7X21999   4.479   3.823   5.714  1.6108  0.3250 -2.2507
  190SAPI   H7Y22000   4.418   3.663   5.658  1.1453 -1.3511 -0.9379
  190SAPI   C3822001   4.625   3.676   5.665 -0.3864 -0.2260  0.0098
  190SAPI   H8X22002   4.631   3.567   5.685 -2.0459 -0.0955  1.4825
  190SAPI   H8Y22003   4.710   3.734   5.707 -0.5876 -0.5119  0.8209
  190SAPI   C3922004   4.637   3.685   5.514 -0.0648 -0.2834 -0.1289
  190SAPI   H9X22005   4.745   3.684   5.488  0.1453  0.9603  0.5882
  190SAPI   H9Y22006   4.591   3.777   5.472 -2.2547 -1.3684 -0.2298
  190SAPI  C31022007   4.563   3.567   5.446  0.4559  1.1985 -0.0998
  190SAPI  H10X22008   4.468   3.541   5.499  1.4272 -1.6728  0.4598
  190SAPI  H10Y22009   4.631   3.479   5.451  1.8166  2.2659  1.0606
  190SAPI  C31122010   4.527   3.582   5.296  0.1768  0.5935  0.1472
  190SAPI  H11X22011   4.608   3.614   5.227 -1.9820  0.0366 -2.8459
  190SAPI  H11Y22012   4.442   3.653   5.287 -1.9752 -1.9902 -1.8180
  190SAPI  C31222013   4.480   3.452   5.227 -0.2577 -0.1287  0.4942
  190SAPI  H12X22014   4.384   3.419   5.272 -1.1005  0.9968 -0.4159
  190SAPI  H12Y22015   4.567   3.385   5.244 -0.2459 -0.2815 -0.1384
  190SAPI  C31322016   4.488   3.466   5.073 -0.6358 -0.2595 -0.1371
  190SAPI  H13X22017   4.592   3.493   5.045 -0.1264 -0.6510  1.2858
  190SAPI  H13Y22018   4.413   3.544   5.047  0.1521  0.3285 -0.6768
  190SAPI  C31422019   4.453   3.348   4.981  0.1374 -0.5665 -0.0151
  190SAPI  H14X22020   4.431   3.384   4.879 -0.9407 -0.7522  0.1447
  190SAPI  H14Y22021   4.360   3.308   5.027  0.7931 -0.5862  1.3379
  190SAPI  C31522022   4.558   3.235   4.982 -0.4352 -0.5913  0.3989
  190SAPI  H15X22023   4.581   3.217   5.089 -0.3925  1.0401  0.7023
  190SAPI  H15Y22024   4.651   3.258   4.927  0.2361 -2.0870  0.8577
  190SAPI  C31622025   4.512   3.103   4.929 -0.5920 -0.2640  0.1203
  190SAPI  H16X22026   4.404   3.096   4.954 -0.9657  1.0260 -1.0145
  190SAPI  H16Y22027   4.565   3.020   4.981 -3.4065 -1.5986  1.0694
  190SAPI  C31722028   4.522   3.101   4.776  0.5204 -0.1189 -0.2417
  190SAPI  H17X22029   4.628   3.115   4.748  0.2456 -0.0770 -1.2997
  190SAPI  H17Y22030   4.466   3.190   4.740 -1.5001 -0.5141  1.6904
  190SAPI  C31822031   4.464   2.973   4.708  0.5041  0.6130  0.0389
  190SAPI  H18X22032   4.371   2.932   4.752  0.3827  0.8903  0.0451
  190SAPI  H18Y22033   4.532   2.891   4.738  1.0015  1.1026  0.2739
  190SAPI  H18Z22034   4.454   2.978   4.597 -3.4621 -1.1683  0.1694
  191SAPI   C1222035   0.461   0.430   2.207  0.2425 -0.2071  0.3895
  191SAPI    H222036   0.513   0.424   2.109 -0.5717  1.1132 -0.1554
  191SAPI    O222037   0.353   0.529   2.203 -0.3452  0.2285 -0.2205
  191SAPI   HO222038   0.365   0.591   2.275 -0.5673 -2.6171  2.4736
  191SAPI   C1322039   0.413   0.294   2.249  0.1027  0.0248 -0.2819
  191SAPI    H322040   0.497   0.229   2.282 -0.3008 -0.5403 -0.3702
  191SAPI    O322041   0.343   0.230   2.148  0.3945  0.0913  0.8557
  191SAPI   HO322042   0.261   0.276   2.129  0.0188 -0.0794  1.9831
  191SAPI   C1422043   0.325   0.303   2.377 -0.9311 -0.3888  0.6702
  191SAPI    H422044   0.246   0.374   2.347 -0.8694 -0.2877  0.7449
  191SAPI    O422045   0.263   0.174   2.415 -0.4738 -0.0301  0.0494
  191SAPI   HO422046   0.317   0.104   2.377 -1.5266 -0.5635 -0.5255
  191SAPI   C1522047   0.406   0.362   2.489 -0.6909  0.3977  0.2628
  191SAPI    H522048   0.461   0.282   2.542 -3.0055 -0.6262  1.2686
  191SAPI    O522049   0.317   0.404   2.592 -0.0088 -0.0376 -0.1279
  191SAPI   HO522050   0.284   0.317   2.616 -1.0654  0.5103  0.4809
  191SAPI   C1622051   0.510   0.473   2.451 -0.4233  0.0192 -0.2416
  191SAPI    H622052   0.448   0.564   2.463 -0.1293  0.3352 -1.0390
  191SAPI    O622053   0.614   0.483   2.553 -0.1662  0.7478 -0.0114
  191SAPI   HO622054   0.643   0.574   2.550  0.7288  0.4747  0.0937
  191SAPI   C1122055   0.566   0.483   2.306  0.3845  0.0847 -0.3026
  191SAPI    H122056   0.651   0.412   2.309  0.0301 -0.3313  0.0665
  191SAPI     P22057   0.760   0.670   2.312 -0.0413  0.1236 -0.2109
  191SAPI   O1322058   0.799   0.783   2.223  0.0360 -0.3789  0.0995
  191SAPI   O1422059   0.844   0.548   2.310 -0.2834 -0.2443  0.8233
  191SAPI   O1222060   0.611   0.620   2.266  0.1060  0.6877  0.4000
  191SAPI   O1122061   0.728   0.716   2.456  0.5927  0.1734  0.0692
  191SAPI    C122062   0.680   0.842   2.479 -0.5467  0.1952  0.0389
  191SAPI    HA22063   0.752   0.912   2.431  0.8487 -0.7302  0.7314
  191SAPI    HB22064   0.579   0.850   2.433  0.3209  2.1217 -1.7122
  191SAPI    C222065   0.672   0.881   2.633  0.1958 -0.4641 -0.0905
  191SAPI    HS22066   0.654   0.991   2.634 -0.0151 -0.4597 -1.7283
  191SAPI   O2122067   0.788   0.839   2.707 -0.3209 -0.1002 -0.1004
  191SAPI   C2122068   0.904   0.898   2.681  0.0820  0.0972  0.6543
  191SAPI   O2222069   0.929   0.986   2.602  0.0439  0.0287  0.0861
  191SAPI   C2222070   1.014   0.829   2.763 -0.2772 -0.1709  0.0917
  191SAPI   H2R22071   1.000   0.721   2.786 -0.1933 -0.2719 -0.3168
  191SAPI   H2S22072   1.101   0.825   2.693  0.1426  2.0018  0.4133
  191SAPI    C322073   0.546   0.807   2.703 -0.8753  0.3878  0.9428
  191SAPI    HX22074   0.557   0.700   2.676  1.7967  0.2317  2.2944
  191SAPI    HY22075   0.456   0.835   2.645 -0.2989  1.0118  0.3351
  191SAPI   O3122076   0.523   0.850   2.837  0.3762  0.0920  0.0157
  191SAPI   C3122077   0.573   0.769   2.927  0.2305  0.3218 -0.1522
  191SAPI   O3222078   0.622   0.661   2.903  0.3167 -0.0269 -0.4611
  191SAPI   C3222079   0.566   0.829   3.071  0.1163  0.5233  0.7336
  191SAPI   H2X22080   0.483   0.782   3.128 -1.5889  0.5629 -1.5777
  191SAPI   H2Y22081   0.555   0.940   3.070  3.8062  1.1506  4.0787
  191SAPI   C2322082   1.054   0.902   2.886 -0.1819 -0.7238  0.4937
  191SAPI   H3R22083   1.112   0.833   2.950 -0.0153 -0.7098  0.3564
  191SAPI   H3S22084   0.955   0.928   2.931  0.2317 -1.6012  1.9785
  191SAPI   C2422085   1.131   1.026   2.845 -0.4180  0.6383 -0.4953
  191SAPI   H4R22086   1.080   1.096   2.775 -0.2032  1.1432 -0.1527
  191SAPI   H4S22087   1.227   1.001   2.794  0.5491  0.9026  1.1310
  191SAPI   C2522088   1.161   1.104   2.972 -0.4153  0.1866  0.6668
  191SAPI   H5R22089   1.093   1.184   3.005 -0.3273 -0.2935  2.0747
  191SAPI   C2622090   1.267   1.089   3.052  0.7486  0.1147  0.0841
  191SAPI   H6R22091   1.267   1.154   3.142  0.6419 -0.3150  0.3967
  191SAPI   C2722092   1.378   0.991   3.044 -0.5065 -0.8107 -0.1270
  191SAPI   H7R22093   1.366   0.912   2.968  0.9435 -0.5169 -0.6922
  191SAPI   H7S22094   1.398   0.945   3.143  0.2136  0.1555  0.1912
  191SAPI   C2822095   1.505   1.060   3.009  0.7821  0.0558  0.8442
  191SAPI   H8R22096   1.528   1.040   2.903 -3.3517  0.1348 -0.2190
  191SAPI   C2922097   1.584   1.141   3.079  0.8080  0.9214 -0.3744
  191SAPI   H9R22098   1.679   1.176   3.036  0.7172  1.5966 -0.0314
  191SAPI  C21022099   1.563   1.171   3.228 -1.0526  0.2024  0.3148
  191SAPI  H10R22100   1.637   1.110   3.284  0.1494  1.5992  0.3389
  191SAPI  H10S22101   1.462   1.138   3.259 -1.9320  0.9083 -1.6313
  191SAPI  C21122102   1.588   1.318   3.264  0.5912  0.8995 -0.7992
  191SAPI  H11R22103   1.670   1.367   3.209  2.3386  0.2121  1.1154
  191SAPI  C21222104   1.539   1.384   3.375 -0.8591  0.4163 -0.0289
  191SAPI  H12R22105   1.565   1.488   3.397 -0.2373  0.2230  0.1736
  191SAPI  C21322106   1.440   1.326   3.469 -0.1293  0.5659  0.3250
  191SAPI  H13R22107   1.367   1.257   3.421  0.2501  0.4808 -0.1333
  191SAPI  H13S22108   1.376   1.404   3.516  0.8147  0.8375  1.1870
  191SAPI  C21422109   1.516   1.267   3.587  0.2056 -0.0822  0.7101
  191SAPI  H14R22110   1.624   1.257   3.574  0.1772  0.7461 -0.2658
  191SAPI  C21522111   1.456   1.253   3.708  0.0728 -0.3694  0.4393
  191SAPI  H15R22112   1.508   1.199   3.789  1.3186 -2.0828 -1.4033
  191SAPI  C21622113   1.318   1.287   3.745  0.7805  0.1987  0.2983
  191SAPI  H16R22114   1.261   1.194   3.766 -1.6217  0.7592 -3.0102
  191SAPI  H16S22115   1.259   1.322   3.658  1.6290 -0.3686 -0.5119
  191SAPI  C21722116   1.287   1.387   3.858  0.5380 -0.3408  0.1126
  191SAPI  H17R22117   1.176   1.391   3.859  0.4341 -2.0037 -0.9115
  191SAPI  H17S22118   1.322   1.485   3.820  0.6912 -0.4677 -0.0767
  191SAPI  C21822119   1.338   1.357   3.998  0.2538  0.6088  0.3826
  191SAPI  H18R22120   1.299   1.448   4.049 -2.3332  0.3837 -1.0187
  191SAPI  H18S22121   1.448   1.349   4.007  0.3558 -0.0024 -1.1571
  191SAPI  C21922122   1.260   1.241   4.066 -0.2225  0.1613 -0.4360
  191SAPI  H19R22123   1.294   1.141   4.033  2.6431  0.2966  1.7225
  191SAPI  H19S22124   1.153   1.257   4.038 -0.1441  1.2615 -0.1795
  191SAPI  C22022125   1.271   1.258   4.219  0.7622  0.3287  1.0854
  191SAPI  H20R22126   1.255   1.365   4.242  0.1367  0.2106  1.2028
  191SAPI  H20S22127   1.378   1.243   4.247  0.5203  0.2959  2.0245
  191SAPI  H20T22128   1.209   1.185   4.275  0.6602 -1.7696 -1.5231
  191SAPI   C3322129   0.700   0.779   3.136  0.3017  0.0251 -0.2089
  191SAPI   H3X22130   0.787   0.815   3.078  0.6470 -0.7762 -0.2011
  191SAPI   H3Y22131   0.710   0.670   3.155  0.8811 -0.0515 -0.9441
  191SAPI   C3422132   0.717   0.840   3.277  0.7598 -0.6461 -0.3504
  191SAPI   H4X22133   0.742   0.948   3.267  0.3613 -0.4434  0.8072
  191SAPI   H4Y22134   0.806   0.799   3.329  1.9410  2.5775  0.4124
  191SAPI   C3522135   0.604   0.821   3.378 -0.3537  0.1333 -0.1242
  191SAPI   H5X22136   0.589   0.711   3.385  0.0104  0.1344  0.8567
  191SAPI   H5Y22137   0.521   0.884   3.340 -0.8778 -0.1346  0.5659
  191SAPI   C3622138   0.642   0.872   3.523  0.2763  0.4110 -0.1568
  191SAPI   H6X22139   0.652   0.982   3.526 -2.7107  0.7493  1.2518
  191SAPI   H6Y22140   0.745   0.836   3.545 -0.2679 -1.9983 -1.2309
  191SAPI   C3722141   0.549   0.818   3.631  0.6979  0.7220 -0.4424
  191SAPI   H7X22142   0.530   0.711   3.610  2.6120  0.7384 -2.6543
  191SAPI   H7Y22143   0.457   0.881   3.627 -0.5520 -1.0902 -1.3301
  191SAPI   C3822144   0.601   0.841   3.769 -0.0389 -0.5078  0.4603
  191SAPI   H8X22145   0.615   0.947   3.799 -2.4566 -0.2385  0.8210
  191SAPI   H8Y22146   0.706   0.807   3.778  0.6043  1.3103  0.2930
  191SAPI   C3922147   0.506   0.787   3.881 -0.3841 -0.1868  0.5949
  191SAPI   H9X22148   0.493   0.677   3.871 -0.2898 -0.0212 -2.1305
  191SAPI   H9Y22149   0.404   0.828   3.866  0.3956  0.8731 -2.4912
  191SAPI  C31022150   0.558   0.833   4.015 -0.5902  0.4235 -0.1128
  191SAPI  H10X22151   0.553   0.943   4.029  1.4428  0.3064  2.2479
  191SAPI  H10Y22152   0.657   0.787   4.034 -0.5086 -0.0759 -1.5868
  191SAPI  C31122153   0.473   0.767   4.126 -0.0151 -0.1133 -0.8102
  191SAPI  H11X22154   0.470   0.657   4.109 -1.4185  0.1206 -2.2600
  191SAPI  H11Y22155   0.366   0.796   4.125 -0.7658 -2.2918  1.7411
  191SAPI  C31222156   0.529   0.806   4.265 -0.0861 -0.5273 -0.4363
  191SAPI  H12X22157   0.517   0.916   4.275 -0.1982 -0.6247  0.5643
  191SAPI  H12Y22158   0.639   0.791   4.272  0.0614  0.9112  0.6503
  191SAPI  C31322159   0.468   0.738   4.382 -0.1790  0.1302 -0.2389
  191SAPI  H13X22160   0.460   0.628   4.370  1.7608  0.1002 -1.7313
  191SAPI  H13Y22161   0.368   0.784   4.395  0.3698  1.1629  0.4436
  191SAPI  C31422162   0.532   0.777   4.520 -0.4755 -0.0586  0.6275
  191SAPI  H14X22163   0.623   0.714   4.528  1.7369  2.9232  0.9943
  191SAPI  H14Y22164   0.464   0.744   4.601  0.1207 -0.0393  1.1395
  191SAPI  C31522165   0.568   0.928   4.540  0.4487 -0.3300 -0.0136
  191SAPI  H15X22166   0.495   0.991   4.486  1.9129 -0.4433 -2.2788
  191SAPI  H15Y22167   0.661   0.941   4.481  1.3256  1.2580  1.6008
  191SAPI  C31622168   0.576   0.965   4.688  0.2352 -0.4742 -0.0765
  191SAPI  H16X22169   0.474   0.971   4.732 -0.5126  2.2403 -1.9522
  191SAPI  H16Y22170   0.615   1.069   4.687 -0.3800 -0.2097  1.1139
  191SAPI  C31722171   0.679   0.879   4.765  0.3528  0.0623  0.1273
  191SAPI  H17X22172   0.771   0.876   4.703  0.6996  0.7647  0.5822
  191SAPI  H17Y22173   0.639   0.776   4.764 -1.7064  0.8145 -0.2637
  191SAPI  C31822174   0.708   0.924   4.910  0.0619 -0.8476  0.6419
  191SAPI  H18X22175   0.785   0.852   4.947  0.1509 -0.9824  0.1928
  191SAPI  H18Y22176   0.623   0.924   4.982 -0.0542  0.2687  0.5378
  191SAPI  H18Z22177   0.749   1.028   4.909  0.2928 -0.9182 -1.6834
  192SAPI   C1222178   3.547   1.157   2.495 -0.2058 -0.5099 -0.1277
  192SAPI    H222179   3.514   1.237   2.564  2.0297 -1.4578  2.2246
  192SAPI    O222180   3.499   1.189   2.367  0.2490  0.3289 -0.3080
  192SAPI   HO222181   3.403   1.193   2.378  0.0305 -0.6469 -1.5762
  192SAPI   C1322182   3.699   1.157   2.498  0.3024  0.0828  0.1027
  192SAPI    H322183   3.728   1.130   2.602  0.4685  0.1293  0.0680
  192SAPI    O322184   3.751   1.289   2.476 -0.1098  0.3647  0.5758
  192SAPI   HO322185   3.843   1.286   2.502  0.7579 -0.2019 -2.2000
  192SAPI   C1422186   3.746   1.056   2.397 -0.5721 -0.6631 -0.2615
  192SAPI    H422187   3.705   1.108   2.307 -1.5345  0.0004  0.5310
  192SAPI    O422188   3.883   1.046   2.366  0.0925 -0.5923 -0.0107
  192SAPI   HO422189   3.897   1.120   2.307 -0.3783  1.8060  2.6548
  192SAPI   C1522190   3.701   0.915   2.415  0.1200  0.3677 -0.1671
  192SAPI    H522191   3.758   0.866   2.497  1.9884  3.0387  0.2770
  192SAPI    O522192   3.723   0.830   2.295 -0.0300  0.3474  0.1393
  192SAPI   HO522193   3.647   0.854   2.241 -1.0429 -0.9910  0.9287
  192SAPI   C1622194   3.558   0.908   2.469  0.1517  0.3255  0.0914
  192SAPI    H622195   3.499   0.904   2.375 -1.3226  1.0266  0.9394
  192SAPI    O622196   3.526   0.786   2.532 -0.1930  0.2129  0.5823
  192SAPI   HO622197   3.436   0.788   2.565 -1.1217 -1.0025 -1.6825
  192SAPI   C1122198   3.498   1.028   2.542  0.3484 -0.8607 -1.0448
  192SAPI    H122199   3.534   1.018   2.647  1.1033 -2.1875 -1.3995
  192SAPI     P22200   3.271   1.026   2.667 -0.2425  0.4955  0.3961
  192SAPI   O1322201   3.126   1.050   2.624  0.3084 -0.2133  0.1659
  192SAPI   O1422202   3.329   1.131   2.756  0.0983  0.3757  0.2038
  192SAPI   O1222203   3.356   1.012   2.526  0.3443 -0.1809 -0.3158
  192SAPI   O1122204   3.285   0.883   2.725 -0.8748  0.6724  0.5580
  192SAPI    C122205   3.186   0.777   2.696 -1.0019 -0.1281 -0.1592
  192SAPI    HA22206   3.154   0.793   2.591 -2.5403  2.4026  0.5991
  192SAPI    HB22207   3.243   0.683   2.714 -0.1446  0.4180  0.0341
  192SAPI    C222208   3.064   0.775   2.785 -0.1034  0.6348  0.3945
  192SAPI    HS22209   3.015   0.870   2.753  1.5588  1.1187 -0.8954
  192SAPI   O2122210   3.118   0.772   2.916 -0.2124  0.6084  0.0912
  192SAPI   C2122211   3.044   0.842   3.000  0.2708 -0.0804 -0.6546
  192SAPI   O2222212   2.944   0.909   2.975 -0.3348  0.0748  0.6711
  192SAPI   C2222213   3.102   0.820   3.142 -0.6875  0.3200 -0.3718
  192SAPI   H2R22214   3.131   0.712   3.144  1.6482  0.8737  1.9177
  192SAPI   H2S22215   3.189   0.887   3.160  0.4548 -1.0401 -0.6340
  192SAPI    C322216   2.977   0.648   2.757 -0.2950  0.1118  0.0464
  192SAPI    HX22217   2.922   0.678   2.666  0.1635  2.8292  0.5876
  192SAPI    HY22218   2.899   0.654   2.837  1.8386 -0.0665  2.2574
  192SAPI   O3122219   3.050   0.519   2.743 -0.0303 -0.4850 -0.6240
  192SAPI   C3122220   3.033   0.429   2.839  0.1545  1.0188  0.4576
  192SAPI   O3222221   2.957   0.441   2.934 -0.2849  0.2279 -0.3609
  192SAPI   C3222222   3.139   0.314   2.821 -0.2078  0.1863 -0.4421
  192SAPI   H2X22223   3.245   0.345   2.831 -0.1856  1.0903 -2.7601
  192SAPI   H2Y22224   3.118   0.283   2.716  0.9295 -1.2011 -0.2805
  192SAPI   C2322225   2.989   0.837   3.251 -0.1615  0.3735 -0.1769
  192SAPI   H3R22226   2.978   0.736   3.295 -0.5732  0.0521 -0.9941
  192SAPI   H3S22227   2.896   0.866   3.198 -0.6379 -1.3310 -0.3306
  192SAPI   C2422228   3.028   0.948   3.355 -0.3881  0.1827  0.2362
  192SAPI   H4R22229   3.044   1.042   3.299 -0.7905 -0.3785 -0.8550
  192SAPI   H4S22230   3.121   0.922   3.412 -0.2834 -0.7243 -0.3349
  192SAPI   C2522231   2.917   0.987   3.444  0.5369  0.5130 -0.5598
  192SAPI   H5R22232   2.818   0.994   3.396 -0.6528 -0.5293  1.5880
  192SAPI   C2622233   2.919   1.009   3.576 -0.3739 -0.2364  0.6598
  192SAPI   H6R22234   2.820   1.023   3.623 -1.6877 -2.8055 -1.0621
  192SAPI   C2722235   3.039   1.007   3.666 -0.8585 -0.7000 -0.6395
  192SAPI   H7R22236   3.020   1.083   3.745  0.5105  1.0314 -1.9148
  192SAPI   H7S22237   3.127   1.043   3.610  0.0398 -3.1619 -0.9494
  192SAPI   C2822238   3.069   0.865   3.714  0.6868 -0.0200  1.0026
  192SAPI   H8R22239   3.111   0.791   3.645  1.8790  0.5197  1.1303
  192SAPI   C2922240   3.027   0.812   3.830  0.2115 -1.3284 -0.0011
  192SAPI   H9R22241   3.047   0.705   3.850 -3.0574 -1.8325  1.3244
  192SAPI  C21022242   2.960   0.870   3.955  0.5377 -0.7543  0.4334
  192SAPI  H10R22243   2.875   0.809   3.990  1.8439 -3.2079 -0.4497
  192SAPI  H10S22244   2.911   0.961   3.914  2.5131  0.3159  0.3015
  192SAPI  C21122245   3.052   0.908   4.064  0.5348  0.2495 -0.2146
  192SAPI  H11R22246   3.056   1.017   4.080  0.0292  0.3370 -0.6607
  192SAPI  C21222247   3.138   0.815   4.126  1.1890 -0.5601  0.5491
  192SAPI  H12R22248   3.206   0.856   4.202  0.2727  2.9397 -0.3429
  192SAPI  C21322249   3.144   0.672   4.094  0.0443  0.9442  0.0791
  192SAPI  H13R22250   3.203   0.650   4.003 -0.0129 -1.5693  0.5576
  192SAPI  H13S22251   3.051   0.631   4.048  1.9447 -0.5350 -2.7049
  192SAPI  C21422252   3.194   0.571   4.196  0.6395  0.3573 -0.2662
  192SAPI  H14R22253   3.301   0.545   4.193  0.3268 -0.9777 -0.3952
  192SAPI  C21522254   3.132   0.533   4.308 -0.5780 -0.4193 -0.3008
  192SAPI  H15R22255   3.179   0.458   4.373  1.8613  2.1269  1.0824
  192SAPI  C21622256   2.988   0.556   4.354  0.3018 -0.8838 -0.3690
  192SAPI  H16R22257   2.928   0.465   4.334  0.0139 -0.6411 -0.6449
  192SAPI  H16S22258   2.944   0.643   4.300 -0.5785 -0.4609  0.9837
  192SAPI  C21722259   2.986   0.587   4.510  0.3670 -0.9274  0.6627
  192SAPI  H17R22260   3.013   0.494   4.565  2.3176  0.4823  2.1946
  192SAPI  H17S22261   2.884   0.620   4.539  0.5643 -1.1881  1.6890
  192SAPI  C21822262   3.073   0.700   4.565 -0.0906  0.1672 -0.3719
  192SAPI  H18R22263   3.016   0.795   4.569  0.1482  0.2926  0.0656
  192SAPI  H18S22264   3.162   0.725   4.502 -0.7130 -0.6568 -1.6268
  192SAPI  C21922265   3.115   0.656   4.697 -0.0440 -0.2260  0.3643
  192SAPI  H19R22266   3.183   0.568   4.700  2.6529  1.7948  1.4268
  192SAPI  H19S22267   3.027   0.635   4.762  1.2192  0.2372  2.3044
  192SAPI  C22022268   3.201   0.762   4.763  0.4604  0.5725 -0.2108
  192SAPI  H20R22269   3.199   0.767   4.874  0.4694  3.1158 -0.2608
  192SAPI  H20S22270   3.154   0.857   4.731  0.2912  0.8008  0.6785
  192SAPI  H20T22271   3.307   0.754   4.731  0.9883 -1.3304  1.7316
  192SAPI   C3322272   3.118   0.183   2.906 -0.3442  0.0076 -0.4648
  192SAPI   H3X22273   3.158   0.096   2.850 -1.5186 -0.5454 -0.4955
  192SAPI   H3Y22274   3.009   0.167   2.925 -0.3553  2.4927  2.2181
  192SAPI   C3422275   3.186   0.196   3.048 -0.7424  0.5329  0.2850
  192SAPI   H4X22276   3.167   0.297   3.089  1.2568  1.0070  0.1664
  192SAPI   H4Y22277   3.296   0.202   3.031 -0.8958  1.6788 -0.4041
  192SAPI   C3522278   3.147   0.080   3.139 -0.0340  0.3568 -0.2254
  192SAPI   H5X22279   3.165  -0.012   3.079 -2.7135  0.2740 -1.0430
  192SAPI   H5Y22280   3.037   0.085   3.157  0.0639 -0.0464  0.5192
  192SAPI   C3622281   3.211   0.073   3.277 -0.0499 -0.3376 -0.2803
  192SAPI   H6X22282   3.172   0.162   3.330 -0.5899 -0.1478 -0.9901
  192SAPI   H6Y22283   3.322   0.077   3.265 -0.0845  0.4269 -0.3340
  192SAPI   C3722284   3.172  -0.053   3.356 -0.1814 -0.0007  0.2804
  192SAPI   H7X22285   3.208  -0.140   3.296 -0.8846  0.3237 -0.6404
  192SAPI   H7Y22286   3.062  -0.049   3.370 -0.3634  2.1097 -1.2727
  192SAPI   C3822287   3.248  -0.051   3.491  0.0763 -0.0119 -0.8271
  192SAPI   H8X22288   3.235   0.057   3.515 -0.9316 -0.4123  0.5711
  192SAPI   H8Y22289   3.351  -0.090   3.471  0.4128  0.5378 -0.2101
  192SAPI   C3922290   3.169  -0.110   3.601  0.5722  0.3808  0.2257
  192SAPI   H9X22291   3.138  -0.212   3.570  1.3912 -0.7107  2.7185
  192SAPI   H9Y22292   3.075  -0.052   3.610 -1.5362 -2.0298 -3.5537
  192SAPI  C31022293   3.240  -0.114   3.737 -0.3377 -0.3258 -0.2696
  192SAPI  H10X22294   3.270  -0.015   3.777  1.8358 -0.8166 -0.5689
  192SAPI  H10Y22295   3.338  -0.165   3.735 -1.0756 -1.8124  0.2212
  192SAPI  C31122296   3.163  -0.184   3.849 -0.4531  0.1541  0.2811
  192SAPI  H11X22297   3.131  -0.273   3.791 -1.4942  0.1129  0.8805
  192SAPI  H11Y22298   3.067  -0.137   3.881  0.4159  1.9766  0.3428
  192SAPI  C31222299   3.252  -0.215   3.960  0.6758  0.0889 -0.4970
  192SAPI  H12X22300   3.276  -0.118   4.008 -0.5211 -0.0161  0.3190
  192SAPI  H12Y22301   3.349  -0.263   3.933  1.0337  1.3637 -1.6221
  192SAPI  C31322302   3.182  -0.293   4.059  0.2179  0.1100  0.0919
  192SAPI  H13X22303   3.135  -0.386   4.021  0.7667 -0.2431  0.2683
  192SAPI  H13Y22304   3.096  -0.236   4.101  0.6958  0.7483  0.2267
  192SAPI  C31422305   3.267  -0.341   4.178 -0.6022  0.7978  0.7156
  192SAPI  H14X22306   3.293  -0.250   4.237 -2.0142  1.1335  0.8578
  192SAPI  H14Y22307   3.359  -0.394   4.147 -2.0901 -0.6223 -1.5582
  192SAPI  C31522308   3.194  -0.433   4.281 -0.0242 -0.2931 -0.2154
  192SAPI  H15X22309   3.173  -0.529   4.231 -0.3632 -0.7577  0.8047
  192SAPI  H15Y22310   3.100  -0.375   4.294  0.2153  0.0353  0.0906
  192SAPI  C31622311   3.261  -0.451   4.416 -0.7280 -0.5284 -0.0052
  192SAPI  H16X22312   3.297  -0.355   4.456 -0.0135 -1.0132  0.5391
  192SAPI  H16Y22313   3.354  -0.511   4.403 -0.9168 -0.9105  0.3756
  192SAPI  C31722314   3.172  -0.518   4.518 -0.1071 -0.3136  0.0668
  192SAPI  H17X22315   3.225  -0.522   4.615 -0.9818  0.4519  0.5862
  192SAPI  H17Y22316   3.143  -0.621   4.490  0.0314 -0.6104  0.9858
  192SAPI  C31822317   3.047  -0.445   4.549  0.1304 -0.2091  0.1612
  192SAPI  H18X22318   2.979  -0.510   4.609  0.2459  0.5747  1.1658
  192SAPI  H18Y22319   2.994  -0.410   4.458  0.2618  0.4246  0.3232
  192SAPI  H18Z22320   3.086  -0.355   4.602 -1.0936  0.4852 -0.0939
  193SOD    SOD22321   4.338   5.922   0.823 -0.5912 -0.0858  0.4924
  194SOD    SOD22322   5.834   3.581   0.417  0.2771  0.3101  0.2048
  195SOD    SOD22323   2.475   5.133   2.532  0.1375  0.0286 -0.4888
  196SOD    SOD22324   4.562   4.089   6.558  0.4490  0.2006 -0.0302
  197SOD    SOD22325   2.388   0.527   7.226 -0.0885 -0.0221  0.0312
  198SOD    SOD22326   5.475   4.402   2.522 -0.5672  0.0900 -0.2903
  199SOD    SOD22327   3.490   5.134   1.432  0.3107 -0.0492  0.4515
  200SOD    SOD22328   5.651   0.227   1.966 -0.1599  0.4532 -0.6819
  201SOD    SOD22329   6.055   2.996   7.010 -0.0541  0.1193 -0.1800
  202SOD    SOD22330   1.640   0.405   8.493  0.4732  0.5378  0.0305
  203SOD    SOD22331   0.374   3.537   8.723  0.1842 -0.2790 -0.5003
  204SOD    SOD22332   0.091   1.485   2.461 -0.0835  0.1695 -0.1053
  205SOD    SOD22333   6.701   0.451   7.988 -0.0457  0.0960  0.3579
  206SOD    SOD22334   1.974   2.356   1.417  0.3049  0.1418 -0.2897
  207SOD    SOD22335   3.656   3.646   7.910  0.3467 -0.2270  0.0262
  208SOD    SOD22336   5.866   2.644   0.814  0.0436 -0.0065  0.0472
  209SOD    SOD22337   3.284   5.633   2.762  0.0428 -0.3973 -0.5419
  210SOD    SOD22338   3.515   3.682   1.829 -0.8362 -0.2575  0.4204
  211SOD    SOD22339   5.188   2.805   0.263  0.3410 -0.0940 -0.0263
  212SOD    SOD22340   4.185   3.366   8.835 -0.1204 -0.0708  0.1499
  213SOD    SOD22341   1.323   5.976   2.089 -0.4718  0.0228 -0.4398
  214SOD    SOD22342   1.513   2.383   1.187 -0.5760  0.2204  0.6749
  215SOD    SOD22343   3.640   0.378   8.340 -0.6058  0.4546  0.1108
  216SOD    SOD22344   3.633   1.924   8.895  0.4232 -0.2839  0.2185
  217SOD    SOD22345   5.544   3.868   0.620 -0.2916 -0.1881  0.0123
  218SOD    SOD22346   1.830   5.135   7.695  0.0444 -0.0088  0.0582
  219SOD    SOD22347   0.867   4.572   7.396 -0.7997 -0.3801  0.1186
  220SOD    SOD22348   6.026   6.146   7.832  0.0050  0.0973 -0.6519
  221SOD    SOD22349   1.745   4.566   0.387  0.3434  0.0215  0.9029
  222SOD    SOD22350   3.730   6.556   1.157  0.4000  0.4837  0.3477
  223SOD    SOD22351   3.565   4.074   7.076 -0.1078  0.1560  0.4971
  224SOD    SOD22352   5.905   3.229   1.426  0.3254  0.1513  0.0873
  225SOD    SOD22353   3.068   2.299   0.965 -0.4901  0.3603 -0.1680
  226SOD    SOD22354   3.676   4.451   1.547  0.4177  0.1006 -0.4707
  227SOD    SOD22355   0.366   5.483   8.277  0.2817 -0.1906  0.5666
  228SOD    SOD22356   5.871   2.138   1.478  0.3385  0.6198 -0.3457
  229SOD    SOD22357   6.553   1.426   0.581 -0.0214  0.0778 -0.0962
  230CLA    CLA22358   3.544   1.911   8.644 -0.6080  0.3587 -0.0484
  231CLA    CLA22359   2.221   2.036   1.960  0.1361 -0.0190 -0.2772
  232CLA    CLA22360   0.211   5.327   8.419 -0.2506 -0.2359  0.1048
  233CLA    CLA22361   3.177   0.832   0.188  0.0936 -0.2422  0.0244
  234CLA    CLA22362   5.110   5.971   0.936 -0.0838  0.1761 -0.0699
  235CLA    CLA22363   5.636   1.738   1.694 -0.3617 -0.2084 -0.0829
  236CLA    CLA22364   3.340   5.915   1.369  0.1455  0.1074 -0.3931
  237CLA    CLA22365   3.588   6.009   2.344 -0.4303  0.3514 -0.4550
  238CLA    CLA22366   2.584   1.346   0.373  0.2566 -0.1678  0.1700
  239CLA    CLA22367   3.908   3.762   8.383 -0.9353  0.0467  0.1691
  240CLA    CLA22368   4.735   2.668   0.075 -0.0929 -0.0063 -0.1501
  241CLA    CLA22369   4.472   2.944   7.703  0.1738 -0.4374 -0.1889
  242CLA    CLA22370   5.745   4.028   0.257  0.1971  0.1753  0.4780
  243CLA    CLA22371   5.267   3.294   0.275  0.2215  0.0037 -0.0571
  244CLA    CLA22372   4.164   5.956   8.275 -0.2799 -0.0029 -0.1409
  245CLA    CLA22373   3.677   4.754   1.157  0.0344  0.3745  0.1262
  246CLA    CLA22374   6.621   3.833   7.589 -0.1068 -0.2036 -0.1353
  247TIP3   OH222375   2.558   5.937   7.142 -0.4592 -0.2157 -0.3098
  247TIP3    H122376   2.616   5.997   7.093 -0.9952  1.1596  0.6766
  247TIP3    H222377   2.565   5.966   7.233 -2.1919 -0.4275 -0.0729
  248TIP3   OH222378   4.862   1.740   8.342  0.1872  0.4844 -0.4196
  248TIP3    H122379   4.781   1.689   8.344  0.0863  0.6271 -0.8806
  248TIP3    H222380   4.884   1.747   8.249  0.4835  0.8372 -0.3232
  249TIP3   OH222381   6.211   2.413   8.647 -0.4816  0.1944  0.6798
  249TIP3    H122382   6.230   2.462   8.726  1.4252 -0.5487  0.7430
  249TIP3    H222383   6.117   2.395   8.651 -0.8451  2.0837  1.6224
  250TIP3   OH222384   1.406   4.633   8.495  0.2740 -0.2628  0.0855
  250TIP3    H122385   1.482   4.607   8.443  0.7916 -1.2518  1.3065
  250TIP3    H222386   1.363   4.551   8.517 -0.9896  0.2687 -0.3109
  251TIP3   OH222387   4.229   5.705   6.930 -0.2646 -0.3683  0.1944
  251TIP3    H122388   4.310   5.711   6.981  0.1985 -1.0470 -0.4455
  251TIP3    H222389   4.234   5.777   6.868 -0.5893  0.1464  0.7506
  252TIP3   OH222390   1.022   3.909   0.705  0.1499  0.3123 -0.1307
  252TIP3    H122391   0.987   3.988   0.663  0.0842 -0.2936 -1.2597
  252TIP3    H222392   1.017   3.927   0.798 -4.7230 -0.3076 -0.0397
  253TIP3   OH222393   2.922   2.543   2.262 -0.3527  0.4231  0.0378
  253TIP3    H122394   2.979   2.555   2.337 -1.2514  3.5745  0.3567
  253TIP3    H222395   2.982   2.528   2.188  0.5533 -1.9090  1.1411
  254TIP3   OH222396   2.417   2.651   8.340 -0.5627 -0.3726  0.3410
  254TIP3    H122397   2.472   2.576   8.363  1.5523  1.4092  1.3889
  254TIP3    H222398   2.359   2.618   8.271  1.8683 -2.3573 -0.8854
  255TIP3   OH222399   3.727   4.654   0.226  0.2646  0.4664  0.1123
  255TIP3    H122400   3.796   4.653   0.292  0.8440 -1.3966 -0.4622
  255TIP3    H222401   3.650   4.618   0.271  0.6444 -0.7518 -0.1723
  256TIP3   OH222402   0.232   1.761   1.766 -0.0046  0.4223  0.0874
  256TIP3    H122403   0.164   1.814   1.723  0.4063  1.3055  0.5045
  256TIP3    H222404   0.191   1.732   1.847  0.3709  1.6509  0.7423
  257TIP3   OH222405   0.904   0.903   7.554  0.0271  0.4545  0.3733
  257TIP3    H122406   0.879   0.987   7.593 -2.3020 -0.3843  0.8702
  257TIP3    H222407   0.822   0.854   7.548  1.3189 -1.8422  0.1894
  258TIP3   OH222408   5.784   2.154   1.884  0.9427  0.2098 -0.3137
  258TIP3    H122409   5.785   2.248   1.867  1.7167  0.0591 -1.1540
  258TIP3    H222410   5.809   2.146   1.976 -1.2553  0.9201  0.3981
  259TIP3   OH222411   5.995   4.916   2.855 -0.1327  0.0011 -0.4742
  259TIP3    H122412   5.918   4.962   2.820 -0.0029 -0.1924 -1.0318
  259TIP3    H222413   5.990   4.829   2.816 -0.6266 -0.6263  0.9239
  260TIP3   OH222414   3.874   1.411   0.776  0.4386 -0.1129 -0.2573
  260TIP3    H122415   3.956   1.365   0.790  0.6609  0.2561 -0.3175
  260TIP3    H222416   3.809   1.360   0.823  0.0495 -2.3684 -2.9802
  261TIP3   OH222417   3.141   1.716   1.457  0.1340  0.3947 -0.0599
  261TIP3    H122418   3.146   1.787   1.393  3.6329 -0.5614 -1.0283
  261TIP3    H222419   3.213   1.734   1.519 -1.4547 -0.1734  2.0906
  262TIP3   OH222420   0.083   3.501   0.016 -0.0118 -0.3440 -0.2542
  262TIP3    H122421   0.155   3.455  -0.027 -0.4583 -1.4593  0.1569
  262TIP3    H222422   0.123   3.544   0.092  1.0485  2.7217 -2.3701
  263TIP3   OH222423   5.743   2.475   0.693 -0.1118 -0.5474 -0.2849
  263TIP3    H122424   5.717   2.424   0.770  3.0621 -1.7687  0.1334
  263TIP3    H222425   5.688   2.442   0.622  0.5438 -3.3584  0.3887
  264TIP3   OH222426   4.386   3.202   8.861 -0.0007  0.5539  0.0675
  264TIP3    H122427   4.437   3.218   8.940  0.1383  0.0739  0.0773
  264TIP3    H222428   4.373   3.107   8.859  0.0132  0.5588 -0.4935
  265TIP3   OH222429   4.277   6.130   0.878 -0.1345 -0.5534 -0.3741
  265TIP3    H122430   4.317   6.215   0.862 -0.7035 -0.0822  0.6514
  265TIP3    H222431   4.221   6.143   0.955 -0.3124 -1.8226 -0.2658
  266TIP3   OH222432   3.948   6.001   1.247 -0.3662  0.6288 -0.2948
  266TIP3    H122433   3.876   6.064   1.249 -1.6100 -0.7603  1.3576
  266TIP3    H222434   4.002   6.024   1.323  0.5013  1.1261 -1.0354
  267TIP3   OH222435   2.881   2.219   0.122 -0.9279 -0.4366 -0.2767
  267TIP3    H122436   2.865   2.133   0.160 -1.7713 -0.9138 -1.6098
  267TIP3    H222437   2.801   2.239   0.073 -1.2948  1.7289  1.0825
  268TIP3   OH222438   2.468   1.200   2.353 -0.3386 -0.3129  0.1518
  268TIP3    H122439   2.378   1.229   2.364 -0.2842  0.8047 -1.9075
  268TIP3    H222440   2.460   1.111   2.318 -0.7606  0.6240 -2.3046
  269TIP3   OH222441   1.548   6.750   8.677  0.5620  0.2087  0.2605
  269TIP3    H122442   1.636   6.777   8.702  0.7562 -0.2651  0.0972
  269TIP3    H222443   1.556   6.723   8.585 -0.0530  1.5092 -0.2136
  270TIP3   OH222444   2.694   5.805   8.263  0.1302 -0.5539  0.2471
  270TIP3    H122445   2.734   5.806   8.350  0.0002  1.0702  0.3209
  270TIP3    H222446   2.608   5.846   8.275  0.8453  1.4188 -0.9453
  271TIP3   OH222447   1.244   4.248   0.641 -0.2279  0.2539  0.3644
  271TIP3    H122448   1.266   4.155   0.654  0.3875  0.2420 -0.6574
  271TIP3    H222449   1.149   4.251   0.648 -0.2974 -0.5457 -0.0723
  272TIP3   OH222450   5.579   5.509   8.007  0.2251  0.2130  0.0132
  272TIP3    H122451   5.600   5.527   7.915 -1.1181  0.6608 -0.2261
  272TIP3    H222452   5.518   5.578   8.032  1.6348  0.9205  1.6906
  273TIP3   OH222453   1.165   2.705   1.669 -0.3417 -0.2508 -0.2247
  273TIP3    H122454   1.196   2.686   1.758 -0.4942  0.3039 -0.0467
  273TIP3    H222455   1.095   2.641   1.654 -0.3416 -0.3212  0.0683
  274TIP3   OH222456   0.045   4.737   8.445  0.0987 -0.7218  0.0140
  274TIP3    H122457  -0.007   4.776   8.375 -0.3065 -0.5858  0.3897
  274TIP3    H222458   0.119   4.797   8.456 -1.3469  0.8674  1.6905
  275TIP3   OH222459   3.364   0.569   8.553 -0.5309  0.0964 -0.0970
  275TIP3    H122460   3.359   0.626   8.476  3.3403  0.9585  0.0917
  275TIP3    H222461   3.357   0.628   8.628  3.5538  0.6104  0.1003
  276TIP3   OH222462   3.984   2.149   0.981  0.0157  0.2829 -0.6832
  276TIP3    H122463   3.935   2.227   0.955 -0.5842  0.4452  0.8524
  276TIP3    H222464   3.948   2.079   0.926 -2.2495  0.3223  0.6626
  277TIP3   OH222465   3.287   2.149   8.258 -0.3462  0.0762  0.4953
  277TIP3    H122466   3.224   2.148   8.186  1.6302 -2.3923 -1.4251
  277TIP3    H222467   3.235   2.131   8.336 -2.2927  0.5938 -0.6086
  278TIP3   OH222468   0.581   6.448   1.068 -0.3224 -0.2517 -0.1427
  278TIP3    H122469   0.496   6.493   1.058 -0.2469 -0.3721 -1.4361
  278TIP3    H222470   0.588   6.393   0.990  0.2724 -1.4004  0.6983
  279TIP3   OH222471   1.508   4.055   1.001 -0.3428 -0.1516 -0.4476
  279TIP3    H122472   1.591   4.009   0.996  1.4845  2.1588  3.5280
  279TIP3    H222473   1.527   4.144   0.971 -1.7801  0.0899 -0.7512
  280TIP3   OH222474   4.687   6.131   8.948  0.1362  0.0707  0.1554
  280TIP3    H122475   4.636   6.081   9.010 -2.0773  0.2387 -1.4159
  280TIP3    H222476   4.717   6.208   8.997 -0.0766 -0.6498  1.4348
  281TIP3   OH222477   2.051   3.894   2.086  0.0769  0.0757 -0.1207
  281TIP3    H122478   2.078   3.929   2.171 -2.9667 -0.6033  1.3065
  281TIP3    H222479   2.078   3.960   2.023  1.9994  0.8659  1.4074
  282TIP3   OH222480   1.547   6.559   7.808 -0.5780  0.2168 -0.2968
  282TIP3    H122481   1.583   6.529   7.725  0.6499  1.4077 -0.2206
  282TIP3    H222482   1.472   6.501   7.824 -0.3028 -0.5892 -1.7824
  283TIP3   OH222483   1.981   1.572   0.488 -0.7856  0.0611  0.1695
  283TIP3    H122484   2.000   1.616   0.405 -1.1693 -0.2215 -0.0786
  283TIP3    H222485   2.063   1.573   0.536 -0.0456 -1.3946 -0.9868
  284TIP3   OH222486   2.520   5.965   0.227 -0.9335 -0.6294  0.1302
  284TIP3    H122487   2.485   6.044   0.186  0.0955 -0.6130 -0.7655
  284TIP3    H222488   2.528   5.902   0.155  0.0515 -0.9061  0.4605
  285TIP3   OH222489   5.311   1.103   0.232  0.3188  0.1326 -0.1118
  285TIP3    H122490   5.388   1.060   0.197 -0.7379 -0.8824 -1.2910
  285TIP3    H222491   5.340   1.143   0.314  1.6329 -1.8138  0.4266
  286TIP3   OH222492   0.872   3.671   8.584  0.1702 -0.4033  0.0222
  286TIP3    H122493   0.868   3.650   8.677 -0.6508  0.3721  0.1768
  286TIP3    H222494   0.918   3.755   8.580  0.8287 -0.7771 -0.3332
  287TIP3   OH222495   4.967   4.521   0.487  0.0756 -0.1849 -0.1553
  287TIP3    H122496   4.912   4.586   0.443 -1.0845 -0.6132  0.6102
  287TIP3    H222497   4.954   4.440   0.439 -1.1175 -0.6303  0.8672
  288TIP3   OH222498   2.202   5.380   8.469  0.4257  0.1078 -0.6072
  288TIP3    H122499   2.258   5.304   8.483 -0.6885 -0.7693 -0.7722
  288TIP3    H222500   2.200   5.392   8.374 -1.8949 -1.6526 -0.8598
  289TIP3   OH222501   3.333   1.528   7.093  0.2674  0.0488 -0.3751
  289TIP3    H122502   3.426   1.534   7.113  0.0395 -1.1408  1.2049
  289TIP3    H222503   3.321   1.439   7.059 -0.4007 -0.0371  0.0766
  290TIP3   OH222504   3.614   1.666   8.414  0.6614 -0.1063 -0.4419
  290TIP3    H122505   3.551   1.599   8.443  1.0693 -0.2565  0.1249
  290TIP3    H222506   3.653   1.698   8.496 -0.3257  1.6305 -0.6003
  291TIP3   OH222507   3.188   1.758   8.227  0.0151  0.0614  0.0356
  291TIP3    H122508   3.253   1.769   8.158  0.1828  0.2804  0.2229
  291TIP3    H222509   3.164   1.666   8.224  1.9611 -0.5614  1.3791
  292TIP3   OH222510   6.216   4.317   1.160  0.1759  0.0527  0.1080
  292TIP3    H122511   6.214   4.352   1.249  1.3845 -1.6805  0.8774
  292TIP3    H222512   6.171   4.383   1.108 -1.8325  0.4884  2.2031
  293TIP3   OH222513   4.652   3.507   1.489  0.0420 -0.2185 -0.4746
  293TIP3    H122514   4.569   3.516   1.536  0.7874  3.4706  0.4208
  293TIP3    H222515   4.713   3.471   1.554 -0.1977 -0.3075 -0.2981
  294TIP3   OH222516   3.983   1.328   2.617  0.4882 -0.0730 -0.0780
  294TIP3    H122517   4.078   1.318   2.610  0.5368 -0.3418  0.7775
  294TIP3    H222518   3.963   1.301   2.707 -0.3482  0.3763 -0.1205
  295TIP3   OH222519   6.311   2.511   1.750 -0.0932 -0.2365 -0.4644
  295TIP3    H122520   6.350   2.549   1.829 -1.5675  1.6504 -0.5762
  295TIP3    H222521   6.218   2.505   1.770 -0.5873  0.8267 -2.2550
  296TIP3   OH222522   2.700   6.422   7.010 -0.3519  0.2137 -0.1403
  296TIP3    H122523   2.637   6.378   6.953 -0.1185 -0.6314  0.2429
  296TIP3    H222524   2.779   6.430   6.956  0.2051 -1.4923  0.3397
  297TIP3   OH222525   4.251   2.729   1.906 -0.1065 -0.7385  0.4130
  297TIP3    H122526   4.284   2.726   1.816  0.0790 -0.8969  0.4865
  297TIP3    H222527   4.318   2.777   1.954 -1.3414  1.5617 -0.0226
  298TIP3   OH222528   1.262   3.005   1.664 -0.1256 -0.6470  0.3558
  298TIP3    H122529   1.220   2.921   1.648 -1.2043  0.2006 -1.5953
  298TIP3    H222530   1.356   2.986   1.660 -0.3534 -1.5888 -1.0699
  299TIP3   OH222531   0.264   0.039   6.892 -0.0486  0.6694 -0.0391
  299TIP3    H122532   0.302   0.082   6.816  0.4792 -1.2266 -0.8981
  299TIP3    H222533   0.170   0.036   6.874  0.3085 -2.3697 -2.1329
  300TIP3   OH222534   6.248   3.120   1.699 -0.5826 -0.2746 -0.0719
  300TIP3    H122535   6.190   3.154   1.632 -0.0644 -0.3057 -0.5419
  300TIP3    H222536   6.336   3.145   1.670 -0.3015 -0.8608  0.2573
  301TIP3   OH222537   4.337   2.452   8.303 -0.4562 -0.3108 -0.1527
  301TIP3    H122538   4.247   2.456   8.336 -0.4540  0.3096 -0.2103
  301TIP3    H222539   4.327   2.437   8.209 -0.4710 -1.4377  0.0097
  302TIP3   OH222540   0.421   0.232   0.002  0.4012  0.0491  0.1672
  302TIP3    H122541   0.349   0.271  -0.047  0.2491 -0.7108 -0.2272
  302TIP3    H222542   0.478   0.306   0.024  0.8189  0.3456 -1.7246
  303TIP3   OH222543   2.017   2.631   7.973 -0.0692 -0.1068  0.0655
  303TIP3    H122544   1.994   2.615   7.882 -0.4685  0.3560  0.0778
  303TIP3    H222545   2.091   2.691   7.970  0.2652 -0.5145  0.0437
  304TIP3   OH222546   3.121   2.820   0.180  0.1039  0.4803  0.0907
  304TIP3    H122547   3.027   2.838   0.169  0.0167  0.9078  1.4113
  304TIP3    H222548   3.130   2.793   0.271  1.1582 -0.3812 -0.2528
  305TIP3   OH222549   5.284   6.545   7.135  0.2652 -0.5150  0.2586
  305TIP3    H122550   5.240   6.486   7.073 -1.1549  1.3015 -0.5527
  305TIP3    H222551   5.278   6.631   7.095  0.7583  0.4754  2.1950
  306TIP3   OH222552   3.157   6.471   2.023  0.6196 -0.2671  0.6784
  306TIP3    H122553   3.124   6.555   2.055  1.2390  0.6491 -0.9567
  306TIP3    H222554   3.163   6.416   2.101  0.7345  1.3867  1.8878
  307TIP3   OH222555   2.923   4.464   0.250  0.0411  0.4294  0.3999
  307TIP3    H122556   3.006   4.491   0.212  0.2886 -0.1401  0.5153
  307TIP3    H222557   2.945   4.442   0.341 -0.1724 -0.0195  0.3452
  308TIP3   OH222558   5.906   5.795   8.893  0.1319  0.2187  0.1393
  308TIP3    H122559   5.953   5.806   8.975  1.0611  0.9461 -0.4650
  308TIP3    H222560   5.847   5.721   8.908  1.0750 -0.3628  1.1050
  309TIP3   OH222561   0.380   5.742   7.452  0.1663 -0.2954 -0.8156
  309TIP3    H122562   0.304   5.740   7.394 -0.3658 -0.4704 -0.1308
  309TIP3    H222563   0.454   5.758   7.394 -0.1688 -1.8258 -1.7301
  310TIP3   OH222564   6.007   5.321   0.653  0.5374 -0.1813 -0.5682
  310TIP3    H122565   5.985   5.403   0.609  0.3289 -0.3527 -0.7798
  310TIP3    H222566   6.065   5.348   0.725 -0.0792  0.2297 -0.2122
  311TIP3   OH222567   2.064   0.565   1.778  1.0034  0.0298 -0.0718
  311TIP3    H122568   2.023   0.532   1.858  2.3944 -1.2207  0.1740
  311TIP3    H222569   2.029   0.509   1.708  2.5655 -1.4129  0.2086
  312TIP3   OH222570   5.844   4.787   0.340 -0.2280  0.5799  0.0312
  312TIP3    H122571   5.888   4.709   0.309  2.3608  1.7744  0.4330
  312TIP3    H222572   5.836   4.843   0.263  2.2713  1.7723  0.5289
  313TIP3   OH222573   5.468   5.948   7.062  0.0626  0.5215  0.0773
  313TIP3    H122574   5.423   5.867   7.086  0.3845  0.6421  1.1308
  313TIP3    H222575   5.401   6.016   7.071  0.2849  0.6211  1.0644
  314TIP3   OH222576   2.383   5.141   8.446  0.4679  0.9412 -0.0295
  314TIP3    H122577   2.402   5.076   8.514  2.2435 -0.4143 -1.7143
  314TIP3    H222578   2.340   5.092   8.377 -0.5920  2.1445 -0.2515
  315TIP3   OH222579   0.029   3.469   7.956  0.3918 -0.0300  0.0846
  315TIP3    H122580  -0.025   3.548   7.952  0.2560 -0.1393 -0.2573
  315TIP3    H222581   0.019   3.438   8.046 -1.6245 -1.0767 -0.4296
  316TIP3   OH222582   2.567   3.871   2.361 -0.2929  0.1823 -0.1200
  316TIP3    H122583   2.521   3.848   2.281 -1.0342  1.2946 -0.0337
  316TIP3    H222584   2.640   3.926   2.333 -0.9647  1.1603  0.0100
  317TIP3   OH222585   4.675   6.056   1.784  0.2549 -0.7627  0.1870
  317TIP3    H122586   4.586   6.086   1.765 -0.3199 -1.5983  1.4327
  317TIP3    H222587   4.675   6.041   1.879  1.7347 -0.7630  0.2046
  318TIP3   OH222588   5.322   5.817   8.814 -0.3306 -0.8027  0.6592
  318TIP3    H122589   5.411   5.781   8.813  0.3449  0.7853  0.5495
  318TIP3    H222590   5.283   5.781   8.893  1.3979  0.6829  2.2880
  319TIP3   OH222591   4.964   1.436   7.504 -0.7413  0.2487 -0.1302
  319TIP3    H122592   4.882   1.431   7.455 -2.6492 -0.3214  2.8570
  319TIP3    H222593   5.007   1.352   7.487 -0.1575  0.9830 -2.5919
  320TIP3   OH222594   0.814   5.207   6.872  0.0495  0.4672  0.4822
  320TIP3    H122595   0.890   5.194   6.929  0.2020  1.0425  0.4082
  320TIP3    H222596   0.774   5.120   6.865  0.2050  0.3385  1.2150
  321TIP3   OH222597   3.508   4.647   0.787 -0.1792  0.6177 -0.3856
  321TIP3    H122598   3.530   4.564   0.745  0.2252 -0.7732  2.3483
  321TIP3    H222599   3.590   4.697   0.788  0.1907  0.0037  0.1615
  322TIP3   OH222600   6.083   5.199   8.722 -0.0995  0.0825 -0.5355
  322TIP3    H122601   6.148   5.268   8.711 -0.9862  0.9714 -0.3444
  322TIP3    H222602   6.131   5.128   8.765  0.6746  0.8276 -0.1363
  323TIP3   OH222603   4.323   3.128   7.491  0.8007 -0.1334  0.3661
  323TIP3    H122604   4.268   3.054   7.465  1.0543  0.1138 -0.9388
  323TIP3    H222605   4.371   3.096   7.567 -0.9978 -0.4153  1.4400
  324TIP3   OH222606   0.133   6.599   1.511 -0.0591 -0.0219  0.3073
  324TIP3    H122607   0.064   6.540   1.540  1.2819 -1.4960  0.6507
  324TIP3    H222608   0.148   6.657   1.586  0.9022 -1.4655  1.2886
  325TIP3   OH222609   2.565   1.329   8.166 -0.5723  0.4319 -0.3613
  325TIP3    H122610   2.625   1.319   8.240  3.4123  2.0801 -3.0176
  325TIP3    H222611   2.545   1.240   8.139  2.0274 -0.2922 -0.2072
  326TIP3   OH222612   5.188   2.990   8.454 -0.4229 -0.2752  0.5627
  326TIP3    H122613   5.102   2.965   8.420 -0.6717 -0.1807  1.1215
  326TIP3    H222614   5.185   3.086   8.457 -0.5542 -0.3015  1.2516
  327TIP3   OH222615   4.843   5.921   6.534  0.6473 -0.7019 -0.1960
  327TIP3    H122616   4.935   5.903   6.554  0.9599  1.9440  1.2556
  327TIP3    H222617   4.814   5.979   6.605 -1.8953 -0.7590 -1.0930
  328TIP3   OH222618   0.494   4.555   1.771  0.7452 -0.4513  0.2477
  328TIP3    H122619   0.539   4.483   1.726  0.8584 -1.1205  1.3959
  328TIP3    H222620   0.403   4.546   1.742  1.0171 -0.1017 -0.7917
  329TIP3   OH222621   6.166   6.467   8.670 -0.1522  0.1920  0.0917
  329TIP3    H122622   6.108   6.392   8.660 -0.2093  0.2158  0.2368
  329TIP3    H222623   6.237   6.436   8.727 -1.7003  1.0623  2.6604
  330TIP3   OH222624   0.971   1.356   7.563  0.3958  0.5857  0.9084
  330TIP3    H122625   0.928   1.433   7.602  1.7629  1.4483  0.8005
  330TIP3    H222626   0.900   1.309   7.519 -0.0898  3.5659 -1.9409
  331TIP3   OH222627   3.283   6.385   7.207  0.9419  0.2611 -0.0195
  331TIP3    H122628   3.255   6.317   7.147  0.7056 -1.1016  1.5568
  331TIP3    H222629   3.378   6.375   7.213  1.0287  0.7234 -0.5165
  332TIP3   OH222630   0.127   2.116   7.762  0.2565 -0.4466  0.0829
  332TIP3    H122631   0.096   2.099   7.851 -0.7090  0.9194  0.0491
  332TIP3    H222632   0.063   2.072   7.706 -0.2754  0.3488  0.0502
  333TIP3   OH222633   2.491   4.052   0.704 -0.4275 -0.7483 -0.2809
  333TIP3    H122634   2.454   4.000   0.634 -0.2594 -2.0802  0.5794
  333TIP3    H222635   2.537   4.123   0.660 -2.3108 -0.1738 -1.4150
  334TIP3   OH222636   3.296   5.147   1.301  0.0963  0.3411 -0.4242
  334TIP3    H122637   3.252   5.230   1.282  1.6860  0.6291 -3.5718
  334TIP3    H222638   3.241   5.081   1.259 -0.2746 -0.0374  0.6185
  335TIP3   OH222639   0.296   6.691   1.301  0.0839 -0.0605  0.2072
  335TIP3    H122640   0.254   6.640   1.370  0.5963 -0.8734 -0.0685
  335TIP3    H222641   0.235   6.763   1.284 -0.4310 -0.3160  0.9289
  336TIP3   OH222642   2.032   6.127   7.831  0.4157 -0.2198 -0.6505
  336TIP3    H122643   2.034   6.080   7.748 -4.2468  1.5720 -2.0905
  336TIP3    H222644   1.959   6.088   7.879  0.7567  1.1156  1.0511
  337TIP3   OH222645   4.680   3.310   8.836 -0.5529 -0.2234  0.2464
  337TIP3    H122646   4.618   3.295   8.765 -1.5032  0.2388  0.9626
  337TIP3    H222647   4.758   3.260   8.810 -1.5722 -1.6684 -0.1770
  338TIP3   OH222648   1.160   2.252   8.544  0.6404 -0.7325 -0.8669
  338TIP3    H122649   1.253   2.249   8.568  0.5675  1.6354  0.0664
  338TIP3    H222650   1.159   2.266   8.450  1.1583 -2.2042 -1.1169
  339TIP3   OH222651   0.518   1.166   7.253 -0.2822  0.3904  0.1870
  339TIP3    H122652   0.555   1.085   7.288 -0.7466 -0.2054 -0.6639
  339TIP3    H222653   0.586   1.200   7.195 -0.9451 -0.6493 -1.2932
  340TIP3   OH222654   6.081   2.047   1.479  0.1326 -0.4695 -0.0160
  340TIP3    H122655   6.102   1.968   1.528  0.2372 -1.3592 -1.4363
  340TIP3    H222656   6.165   2.074   1.441  0.2075  0.6635  0.8879
  341TIP3   OH222657   0.018   4.324   8.378  0.2717  0.0006 -0.6333
  341TIP3    H122658   0.037   4.320   8.285 -0.2125 -0.8195 -0.7078
  341TIP3    H222659  -0.075   4.346   8.383 -0.0303 -1.2498 -0.3838
  342TIP3   OH222660   0.959   0.862   0.841 -0.1504 -0.3181  0.0222
  342TIP3    H122661   0.959   0.828   0.752  3.6480  1.0672 -0.6943
  342TIP3    H222662   0.937   0.955   0.831 -1.5147 -0.5378  0.7989
  343TIP3   OH222663   3.947   5.446   2.675  0.0357  0.0090 -0.1180
  343TIP3    H122664   3.898   5.506   2.618 -0.4502 -0.7455 -0.5124
  343TIP3    H222665   3.936   5.482   2.763 -0.1075  0.5897 -0.3705
  344TIP3   OH222666   2.012   2.247   7.445 -0.5277  0.0614 -0.3098
  344TIP3    H122667   2.055   2.177   7.494 -0.9280 -0.3361 -0.5153
  344TIP3    H222668   1.925   2.254   7.484 -0.7226 -0.0149 -0.7206
  345TIP3   OH222669   2.292   1.653   0.506 -0.3528 -0.0572  0.8511
  345TIP3    H122670   2.385   1.631   0.496 -0.2120 -0.4988  2.8279
  345TIP3    H222671   2.292   1.743   0.538 -0.6899  0.4064 -0.3723
  346TIP3   OH222672   2.253   0.931   0.967  0.4328  0.2495 -0.3299
  346TIP3    H122673   2.222   0.991   1.035 -0.8366 -0.6976 -0.0378
  346TIP3    H222674   2.181   0.928   0.903  0.6708 -0.5972 -0.5708
  347TIP3   OH222675   5.453   4.092   0.143 -0.4580  0.4873  0.0196
  347TIP3    H122676   5.539   4.068   0.176 -0.5838  0.8156  0.6083
  347TIP3    H222677   5.407   4.127   0.220 -1.2092  0.0535 -0.2165
  348TIP3   OH222678   3.015   1.680   7.876  0.0851  0.1187  0.3348
  348TIP3    H122679   2.969   1.733   7.811 -0.2362  0.3861  0.7741
  348TIP3    H222680   2.964   1.691   7.956  1.0204  0.5735  0.8818
  349TIP3   OH222681   0.066   5.522   8.659 -0.1614  0.2969 -0.2833
  349TIP3    H122682   0.074   5.458   8.589 -2.3041 -0.2195 -0.1085
  349TIP3    H222683   0.072   5.607   8.615 -1.5614 -0.0200 -1.1287
  350TIP3   OH222684   6.133   3.256   0.899  0.0496 -0.0467  0.3147
  350TIP3    H122685   6.051   3.221   0.866 -0.1515  2.4072 -2.1533
  350TIP3    H222686   6.147   3.337   0.849  2.1989  1.5099  3.1137
  351TIP3   OH222687   4.045   2.176   7.176 -0.0571 -0.2412  0.7201
  351TIP3    H122688   4.031   2.114   7.247  0.2603 -0.3033  0.7289
  351TIP3    H222689   4.134   2.209   7.189 -0.6376  1.1403  1.4424
  352TIP3   OH222690   4.500   2.885   0.564  0.5907 -0.2628  0.8507
  352TIP3    H122691   4.581   2.841   0.536  0.7584 -0.6426  1.8953
  352TIP3    H222692   4.443   2.880   0.488  0.6069 -2.3216  0.9274
  353TIP3   OH222693   4.833   0.129   8.918  0.8342 -0.0889  0.1241
  353TIP3    H122694   4.761   0.069   8.899  0.8793 -0.0758 -0.0902
  353TIP3    H222695   4.912   0.081   8.893  0.9364 -0.2851  0.8118
  354TIP3   OH222696   2.335   0.524   1.231 -0.5993  0.1249  0.2857
  354TIP3    H122697   2.335   0.465   1.155  2.4503  1.9088 -1.2946
  354TIP3    H222698   2.283   0.478   1.296 -1.5397 -2.5436 -2.1118
  355TIP3   OH222699   1.294   2.456   7.254 -0.3295  0.4238 -0.0597
  355TIP3    H122700   1.314   2.503   7.174 -0.5472  0.0303 -0.3528
  355TIP3    H222701   1.210   2.412   7.236 -1.8592  2.5579  1.3494
  356TIP3   OH222702   1.964   4.867   1.800  0.3525  0.0381  0.2198
  356TIP3    H122703   1.983   4.951   1.758  1.8823 -0.8311 -0.9157
  356TIP3    H222704   2.041   4.849   1.854  0.3717 -0.9823 -0.1382
  357TIP3   OH222705   1.484   3.256   8.261 -0.1315  0.1259 -0.0561
  357TIP3    H122706   1.484   3.167   8.297 -0.9625  0.0851 -0.1455
  357TIP3    H222707   1.575   3.271   8.235 -0.1768 -1.0591 -0.9531
  358TIP3   OH222708   5.461   0.315   7.047 -0.4305 -0.1850  0.5845
  358TIP3    H122709   5.536   0.262   7.071  0.5895  0.9184 -0.0665
  358TIP3    H222710   5.404   0.256   6.998  0.9598 -0.5526 -0.6541
  359TIP3   OH222711   5.905   2.140   8.313 -0.2959  0.3005  0.0367
  359TIP3    H122712   5.993   2.103   8.308  0.2365  1.5102 -0.0805
  359TIP3    H222713   5.889   2.150   8.407 -1.1246 -1.7126  0.1449
  360TIP3   OH222714   1.790   6.032   7.339 -0.2416 -0.7733  0.3286
  360TIP3    H122715   1.734   6.098   7.380 -1.1167 -0.3951 -1.3810
  360TIP3    H222716   1.857   6.013   7.405  1.9024  4.0660 -0.0173
  361TIP3   OH222717   2.197   2.499   7.430  0.4639 -0.2593  0.1378
  361TIP3    H122718   2.200   2.565   7.361  0.0993 -0.1027  0.2631
  361TIP3    H222719   2.197   2.415   7.384 -3.9822 -0.2292 -0.3877
  362TIP3   OH222720   5.433   2.287   7.634 -0.0226 -0.3565 -0.0198
  362TIP3    H122721   5.414   2.377   7.608 -0.5108 -0.8680 -1.5622
  362TIP3    H222722   5.347   2.249   7.650  0.2205 -0.3376  1.5033
  363TIP3   OH222723   1.571   5.983   8.557  0.6998 -0.2561 -0.1779
  363TIP3    H122724   1.584   6.077   8.547 -3.5968  0.4378 -1.6760
  363TIP3    H222725   1.627   5.958   8.630  2.9687  3.1469 -0.5236
  364TIP3   OH222726   1.002   4.905   8.484 -0.1149  0.1282  0.3402
  364TIP3    H122727   1.092   4.886   8.511 -0.3932 -1.1069  0.4810
  364TIP3    H222728   0.949   4.881   8.561 -0.7004 -0.9137 -0.3538
  365TIP3   OH222729   1.522   1.173   2.395  0.0201  0.1143  0.4985
  365TIP3    H122730   1.502   1.155   2.486  1.5255  3.3443  1.6070
  365TIP3    H222731   1.452   1.233   2.366 -0.2682 -0.6294 -0.4185
  366TIP3   OH222732   2.410   6.058   8.117  0.4967  0.4964  0.3443
  366TIP3    H122733   2.430   5.996   8.188 -0.6633  0.5421  0.7246
  366TIP3    H222734   2.401   6.143   8.161 -1.6519  0.2915  0.3817
  367TIP3   OH222735   1.387   4.976   8.175  0.8242  0.1269 -0.2307
  367TIP3    H122736   1.464   4.989   8.230  1.1746 -0.4528 -0.5714
  367TIP3    H222737   1.319   5.031   8.215  0.8219 -0.9073  1.2868
  368TIP3   OH222738   0.301   5.759   8.924 -0.0741  0.4763 -0.6327
  368TIP3    H122739   0.221   5.711   8.947  1.2892 -1.5398  0.1827
  368TIP3    H222740   0.271   5.848   8.906 -2.3048  0.2215  1.3142
  369TIP3   OH222741   5.062   3.781   2.098 -0.3157 -0.5080 -0.2864
  369TIP3    H122742   5.020   3.761   2.014 -1.7291 -1.0480  0.5200
  369TIP3    H222743   5.018   3.860   2.129  2.0984  1.3538 -1.2846
  370TIP3   OH222744   0.634   4.733   1.522 -0.0312 -0.4144 -0.1837
  370TIP3    H122745   0.618   4.759   1.613 -0.4227 -2.5784  0.4289
  370TIP3    H222746   0.547   4.715   1.486  0.2120 -0.8220 -0.5819
  371TIP3   OH222747   5.783   5.098   0.982  0.9278  0.1872  0.5585
  371TIP3    H122748   5.812   5.189   0.986 -0.0844  0.5105  0.8836
  371TIP3    H222749   5.846   5.056   0.925  0.4974  1.4691 -0.9494
  372TIP3   OH222750   5.785   1.636   8.625  0.1209 -0.5597 -0.8173
  372TIP3    H122751   5.805   1.721   8.587 -1.9686 -0.0698 -0.9406
  372TIP3    H222752   5.691   1.639   8.645 -0.0152 -2.8142 -0.7847
  373TIP3   OH222753   3.019   3.509   7.317  0.6974 -0.0987  0.0144
  373TIP3    H122754   2.954   3.574   7.345 -1.5468 -1.1001 -2.4198
  373TIP3    H222755   3.036   3.458   7.396  0.4306  1.7123  1.3202
  374TIP3   OH222756   5.601   5.252   8.842 -0.0578 -0.4035 -0.2009
  374TIP3    H122757   5.691   5.275   8.819 -0.2107  0.0341 -0.3758
  374TIP3    H222758   5.595   5.268   8.936 -0.4041  1.1074 -0.4671
  375TIP3   OH222759   2.447   1.271   1.332 -0.2158  0.2490  0.0388
  375TIP3    H122760   2.492   1.190   1.310 -1.5695 -0.0288 -1.9555
  375TIP3    H222761   2.459   1.280   1.427 -0.1433 -2.3341  0.3442
  376TIP3   OH222762   6.339   1.399   8.557 -0.7280  0.3648 -0.8300
  376TIP3    H122763   6.252   1.434   8.539 -0.5371  1.5400  0.3685
  376TIP3    H222764   6.355   1.421   8.649  0.5984 -0.3447 -0.8699
  377TIP3   OH222765   3.661   5.945   8.560 -0.2996  0.3941  0.1912
  377TIP3    H122766   3.730   5.918   8.500  1.8029  0.1773  2.4955
  377TIP3    H222767   3.700   5.933   8.647 -3.1342  0.6970  1.6093
  378TIP3   OH222768   5.922   5.904   6.972  0.6621  0.4879 -0.3496
  378TIP3    H122769   5.904   5.996   6.953  1.3849  0.5026 -1.0312
  378TIP3    H222770   6.005   5.886   6.928 -1.2948 -1.5393 -3.6927
  379TIP3   OH222771   2.766   0.354   7.017  0.3025 -0.0785 -0.2951
  379TIP3    H122772   2.821   0.383   6.944  0.4720  2.2438  0.6753
  379TIP3    H222773   2.677   0.377   6.990 -0.1174 -2.5713 -1.2704
  380TIP3   OH222774   4.998   6.202   6.874  0.2429  0.5939 -0.1167
  380TIP3    H122775   4.976   6.288   6.910 -2.7453 -0.5275  1.0107
  380TIP3    H222776   4.992   6.213   6.779  0.3398  1.7203 -0.0036
  381TIP3   OH222777   6.184   0.649   7.766 -0.4850  0.2407 -0.2340
  381TIP3    H122778   6.100   0.682   7.737 -1.1938  1.2377  2.6192
  381TIP3    H222779   6.168   0.556   7.784 -1.8702  0.9092  2.7300
  382TIP3   OH222780   2.594   0.421   2.596 -0.4837 -0.2913 -0.7335
  382TIP3    H122781   2.644   0.362   2.653 -2.3998  0.3069  1.7411
  382TIP3    H222782   2.503   0.411   2.625 -1.0123  3.2874 -0.7228
  383TIP3   OH222783   1.264   1.166   1.413 -0.9675 -0.1926  0.7264
  383TIP3    H122784   1.249   1.232   1.345  2.2656 -0.2375 -0.2285
  383TIP3    H222785   1.293   1.216   1.489 -0.5719 -0.3860  0.7032
  384TIP3   OH222786   4.433   4.089   0.014 -0.1828  0.1164  0.3182
  384TIP3    H122787   4.458   4.011  -0.036  1.3692  0.8575 -0.1044
  384TIP3    H222788   4.431   4.159  -0.051  1.7253  1.0773  1.2333
  385TIP3   OH222789   0.783   0.518   8.780 -0.5462  0.0658  0.2576
  385TIP3    H122790   0.829   0.494   8.700 -0.3658 -0.2624  0.4575
  385TIP3    H222791   0.691   0.498   8.762 -1.0477  3.0606 -1.0644
  386TIP3   OH222792   3.986   2.897   7.638 -0.0778  0.1175  0.0075
  386TIP3    H122793   3.900   2.938   7.627  0.1904  0.7704  0.2435
  386TIP3    H222794   3.990   2.830   7.570 -0.6596  0.2757 -0.1891
  387TIP3   OH222795   6.269   4.856   1.942  0.0752  0.0991  0.6190
  387TIP3    H122796   6.320   4.775   1.935 -0.3288 -0.1267  0.2261
  387TIP3    H222797   6.306   4.913   1.874  1.1560  0.7037  1.6683
  388TIP3   OH222798   4.660   3.705   2.204 -0.5841 -0.3084  0.0318
  388TIP3    H122799   4.750   3.675   2.219  0.4049  0.2657 -3.5990
  388TIP3    H222800   4.661   3.796   2.232 -0.1782 -0.4402  0.4652
  389TIP3   OH222801   1.645   0.482   0.784  0.1788  0.1936  0.4549
  389TIP3    H122802   1.593   0.441   0.853  0.4570 -0.5124  0.2530
  389TIP3    H222803   1.722   0.516   0.828 -0.4207  1.2039  0.7496
  390TIP3   OH222804   1.246   1.417   7.570  0.1957 -0.4699  0.2939
  390TIP3    H122805   1.156   1.384   7.575  0.0858  0.0037  2.3225
  390TIP3    H222806   1.237   1.505   7.533 -0.1546 -0.4801  0.3509
  391TIP3   OH222807   5.781   1.924   8.540  0.3485 -0.0708 -0.4966
  391TIP3    H122808   5.704   1.959   8.495 -0.2159 -0.6740 -0.0283
  391TIP3    H222809   5.823   2.001   8.578 -0.7746  0.1493  0.3692
  392TIP3   OH222810   0.953   5.883   1.364 -0.3877 -0.0366 -0.2884
  392TIP3    H122811   0.927   5.873   1.273 -1.7508 -1.5875  0.2232
  392TIP3    H222812   0.879   5.928   1.405  0.1606  0.5304  0.1115
  393TIP3   OH222813   1.118   4.805   1.858  0.5024  0.7025  0.1612
  393TIP3    H122814   1.035   4.758   1.866  1.5662 -1.7444 -1.9521
  393TIP3    H222815   1.183   4.747   1.897  1.6739  1.0806 -1.1565
  394TIP3   OH222816   6.304   5.723   8.591 -0.0924 -0.0807  0.4982
  394TIP3    H122817   6.378   5.768   8.552 -0.7356 -0.8678 -1.7917
  394TIP3    H222818   6.227   5.771   8.559 -0.8271 -2.8308 -2.3829
  395TIP3   OH222819   3.779   3.923   7.097 -0.7238 -0.0113  0.4129
  395TIP3    H122820   3.855   3.959   7.143 -1.0858 -0.0975  1.0973
  395TIP3    H222821   3.807   3.917   7.006 -0.7477  2.2814  0.1973
  396TIP3   OH222822   4.121   4.035   8.519 -0.2922 -0.6529 -0.1727
  396TIP3    H122823   4.167   3.972   8.574 -0.9195 -1.0176 -0.0689
  396TIP3    H222824   4.160   4.023   8.432  0.9612  0.1765  0.2372
  397TIP3   OH222825   0.009   1.770   8.049  0.0364 -0.1580 -0.3949
  397TIP3    H122826  -0.086   1.765   8.041 -0.1635  0.8918  0.8438
  397TIP3    H222827   0.032   1.854   8.010  0.6352 -0.9636 -1.8350
  398TIP3   OH222828   4.730   4.057   7.125  0.1000 -0.1642 -0.4946
  398TIP3    H122829   4.685   3.983   7.165  0.5695 -0.8093 -1.1411
  398TIP3    H222830   4.818   4.024   7.105  1.2209  1.3005  1.5288
  399TIP3   OH222831   3.505   0.902   0.600  0.1184  0.0192  0.2134
  399TIP3    H122832   3.448   0.832   0.567 -1.1254  0.6936  0.8453
  399TIP3    H222833   3.473   0.981   0.558  0.4037  0.4586  0.8055
  400TIP3   OH222834   1.191   0.374   1.593 -0.5758  0.3852 -0.0650
  400TIP3    H122835   1.193   0.422   1.675  0.3640  2.6137 -1.3104
  400TIP3    H222836   1.282   0.351   1.576 -0.8808 -0.9334 -0.0406
  401TIP3   OH222837   3.812   4.344   1.984 -0.6945 -0.3641 -0.1184
  401TIP3    H122838   3.861   4.330   2.065  0.2189  2.4032 -0.0729
  401TIP3    H222839   3.871   4.396   1.929 -1.8541 -0.9147 -1.9859
  402TIP3   OH222840   3.227   0.385   7.671  0.0581  0.3797 -0.2663
  402TIP3    H122841   3.151   0.412   7.723  1.0440 -1.2201  2.1454
  402TIP3    H222842   3.229   0.290   7.679  2.0121  0.3515 -0.7367
  403TIP3   OH222843   6.153   6.242   0.092  0.2637 -0.2539  0.5600
  403TIP3    H122844   6.185   6.288   0.169  1.7530  1.2190 -0.8629
  403TIP3    H222845   6.147   6.150   0.119  1.2038  0.1546  2.2743
  404TIP3   OH222846   3.279   1.360   2.616  0.4868  0.0093  0.4095
  404TIP3    H122847   3.296   1.295   2.683  2.7282  0.0942  0.0190
  404TIP3    H222848   3.280   1.311   2.534  1.6848  0.4005  0.1574
  405TIP3   OH222849   4.739   0.451   8.335  0.4161  0.4243 -0.0322
  405TIP3    H122850   4.729   0.466   8.429  0.9921  1.1299 -0.0753
  405TIP3    H222851   4.833   0.465   8.319  0.6346 -1.2936 -0.4327
  406TIP3   OH222852   3.763   5.858   8.141  0.1107  0.1252  0.6141
  406TIP3    H122853   3.668   5.853   8.140  0.0940 -0.5254 -2.0770
  406TIP3    H222854   3.787   5.842   8.233 -2.3183 -0.5521  1.2010
  407TIP3   OH222855   4.243   4.889   1.188 -0.3405  0.2987 -0.4888
  407TIP3    H122856   4.329   4.873   1.226 -0.7295 -0.6779 -0.0004
  407TIP3    H222857   4.220   4.977   1.219 -0.3401 -0.1908  0.9760
  408TIP3   OH222858   0.714   0.980   1.070  0.2396 -0.2216 -0.5806
  408TIP3    H122859   0.641   0.930   1.106  0.5190 -0.6597 -0.6241
  408TIP3    H222860   0.694   0.989   0.977 -0.3464  0.6775 -0.3845
  409TIP3   OH222861   1.199   5.974   1.226  0.1122 -0.1307 -0.1636
  409TIP3    H122862   1.131   5.928   1.277  0.1668 -1.3472 -1.1271
  409TIP3    H222863   1.258   6.010   1.291 -0.8426 -0.0384  0.6738
  410TIP3   OH222864   5.542   1.677   8.710  0.2008 -0.1183 -0.4303
  410TIP3    H122865   5.507   1.627   8.784  2.1607 -0.1342  0.5558
  410TIP3    H222866   5.465   1.718   8.670 -1.4271 -3.2345 -0.8166
  411TIP3   OH222867   4.831   2.843   8.494  0.5580  0.3795 -0.0526
  411TIP3    H122868   4.808   2.751   8.504  1.3799 -0.0769 -1.9549
  411TIP3    H222869   4.754   2.883   8.453  1.2557 -0.1155 -1.9248
  412TIP3   OH222870   2.221   1.637   1.053 -0.0145  0.5414  0.4474
  412TIP3    H122871   2.276   1.715   1.046 -0.0078  0.5049  0.0912
  412TIP3    H222872   2.256   1.590   1.129  0.3183  0.6219  0.3442
  413TIP3   OH222873   2.670   4.952   1.305 -0.1454 -0.2354 -0.2193
  413TIP3    H122874   2.712   4.971   1.221  0.0202 -0.0635 -0.0992
  413TIP3    H222875   2.578   4.941   1.284 -0.0678 -0.4303 -0.4586
  414TIP3   OH222876   5.111   4.642   1.294  0.0270  0.6994 -0.1904
  414TIP3    H122877   5.172   4.709   1.265  0.0933  0.1377 -1.3983
  414TIP3    H222878   5.024   4.677   1.274  0.0686  0.3532 -0.9794
  415TIP3   OH222879   6.432   4.414   0.871  0.2912 -0.2680 -0.3630
  415TIP3    H122880   6.343   4.378   0.878  0.1284 -0.1427 -1.5255
  415TIP3    H222881   6.486   4.357   0.925 -0.6395  0.1955  1.1161
  416TIP3   OH222882   3.846   6.735   1.065 -0.0187 -0.1701  0.0867
  416TIP3    H122883   3.922   6.792   1.070 -0.4975  0.4271  0.5625
  416TIP3    H222884   3.841   6.711   0.972  0.3592  0.3146 -0.0648
  417TIP3   OH222885   2.598   6.438   0.599 -0.3301  0.0355  0.0626
  417TIP3    H122886   2.600   6.346   0.570 -1.5113 -0.2055  0.6978
  417TIP3    H222887   2.507   6.465   0.586 -0.1837  0.8550  0.6872
  418TIP3   OH222888   4.115   4.669   0.071 -0.1943  0.3962 -0.0040
  418TIP3    H122889   4.048   4.601   0.081 -0.9199  0.8994 -1.1511
  418TIP3    H222890   4.195   4.630   0.105 -1.2010  0.0172  2.0318
  419TIP3   OH222891   2.208   1.439   7.677  0.5654  0.2278 -0.1693
  419TIP3    H122892   2.280   1.388   7.640 -0.7384 -0.2018 -2.2518
  419TIP3    H222893   2.147   1.373   7.710 -0.4776  0.4246 -1.6112
  420TIP3   OH222894   3.014   2.316   6.737 -0.3049 -0.1645 -0.5189
  420TIP3    H122895   3.014   2.236   6.683  0.0344 -0.3509 -0.2409
  420TIP3    H222896   3.099   2.317   6.780 -1.1909 -0.9333  1.3756
  421TIP3   OH222897   1.504   2.869   1.230  0.7131 -0.1943  0.5748
  421TIP3    H122898   1.581   2.852   1.283  0.9445 -1.0751 -0.0372
  421TIP3    H222899   1.537   2.885   1.142  0.1237 -1.9860 -0.0056
  422TIP3   OH222900   6.000   4.842   1.601 -0.0786  0.1425 -0.2192
  422TIP3    H122901   5.918   4.875   1.563  0.1729  0.2603 -0.6671
  422TIP3    H222902   6.069   4.888   1.553  0.2473  1.1784  1.1766
  423TIP3   OH222903   4.435   2.467   8.032  0.3734 -0.5826 -0.1870
  423TIP3    H122904   4.529   2.482   8.030  0.3925 -0.7191 -1.8822
  423TIP3    H222905   4.397   2.555   8.036  0.5583 -0.5161  0.1581
  424TIP3   OH222906   2.488   2.552   2.349  0.0357 -0.8132  0.5317
  424TIP3    H122907   2.540   2.626   2.380 -0.5871  0.2888 -0.9472
  424TIP3    H222908   2.553   2.484   2.330  0.9927  0.5084 -1.2005
  425TIP3   OH222909   5.420   0.979   8.956  0.1292  0.0575 -0.5679
  425TIP3    H122910   5.348   1.042   8.967  1.0301  0.7100  2.3575
  425TIP3    H222911   5.376   0.893   8.958 -0.6317  0.4104  1.8153
  426TIP3   OH222912   0.836   5.876   0.247  0.1616  0.0639  0.6131
  426TIP3    H122913   0.758   5.915   0.209  0.4887  1.2177  1.0630
  426TIP3    H222914   0.818   5.872   0.341  0.5624  0.1598  0.6980
  427TIP3   OH222915   5.228   1.933   8.114  0.8015  0.5501  0.6976
  427TIP3    H122916   5.319   1.914   8.091  1.4810  0.6945  3.0218
  427TIP3    H222917   5.233   1.991   8.191 -1.2274 -0.3200  1.5820
  428TIP3   OH222918   0.111   5.840   8.574  0.8788  0.1997 -0.7577
  428TIP3    H122919   0.197   5.883   8.580 -0.7659  3.6961  0.3974
  428TIP3    H222920   0.048   5.912   8.578 -2.2334 -2.3607  1.8226
  429TIP3   OH222921   3.326   3.985   0.850  0.3343 -0.0692  0.7145
  429TIP3    H122922   3.263   4.051   0.818 -0.6355 -0.8823  0.8960
  429TIP3    H222923   3.273   3.925   0.902  1.2782 -0.7907  0.8672
  430TIP3   OH222924   4.607   5.621   1.504 -0.4133  0.0291 -0.0801
  430TIP3    H122925   4.653   5.699   1.474 -0.5148  1.0612  2.2737
  430TIP3    H222926   4.610   5.626   1.599 -1.6333 -2.1412  0.1401
  431TIP3   OH222927   0.958   6.485   7.798 -0.2539 -0.1624  0.1657
  431TIP3    H122928   0.923   6.396   7.804 -1.3959  0.3129  0.9136
  431TIP3    H222929   0.971   6.500   7.705 -1.7798 -0.4785 -0.1149
  432TIP3   OH222930   5.332   0.516   8.170 -0.6150  0.2954 -0.0294
  432TIP3    H122931   5.410   0.466   8.195  0.5469  1.2901 -1.4666
  432TIP3    H222932   5.295   0.467   8.097  1.3926  2.1459 -2.4705
  433TIP3   OH222933   1.999   4.454   1.206 -0.0702  0.0614  0.6069
  433TIP3    H122934   2.014   4.385   1.141  0.9561 -0.5888  1.5153
  433TIP3    H222935   1.911   4.436   1.240 -0.0717 -0.4063  0.3636
  434TIP3   OH222936   1.474   0.033   7.698  0.2944  0.1899 -0.0189
  434TIP3    H122937   1.408   0.074   7.754 -1.9285 -0.7176 -1.8402
  434TIP3    H222938   1.475  -0.059   7.727  0.6634  0.1701 -0.0953
  435TIP3   OH222939   1.684   1.207   1.931  0.6978 -0.2453 -0.8546
  435TIP3    H122940   1.606   1.151   1.926  0.1725  0.1173  1.8848
  435TIP3    H222941   1.742   1.172   1.863 -0.1582 -3.2326 -0.2136
  436TIP3   OH222942   3.866   5.847   7.896 -0.0420 -0.3684  0.6518
  436TIP3    H122943   3.830   5.850   7.985 -1.8919  0.9201 -0.0800
  436TIP3    H222944   3.795   5.810   7.843  0.7603 -0.4138 -0.4126
  437TIP3   OH222945   6.300   4.530   7.482 -0.4764 -0.5182 -0.9857
  437TIP3    H122946   6.331   4.488   7.402 -0.9219 -1.9237 -0.4372
  437TIP3    H222947   6.205   4.530   7.473 -0.5996 -1.7769  0.0565
  438TIP3   OH222948   5.311   2.866   8.136 -0.6518 -0.1905 -0.0327
  438TIP3    H122949   5.395   2.827   8.158 -0.6794  0.2889  1.0075
  438TIP3    H222950   5.329   2.960   8.127 -1.0270 -0.1158 -0.0389
  439TIP3   OH222951   4.129   5.769   1.319 -0.4221  0.1027 -0.6086
  439TIP3    H122952   4.145   5.857   1.287 -0.1103  0.5912  0.8050
  439TIP3    H222953   4.216   5.733   1.337 -0.6036  0.8378  2.1337
  440TIP3   OH222954   3.437   5.131   0.300  0.0088 -0.3749 -0.3726
  440TIP3    H122955   3.410   5.153   0.389  0.1246  0.7218 -0.5948
  440TIP3    H222956   3.488   5.207   0.272  1.8266 -1.6142 -0.5986
  441TIP3   OH222957   6.456   3.955   8.502  0.5543 -0.4470  0.0682
  441TIP3    H122958   6.412   4.033   8.535  0.7623 -1.0487  1.8322
  441TIP3    H222959   6.399   3.925   8.430  0.5273  1.3424 -0.7209
  442TIP3   OH222960   0.195   0.199   8.469  0.3334 -0.2357  0.1708
  442TIP3    H122961   0.165   0.206   8.379  2.4296 -2.0681 -0.7683
  442TIP3    H222962   0.160   0.115   8.500  0.7844 -0.2854  0.5624
  443TIP3   OH222963   4.265   4.582   0.528 -0.3124  0.2061 -0.9533
  443TIP3    H122964   4.359   4.569   0.524 -0.3204 -0.5110  0.5358
  443TIP3    H222965   4.252   4.673   0.503  0.7472  0.2370 -1.4285
  444TIP3   OH222966   0.352   0.676   1.402 -0.3226  0.0851  0.2868
  444TIP3    H122967   0.428   0.624   1.377  1.2368  2.1358  0.5280
  444TIP3    H222968   0.306   0.692   1.319  0.6601  0.5435 -0.1812
  445TIP3   OH222969   1.887   5.005   0.692 -0.1145  0.0845 -0.3974
  445TIP3    H122970   1.846   4.989   0.607  0.8566 -0.8332 -0.7097
  445TIP3    H222971   1.961   5.062   0.673 -0.0392  0.0804 -0.1280
  446TIP3   OH222972   0.164   0.133   1.523  0.2554  0.2156  0.3963
  446TIP3    H122973   0.093   0.153   1.462  1.2846  0.2081 -0.8385
  446TIP3    H222974   0.210   0.217   1.534  1.5695 -0.3092 -0.8388
  447TIP3   OH222975   3.473   3.588   6.983 -0.1703 -0.5030 -0.7309
  447TIP3    H122976   3.522   3.540   6.917 -0.8166 -0.6983 -1.0803
  447TIP3    H222977   3.385   3.597   6.946 -0.1105  0.8476 -0.6275
  448TIP3   OH222978   3.152   1.806   1.982 -0.1765  0.5841  0.5254
  448TIP3    H122979   3.119   1.718   1.965 -1.2536  0.7017  1.8503
  448TIP3    H222980   3.243   1.793   2.007 -0.4260 -0.2068  1.0733
  449TIP3   OH222981   0.740   6.063   8.240 -0.1926  0.1562 -0.0903
  449TIP3    H122982   0.824   6.084   8.282  0.2864 -0.3619 -0.7774
  449TIP3    H222983   0.716   5.978   8.276 -0.8716  0.6977  0.7706
  450TIP3   OH222984   5.064   5.671   7.369  0.0500  0.0131 -0.2659
  450TIP3    H122985   4.988   5.634   7.415  1.5474 -0.8157  1.6907
  450TIP3    H222986   5.078   5.612   7.295 -2.4695  1.4225 -2.0206
  451TIP3   OH222987   6.451   2.145   0.822  0.2713 -0.3569  0.1721
  451TIP3    H122988   6.539   2.178   0.805  0.6294 -0.6654  1.3559
  451TIP3    H222989   6.394   2.222   0.813  0.8867  0.2368  1.1962
  452TIP3   OH222990   3.315   5.477   8.822 -0.7714 -0.2283 -0.0724
  452TIP3    H122991   3.316   5.437   8.909 -1.9492  0.2673  0.1861
  452TIP3    H222992   3.223   5.499   8.806 -0.3107  1.4849 -0.6121
  453TIP3   OH222993   3.347   4.177   7.078  0.2531 -0.6562  0.0032
  453TIP3    H122994   3.312   4.255   7.034 -0.2282 -0.0280  1.4479
  453TIP3    H222995   3.293   4.168   7.157  0.1796 -2.5772 -0.2286
  454TIP3   OH222996   6.483   4.676   1.419  0.3551  0.1667 -0.1008
  454TIP3    H122997   6.393   4.679   1.385  0.7391 -1.6560 -1.4034
  454TIP3    H222998   6.527   4.749   1.375  0.2638 -0.7982 -1.8766
  455TIP3   OH222999   1.761   0.031   2.094  1.0264  0.1848 -0.0007
  455TIP3    H123000   1.804   0.093   2.153  2.4645 -0.5655 -0.1966
  455TIP3    H223001   1.728  -0.037   2.153 -1.1139  1.3840  0.2766
  456TIP3   OH223002   5.154   4.978   6.771 -0.0909 -0.2114 -0.3978
  456TIP3    H123003   5.240   4.938   6.786 -0.3944 -0.2457  1.4116
  456TIP3    H223004   5.160   5.065   6.811 -0.1526  0.7911 -2.3982
  457TIP3   OH223005   3.417   5.528   8.013  0.3370 -0.4665  0.1717
  457TIP3    H123006   3.462   5.597   7.964 -1.3502  0.6921  0.1427
  457TIP3    H223007   3.437   5.547   8.105  1.1725 -0.9182  0.0914
  458TIP3   OH223008   3.110   2.508   1.651 -0.1343  0.5424  0.3203
  458TIP3    H123009   3.153   2.471   1.728 -0.1137 -2.1680 -0.8791
  458TIP3    H223010   3.153   2.466   1.576 -4.1900 -1.8277 -0.9882
  459TIP3   OH223011   4.796   4.743   7.352 -0.2598  0.0716  0.2043
  459TIP3    H123012   4.708   4.705   7.358 -0.7114  0.5802 -2.0536
  459TIP3    H223013   4.844   4.683   7.295  0.5268  0.3333  0.5904
  460TIP3   OH223014   3.755   5.350   1.630  0.1938  0.3549 -0.2343
  460TIP3    H123015   3.749   5.317   1.719 -0.3756  0.1234 -0.3570
  460TIP3    H223016   3.757   5.445   1.640  0.1472  0.3293  0.0289
  461TIP3   OH223017   2.731   4.879   0.180  0.5439 -0.4444  0.3169
  461TIP3    H123018   2.794   4.831   0.126 -0.5477 -0.6172 -0.8499
  461TIP3    H223019   2.739   4.970   0.151  0.1802 -0.4833  0.0999
  462TIP3   OH223020   1.152   0.441   6.997 -0.3051  0.2804 -0.3659
  462TIP3    H123021   1.072   0.475   6.958  0.2865  2.8681  0.4973
  462TIP3    H223022   1.141   0.346   6.995 -2.0820  0.4476 -2.9198
  463TIP3   OH223023   4.265   1.755   0.438  0.3675  0.5217  0.6464
  463TIP3    H123024   4.335   1.764   0.373  0.2449 -0.5343  0.3565
  463TIP3    H223025   4.278   1.669   0.476 -2.2058 -0.8048 -1.1706
  464TIP3   OH223026   2.993   1.640   1.236 -0.2821 -0.8451 -0.2125
  464TIP3    H123027   2.901   1.659   1.253  0.2595  1.0200  0.9344
  464TIP3    H223028   3.032   1.627   1.322  0.9298  0.5123 -0.5201
  465TIP3   OH223029   3.582   6.010   1.231  0.4689 -0.4437  0.0151
  465TIP3    H123030   3.509   5.964   1.272  1.0400 -1.9773 -0.6263
  465TIP3    H223031   3.629   6.049   1.305 -0.2817 -0.4808  0.5357
  466TIP3   OH223032   4.086   1.760   8.259  0.4645 -0.7531  0.4359
  466TIP3    H123033   4.000   1.725   8.236  1.7344 -2.3342 -2.4242
  466TIP3    H223034   4.121   1.698   8.323  0.3759 -1.4391 -0.1681
  467TIP3   OH223035   4.143   2.671   6.980  0.3611 -0.2021 -0.5504
  467TIP3    H123036   4.225   2.711   6.950  0.6111  0.1657  0.5842
  467TIP3    H223037   4.171   2.596   7.033 -0.0446 -0.1885 -0.3153
  468TIP3   OH223038   1.092   3.209   0.781  0.2063 -0.4613 -0.3478
  468TIP3    H123039   0.999   3.209   0.802 -0.0228  0.1176 -1.2947
  468TIP3    H223040   1.128   3.284   0.829 -0.0056 -0.1127 -0.7239
  469TIP3   OH223041   2.110   4.624   8.321 -1.0382  0.3996  0.5793
  469TIP3    H123042   2.195   4.662   8.303 -1.6979  1.6385 -0.0440
  469TIP3    H223043   2.129   4.541   8.365  0.4853  0.3218 -0.1804
  470TIP3   OH223044   6.607   5.052   8.753 -0.0372 -0.0688 -0.4176
  470TIP3    H123045   6.599   5.146   8.738  0.1518 -0.0537 -0.4180
  470TIP3    H223046   6.690   5.028   8.713 -0.9583 -0.5916 -2.1083
  471TIP3   OH223047   4.565   2.540   0.426 -0.4141  0.4899 -0.6463
  471TIP3    H123048   4.564   2.488   0.345 -1.3641  0.2562 -0.4981
  471TIP3    H223049   4.488   2.509   0.475  0.4389  0.2471  0.5880
  472TIP3   OH223050   0.291   2.640   8.079 -0.1654 -0.6627 -0.3110
  472TIP3    H123051   0.268   2.709   8.140 -0.8907 -0.9883 -0.2053
  472TIP3    H223052   0.363   2.676   8.027 -0.1835 -0.0362  0.0968
  473TIP3   OH223053   6.028   6.454   8.158 -0.4705 -0.0192 -0.3893
  473TIP3    H123054   6.026   6.417   8.246 -0.4120  0.5602 -0.1415
  473TIP3    H223055   6.019   6.378   8.100 -0.1133 -0.4460  0.1050
  474TIP3   OH223056   1.935   6.488   8.844  0.0978  0.1890 -0.1950
  474TIP3    H123057   1.915   6.556   8.909  1.6599 -0.0335  0.5775
  474TIP3    H223058   1.960   6.537   8.765  0.1949  0.5077  0.0286
  475TIP3   OH223059   4.287   6.012   7.358  0.2651  0.4660  0.2418
  475TIP3    H123060   4.281   6.103   7.329 -0.6130  0.6068  0.8225
  475TIP3    H223061   4.335   5.968   7.288  0.3043  1.2836 -0.2595
  476TIP3   OH223062   3.708   4.578   8.428 -0.1268  0.1986 -0.3137
  476TIP3    H123063   3.692   4.486   8.408 -0.1701  0.2693 -0.6078
  476TIP3    H223064   3.622   4.613   8.450  0.1929 -0.3857  2.1754
  477TIP3   OH223065   1.805   2.955   2.411 -0.3566  0.1154 -0.3035
  477TIP3    H123066   1.860   3.033   2.414 -1.0839  0.6562 -0.9143
  477TIP3    H223067   1.718   2.985   2.434 -0.5577 -0.5969 -0.1038
  478TIP3   OH223068   1.875   5.259   8.789  0.2066 -0.0467  0.2169
  478TIP3    H123069   1.900   5.242   8.698 -3.8311 -1.2344 -0.9150
  478TIP3    H223070   1.841   5.349   8.788 -3.0395 -1.1433 -0.4902
  479TIP3   OH223071   6.458   0.372   7.601  0.3163 -0.2857  0.0719
  479TIP3    H123072   6.520   0.442   7.580  2.0975 -1.8177  0.0305
  479TIP3    H223073   6.385   0.386   7.540  1.2277  0.7504 -0.8124
  480TIP3   OH223074   1.922   2.259   0.652  0.5355 -0.8888  0.3950
  480TIP3    H123075   2.006   2.231   0.615  0.4143 -2.0751  0.9725
  480TIP3    H223076   1.859   2.196   0.618 -0.3528  0.6500 -0.9478
  481TIP3   OH223077   4.732   4.291   7.436 -0.2340 -0.2941 -0.2694
  481TIP3    H123078   4.720   4.258   7.525 -2.6493  3.5127  1.0833
  481TIP3    H223079   4.827   4.295   7.424  0.1866 -0.2551  2.4555
  482TIP3   OH223080   3.987   0.556   7.769  0.1874  0.1995 -0.3530
  482TIP3    H123081   3.932   0.607   7.708  0.9455  1.2400 -0.1977
  482TIP3    H223082   3.936   0.552   7.850 -0.6151 -0.7749 -0.8867
  483TIP3   OH223083   4.083   5.284   2.531 -0.3013  0.0796 -0.2005
  483TIP3    H123084   4.057   5.360   2.582  3.2796 -0.2194  2.4533
  483TIP3    H223085   4.151   5.316   2.472  0.0889 -0.7566 -0.2197
  484TIP3   OH223086   4.303   3.529   8.348  0.2509  0.7954  0.1388
  484TIP3    H123087   4.232   3.503   8.290  1.3163  0.8110 -1.2144
  484TIP3    H223088   4.260   3.578   8.419 -1.0870  0.6624 -0.5612
  485TIP3   OH223089   0.118   1.673   0.522  0.3728 -0.0577 -0.2991
  485TIP3    H123090   0.070   1.748   0.485  0.1842 -0.0264  0.0117
  485TIP3    H223091   0.085   1.665   0.611  0.5900 -0.3456 -0.2454
  486TIP3   OH223092   2.657   0.003   0.392  0.4272  0.3761 -0.2663
  486TIP3    H123093   2.577   0.040   0.430  0.2041 -0.0889 -0.2699
  486TIP3    H223094   2.632  -0.020   0.303  0.2188 -0.8207  0.0756
  487TIP3   OH223095   3.371   6.659   7.560 -0.4866 -0.2555  0.1284
  487TIP3    H123096   3.373   6.751   7.586 -1.4067  0.0017 -0.6641
  487TIP3    H223097   3.278   6.634   7.563 -0.1466 -1.5012  1.4618
  488TIP3   OH223098   3.329   2.338   0.515  0.3215 -0.0120 -0.0537
  488TIP3    H123099   3.313   2.320   0.608  0.1608  1.0544  0.1387
  488TIP3    H223100   3.423   2.324   0.504  0.3410 -0.1448  0.2765
  489TIP3   OH223101   5.656   6.007   6.442 -0.0034  0.4349 -0.1404
  489TIP3    H123102   5.718   5.934   6.436 -1.5797 -1.1777  1.8938
  489TIP3    H223103   5.591   5.988   6.374  0.7043  1.1774 -1.0674
  490TIP3   OH223104   4.172   0.769   1.979  0.9038  0.7350  0.1663
  490TIP3    H123105   4.192   0.701   2.044 -0.6657  1.2949  1.2787
  490TIP3    H223106   4.181   0.851   2.026 -2.0393  1.0983  0.2712
  491TIP3   OH223107   6.114   5.491   8.925  0.1138 -0.4116  0.0327
  491TIP3    H123108   6.102   5.479   8.831  1.7616  0.9308 -0.3873
  491TIP3    H223109   6.180   5.559   8.933 -0.6781  0.1967  2.1862
  492TIP3   OH223110   5.124   1.439   8.777 -0.6257 -0.0941 -0.3628
  492TIP3    H123111   5.179   1.460   8.701  0.5242  0.2186  0.5347
  492TIP3    H223112   5.117   1.522   8.825 -0.7990 -0.4378  0.2174
  493TIP3   OH223113   6.650   0.878   8.011  0.7311  0.5565  1.0040
  493TIP3    H123114   6.684   0.828   8.084  0.2251  2.0511  2.3332
  493TIP3    H223115   6.586   0.937   8.050  0.4230  1.3964 -0.6526
  494TIP3   OH223116   1.305   3.671   8.895  0.1735 -0.3638  0.3603
  494TIP3    H123117   1.317   3.700   8.805 -1.8129 -1.2000 -0.2191
  494TIP3    H223118   1.306   3.576   8.891 -2.3356 -0.4767  0.7840
  495TIP3   OH223119   6.277   0.139   6.878 -0.1470  0.4616 -0.0610
  495TIP3    H123120   6.276   0.045   6.861  1.2970  0.2311  0.8884
  495TIP3    H223121   6.229   0.178   6.805  0.1634 -0.9354 -1.0412
  496TIP3   OH223122   6.614   2.585   8.121 -0.4056 -0.4709  0.1078
  496TIP3    H123123   6.635   2.502   8.079  0.3194 -0.7559  0.9980
  496TIP3    H223124   6.666   2.650   8.074  2.7947 -1.1770  2.3424
  497TIP3   OH223125   1.325   3.398   8.870 -0.3753  0.0618 -0.4336
  497TIP3    H123126   1.314   3.394   8.965  0.5888  0.4556 -0.2915
  497TIP3    H223127   1.280   3.320   8.837 -1.2676  0.2523  0.2845
  498TIP3   OH223128   0.597   4.946   8.946 -0.7187 -0.3292  0.4487
  498TIP3    H123129   0.586   4.872   8.887  2.1375  0.2051 -0.9257
  498TIP3    H223130   0.615   5.020   8.888 -2.6172  1.2988  1.8212
  499TIP3   OH223131   2.771   5.119   0.022 -0.1363  0.5712  0.2800
  499TIP3    H123132   2.736   5.208   0.022  1.4521  1.2582 -1.0905
  499TIP3    H223133   2.865   5.130   0.038 -0.1095 -0.9988  1.4979
  500TIP3   OH223134   1.483   3.474   7.728 -0.1035  0.1555  0.2800
  500TIP3    H123135   1.522   3.467   7.641  0.6982  1.5418  0.4978
  500TIP3    H223136   1.507   3.393   7.773 -0.4419 -0.5235 -0.7445
  501TIP3   OH223137   4.451   1.953   7.864 -0.2113  0.2318 -0.0920
  501TIP3    H123138   4.385   1.972   7.931 -0.4720 -1.3071  0.1277
  501TIP3    H223139   4.446   2.027   7.803 -1.9871  0.2609  0.0463
  502TIP3   OH223140   3.487   4.137   7.857 -0.7977 -0.3979 -0.4174
  502TIP3    H123141   3.403   4.107   7.823 -0.8273  0.8286 -1.4879
  502TIP3    H223142   3.531   4.177   7.782 -0.1549  0.8916  0.6026
  503TIP3   OH223143   5.834   5.431   1.896 -0.5725 -0.0662  0.0423
  503TIP3    H123144   5.791   5.360   1.850 -0.8705 -1.1580  1.9092
  503TIP3    H223145   5.799   5.427   1.985 -2.0718  3.6302 -0.1690
  504TIP3   OH223146   3.746   5.960   1.834  0.3376 -0.0604 -0.1530
  504TIP3    H123147   3.684   5.909   1.886  2.1775 -1.0584  1.1621
  504TIP3    H223148   3.727   6.051   1.857 -0.1920 -0.3824  0.7306
  505TIP3   OH223149   5.052   6.433   1.944  0.3456 -0.8572  0.0572
  505TIP3    H123150   5.075   6.394   2.027  0.5221  0.4324  0.6474
  505TIP3    H223151   4.993   6.370   1.902  2.1780 -2.6574  0.0271
  506TIP3   OH223152   3.940   1.784   8.620  0.1759 -0.2221 -0.0462
  506TIP3    H123153   3.917   1.708   8.674 -0.3074 -1.1625 -1.5413
  506TIP3    H223154   4.005   1.751   8.558  1.8347  1.1921  0.8331
  507TIP3   OH223155   0.970   4.043   6.971  0.2374 -0.0052  0.0737
  507TIP3    H123156   0.918   4.095   6.911  2.4742 -0.6682 -2.6938
  507TIP3    H223157   0.960   3.953   6.940  0.2819 -0.5929  1.6710
  508TIP3   OH223158   0.693   6.520   8.466 -0.4766 -0.2821 -0.5550
  508TIP3    H123159   0.635   6.478   8.530 -2.5323  1.4489 -1.1438
  508TIP3    H223160   0.646   6.512   8.383  0.3949  0.7033 -1.1635
  509TIP3   OH223161   6.133   4.272   8.262 -0.5391 -0.1251 -0.7000
  509TIP3    H123162   6.075   4.346   8.279 -0.8750 -0.7234  0.9128
  509TIP3    H223163   6.088   4.196   8.301  1.4839 -0.5369  0.9878
  510TIP3   OH223164   6.443   4.830   2.579 -0.2755 -0.0127 -0.1502
  510TIP3    H123165   6.464   4.884   2.503  0.9984 -0.9396 -0.4938
  510TIP3    H223166   6.524   4.828   2.630 -0.7527 -0.3895  0.6105
  511TIP3   OH223167   3.607   3.590   6.619 -0.0933 -0.4563 -0.0921
  511TIP3    H123168   3.685   3.612   6.568 -0.3529 -0.0520 -0.3183
  511TIP3    H223169   3.642   3.551   6.700  0.4312  1.3640  0.6237
  512TIP3   OH223170   6.698   0.916   1.549 -0.0315  0.2281 -0.3107
  512TIP3    H123171   6.643   0.881   1.479 -0.4043 -1.2828  0.6889
  512TIP3    H223172   6.768   0.852   1.558 -1.1846 -0.8297  2.1250
  513TIP3   OH223173   5.802   6.572   1.028  0.0646  0.4878 -0.3527
  513TIP3    H123174   5.748   6.587   1.106 -0.4951 -1.4414 -0.3177
  513TIP3    H223175   5.857   6.650   1.022  0.0914  0.7189  1.9481
  514TIP3   OH223176   4.317   3.639   7.750 -0.4327  0.2437  0.1003
  514TIP3    H123177   4.391   3.686   7.711  0.6226 -0.6351  0.9415
  514TIP3    H223178   4.243   3.699   7.742 -0.0780  0.4465 -2.3833
  515TIP3   OH223179   1.862   3.563   0.934 -0.0871  0.1779  0.8327
  515TIP3    H123180   1.944   3.569   0.983 -1.1525 -0.4087  2.8282
  515TIP3    H223181   1.855   3.646   0.888  1.1393  0.6479  1.4519
  516TIP3   OH223182   3.816   5.124   0.791 -0.2975 -0.4309 -0.1117
  516TIP3    H123183   3.873   5.073   0.849  2.9650  1.3520 -1.5106
  516TIP3    H223184   3.790   5.199   0.844  0.9913  0.1449 -0.2517
  517TIP3   OH223185   0.845   1.252   6.754  0.3010 -0.1751  0.0421
  517TIP3    H123186   0.809   1.192   6.688 -0.6356 -0.4681  0.7926
  517TIP3    H223187   0.918   1.204   6.793  1.5054  0.3926 -1.4458
  518TIP3   OH223188   4.625   5.772   7.987 -0.2549 -0.2427  0.1975
  518TIP3    H123189   4.646   5.865   7.976  0.4995 -0.3496  0.6883
  518TIP3    H223190   4.626   5.736   7.898 -0.5916  0.2181  0.0025
  519TIP3   OH223191   2.716   6.518   8.384 -0.1598  0.0771 -0.0001
  519TIP3    H123192   2.698   6.609   8.359 -0.9204 -0.0003  0.2372
  519TIP3    H223193   2.748   6.525   8.474  1.8874  0.2901 -0.6995
  520TIP3   OH223194   2.680   1.892   8.880 -0.1302  0.4565  0.3531
  520TIP3    H123195   2.623   1.816   8.884  1.8097 -1.0166  2.3766
  520TIP3    H223196   2.710   1.895   8.789 -0.9407 -0.6240  0.0355
  521TIP3   OH223197   1.756   4.555   1.305  0.1673 -0.0872 -0.4241
  521TIP3    H123198   1.813   4.608   1.360  0.7703 -1.1590  0.0158
  521TIP3    H223199   1.721   4.616   1.240  1.6120  0.6564 -0.5492
  522TIP3   OH223200   1.671   4.041   7.559  0.1781 -0.6832 -0.2401
  522TIP3    H123201   1.626   3.956   7.567  0.9971 -1.0781  0.2463
  522TIP3    H223202   1.606   4.105   7.589  0.5027 -1.4070  2.1878
  523TIP3   OH223203   0.326   1.776   0.858  0.3305 -0.1747  0.0859
  523TIP3    H123204   0.327   1.702   0.798 -0.6217  0.1191 -0.3081
  523TIP3    H223205   0.418   1.792   0.878  0.5460 -1.5678  0.3092
  524TIP3   OH223206   4.420   3.815   1.667 -0.1083 -1.0053 -0.2973
  524TIP3    H123207   4.475   3.828   1.590  0.5982 -2.9379 -0.1853
  524TIP3    H223208   4.457   3.873   1.734 -0.3328  0.2130 -1.2084
  525TIP3   OH223209   0.437   1.712   7.057  0.1314  0.3632 -0.5074
  525TIP3    H123210   0.369   1.657   7.018  1.5506 -2.4695  0.7250
  525TIP3    H223211   0.486   1.746   6.983  0.3889 -1.7084 -1.3546
  526TIP3   OH223212   0.843   6.421   7.125 -0.3557 -0.1936  0.4781
  526TIP3    H123213   0.829   6.357   7.055 -0.2441 -1.9058  1.9198
  526TIP3    H223214   0.832   6.506   7.084  0.0931 -1.1259 -1.6877
  527TIP3   OH223215   1.918   3.006   0.924 -0.2117 -0.4130 -0.3627
  527TIP3    H123216   1.911   3.068   0.852 -0.8765 -1.5164 -1.2821
  527TIP3    H223217   2.012   2.992   0.934 -0.1259 -0.8813 -1.6028
  528TIP3   OH223218   2.658   0.327   0.528 -0.0126  0.6714  0.3737
  528TIP3    H123219   2.638   0.374   0.609 -0.8399  0.3089  0.3880
  528TIP3    H223220   2.601   0.250   0.530 -1.1355  1.3930 -1.2397
  529TIP3   OH223221   6.130   0.172   7.127  0.2133 -0.2889  0.0094
  529TIP3    H123222   6.086   0.254   7.147 -0.3308 -0.9450  1.7146
  529TIP3    H223223   6.167   0.184   7.039 -1.3356  1.1267 -0.4832
  530TIP3   OH223224   0.286   4.632   2.257  0.6073 -0.5678  0.1024
  530TIP3    H123225   0.300   4.604   2.347  1.5559  1.6240  0.7025
  530TIP3    H223226   0.375   4.637   2.220  0.5153  1.5397  0.0554
  531TIP3   OH223227   3.755   4.753   0.818 -0.2629  0.4126 -0.1065
  531TIP3    H123228   3.845   4.781   0.798 -0.1853 -0.4916 -1.1101
  531TIP3    H223229   3.752   4.749   0.914  0.4765  1.3504 -0.0258
  532TIP3   OH223230   1.768   3.787   0.024  0.2292  0.1104  0.1004
  532TIP3    H123231   1.779   3.851  -0.047 -0.4307 -1.5728 -1.6093
  532TIP3    H223232   1.676   3.794   0.049  0.3749  0.4503  0.5477
  533TIP3   OH223233   5.986   4.145   1.000 -0.3976 -0.1486  0.0403
  533TIP3    H123234   5.978   4.240   1.012  3.7409  0.5425 -1.2989
  533TIP3    H223235   5.970   4.131   0.907 -1.0466 -0.8431  0.2396
  534TIP3   OH223236   6.217   6.031   1.940  0.2294 -0.4244 -0.4306
  534TIP3    H123237   6.250   5.987   1.861 -0.9383 -2.1453 -0.0008
  534TIP3    H223238   6.183   5.960   1.994 -1.1891  0.9721  0.5642
  535TIP3   OH223239   5.679   5.020   1.862 -0.0052 -0.3667 -0.3376
  535TIP3    H123240   5.678   5.111   1.831 -1.4944 -0.1120  0.3436
  535TIP3    H223241   5.619   4.974   1.803 -1.3940 -0.2818  0.9357
  536TIP3   OH223242   2.127   3.943   0.248  0.3311 -0.1122  0.7780
  536TIP3    H123243   2.085   3.857   0.246  1.0494 -0.4826 -1.7971
  536TIP3    H223244   2.169   3.946   0.334 -0.6623 -1.8343  1.3971
  537TIP3   OH223245   3.239   2.881   8.296  0.2298 -0.2461  0.0579
  537TIP3    H123246   3.150   2.892   8.329 -0.3156  1.5275 -1.7684
  537TIP3    H223247   3.230   2.824   8.219  0.6320  0.0267 -0.1977
  538TIP3   OH223248   5.032   0.026   0.937  0.2333 -0.6908  0.0251
  538TIP3    H123249   5.067  -0.054   0.898  0.4805 -0.7599  0.3954
  538TIP3    H223250   4.974  -0.004   1.007 -2.0869 -0.6660 -1.7569
  539TIP3   OH223251   6.306   6.642   1.514 -0.1250 -0.5625  0.2729
  539TIP3    H123252   6.306   6.619   1.607  1.6658 -1.6296  0.0730
  539TIP3    H223253   6.247   6.716   1.507 -2.7605 -2.3716  1.7377
  540TIP3   OH223254   6.474   3.004   8.065 -0.7416 -0.4890 -0.3069
  540TIP3    H123255   6.479   2.922   8.016  2.8668 -1.1933  0.9797
  540TIP3    H223256   6.418   2.984   8.140 -1.9681 -0.9496 -1.3076
  541TIP3   OH223257   1.414   6.526   0.962 -0.4476  0.1766 -0.0001
  541TIP3    H123258   1.389   6.615   0.936 -0.9027 -0.4193 -1.6959
  541TIP3    H223259   1.492   6.507   0.910  1.0818  0.3956  2.0672
  542TIP3   OH223260   1.197   6.634   1.176 -0.3743  0.1285  0.6277
  542TIP3    H123261   1.277   6.585   1.194 -0.3036  0.4213  1.1330
  542TIP3    H223262   1.132   6.568   1.153  0.6171 -0.0113 -2.3155
  543TIP3   OH223263   0.456   4.727   6.646 -0.0781 -0.2050  0.4149
  543TIP3    H123264   0.480   4.718   6.554 -0.1505 -0.4487  0.4190
  543TIP3    H223265   0.403   4.807   6.649  1.1362  0.6239  0.4905
  544TIP3   OH223266   3.147   6.411   8.940  0.6881 -0.6213  0.2276
  544TIP3    H123267   3.175   6.493   8.980  0.1562 -0.5137  0.3789
  544TIP3    H223268   3.058   6.398   8.970  0.6462 -1.0782 -0.0782
  545TIP3   OH223269   1.442   1.918   1.169 -0.5061 -0.2066 -0.1492
  545TIP3    H123270   1.367   1.933   1.226 -1.4221 -0.7141 -1.1898
  545TIP3    H223271   1.418   1.960   1.086  0.2257 -0.6578 -0.5987
  546TIP3   OH223272   1.782   6.175   6.703  0.1415 -0.6024  0.2492
  546TIP3    H123273   1.786   6.090   6.658 -1.2469 -0.4864 -0.1143
  546TIP3    H223274   1.862   6.220   6.674  0.7644 -1.6699  0.2361
  547TIP3   OH223275   5.261   6.204   7.272 -0.2365  0.4411 -0.1685
  547TIP3    H123276   5.202   6.172   7.205 -0.9312 -0.6623  0.9240
  547TIP3    H223277   5.331   6.248   7.224 -1.4441  0.9531 -1.5284
  548TIP3   OH223278   0.815   6.334   0.104  0.7235 -0.5056 -0.5563
  548TIP3    H123279   0.819   6.402   0.036  3.3807  1.0207  0.9638
  548TIP3    H223280   0.731   6.349   0.147 -0.2211 -0.3699 -2.3524
  549TIP3   OH223281   5.650   4.689   0.503 -0.1783  0.6757  0.4496
  549TIP3    H123282   5.631   4.641   0.423 -1.5230  1.1138  0.4777
  549TIP3    H223283   5.723   4.746   0.481  0.1958 -0.0122 -0.1232
  550TIP3   OH223284   4.440   4.836   7.357  0.1284  0.1850 -0.0007
  550TIP3    H123285   4.436   4.874   7.269  0.5984 -0.1488 -0.1649
  550TIP3    H223286   4.483   4.752   7.346 -1.3190 -0.6370  0.2912
  551TIP3   OH223287   4.252   2.131   7.566 -0.1166 -0.5920  0.6655
  551TIP3    H123288   4.297   2.048   7.552 -1.6298 -1.1554 -1.3426
  551TIP3    H223289   4.314   2.198   7.538 -0.3626 -1.3297 -1.8212
  552TIP3   OH223290   4.757   1.035   7.034 -0.2902 -0.3791 -0.9902
  552TIP3    H123291   4.710   1.119   7.034 -1.8841 -1.2435 -1.3737
  552TIP3    H223292   4.837   1.053   6.985  0.7650  1.6095  1.2398
  553TIP3   OH223293   1.553   2.249   1.976 -0.1423 -0.1024 -0.1474
  553TIP3    H123294   1.557   2.193   2.054 -0.1615 -0.3223 -0.3037
  553TIP3    H223295   1.498   2.201   1.914  0.7100 -0.4202 -0.6859
  554TIP3   OH223296   5.255   3.541   1.878  0.2757  0.3053  0.6067
  554TIP3    H123297   5.218   3.615   1.926 -0.7578 -0.1663  0.5536
  554TIP3    H223298   5.185   3.476   1.876 -0.3906  0.9313 -3.0301
  555TIP3   OH223299   0.435   2.775   7.884 -0.4627  0.4273 -0.3006
  555TIP3    H123300   0.477   2.696   7.849  1.8052  0.9689  0.9899
  555TIP3    H223301   0.377   2.804   7.813 -0.4473 -1.6830 -1.2768
  556TIP3   OH223302   3.439   6.163   7.009 -0.0518 -0.2466  0.4491
  556TIP3    H123303   3.476   6.084   7.049  0.6727 -0.2287 -0.1709
  556TIP3    H223304   3.475   6.235   7.061  1.5695 -0.1714 -0.7003
  557TIP3   OH223305   1.933   0.826   1.711 -0.7975 -0.5930 -0.3883
  557TIP3    H123306   2.026   0.801   1.707 -0.2145  0.7349  2.4031
  557TIP3    H223307   1.886   0.742   1.710  0.4761 -1.3272 -1.0376
  558TIP3   OH223308   1.528   3.326   1.717 -0.4898 -0.0523  0.4325
  558TIP3    H123309   1.525   3.314   1.622  1.2353  0.7647  0.2477
  558TIP3    H223310   1.560   3.242   1.751 -1.8361 -0.6080  0.3888
  559TIP3   OH223311   2.393   1.255   7.566 -0.1980 -0.0967  0.3169
  559TIP3    H123312   2.453   1.191   7.604  1.6778  0.8319 -0.9304
  559TIP3    H223313   2.322   1.202   7.529 -0.0980 -1.2338  1.6653
  560TIP3   OH223314   0.466   4.641   8.077 -0.1563  0.2077 -0.1486
  560TIP3    H123315   0.527   4.714   8.076  1.1291 -0.8124 -2.0344
  560TIP3    H223316   0.485   4.592   7.997  0.2413 -3.1290  1.7912
  561TIP3   OH223317   2.537   5.507   1.694  0.2483 -0.1868 -0.1523
  561TIP3    H123318   2.559   5.569   1.764 -0.3674 -0.7131  0.5345
  561TIP3    H223319   2.560   5.421   1.730  0.2967 -0.4315 -0.7564
  562TIP3   OH223320   4.668   0.191   8.518 -0.5923  0.3049 -0.0984
  562TIP3    H123321   4.755   0.217   8.548 -0.1735 -1.0408 -0.0480
  562TIP3    H223322   4.625   0.156   8.597 -1.4462  1.5795  0.0253
  563TIP3   OH223323   5.663   5.272   1.311  0.4289  0.2773  0.4787
  563TIP3    H123324   5.692   5.363   1.320 -0.3939  0.6195 -0.1985
  563TIP3    H223325   5.743   5.220   1.321  1.0159  1.1096  0.2290
  564TIP3   OH223326   1.272   1.443   8.573 -0.0508  0.1500 -0.1028
  564TIP3    H123327   1.226   1.525   8.591  0.8443  0.0894  3.0326
  564TIP3    H223328   1.361   1.469   8.551 -0.3404  0.0721 -1.4414
  565TIP3   OH223329   1.370   4.480   0.682 -0.0305 -0.0658  0.3731
  565TIP3    H123330   1.386   4.511   0.593  0.2790  0.7830  0.7108
  565TIP3    H223331   1.329   4.394   0.671  0.4117 -0.1680 -0.5774
  566TIP3   OH223332   6.496   1.413   7.217  0.7012 -0.1628  0.4837
  566TIP3    H123333   6.532   1.350   7.155  0.8699  1.4716 -1.1289
  566TIP3    H223334   6.430   1.461   7.168 -1.2288 -0.6939  2.3925
  567TIP3   OH223335   6.486   5.858   7.023  0.0164 -0.1716  0.0091
  567TIP3    H123336   6.402   5.845   7.068  0.1330 -2.4696 -0.2933
  567TIP3    H223337   6.551   5.826   7.085  0.3970 -1.0340 -0.8112
  568TIP3   OH223338   4.669   4.492   0.241  0.3943  0.5111 -0.3111
  568TIP3    H123339   4.626   4.512   0.324 -0.8508  0.8609 -1.0053
  568TIP3    H223340   4.626   4.412   0.210 -1.4562  2.0539 -2.0803
  569TIP3   OH223341   0.708   0.896   7.902  0.4401  0.4194 -0.0112
  569TIP3    H123342   0.731   0.828   7.965  0.9409  1.7580  1.3227
  569TIP3    H223343   0.708   0.851   7.817 -0.1963 -1.4267  0.9029
  570TIP3   OH223344   3.834   0.180   8.747 -0.0253 -0.4270 -0.5579
  570TIP3    H123345   3.796   0.199   8.661  0.4976 -1.8543 -1.1374
  570TIP3    H223346   3.795   0.245   8.805 -0.6010  0.4031 -1.8147
  571TIP3   OH223347   6.139   3.718   8.868 -0.2342 -0.1245 -0.0858
  571TIP3    H123348   6.147   3.729   8.963 -0.1277  1.1870 -0.2203
  571TIP3    H223349   6.193   3.642   8.848  0.3855  0.0618  0.8142
  572TIP3   OH223350   1.465   2.829   0.765  0.1177 -0.6832  0.2794
  572TIP3    H123351   1.412   2.892   0.812  0.5804 -0.2731  0.2592
  572TIP3    H223352   1.402   2.770   0.723 -0.3859  0.7735 -1.1111
  573TIP3   OH223353   6.199   1.804   7.161 -0.0119  0.2083  0.1891
  573TIP3    H123354   6.221   1.873   7.224 -0.6465  0.7049 -0.1270
  573TIP3    H223355   6.106   1.816   7.143 -0.4105 -1.4176  0.9569
  574TIP3   OH223356   0.147   2.646   1.194  0.4015 -0.2712  0.2718
  574TIP3    H123357   0.118   2.561   1.228  0.9897 -0.4821  0.2537
  574TIP3    H223358   0.192   2.626   1.112  0.1805  0.1027  0.0543
  575TIP3   OH223359   0.420   0.823   8.344  0.3550  0.0265  0.6738
  575TIP3    H123360   0.509   0.834   8.376  0.1229  1.0759  1.0126
  575TIP3    H223361   0.415   0.879   8.267  0.2696 -0.7881  0.0806
  576TIP3   OH223362   4.793   0.559   7.625  0.2543  0.4220 -0.0429
  576TIP3    H123363   4.788   0.655   7.625  0.7610  0.4585 -0.8330
  576TIP3    H223364   4.707   0.530   7.657  0.0158  1.1349 -0.0270
  577TIP3   OH223365   4.403   3.896   0.310  0.2587  0.3724  0.3305
  577TIP3    H123366   4.378   3.944   0.389 -3.5024  2.5775 -1.9226
  577TIP3    H223367   4.488   3.932   0.285 -0.9257  3.6192  0.5604
  578TIP3   OH223368   5.694   3.497   0.577 -0.0131  0.3282  0.2287
  578TIP3    H123369   5.704   3.554   0.654 -2.5246 -1.7903  2.3280
  578TIP3    H223370   5.600   3.493   0.562  0.4010  0.6218 -3.0605
  579TIP3   OH223371   1.430   0.088   0.229  0.3177  0.0010  0.3189
  579TIP3    H123372   1.500   0.049   0.177  0.4062  0.9690 -0.3184
  579TIP3    H223373   1.352   0.078   0.175  0.2325  0.1840  0.4067
  580TIP3   OH223374   2.893   5.934   1.944 -0.5557  0.2382 -0.2591
  580TIP3    H123375   2.901   6.016   1.894  0.8848  0.7639  0.7478
  580TIP3    H223376   2.939   5.869   1.891  2.2790  1.1053  0.9186
  581TIP3   OH223377   5.263   4.388   0.886  0.0185  1.0110  0.1644
  581TIP3    H123378   5.273   4.347   0.800 -0.5929 -0.0881  0.5986
  581TIP3    H223379   5.342   4.442   0.896  3.0717 -3.1091  1.1944
  582TIP3   OH223380   3.169   0.461   2.097  0.5030  0.3839  0.2109
  582TIP3    H123381   3.168   0.539   2.042  0.7191  1.1346  1.2332
  582TIP3    H223382   3.206   0.491   2.180 -1.0017 -0.4067  1.2126
  583TIP3   OH223383   4.993   3.837   7.058  0.1463 -0.4040  0.1746
  583TIP3    H123384   4.998   3.865   7.150 -0.0224 -0.7562  0.2957
  583TIP3    H223385   5.081   3.852   7.024 -0.0710  0.7664  0.0773
  584TIP3   OH223386   4.573   5.399   0.718  0.6932 -0.6647  0.1537
  584TIP3    H123387   4.665   5.385   0.741  1.2824  2.8963  0.6513
  584TIP3    H223388   4.576   5.447   0.636 -0.8723 -1.9613 -0.7115
  585TIP3   OH223389   1.659   1.457   0.486 -0.2567 -0.3984 -0.3586
  585TIP3    H123390   1.722   1.480   0.554  1.3426 -0.8363 -1.6128
  585TIP3    H223391   1.604   1.389   0.526 -0.7593  0.8597  1.1606
  586TIP3   OH223392   3.577   3.178   7.977  0.4475 -0.0046 -0.5259
  586TIP3    H123393   3.627   3.114   7.927  2.8123  0.4504  1.0998
  586TIP3    H223394   3.544   3.129   8.052  1.9165  0.5124  0.5052
  587TIP3   OH223395   1.230   5.582   7.588  0.4590  0.1265  0.3263
  587TIP3    H123396   1.175   5.504   7.576  1.1295 -0.2768 -0.1838
  587TIP3    H223397   1.207   5.639   7.515  1.1567 -0.3126 -0.2475
  588TIP3   OH223398   2.286   0.528   6.899 -0.2975  0.0646  0.2776
  588TIP3    H123399   2.320   0.557   6.815  1.9648  0.3903  1.2269
  588TIP3    H223400   2.256   0.608   6.942  0.5424  0.2216  0.5963
  589TIP3   OH223401   4.505   1.026   1.573  0.2673 -0.1959  0.7605
  589TIP3    H123402   4.414   1.050   1.588  0.4224  2.0914 -1.3529
  589TIP3    H223403   4.509   1.005   1.480  1.6172 -1.9012  1.1503
  590TIP3   OH223404   0.584   5.767   8.970  0.3067  0.0411  0.0200
  590TIP3    H123405   0.490   5.749   8.974  0.5099 -0.7927  1.6884
  590TIP3    H223406   0.590   5.861   8.956 -0.7769  0.1840  0.4306
  591TIP3   OH223407   2.161   3.344   7.275 -0.1223 -0.1551 -0.7188
  591TIP3    H123408   2.131   3.428   7.241  1.7656  0.3487 -1.2458
  591TIP3    H223409   2.165   3.287   7.199  3.2430  0.7181 -1.3343
  592TIP3   OH223410   4.208   3.720   8.547 -0.3349 -0.1624 -0.5438
  592TIP3    H123411   4.122   3.754   8.523 -0.2248  2.4716  2.2886
  592TIP3    H223412   4.269   3.767   8.491 -0.5979 -0.7896 -1.3756
  593TIP3   OH223413   5.224   1.936   1.168 -0.1198  0.0219 -0.1125
  593TIP3    H123414   5.133   1.921   1.143  0.3970 -1.2686 -1.3492
  593TIP3    H223415   5.219   1.999   1.240 -1.9828 -0.0753 -0.1095
  594TIP3   OH223416   6.340   0.251   0.763  0.3046 -0.2680 -0.2032
  594TIP3    H123417   6.410   0.307   0.795 -0.6790  0.8145  0.1569
  594TIP3    H223418   6.260   0.289   0.800 -0.5622 -0.8724 -1.3683
  595TIP3   OH223419   0.363   0.096   1.049  0.3519  0.7965 -0.3130
  595TIP3    H123420   0.431   0.050   0.999 -1.7364 -1.2561 -1.4989
  595TIP3    H223421   0.372   0.188   1.023  2.4632  0.5589 -0.6068
  596TIP3   OH223422   1.259   5.481   7.902  0.3347 -0.1828 -0.0440
  596TIP3    H123423   1.188   5.443   7.955 -0.2918  0.8742 -0.1004
  596TIP3    H223424   1.242   5.575   7.904  1.7848  0.0983 -0.0091
  597TIP3   OH223425   5.129   1.564   2.226 -0.1450 -0.3110 -0.6113
  597TIP3    H123426   5.222   1.585   2.212 -0.0422 -1.6704 -2.2910
  597TIP3    H223427   5.109   1.601   2.312  1.6089  1.1233 -0.7538
  598TIP3   OH223428   5.896   0.255   8.606  0.2055 -0.3302 -0.3764
  598TIP3    H123429   5.887   0.330   8.664  1.6582 -0.1848 -0.2884
  598TIP3    H223430   5.889   0.291   8.518 -2.3836 -0.6065 -0.3441
  599TIP3   OH223431   0.228   4.208   0.214 -0.1401  0.7628  0.0788
  599TIP3    H123432   0.272   4.242   0.136 -0.1869  1.4789  0.3559
  599TIP3    H223433   0.286   4.233   0.286 -0.6626  1.1044  0.3787
  600TIP3   OH223434   1.373   2.748   8.299 -0.1469  0.2305  0.2334
  600TIP3    H123435   1.300   2.768   8.239  0.2460 -1.1127 -0.7577
  600TIP3    H223436   1.331   2.703   8.372 -0.6774  2.1702  1.1930
  601TIP3   OH223437   4.259   0.054   1.278  0.0453  0.4337 -0.2647
  601TIP3    H123438   4.273  -0.002   1.202 -1.6046  0.8786 -0.9401
  601TIP3    H223439   4.323   0.023   1.342  0.3012 -1.1139 -1.2046
  602TIP3   OH223440   1.587   3.542   7.997 -0.4009  0.0399  0.3293
  602TIP3    H123441   1.674   3.575   7.974 -0.8179  0.2183 -1.0496
  602TIP3    H223442   1.541   3.535   7.914 -1.9628  0.6444  1.1162
  603TIP3   OH223443   2.755   5.106   7.162 -0.0893  0.2893 -0.1920
  603TIP3    H123444   2.743   5.195   7.193  1.4127  0.8959 -1.2478
  603TIP3    H223445   2.715   5.105   7.075 -0.1222 -0.0902 -0.1762
  604TIP3   OH223446   5.204   1.791   0.334 -0.2170  0.0369  0.2550
  604TIP3    H123447   5.114   1.776   0.362 -0.6454  1.5981 -0.1783
  604TIP3    H223448   5.256   1.729   0.386 -1.3039  0.6159  2.1457
  605TIP3   OH223449   4.990   0.484   8.894 -0.3049  0.7341  0.1388
  605TIP3    H123450   4.901   0.450   8.896 -0.0250  0.0062  0.9279
  605TIP3    H223451   4.980   0.578   8.886 -1.1512  0.6622  0.2878
  606TIP3   OH223452   2.365   3.126   2.798  0.1796  0.2246  0.0222
  606TIP3    H123453   2.306   3.130   2.722  0.3091  1.3317 -0.0347
  606TIP3    H223454   2.449   3.159   2.765 -0.4451  3.4485  1.2398
  607TIP3   OH223455   6.627   1.196   1.652 -0.3963 -0.0251 -0.0298
  607TIP3    H123456   6.677   1.130   1.603 -0.8658  0.1593 -0.7656
  607TIP3    H223457   6.675   1.206   1.734  0.7182  0.0536 -0.6712
  608TIP3   OH223458   1.339   4.514   7.287 -0.6269 -0.0199  0.1562
  608TIP3    H123459   1.334   4.607   7.311 -0.5594 -0.2976  1.2969
  608TIP3    H223460   1.284   4.507   7.209 -1.2163  0.8476  0.4707
  609TIP3   OH223461   3.718   4.305   8.899 -0.2086 -0.2455  0.0621
  609TIP3    H123462   3.650   4.247   8.864  0.2015 -1.4207  1.1534
  609TIP3    H223463   3.800   4.261   8.877  0.2370  1.0752 -1.0899
  610TIP3   OH223464   5.910   2.984   7.736 -0.3087 -0.6249 -0.0816
  610TIP3    H123465   5.891   3.065   7.691 -0.0580  0.2504  1.3195
  610TIP3    H223466   5.830   2.932   7.729 -1.0846  0.4684  0.4927
  611TIP3   OH223467   0.342   3.376   8.543  0.4612 -0.2511 -0.4666
  611TIP3    H123468   0.414   3.320   8.514  0.5668 -1.1766  1.4266
  611TIP3    H223469   0.267   3.317   8.551 -0.0826  0.3766 -0.8443
  612TIP3   OH223470   3.326   3.902   1.242  0.2121  0.1531  0.2402
  612TIP3    H123471   3.295   3.876   1.156  1.8737 -0.0980 -0.3200
  612TIP3    H223472   3.320   3.998   1.242  0.6016  0.1826 -0.3241
  613TIP3   OH223473   4.606   2.288   0.284 -0.9579 -0.2757  0.6323
  613TIP3    H123474   4.535   2.242   0.328 -1.5947 -0.6618 -0.7368
  613TIP3    H223475   4.590   2.274   0.191  2.1914 -2.3608  0.2307
  614TIP3   OH223476   4.460   5.698   0.803  0.1403  0.1834  0.0856
  614TIP3    H123477   4.534   5.676   0.745  1.4388  0.8646  1.4198
  614TIP3    H223478   4.479   5.653   0.885  0.3671  2.2519  1.2477
  615TIP3   OH223479   1.155   5.644   7.333  0.1441 -0.5065  0.1041
  615TIP3    H123480   1.187   5.729   7.302  0.8613 -0.7173  0.2461
  615TIP3    H223481   1.164   5.586   7.258  0.1660 -0.5827  0.1659
  616TIP3   OH223482   1.537   0.625   8.599 -0.1124  0.6011 -0.3934
  616TIP3    H123483   1.551   0.646   8.691  0.8890  1.3142 -0.6971
  616TIP3    H223484   1.491   0.701   8.563  0.2196  0.6758 -0.6652
  617TIP3   OH223485   4.101   0.695   1.129 -0.4614  0.5749 -0.0081
  617TIP3    H123486   4.084   0.747   1.208  1.9747 -0.4502  1.3275
  617TIP3    H223487   4.015   0.679   1.092 -1.7030  1.3314  2.3135
  618TIP3   OH223488   3.156   6.141   1.494  0.9020  0.2218  0.4365
  618TIP3    H123489   3.183   6.232   1.481  2.0217 -0.0682  0.6062
  618TIP3    H223490   3.217   6.090   1.442  1.3821 -0.5345  1.7017
  619TIP3   OH223491   3.809   2.825   1.364  0.0812 -0.6506 -0.2186
  619TIP3    H123492   3.783   2.765   1.294 -1.4025  0.6133 -0.8022
  619TIP3    H223493   3.852   2.769   1.429 -1.2079 -2.3324 -0.7498
  620TIP3   OH223494   2.759   4.759   1.472  0.1723 -0.0560  0.7038
  620TIP3    H123495   2.719   4.760   1.558 -0.0176  1.4161  0.6327
  620TIP3    H223496   2.721   4.834   1.427  0.3975 -0.6908 -0.6073
  621TIP3   OH223497   1.301   4.107   7.528  0.2450 -0.2988 -0.7354
  621TIP3    H123498   1.320   4.196   7.498 -0.3261 -0.0964 -0.5053
  621TIP3    H223499   1.313   4.111   7.622 -2.2095  0.2077 -0.3656
  622TIP3   OH223500   3.054   3.060   1.001 -0.1268  0.2251  0.0046
  622TIP3    H123501   3.062   2.964   1.007  0.6888  0.2736 -0.1880
  622TIP3    H223502   3.124   3.086   0.941  0.0116  1.0016  0.4913
  623TIP3   OH223503   1.499   3.035   6.931 -0.2306 -0.6491 -0.1223
  623TIP3    H123504   1.431   2.971   6.912  0.3982 -0.8239 -1.9850
  623TIP3    H223505   1.576   2.982   6.954  0.3330 -0.6144 -1.8139
  624TIP3   OH223506   4.307   1.249   8.469 -1.1332  0.0029  0.7747
  624TIP3    H123507   4.258   1.173   8.439  0.8696 -0.2984 -2.1417
  624TIP3    H223508   4.395   1.215   8.488  0.1102  1.6458 -1.6178
  625TIP3   OH223509   3.636   1.697   1.304  0.0158  0.0941  0.6533
  625TIP3    H123510   3.651   1.675   1.213 -0.3361 -0.6583  0.7767
  625TIP3    H223511   3.670   1.622   1.353  0.6281  0.6905  1.1644
  626TIP3   OH223512   2.844   3.451   8.714  0.2624  0.0918  0.8372
  626TIP3    H123513   2.940   3.446   8.715  0.5635  1.2756 -2.9618
  626TIP3    H223514   2.815   3.361   8.727  1.9176 -0.4039  1.3624
  627TIP3   OH223515   3.481   1.820   6.728  0.0351  0.5625 -0.4857
  627TIP3    H123516   3.458   1.735   6.689  0.5107 -0.3997  1.2473
  627TIP3    H223517   3.573   1.810   6.754  0.0247  1.5299 -0.0524
  628TIP3   OH223518   1.196   5.114   8.782  0.5050  0.0640 -0.2346
  628TIP3    H123519   1.235   5.058   8.714 -0.8810 -0.6147 -0.5162
  628TIP3    H223520   1.162   5.052   8.847 -0.9892  0.5293 -0.5179
  629TIP3   OH223521   0.223   6.045   7.345  0.2875  0.9029 -0.1987
  629TIP3    H123522   0.313   6.038   7.374  0.2182 -0.7640 -0.2834
  629TIP3    H223523   0.228   6.050   7.250  0.2537 -1.0182 -0.3317
  630TIP3   OH223524   1.896   4.194   6.972 -0.4536 -0.0767  0.3174
  630TIP3    H123525   1.991   4.183   6.968 -0.5442 -0.6420 -0.5428
  630TIP3    H223526   1.883   4.284   7.002  0.3606  0.3129 -0.4537
  631TIP3   OH223527   0.484   3.781   1.407 -0.1131  0.3520  0.4769
  631TIP3    H123528   0.569   3.746   1.436  0.3412  0.0080 -1.1645
  631TIP3    H223529   0.504   3.828   1.326 -1.9243 -2.7462 -2.0200
  632TIP3   OH223530   5.136   4.827   2.533 -0.4649  0.2534  0.2605
  632TIP3    H123531   5.229   4.802   2.526  0.0561  1.8425  0.9474
  632TIP3    H223532   5.088   4.746   2.517  1.0183 -0.4257 -0.9809
  633TIP3   OH223533   4.807   6.446   2.580  0.2536 -0.2805 -0.4393
  633TIP3    H123534   4.748   6.371   2.588 -0.8957  0.5725 -0.5818
  633TIP3    H223535   4.895   6.409   2.585 -0.2522 -1.3770  2.1463
  634TIP3   OH223536   0.604   5.183   6.695  0.1540  0.2542 -0.1320
  634TIP3    H123537   0.631   5.100   6.734 -0.1767  0.3023  0.2074
  634TIP3    H223538   0.673   5.244   6.717  0.1815  0.1752 -0.0001
  635TIP3   OH223539   4.159   2.593   8.098 -0.2506 -0.3384  0.0411
  635TIP3    H123540   4.204   2.652   8.159 -1.0091  0.0662  0.2151
  635TIP3    H223541   4.090   2.647   8.059 -1.2269 -1.2151  0.5079
  636TIP3   OH223542   4.808   2.798   7.212  0.1847  0.3120  0.0503
  636TIP3    H123543   4.830   2.707   7.235 -1.0349  0.0565  0.3057
  636TIP3    H223544   4.814   2.800   7.116 -0.6054 -0.2942 -0.0318
  637TIP3   OH223545   3.515   4.950   8.470 -0.3056  0.2224  0.5587
  637TIP3    H123546   3.601   4.988   8.456  0.0728 -1.0900 -0.9810
  637TIP3    H223547   3.527   4.856   8.456 -2.3714  0.2344 -2.0588
  638TIP3   OH223548   1.689   1.103   0.425 -0.2400 -0.4368 -0.1215
  638TIP3    H123549   1.611   1.075   0.377 -0.4970 -0.6899  0.4348
  638TIP3    H223550   1.759   1.049   0.389 -0.9042 -2.6448  1.6559
  639TIP3   OH223551   2.186   0.444   6.588  0.2632 -0.4467  0.2540
  639TIP3    H123552   2.229   0.360   6.605 -1.0560 -1.2502 -0.2446
  639TIP3    H223553   2.248   0.492   6.533  1.2058 -0.9265  0.8726
  640TIP3   OH223554   2.748   6.502   0.375 -0.1028 -0.1417  0.2521
  640TIP3    H123555   2.701   6.479   0.455 -1.4814 -1.0799 -0.7742
  640TIP3    H223556   2.726   6.593   0.359 -3.1203 -0.9685 -1.1044
  641TIP3   OH223557   3.332   5.508   1.493  0.6700  0.0273 -0.0184
  641TIP3    H123558   3.291   5.517   1.408 -1.1560 -0.0661  0.8135
  641TIP3    H223559   3.367   5.596   1.512  2.7002 -0.3628 -1.5762
  642TIP3   OH223560   1.253   4.656   2.043  0.2576 -0.2467  0.0945
  642TIP3    H123561   1.322   4.676   2.107 -0.8741 -0.2523  1.3456
  642TIP3    H223562   1.230   4.565   2.060 -2.1575  0.5760  1.8239
  643TIP3   OH223563   3.513   0.649   2.080 -0.6890  0.3473  0.0800
  643TIP3    H123564   3.501   0.690   2.165 -0.5143  0.4256  0.0666
  643TIP3    H223565   3.605   0.621   2.079 -0.3238  1.5150 -0.5922
  644TIP3   OH223566   3.052   5.493   1.611 -0.3259  0.1607 -0.2475
  644TIP3    H123567   3.133   5.526   1.571  0.0523  0.9557  1.1006
  644TIP3    H223568   3.052   5.399   1.591  1.2648  0.0269  0.2537
  645TIP3   OH223569   5.739   6.604   0.733 -0.2961 -0.5329  0.3290
  645TIP3    H123570   5.835   6.610   0.735 -0.3468  2.2784 -0.9198
  645TIP3    H223571   5.713   6.602   0.825  0.8954  1.6054  0.7741
  646TIP3   OH223572   5.749   3.216   0.369 -0.2725 -0.3122 -0.3229
  646TIP3    H123573   5.773   3.295   0.322  0.8896 -0.8950 -0.7623
  646TIP3    H223574   5.808   3.149   0.334 -2.7500 -1.9376 -1.6816
  647TIP3   OH223575   1.106   2.370   2.131 -0.1309 -0.0276 -0.0840
  647TIP3    H123576   1.016   2.366   2.165 -0.5190  0.1199 -1.0739
  647TIP3    H223577   1.148   2.292   2.168 -0.1152  0.8607  1.8700
  648TIP3   OH223578   1.630   4.996   7.992  0.5754  0.0308  0.7314
  648TIP3    H123579   1.628   5.040   8.077 -0.2967 -1.4021  1.4936
  648TIP3    H223580   1.579   5.053   7.934  1.6911  1.3310  0.9885
  649TIP3   OH223581   0.637   5.309   7.421  0.0639 -0.5356 -0.7200
  649TIP3    H123582   0.625   5.216   7.442  0.2195 -1.0522 -2.6905
  649TIP3    H223583   0.731   5.323   7.426  0.0355 -0.4736 -0.3704
  650TIP3   OH223584   3.545   4.921   1.386 -0.1049  0.2331  0.2797
  650TIP3    H123585   3.576   4.868   1.312  1.0748  2.0369 -0.5931
  650TIP3    H223586   3.518   4.857   1.452  0.4410 -1.4344 -1.0402
  651TIP3   OH223587   3.836   6.425   2.153 -0.2078 -0.2573  0.3931
  651TIP3    H123588   3.906   6.406   2.215 -0.9897 -1.4060  0.9677
  651TIP3    H223589   3.859   6.510   2.116  0.1700  0.5761  2.4141
  652TIP3   OH223590   0.445   1.877   2.272 -0.2340  0.0656  0.0840
  652TIP3    H123591   0.421   1.786   2.291  0.4349 -0.0170  0.5720
  652TIP3    H223592   0.486   1.908   2.353  0.5206  0.4533 -0.4355
  653TIP3   OH223593   0.012   5.615   7.775 -0.7636 -0.5858 -0.2243
  653TIP3    H123594   0.060   5.681   7.825 -0.4975 -0.9381 -0.0103
  653TIP3    H223595   0.071   5.590   7.704 -1.2186  0.0574 -0.8423
  654TIP3   OH223596   4.516   5.697   2.184  0.9175 -0.4415 -1.0912
  654TIP3    H123597   4.562   5.722   2.104 -1.7748 -0.0102 -2.5993
  654TIP3    H223598   4.454   5.630   2.157 -0.8717  0.5328  0.3833
  655TIP3   OH223599   0.254   4.654   7.417 -0.0929  0.0837  0.0524
  655TIP3    H123600   0.316   4.724   7.434 -1.7515  1.3043  1.4007
  655TIP3    H223601   0.191   4.691   7.356 -0.7949 -0.3304  0.5036
  656TIP3   OH223602   5.618   6.625   1.236 -0.0761 -0.1101 -0.1406
  656TIP3    H123603   5.631   6.581   1.321  2.2350  0.1349 -0.2899
  656TIP3    H223604   5.523   6.634   1.228 -0.3882 -0.2771  2.3514
  657TIP3   OH223605   1.952   4.645   0.286 -0.5993 -0.3840  0.5759
  657TIP3    H123606   1.946   4.615   0.196 -0.7529 -1.7841  1.0295
  657TIP3    H223607   2.034   4.607   0.319  0.3918  1.5717  0.5329
  658TIP3   OH223608   4.271   1.929   6.578  0.0604  0.0853 -0.2979
  658TIP3    H123609   4.318   1.916   6.661  0.3501 -1.3959 -0.6641
  658TIP3    H223610   4.337   1.963   6.518 -0.0286  0.6811 -0.0645
  659TIP3   OH223611   4.652   3.983   6.773  0.1279 -0.4922  0.1612
  659TIP3    H123612   4.736   3.958   6.810  1.4450  0.7475 -1.8279
  659TIP3    H223613   4.638   4.073   6.803 -0.2728 -0.5282  0.0975
  660TIP3   OH223614   0.839   1.271   7.294  0.1987  0.0794 -0.2362
  660TIP3    H123615   0.856   1.177   7.301  0.2914  0.1954  1.3629
  660TIP3    H223616   0.926   1.312   7.297  0.0729  0.3013  1.0981
  661TIP3   OH223617   2.843   5.453   1.914 -0.1783 -0.2095 -0.2766
  661TIP3    H123618   2.852   5.508   1.836 -0.9643 -1.3934 -1.2291
  661TIP3    H223619   2.923   5.468   1.963  0.0340  1.0711 -0.9716
  662TIP3   OH223620   0.711   2.604   1.662  0.3664  0.4799  0.6031
  662TIP3    H123621   0.668   2.569   1.741  0.6707 -1.3773  0.0041
  662TIP3    H223622   0.791   2.552   1.654  0.1996  0.4438 -1.0819
  663TIP3   OH223623   3.961   3.170   6.955 -0.1092 -0.2520 -0.1477
  663TIP3    H123624   4.027   3.174   6.886 -1.0519 -0.4702 -1.0987
  663TIP3    H223625   3.986   3.094   7.007  0.4951 -0.2172 -0.3767
  664TIP3   OH223626   4.995   5.546   1.840 -0.7842  0.0753 -0.1867
  664TIP3    H123627   5.074   5.518   1.794  0.5105  0.6093  1.6383
  664TIP3    H223628   5.009   5.520   1.931 -2.8221 -0.0274  0.1579
  665TIP3   OH223629   5.695   2.202   0.784  0.3843  0.0925  0.0847
  665TIP3    H123630   5.688   2.155   0.701  0.7446 -3.1196  1.7491
  665TIP3    H223631   5.609   2.244   0.795  1.1519  2.9351 -3.0406
  666TIP3   OH223632   2.686   0.384   8.077  0.3535 -0.1731 -0.1487
  666TIP3    H123633   2.778   0.391   8.052 -0.0907 -1.2461 -2.3353
  666TIP3    H223634   2.671   0.291   8.089 -0.3458  0.0382  0.7316
  667TIP3   OH223635   5.271   1.205   7.176 -0.2434  0.3238  0.3180
  667TIP3    H123636   5.340   1.161   7.127  1.4014  3.6779 -0.6748
  667TIP3    H223637   5.194   1.198   7.120  0.9157  1.7379 -1.5421
  668TIP3   OH223638   2.997   6.302   0.388 -0.0532 -0.4129  0.2561
  668TIP3    H123639   2.923   6.356   0.413  0.0966  0.4807 -1.1117
  668TIP3    H223640   3.035   6.272   0.471 -0.0900  1.6622  1.0805
  669TIP3   OH223641   1.804   4.936   0.178  0.3827 -0.6353  0.4587
  669TIP3    H123642   1.851   4.965   0.100 -2.2892 -0.2178 -1.1231
  669TIP3    H223643   1.728   4.888   0.143 -1.4222  0.3890  2.7618
  670TIP3   OH223644   3.931   3.878   1.755  0.4200  0.1769 -0.0299
  670TIP3    H123645   3.956   3.786   1.751 -0.9356 -0.1766 -1.4459
  670TIP3    H223646   4.011   3.926   1.732  0.9741 -0.6738  0.0944
  671TIP3   OH223647   1.374   2.143   1.782 -0.0473 -0.2160 -0.6263
  671TIP3    H123648   1.404   2.052   1.783  0.8954  0.0879 -0.7627
  671TIP3    H223649   1.398   2.176   1.696  1.5990  0.7963  0.1802
  672TIP3   OH223650   1.365   4.046   6.852  0.0734 -0.2241  0.3072
  672TIP3    H123651   1.460   4.054   6.841 -0.1326  1.9614 -0.3487
  672TIP3    H223652   1.335   4.013   6.767  0.3593 -2.5248  1.0481
  673TIP3   OH223653   5.983   2.211   0.015  0.6508 -0.1958 -0.1632
  673TIP3    H123654   5.960   2.119   0.024  0.6672 -0.1932 -0.0942
  673TIP3    H223655   6.004   2.239   0.104  1.6655 -0.3904 -0.3260
  674TIP3   OH223656   1.507   1.407   7.662  0.0700 -0.4007 -0.0958
  674TIP3    H123657   1.414   1.394   7.640  0.5971 -4.5172 -0.6094
  674TIP3    H223658   1.509   1.414   7.757 -0.7742  0.2737 -0.1129
  675TIP3   OH223659   1.629   3.503   7.490  0.4902  0.1022 -0.4030
  675TIP3    H123660   1.693   3.534   7.426 -0.1037  0.3486 -0.8853
  675TIP3    H223661   1.546   3.501   7.443  0.4246 -1.8999 -0.3007
  676TIP3   OH223662   3.659   2.074   2.143 -0.3416 -0.3020 -0.1935
  676TIP3    H123663   3.634   2.048   2.232 -0.7567 -2.2223 -0.8117
  676TIP3    H223664   3.749   2.042   2.134 -0.3039 -0.1205 -0.4660
  677TIP3   OH223665   5.552   3.396   8.245  0.4290  0.0951 -0.5515
  677TIP3    H123666   5.495   3.365   8.316  0.9140 -2.3156 -1.1160
  677TIP3    H223667   5.495   3.449   8.190 -0.7933 -0.6267 -0.0257
  678TIP3   OH223668   1.942   3.222   0.742  0.3092  0.0308  0.1879
  678TIP3    H123669   1.964   3.205   0.650  0.3446 -0.1305  0.2253
  678TIP3    H223670   2.007   3.286   0.771  0.4484 -0.1000  0.1681
  679TIP3   OH223671   6.594   6.203   0.269 -0.3849 -0.2720 -0.1646
  679TIP3    H123672   6.668   6.146   0.290  1.4369  1.5772 -1.1806
  679TIP3    H223673   6.562   6.171   0.185 -0.4522 -0.7818  0.0493
  680TIP3   OH223674   2.485   2.850   7.915 -0.0093  0.3442  0.3313
  680TIP3    H123675   2.398   2.811   7.907 -0.0304  0.3399  0.5826
  680TIP3    H223676   2.544   2.775   7.921  0.0751  0.3369 -0.4419
  681TIP3   OH223677   6.595   5.394   7.842 -0.1461 -0.2549 -0.1837
  681TIP3    H123678   6.586   5.414   7.749 -0.6801  2.9024  0.4612
  681TIP3    H223679   6.678   5.432   7.867  0.0075 -1.1120  0.6618
  682TIP3   OH223680   4.100   1.147   7.362 -0.1387  0.0569  0.2396
  682TIP3    H123681   4.041   1.222   7.373 -1.5037 -0.6294 -1.8213
  682TIP3    H223682   4.126   1.123   7.451 -0.1652  2.5447  1.0066
  683TIP3   OH223683   3.212   0.372   1.214  0.4793 -0.3377  0.2163
  683TIP3    H123684   3.245   0.306   1.275 -0.7319 -0.9244  0.2637
  683TIP3    H223685   3.118   0.354   1.207  0.5486 -0.2021 -1.7252
  684TIP3   OH223686   6.323   0.900   6.472 -0.2733  0.1192 -0.0752
  684TIP3    H123687   6.365   0.937   6.549  0.4708  0.3519 -0.5786
  684TIP3    H223688   6.341   0.806   6.477  0.1813  0.1976 -0.2045
  685TIP3   OH223689   3.160   5.215   8.757  0.2879 -0.1018 -0.2959
  685TIP3    H123690   3.160   5.171   8.842  0.4739  0.7396  0.1473
  685TIP3    H223691   3.252   5.232   8.738  0.2918 -0.8201 -0.9538
  686TIP3   OH223692   0.317   6.509   1.061  0.3039 -0.8347  0.2610
  686TIP3    H123693   0.243   6.453   1.083 -0.8773  0.1581 -0.9535
  686TIP3    H223694   0.304   6.587   1.116 -0.6011  0.0863 -1.1763
  687TIP3   OH223695   2.849   2.249   0.967  0.3929 -0.0977 -0.2826
  687TIP3    H123696   2.831   2.169   1.017  3.3655  0.1454  1.4426
  687TIP3    H223697   2.766   2.271   0.926 -1.0629 -2.9055  0.8852
  688TIP3   OH223698   5.316   1.729   1.795 -0.2036  0.2389 -0.4702
  688TIP3    H123699   5.283   1.757   1.709 -0.5581  0.6741 -0.1944
  688TIP3    H223700   5.410   1.743   1.789 -0.1678 -0.1633 -0.9479
  689TIP3   OH223701   4.815   3.343   0.165 -0.0518  0.0114  0.0323
  689TIP3    H123702   4.737   3.357   0.111  0.7024 -0.0681 -1.1084
  689TIP3    H223703   4.867   3.423   0.154  1.6759 -1.2650 -2.1035
  690TIP3   OH223704   3.224   3.384   1.033  0.0061 -0.3365  0.2827
  690TIP3    H123705   3.275   3.464   1.023 -2.7408  1.2731 -2.6512
  690TIP3    H223706   3.263   3.322   0.972  0.4990 -0.3305  0.5856
  691TIP3   OH223707   1.136   5.472   7.113 -0.5688 -0.2408  0.8263
  691TIP3    H123708   1.161   5.439   7.026  0.3843 -2.2629  1.8172
  691TIP3    H223709   1.047   5.506   7.101 -0.4459 -0.4381 -0.9358
  692TIP3   OH223710   2.881   2.107   6.969 -0.1601 -0.5699  0.2961
  692TIP3    H123711   2.789   2.079   6.970 -0.0179 -1.2026 -1.3328
  692TIP3    H223712   2.877   2.202   6.967 -0.9082 -0.5753 -2.2848
  693TIP3   OH223713   3.299   5.008   3.128  0.1088  0.4487 -0.3144
  693TIP3    H123714   3.264   4.919   3.129 -0.7746  0.7522 -1.5796
  693TIP3    H223715   3.331   5.020   3.039  0.5775  1.2673 -0.0454
  694TIP3   OH223716   2.727   4.318   8.398 -0.5818  0.1605 -0.6075
  694TIP3    H123717   2.720   4.222   8.398 -0.3168  0.1422 -0.8799
  694TIP3    H223718   2.662   4.346   8.333  1.0290  0.0376 -2.3718
  695TIP3   OH223719   5.800   4.063   8.815 -0.6281  0.2436  0.3702
  695TIP3    H123720   5.747   4.095   8.888 -1.0167  1.7202 -0.5230
  695TIP3    H223721   5.888   4.095   8.834 -0.6796  0.4099  0.3344
  696TIP3   OH223722   4.189   6.445   7.400  0.0640  0.2688  0.1561
  696TIP3    H123723   4.178   6.365   7.348 -0.0370 -0.5450  1.3934
  696TIP3    H223724   4.283   6.453   7.412  0.2033  1.2246 -1.2618
  697TIP3   OH223725   3.196   6.410   8.653 -0.0931  0.3207 -0.7763
  697TIP3    H123726   3.184   6.401   8.748  0.7797 -0.9318 -0.7512
  697TIP3    H223727   3.158   6.330   8.617 -0.3623  0.7614 -1.4895
  698TIP3   OH223728   1.785   6.359   0.306 -0.8924  0.2672  0.4945
  698TIP3    H123729   1.847   6.431   0.297 -1.8170  0.8358 -2.1323
  698TIP3    H223730   1.835   6.280   0.288 -0.8940  0.7513 -2.0118
  699TIP3   OH223731   5.253   0.427   7.891  0.1111  0.0494  0.1961
  699TIP3    H123732   5.176   0.391   7.848  1.2994  0.0925 -2.1256
  699TIP3    H223733   5.309   0.351   7.909  0.2763  0.1826  0.2510
  700TIP3   OH223734   4.744   0.711   1.675 -0.4460  0.1091 -0.0987
  700TIP3    H123735   4.739   0.806   1.670 -0.2600  0.1433  0.3548
  700TIP3    H223736   4.653   0.683   1.682 -0.4727  0.2846  0.2800
  701TIP3   OH223737   3.461   5.723   1.574  0.0845  0.1399 -0.0117
  701TIP3    H123738   3.478   5.747   1.665 -0.0374  0.3185 -0.0374
  701TIP3    H223739   3.442   5.805   1.530  1.4103  0.2186 -0.4782
  702TIP3   OH223740   0.374   4.579   0.474  0.1049  0.6498 -0.6030
  702TIP3    H123741   0.340   4.516   0.538 -1.1550  2.0967  0.2308
  702TIP3    H223742   0.419   4.645   0.527  1.8052  0.2318 -1.4926
  703TIP3   OH223743   2.542   0.871   7.819 -0.1399 -0.5710  0.1366
  703TIP3    H123744   2.631   0.837   7.827 -0.3269 -0.8355  1.3050
  703TIP3    H223745   2.487   0.793   7.817 -0.4224 -0.3870  0.6233
  704TIP3   OH223746   1.580   2.375   7.826  0.5490  0.0233 -0.0546
  704TIP3    H123747   1.676   2.376   7.832  0.7250 -0.9428 -1.9324
  704TIP3    H223748   1.559   2.451   7.771  0.4446 -0.8588 -1.2937
  705TIP3   OH223749   0.435   1.741   7.997 -0.0441  0.4961 -0.2263
  705TIP3    H123750   0.478   1.715   7.915  0.0675  0.5597 -0.1882
  705TIP3    H223751   0.405   1.830   7.980 -0.4939  0.3170 -0.3837
  706TIP3   OH223752   5.051   5.142   8.185 -0.1175  0.4500  0.4176
  706TIP3    H123753   5.042   5.229   8.224 -1.3104  0.1383  0.8750
  706TIP3    H223754   5.092   5.158   8.100  0.0545  1.4092  0.6616
  707TIP3   OH223755   5.248   5.790   0.644 -0.0448 -0.3145  0.8271
  707TIP3    H123756   5.271   5.796   0.551  0.8547 -4.5445  0.5356
  707TIP3    H223757   5.332   5.791   0.690 -0.3998  0.4795  1.4782
  708TIP3   OH223758   5.712   6.559   8.522 -0.4730  0.1778  0.4808
  708TIP3    H123759   5.789   6.594   8.567  0.2647  0.5698 -1.0282
  708TIP3    H223760   5.693   6.477   8.569  1.0189 -0.0532  0.7419
  709TIP3   OH223761   2.472   5.555   8.598 -0.0811  0.0295  0.3091
  709TIP3    H123762   2.491   5.469   8.637 -0.5090  0.6347  1.9083
  709TIP3    H223763   2.557   5.598   8.592 -0.1409  0.3474  1.6206
  710TIP3   OH223764   6.578   2.524   8.918 -0.1335  0.2728  1.0989
  710TIP3    H123765   6.566   2.594   8.854 -0.4907 -0.1149  0.7287
  710TIP3    H223766   6.632   2.562   8.987  1.0318  0.4350  0.1260
  711TIP3   OH223767   2.649   5.636   6.943  0.2717  0.2430  0.5096
  711TIP3    H123768   2.610   5.553   6.914  0.7178 -0.7270  2.5433
  711TIP3    H223769   2.601   5.702   6.893  0.3251 -1.2161 -1.6531
  712TIP3   OH223770   0.581   6.565   8.228 -0.6261 -0.0946  0.0712
  712TIP3    H123771   0.599   6.602   8.141 -0.4960 -0.9578 -0.2788
  712TIP3    H223772   0.509   6.618   8.261 -0.3857  0.5312 -0.3785
  713TIP3   OH223773   4.732   3.042   0.292 -0.1347 -0.1824  0.3318
  713TIP3    H123774   4.754   2.963   0.341 -0.3458 -0.2053  0.3904
  713TIP3    H223775   4.793   3.044   0.219 -0.3678 -0.5881  0.1249
  714TIP3   OH223776   0.272   1.045   8.826 -0.1197 -0.0169  0.3028
  714TIP3    H123777   0.296   1.133   8.857  0.8133 -0.8429  2.0423
  714TIP3    H223778   0.352   1.011   8.786  0.3548 -1.0803  2.0846
  715TIP3   OH223779   3.386   0.857   7.116 -0.2481 -0.1000  0.4096
  715TIP3    H123780   3.462   0.835   7.170 -0.1490  0.1000  0.3528
  715TIP3    H223781   3.421   0.869   7.028 -0.4876 -0.9235  0.1963
  716TIP3   OH223782   4.394   6.371   0.802 -0.1625 -0.1004 -0.0053
  716TIP3    H123783   4.406   6.389   0.709 -0.3949  1.2381  0.2035
  716TIP3    H223784   4.318   6.424   0.826  0.1304 -0.1428  1.0313
  717TIP3   OH223785   4.726   0.868   8.419  0.3908 -0.0587 -0.3855
  717TIP3    H123786   4.707   0.815   8.341 -0.3148 -1.0573  0.4283
  717TIP3    H223787   4.811   0.837   8.449  1.0856  0.9494 -1.2310
  718TIP3   OH223788   5.655   1.665   1.009  0.0175  0.1414 -0.1414
  718TIP3    H123789   5.564   1.694   1.015 -0.1242  0.2534 -2.1107
  718TIP3    H223790   5.704   1.743   0.982  0.5707 -0.1078  0.1272
  719TIP3   OH223791   3.355   5.521   0.496 -0.0341 -0.0730 -0.3960
  719TIP3    H123792   3.415   5.593   0.515 -0.6555 -0.0421  1.6811
  719TIP3    H223793   3.305   5.552   0.419 -0.3762  1.8059  0.5242
  720TIP3   OH223794   3.256   3.217   0.577 -0.0473 -0.0301 -0.4757
  720TIP3    H123795   3.266   3.309   0.600  0.5952 -0.1749 -0.1372
  720TIP3    H223796   3.232   3.174   0.658  0.7791 -0.3226 -0.3728
  721TIP3   OH223797   3.284   5.235   7.927 -0.5374 -0.1425  0.0345
  721TIP3    H123798   3.243   5.194   7.850 -0.5150 -0.1945  0.0497
  721TIP3    H223799   3.378   5.221   7.914 -0.4854  0.4560 -0.2708
  722TIP3   OH223800   0.391   6.633   8.456  0.3205  0.4660  0.1285
  722TIP3    H123801   0.336   6.616   8.380  1.1387  0.0432 -0.3940
  722TIP3    H223802   0.336   6.613   8.531 -0.4262  0.6579 -0.3615
  723TIP3   OH223803   3.904   1.016   7.069  0.2357 -0.2303 -0.3088
  723TIP3    H123804   3.878   1.017   6.977  1.9275 -2.3306 -0.9011
  723TIP3    H223805   3.888   0.926   7.098  2.5009 -0.4494  0.5211
  724TIP3   OH223806   3.852   0.836   1.800 -0.2980  0.4947  0.3229
  724TIP3    H123807   3.834   0.743   1.788  0.2818  0.3991  0.1453
  724TIP3    H223808   3.874   0.844   1.893  1.1600  0.1712  0.0401
  725TIP3   OH223809   5.410   5.791   1.208  0.4349 -0.0021  0.4356
  725TIP3    H123810   5.364   5.785   1.125  0.3305  1.4521  0.3506
  725TIP3    H223811   5.359   5.739   1.269  0.5301 -1.1076 -0.4105
  726TIP3   OH223812   5.834   0.660   7.346 -0.2889  0.2001  0.5095
  726TIP3    H123813   5.774   0.588   7.327 -1.3366  0.6959  1.7876
  726TIP3    H223814   5.838   0.709   7.264  0.8303 -1.5321 -0.5374
  727TIP3   OH223815   5.642   2.359   0.410 -0.8849  0.0969  0.2250
  727TIP3    H123816   5.701   2.290   0.378 -1.7112 -1.5110  1.9890
  727TIP3    H223817   5.560   2.313   0.428 -0.7549  1.0147  3.7329
  728TIP3   OH223818   0.968   2.063   7.814  0.0145  0.4236 -0.5394
  728TIP3    H123819   0.937   2.152   7.830  1.5272  0.9475 -0.3324
  728TIP3    H223820   0.983   2.060   7.719 -0.5742  0.2061 -0.6246
  729TIP3   OH223821   1.422   4.630   8.124  0.0251  0.3279  0.4237
  729TIP3    H123822   1.468   4.587   8.196  0.9700  2.3437  1.0999
  729TIP3    H223823   1.415   4.722   8.151 -1.0829  0.8143 -1.3341
  730TIP3   OH223824   0.920   5.722   7.493 -0.5974 -0.1290  0.4214
  730TIP3    H123825   1.004   5.714   7.449 -0.1078  1.9585  0.8711
  730TIP3    H223826   0.876   5.794   7.448 -0.8461  0.8441  2.1179
  731TIP3   OH223827   5.262   4.851   1.235 -0.0742 -0.1781  0.1143
  731TIP3    H123828   5.357   4.846   1.226 -0.0071  0.3722  0.4624
  731TIP3    H223829   5.237   4.927   1.182 -0.3172 -0.3222  0.0222
  732TIP3   OH223830   3.072   2.981   0.722  0.2583 -0.3329  0.1357
  732TIP3    H123831   3.051   2.921   0.650 -0.0608  0.4773 -0.4647
  732TIP3    H223832   2.990   3.028   0.738  0.9011  1.0895 -0.5282
  733TIP3   OH223833   6.355   3.277   0.579  0.6562  0.1723 -0.2269
  733TIP3    H123834   6.443   3.264   0.545  0.6997 -0.1153 -0.0121
  733TIP3    H223835   6.305   3.202   0.545  0.5027  0.3191 -0.3250
  734TIP3   OH223836   2.792   2.640   7.051  0.5796  0.6413 -0.7167
  734TIP3    H123837   2.832   2.617   6.967 -1.1528 -0.2455 -1.3506
  734TIP3    H223838   2.699   2.623   7.039  0.3389 -0.0724  1.5807
  735TIP3   OH223839   0.670   4.721   7.366 -0.4259 -0.4929  0.1731
  735TIP3    H123840   0.643   4.732   7.456 -0.7111  2.1829 -0.1704
  735TIP3    H223841   0.603   4.765   7.314  1.4199  1.0176 -1.0796
  736TIP3   OH223842   4.128   1.232   0.866 -0.5032  0.2995  0.0631
  736TIP3    H123843   4.150   1.149   0.824 -0.2837  0.7093 -0.6336
  736TIP3    H223844   4.197   1.244   0.932 -0.1704  0.2490 -0.2753
  737TIP3   OH223845   1.503   1.873   1.900 -0.5124  0.0646  0.3718
  737TIP3    H123846   1.455   1.883   1.983  0.7997 -2.3348  1.5181
  737TIP3    H223847   1.470   1.792   1.863  1.4842 -0.8128  0.4023
  738TIP3   OH223848   4.989   1.373   1.471 -0.2946 -0.7938  0.6659
  738TIP3    H123849   5.048   1.338   1.537  3.5252  2.5632 -0.5667
  738TIP3    H223850   5.032   1.354   1.387 -1.8900  0.2716 -0.4570
  739TIP3   OH223851   2.558   1.152   8.452 -0.1369 -0.1119  0.4104
  739TIP3    H123852   2.491   1.205   8.495  2.4047  3.5455  0.3353
  739TIP3    H223853   2.616   1.125   8.524 -0.3715 -1.2351  0.1966
  740TIP3   OH223854   0.176   3.620   0.877 -0.0421 -0.1394 -0.2975
  740TIP3    H123855   0.249   3.563   0.899  0.4362  0.6729  0.2820
  740TIP3    H223856   0.149   3.593   0.789  1.8645  0.4673 -1.1072
  741TIP3   OH223857   1.322   2.972   7.845 -0.3499  0.0932 -0.1951
  741TIP3    H123858   1.399   2.931   7.805 -0.1893 -0.9640  1.1193
  741TIP3    H223859   1.261   2.986   7.773  0.7746  0.2360 -1.1351
  742TIP3   OH223860   4.856   2.502   2.027  0.1751  0.3072 -0.1452
  742TIP3    H123861   4.833   2.429   2.085  2.0014 -0.1127  0.1214
  742TIP3    H223862   4.835   2.580   2.078 -2.6175  0.0612 -0.7567
  743TIP3   OH223863   4.095   0.932   1.690  1.0440  0.0429 -0.6077
  743TIP3    H123864   4.128   0.856   1.739 -0.6044 -0.3873 -0.1188
  743TIP3    H223865   4.000   0.924   1.694  0.7996  2.3687 -0.1767
  744TIP3   OH223866   1.566   0.888   1.447  0.0356  0.2525 -0.0481
  744TIP3    H123867   1.516   0.838   1.511  0.3369  0.6943  0.5410
  744TIP3    H223868   1.634   0.933   1.498  0.1203  0.8205 -0.6347
  745TIP3   OH223869   1.282   2.425   1.774  0.1899  0.2901  0.0646
  745TIP3    H123870   1.335   2.357   1.816 -0.3766  0.0279  0.3583
  745TIP3    H223871   1.257   2.388   1.690  0.7276  0.5400 -0.2167
  746TIP3   OH223872   4.515   5.603   8.969 -0.3204 -0.0897 -0.4081
  746TIP3    H123873   4.560   5.682   8.938 -1.9160  0.8330 -0.4471
  746TIP3    H223874   4.434   5.635   9.009 -0.0091 -1.5440  1.5338
  747TIP3   OH223875   0.066   5.936   0.760 -0.6611  0.3853 -0.2378
  747TIP3    H123876   0.010   6.009   0.787 -0.3295  0.8029 -0.6673
  747TIP3    H223877   0.154   5.973   0.757 -0.5630  0.1030 -0.9596
  748TIP3   OH223878   1.378   6.051   8.315  0.8737 -0.3037 -0.5845
  748TIP3    H123879   1.357   6.130   8.366 -0.7948 -1.8758  1.3127
  748TIP3    H223880   1.319   5.984   8.348  4.7487 -3.4751  0.7420
  749TIP3   OH223881   2.945   0.207   1.162 -0.4083 -0.0541  0.6999
  749TIP3    H123882   2.887   0.134   1.184 -0.6595 -0.0250  0.1614
  749TIP3    H223883   2.906   0.245   1.082  2.1923 -2.1252 -1.7669
  750TIP3   OH223884   5.730   3.688   8.169 -0.3005  0.8229  0.4974
  750TIP3    H123885   5.717   3.608   8.219  0.5762  0.1587 -0.3078
  750TIP3    H223886   5.664   3.748   8.203 -1.4155 -0.4465  0.6584
  751TIP3   OH223887   5.305   4.857   8.179  0.6342 -0.0671  0.3760
  751TIP3    H123888   5.252   4.856   8.099  0.6905  0.5363  0.3284
  751TIP3    H223889   5.318   4.765   8.199  0.4162 -0.2273 -0.1788
  752TIP3   OH223890   2.321   3.190   8.296 -0.2483  0.0352  0.3936
  752TIP3    H123891   2.246   3.208   8.241 -2.0480 -3.4149  1.4244
  752TIP3    H223892   2.373   3.126   8.247  1.2152  1.1334  0.4108
  753TIP3   OH223893   6.000   4.817   1.905 -0.0997 -0.3316  0.2374
  753TIP3    H123894   5.969   4.862   1.826  0.7689 -1.6659 -0.9022
  753TIP3    H223895   6.094   4.832   1.907 -0.2125  0.4491  1.5656
  754TIP3   OH223896   2.897   6.416   0.079 -0.0150 -0.2655  0.5337
  754TIP3    H123897   2.906   6.492   0.136  0.7148 -0.7655  1.0947
  754TIP3    H223898   2.802   6.403   0.071 -0.1665  1.0292 -0.0273
  755TIP3   OH223899   1.374   3.158   1.318  0.0466 -0.5652 -0.5637
  755TIP3    H123900   1.437   3.106   1.270 -0.1492  0.1149 -1.5898
  755TIP3    H223901   1.406   3.248   1.311 -0.4222 -0.3515 -0.1147
  756TIP3   OH223902   6.070   0.673   0.673  0.0617 -0.8793  0.3025
  756TIP3    H123903   6.102   0.590   0.710 -1.4396 -2.6226 -2.0421
  756TIP3    H223904   5.976   0.658   0.659 -0.3574  1.4307  0.2621
  757TIP3   OH223905   6.648   2.339   0.253  0.4616 -0.4231  0.4399
  757TIP3    H123906   6.644   2.267   0.190  0.3460  1.1200 -1.4172
  757TIP3    H223907   6.683   2.413   0.203 -1.2756  1.3665  1.7148
  758TIP3   OH223908   3.449   4.447   1.527  0.2348  0.9388 -0.0230
  758TIP3    H123909   3.392   4.470   1.454  1.2042  2.0259 -0.4667
  758TIP3    H223910   3.390   4.435   1.601 -0.8629 -1.1057 -1.1429
  759TIP3   OH223911   4.330   0.750   6.944 -0.3066 -0.0872 -0.2198
  759TIP3    H123912   4.327   0.655   6.954  0.1834 -0.4100 -2.4965
  759TIP3    H223913   4.303   0.765   6.854  2.5109  1.6743 -0.8937
  760TIP3   OH223914   5.780   2.435   1.833  0.9594 -0.1194  0.2822
  760TIP3    H123915   5.835   2.474   1.766  0.6487  2.4948  1.4174
  760TIP3    H223916   5.837   2.427   1.910  0.1842  1.2390  1.0286
  761TIP3   OH223917   4.593   4.529   0.499  0.2651  0.2618  0.7951
  761TIP3    H123918   4.669   4.473   0.514 -0.5241 -1.2792 -0.7028
  761TIP3    H223919   4.619   4.615   0.534  1.7616 -0.8292  2.5134
  762TIP3   OH223920   6.022   5.390   8.355  0.3534 -0.4385  0.4405
  762TIP3    H123921   6.039   5.453   8.285  0.3334  0.5225  1.2648
  762TIP3    H223922   6.105   5.343   8.365  0.7416  0.2491  0.5668
  763TIP3   OH223923   3.326   5.380   0.810  0.3704 -0.6564  0.3328
  763TIP3    H123924   3.421   5.384   0.812  0.4110 -1.6556  1.8958
  763TIP3    H223925   3.306   5.287   0.800 -0.4617 -0.3511 -1.1953
  764TIP3   OH223926   2.523   2.529   8.082  0.5441 -0.2020 -0.5122
  764TIP3    H123927   2.607   2.574   8.074  0.2094  0.8092  1.2273
  764TIP3    H223928   2.464   2.579   8.026  0.9332 -0.5679 -1.2774
  765TIP3   OH223929   1.649   3.005   0.875 -0.0557 -0.1355  0.7513
  765TIP3    H123930   1.731   2.975   0.912 -0.4281 -1.0920  0.8186
  765TIP3    H223931   1.609   2.927   0.835 -0.9353  0.3032  0.7314
  766TIP3   OH223932   6.529   4.609   1.066 -0.2518  0.0147  0.1131
  766TIP3    H123933   6.531   4.516   1.045 -1.5204 -0.1629  0.7141
  766TIP3    H223934   6.504   4.613   1.158 -0.3938  0.9578  0.0475
  767TIP3   OH223935   4.241   3.988   1.755  0.0523  0.0565 -0.5739
  767TIP3    H123936   4.282   3.918   1.704 -0.6591 -0.9065  0.1130
  767TIP3    H223937   4.235   3.951   1.844 -1.8659  0.3067 -0.5510
  768TIP3   OH223938   6.060   0.851   0.456  0.2834 -0.7498  0.3283
  768TIP3    H123939   6.076   0.830   0.548  1.1339 -1.2129  0.0825
  768TIP3    H223940   6.087   0.942   0.448 -3.0337  0.4806  1.3002
  769TIP3   OH223941   5.352   0.167   0.354  0.2295 -0.0595 -0.3560
  769TIP3    H123942   5.301   0.179   0.274  0.3154  0.4886 -0.3312
  769TIP3    H223943   5.373   0.073   0.355 -1.4570 -0.4670  0.0602
  770TIP3   OH223944   5.709   2.409   7.870 -0.5440  0.0317 -0.1066
  770TIP3    H123945   5.777   2.391   7.805  0.3036 -0.2013  0.8280
  770TIP3    H223946   5.709   2.504   7.880  0.2660 -0.0282  0.5349
  771TIP3   OH223947   6.653   4.736   1.751  0.0249  0.3264 -0.1563
  771TIP3    H123948   6.595   4.661   1.766  3.0628 -2.5116 -1.4031
  771TIP3    H223949   6.615   4.782   1.676 -0.6455 -1.4420 -0.9510
  772TIP3   OH223950   4.095   5.370   8.618 -0.7098 -0.2217 -0.2530
  772TIP3    H123951   4.130   5.396   8.703  0.7627  1.5995 -1.3711
  772TIP3    H223952   4.005   5.403   8.618 -1.1547 -1.3175  1.0211
  773TIP3   OH223953   5.210   3.769   8.039 -0.3621 -0.2068  0.1733
  773TIP3    H123954   5.115   3.760   8.044 -0.4031  0.4967  1.0303
  773TIP3    H223955   5.224   3.864   8.029  0.2965  0.0487  2.8043
  774TIP3   OH223956   0.550   4.700   8.541 -0.4452  1.1258  0.0513
  774TIP3    H123957   0.470   4.693   8.490  0.7943  2.9305 -2.3688
  774TIP3    H223958   0.609   4.752   8.486  2.1511  0.4790  2.0145
  775TIP3   OH223959   1.283   0.134   8.450 -0.0809  0.6127 -0.8402
  775TIP3    H123960   1.203   0.158   8.402 -0.2240  2.5893  0.2610
  775TIP3    H223961   1.254   0.067   8.512 -1.1921  2.0521  0.2737
  776TIP3   OH223962   2.299   0.843   8.119  0.2453  0.3242  0.0443
  776TIP3    H123963   2.313   0.773   8.055 -0.1645  1.0888 -0.8987
  776TIP3    H223964   2.387   0.867   8.147  0.4508  0.2212 -0.4939
  777TIP3   OH223965   1.576   2.153   1.264 -0.1095 -0.1480  0.2273
  777TIP3    H123966   1.530   2.080   1.221 -1.0826  0.3452  0.4050
  777TIP3    H223967   1.571   2.133   1.357  3.5130 -2.1181  0.1591
  778TIP3   OH223968   1.115   5.230   1.912 -0.5094 -0.3386 -0.1089
  778TIP3    H123969   1.062   5.272   1.844  0.1218  1.0229  0.2016
  778TIP3    H223970   1.072   5.252   1.994  1.1934  2.0195  0.2803
  779TIP3   OH223971   2.890   1.672   0.436  0.0563  0.5745 -0.1741
  779TIP3    H123972   2.961   1.613   0.411  0.4117 -0.4111  2.8450
  779TIP3    H223973   2.933   1.755   0.454  0.1403  0.5793 -0.3922
  780TIP3   OH223974   3.067   0.243   8.898 -0.2850 -0.1941  0.4144
  780TIP3    H123975   3.034   0.251   8.809  0.6771  0.3441  0.1004
  780TIP3    H223976   3.110   0.327   8.916 -1.2828  0.0857  1.7268
  781TIP3   OH223977   2.641   3.691   0.078  0.3347  0.5127 -0.1400
  781TIP3    H123978   2.560   3.722   0.037  0.2383 -0.8760 -1.0558
  781TIP3    H223979   2.688   3.647   0.008  1.2570  0.1096  0.7118
  782TIP3   OH223980   3.920   2.671   8.272 -0.0482  0.0528  0.1901
  782TIP3    H123981   3.923   2.759   8.233  0.0278  0.9420  2.0817
  782TIP3    H223982   3.966   2.680   8.356 -0.5684 -1.6545  0.7003
  783TIP3   OH223983   4.064   6.145   1.052 -0.1793 -0.1689  0.4998
  783TIP3    H123984   4.039   6.065   1.099  0.6089 -2.1859 -2.2188
  783TIP3    H223985   4.008   6.146   0.975  1.1304  0.8180 -0.4982
  784TIP3   OH223986   0.921   3.921   8.522 -0.2993 -0.3611  0.0159
  784TIP3    H123987   0.877   4.004   8.501 -0.1734 -0.7135 -1.7802
  784TIP3    H223988   1.014   3.942   8.523 -0.3372 -0.1506  1.2921
  785TIP3   OH223989   5.413   1.006   0.974  0.0946 -0.2114 -0.0698
  785TIP3    H123990   5.375   0.957   0.900  0.8504  1.7750 -1.8808
  785TIP3    H223991   5.485   0.950   1.004 -0.5807 -1.3176 -0.4346
  786TIP3   OH223992   3.975   4.054   7.258  0.2265  0.1030 -0.1871
  786TIP3    H123993   3.984   3.995   7.332 -1.2183  0.6736  0.4936
  786TIP3    H223994   3.918   4.125   7.291 -0.9143  0.0886 -1.9750
  787TIP3   OH223995   2.466   0.774   0.085  0.3431  0.1460  0.0488
  787TIP3    H123996   2.481   0.681   0.066  1.1943 -0.0537  1.5337
  787TIP3    H223997   2.437   0.811   0.002  0.6202 -1.3212 -0.7356
  788TIP3   OH223998   6.399   6.319   7.757  0.5268  0.2061  0.1651
  788TIP3    H123999   6.381   6.413   7.768 -0.1257  0.0393  0.5835
  788TIP3    H224000   6.360   6.298   7.672 -3.5505 -0.6434  2.0271
  789TIP3   OH224001   3.669   4.748   7.286 -0.5686  0.2684  0.3769
  789TIP3    H124002   3.688   4.834   7.249  0.8113  0.3722  1.2732
  789TIP3    H224003   3.703   4.686   7.221 -1.2293  0.3858 -0.0943
  790TIP3   OH224004   4.442   4.200   1.667 -0.3542  0.6689 -0.2644
  790TIP3    H124005   4.409   4.122   1.711 -1.6895  1.0863 -0.4735
  790TIP3    H224006   4.409   4.273   1.719  0.4301  1.1037 -0.3711
  791TIP3   OH224007   0.380   0.679   0.021  0.0999  0.6303 -0.0678
  791TIP3    H124008   0.296   0.723   0.008 -0.9827 -1.7139 -1.9789
  791TIP3    H224009   0.437   0.715  -0.048 -0.2882  0.2211 -0.6167
  792TIP3   OH224010   1.267   6.722   7.412 -0.6085  0.4961 -0.3761
  792TIP3    H124011   1.284   6.644   7.465  1.3950  1.1050 -0.0625
  792TIP3    H224012   1.297   6.698   7.324  0.7902  1.1527 -0.1011
  793TIP3   OH224013   0.881   2.588   7.645  0.7331 -0.4438  0.1158
  793TIP3    H124014   0.810   2.589   7.580  1.6970 -0.2157 -0.9580
  793TIP3    H224015   0.837   2.606   7.728 -0.5900 -1.1509 -0.3963
  794TIP3   OH224016   1.069   6.222   7.038  0.0253  0.7358 -0.2634
  794TIP3    H124017   1.039   6.177   6.960  0.1871  0.1001  0.0304
  794TIP3    H224018   1.111   6.301   7.006 -3.0295  2.3305 -0.6342
  795TIP3   OH224019   5.769   3.607   7.695 -0.1559 -0.3190  0.5088
  795TIP3    H124020   5.848   3.621   7.642 -0.4468 -0.4287  0.0386
  795TIP3    H224021   5.767   3.681   7.756 -0.8034  0.8409 -0.8582
  796TIP3   OH224022   2.027   6.105   8.812 -0.4112  0.2355 -0.1624
  796TIP3    H124023   2.085   6.181   8.825  0.4546 -0.4013 -0.1663
  796TIP3    H224024   1.941   6.134   8.842 -0.1316  1.2794 -0.3445
  797TIP3   OH224025   4.722   4.418   8.656  0.1875 -0.3319 -0.6193
  797TIP3    H124026   4.777   4.493   8.635  0.4936 -1.1297 -2.9628
  797TIP3    H224027   4.652   4.455   8.710  2.0121  1.0082  1.0202
  798TIP3   OH224028   0.377   5.263   0.710  0.0485  0.7150 -0.0389
  798TIP3    H124029   0.366   5.168   0.705 -0.1110  0.8014 -2.0157
  798TIP3    H224030   0.472   5.276   0.710  0.0782  0.5374  1.0119
  799TIP3   OH224031   1.984   2.967   7.957 -0.2527  0.4933 -0.0631
  799TIP3    H124032   1.947   2.901   7.898 -0.6929 -0.8270  1.6025
  799TIP3    H224033   2.045   3.016   7.903 -0.1051 -1.1164 -1.4476
  800TIP3   OH224034   0.600   0.462   1.360  0.5369 -0.0859  0.2064
  800TIP3    H124035   0.670   0.504   1.409  0.9847 -0.0782 -0.4337
  800TIP3    H224036   0.598   0.507   1.276 -2.2141  1.9618  1.2233
  801TIP3   OH224037   6.746   5.912   7.258 -0.4202  0.5552 -0.2514
  801TIP3    H124038   6.824   5.956   7.291 -0.0655 -0.6165  0.5511
  801TIP3    H224039   6.672   5.964   7.290  0.0114  1.2022 -0.3052
  802TIP3   OH224040   6.602   1.296   0.037  0.1109 -0.1669 -0.1786
  802TIP3    H124041   6.613   1.354  -0.038  0.6484 -0.3431 -0.2439
  802TIP3    H224042   6.689   1.290   0.076  0.2763 -1.6365 -0.7066
  803TIP3   OH224043   6.311   1.781   7.796  0.2235 -0.5385 -0.2964
  803TIP3    H124044   6.307   1.864   7.748  0.8432  0.1560  0.7881
  803TIP3    H224045   6.326   1.715   7.729  1.5338  0.4543 -1.0442
  804TIP3   OH224046   5.359   0.709   8.960 -0.3002  0.2909  0.5103
  804TIP3    H124047   5.274   0.668   8.978  0.3016 -0.9355  0.6322
  804TIP3    H224048   5.413   0.687   9.035  0.5944 -0.2497 -0.2737
  805TIP3   OH224049   3.732   6.408   8.781 -0.4547 -0.3631 -0.2672
  805TIP3    H124050   3.737   6.503   8.767  0.9112 -0.4524 -0.5351
  805TIP3    H224051   3.660   6.379   8.725 -0.6621  0.4746 -0.4446
  806TIP3   OH224052   5.375   6.612   7.660  0.3438 -0.7288 -0.4393
  806TIP3    H124053   5.334   6.668   7.595  1.5278 -2.6386 -3.0124
  806TIP3    H224054   5.469   6.625   7.648  0.6145 -0.5058  1.5344
  807TIP3   OH224055   0.802   6.697   0.403 -0.2830 -0.3473  0.2150
  807TIP3    H124056   0.712   6.670   0.423  0.1615 -1.9088  0.1945
  807TIP3    H224057   0.815   6.776   0.456 -1.6707 -0.0685  0.1859
  808TIP3   OH224058   2.771   3.861   2.092 -0.4164 -0.2092 -0.0334
  808TIP3    H124059   2.727   3.935   2.135 -1.0293 -0.7996  0.3642
  808TIP3    H224060   2.792   3.801   2.164  1.0915  0.0712 -0.1997
  809TIP3   OH224061   3.597   5.332   0.536  0.0746 -0.1942 -0.1375
  809TIP3    H124062   3.575   5.240   0.553  1.8927 -0.3903  1.5498
  809TIP3    H224063   3.522   5.381   0.570 -0.9916 -1.0276 -1.2083
  810TIP3   OH224064   2.223   4.924   7.985 -0.0352  0.0812 -0.6157
  810TIP3    H124065   2.131   4.936   8.009  0.5097 -0.6093  2.0950
  810TIP3    H224066   2.221   4.847   7.927 -1.0764 -0.7671  0.4691
  811TIP3   OH224067   3.529   3.562   0.265  0.3409  0.0281  0.0912
  811TIP3    H124068   3.577   3.645   0.257  1.2627 -0.4308  0.5996
  811TIP3    H224069   3.572   3.518   0.339 -0.5810 -0.6076  0.2572
  812TIP3   OH224070   4.195   2.738   2.384 -0.3429  0.9013  0.1239
  812TIP3    H124071   4.268   2.736   2.445 -0.3881  0.5501  0.1733
  812TIP3    H224072   4.188   2.647   2.354 -0.2703  1.0845 -0.4602
  813TIP3   OH224073   5.770   4.342   6.901  0.7835  0.0324  0.1592
  813TIP3    H124074   5.821   4.267   6.871 -0.7866 -1.3482  0.8069
  813TIP3    H224075   5.683   4.329   6.864  1.0873  2.9963 -1.9716
  814TIP3   OH224076   1.408   3.968   8.028 -0.1566  0.1961  0.0181
  814TIP3    H124077   1.363   3.913   8.092  0.5242 -1.9440 -1.2412
  814TIP3    H224078   1.500   3.945   8.036  0.1040  0.9030 -0.7696
  815TIP3   OH224079   3.415   6.480   2.300 -0.0914 -0.5561 -0.0380
  815TIP3    H124080   3.325   6.493   2.328 -0.2106 -0.3487 -0.5159
  815TIP3    H224081   3.414   6.397   2.251 -0.1445 -0.2389 -0.5770
  816TIP3   OH224082   2.605   3.890   8.750 -0.3282  0.7820  0.2847
  816TIP3    H124083   2.691   3.930   8.764 -0.2049 -0.0230  2.0775
  816TIP3    H224084   2.585   3.908   8.658  1.0975  2.2359  0.2130
  817TIP3   OH224085   0.564   0.235   1.623 -0.0984  0.1309 -0.2648
  817TIP3    H124086   0.630   0.174   1.592  1.8291  2.7149 -1.7177
  817TIP3    H224087   0.506   0.248   1.548 -0.0677  0.5770 -0.2175
  818TIP3   OH224088   0.239   1.005   7.535  0.4585  0.4393 -0.1015
  818TIP3    H124089   0.176   0.966   7.596  0.7540  1.9362  1.2425
  818TIP3    H224090   0.295   0.932   7.508  0.3745 -0.2702  1.5207
  819TIP3   OH224091   0.114   2.917   2.562  0.3378 -0.3312 -0.4556
  819TIP3    H124092   0.159   2.834   2.574  1.7855  0.0960 -2.4286
  819TIP3    H224093   0.144   2.949   2.477 -0.2260  2.1811  0.2027
  820TIP3   OH224094   4.929   2.993   7.346  0.5420  0.4470  0.0191
  820TIP3    H124095   4.875   3.001   7.425  1.5214  1.0336  0.6545
  820TIP3    H224096   4.885   2.926   7.294 -0.4053  0.4051  0.8319
  821TIP3   OH224097   3.456   0.226   7.578  0.0668  1.0496 -0.0245
  821TIP3    H124098   3.390   0.180   7.630 -1.4076  2.6021 -0.4234
  821TIP3    H224099   3.492   0.291   7.637 -0.5790  1.8580 -0.4993
  822TIP3   OH224100   1.286   5.460   1.772 -0.0711  0.5761  0.4907
  822TIP3    H124101   1.348   5.438   1.703  0.8155  1.1044  1.1034
  822TIP3    H224102   1.223   5.388   1.771 -0.3453  0.7971 -1.1554
  823TIP3   OH224103   4.030   4.898   1.537 -0.2018 -0.0826 -0.3563
  823TIP3    H124104   4.113   4.945   1.534  0.3334 -0.8829  1.1674
  823TIP3    H224105   4.021   4.860   1.450  0.7150  0.5085 -0.7253
  824TIP3   OH224106   2.776   1.127   2.931 -0.2397  0.2398  1.0558
  824TIP3    H124107   2.839   1.072   2.979  0.4310  1.0649  1.1389
  824TIP3    H224108   2.692   1.081   2.940  0.3525 -0.9023  0.9069
  825TIP3   OH224109   0.275   6.346   7.945  0.1730  0.5188 -0.1684
  825TIP3    H124110   0.204   6.354   8.009  1.5293  0.6971  1.3982
  825TIP3    H224111   0.294   6.437   7.920 -0.2678  0.4581 -0.7337
  826TIP3   OH224112   2.940   5.441   0.134 -0.1873 -0.6008 -0.3282
  826TIP3    H124113   2.847   5.428   0.120 -0.6702  0.0289  1.9074
  826TIP3    H224114   2.963   5.379   0.203  0.1005  1.8738  1.9724
  827TIP3   OH224115   2.261   1.437   2.458 -0.7957  0.4489  0.1104
  827TIP3    H124116   2.309   1.505   2.411  0.0151  0.3711  0.7951
  827TIP3    H224117   2.300   1.437   2.546 -0.8549 -0.8229  0.1567
  828TIP3   OH224118   3.482   6.153   7.440  0.1785 -0.1895 -0.6469
  828TIP3    H124119   3.499   6.244   7.413  1.8725 -0.4429 -0.5323
  828TIP3    H224120   3.388   6.152   7.462  0.3402  1.8073  0.3842
  829TIP3   OH224121   5.083   3.381   2.232  0.1428 -0.1957  0.0415
  829TIP3    H124122   5.171   3.420   2.229  0.7480 -1.5275 -0.0800
  829TIP3    H224123   5.098   3.288   2.248 -1.3189 -0.1920  1.7239
  830TIP3   OH224124   4.092   1.955   6.807 -0.0497  1.0389 -0.2621
  830TIP3    H124125   4.025   2.024   6.807 -0.5896  0.5219 -0.4469
  830TIP3    H224126   4.095   1.926   6.716 -0.4267  0.2406 -0.0211
  831TIP3   OH224127   0.266   6.130   8.646  0.0534 -0.6099 -0.2636
  831TIP3    H124128   0.286   6.126   8.739  1.2664  1.2351 -0.3816
  831TIP3    H224129   0.317   6.059   8.607  4.7275  2.2605 -0.1846
  832TIP3   OH224130   1.885   6.092   1.079 -0.1759  0.1371 -0.4367
  832TIP3    H124131   1.903   6.166   1.138 -0.5891  0.2878 -0.4980
  832TIP3    H224132   1.868   6.019   1.138  1.9456 -0.3656 -0.3510
  833TIP3   OH224133   2.346   3.064   3.061 -0.3276 -0.0986 -0.5936
  833TIP3    H124134   2.329   3.098   2.973 -1.5627 -2.2456 -1.2721
  833TIP3    H224135   2.370   2.972   3.046  1.6531  0.0561  1.1880
  834TIP3   OH224136   0.044   1.768   1.282 -0.4679  0.2052 -0.5040
  834TIP3    H124137   0.063   1.861   1.264  0.8895  0.3495  1.3763
  834TIP3    H224138   0.118   1.739   1.336 -1.9202 -1.3872  0.7182
  835TIP3   OH224139   5.222   5.195   1.393 -0.2520 -0.0253  0.2482
  835TIP3    H124140   5.310   5.171   1.420  0.1813 -0.4310 -1.3694
  835TIP3    H224141   5.230   5.285   1.362 -0.0553 -0.5211 -1.2198
  836TIP3   OH224142   2.858   2.402   1.943 -0.2235 -0.0610  0.4600
  836TIP3    H124143   2.806   2.322   1.935 -1.3967  0.8102 -1.0954
  836TIP3    H224144   2.948   2.371   1.954 -0.6872 -1.5838  0.1930
  837TIP3   OH224145   3.150   5.446   7.218  0.0701 -0.2640 -0.5290
  837TIP3    H124146   3.135   5.360   7.257  0.2798  0.1487  0.5030
  837TIP3    H224147   3.104   5.507   7.276 -0.6284  0.2741 -1.6007
  838TIP3   OH224148   1.636   6.242   0.899  0.2777  0.1350  0.0694
  838TIP3    H124149   1.690   6.308   0.944 -1.6962  1.7073  0.2710
  838TIP3    H224150   1.629   6.170   0.962  1.1407  0.4115  0.5014
  839TIP3   OH224151   5.706   4.405   0.476  0.1678 -0.1815  0.3145
  839TIP3    H124152   5.675   4.428   0.388  0.2825 -0.5017  0.1876
  839TIP3    H224153   5.793   4.444   0.481  0.1515 -0.1420  0.2947
  840TIP3   OH224154   1.757   4.445   7.464 -0.5308  0.4909  0.1068
  840TIP3    H124155   1.788   4.533   7.445  0.8708  1.1349  4.3330
  840TIP3    H224156   1.837   4.394   7.476 -1.3274 -1.1748 -1.1855
  841TIP3   OH224157   6.715   5.400   1.031  0.8479 -0.8507  0.1566
  841TIP3    H124158   6.783   5.406   1.098  1.0956 -1.4838 -0.0280
  841TIP3    H224159   6.760   5.365   0.954  0.7800  0.7543 -0.6589
  842TIP3   OH224160   2.852   2.463   8.104  0.1988 -0.0395 -0.0035
  842TIP3    H124161   2.939   2.424   8.094  0.4657  0.4379  0.3938
  842TIP3    H224162   2.792   2.398   8.069  0.4795 -1.5397  2.1081
  843TIP3   OH224163   6.247   2.127   1.118  0.0845  0.8368 -0.2410
  843TIP3    H124164   6.252   2.134   1.022 -0.4273  0.4213 -0.3000
  843TIP3    H224165   6.328   2.081   1.142 -0.3975 -0.2220 -0.5989
  844TIP3   OH224166   1.692   6.599   7.192  0.4028 -0.1361  0.3219
  844TIP3    H124167   1.598   6.609   7.207  0.1684 -1.0896 -0.3874
  844TIP3    H224168   1.709   6.646   7.111  0.6733  0.5517  0.7600
  845TIP3   OH224169   0.572   4.091   0.805  0.3095 -0.1156 -0.5502
  845TIP3    H124170   0.617   4.123   0.883  0.7501  0.6668 -1.1115
  845TIP3    H224171   0.528   4.168   0.769 -0.9215 -0.7179 -0.4036
  846TIP3   OH224172   6.390   1.917   7.515 -0.3840 -0.1740 -0.6797
  846TIP3    H124173   6.418   1.967   7.438 -1.9457 -0.2670 -1.3327
  846TIP3    H224174   6.391   1.826   7.487 -0.0330 -0.2970 -0.2816
  847TIP3   OH224175   0.926   1.054   6.947  0.2855  0.2104  0.3896
  847TIP3    H124176   0.845   1.006   6.965  0.7228 -1.2018 -1.1176
  847TIP3    H224177   0.989   1.020   7.010 -0.1657  1.0152  1.2950
  848TIP3   OH224178   2.871   4.644   7.119 -0.0960  0.0350 -0.3075
  848TIP3    H124179   2.925   4.685   7.052  0.8318 -1.6104 -0.6319
  848TIP3    H224180   2.901   4.553   7.121 -2.3482 -0.7647  0.0383
  849TIP3   OH224181   3.473   5.335   8.475 -0.0988  0.3487 -0.2553
  849TIP3    H124182   3.426   5.272   8.530  2.1162 -0.4727  0.8079
  849TIP3    H224183   3.510   5.397   8.537  0.0087  1.1268 -1.0892
  850TIP3   OH224184   6.557   4.914   1.304 -0.1099  0.3953 -0.2377
  850TIP3    H124185   6.626   4.970   1.269  0.5746 -0.0445  0.3874
  850TIP3    H224186   6.502   4.895   1.228  0.8719  0.1484 -0.9165
  851TIP3   OH224187   6.565   2.967   8.950  0.7490 -1.0366 -0.1293
  851TIP3    H124188   6.594   2.897   8.891  1.8803 -0.3197 -0.4474
  851TIP3    H224189   6.639   3.027   8.955 -1.1188  1.7036 -2.2145
  852TIP3   OH224190   0.591   0.454   6.941  0.1261 -0.2488  0.3096
  852TIP3    H124191   0.507   0.413   6.961  0.1697  0.3189  1.7540
  852TIP3    H224192   0.570   0.545   6.920  0.3803 -0.1050  0.6711
  853TIP3   OH224193   1.419   5.723   1.577 -0.3776  0.2705  0.1263
  853TIP3    H124194   1.326   5.731   1.558 -0.0795 -1.0334 -2.2005
  853TIP3    H224195   1.458   5.802   1.539 -0.3087 -0.1406 -0.6597
  854TIP3   OH224196   4.446   5.682   7.088  0.4729 -0.0607  0.4717
  854TIP3    H124197   4.456   5.763   7.138 -0.0454 -0.4852  1.2712
  854TIP3    H224198   4.474   5.613   7.148  1.1760 -0.4641 -0.2944
  855TIP3   OH224199   4.739   1.268   0.327  0.1246 -0.2487 -0.6737
  855TIP3    H124200   4.656   1.315   0.332  0.6382  0.7655 -1.1421
  855TIP3    H224201   4.775   1.271   0.416 -0.7126 -1.4445 -0.2745
  856TIP3   OH224202   0.383   4.524   2.888 -0.7323  0.5487 -0.3197
  856TIP3    H124203   0.339   4.461   2.831 -0.2549 -0.5913  0.5242
  856TIP3    H224204   0.459   4.476   2.922 -0.4411  1.5350  0.4739
  857TIP3   OH224205   2.496   2.141   8.440  0.3181 -0.4699 -0.2803
  857TIP3    H124206   2.517   2.049   8.425  0.5289 -0.2394 -1.5830
  857TIP3    H224207   2.480   2.148   8.534 -1.1945 -2.1408 -0.3591
  858TIP3   OH224208   6.703   0.811   7.377 -0.2220 -0.4239 -0.2201
  858TIP3    H124209   6.683   0.729   7.422 -1.3813 -0.2438 -0.3664
  858TIP3    H224210   6.669   0.798   7.288 -2.8424  1.0964  0.4392
  859TIP3   OH224211   3.445   1.630   0.580 -0.6939 -0.1101 -0.6497
  859TIP3    H124212   3.371   1.671   0.625 -0.2971 -0.1432  0.0448
  859TIP3    H224213   3.516   1.634   0.643 -0.2265 -0.4912 -1.1465
  860TIP3   OH224214   5.742   4.648   7.867 -0.0357  0.2198  0.0979
  860TIP3    H124215   5.763   4.567   7.914  0.5150 -0.0253 -0.5532
  860TIP3    H224216   5.710   4.618   7.781  2.0276  0.7075 -0.8973
  861TIP3   OH224217   0.391   4.999   1.480 -0.0100 -0.1233  0.0844
  861TIP3    H124218   0.309   5.000   1.530 -0.1897  0.4659 -0.2233
  861TIP3    H224219   0.420   4.908   1.486 -0.5159 -0.2682  0.4727
  862TIP3   OH224220   3.419   4.037   1.648 -0.3549  0.2385  0.0410
  862TIP3    H124221   3.495   3.981   1.635 -0.6388 -0.0518 -0.4124
  862TIP3    H224222   3.355   3.982   1.693  0.1956  0.8958  1.7356
  863TIP3   OH224223   6.601   1.750   2.036  0.4719 -0.0627  0.2512
  863TIP3    H124224   6.573   1.791   2.118  2.3023  0.6059  0.6008
  863TIP3    H224225   6.541   1.677   2.023 -0.1099  0.0759  1.9799
  864TIP3   OH224226   5.161   5.234   0.113 -0.1089 -0.5525  0.3097
  864TIP3    H124227   5.084   5.265   0.161  1.3178  1.6982  1.3652
  864TIP3    H224228   5.146   5.262   0.023 -0.2551  0.5274  0.6486
  865TIP3   OH224229   5.220   2.104   1.376  0.3134 -0.1748  0.2262
  865TIP3    H124230   5.211   2.195   1.402  2.0714  0.2315 -0.4097
  865TIP3    H224231   5.307   2.079   1.408 -0.2150 -1.6865  0.5477
  866TIP3   OH224232   1.065   0.599   7.980  0.2252 -0.1731  0.3713
  866TIP3    H124233   1.084   0.678   8.030  0.6384 -0.0063 -0.0346
  866TIP3    H224234   1.040   0.632   7.893 -0.2916 -0.4631  0.4064
  867TIP3   OH224235   3.677   0.191   1.111  0.3122 -0.4819  0.3309
  867TIP3    H124236   3.656   0.199   1.204  0.2229  0.4066  0.2422
  867TIP3    H224237   3.705   0.100   1.101  0.1329 -0.6437  1.1849
  868TIP3   OH224238   1.137   4.935   1.290 -0.1857  0.0126  0.1865
  868TIP3    H124239   1.121   4.920   1.197 -0.4794  0.4705  0.1581
  868TIP3    H224240   1.103   5.023   1.306 -1.0411 -0.4450  0.9407
  869TIP3   OH224241   3.348   2.209   1.683 -0.1038  0.3938  0.2991
  869TIP3    H124242   3.257   2.184   1.691 -0.0287  0.6591  2.7004
  869TIP3    H224243   3.397   2.142   1.731  0.8403  0.9797  0.1993
  870TIP3   OH224244   1.385   2.608   7.024 -0.0441  0.0597 -0.1319
  870TIP3    H124245   1.396   2.553   6.946  1.2109 -0.0393  0.0956
  870TIP3    H224246   1.474   2.637   7.046 -0.6072  1.6216  0.1651
  871TIP3   OH224247   0.417   4.544   0.045  0.0732 -0.3784 -0.2876
  871TIP3    H124248   0.363   4.552   0.124  0.6134  0.3341  0.0188
  871TIP3    H224249   0.410   4.451   0.021  0.5691 -0.7950  1.0862
  872TIP3   OH224250   2.357   5.132   7.232  0.5640  0.0045  0.3223
  872TIP3    H124251   2.386   5.056   7.180  1.0623  0.8116 -0.6124
  872TIP3    H224252   2.361   5.101   7.322 -0.1878 -1.3931 -0.0874
  873TIP3   OH224253   2.556   1.061   7.638  0.3121 -0.2103 -0.4089
  873TIP3    H124254   2.538   1.002   7.711 -0.8946  1.1594  0.4566
  873TIP3    H224255   2.650   1.054   7.624  0.7870  0.3587  2.0752
  874TIP3   OH224256   5.423   5.338   0.302 -0.1841  0.1483  0.3298
  874TIP3    H124257   5.353   5.394   0.337 -0.8685 -1.3580  1.4771
  874TIP3    H224258   5.451   5.285   0.377  0.1467 -1.3484 -0.8110
  875TIP3   OH224259   0.352   6.702   0.210 -0.4478 -0.2810  0.5827
  875TIP3    H124260   0.444   6.708   0.233 -0.1609 -1.8485 -0.0214
  875TIP3    H224261   0.343   6.756   0.131  0.1254 -0.7845  0.1754
  876TIP3   OH224262   4.557   5.439   1.843  0.3805  0.0438 -1.0235
  876TIP3    H124263   4.506   5.363   1.871  0.4925  0.9606  2.0313
  876TIP3    H224264   4.644   5.405   1.825  0.4060 -0.6058  0.2239
  877TIP3   OH224265   4.067   2.414   0.892 -0.1633  0.3352  0.0443
  877TIP3    H124266   3.975   2.411   0.866  0.5297 -0.2801 -2.6176
  877TIP3    H224267   4.070   2.481   0.961 -2.7493 -0.4765  1.0897
  878TIP3   OH224268   2.971   1.316   2.873 -0.1172 -0.3186 -0.0022
  878TIP3    H124269   3.017   1.291   2.953 -1.9674 -1.2139  0.8430
  878TIP3    H224270   2.882   1.281   2.884 -0.8892  0.9255 -1.7480
  879TIP3   OH224271   1.281   4.204   0.194  0.3688 -0.1464  0.6596
  879TIP3    H124272   1.352   4.207   0.258  0.1175  0.9347  0.8987
  879TIP3    H224273   1.208   4.163   0.241  1.3935 -3.2646 -0.1997
  880TIP3   OH224274   0.680   1.867   0.010 -0.8587  0.2847 -0.4631
  880TIP3    H124275   0.735   1.797  -0.026  1.6160  1.8416  0.0473
  880TIP3    H224276   0.631   1.901  -0.065 -0.6748 -0.7549 -1.0695
  881TIP3   OH224277   6.731   0.740   8.252  0.0335 -0.3743  0.1488
  881TIP3    H124278   6.815   0.763   8.293 -0.9303  0.2414  1.8651
  881TIP3    H224279   6.665   0.784   8.306 -1.3691 -0.2221 -1.6209
  882TIP3   OH224280   4.400   0.015   6.386  0.7240  0.0035  0.6616
  882TIP3    H124281   4.407  -0.081   6.393 -0.1453 -0.3217 -1.8749
  882TIP3    H224282   4.335   0.039   6.453  2.0329 -0.9285  2.3634
  883TIP3   OH224283   5.294   4.339   1.809  0.2087 -0.7061  0.5179
  883TIP3    H124284   5.199   4.333   1.811  0.1933 -1.4942 -0.9939
  883TIP3    H224285   5.316   4.334   1.716  1.4707  4.2553  0.2529
  884TIP3   OH224286   3.059   0.738   1.808  0.6559 -0.0085  0.3040
  884TIP3    H124287   3.130   0.743   1.872  0.4485 -1.9209  0.7636
  884TIP3    H224288   3.045   0.828   1.780  0.2536  1.0665  3.5205
  885TIP3   OH224289   0.479   2.525   7.717  0.0187 -0.3084 -0.1994
  885TIP3    H124290   0.497   2.488   7.630 -1.4161 -1.6745  0.0448
  885TIP3    H224291   0.390   2.497   7.737 -0.4553  1.7519  0.8522
  886TIP3   OH224292   5.043   4.409   0.119  0.3347 -0.3089 -0.0231
  886TIP3    H124293   5.082   4.496   0.110 -0.9797  0.1169 -2.4544
  886TIP3    H224294   5.060   4.367   0.035  0.6868 -2.3489  0.9992
  887TIP3   OH224295   4.747   3.317   8.321  0.0872  0.0847  0.5316
  887TIP3    H124296   4.691   3.393   8.304  0.7213  0.2624 -0.9044
  887TIP3    H224297   4.715   3.250   8.260  1.0242 -0.0131  0.1257
  888TIP3   OH224298   2.375   1.503   7.896 -0.8074  0.2603  0.2260
  888TIP3    H124299   2.465   1.498   7.865 -0.3467  1.3971  1.3310
  888TIP3    H224300   2.323   1.475   7.821  0.4341 -0.0022 -0.5660
  889TIP3   OH224301   5.671   3.356   7.812  0.1075 -0.3945 -0.4591
  889TIP3    H124302   5.688   3.448   7.790 -1.3376 -0.0275 -0.1627
  889TIP3    H224303   5.718   3.306   7.745 -2.7207  0.6356 -3.4557
  890TIP3   OH224304   3.262   2.408   8.400  0.5461  0.1904 -0.2202
  890TIP3    H124305   3.288   2.350   8.328 -1.0841  1.0343 -1.5595
  890TIP3    H224306   3.219   2.350   8.463  0.8486 -0.3697 -0.5223
  891TIP3   OH224307   5.117   1.105   8.100  0.0763 -0.1456  0.5567
  891TIP3    H124308   5.142   1.024   8.143  3.0388  0.5232  0.3107
  891TIP3    H224309   5.133   1.090   8.007 -1.3949  0.0857  0.2301
  892TIP3   OH224310   6.177   0.223   8.961 -0.1904 -0.3457  0.1069
  892TIP3    H124311   6.255   0.207   9.013 -0.8419 -1.0682  0.9141
  892TIP3    H224312   6.108   0.239   9.026 -0.4167  1.9171 -0.6044
  893TIP3   OH224313   1.993   5.850   6.675  0.0786 -0.0407  0.2676
  893TIP3    H124314   1.936   5.778   6.702  1.3329 -0.8193  0.9868
  893TIP3    H224315   1.965   5.872   6.587 -1.6433 -0.0463  0.7925
  894TIP3   OH224316   4.061   0.942   6.771 -0.2457 -0.1315  0.2675
  894TIP3    H124317   4.080   1.024   6.725  1.3780 -0.1377  0.8769
  894TIP3    H224318   3.966   0.943   6.783 -0.5589  0.4622 -1.9245
  895TIP3   OH224319   0.625   2.061   0.533  0.3345 -0.0324  0.2606
  895TIP3    H124320   0.697   1.998   0.536 -0.4462 -1.0921 -1.7376
  895TIP3    H224321   0.591   2.061   0.623  2.5955  0.3107  1.2018
  896TIP3   OH224322   5.074   5.051   7.541  0.1158  0.8808 -0.1979
  896TIP3    H124323   5.033   5.076   7.623  0.0327  1.5685 -0.4402
  896TIP3    H224324   5.002   5.038   7.480  0.1693  0.2204 -0.1244
  897TIP3   OH224325   4.721   2.095   0.521  0.4066  0.1455 -0.5772
  897TIP3    H124326   4.681   2.065   0.439  0.0741 -0.0795 -0.3321
  897TIP3    H224327   4.667   2.170   0.547  0.3881  0.0867 -0.4503
  898TIP3   OH224328   6.357   4.801   7.902  0.1528  0.3453  0.6364
  898TIP3    H124329   6.433   4.773   7.850 -0.1106 -2.0841  1.4071
  898TIP3    H224330   6.281   4.781   7.848 -0.0229  0.6256  0.7751
  899TIP3   OH224331   3.852   4.012   8.539  0.4102 -0.2548  0.3250
  899TIP3    H124332   3.942   4.046   8.540  0.3812 -0.0431 -1.2887
  899TIP3    H224333   3.856   3.935   8.483 -0.6343  0.4797 -0.8111
  900TIP3   OH224334   5.372   3.579   1.636 -0.0581 -0.1895  0.4182
  900TIP3    H124335   5.463   3.601   1.654  0.3820 -0.6914 -1.0415
  900TIP3    H224336   5.328   3.587   1.721  1.4521 -0.5546  1.2687
  901TIP3   OH224337   0.114   2.904   0.218  0.2783  0.3747  0.3480
  901TIP3    H124338   0.169   2.827   0.232 -1.0905 -0.8344 -0.6510
  901TIP3    H224339   0.138   2.935   0.131 -0.6248 -0.2028 -0.1246
  902TIP3   OH224340   1.788   2.088   8.125  0.1800  0.0252  0.5592
  902TIP3    H124341   1.789   2.183   8.113 -0.3249  0.3891  2.8684
  902TIP3    H224342   1.853   2.072   8.194  0.1130 -1.2913  0.3396
  903TIP3   OH224343   0.391   5.632   8.676  0.4161 -0.1663 -0.7976
  903TIP3    H124344   0.370   5.538   8.678 -0.0906 -0.0540  0.1165
  903TIP3    H224345   0.354   5.666   8.758  0.4391  0.8666 -1.1974
  904TIP3   OH224346   5.389   1.510   1.456  0.0593  0.4284 -0.1100
  904TIP3    H124347   5.395   1.501   1.551  2.4161 -1.8620 -0.3809
  904TIP3    H224348   5.477   1.535   1.429 -0.0214 -1.0598 -1.8626
  905TIP3   OH224349   4.085   0.620   8.226  0.4461  0.3335  0.2328
  905TIP3    H124350   4.123   0.538   8.196  0.9214 -0.4226  2.6782
  905TIP3    H224351   4.143   0.650   8.295 -1.5262  0.9368  1.7408
  906TIP3   OH224352   3.584   5.999   0.416 -0.3484 -0.3229 -0.3735
  906TIP3    H124353   3.516   6.016   0.350 -0.0673  0.6060 -0.4334
  906TIP3    H224354   3.660   5.971   0.365 -0.6247 -1.2002 -0.3181
  907TIP3   OH224355   5.540   1.987   7.288  0.1848 -0.0990  0.2055
  907TIP3    H124356   5.573   2.072   7.260  0.0624 -0.3276 -0.6739
  907TIP3    H224357   5.514   1.944   7.206 -2.7849  0.2555  0.8479
  908TIP3   OH224358   5.976   5.091   8.064  0.2518  0.2557 -0.7597
  908TIP3    H124359   6.050   5.133   8.019  2.0418 -1.2256  0.5978
  908TIP3    H224360   6.009   5.004   8.087 -1.2557  0.2146  1.5800
  909TIP3   OH224361   3.963   3.271   7.982 -0.3515 -0.0933 -0.5780
  909TIP3    H124362   3.943   3.202   8.046  0.6274 -1.0727 -1.2803
  909TIP3    H224363   4.006   3.224   7.910 -0.4543  1.1422 -1.4682
  910TIP3   OH224364   0.046   1.862   8.705 -0.4350 -0.4222 -0.2990
  910TIP3    H124365  -0.041   1.841   8.669 -0.4765 -2.5980  0.8740
  910TIP3    H224366   0.097   1.782   8.691  0.9480  0.3218  0.3098
  911TIP3   OH224367   5.308   4.316   1.522 -0.3054  0.1031 -0.6762
  911TIP3    H124368   5.311   4.222   1.536  0.8347  0.3419  0.8789
  911TIP3    H224369   5.374   4.333   1.454  0.1882 -0.1215 -0.2591
  912TIP3   OH224370   6.669   3.083   7.734 -0.1341 -0.0639  0.2262
  912TIP3    H124371   6.758   3.086   7.768  0.0861  1.7191 -0.4004
  912TIP3    H224372   6.620   3.144   7.788  0.1772  2.6891 -2.3552
  913TIP3   OH224373   6.090   1.445   0.656 -0.6293 -0.5658 -0.7181
  913TIP3    H124374   6.071   1.513   0.591 -0.1419  0.7632  0.4663
  913TIP3    H224375   6.012   1.441   0.711  0.1665  0.6667  0.5617
  914TIP3   OH224376   5.386   0.669   7.569  0.1208  0.0676  0.4274
  914TIP3    H124377   5.331   0.699   7.642  0.0985  0.8425  0.0988
  914TIP3    H224378   5.329   0.608   7.521  0.4714 -1.2498  1.6057
  915TIP3   OH224379   4.919   2.434   8.080 -0.0097 -0.0678 -0.0022
  915TIP3    H124380   4.930   2.349   8.123  1.0184  0.0779  0.0444
  915TIP3    H224381   4.832   2.463   8.106 -0.4197 -1.1486 -0.0914
  916TIP3   OH224382   5.523   1.546   7.733 -0.0360  0.2058 -0.2479
  916TIP3    H124383   5.513   1.560   7.827  2.7602  0.1138  0.1560
  916TIP3    H224384   5.592   1.608   7.707 -1.5986  1.1448 -2.5488
  917TIP3   OH224385   4.228   0.681   1.714 -0.8649 -0.2888 -0.6170
  917TIP3    H124386   4.234   0.668   1.808 -1.6748 -1.1463 -0.6753
  917TIP3    H224387   4.185   0.603   1.681  0.3728 -0.5011 -1.8386
  918TIP3   OH224388   3.512   0.686   1.377  0.2643 -0.0097  0.2906
  918TIP3    H124389   3.431   0.684   1.325  0.2646 -1.1820  0.3103
  918TIP3    H224390   3.495   0.627   1.450 -0.5511  3.2432  2.9615
  919TIP3   OH224391   4.463   0.301   0.065 -0.0194  0.0127  0.2842
  919TIP3    H124392   4.420   0.218   0.044  0.3944 -0.2331  0.3880
  919TIP3    H224393   4.404   0.368   0.031 -1.0442 -0.2799  1.4344
  920TIP3   OH224394   6.388   1.227   1.766  1.0790 -0.4490 -0.0065
  920TIP3    H124395   6.440   1.170   1.823 -1.3144 -3.4170 -0.5546
  920TIP3    H224396   6.444   1.243   1.690  2.7709  0.1580  1.3071
  921TIP3   OH224397   3.014   5.026   8.256  0.0908  0.2727 -0.1154
  921TIP3    H124398   2.929   5.041   8.298  0.3916 -1.5827  1.3183
  921TIP3    H224399   3.078   5.035   8.327  0.8497 -0.6372 -0.6618
  922TIP3   OH224400   6.519   5.909   8.644 -0.3643  0.4723 -0.1462
  922TIP3    H124401   6.573   5.948   8.575  0.2400  0.4721  0.3255
  922TIP3    H224402   6.573   5.839   8.680 -0.0537  1.4635  1.3866
  923TIP3   OH224403   3.981   4.776   1.255  0.7507  0.2364  0.2191
  923TIP3    H124404   3.890   4.795   1.233  0.3783  0.6041  1.9304
  923TIP3    H224405   4.031   4.807   1.180 -0.4808  0.6418 -0.4636
  924TIP3   OH224406   0.969   3.749   0.123 -0.2710 -0.0979 -0.0365
  924TIP3    H124407   1.056   3.789   0.120 -1.0820  1.6939 -1.6539
  924TIP3    H224408   0.980   3.672   0.179  2.1160  0.6131  0.5884
  925TIP3   OH224409   3.900   4.067   1.010  0.0299  0.0595  0.2041
  925TIP3    H124410   3.966   4.023   0.956  0.7509  0.8064  0.4614
  925TIP3    H224411   3.874   4.002   1.075  0.8982 -0.0832  0.4197
  926TIP3   OH224412   0.878   6.201   0.657  0.2670  0.2830  0.2413
  926TIP3    H124413   0.866   6.251   0.576 -0.8300  2.3311  1.5828
  926TIP3    H224414   0.972   6.181   0.659  0.4839  1.0452 -1.0420
  927TIP3   OH224415   4.563   0.753   1.430  0.2464  0.8349 -0.0644
  927TIP3    H124416   4.469   0.767   1.413  0.4939  1.7930 -0.7606
  927TIP3    H224417   4.565   0.697   1.508 -0.9068  0.3295 -0.3668
  928TIP3   OH224418   2.861   6.706   0.088  0.1246 -0.7193 -0.3046
  928TIP3    H124419   2.902   6.756   0.159 -0.2609 -0.0751 -0.5356
  928TIP3    H224420   2.838   6.771   0.022  0.0118 -1.2533 -0.8046
  929TIP3   OH224421   6.699   4.848   8.196 -0.6153 -0.0748 -0.1070
  929TIP3    H124422   6.691   4.787   8.123 -1.8038 -0.9736  0.7491
  929TIP3    H224423   6.778   4.898   8.176  0.5434 -2.0478 -0.7032
  930TIP3   OH224424   0.726   0.099   8.174 -0.0655 -0.1719 -0.1942
  930TIP3    H124425   0.790   0.170   8.171 -0.2014 -0.0584 -0.4634
  930TIP3    H224426   0.773   0.027   8.216 -0.3862  0.5282  1.4398
  931TIP3   OH224427   1.583   6.597   0.136  0.5116  0.8254 -0.5577
  931TIP3    H124428   1.546   6.535   0.198 -0.8040  1.1451 -0.9934
  931TIP3    H224429   1.510   6.620   0.078  1.1104  2.3365 -0.7616
  932TIP3   OH224430   6.204   1.485   2.443 -0.4856 -0.5983  0.2211
  932TIP3    H124431   6.174   1.434   2.368 -0.6189 -0.9373  0.5045
  932TIP3    H224432   6.164   1.571   2.431  0.4237 -0.2750 -0.7215
  933TIP3   OH224433   2.662   5.538   7.735  0.2465 -0.7985 -0.0156
  933TIP3    H124434   2.591   5.594   7.764  0.4411 -0.8657  0.6124
  933TIP3    H224435   2.741   5.579   7.769  0.5658 -0.4254 -1.1776
  934TIP3   OH224436   6.609   1.963   8.249 -0.1488 -0.0150  0.0927
  934TIP3    H124437   6.686   1.954   8.194  0.6493  0.5688  1.0820
  934TIP3    H224438   6.591   2.057   8.251  0.6568  0.1507  1.8601
  935TIP3   OH224439   0.230   5.282   0.472  0.6379  0.8233 -0.0429
  935TIP3    H124440   0.295   5.297   0.541 -1.7711  1.6789  2.1970
  935TIP3    H224441   0.217   5.187   0.472 -0.2488  0.9079  1.6458
  936TIP3   OH224442   3.491   3.949   8.182 -1.0976 -0.4270  0.5211
  936TIP3    H124443   3.453   3.931   8.268 -0.5206  1.5409  1.2538
  936TIP3    H224444   3.416   3.954   8.123 -1.4794 -2.0598  0.8307
  937TIP3   OH224445   3.990   4.277   7.694 -0.2159  0.1587  0.9320
  937TIP3    H124446   4.025   4.355   7.739 -3.1863  0.6963  2.6169
  937TIP3    H224447   3.981   4.212   7.764 -1.5680 -0.2415  0.4170
  938TIP3   OH224448   0.590   6.350   7.550  0.0667 -0.1289  0.1659
  938TIP3    H124449   0.567   6.443   7.542 -1.0505 -0.4668 -0.8792
  938TIP3    H224450   0.629   6.328   7.465 -1.6263 -1.1008 -0.4003
  939TIP3   OH224451   4.670   4.534   7.782 -0.3969 -0.0803 -0.1278
  939TIP3    H124452   4.693   4.581   7.862 -0.8109 -0.1478  0.0318
  939TIP3    H224453   4.607   4.592   7.738 -1.8776 -1.0129  0.6702
  940TIP3   OH224454   3.100   0.286   0.699 -0.0221  0.4258  0.1459
  940TIP3    H124455   3.124   0.378   0.687  0.3688  0.3480  0.2951
  940TIP3    H224456   3.114   0.246   0.613  0.7992  0.2958  0.3302
  941TIP3   OH224457   0.966   6.342   8.403 -0.3659 -0.5052  0.2647
  941TIP3    H124458   0.981   6.434   8.381 -1.5653  0.2176  2.2398
  941TIP3    H224459   0.918   6.307   8.328 -0.4050  0.6289 -0.2592
  942TIP3   OH224460   1.424   1.931   8.431 -0.4026  0.0137 -0.6519
  942TIP3    H124461   1.330   1.947   8.426 -0.2434  0.6625 -2.3241
  942TIP3    H224462   1.452   1.928   8.340  1.8036  3.6960 -0.2798
  943TIP3   OH224463   6.003   6.107   1.666  0.1632 -0.4287  0.1334
  943TIP3    H124464   6.013   6.066   1.580 -1.6387 -0.9692  0.1474
  943TIP3    H224465   6.044   6.193   1.656 -1.5322  0.2488 -1.8411
  944TIP3   OH224466   1.720   2.757   1.051  0.5442 -0.1452 -0.0789
  944TIP3    H124467   1.771   2.736   0.973  1.9914  1.3595  0.4012
  944TIP3    H224468   1.785   2.779   1.118 -0.7130  1.0722  0.8077
  945TIP3   OH224469   5.944   5.328   1.047  0.5249 -0.3726  0.2864
  945TIP3    H124470   5.945   5.419   1.077 -1.8885  0.2196 -1.1430
  945TIP3    H224471   6.004   5.327   0.972  1.1051 -0.1626  0.7344
  946TIP3   OH224472   1.286   1.681   1.993 -0.0297 -0.5387  0.5383
  946TIP3    H124473   1.191   1.691   1.999 -0.1974 -0.4166 -1.6512
  946TIP3    H224474   1.321   1.740   2.059 -1.4579  0.3868  0.4885
  947TIP3   OH224475   6.166   3.685   0.140 -0.3183  0.4436 -0.1526
  947TIP3    H124476   6.213   3.755   0.185  1.1954 -0.1748 -0.7202
  947TIP3    H224477   6.143   3.623   0.210  0.3754  0.3878  0.0259
  948TIP3   OH224478   5.830   0.412   1.998  0.0386 -0.3327  0.4612
  948TIP3    H124479   5.802   0.474   1.931 -1.7208 -1.1324  0.3943
  948TIP3    H224480   5.773   0.430   2.072 -0.1755 -1.5466  0.6088
  949TIP3   OH224481   5.226   0.948   1.230 -0.3641 -0.2928  0.4572
  949TIP3    H124482   5.186   0.866   1.202  1.9871 -0.7418 -2.0089
  949TIP3    H224483   5.243   0.995   1.149  1.5675  1.0319  1.5479
  950TIP3   OH224484   0.742   0.700   0.954  0.5410 -0.7709  0.1564
  950TIP3    H124485   0.799   0.776   0.964 -1.0769  0.4974  0.2303
  950TIP3    H224486   0.729   0.691   0.860 -0.5910  0.1303  0.1996
  951TIP3   OH224487   2.296   0.595   7.431  0.5440 -0.2388  0.4016
  951TIP3    H124488   2.204   0.620   7.439  0.6435 -0.2832  2.0200
  951TIP3    H224489   2.344   0.667   7.474  1.0908 -1.2497  1.5431
  952TIP3   OH224490   4.855   5.437   8.374 -0.2105 -0.1412 -0.2413
  952TIP3    H124491   4.869   5.388   8.455 -0.8199 -0.0983 -0.1024
  952TIP3    H224492   4.768   5.409   8.344  0.3329 -0.7648 -1.3184
  953TIP3   OH224493   6.317   0.070   8.442 -0.3669 -0.5612  0.6152
  953TIP3    H124494   6.281   0.155   8.417 -2.3601 -1.2886  0.8209
  953TIP3    H224495   6.273   0.007   8.384 -0.6497 -1.6727  1.9834
  954TIP3   OH224496   4.420   2.754   8.648 -0.0832  0.8105  0.1164
  954TIP3    H124497   4.459   2.797   8.724  1.6616  0.7601 -0.7192
  954TIP3    H224498   4.359   2.690   8.685  0.9079  0.6177  1.4618
  955TIP3   OH224499   0.517   1.352   1.312  0.1899 -0.2659 -0.4456
  955TIP3    H124500   0.468   1.426   1.275 -1.7535 -0.3070  1.7814
  955TIP3    H224501   0.575   1.323   1.241 -0.2849  2.2258 -1.9790
  956TIP3   OH224502   6.296   5.044   8.838 -0.6998 -0.0822  0.2038
  956TIP3    H124503   6.265   5.000   8.917 -3.0046  0.6408 -0.2185
  956TIP3    H224504   6.381   5.080   8.862 -0.0060 -2.3125  1.4215
  957TIP3   OH224505   3.923   4.358   0.712 -0.5032 -0.1448 -0.6922
  957TIP3    H124506   3.942   4.286   0.652 -0.2841 -0.1052 -0.6700
  957TIP3    H224507   4.008   4.398   0.731 -0.7211  0.6897 -1.4187
  958TIP3   OH224508   1.789   1.608   0.806  0.1605 -0.1156  0.2298
  958TIP3    H124509   1.882   1.608   0.785  0.5977  0.3581  2.0220
  958TIP3    H224510   1.774   1.693   0.847 -1.1328 -0.0681 -0.3108
  959TIP3   OH224511   5.457   1.834   7.484 -0.6968  0.3824 -0.3097
  959TIP3    H124512   5.484   1.897   7.417  1.6463  1.4431  1.4752
  959TIP3    H224513   5.406   1.886   7.547 -0.5234  0.0366  0.1202
  960TIP3   OH224514   4.225   4.884   6.926 -0.2935 -0.3959  0.1478
  960TIP3    H124515   4.221   4.870   6.832  0.2306 -3.3418  0.4815
  960TIP3    H224516   4.143   4.847   6.959 -0.0977 -0.1393  0.9486
  961TIP3   OH224517   4.723   2.615   0.783  0.5985  0.0150  0.1286
  961TIP3    H124518   4.741   2.567   0.864  1.5953  0.5956  0.2649
  961TIP3    H224519   4.709   2.705   0.810 -0.4858 -0.0401 -0.2105
  962TIP3   OH224520   2.928   1.969   7.788 -0.0550 -0.0413  0.1654
  962TIP3    H124521   2.922   2.058   7.754  0.5992  0.1976  0.6628
  962TIP3    H224522   3.018   1.961   7.819 -0.5022 -0.4089  1.4226
  963TIP3   OH224523   2.082   2.845   8.739 -0.2215  0.2138 -0.1554
  963TIP3    H124524   2.005   2.895   8.713 -1.1759 -1.7184 -1.2091
  963TIP3    H224525   2.135   2.839   8.659  0.4861  0.5495  0.2766
  964TIP3   OH224526   1.708   1.154   7.282  0.0413  0.1301  0.2832
  964TIP3    H124527   1.704   1.246   7.254  2.0129  0.1712  0.0378
  964TIP3    H224528   1.658   1.107   7.214 -2.7844  1.1584  1.4809
  965TIP3   OH224529   2.076   1.931   1.691  0.2205 -0.0997 -0.0055
  965TIP3    H124530   2.059   1.838   1.679 -0.3409  0.1212 -1.0946
  965TIP3    H224531   2.108   1.939   1.780 -1.7745 -1.0831  0.8619
  966TIP3   OH224532   1.867   1.899   8.717 -0.0561 -0.1823 -0.4624
  966TIP3    H124533   1.956   1.931   8.702  0.4191 -2.4762 -3.5312
  966TIP3    H224534   1.812   1.976   8.704  1.3839  1.2625  1.3953
  967TIP3   OH224535   4.638   4.328   0.832  0.2340 -0.1625 -0.0103
  967TIP3    H124536   4.670   4.342   0.922  0.9035 -0.3698 -0.2078
  967TIP3    H224537   4.635   4.415   0.794  0.7647 -0.1578 -0.0498
  968TIP3   OH224538   2.805   5.279   1.344 -0.2748  0.4252 -0.2886
  968TIP3    H124539   2.776   5.294   1.254  0.8623  1.5579 -0.4949
  968TIP3    H224540   2.884   5.226   1.336 -1.2947 -1.2523  0.1843
  969TIP3   OH224541   3.601   6.556   2.474  0.1078 -0.6516  0.0187
  969TIP3    H124542   3.538   6.523   2.409  1.0758 -0.3282 -1.1190
  969TIP3    H224543   3.661   6.483   2.488 -0.1867 -0.7713  0.6798
  970TIP3   OH224544   5.236   3.952   0.421 -0.0792  0.0504  0.0389
  970TIP3    H124545   5.162   3.974   0.479 -0.0431 -1.2962  0.6088
  970TIP3    H224546   5.203   3.973   0.333 -0.4540  1.2489  0.4315
  971TIP3   OH224547   4.021   6.316   1.838 -0.1066  0.3666  0.1162
  971TIP3    H124548   4.054   6.382   1.900 -1.6188  1.2331  0.0724
  971TIP3    H224549   4.057   6.342   1.754  0.5776  0.1952  0.3495
  972TIP3   OH224550   5.968   3.812   1.787  0.1839  0.2022 -0.0562
  972TIP3    H124551   5.979   3.728   1.832  0.3112 -0.3465 -1.0802
  972TIP3    H224552   6.057   3.837   1.762  0.0154 -0.0333 -0.9273
  973TIP3   OH224553   0.225   1.900   8.278 -0.1072  0.1538  0.3826
  973TIP3    H124554   0.151   1.841   8.291  0.3533 -0.6951 -0.7149
  973TIP3    H224555   0.214   1.967   8.346 -2.2410  0.4414 -0.1656
  974TIP3   OH224556   1.080   1.160   0.834 -0.6685  0.2599 -0.4920
  974TIP3    H124557   1.158   1.105   0.839 -0.0683  1.0562 -0.9060
  974TIP3    H224558   1.062   1.168   0.740 -1.1081  0.2875 -0.4087
  975TIP3   OH224559   1.229   2.747   0.989 -0.2093 -0.2145  0.3614
  975TIP3    H124560   1.212   2.805   1.063  0.6283  0.8611 -0.2475
  975TIP3    H224561   1.200   2.797   0.913  1.5263 -0.1226 -0.2768
  976TIP3   OH224562   2.861   2.845   0.561 -0.6654  0.7642  0.0217
  976TIP3    H124563   2.788   2.846   0.622 -0.8521 -0.1960 -0.1689
  976TIP3    H224564   2.825   2.882   0.480 -1.0344  0.0479 -0.1547
  977TIP3   OH224565   3.133   1.396   0.224  0.1179  0.3204 -0.4629
  977TIP3    H124566   3.087   1.349   0.294  2.5698  0.7179  1.5581
  977TIP3    H224567   3.138   1.486   0.255  1.5117  0.4376 -0.9736
  978TIP3   OH224568   3.176   4.794   8.617 -0.2687  0.2514  0.2916
  978TIP3    H124569   3.254   4.837   8.654 -0.6244  0.1242  1.2047
  978TIP3    H224570   3.200   4.702   8.611 -0.3606  0.2068  0.6047
  979TIP3   OH224571   3.804   1.422   0.509  0.2975 -0.1701 -0.1338
  979TIP3    H124572   3.818   1.386   0.597 -2.1023  0.0996  0.4324
  979TIP3    H224573   3.800   1.345   0.452 -1.2194 -0.6129  0.5164
  980TIP3   OH224574   5.921   2.888   8.809 -0.0233 -0.7371 -0.1242
  980TIP3    H124575   5.939   2.800   8.841  0.8599  0.0225  1.5690
  980TIP3    H224576   5.838   2.879   8.762  0.6592 -2.7010 -1.0687
  981TIP3   OH224577   1.404   0.695   1.584 -0.3611 -0.1930  0.0963
  981TIP3    H124578   1.371   0.732   1.666 -1.1414  0.0711 -0.3260
  981TIP3    H224579   1.325   0.670   1.536  0.0315  0.7117 -1.0560
  982TIP3   OH224580   2.338   0.124   6.896  0.1539  0.5641  0.4322
  982TIP3    H124581   2.314   0.056   6.834  0.2755 -0.6792  1.6974
  982TIP3    H224582   2.258   0.174   6.911  0.3645  1.5481 -1.4752
  983TIP3   OH224583   2.845   3.531   0.884  0.5927 -0.5041  0.2253
  983TIP3    H124584   2.870   3.451   0.931  2.8770  0.0318  0.0358
  983TIP3    H224585   2.856   3.601   0.949  0.0262 -0.1690 -0.0311
  984TIP3   OH224586   2.695   2.736   0.999 -0.1291 -0.4667  0.3055
  984TIP3    H124587   2.719   2.666   1.060  1.5670  0.3751  0.6672
  984TIP3    H224588   2.724   2.816   1.043 -3.4808  0.6856  0.6450
  985TIP3   OH224589   0.228   4.591   8.803  0.4664 -0.1135 -0.2196
  985TIP3    H124590   0.207   4.651   8.875  2.0921  0.8751 -0.5351
  985TIP3    H224591   0.145   4.580   8.756  0.0609  1.6440  0.0360
  986TIP3   OH224592   3.411   1.336   0.115 -0.2051 -0.2986 -0.1351
  986TIP3    H124593   3.340   1.335   0.179 -0.1204 -1.2789 -0.0478
  986TIP3    H224594   3.451   1.422   0.125 -1.5174  0.3648 -0.3404
  987TIP3   OH224595   2.750   1.347   1.950 -0.2922 -0.1626 -0.0079
  987TIP3    H124596   2.716   1.277   1.893 -0.5614 -0.3956  0.4316
  987TIP3    H224597   2.674   1.403   1.967 -1.0068 -1.6956  2.4882
  988TIP3   OH224598   1.120   0.436   8.596 -0.0497 -0.3961 -0.2223
  988TIP3    H124599   1.045   0.392   8.558 -0.4237 -0.5417  0.6496
  988TIP3    H224600   1.126   0.519   8.549  0.8632 -1.4720 -2.1040
  989TIP3   OH224601   6.183   6.657   8.286  0.2072 -0.4110 -0.0247
  989TIP3    H124602   6.252   6.605   8.327  0.3055 -0.0388  0.2851
  989TIP3    H224603   6.148   6.601   8.217  0.5915 -0.7284  0.0403
  990TIP3   OH224604   5.418   3.127   1.154  0.0700  0.4316  0.1693
  990TIP3    H124605   5.383   3.160   1.072  0.9026 -0.0174 -0.3818
  990TIP3    H224606   5.443   3.205   1.203 -0.3692  0.6982 -0.0259
  991TIP3   OH224607   5.009   4.623   8.142 -0.1513 -0.0156  0.6595
  991TIP3    H124608   5.103   4.614   8.153  0.1006  1.0920 -0.3979
  991TIP3    H224609   4.988   4.569   8.066 -0.1355  0.7957  0.0648
  992TIP3   OH224610   2.128   6.462   0.638  0.5364 -0.1457 -0.0589
  992TIP3    H124611   2.097   6.430   0.723 -2.1371  0.6797 -0.6495
  992TIP3    H224612   2.135   6.383   0.584 -0.1539 -0.4029  0.2211
  993TIP3   OH224613   3.603   1.944   7.068  0.3319 -0.0627 -0.0411
  993TIP3    H124614   3.673   1.904   7.120 -0.1850  1.1268  1.6567
  993TIP3    H224615   3.649   1.989   6.998  1.1286 -0.8659 -0.0592
  994TIP3   OH224616   1.159   5.249   0.088 -0.2380  0.3269  0.1565
  994TIP3    H124617   1.128   5.340   0.089  1.4255  1.0030  3.1309
  994TIP3    H224618   1.098   5.203   0.031 -3.4511  2.5512  1.5193
  995TIP3   OH224619   3.631   4.148   2.534 -0.3471  0.0548 -0.3446
  995TIP3    H124620   3.638   4.058   2.504 -0.6620  0.2577 -1.0662
  995TIP3    H224621   3.704   4.194   2.492  0.2374 -0.0001  0.5855
  996TIP3   OH224622   3.147   2.094   7.543 -0.0282  0.2203  0.4267
  996TIP3    H124623   3.169   2.001   7.551  1.2898  0.5131  0.3330
  996TIP3    H224624   3.061   2.094   7.501 -0.6690 -0.9787  1.6675
  997TIP3   OH224625   6.334   4.836   1.681 -0.5601  0.3149 -0.0313
  997TIP3    H124626   6.311   4.901   1.615 -1.2609 -0.1927 -0.3045
  997TIP3    H224627   6.310   4.752   1.641  0.9787 -0.1888  0.0175
  998TIP3   OH224628   5.117   1.578   8.314 -0.0346 -0.0233  0.2802
  998TIP3    H124629   5.068   1.643   8.265  1.6481  2.2021  1.3665
  998TIP3    H224630   5.057   1.504   8.323 -1.6838  0.9596 -1.8460
  999TIP3   OH224631   4.145   3.279   1.690 -0.1013  0.0416 -0.0952
  999TIP3    H124632   4.161   3.337   1.616 -1.7100  0.7673  0.1054
  999TIP3    H224633   4.078   3.218   1.659 -1.8003  1.2021  1.1628
 1000TIP3   OH224634   0.380   5.296   7.835  0.1330  0.0407  0.2169
 1000TIP3    H124635   0.412   5.206   7.836 -1.5729 -0.6089  0.2810
 1000TIP3    H224636   0.457   5.349   7.814  1.6261 -1.2176  2.1649
 1001TIP3   OH224637   1.216   2.720   1.957 -0.0547  0.3860  0.1193
 1001TIP3    H124638   1.224   2.625   1.949 -1.4671  0.2699 -0.1755
 1001TIP3    H224639   1.207   2.736   2.051  0.0907  0.2307  0.1608
 1002TIP3   OH224640   6.006   2.348   0.312 -0.1057  0.3472 -0.3244
 1002TIP3    H124641   6.049   2.335   0.397  1.4762  0.2505 -1.1083
 1002TIP3    H224642   5.935   2.285   0.311 -1.8255  2.0634  1.9734
 1003TIP3   OH224643   3.756   6.208   8.058  0.0388 -0.3678 -0.4696
 1003TIP3    H124644   3.735   6.147   8.129  0.6233  0.4230  0.4141
 1003TIP3    H224645   3.851   6.202   8.048 -0.1256 -1.0951 -1.7908
 1004TIP3   OH224646   4.213   5.401   0.437 -0.3827 -0.3827 -0.5401
 1004TIP3    H124647   4.209   5.416   0.531  1.4087 -1.4376 -0.2567
 1004TIP3    H224648   4.124   5.419   0.406 -0.6751  1.3325  1.1167
 1005TIP3   OH224649   2.446   4.813   8.621 -0.3302 -0.1368 -0.4839
 1005TIP3    H124650   2.351   4.806   8.628 -0.2780 -0.6639 -0.2541
 1005TIP3    H224651   2.471   4.739   8.565 -0.2728  1.2851 -2.4512
 1006TIP3   OH224652   2.625   5.934   6.804  0.0779  0.2559 -0.0496
 1006TIP3    H124653   2.719   5.917   6.816 -0.3456 -2.2613  0.1633
 1006TIP3    H224654   2.593   5.859   6.755 -2.0614  0.3999  1.0070
 1007TIP3   OH224655   1.709   3.427   1.202  0.1642 -0.5657 -0.3729
 1007TIP3    H124656   1.689   3.441   1.294  0.1182  0.6567 -0.5479
 1007TIP3    H224657   1.662   3.496   1.156 -0.4619 -1.6447 -1.4009
 1008TIP3   OH224658   3.435   0.498   1.854  0.6094  0.4037 -0.7204
 1008TIP3    H124659   3.433   0.544   1.938  0.0165 -1.2072  0.1935
 1008TIP3    H224660   3.428   0.405   1.878 -0.6761 -0.0319 -2.6035
 1009TIP3   OH224661   5.124   4.629   6.680 -0.0895 -0.1799 -0.3510
 1009TIP3    H124662   5.189   4.586   6.735 -1.6357 -1.0742  0.8682
 1009TIP3    H224663   5.046   4.574   6.689 -1.0402  0.9086 -1.6852
 1010TIP3   OH224664   4.688   4.974   6.579 -0.5140 -0.6207 -0.2537
 1010TIP3    H124665   4.782   4.963   6.567 -0.7166 -0.2934 -2.5407
 1010TIP3    H224666   4.679   5.055   6.629  0.4061 -0.3100 -0.5783
 1011TIP3   OH224667   3.731   0.149   7.208  0.4148  0.2787  0.0455
 1011TIP3    H124668   3.662   0.191   7.158  1.4681  0.8189 -0.9851
 1011TIP3    H224669   3.721   0.183   7.297 -0.6238  0.3501 -0.0929
 1012TIP3   OH224670   2.435   3.817   7.086 -0.0617 -0.1968  0.1293
 1012TIP3    H124671   2.364   3.849   7.031  0.2267  3.0528  1.4276
 1012TIP3    H224672   2.392   3.778   7.162 -0.4368  0.2741  0.1534
 1013TIP3   OH224673   0.926   2.184   1.647 -0.4180 -0.6228 -0.1239
 1013TIP3    H124674   0.936   2.261   1.703 -3.0706 -0.7830  0.7086
 1013TIP3    H224675   0.995   2.124   1.677  0.6225  0.7717  0.3536
 1014TIP3   OH224676   4.291   2.297   0.843  0.3256  0.2208  0.2806
 1014TIP3    H124677   4.363   2.361   0.835  0.8758 -0.2828  1.0746
 1014TIP3    H224678   4.213   2.351   0.857  0.6578  0.7515  0.1216
 1015TIP3   OH224679   5.944   3.633   7.303  0.1892 -0.2736 -0.5291
 1015TIP3    H124680   5.993   3.707   7.268  0.2910 -0.7146 -1.3175
 1015TIP3    H224681   5.852   3.660   7.296  0.2836  0.5635  0.9765
 1016TIP3   OH224682   0.410   1.195   0.065  0.2226  0.2873 -0.2855
 1016TIP3    H124683   0.381   1.284   0.084  1.5053  0.5147  0.7965
 1016TIP3    H224684   0.344   1.139   0.106  0.5490  0.7701  0.9478
 1017TIP3   OH224685   0.148   1.309   7.575 -0.1632  0.3591 -0.5192
 1017TIP3    H124686   0.063   1.271   7.553  0.1957 -1.3834  0.8864
 1017TIP3    H224687   0.206   1.278   7.505  0.0182 -1.3818  0.3414
 1018TIP3   OH224688   4.039   4.563   2.505  0.0839 -0.5991 -0.4063
 1018TIP3    H124689   3.958   4.522   2.536  0.6796 -1.1883  0.4200
 1018TIP3    H224690   4.040   4.649   2.547 -0.1869 -0.5253 -0.5467
 1019TIP3   OH224691   5.280   2.989   8.894 -0.2937  0.3746  0.0879
 1019TIP3    H124692   5.350   2.925   8.901 -1.3051 -1.0530 -1.8139
 1019TIP3    H224693   5.213   2.958   8.955 -1.4522 -1.4547 -1.9357
 1020TIP3   OH224694   4.250   3.612   1.750 -0.3821 -0.2177 -0.3570
 1020TIP3    H124695   4.325   3.553   1.757  0.5582  1.0067  0.2515
 1020TIP3    H224696   4.285   3.692   1.711 -1.3037  0.4802  0.1943
 1021TIP3   OH224697   4.991   4.528   7.588  0.2012 -0.1812 -0.1613
 1021TIP3    H124698   4.951   4.456   7.637 -1.7167 -0.3650 -1.8870
 1021TIP3    H224699   5.061   4.487   7.537  0.8141 -0.3403  0.7775
 1022TIP3   OH224700   2.032   1.054   1.523  0.3273  0.6692  0.4332
 1022TIP3    H124701   2.106   1.065   1.463  0.0122  1.3733  0.1565
 1022TIP3    H224702   1.959   1.027   1.466 -0.0089  1.4799  0.4525
 1023TIP3   OH224703   1.788   5.298   7.863  0.3593 -0.2923  0.1100
 1023TIP3    H124704   1.748   5.383   7.846  0.3306 -0.1531  0.8132
 1023TIP3    H224705   1.778   5.286   7.958  1.4132 -0.5429  0.1980
 1024TIP3   OH224706   0.546   4.690   2.069  0.2283  0.2360 -0.0511
 1024TIP3    H124707   0.568   4.680   1.977  0.5157  0.6951 -0.0332
 1024TIP3    H224708   0.557   4.602   2.106 -0.1381 -0.0057 -0.5011
 1025TIP3   OH224709   6.581   3.952   2.911 -0.2660 -0.5951 -0.1022
 1025TIP3    H124710   6.551   3.957   2.820  1.0867 -1.2992 -0.6190
 1025TIP3    H224711   6.515   4.000   2.961 -0.6578  0.4532 -1.5495
 1026TIP3   OH224712   4.152   4.425   1.982 -0.4157 -0.0267 -0.2299
 1026TIP3    H124713   4.147   4.348   1.925 -1.4602 -0.9033  0.9784
 1026TIP3    H224714   4.126   4.392   2.068  1.9527  1.0239  0.9989
 1027TIP3   OH224715   3.246   6.158   8.866 -0.2526 -0.0341 -0.7512
 1027TIP3    H124716   3.326   6.116   8.898 -2.1049 -2.7855  0.6007
 1027TIP3    H224717   3.243   6.242   8.911  1.4611 -0.2111 -0.2398
 1028TIP3   OH224718   3.918   4.127   8.881 -0.1022  0.1104  0.0826
 1028TIP3    H124719   4.008   4.094   8.889  0.1018  1.0811  2.4723
 1028TIP3    H224720   3.864   4.048   8.874  0.3977 -1.0713  5.2925
 1029TIP3   OH224721   3.188   5.414   8.487  0.2708 -0.2063 -0.6804
 1029TIP3    H124722   3.266   5.430   8.435  0.4567  0.2468 -0.2704
 1029TIP3    H224723   3.171   5.496   8.533  0.7878 -0.9031  0.8478
 1030TIP3   OH224724   4.738   1.842   7.538 -0.0181 -0.0336  0.6190
 1030TIP3    H124725   4.669   1.817   7.477  0.5985  1.6317 -0.8650
 1030TIP3    H224726   4.730   1.938   7.544  0.9600 -0.0117  1.9101
 1031TIP3   OH224727   3.998   3.194   0.310 -0.3283 -0.1026  0.1341
 1031TIP3    H124728   4.075   3.245   0.336 -0.5561  0.7918 -0.8980
 1031TIP3    H224729   3.928   3.259   0.303 -1.1619 -0.8807  0.9013
 1032TIP3   OH224730   6.559   4.476   8.412 -0.3233 -0.4510 -0.0733
 1032TIP3    H124731   6.517   4.460   8.328  2.5157 -1.1945 -1.4437
 1032TIP3    H224732   6.535   4.566   8.434 -0.1884  0.1565 -2.2638
 1033TIP3   OH224733   4.159   1.441   7.597 -0.3717  0.4903  0.2691
 1033TIP3    H124734   4.210   1.440   7.516 -0.5631  0.2310  0.1464
 1033TIP3    H224735   4.083   1.386   7.577 -0.9627  1.2797  0.2734
 1034TIP3   OH224736   1.347   1.957   7.623  0.0018  0.3333 -0.3762
 1034TIP3    H124737   1.337   1.890   7.556 -1.5163 -0.7975  0.9073
 1034TIP3    H224738   1.272   2.016   7.610 -2.2210 -1.6715  2.1559
 1035TIP3   OH224739   3.601   4.044   8.633  1.0284 -0.2834  0.2219
 1035TIP3    H124740   3.579   4.129   8.593  0.9026  0.1787  1.2405
 1035TIP3    H224741   3.690   4.026   8.602  0.7636 -0.1784 -0.6434
 1036TIP3   OH224742   1.952   2.208   1.578 -0.1755  0.1330  0.0508
 1036TIP3    H124743   1.965   2.217   1.673  1.2746  0.1324 -0.1325
 1036TIP3    H224744   1.948   2.114   1.563  0.2980  0.1108  0.0377
 1037TIP3   OH224745   5.319   4.582   8.179  0.0084 -0.1479 -0.2859
 1037TIP3    H124746   5.344   4.534   8.100  1.1088  1.3137 -0.8666
 1037TIP3    H224747   5.379   4.549   8.247 -0.6665 -1.1054 -0.1252
 1038TIP3   OH224748   2.682   2.377   6.657  0.0796 -0.1883  0.5460
 1038TIP3    H124749   2.686   2.455   6.603 -1.1917 -0.1679  0.4396
 1038TIP3    H224750   2.626   2.401   6.731 -2.0021 -1.5190 -0.4835
 1039TIP3   OH224751   4.854   4.812   8.669 -0.3017 -0.3858 -0.7433
 1039TIP3    H124752   4.884   4.728   8.633 -2.2921 -1.1666 -0.7667
 1039TIP3    H224753   4.894   4.817   8.755 -2.0035 -2.6388  0.2968
 1040TIP3   OH224754   6.362   6.024   2.667  0.5753  0.1886 -0.1892
 1040TIP3    H124755   6.387   6.110   2.701 -0.1033  0.2750  0.0924
 1040TIP3    H224756   6.305   5.987   2.734 -1.3604  0.6506 -1.5250
 1041TIP3   OH224757   0.593   6.252   0.868 -0.3560 -0.1819 -0.1558
 1041TIP3    H124758   0.576   6.158   0.856 -2.5390  0.2076 -0.5664
 1041TIP3    H224759   0.593   6.287   0.779  1.2919  0.1188 -0.0643
 1042TIP3   OH224760   5.666   6.562   1.520  0.5306  0.2212 -0.0602
 1042TIP3    H124761   5.582   6.521   1.540 -0.4498  1.1209 -2.0337
 1042TIP3    H224762   5.725   6.488   1.505 -0.8982 -0.5759 -2.3314
 1043TIP3   OH224763   1.161   4.626   8.925  0.2244  0.5923  0.4910
 1043TIP3    H124764   1.176   4.533   8.911 -0.3185  0.1027  2.8700
 1043TIP3    H224765   1.070   4.632   8.953 -0.3817  2.1182 -1.5152
 1044TIP3   OH224766   5.258   5.066   1.074 -0.0654  0.8520  0.0901
 1044TIP3    H124767   5.211   5.109   1.003 -0.0085 -0.1762 -0.5842
 1044TIP3    H224768   5.332   5.124   1.092  1.3163 -0.0053 -2.3452
 1045TIP3   OH224769   6.177   3.033   1.075  0.3502  0.1586  0.0716
 1045TIP3    H124770   6.145   2.955   1.030 -0.8283 -0.3318  1.6633
 1045TIP3    H224771   6.171   3.103   1.010  2.7233 -1.2452 -1.8485
 1046TIP3   OH224772   2.276   2.415   8.042 -0.0730 -0.2614 -1.0846
 1046TIP3    H124773   2.369   2.421   8.064 -0.0703  0.5276 -1.2909
 1046TIP3    H224774   2.267   2.327   8.004  0.8100  0.0609 -2.0978
 1047TIP3   OH224775   4.340   0.228   2.189 -0.2852 -0.4890  0.1866
 1047TIP3    H124776   4.303   0.289   2.125 -1.6263 -0.2164  1.1939
 1047TIP3    H224777   4.413   0.276   2.228 -0.7523  0.1265  0.3167
 1048TIP3   OH224778   6.227   4.605   2.811  0.0144 -0.0904  0.1314
 1048TIP3    H124779   6.154   4.658   2.842  1.0666  0.5046  1.6902
 1048TIP3    H224780   6.305   4.655   2.834  0.9392 -0.7324 -1.4599
 1049TIP3   OH224781   2.776   4.594   8.497 -0.0144  0.1846  0.4512
 1049TIP3    H124782   2.830   4.650   8.553  0.8879 -0.4629  0.2630
 1049TIP3    H224783   2.805   4.505   8.518  0.6494 -0.0632 -1.3090
 1050TIP3   OH224784   1.847   4.067   1.951 -0.5824 -0.5675  0.1736
 1050TIP3    H124785   1.853   3.992   2.010  0.3600 -0.9032 -0.3267
 1050TIP3    H224786   1.922   4.057   1.892  1.3585  2.2960  1.8706
 1051TIP3   OH224787   3.667   5.799   1.071  0.7924 -0.5504 -0.4163
 1051TIP3    H124788   3.644   5.856   1.145  1.2742 -1.4985  0.4866
 1051TIP3    H224789   3.762   5.807   1.063  0.6426  0.3111 -1.5980
 1052TIP3   OH224790   5.508   4.861   7.906  0.6744 -0.0260  0.2500
 1052TIP3    H124791   5.574   4.919   7.942  0.1637  0.5216  0.3146
 1052TIP3    H224792   5.544   4.773   7.919  1.3405  0.2589  0.3705
 1053TIP3   OH224793   5.956   0.898   8.515 -0.3976  0.0428  1.3491
 1053TIP3    H124794   5.906   0.959   8.461 -3.3295 -2.2309  1.2572
 1053TIP3    H224795   6.041   0.891   8.470 -0.7139  2.4083  0.2435
 1054TIP3   OH224796   6.506   2.053   1.215 -0.3216  0.0466  0.0541
 1054TIP3    H124797   6.516   2.148   1.204 -0.9230  0.2999  1.4582
 1054TIP3    H224798   6.589   2.017   1.185  0.9448  1.2567  1.8657
 1055TIP3   OH224799   1.305   2.119   8.859 -0.1307 -0.0362 -0.5948
 1055TIP3    H124800   1.373   2.060   8.829  0.1219  0.7111 -1.5388
 1055TIP3    H224801   1.226   2.064   8.865 -0.0025 -0.3912 -1.8725
 1056TIP3   OH224802   2.470   5.381   6.953 -0.0324 -0.5824 -0.7848
 1056TIP3    H124803   2.414   5.304   6.948 -0.2768 -0.4399 -0.3718
 1056TIP3    H224804   2.553   5.354   6.914  0.2548 -1.4036  0.3375
 1057TIP3   OH224805   4.659   2.364   8.973  0.3236  0.3405 -0.1814
 1057TIP3    H124806   4.691   2.448   9.007 -1.8727  0.9252  0.5814
 1057TIP3    H224807   4.738   2.313   8.959  1.8095  2.7394 -1.3082
 1058TIP3   OH224808   3.542   2.235   1.364 -0.2898  0.1478 -0.2190
 1058TIP3    H124809   3.547   2.140   1.356  0.0624  0.1299  0.1688
 1058TIP3    H224810   3.538   2.251   1.458 -2.5591  0.4160 -0.2916
 1059TIP3   OH224811   1.639   0.244   7.989  0.2894 -0.0751 -0.2937
 1059TIP3    H124812   1.551   0.250   7.951 -0.4326 -0.1084  1.2756
 1059TIP3    H224813   1.664   0.152   7.978  0.2505 -0.0067 -0.9913
 1060TIP3   OH224814   4.448   6.142   1.172 -0.0402  0.7151 -0.1104
 1060TIP3    H124815   4.491   6.121   1.255 -0.0612 -0.0067 -0.2807
 1060TIP3    H224816   4.508   6.204   1.130  0.7114 -0.0552 -0.2123
 1061TIP3   OH224817   3.009   5.073   1.305 -0.3101 -0.8959 -0.1929
 1061TIP3    H124818   2.963   5.031   1.232  0.5841 -0.8399 -0.8157
 1061TIP3    H224819   2.999   5.013   1.378 -1.0638 -1.0452 -0.4161
 1062TIP3   OH224820   6.724   0.544   1.463 -0.0751  0.6657 -0.0735
 1062TIP3    H124821   6.687   0.622   1.421 -2.2806 -1.8253 -3.2581
 1062TIP3    H224822   6.648   0.491   1.487  1.2990 -1.9616 -1.1260
 1063TIP3   OH224823   6.202   2.844   8.885 -0.3037  0.2533  0.3931
 1063TIP3    H124824   6.106   2.845   8.881 -0.3316 -0.8568  0.4517
 1063TIP3    H224825   6.229   2.826   8.795 -0.2177 -1.0298  0.6528
 1064TIP3   OH224826   5.216   0.250   8.609  0.2856 -0.2360  0.1431
 1064TIP3    H124827   5.221   0.157   8.588  0.3778 -0.7510  2.2220
 1064TIP3    H224828   5.304   0.283   8.590  0.5477 -0.8011  0.3433
 1065TIP3   OH224829   3.486   6.070   1.817 -0.2975 -0.5319  0.5085
 1065TIP3    H124830   3.487   6.136   1.886  0.2485 -0.5066  0.4805
 1065TIP3    H224831   3.396   6.072   1.784 -0.2215  0.4031  0.3187
 1066TIP3   OH224832   2.506   2.461   1.072 -0.2798 -0.2626 -0.0974
 1066TIP3    H124833   2.504   2.419   0.986  0.2904  1.9916 -1.2947
 1066TIP3    H224834   2.450   2.538   1.063 -0.2459 -0.0016  1.5757
 1067TIP3   OH224835   1.792   1.255   7.656 -0.3610 -0.7200  0.3977
 1067TIP3    H124836   1.853   1.235   7.584 -1.1702  0.1138 -0.5436
 1067TIP3    H224837   1.729   1.316   7.618 -2.3514 -2.2315  1.0726
 1068TIP3   OH224838   1.801   4.702   7.351  0.2721 -0.0462 -0.1010
 1068TIP3    H124839   1.830   4.728   7.264  1.1928 -0.1861  0.1458
 1068TIP3    H224840   1.714   4.741   7.361 -0.4528 -1.1810 -1.6124
 1069TIP3   OH224841   6.006   4.789   0.007 -0.8449  0.7791 -0.0976
 1069TIP3    H124842   6.041   4.767  -0.079 -0.9579  0.9935 -0.1999
 1069TIP3    H224843   5.970   4.707   0.040  2.7300 -0.3261  1.4741
 1070TIP3   OH224844   4.180   1.806   7.816  0.0515 -0.5709 -0.0040
 1070TIP3    H124845   4.089   1.788   7.838 -0.2242 -0.8013 -1.2692
 1070TIP3    H224846   4.213   1.856   7.891 -1.0375 -0.6914  0.5796
 1071TIP3   OH224847   1.181   0.063   1.379 -0.3334 -0.4396 -0.1178
 1071TIP3    H124848   1.203   0.131   1.316  0.2305 -0.2547  0.2765
 1071TIP3    H224849   1.164  -0.015   1.325 -1.2439  0.0707 -0.5845
 1072TIP3   OH224850   2.925   0.461   0.279  0.0877 -0.4368 -0.3135
 1072TIP3    H124851   3.016   0.489   0.264 -0.1184  0.2716 -0.2963
 1072TIP3    H224852   2.876   0.543   0.285 -0.4910 -0.8051  0.0829
 1073TIP3   OH224853   2.369   5.282   7.876 -0.9481  0.3419  0.0725
 1073TIP3    H124854   2.334   5.220   7.812 -1.5988 -0.9627  1.6069
 1073TIP3    H224855   2.461   5.293   7.851 -1.9489  2.8931 -3.3136
 1074TIP3   OH224856   4.446   2.252   7.176 -0.4936 -0.2713 -0.2334
 1074TIP3    H124857   4.534   2.264   7.140  0.5919 -4.3485  0.6099
 1074TIP3    H224858   4.454   2.279   7.268 -0.4756  0.4668 -0.4462
 1075TIP3   OH224859   0.989   6.067   8.370  0.1657 -0.0364 -0.0114
 1075TIP3    H124860   1.014   6.005   8.438  1.1685  0.7830  0.4061
 1075TIP3    H224861   1.007   6.153   8.408 -1.4000  0.5452 -0.4799
 1076TIP3   OH224862   3.151   3.524   7.085 -0.0486  0.2432  0.2290
 1076TIP3    H124863   3.117   3.520   7.174  0.7416 -1.6855  0.4851
 1076TIP3    H224864   3.082   3.567   7.035 -1.8794 -1.4700  1.1771
 1077TIP3   OH224865   6.456   5.479   1.398 -0.0604  0.5817  0.6412
 1077TIP3    H124866   6.549   5.479   1.375 -0.0973 -1.1747  0.3301
 1077TIP3    H224867   6.454   5.503   1.490  0.8793 -0.8011  1.0641
 1078TIP3   OH224868   0.012   4.525   8.620  0.2756  0.2871 -0.4719
 1078TIP3    H124869   0.022   4.450   8.560  0.2492  0.5152 -0.7664
 1078TIP3    H224870  -0.002   4.600   8.562 -2.3661  0.1406 -0.1782
 1079TIP3   OH224871   3.042   5.019   0.450 -0.3040 -0.0898 -0.8878
 1079TIP3    H124872   3.108   5.006   0.517  0.5805  2.5733 -1.1230
 1079TIP3    H224873   2.962   5.038   0.499 -0.0534  0.2077 -0.5886
 1080TIP3   OH224874   0.379   1.840   7.438 -0.2308 -0.4301  0.2193
 1080TIP3    H124875   0.323   1.766   7.414 -2.2180  1.1992 -0.4690
 1080TIP3    H224876   0.468   1.806   7.432 -0.9572 -2.1881 -2.2995
 1081TIP3   OH224877   1.251   2.943   0.516  0.0929  0.4390 -0.2373
 1081TIP3    H124878   1.232   2.872   0.455 -0.8227 -0.3372  0.9172
 1081TIP3    H224879   1.345   2.957   0.508 -0.1144  1.0084 -2.4881
 1082TIP3   OH224880   4.515   2.002   8.621 -0.0059  0.1338  0.0452
 1082TIP3    H124881   4.482   2.073   8.566 -0.2667  1.3127  1.6377
 1082TIP3    H224882   4.440   1.943   8.631 -0.0583  0.0888 -0.5527
 1083TIP3   OH224883   6.433   3.543   7.208 -0.7092  0.7189 -0.2856
 1083TIP3    H124884   6.347   3.502   7.194 -0.4718  0.4368 -0.9672
 1083TIP3    H224885   6.493   3.493   7.152 -0.1851  1.2056 -0.1692
 1084TIP3   OH224886   4.000   0.929   0.742 -0.1070 -0.4835 -0.2514
 1084TIP3    H124887   4.090   0.950   0.767 -0.4789 -1.0970  1.8791
 1084TIP3    H224888   3.971   1.003   0.689  1.1915  0.4257  0.2551
 1085TIP3   OH224889   5.627   2.918   1.104 -0.0622  0.0968 -0.4879
 1085TIP3    H124890   5.554   2.959   1.150 -1.0302  0.2148 -2.0705
 1085TIP3    H224891   5.657   2.849   1.163 -1.1223  0.3842  0.4104
 1086TIP3   OH224892   6.580   3.225   0.317 -0.1596 -0.1718  0.1575
 1086TIP3    H124893   6.615   3.296   0.371  0.4120 -0.4169  0.1197
 1086TIP3    H224894   6.488   3.248   0.304  0.4553  1.6795 -1.6020
 1087TIP3   OH224895   2.787   3.574   7.457 -0.2361  0.4445  0.0652
 1087TIP3    H124896   2.696   3.543   7.450  0.1605 -1.0158  0.8613
 1087TIP3    H224897   2.781   3.654   7.508 -1.3966  2.2944 -2.7322
 1088TIP3   OH224898   5.203   0.636   0.416 -0.0023  0.2033 -0.3211
 1088TIP3    H124899   5.245   0.624   0.330  0.3398  0.0767 -0.1368
 1088TIP3    H224900   5.221   0.727   0.438 -1.4182  0.7013 -1.0867
 1089TIP3   OH224901   6.564   2.402   1.569  0.4266  0.7712 -0.1043
 1089TIP3    H124902   6.552   2.316   1.609  0.0013  0.3862 -1.0518
 1089TIP3    H224903   6.534   2.463   1.637 -1.6790  0.0606 -0.3409
 1090TIP3   OH224904   4.991   2.644   1.416 -0.0773  0.1351  0.0864
 1090TIP3    H124905   4.973   2.682   1.331  0.8205 -1.3588 -0.8160
 1090TIP3    H224906   4.919   2.673   1.472 -1.8278 -0.5572 -1.7230
 1091TIP3   OH224907   3.223   6.522   8.386  0.4185 -0.4977  0.3874
 1091TIP3    H124908   3.318   6.529   8.390  0.2870  2.3212  0.7720
 1091TIP3    H224909   3.196   6.509   8.477  0.3521  2.3524  0.8703
 1092TIP3   OH224910   5.191   6.757   8.305 -0.1237  0.3448 -0.6006
 1092TIP3    H124911   5.282   6.763   8.279 -0.3137  0.8898 -1.1554
 1092TIP3    H224912   5.191   6.696   8.379  0.6625  0.2212 -0.6979
 1093TIP3   OH224913   4.847   6.286   7.306 -0.0391  0.4962 -0.3440
 1093TIP3    H124914   4.771   6.341   7.286 -0.3665  0.0534 -0.3202
 1093TIP3    H224915   4.922   6.344   7.295 -0.3454  0.7869 -0.9121
 1094TIP3   OH224916   3.254   3.478   1.339  0.1050  0.0138 -0.3733
 1094TIP3    H124917   3.337   3.526   1.344 -0.3081  0.6520  0.7643
 1094TIP3    H224918   3.278   3.390   1.311  1.0274  0.5216 -1.2207
 1095TIP3   OH224919   1.133   0.948   8.481  0.3010 -0.1463 -0.2850
 1095TIP3    H124920   1.077   0.980   8.411  0.5877  0.8635 -0.0789
 1095TIP3    H224921   1.208   1.007   8.480  0.5535 -0.4361  0.5318
 1096TIP3   OH224922   1.653   1.360   2.147  0.1821  0.7245 -0.4105
 1096TIP3    H124923   1.560   1.379   2.135  0.0275  0.7005  0.6853
 1096TIP3    H224924   1.674   1.298   2.076 -0.9284 -0.1928  0.0429
 1097TIP3   OH224925   2.823   0.040   1.379  0.2223  0.0327  0.3143
 1097TIP3    H124926   2.828  -0.055   1.373  0.7833  0.0441  0.5310
 1097TIP3    H224927   2.841   0.059   1.472 -0.8725  0.2868  0.4832
 1098TIP3   OH224928   2.829   5.585   1.481 -0.3041  0.0913  0.2883
 1098TIP3    H124929   2.913   5.539   1.483 -0.5274 -0.4483 -1.1519
 1098TIP3    H224930   2.845   5.666   1.529  1.5541  0.7814 -1.3566
 1099TIP3   OH224931   6.718   0.167   1.363 -0.0894 -0.0541 -0.2177
 1099TIP3    H124932   6.744   0.103   1.297 -1.4969 -0.0259 -0.8445
 1099TIP3    H224933   6.678   0.114   1.432 -0.6748  0.0726 -0.4472
 1100TIP3   OH224934   3.122   6.576   7.606 -0.4483  0.1966  0.0906
 1100TIP3    H124935   3.121   6.493   7.654  1.4770 -0.2143 -0.4757
 1100TIP3    H224936   3.104   6.551   7.515  1.0925  0.2221 -0.2513
 1101TIP3   OH224937   0.786   4.861   8.652 -0.2395  0.3196  0.4246
 1101TIP3    H124938   0.701   4.869   8.609 -0.1289 -0.6144  0.0124
 1101TIP3    H224939   0.783   4.775   8.695  1.7714 -1.3855 -2.5331
 1102TIP3   OH224940   2.654   1.880   7.805 -0.2505  0.4171 -0.5896
 1102TIP3    H124941   2.608   1.862   7.888  0.8793 -1.2485 -0.2928
 1102TIP3    H224942   2.747   1.879   7.829  0.1111 -0.5799 -1.9504
 1103TIP3   OH224943   1.269   6.512   1.840 -0.2632  0.1716 -0.0523
 1103TIP3    H124944   1.281   6.476   1.752  0.1223 -1.4571  0.6218
 1103TIP3    H224945   1.356   6.511   1.878 -0.5226  0.2883  0.5522
 1104TIP3   OH224946   0.500   5.024   7.845 -0.1006  0.4198 -0.1107
 1104TIP3    H124947   0.437   5.001   7.913 -0.6799 -0.2976 -0.8647
 1104TIP3    H224948   0.466   4.982   7.766  0.8561  0.7674 -0.7234
 1105TIP3   OH224949   5.391   1.983   0.938  0.3316 -0.2349 -0.4965
 1105TIP3    H124950   5.379   1.904   0.992  0.3389 -0.1515 -0.3713
 1105TIP3    H224951   5.358   2.054   0.993 -0.5061 -0.2625 -0.9607
 1106TIP3   OH224952   6.350   4.204   8.486  0.9554  0.1248 -0.3059
 1106TIP3    H124953   6.326   4.260   8.413 -0.4533  1.9383  1.4154
 1106TIP3    H224954   6.419   4.252   8.532 -0.6930  0.8922  1.5348
 1107TIP3   OH224955   5.629   4.580   2.465  0.0705 -0.0180  0.2106
 1107TIP3    H124956   5.677   4.655   2.499  0.0279  0.0379  0.1487
 1107TIP3    H224957   5.629   4.593   2.370  1.6143 -1.0259  0.0405
 1108TIP3   OH224958   1.109   0.281   1.171  0.3714 -0.1779  0.7356
 1108TIP3    H124959   1.092   0.236   1.088  0.3592  1.2802 -0.0933
 1108TIP3    H224960   1.025   0.322   1.193  0.8398  0.9606  0.4836
 1109TIP3   OH224961   3.986   3.483   8.835  0.3071  0.1401  0.1060
 1109TIP3    H124962   3.966   3.576   8.837 -0.7137 -0.0550  2.0495
 1109TIP3    H224963   3.922   3.446   8.774 -0.1614  0.5440  0.3440
 1110TIP3   OH224964   5.867   5.757   8.352  0.0830 -0.0347  0.3634
 1110TIP3    H124965   5.821   5.686   8.396 -1.0771  0.9734  0.8199
 1110TIP3    H224966   5.857   5.738   8.258  0.5658 -0.9448  0.4904
 1111TIP3   OH224967   1.857   0.356   8.227  0.8238  0.0449 -0.4461
 1111TIP3    H124968   1.789   0.300   8.263  0.7142  0.4176 -0.0708
 1111TIP3    H224969   1.916   0.296   8.182  1.2287 -0.4852  0.7539
 1112TIP3   OH224970   4.455   4.695   6.880 -0.5325  0.0864  0.0093
 1112TIP3    H124971   4.445   4.759   6.810 -1.9305 -1.0156 -0.8367
 1112TIP3    H224972   4.408   4.734   6.954  0.4058  0.9591  0.1762
 1113TIP3   OH224973   6.772   5.127   7.936  0.6952  0.3704  0.3515
 1113TIP3    H124974   6.764   5.194   8.003  3.4834  0.1287  1.0667
 1113TIP3    H224975   6.797   5.175   7.857 -0.4734  0.4385  0.0007
 1114TIP3   OH224976   6.756   3.689   0.627  0.5234 -0.1095  0.3468
 1114TIP3    H124977   6.823   3.622   0.642  1.3780  0.7539  0.5557
 1114TIP3    H224978   6.807   3.767   0.600 -0.3286  0.8122  1.3235
 1115TIP3   OH224979   5.775   0.103   0.145 -0.5870 -0.3044  0.1875
 1115TIP3    H124980   5.815   0.040   0.085 -2.9422 -2.0800  0.3492
 1115TIP3    H224981   5.711   0.150   0.092  1.3241  2.2899  0.0025
 1116TIP3   OH224982   3.104   6.719   2.147 -0.8072  0.4855  0.4638
 1116TIP3    H124983   3.039   6.779   2.111  0.1781  1.1299 -0.3044
 1116TIP3    H224984   3.173   6.775   2.180  0.5318 -0.1955 -1.0242
 1117TIP3   OH224985   1.203   5.971   7.288  0.0438 -0.8622 -0.1652
 1117TIP3    H124986   1.283   5.938   7.246  0.8159  0.2189  0.4065
 1117TIP3    H224987   1.134   5.953   7.224  0.9309 -0.7446 -1.1984
 1118TIP3   OH224988   6.232   4.954   7.427  0.1922  0.7186 -0.5787
 1118TIP3    H124989   6.308   4.904   7.456  0.4303  1.5132  0.2056
 1118TIP3    H224990   6.260   4.995   7.346 -0.1132 -0.6480 -1.4119
 1119TIP3   OH224991   3.866   2.543   1.806 -0.0945  0.2211  0.8691
 1119TIP3    H124992   3.931   2.484   1.767 -0.9985 -0.4170  0.2665
 1119TIP3    H224993   3.916   2.596   1.868  1.0505 -0.0355  0.2065
 1120TIP3   OH224994   2.282   5.600   1.139 -0.4237  0.1684 -0.1414
 1120TIP3    H124995   2.221   5.573   1.207  0.1074 -0.3108  0.1505
 1120TIP3    H224996   2.354   5.642   1.186 -0.0476 -0.1787 -0.3952
 1121TIP3   OH224997   6.487   3.287   1.754  0.5662  0.3218  0.3482
 1121TIP3    H124998   6.497   3.309   1.661  1.4224  2.2888  0.8671
 1121TIP3    H224999   6.411   3.338   1.783 -0.3439 -1.0770  0.5364
 1122TIP3   OH225000   6.329   3.072   1.302  0.6713  0.2996  0.0638
 1122TIP3    H125001   6.312   3.091   1.210 -0.0365 -1.6431 -0.2427
 1122TIP3    H225002   6.423   3.087   1.312  0.5347  1.7806 -0.6287
 1123TIP3   OH225003   2.533   0.310   0.187  0.1716 -0.2002  0.2130
 1123TIP3    H125004   2.509   0.331   0.277  2.5108 -0.8998  1.0744
 1123TIP3    H225005   2.577   0.226   0.193  1.2106  0.1786 -1.4452
 1124TIP3   OH225006   1.315   6.360   7.831  0.6382 -0.0420 -0.2732
 1124TIP3    H125007   1.335   6.275   7.869 -1.2811 -1.5755 -2.4261
 1124TIP3    H225008   1.277   6.340   7.746 -1.4798  2.9221 -0.1737
 1125TIP3   OH225009   1.848   1.440   8.792 -0.2820 -0.3917  0.1027
 1125TIP3    H125010   1.869   1.467   8.882  0.3154 -1.4064  0.2727
 1125TIP3    H225011   1.881   1.351   8.785 -0.4616 -0.3756 -1.0877
 1126TIP3   OH225012   2.441   5.437   6.675  0.5538  0.2289 -0.3284
 1126TIP3    H125013   2.515   5.425   6.734  0.5653 -1.1803 -0.5902
 1126TIP3    H225014   2.480   5.474   6.596  0.7815  0.6643 -0.0162
 1127TIP3   OH225015   4.970   2.063   1.681 -0.0557 -0.2239 -0.3040
 1127TIP3    H125016   4.951   2.112   1.761 -0.9786 -0.3892 -0.4091
 1127TIP3    H225017   4.902   1.996   1.677 -0.6396  0.4142 -1.7459
 1128TIP3   OH225018   3.336   4.154   1.407 -0.3106  0.1659  0.2933
 1128TIP3    H125019   3.355   4.248   1.405  0.2275  0.1280  2.0097
 1128TIP3    H225020   3.398   4.119   1.471 -0.5456 -1.3522 -0.2912
 1129TIP3   OH225021   0.901   6.171   1.938  0.0923 -0.0845 -0.7540
 1129TIP3    H125022   0.892   6.265   1.924 -1.4172  0.4023  2.4307
 1129TIP3    H225023   0.812   6.137   1.931  0.1526 -0.7086  1.0072
 1130TIP3   OH225024   3.037   4.371   1.526 -0.0587 -0.2880 -0.4196
 1130TIP3    H125025   3.089   4.415   1.458 -0.7335 -0.3056 -0.9592
 1130TIP3    H225026   2.984   4.441   1.564 -0.9445 -0.5683 -1.1022
 1131TIP3   OH225027   4.383   4.688   1.591 -0.0134  0.4459  0.0676
 1131TIP3    H125028   4.442   4.638   1.535 -1.5737  0.6593 -1.8883
 1131TIP3    H225029   4.433   4.768   1.612  0.4284  0.6252 -1.5251
 1132TIP3   OH225030   6.345   1.536   0.576 -0.1592 -0.6660  0.1378
 1132TIP3    H125031   6.260   1.496   0.594 -0.6368  0.5249  0.6226
 1132TIP3    H225032   6.324   1.616   0.527  0.7316 -0.6673 -0.2685
 1133TIP3   OH225033   4.412   3.915   6.526  0.4414 -0.4383 -0.7437
 1133TIP3    H125034   4.450   3.849   6.584 -0.6138  0.3313  0.9336
 1133TIP3    H225035   4.333   3.874   6.491 -0.3584 -0.0507  0.5052
 1134TIP3   OH225036   5.321   5.466   7.202  0.1889 -0.5129  0.0098
 1134TIP3    H125037   5.320   5.446   7.108 -2.2019  1.4829 -0.4916
 1134TIP3    H225038   5.384   5.404   7.239 -0.6158 -3.0605 -2.5241
 1135TIP3   OH225039   0.597   6.063   1.686  0.2270 -0.2799 -0.3783
 1135TIP3    H125040   0.610   6.132   1.750 -2.4228  0.3725 -0.4726
 1135TIP3    H225041   0.573   5.986   1.738 -1.4029  0.1144 -0.5031
 1136TIP3   OH225042   2.558   1.002   1.275 -1.5639  0.1189  0.2338
 1136TIP3    H125043   2.500   0.927   1.280 -1.7190  0.2795  1.0262
 1136TIP3    H225044   2.640   0.971   1.314 -1.7738  0.4789  0.9922
 1137TIP3   OH225045   4.848   2.355   1.371  0.0328 -0.3996  0.0652
 1137TIP3    H125046   4.809   2.442   1.377  1.9048  0.4417  0.5669
 1137TIP3    H225047   4.868   2.331   1.461  0.5753 -0.8547 -0.1742
 1138TIP3   OH225048   3.321   0.946   8.966  0.0278 -0.2023 -0.1285
 1138TIP3    H125049   3.277   0.947   9.051  0.0572 -0.0822 -0.1144
 1138TIP3    H225050   3.316   1.037   8.936 -1.2366 -0.4892 -0.9000
 1139TIP3   OH225051   1.941   5.050   8.951  0.6324 -0.3480  0.0279
 1139TIP3    H125052   1.918   4.992   8.878 -1.7646  1.6736 -0.9248
 1139TIP3    H225053   1.938   5.138   8.914  2.4570  0.5656  1.8701
 1140TIP3   OH225054   4.061   0.130   1.072 -0.1779  0.5669 -0.3434
 1140TIP3    H125055   4.146   0.173   1.059 -1.0790  2.2955 -0.8878
 1140TIP3    H225056   4.044   0.140   1.166  1.1593 -1.7658  0.2369
 1141TIP3   OH225057   3.888   0.177   1.937 -0.1983  0.5822  0.2088
 1141TIP3    H125058   3.942   0.124   1.996  0.9583 -0.1698 -1.4495
 1141TIP3    H225059   3.799   0.145   1.951  0.3363 -1.0891  0.0084
 1142TIP3   OH225060   6.696   3.548   1.322 -0.2039  0.4081 -0.1501
 1142TIP3    H125061   6.674   3.455   1.311  1.2373  0.1924 -1.3504
 1142TIP3    H225062   6.745   3.551   1.404 -0.3122  0.1360 -0.0735
 1143TIP3   OH225063   3.999   5.788   8.662 -0.6440 -0.4090  0.5378
 1143TIP3    H125064   3.946   5.835   8.726  0.2692 -0.7403  1.5743
 1143TIP3    H225065   3.992   5.696   8.689 -1.4931 -0.7720 -0.7848
 1144TIP3   OH225066   0.833   3.438   7.669 -0.3722 -0.4420  0.3423
 1144TIP3    H125067   0.903   3.494   7.635  1.2500 -1.2032  2.2149
 1144TIP3    H225068   0.869   3.349   7.662 -0.3960 -0.7224  2.8675
 1145TIP3   OH225069   4.072   4.534   1.385  0.3781  0.0898  0.6580
 1145TIP3    H125070   4.080   4.586   1.465  0.7500  1.0700  0.0155
 1145TIP3    H225071   4.007   4.580   1.333  0.8136 -0.0012  0.0160
 1146TIP3   OH225072   3.451   4.644   8.436  0.3054  0.4022  0.0044
 1146TIP3    H125073   3.419   4.605   8.518  2.2641 -1.8281 -0.1904
 1146TIP3    H225074   3.376   4.637   8.376 -0.2396 -0.6619  0.7738
 1147TIP3   OH225075   5.589   5.934   1.329 -0.9260  0.2370 -0.0282
 1147TIP3    H125076   5.592   5.919   1.424 -1.8309  0.6908  0.0749
 1147TIP3    H225077   5.520   5.875   1.298  0.0133 -0.6258 -0.5590
 1148TIP3   OH225078   5.450   6.117   7.834  0.0223 -0.5775  0.1586
 1148TIP3    H125079   5.465   6.195   7.780 -1.6708 -0.1225  0.3003
 1148TIP3    H225080   5.482   6.044   7.780 -0.0152  0.0437 -0.7138
 1149TIP3   OH225081   1.870   6.109   1.367  0.1824  0.1345  0.3333
 1149TIP3    H125082   1.867   6.196   1.407 -0.1670 -0.1936  1.0394
 1149TIP3    H225083   1.780   6.077   1.370  0.2932 -0.2208 -0.0012
 1150TIP3   OH225084   1.593   2.398   6.672  0.4890  0.0972 -0.4494
 1150TIP3    H125085   1.595   2.302   6.663 -0.2644  0.0913 -0.6681
 1150TIP3    H225086   1.513   2.415   6.722  1.1750  0.5543  0.5397
 1151TIP3   OH225087   5.395   0.083   8.515  0.0230 -0.4546  0.2343
 1151TIP3    H125088   5.473   0.064   8.566  0.0581  0.4499  0.5275
 1151TIP3    H225089   5.428   0.110   8.430 -0.0050 -0.9538  0.0611
 1152TIP3   OH225090   3.658   1.600   0.373 -0.3744  0.0301 -0.3934
 1152TIP3    H125091   3.585   1.628   0.427  0.8666  1.6063  0.5506
 1152TIP3    H225092   3.697   1.528   0.423 -1.3579 -0.9565 -1.0011
 1153TIP3   OH225093   4.244   0.427   8.130 -0.4543  0.5038 -0.1995
 1153TIP3    H125094   4.296   0.424   8.210 -1.3615  0.3944  0.4006
 1153TIP3    H225095   4.195   0.345   8.130  1.8486 -1.0278 -2.5027
 1154TIP3   OH225096   4.990   4.374   0.972 -0.0486  0.2132  0.1828
 1154TIP3    H125097   5.085   4.383   0.975 -0.2274  3.5168 -0.9226
 1154TIP3    H225098   4.972   4.298   1.028  3.1713 -0.2406  0.7907
 1155TIP3   OH225099   4.592   4.765   7.915 -1.6157  0.0630  0.1305
 1155TIP3    H125100   4.619   4.845   7.869 -0.2038 -0.0375  0.7188
 1155TIP3    H225101   4.509   4.787   7.955 -1.2683  1.2378  0.2566
 1156TIP3   OH225102   5.580   0.679   8.457 -0.0882 -0.2822 -0.2406
 1156TIP3    H125103   5.642   0.702   8.526 -0.4394  1.6280 -0.5078
 1156TIP3    H225104   5.605   0.734   8.383 -0.6025 -1.2659 -1.1722
 1157TIP3   OH225105   0.689   1.448   1.580  0.2466  0.2213 -0.4355
 1157TIP3    H125106   0.602   1.460   1.542 -0.3406 -0.0598  0.7699
 1157TIP3    H225107   0.747   1.440   1.504 -0.9459 -0.8267 -1.2797
 1158TIP3   OH225108   6.688   0.516   7.219 -0.2692  0.3221 -0.6138
 1158TIP3    H125109   6.674   0.596   7.168 -1.0264  0.8050  0.3061
 1158TIP3    H225110   6.601   0.477   7.227  0.1837 -0.9208 -1.5425
 1159TIP3   OH225111   2.974   4.476   8.298 -0.2384 -0.0201 -0.0574
 1159TIP3    H125112   2.888   4.469   8.256  0.0730 -1.2436 -0.5107
 1159TIP3    H225113   2.996   4.569   8.291 -2.3036  0.6844  1.6540
 1160TIP3   OH225114   3.922   6.509   7.437 -0.3300  0.6199  0.3714
 1160TIP3    H125115   4.018   6.504   7.436 -0.3714 -0.8820 -0.9301
 1160TIP3    H225116   3.903   6.591   7.482  1.5771  1.1355  0.3459
 1161TIP3   OH225117   1.018   2.503   1.545 -0.0829  0.1961 -0.4280
 1161TIP3    H125118   0.994   2.464   1.629  0.6508  0.3051 -0.1566
 1161TIP3    H225119   0.952   2.471   1.483 -0.9396  0.5328  0.2856
 1162TIP3   OH225120   2.622   4.754   8.328 -0.2122 -0.1851  0.2743
 1162TIP3    H125121   2.659   4.811   8.396 -1.5520 -0.5555  1.3517
 1162TIP3    H225122   2.689   4.687   8.314  1.2493  1.3945 -0.7557
 1163TIP3   OH225123   4.341   5.612   1.053  0.5154 -0.1212 -0.3795
 1163TIP3    H125124   4.313   5.523   1.075 -0.4121 -0.0777 -1.3022
 1163TIP3    H225125   4.260   5.660   1.039  0.9106  1.4701  2.1747
 1164TIP3   OH225126   2.087   5.629   8.476 -0.3704  0.3439  0.4645
 1164TIP3    H125127   2.171   5.585   8.493 -0.8165 -0.0407  1.7275
 1164TIP3    H225128   2.027   5.558   8.452 -0.6132  0.4956  0.6222
 1165TIP3   OH225129   5.065   4.545   2.447  0.1149 -0.0228 -0.1598
 1165TIP3    H125130   5.005   4.505   2.384  0.5809 -0.6810 -0.1892
 1165TIP3    H225131   5.035   4.512   2.532  1.9550 -2.4044 -0.3563
 1166TIP3   OH225132   0.233   0.952   0.432 -0.6588 -0.1407 -0.3681
 1166TIP3    H125133   0.163   0.913   0.380 -1.2146  0.7096 -0.2668
 1166TIP3    H225134   0.282   1.007   0.370  0.3351 -1.2308 -0.5901
 1167TIP3   OH225135   0.509   5.652   2.681 -0.2791  0.7922  0.3397
 1167TIP3    H125136   0.422   5.661   2.642 -0.0680  0.8909 -0.1225
 1167TIP3    H225137   0.509   5.714   2.754 -0.9050  0.1316  0.9204
 1168TIP3   OH225138   3.101   4.709   1.325  0.6686  0.2392  0.1197
 1168TIP3    H125139   3.085   4.763   1.402 -0.0280 -0.2359  0.3209
 1168TIP3    H225140   3.035   4.736   1.261  0.2842 -0.3833  0.2385
 1169TIP3   OH225141   1.959   1.516   0.034  0.1185  0.2095 -0.4554
 1169TIP3    H125142   1.929   1.464   0.108 -1.9416 -1.6794 -2.4616
 1169TIP3    H225143   2.052   1.492   0.024  0.1934 -0.1700  0.9380
 1170TIP3   OH225144   3.463   6.043   9.000  0.0062  0.1850  0.5864
 1170TIP3    H125145   3.555   6.067   9.013  0.1029  0.3112 -0.2545
 1170TIP3    H225146   3.423   6.055   9.086  1.1102 -1.3986  1.3628
 1171TIP3   OH225147   4.911   1.832   7.305 -0.5023  0.2043 -0.3234
 1171TIP3    H125148   4.997   1.853   7.342 -0.7411 -0.0737  0.4300
 1171TIP3    H225149   4.852   1.839   7.380 -0.8138 -1.5943 -0.3623
 1172TIP3   OH225150   6.157   5.696   7.610  0.2218 -0.0403  0.1435
 1172TIP3    H125151   6.084   5.699   7.672  0.6009  0.3320  0.5821
 1172TIP3    H225152   6.121   5.732   7.529 -0.5870 -1.5493 -0.1911
 1173TIP3   OH225153   2.692   2.012   0.640 -0.2430  0.0657  0.2727
 1173TIP3    H125154   2.704   2.060   0.558  0.3775  1.3596  1.0758
 1173TIP3    H225155   2.759   1.944   0.637  1.3340  1.5254  0.6610
 1174TIP3   OH225156   3.394   3.580   0.921  0.5744  0.3697  0.4649
 1174TIP3    H125157   3.482   3.590   0.956  1.2952 -2.8563 -0.0437
 1174TIP3    H225158   3.355   3.667   0.926  3.7219  1.8814  0.7961
 1175TIP3   OH225159   3.048   4.877   1.555 -0.3405  0.1387  0.0852
 1175TIP3    H125160   3.123   4.937   1.556  0.1853 -0.4428 -1.5518
 1175TIP3    H225161   3.012   4.884   1.644  1.8304  0.1944  1.0468
 1176TIP3   OH225162   6.421   6.518   2.671  0.0044 -0.0681 -0.4247
 1176TIP3    H125163   6.500   6.464   2.665 -0.1461 -0.1766 -1.7923
 1176TIP3    H225164   6.454   6.608   2.674  0.2393 -0.1622  1.4786
 1177TIP3   OH225165   4.677   3.863   0.919  0.0252  0.3833  0.2298
 1177TIP3    H125166   4.738   3.789   0.920  0.1815  0.5166  0.9050
 1177TIP3    H225167   4.701   3.911   0.839  0.4420  0.1318  0.1963
 1178TIP3   OH225168   1.930   6.323   0.887 -0.2096  0.0223 -0.2459
 1178TIP3    H125169   1.906   6.234   0.913  1.7701 -0.3968  0.2807
 1178TIP3    H225170   1.989   6.353   0.956 -0.7811  1.7268 -0.4686
 1179TIP3   OH225171   5.230   0.899   0.466 -0.1701 -0.2236 -0.4473
 1179TIP3    H125172   5.302   0.933   0.412 -0.3009  0.4569 -0.2067
 1179TIP3    H225173   5.165   0.970   0.465 -0.4598 -0.4826  0.0499
 1180TIP3   OH225174   2.754   6.450   7.748  0.4305  0.1023 -0.6277
 1180TIP3    H125175   2.670   6.486   7.722  0.0796  0.1423  0.4952
 1180TIP3    H225176   2.743   6.355   7.741 -0.4940 -0.0293  1.6105
 1181TIP3   OH225177   2.138   5.661   2.332  0.1432 -0.0704  0.0859
 1181TIP3    H125178   2.156   5.575   2.370  1.0420  0.9335  2.0916
 1181TIP3    H225179   2.203   5.719   2.372 -2.3086  2.1321  1.2203
 1182TIP3   OH225180   6.585   0.165   7.427  0.1673 -0.1405  0.1594
 1182TIP3    H125181   6.506   0.182   7.377 -0.0757 -1.9000 -0.1164
 1182TIP3    H225182   6.564   0.192   7.516 -0.9162 -0.9740  0.1737
 1183TIP3   OH225183   6.672   2.957   7.470 -0.3914  0.9146 -0.4436
 1183TIP3    H125184   6.650   2.868   7.495 -2.3672  1.2215 -0.9569
 1183TIP3    H225185   6.650   3.010   7.546  0.0319  1.0713 -0.4247
 1184TIP3   OH225186   0.143   5.508   2.250  0.4094  0.2224  0.0669
 1184TIP3    H125187   0.056   5.512   2.210  0.5775 -1.4523 -0.5362
 1184TIP3    H225188   0.132   5.547   2.336 -0.8477  0.4048 -0.1638
 1185TIP3   OH225189   0.810   3.452   0.213 -0.1748 -0.5774  0.1485
 1185TIP3    H125190   0.829   3.416   0.127 -2.7596  0.2243 -0.8521
 1185TIP3    H225191   0.758   3.531   0.195 -1.2756 -0.6966  2.4433
 1186TIP3   OH225192   3.597   4.075   1.289 -0.2565  0.7308 -0.1861
 1186TIP3    H125193   3.532   4.005   1.294  0.5789  0.0242  1.9801
 1186TIP3    H225194   3.588   4.109   1.200 -1.8637 -0.9847 -0.7607
 1187TIP3   OH225195   1.296   5.064   1.826  0.5095 -0.1597  0.2236
 1187TIP3    H125196   1.244   5.141   1.848  1.0909  0.3756 -0.2478
 1187TIP3    H225197   1.231   4.999   1.800 -0.1570 -0.5454  2.5791
 1188TIP3   OH225198   5.560   5.771   8.144  0.5586 -0.1949 -0.2540
 1188TIP3    H125199   5.581   5.849   8.196  1.4053  0.1123 -1.0312
 1188TIP3    H225200   5.621   5.704   8.175  0.6939 -0.1692 -0.4582
 1189TIP3   OH225201   2.646   3.251   1.584 -0.6941 -0.2595 -0.2760
 1189TIP3    H125202   2.567   3.299   1.607 -0.4470  0.5138 -0.9805
 1189TIP3    H225203   2.627   3.160   1.607 -1.3315  0.1015  0.6793
 1190TIP3   OH225204   5.434   0.629   1.764 -0.3992 -0.5386  0.1599
 1190TIP3    H125205   5.347   0.634   1.725 -0.4454 -3.1600 -0.2946
 1190TIP3    H225206   5.476   0.712   1.741 -2.5202  0.5082 -0.1759
 1191TIP3   OH225207   0.189   0.371   8.935 -0.0227 -0.7244  0.0401
 1191TIP3    H125208   0.131   0.445   8.917 -1.2887 -1.7476 -0.2575
 1191TIP3    H225209   0.144   0.321   9.004  2.3125  0.4153  2.6062
 1192TIP3   OH225210   3.382   0.254   1.537  0.5759  0.2042  0.2310
 1192TIP3    H125211   3.288   0.251   1.555  0.6784 -0.3243  0.6915
 1192TIP3    H225212   3.406   0.345   1.550  0.3851  0.0931  1.4686
 1193TIP3   OH225213   6.632   2.869   0.899  0.0526 -0.1463 -0.3394
 1193TIP3    H125214   6.618   2.783   0.939 -2.0281 -0.6792 -2.0807
 1193TIP3    H225215   6.701   2.855   0.835  0.4568 -0.2513  0.1117
 1194TIP3   OH225216   5.996   1.617   0.433 -0.0968 -0.1686 -0.1998
 1194TIP3    H125217   5.907   1.585   0.452 -0.8683  0.5093 -2.3942
 1194TIP3    H225218   6.032   1.552   0.372 -0.0679  0.8347 -1.2962
 1195TIP3   OH225219   5.382   1.309   0.041 -0.6614 -0.3784 -0.3530
 1195TIP3    H125220   5.475   1.324   0.022 -1.0415  0.1797 -1.9917
 1195TIP3    H225221   5.381   1.254   0.119  1.0893 -1.9395 -1.3620
 1196TIP3   OH225222   6.687   2.226   0.736 -0.3299  0.0218 -0.1815
 1196TIP3    H125223   6.641   2.237   0.653  0.9059  0.8035 -0.7973
 1196TIP3    H225224   6.751   2.298   0.737  0.2816 -0.5221  1.0260
 1197TIP3   OH225225   3.404   2.892   0.214  0.2782  0.2438 -0.3750
 1197TIP3    H125226   3.429   2.938   0.135  0.3399  1.5093  0.3541
 1197TIP3    H225227   3.309   2.889   0.212  0.3062 -0.6193 -0.9686
 1198TIP3   OH225228   2.032   5.386   2.153  0.5311  0.0685  0.2351
 1198TIP3    H125229   2.034   5.340   2.237  1.2107  0.2693  0.3365
 1198TIP3    H225230   2.120   5.375   2.117  0.1865 -0.1872 -0.5536
 1199TIP3   OH225231   0.675   5.453   6.744  0.2715  0.2304  0.0683
 1199TIP3    H125232   0.733   5.487   6.676  0.0152  0.5844  0.0258
 1199TIP3    H225233   0.589   5.488   6.722 -0.0041 -0.4580  0.0157
 1200TIP3   OH225234   6.321   6.762   2.055  0.5248 -0.0693  0.0756
 1200TIP3    H125235   6.349   6.840   2.103  4.7358 -0.9610 -0.5118
 1200TIP3    H225236   6.312   6.695   2.122 -0.7823  0.2992  0.3072
 1201TIP3   OH225237   4.816   3.337   7.602  0.0308  0.2995 -0.2578
 1201TIP3    H125238   4.836   3.414   7.549 -2.3355  0.4975 -1.0007
 1201TIP3    H225239   4.799   3.371   7.689 -0.9274  0.6659 -0.5667
 1202TIP3   OH225240   2.220   4.294   1.031  0.1743  0.0644 -0.3029
 1202TIP3    H125241   2.192   4.242   0.956  2.9343 -1.3476 -0.4686
 1202TIP3    H225242   2.210   4.385   1.002  0.6556 -0.4439 -2.1983
 1203TIP3   OH225243   5.242   6.539   0.072  0.4216 -0.5171  0.2398
 1203TIP3    H125244   5.300   6.603   0.113  0.3207  0.0913 -0.5533
 1203TIP3    H225245   5.173   6.524   0.137 -0.6360  1.6561 -0.2819
 1204TIP3   OH225246   5.774   2.487   1.013  0.0869  0.0517  0.3418
 1204TIP3    H125247   5.834   2.463   1.085 -0.7753 -1.0841  0.7161
 1204TIP3    H225248   5.708   2.543   1.054 -1.9068 -2.6567  1.1344
 1205TIP3   OH225249   6.404   0.420   7.135  0.0354 -0.3733  0.2042
 1205TIP3    H125250   6.441   0.342   7.094 -1.5636 -1.9621  1.6768
 1205TIP3    H225251   6.349   0.459   7.067 -1.5654 -2.2587  0.3556
 1206TIP3   OH225252   4.280   1.731   2.392  0.0341  0.2263  0.0797
 1206TIP3    H125253   4.367   1.723   2.431  0.5146 -0.1798 -1.0255
 1206TIP3    H225254   4.219   1.717   2.465  0.8439  2.9346  1.3940
 1207TIP3   OH225255   3.014   4.416   7.154  0.2222  0.5555 -0.5091
 1207TIP3    H125256   2.930   4.372   7.163  0.2696  0.6085  0.2495
 1207TIP3    H225257   3.063   4.390   7.232  0.6753  1.0302 -0.6282
 1208TIP3   OH225258   5.058   3.924   7.818 -0.0858  0.2731 -0.4042
 1208TIP3    H125259   5.038   3.972   7.738  3.5709  2.1082 -0.4309
 1208TIP3    H225260   4.993   3.954   7.881  1.0927  4.3524 -0.8491
 1209TIP3   OH225261   1.776   3.345   1.945 -0.5405 -0.2449 -0.5062
 1209TIP3    H125262   1.821   3.326   2.028 -0.9501  1.3404  0.1097
 1209TIP3    H225263   1.744   3.434   1.955 -1.6993 -0.4757 -1.9049
 1210TIP3   OH225264   0.207   4.519   1.797  0.2420  0.5778  0.6483
 1210TIP3    H125265   0.167   4.511   1.884  0.3319  3.0586  0.9984
 1210TIP3    H225266   0.212   4.614   1.782  2.0423  0.2602 -1.2128
 1211TIP3   OH225267   3.710   2.689   8.085 -0.3385 -0.1310 -0.4784
 1211TIP3    H125268   3.732   2.674   7.993 -0.1358  0.5909 -0.5523
 1211TIP3    H225269   3.784   2.739   8.120 -0.7188  0.1725 -0.0981
 1212TIP3   OH225270   3.957   2.488   6.397  0.2260  0.3728 -0.0877
 1212TIP3    H125271   4.035   2.539   6.417  0.5086 -0.0283 -0.1619
 1212TIP3    H225272   3.901   2.548   6.347  0.4961  0.6503 -0.0549
 1213TIP3   OH225273   2.793   0.682   0.358 -0.1000 -0.2948  0.1695
 1213TIP3    H125274   2.701   0.700   0.375  0.0480 -1.0268  2.0223
 1213TIP3    H225275   2.838   0.712   0.436  0.9352 -2.0745  0.3179
 1214TIP3   OH225276   0.053   3.552   1.557  0.3889 -0.2901  0.8079
 1214TIP3    H125277   0.115   3.482   1.536 -0.3330 -1.2286  1.7543
 1214TIP3    H225278   0.049   3.554   1.652 -2.0029 -1.1532  0.8030
 1215TIP3   OH225279   0.147   1.718   7.625 -0.0590 -0.2311 -0.1464
 1215TIP3    H125280   0.114   1.779   7.559  0.0310 -0.7338 -0.6636
 1215TIP3    H225281   0.207   1.661   7.577 -0.9157 -1.3865  0.0885
 1216TIP3   OH225282   6.092   2.148   7.753 -0.4933 -0.8381  0.0964
 1216TIP3    H125283   6.044   2.108   7.681 -0.9452  0.2517 -0.2280
 1216TIP3    H225284   6.083   2.085   7.825 -1.1589 -1.3294 -0.4013
 1217TIP3   OH225285   1.420   1.492   2.515 -0.2443  0.2441  0.0215
 1217TIP3    H125286   1.327   1.513   2.510 -0.2672  0.1179 -0.0956
 1217TIP3    H225287   1.457   1.529   2.435  0.3360  2.8867  1.3853
 1218TIP3   OH225288   4.562   1.309   1.235  0.2570  0.3116 -0.6028
 1218TIP3    H125289   4.613   1.390   1.238 -0.0950  0.5998 -1.9692
 1218TIP3    H225290   4.506   1.312   1.313  0.5921  1.1368 -0.3906
 1219TIP3   OH225291   2.111   5.422   7.886  0.2443  0.0533  0.5615
 1219TIP3    H125292   2.192   5.373   7.888  0.4077  0.3306  1.0008
 1219TIP3    H225293   2.049   5.366   7.840  0.6576 -0.1983  0.3107
 1220TIP3   OH225294   2.974   1.399   2.268 -0.3196  0.5316 -0.1519
 1220TIP3    H125295   2.979   1.493   2.252  0.1145  0.3459 -1.1977
 1220TIP3    H225296   2.883   1.376   2.248 -0.4059  0.7252  0.0287
 1221TIP3   OH225297   1.658   6.507   8.116 -0.0280  0.5240  0.3905
 1221TIP3    H125298   1.587   6.540   8.171 -1.6058 -2.4722  0.3676
 1221TIP3    H225299   1.626   6.517   8.026  1.4224  2.9383  0.0506
 1222TIP3   OH225300   4.059   2.402   8.347 -0.6724  0.2195 -0.0312
 1222TIP3    H125301   3.963   2.403   8.352 -0.7894  2.4277 -1.3506
 1222TIP3    H225302   4.078   2.420   8.255  1.0242 -0.0616  0.2453
 1223TIP3   OH225303   2.690   3.014   7.271  0.3569  0.1105  0.5445
 1223TIP3    H125304   2.683   2.919   7.279  1.1138  0.1436  1.7880
 1223TIP3    H225305   2.694   3.030   7.177  2.7019 -1.2954  0.3364
 1224TIP3   OH225306   0.456   5.683   7.861  0.2062 -0.2125  0.2312
 1224TIP3    H125307   0.430   5.756   7.805 -1.4523 -0.9097  0.0234
 1224TIP3    H225308   0.535   5.649   7.821 -0.1257  0.2281 -0.8445
 1225TIP3   OH225309   5.632   0.155   0.715 -0.3661 -0.1247  0.6293
 1225TIP3    H125310   5.727   0.157   0.701 -0.5129  0.7275 -0.3949
 1225TIP3    H225311   5.597   0.122   0.632 -1.1435  2.7096 -0.2953
 1226TIP3   OH225312   3.442   5.275   7.601  0.5073 -0.2279 -0.3000
 1226TIP3    H125313   3.523   5.309   7.640  0.1115  1.5364 -0.8966
 1226TIP3    H225314   3.404   5.350   7.555 -1.7217 -0.8610  0.3475
 1227TIP3   OH225315   5.122   5.891   0.369  0.1830  0.0466  0.9027
 1227TIP3    H125316   5.092   5.824   0.309 -2.4208 -0.9273  3.0539
 1227TIP3    H225317   5.217   5.879   0.375  0.1888 -1.2670 -1.2088
 1228TIP3   OH225318   1.793   1.267   0.828  0.3092 -0.5193  0.0763
 1228TIP3    H125319   1.838   1.222   0.757  0.0806  0.1240 -0.4887
 1228TIP3    H225320   1.735   1.330   0.783  1.7445  1.4358  0.8465
 1229TIP3   OH225321   0.641   4.181   1.986  0.4300  0.0020  0.0615
 1229TIP3    H125322   0.604   4.097   1.959  0.2105  0.1896 -0.2295
 1229TIP3    H225323   0.568   4.226   2.029  0.3428  0.3329 -0.4280
 1230TIP3   OH225324   0.305   0.645   0.877  0.2052  0.0932  0.2436
 1230TIP3    H125325   0.288   0.664   0.785  1.7847  0.0030 -0.0957
 1230TIP3    H225326   0.241   0.577   0.899  0.8997 -1.1168 -1.2865
 1231TIP3   OH225327   3.075   5.276   0.343 -0.0783 -0.8109 -0.1103
 1231TIP3    H125328   3.088   5.187   0.377 -3.9102 -0.8482  1.8354
 1231TIP3    H225329   3.070   5.331   0.420 -1.1579  0.4733 -1.0438
 1232TIP3   OH225330   4.014   2.795   6.666  0.0789 -0.2094  0.2736
 1232TIP3    H125331   3.997   2.727   6.732 -0.0113 -0.4614 -0.0082
 1232TIP3    H225332   4.064   2.750   6.598 -1.1616 -0.3567 -0.5853
 1233TIP3   OH225333   0.167   3.118   1.094  0.5685  0.0780 -0.2488
 1233TIP3    H125334   0.227   3.173   1.146  1.7878  0.2901 -1.8284
 1233TIP3    H225335   0.095   3.177   1.073 -0.3313 -0.2072  1.7593
 1234TIP3   OH225336   3.774   4.639   1.476  0.1112 -0.2669  0.0827
 1234TIP3    H125337   3.763   4.646   1.381 -2.0504  0.1117  0.3182
 1234TIP3    H225338   3.761   4.727   1.509 -1.4299 -0.7653  0.8965
 1235TIP3   OH225339   4.576   5.594   7.322 -0.6101 -0.1597 -0.3911
 1235TIP3    H125340   4.521   5.522   7.354  2.6894 -2.9054 -0.2915
 1235TIP3    H225341   4.577   5.657   7.393 -0.5527 -1.8904  1.2081
 1236TIP3   OH225342   0.201   5.808   2.157 -0.5973 -0.2400  0.5172
 1236TIP3    H125343   0.109   5.831   2.165 -0.5089  0.1971  0.3144
 1236TIP3    H225344   0.202   5.724   2.112 -0.9155 -0.5334  1.0438
 1237TIP3   OH225345   1.270   5.866   2.530 -0.3644 -0.0620 -0.2256
 1237TIP3    H125346   1.359   5.839   2.551 -0.0634  0.5551 -0.6578
 1237TIP3    H225347   1.272   5.962   2.539 -1.5144 -0.1667  1.7632
 1238TIP3   OH225348   1.138   6.098   7.976  0.1279 -0.0967  0.3568
 1238TIP3    H125349   1.165   6.055   7.894 -0.6819  1.1079 -0.5655
 1238TIP3    H225350   1.218   6.139   8.009  0.3857 -0.2959 -0.0131
 1239TIP3   OH225351   3.951   5.126   0.347  0.2472  0.3292  0.2872
 1239TIP3    H125352   4.010   5.097   0.278 -0.1885  0.3017 -0.0787
 1239TIP3    H225353   3.864   5.117   0.309 -0.0210 -0.0285  0.9683
 1240TIP3   OH225354   1.361   2.850   7.538  0.0394  0.6279 -0.4778
 1240TIP3    H125355   1.333   2.763   7.567  2.4842  0.0469  0.4306
 1240TIP3    H225356   1.388   2.836   7.447  0.1213  0.5041 -0.4356
 1241TIP3   OH225357   3.968   2.736   7.419  0.6326 -0.1978  0.0382
 1241TIP3    H125358   4.018   2.655   7.412 -0.2951 -0.6903 -1.4627
 1241TIP3    H225359   3.896   2.725   7.357 -1.0872  0.6651  1.7755
 1242TIP3   OH225360   2.342   0.173   7.882 -0.2384 -0.5626  0.3685
 1242TIP3    H125361   2.349   0.083   7.914 -2.3093 -0.2177  2.0422
 1242TIP3    H225362   2.261   0.175   7.832 -0.4634  0.4558  0.7408
 1243TIP3   OH225363   4.638   4.506   1.826 -0.0684  0.2267 -0.0917
 1243TIP3    H125364   4.608   4.596   1.836  0.1956  0.1708  1.4010
 1243TIP3    H225365   4.564   4.461   1.786 -0.1574  1.1168 -0.9794
 1244TIP3   OH225366   2.557   1.745   2.147 -0.2312 -0.3377  0.4980
 1244TIP3    H125367   2.567   1.694   2.227 -0.9661 -1.6781 -0.2350
 1244TIP3    H225368   2.486   1.807   2.166  1.9161  1.8665  2.0508
 1245TIP3   OH225369   4.644   0.620   8.123  0.3108  0.0712  0.1598
 1245TIP3    H125370   4.705   0.597   8.054  0.1352 -2.2281  0.6864
 1245TIP3    H225371   4.673   0.570   8.199 -1.9188 -0.7480  0.5483
 1246TIP3   OH225372   0.011   2.199   1.918  0.2197  0.3391  0.7169
 1246TIP3    H125373  -0.016   2.195   2.009 -2.0228  1.5139  0.1878
 1246TIP3    H225374  -0.057   2.151   1.871  0.2068  1.5101 -0.5164
 1247TIP3   OH225375   5.717   1.788   7.479  0.2471 -0.5623  0.5097
 1247TIP3    H125376   5.744   1.854   7.415  1.1073  1.3809  2.7707
 1247TIP3    H225377   5.630   1.817   7.508  0.3590 -0.7796  1.0672
 1248TIP3   OH225378   4.762   5.021   0.588 -0.3995  0.3290  0.0353
 1248TIP3    H125379   4.744   5.107   0.550 -1.0141  0.7354  1.2126
 1248TIP3    H225380   4.856   5.007   0.571 -0.1192  1.5586  0.4564
 1249TIP3   OH225381   0.989   4.306   0.748  0.4018  0.1432 -0.2470
 1249TIP3    H125382   1.000   4.291   0.843  2.9057 -0.3984 -0.5335
 1249TIP3    H225383   0.993   4.401   0.738 -0.2943  0.2267  0.2213
 1250TIP3   OH225384   2.386   6.069   8.574  0.1461 -0.0782  0.1353
 1250TIP3    H125385   2.422   5.982   8.592  2.7478  0.5714 -1.4241
 1250TIP3    H225386   2.415   6.122   8.648 -0.6899 -0.3357  0.6519
 1251TIP3   OH225387   4.395   1.518   0.148 -0.3434 -0.3454  0.4253
 1251TIP3    H125388   4.446   1.565   0.214  0.3300  0.5204 -0.6693
 1251TIP3    H225389   4.366   1.586   0.087 -0.5619 -1.1752 -0.4195
 1252TIP3   OH225390   1.539   5.755   2.718 -0.1316 -0.8269  0.2919
 1252TIP3    H125391   1.544   5.770   2.813  2.1720 -0.8760  0.2285
 1252TIP3    H225392   1.507   5.665   2.711  0.6106 -1.1671  1.0579
 1253TIP3   OH225393   3.279   4.104   0.461 -0.0561 -0.1850  0.2729
 1253TIP3    H125394   3.184   4.112   0.467 -0.0085 -0.0662  0.8654
 1253TIP3    H225395   3.293   4.022   0.413 -0.4534 -0.1630  0.1124
 1254TIP3   OH225396   0.070   4.035   8.161  0.4212 -0.7170 -0.6017
 1254TIP3    H125397   0.095   4.126   8.146  0.8842 -0.6445  0.5161
 1254TIP3    H225398   0.150   3.985   8.146  0.2912 -0.8878 -0.7238
 1255TIP3   OH225399   2.001   3.181   8.710 -0.2593  0.3741 -0.6037
 1255TIP3    H125400   1.922   3.128   8.714 -0.8888  1.1057 -2.2566
 1255TIP3    H225401   2.015   3.211   8.799 -2.3368  0.9186 -0.4175
 1256TIP3   OH225402   5.532   3.780   2.419 -0.3528 -0.2331  0.5889
 1256TIP3    H125403   5.490   3.723   2.355 -0.0153 -0.8906  0.9414
 1256TIP3    H225404   5.620   3.795   2.385 -0.6121  0.5190  0.2323
 1257TIP3   OH225405   3.664   1.309   8.451  0.4539  0.0874 -0.0516
 1257TIP3    H125406   3.711   1.227   8.469  1.3005  0.4101 -0.7815
 1257TIP3    H225407   3.732   1.375   8.443 -0.0838  0.5088 -1.4301
 1258TIP3   OH225408   3.123   4.109   1.603  0.7099 -0.9677  0.1520
 1258TIP3    H125409   3.186   4.089   1.534 -0.1320 -1.4321 -0.4943
 1258TIP3    H225410   3.089   4.195   1.579  0.5497 -1.0492  0.0863
 1259TIP3   OH225411   0.094   2.727   1.484 -0.5237  0.4863  0.0776
 1259TIP3    H125412   0.013   2.778   1.472 -1.0761 -0.6147 -1.2753
 1259TIP3    H225413   0.130   2.720   1.396  0.0987 -0.5512  0.4040
 1260TIP3   OH225414   4.132   6.143   8.587 -0.7812 -0.0354  0.4683
 1260TIP3    H125415   4.181   6.075   8.634  1.3217  0.3095 -1.1024
 1260TIP3    H225416   4.138   6.119   8.495 -0.2382  2.0685 -0.1105
 1261TIP3   OH225417   2.342   3.006   7.283 -0.0387 -0.3612 -0.0209
 1261TIP3    H125418   2.383   2.956   7.213  0.8270 -0.5827  0.6302
 1261TIP3    H225419   2.307   3.084   7.240 -0.9610 -1.2681 -0.9592
 1262TIP3   OH225420   3.776   3.416   0.256  0.3282  0.4002  0.6507
 1262TIP3    H125421   3.692   3.413   0.211  0.5828 -1.4597  0.2489
 1262TIP3    H225422   3.827   3.481   0.207  0.5034 -1.3635 -1.6593
 1263TIP3   OH225423   2.810   1.176   0.092 -0.2259  0.0996  0.0194
 1263TIP3    H125424   2.893   1.163   0.137 -0.4123 -0.9709  0.0777
 1263TIP3    H225425   2.752   1.110   0.129 -0.9192  0.4248 -0.4735
 1264TIP3   OH225426   2.179   6.323   8.862  0.1210 -0.0912 -0.3313
 1264TIP3    H125427   2.111   6.391   8.863  2.1117  2.0050  0.5120
 1264TIP3    H225428   2.239   6.350   8.792  0.9971 -0.9300  0.0759
 1265TIP3   OH225429   3.148   3.070   2.224  0.3741 -0.0382 -0.2240
 1265TIP3    H125430   3.192   3.017   2.158  1.1019  1.0891 -0.6877
 1265TIP3    H225431   3.122   3.150   2.177 -1.0770 -0.1428  0.3457
 1266TIP3   OH225432   5.328   1.932   7.705  0.1073 -0.3694 -0.1032
 1266TIP3    H125433   5.327   1.842   7.739 -0.6626  0.0873  1.1334
 1266TIP3    H225434   5.296   1.985   7.777  0.2796  0.8829 -0.9228
 1267TIP3   OH225435   1.303   5.868   7.520 -0.0558  0.1776 -0.2740
 1267TIP3    H125436   1.386   5.910   7.497 -0.2598  0.6186 -0.2256
 1267TIP3    H225437   1.244   5.892   7.449 -1.0584  2.6209  1.2439
 1268TIP3   OH225438   6.521   4.719   8.998 -0.0467  0.0316  0.2249
 1268TIP3    H125439   6.588   4.651   9.003 -1.1570 -1.1278 -0.2546
 1268TIP3    H225440   6.554   4.789   9.055  1.0280 -0.9795  0.8863
 1269TIP3   OH225441   4.997   1.593   1.230  0.1086 -0.1792  0.0779
 1269TIP3    H125442   4.997   1.670   1.287 -1.2871 -1.3417  1.7446
 1269TIP3    H225443   5.047   1.527   1.278 -0.3908 -0.9304 -0.4170
 1270TIP3   OH225444   3.408   0.657   8.990 -0.2811 -0.4051  0.1059
 1270TIP3    H125445   3.369   0.742   8.968  1.3186  0.0654 -1.1325
 1270TIP3    H225446   3.435   0.666   9.081  2.1670  1.4413 -0.6881
 1271TIP3   OH225447   2.785   5.335   7.933  0.3313 -0.7336  0.3603
 1271TIP3    H125448   2.754   5.331   7.842  2.5004 -0.8074 -0.4463
 1271TIP3    H225449   2.811   5.426   7.945 -0.8590 -0.4903  1.2787
 1272TIP3   OH225450   2.152   1.032   7.999  0.0833 -0.3208 -0.0412
 1272TIP3    H125451   2.148   1.022   7.904  2.4620  0.9491 -0.3592
 1272TIP3    H225452   2.214   0.964   8.027  2.4627  1.7193  0.0100
 1273TIP3   OH225453   1.432   1.921   8.703 -0.3598  0.3064 -0.2496
 1273TIP3    H125454   1.448   1.826   8.699  0.7679  0.4698  0.1989
 1273TIP3    H225455   1.461   1.954   8.619 -1.8307  0.1232 -0.8645
 1274TIP3   OH225456   1.988   1.483   7.397  0.0028 -0.6214 -0.5869
 1274TIP3    H125457   1.976   1.520   7.310  1.6739  2.2208  0.2390
 1274TIP3    H225458   2.082   1.462   7.401  0.2077  0.4091  0.8584
 1275TIP3   OH225459   1.301   2.210   7.874 -0.3264 -0.3298 -0.3091
 1275TIP3    H125460   1.329   2.292   7.915 -0.3085  0.4389 -1.7967
 1275TIP3    H225461   1.369   2.147   7.897  1.7135  1.0285 -2.2883
 1276TIP3   OH225462   2.034   3.917   2.392 -0.0140 -0.0510 -1.1000
 1276TIP3    H125463   2.041   3.835   2.440  2.5288 -1.1058 -3.0315
 1276TIP3    H225464   2.047   3.985   2.458 -0.9971 -1.1999  0.3444
 1277TIP3   OH225465   6.438   3.576   0.740  0.0769 -0.3411 -0.7693
 1277TIP3    H125466   6.455   3.670   0.744 -0.2794 -0.2744 -0.7748
 1277TIP3    H225467   6.458   3.544   0.828 -0.6947 -0.1031 -0.5031
 1278TIP3   OH225468   1.554   3.779   7.606  0.2911 -0.4417 -0.2850
 1278TIP3    H125469   1.568   3.689   7.576 -1.8414 -0.4637 -1.3448
 1278TIP3    H225470   1.472   3.776   7.654 -0.0472  1.0234 -0.7347
 1279TIP3   OH225471   1.569   5.108   7.698  0.6031 -0.2380 -0.1342
 1279TIP3    H125472   1.540   5.199   7.686  1.3914  0.1803  1.0096
 1279TIP3    H225473   1.488   5.058   7.707  0.1496  0.2896 -1.0882
 1280TIP3   OH225474   5.420   4.584   1.861  0.6093 -0.0764  0.1085
 1280TIP3    H125475   5.408   4.613   1.771  1.0642  1.3829  0.4944
 1280TIP3    H225476   5.366   4.505   1.868 -0.7348  0.7048 -0.9695
 1281TIP3   OH225477   5.596   6.655   2.037 -0.1330 -0.0948  0.2212
 1281TIP3    H125478   5.641   6.729   2.078 -1.0322 -0.2906  1.6159
 1281TIP3    H225479   5.663   6.586   2.032  0.9386  1.0069 -1.8063
 1282TIP3   OH225480   6.651   4.980   1.557  0.3291 -0.1623 -0.1475
 1282TIP3    H125481   6.568   5.013   1.592 -0.6641 -2.3146 -0.2596
 1282TIP3    H225482   6.631   4.960   1.465  1.1483 -0.1558 -0.3312
 1283TIP3   OH225483   1.705   4.773   8.508 -0.1231 -0.0572 -0.0576
 1283TIP3    H125484   1.713   4.814   8.595 -0.5674  0.3520 -0.2041
 1283TIP3    H225485   1.763   4.697   8.512 -1.9906 -1.5143  1.4884
 1284TIP3   OH225486   1.783   2.450   1.529  0.1169 -0.1523  0.1650
 1284TIP3    H125487   1.762   2.381   1.592 -0.1086 -0.7096 -0.4949
 1284TIP3    H225488   1.741   2.528   1.564  0.9623 -0.1827  1.2835
 1285TIP3   OH225489   5.094   2.792   0.051  0.1612 -0.3170  0.2919
 1285TIP3    H125490   5.018   2.793  -0.007  0.9663  0.9443 -0.7928
 1285TIP3    H225491   5.145   2.716   0.023 -0.8687 -1.4041  1.2902
 1286TIP3   OH225492   2.400   4.072   8.334 -0.1929 -0.1100 -0.5418
 1286TIP3    H125493   2.393   4.164   8.312  1.5817  0.4176  0.8254
 1286TIP3    H225494   2.372   4.025   8.255  1.4591  1.5994 -2.2244
 1287TIP3   OH225495   1.862   1.807   2.125  0.1570  0.3763 -0.2795
 1287TIP3    H125496   1.835   1.813   2.034  2.1207 -1.3831 -1.0482
 1287TIP3    H225497   1.838   1.892   2.162 -0.3736  1.2695 -2.5018
 1288TIP3   OH225498   4.991   0.820   2.302 -0.0371  0.2158  0.3531
 1288TIP3    H125499   5.032   0.847   2.385  1.2682 -0.0246 -0.1958
 1288TIP3    H225500   5.059   0.772   2.256 -0.6548  0.6004 -1.0031
 1289TIP3   OH225501   5.651   0.442   2.264 -0.2842 -0.2392 -0.5773
 1289TIP3    H125502   5.636   0.371   2.327  1.6577 -2.3080 -2.2830
 1289TIP3    H225503   5.564   0.468   2.236 -1.0561 -2.0704 -0.0044
 1290TIP3   OH225504   4.155   0.328   2.712 -0.6773  0.0556 -0.4946
 1290TIP3    H125505   4.218   0.262   2.683 -1.3831 -0.7722 -0.1847
 1290TIP3    H225506   4.135   0.378   2.634  1.5523  1.3820 -0.2978
 1291TIP3   OH225507   0.598   3.146   7.667  0.0944  0.4407 -0.0285
 1291TIP3    H125508   0.637   3.064   7.637 -0.5311  0.2053 -0.2201
 1291TIP3    H225509   0.549   3.121   7.745  0.3872  0.7451  0.2512
 1292TIP3   OH225510   3.725   5.987   6.593  0.0297 -0.4204  0.2296
 1292TIP3    H125511   3.735   6.039   6.513  1.0108  1.8778  1.7342
 1292TIP3    H225512   3.812   5.987   6.632  0.0086 -3.0964  0.4368
 1293TIP3   OH225513   0.272   2.310   7.070  0.8842 -0.0997  0.1582
 1293TIP3    H125514   0.202   2.245   7.060 -1.4649  2.3528 -0.4204
 1293TIP3    H225515   0.284   2.346   6.982 -1.3444  3.5071  1.1483
 1294TIP3   OH225516   3.495   1.457   1.487  0.1111  0.1763 -0.3389
 1294TIP3    H125517   3.582   1.461   1.447  0.4917 -2.5434  0.0393
 1294TIP3    H225518   3.435   1.454   1.414  0.5322 -0.5611 -0.6680
 1295TIP3   OH225519   2.987   6.496   7.942 -0.1658  0.0881 -0.1425
 1295TIP3    H125520   3.014   6.573   7.992 -3.8341  1.5417 -0.1445
 1295TIP3    H225521   2.961   6.432   8.009 -0.1905  0.0658 -0.1735
 1296TIP3   OH225522   3.970   3.577   1.696 -0.3682 -0.3207 -0.4171
 1296TIP3    H125523   4.062   3.552   1.702 -0.4405 -0.7141 -0.8844
 1296TIP3    H225524   3.924   3.514   1.751  0.1035  2.8486  4.1027
 1297TIP3   OH225525   5.879   3.235   7.648  0.0846 -0.0563 -0.4692
 1297TIP3    H125526   5.875   3.219   7.554  0.5333 -1.6212 -0.2528
 1297TIP3    H225527   5.947   3.301   7.659 -0.9290  1.1776 -1.3292
 1298TIP3   OH225528   1.727   6.768   7.920 -0.3519  0.0659 -0.0132
 1298TIP3    H125529   1.678   6.697   7.878  1.1983 -0.5942 -0.7718
 1298TIP3    H225530   1.756   6.731   8.004  1.1366 -0.5040 -0.7580
 1299TIP3   OH225531   0.220   0.773   1.851 -0.5343  0.0456 -0.5564
 1299TIP3    H125532   0.265   0.690   1.865  0.2737  0.6235  0.3613
 1299TIP3    H225533   0.230   0.790   1.757 -0.7456 -0.9027 -0.7598
 1300TIP3   OH225534   1.046   4.438   7.476  0.2926  0.2373  0.4719
 1300TIP3    H125535   1.099   4.447   7.555 -0.9171 -0.5509  1.3981
 1300TIP3    H225536   0.990   4.362   7.492 -1.1289  1.0357 -0.4656
 1301TIP3   OH225537   3.052   1.914   0.478  0.3825 -0.6900  0.3421
 1301TIP3    H125538   3.110   1.874   0.543  1.2190  0.4194  0.3032
 1301TIP3    H225539   3.110   1.969   0.425 -0.6245  0.0458 -0.0221
 1302TIP3   OH225540   4.737   0.681   2.313  0.2981 -0.2721 -0.8518
 1302TIP3    H125541   4.752   0.705   2.221  1.7415  0.2892 -0.5049
 1302TIP3    H225542   4.825   0.668   2.349 -0.2030  0.1565  0.6137
 1303TIP3   OH225543   3.993   4.545   0.488 -0.0167  0.8244  0.2138
 1303TIP3    H125544   4.083   4.553   0.458  0.0091 -1.1512 -0.4140
 1303TIP3    H225545   3.974   4.451   0.482 -1.2355  0.8134  2.9087
 1304TIP3   OH225546   4.394   4.843   8.937 -0.7328  0.3010  0.0337
 1304TIP3    H125547   4.345   4.920   8.909  2.5846  2.1862 -1.0958
 1304TIP3    H225548   4.381   4.779   8.866 -1.4598  0.7737 -0.2699
 1305TIP3   OH225549   0.390   6.732   1.594  0.4597 -0.4470 -0.4142
 1305TIP3    H125550   0.318   6.795   1.601  0.9759  0.1216 -0.0412
 1305TIP3    H225551   0.394   6.710   1.501 -0.6604 -1.0569 -0.3305
 1306TIP3   OH225552   2.877   0.797   0.126  0.0357 -0.0969  0.0858
 1306TIP3    H125553   2.847   0.745   0.201  1.0255  0.6571  1.0513
 1306TIP3    H225554   2.971   0.778   0.120  0.3944  1.4754  0.4052
 1307TIP3   OH225555   3.604   6.397   1.254 -0.0354 -0.2268  0.1803
 1307TIP3    H125556   3.554   6.432   1.327 -1.9133  3.8685 -2.6846
 1307TIP3    H225557   3.541   6.346   1.204  0.2887 -0.1060 -0.3598
 1308TIP3   OH225558   5.426   3.442   0.538 -0.4440 -0.2448  0.2698
 1308TIP3    H125559   5.358   3.436   0.606 -2.2055  1.3385 -1.2211
 1308TIP3    H225560   5.383   3.411   0.459  1.2047 -0.9846 -0.3683
 1309TIP3   OH225561   3.611   3.577   8.824  0.7181  0.4240  0.3788
 1309TIP3    H125562   3.552   3.649   8.847 -0.1034 -0.1480  0.0888
 1309TIP3    H225563   3.673   3.616   8.762 -1.6088  0.2006 -2.2635
 1310TIP3   OH225564   4.312   4.596   8.733  0.2385 -0.1163  0.6258
 1310TIP3    H125565   4.254   4.520   8.737 -0.1472  0.0281 -1.3286
 1310TIP3    H225566   4.353   4.600   8.820 -2.2115 -0.5579  1.8752
 1311TIP3   OH225567   5.061   5.602   7.039 -0.2059 -0.4072  0.2855
 1311TIP3    H125568   5.057   5.642   6.952 -0.1599 -1.1737 -0.0819
 1311TIP3    H225569   4.972   5.574   7.057  0.0749 -1.7367 -0.2523
 1312TIP3   OH225570   3.064   4.313   8.488  0.4757 -0.7449 -0.1676
 1312TIP3    H125571   3.139   4.275   8.442  0.8871  0.9378 -0.9310
 1312TIP3    H225572   3.029   4.378   8.428  1.3662  1.9400  2.0068
 1313TIP3   OH225573   1.920   3.832   6.884  0.7145 -0.1332  0.1758
 1313TIP3    H125574   1.872   3.774   6.825  0.1243 -1.0699  1.5211
 1313TIP3    H225575   1.894   3.804   6.971  2.4570  0.4398  0.9228
 1314TIP3   OH225576   6.216   3.880   1.729 -0.3701  0.4761  0.1100
 1314TIP3    H125577   6.293   3.871   1.784 -1.3485 -0.0948  1.4460
 1314TIP3    H225578   6.235   3.955   1.672  1.3694  0.0110  0.0162
 1315TIP3   OH225579   2.761   5.003   8.333 -0.0244 -0.6572  0.0759
 1315TIP3    H125580   2.726   5.063   8.267 -1.0064 -2.0075 -0.6908
 1315TIP3    H225581   2.698   5.006   8.404  0.1557 -0.4485  0.2266
 1316TIP3   OH225582   4.555   5.573   0.255 -0.6592 -0.4083  0.1765
 1316TIP3    H125583   4.512   5.489   0.242  0.2905 -0.9401  0.3493
 1316TIP3    H225584   4.623   5.576   0.187 -1.5313  0.8168 -0.6885
 1317TIP3   OH225585   5.047   2.862   7.804  0.0014 -0.2788  0.4642
 1317TIP3    H125586   5.019   2.783   7.849  0.3367 -0.4648  0.3472
 1317TIP3    H225587   5.047   2.838   7.711  1.4941 -0.5865  0.5194
 1318TIP3   OH225588   4.092   6.471   8.450 -0.1158  0.1208 -0.2971
 1318TIP3    H125589   4.091   6.423   8.367  0.1984  0.6462 -0.6136
 1318TIP3    H225590   4.184   6.472   8.476  0.0504  1.5046 -0.8719
 1319TIP3   OH225591   0.536   6.654   0.425 -0.3755  0.5135 -0.2954
 1319TIP3    H125592   0.503   6.744   0.437 -0.6191  0.4951 -0.7897
 1319TIP3    H225593   0.486   6.603   0.488  0.3938  0.8602  0.6116
 1320TIP3   OH225594   6.320   5.915   7.574 -0.4781  0.5951  0.1570
 1320TIP3    H125595   6.281   5.840   7.620 -0.0383  0.3986  0.2102
 1320TIP3    H225596   6.407   5.885   7.548 -0.0481  1.2970  0.7461
 1321TIP3   OH225597   5.037   0.996   0.159  0.8301  0.4840  0.2554
 1321TIP3    H125598   5.069   0.998   0.069  1.0285 -1.7165  0.2343
 1321TIP3    H225599   5.095   1.056   0.206  1.8493  0.3244 -0.7537
 1322TIP3   OH225600   2.539   6.567   8.907  0.4855  0.0548 -0.3804
 1322TIP3    H125601   2.634   6.575   8.913  0.8255 -1.7296 -2.2286
 1322TIP3    H225602   2.518   6.593   8.817 -0.8867  1.0431  0.1857
 1323TIP3   OH225603   4.739   5.640   7.622 -0.0526 -0.1631  0.2684
 1323TIP3    H125604   4.655   5.641   7.668 -1.6470  2.1236 -2.3230
 1323TIP3    H225605   4.805   5.650   7.690 -2.0969  0.8503  2.1979
 1324TIP3   OH225606   0.046   4.338   1.697  0.1301  0.2441 -0.2569
 1324TIP3    H125607   0.109   4.402   1.730  0.6727 -0.7759  0.7241
 1324TIP3    H225608  -0.038   4.367   1.733  0.4618  0.0891  0.6729
 1325TIP3   OH225609   3.045   5.285   7.743  0.3757 -0.2736 -0.6996
 1325TIP3    H125610   2.974   5.348   7.759 -0.0733 -1.1443  1.0280
 1325TIP3    H225611   3.011   5.229   7.674  0.9009  1.4883 -2.4917
 1326TIP3   OH225612   6.731   2.082   8.833  0.2073  0.1315 -0.1670
 1326TIP3    H125613   6.722   2.154   8.770 -0.7604  1.2378  1.1744
 1326TIP3    H225614   6.759   2.008   8.780 -0.7978  0.9508 -1.9539
 1327TIP3   OH225615   6.082   1.554   8.902 -0.7071  0.6045  0.1877
 1327TIP3    H125616   6.056   1.567   8.993  2.3027 -0.4502  1.3451
 1327TIP3    H225617   6.011   1.503   8.863 -1.6757  0.3472  2.1938
 1328TIP3   OH225618   0.947   6.115   6.779  0.5130  0.0805 -0.0258
 1328TIP3    H125619   0.969   6.022   6.786  3.2467  0.6255 -0.1828
 1328TIP3    H225620   0.966   6.138   6.688 -2.0846  0.4257 -0.5566
 1329TIP3   OH225621   1.567   4.665   6.839 -0.3037  0.8222 -0.2921
 1329TIP3    H125622   1.478   4.630   6.830  0.2642 -0.8170  0.2380
 1329TIP3    H225623   1.559   4.733   6.906 -1.0006  0.1195  0.3416
 1330TIP3   OH225624   4.291   2.969   1.697 -0.1806 -0.7190  0.5691
 1330TIP3    H125625   4.222   2.915   1.659  0.9156 -1.6937 -0.1062
 1330TIP3    H225626   4.322   3.024   1.625  0.6391 -1.2434  0.5070
 1331TIP3   OH225627   6.458   4.810   8.742 -0.3390  0.3693  0.1160
 1331TIP3    H125628   6.463   4.789   8.835  1.3573 -0.8848 -0.1969
 1331TIP3    H225629   6.524   4.877   8.729  0.3514 -0.3858 -0.3792
 1332TIP3   OH225630   5.414   5.996   0.825 -0.1610 -0.3082  0.3897
 1332TIP3    H125631   5.452   6.042   0.900  0.4423 -2.5515  1.5443
 1332TIP3    H225632   5.320   5.990   0.845 -0.1851  0.0933  0.3988
 1333TIP3   OH225633   5.522   5.768   0.716 -0.1379 -0.0054 -0.3228
 1333TIP3    H125634   5.614   5.759   0.741 -0.2986  0.4449  0.4650
 1333TIP3    H225635   5.500   5.859   0.734 -0.5341  0.0849 -1.2280
 1334TIP3   OH225636   0.299   3.362   7.207  0.3592  0.7035 -0.4426
 1334TIP3    H125637   0.355   3.285   7.204 -1.5437 -0.7986  0.6381
 1334TIP3    H225638   0.261   3.368   7.119 -1.4017 -1.1534  0.1282
 1335TIP3   OH225639   4.388   5.767   1.337 -0.1946  0.1480  0.0567
 1335TIP3    H125640   4.467   5.799   1.293 -0.1746 -1.3236 -1.0491
 1335TIP3    H225641   4.414   5.759   1.429  0.6689  0.5300 -0.1383
 1336TIP3   OH225642   5.124   1.416   1.960  0.1351 -0.2623 -0.6707
 1336TIP3    H125643   5.168   1.443   2.040 -2.9753 -2.7646  2.1692
 1336TIP3    H225644   5.078   1.494   1.930 -1.9854 -0.1571  2.4891
 1337TIP3   OH225645   1.179   6.492   2.303  0.6129  0.0673  0.0257
 1337TIP3    H125646   1.153   6.417   2.250  1.0379  0.0795 -0.2004
 1337TIP3    H225647   1.270   6.476   2.325 -0.7004 -2.4875  4.9829
 1338TIP3   OH225648   3.715   1.902   7.923 -0.0190  0.0758  0.1341
 1338TIP3    H125649   3.645   1.937   7.979  0.7722  0.4916  0.8947
 1338TIP3    H225650   3.759   1.980   7.889  0.8331 -0.1726  0.6503
 1339TIP3   OH225651   5.292   4.099   8.577 -0.5425 -0.1288 -0.0402
 1339TIP3    H125652   5.335   4.013   8.572 -1.1097 -0.3551 -1.5810
 1339TIP3    H225653   5.364   4.160   8.593  0.3080 -0.6057 -1.7170
 1340TIP3   OH225654   0.351   1.340   8.117  0.2930 -0.4185 -0.0547
 1340TIP3    H125655   0.301   1.410   8.074  1.1266 -0.2028 -0.7048
 1340TIP3    H225656   0.301   1.321   8.197 -0.3102  0.4484 -0.2045
 1341TIP3   OH225657   1.057   0.613   0.379  0.5487  0.0045 -0.3521
 1341TIP3    H125658   1.004   0.534   0.382 -1.8046  1.5152  0.1787
 1341TIP3    H225659   1.134   0.589   0.328 -0.5322 -2.3494 -0.9788
 1342TIP3   OH225660   3.241   3.199   1.238  0.0919  0.3762 -0.0861
 1342TIP3    H125661   3.237   3.278   1.184 -0.1424 -0.3341 -1.1334
 1342TIP3    H225662   3.152   3.165   1.239  0.3685 -0.3896 -0.4426
 1343TIP3   OH225663   3.035   5.426   1.010  0.2585 -0.2027  0.1754
 1343TIP3    H125664   2.942   5.447   0.998 -0.2714 -2.2343  0.3594
 1343TIP3    H225665   3.078   5.463   0.933 -0.4353  1.9916  0.7507
 1344TIP3   OH225666   1.321   6.595   0.219 -0.0343 -0.2923  0.1001
 1344TIP3    H125667   1.264   6.671   0.204  2.0181  0.9564 -1.8241
 1344TIP3    H225668   1.266   6.519   0.196 -1.0603  0.8427 -1.3652
 1345TIP3   OH225669   4.607   0.729   1.092  0.0146  0.0877  0.1182
 1345TIP3    H125670   4.547   0.757   1.161  0.5045 -2.1468  1.5610
 1345TIP3    H225671   4.567   0.761   1.011 -2.3681 -0.0939  1.1413
 1346TIP3   OH225672   3.571   3.153   1.018  0.6935  0.3948 -0.2033
 1346TIP3    H125673   3.595   3.060   1.013  1.6633  0.5849  0.4440
 1346TIP3    H225674   3.582   3.175   1.111 -0.4560  0.9336 -0.1790
 1347TIP3   OH225675   0.042   1.846   8.997 -0.7934 -0.0813 -0.4562
 1347TIP3    H125676   0.009   1.864   8.909  0.1375  0.1741 -0.7628
 1347TIP3    H225677   0.083   1.760   8.990 -0.3886  0.1021 -0.3715
 1348TIP3   OH225678   6.452   1.507   2.032 -0.4502 -0.0681 -0.6221
 1348TIP3    H125679   6.450   1.428   2.086  0.9342 -0.3439 -0.9522
 1348TIP3    H225680   6.360   1.521   2.007 -1.0168 -0.3534  1.1653
 1349TIP3   OH225681   5.621   5.896   1.616 -0.6526  0.6485  0.0029
 1349TIP3    H125682   5.657   5.944   1.691  0.0871 -0.5496  0.4382
 1349TIP3    H225683   5.654   5.807   1.626 -0.4236  0.4899 -1.8404
 1350TIP3   OH225684   3.783   3.909   0.670 -0.1474 -0.2206  0.3791
 1350TIP3    H125685   3.777   3.978   0.604 -1.2372 -0.5538  0.1004
 1350TIP3    H225686   3.719   3.934   0.737  1.1502  0.2732  1.4956
 1351TIP3   OH225687   5.722   1.548   0.460 -0.2407  0.4126  0.2325
 1351TIP3    H125688   5.639   1.532   0.417 -1.2072  1.3334  1.6544
 1351TIP3    H225689   5.754   1.461   0.483 -2.5259  0.0848  2.6707
 1352TIP3   OH225690   2.888   4.872   8.825 -0.1316  0.4627 -0.2320
 1352TIP3    H125691   2.923   4.853   8.738 -1.4262 -0.1526 -0.6534
 1352TIP3    H225692   2.875   4.966   8.826 -1.1906  0.3438 -1.1574
 1353TIP3   OH225693   3.377   1.667   8.792 -0.7450 -0.3433  0.1126
 1353TIP3    H125694   3.420   1.733   8.738 -0.0830 -0.4375  0.5089
 1353TIP3    H225695   3.441   1.597   8.800 -0.4987  0.0143  1.6637
 1354TIP3   OH225696   0.997   0.948   6.693 -0.4634 -0.1132  0.2380
 1354TIP3    H125697   0.982   1.005   6.769 -3.1610 -1.2169  0.6559
 1354TIP3    H225698   1.020   0.863   6.731  0.1853 -0.1820 -0.2785
 1355TIP3   OH225699   0.263   4.193   7.906  0.4767  0.2532 -0.1566
 1355TIP3    H125700   0.356   4.217   7.901  0.7951 -1.0745 -1.6163
 1355TIP3    H225701   0.264   4.106   7.947  0.0929 -0.6166 -1.8940
 1356TIP3   OH225702   0.749   0.107   2.340 -0.3739 -0.3242  0.0778
 1356TIP3    H125703   0.741   0.041   2.270 -0.7447  1.0277 -1.2106
 1356TIP3    H225704   0.698   0.071   2.412 -0.8739 -1.2936 -0.7288
 1357TIP3   OH225705   5.798   1.030   0.451  0.0946 -0.2098  1.0054
 1357TIP3    H125706   5.811   0.997   0.540 -0.2629 -0.1093  1.0963
 1357TIP3    H225707   5.863   0.984   0.398 -0.9967 -1.7618  0.9551
 1358TIP3   OH225708   5.263   0.382   7.222  0.4822  0.2197  0.0784
 1358TIP3    H125709   5.342   0.370   7.168  0.0754 -0.8537 -0.3047
 1358TIP3    H225710   5.196   0.331   7.177  0.3494 -1.4926  2.0719
 1359TIP3   OH225711   3.615   1.431   2.219  0.0710 -0.0719 -0.7058
 1359TIP3    H125712   3.572   1.356   2.260 -2.3793  2.3655  1.5755
 1359TIP3    H225713   3.703   1.432   2.258 -0.7699 -0.2887  1.3237
 1360TIP3   OH225714   1.652   3.237   8.005  0.6180 -0.5906 -0.1347
 1360TIP3    H125715   1.664   3.330   8.023 -1.3337 -0.4927  0.8229
 1360TIP3    H225716   1.638   3.233   7.910  0.8206  0.0678 -0.2020
 1361TIP3   OH225717   4.775   2.215   1.133  0.4553 -0.1189 -0.3702
 1361TIP3    H125718   4.809   2.254   1.214  0.9258 -1.5516  0.1499
 1361TIP3    H225719   4.681   2.202   1.151  0.6317 -0.7931  0.1101
 1362TIP3   OH225720   2.494   4.545   8.525  0.3413 -0.4081  0.2359
 1362TIP3    H125721   2.576   4.565   8.479  0.1729 -2.0312 -0.8533
 1362TIP3    H225722   2.520   4.486   8.596  0.1415 -0.7143  0.0536
 1363TIP3   OH225723   1.073   1.164   0.557  0.1319  0.3424 -0.1752
 1363TIP3    H125724   1.013   1.094   0.530 -0.1176 -0.0390  1.2756
 1363TIP3    H225725   1.159   1.132   0.533 -0.0107 -0.3416  0.1855
 1364TIP3   OH225726   6.101   0.318   1.604  0.1233  0.1663  0.4925
 1364TIP3    H125727   6.020   0.319   1.554 -0.3320 -0.4645  1.1975
 1364TIP3    H225728   6.074   0.299   1.694  1.0739 -0.3243  0.6920
 1365TIP3   OH225729   4.721   3.272   0.431  0.0233 -0.9499  0.7636
 1365TIP3    H125730   4.750   3.341   0.371 -0.3105 -0.3650  1.2657
 1365TIP3    H225731   4.716   3.194   0.376  1.5297 -0.8436  0.4402
 1366TIP3   OH225732   5.368   6.334   7.665 -0.2891 -0.1409  0.1874
 1366TIP3    H125733   5.360   6.429   7.657  0.6953 -0.0675 -0.0038
 1366TIP3    H225734   5.278   6.304   7.684 -0.6940  0.7663 -0.2455
 1367TIP3   OH225735   5.053   6.519   8.588  0.0339 -0.3655  0.1235
 1367TIP3    H125736   5.116   6.567   8.642  0.5523  0.4139 -1.1075
 1367TIP3    H225737   4.971   6.568   8.597 -0.2115 -0.9351  1.1218
 1368TIP3   OH225738   6.340   4.180   0.461  0.7875 -0.0338 -0.2629
 1368TIP3    H125739   6.345   4.274   0.481 -0.0939  0.0519 -0.4059
 1368TIP3    H225740   6.328   4.176   0.367  0.0502 -0.2578 -0.1634
 1369TIP3   OH225741   6.361   1.518   8.199  0.2894 -0.0355 -0.3595
 1369TIP3    H125742   6.377   1.612   8.210  0.3788  0.4018 -3.3449
 1369TIP3    H225743   6.314   1.512   8.115  0.0673 -2.6499 -0.1134
 1370TIP3   OH225744   3.848   4.959   1.005 -0.1508 -0.1666 -0.1890
 1370TIP3    H125745   3.932   4.914   0.995 -0.0278 -0.0984  0.4480
 1370TIP3    H225746   3.801   4.908   1.071 -0.8017 -0.4596 -0.8632
 1371TIP3   OH225747   3.042   6.340   7.731  0.2290 -0.1791  0.0417
 1371TIP3    H125748   2.970   6.277   7.730 -1.1748  1.2817  1.4372
 1371TIP3    H225749   3.016   6.404   7.798  2.1684  1.1827 -0.4300
 1372TIP3   OH225750   1.745   4.963   8.715 -0.6519 -0.1073  0.1943
 1372TIP3    H125751   1.781   5.042   8.675  3.8424  0.2704  4.1166
 1372TIP3    H225752   1.662   4.992   8.752 -2.1407  0.9439 -3.4403
 1373TIP3   OH225753   0.896   1.601   8.560 -0.0316  0.5831  0.2292
 1373TIP3    H125754   0.880   1.523   8.507 -1.1191  1.2796 -0.5032
 1373TIP3    H225755   0.877   1.572   8.650  0.3698 -0.2024  0.0745
 1374TIP3   OH225756   3.284   2.104   0.763 -0.1645  0.5376 -0.3716
 1374TIP3    H125757   3.374   2.096   0.729 -0.7963  0.1159 -2.0379
 1374TIP3    H225758   3.265   2.198   0.756 -0.8514  0.2930 -2.8968
 1375TIP3   OH225759   1.464   6.585   0.448 -1.1842  0.1436 -0.1945
 1375TIP3    H125760   1.486   6.676   0.466  2.3100 -0.5208 -0.2760
 1375TIP3    H225761   1.421   6.587   0.362  0.3853  1.6145 -1.0073
 1376TIP3   OH225762   3.828   2.782   0.090  0.3204  0.3435  0.2844
 1376TIP3    H125763   3.788   2.829   0.017 -1.3620 -1.6767 -0.2047
 1376TIP3    H225764   3.781   2.812   0.168  0.1640  0.4398  0.1521
 1377TIP3   OH225765   2.035   0.177   8.500  0.4442 -0.1014  0.0289
 1377TIP3    H125766   2.068   0.255   8.545 -0.7202  2.3480 -2.9126
 1377TIP3    H225767   2.108   0.149   8.444  0.3481 -0.0821 -0.1075
 1378TIP3   OH225768   6.578   0.645   7.567  0.0769 -0.2494  0.3862
 1378TIP3    H125769   6.510   0.669   7.503  1.1642 -0.3888 -0.8675
 1378TIP3    H225770   6.563   0.704   7.641 -1.0856  0.0696 -0.0740
 1379TIP3   OH225771   5.940   0.649   1.582  0.0970 -0.0521  0.2892
 1379TIP3    H125772   5.881   0.719   1.556 -0.9014 -0.5382  1.1204
 1379TIP3    H225773   6.014   0.694   1.624 -0.3290  0.5221  0.4411
 1380TIP3   OH225774   1.912   6.165   8.495  0.3839  0.2589  0.4436
 1380TIP3    H125775   1.958   6.099   8.547 -0.6231 -0.6947  0.1562
 1380TIP3    H225776   1.958   6.164   8.411 -0.5376 -1.1827 -0.0789
 1381TIP3   OH225777   3.204   6.048   1.127  0.0524  0.0291 -0.0238
 1381TIP3    H125778   3.240   5.992   1.196 -1.4612 -0.4792  0.3896
 1381TIP3    H225779   3.140   5.992   1.082 -1.4928  1.4013  0.3902
 1382TIP3   OH225780   3.052   3.200   8.568  0.1615  0.4705 -0.0088
 1382TIP3    H125781   2.995   3.202   8.492  0.0239  0.8032  0.1036
 1382TIP3    H225782   3.139   3.182   8.532  0.3548  2.0471 -0.4041
 1383TIP3   OH225783   1.509   4.075   0.079  0.1035  0.0285 -0.3630
 1383TIP3    H125784   1.431   4.096   0.130  1.0564 -1.2956  1.8153
 1383TIP3    H225785   1.509   3.979   0.073  0.1057  0.1048 -2.8610
 1384TIP3   OH225786   1.159   4.550   0.854  0.4667 -0.2344 -0.0601
 1384TIP3    H125787   1.243   4.533   0.810  0.8832  1.1894  0.1031
 1384TIP3    H225788   1.180   4.548   0.947 -0.1473 -1.9550  0.0718
 1385TIP3   OH225789   0.186   6.176   8.387  0.2022 -0.2705 -0.2481
 1385TIP3    H125790   0.189   6.165   8.482 -1.1842 -1.1038 -0.2745
 1385TIP3    H225791   0.277   6.194   8.362  0.6552 -0.4637  1.1767
 1386TIP3   OH225792   5.642   2.876   7.686  0.2762 -0.7057  0.2909
 1386TIP3    H125793   5.666   2.940   7.619  0.3012 -0.4760  0.5158
 1386TIP3    H225794   5.547   2.865   7.677  0.5005 -1.9429 -0.8890
 1387TIP3   OH225795   4.313   2.519   2.152 -0.4491  0.5503  0.3713
 1387TIP3    H125796   4.312   2.585   2.083  0.7296  0.5631  0.3299
 1387TIP3    H225797   4.304   2.436   2.106  1.2306  0.4943  0.0629
 1388TIP3   OH225798   3.632   4.293   1.759  0.0706 -0.6859 -0.4213
 1388TIP3    H125799   3.673   4.302   1.845 -1.3504 -0.2952  0.2433
 1388TIP3    H225800   3.581   4.212   1.765 -1.6354  0.3617 -0.1743
 1389TIP3   OH225801   4.736   3.950   8.341  0.0638 -0.1600  0.0412
 1389TIP3    H125802   4.765   3.860   8.355  0.7780  0.3287  1.9336
 1389TIP3    H225803   4.699   3.977   8.425 -1.6078  0.8114 -0.9591
 1390TIP3   OH225804   5.626   0.266   8.985 -0.2382 -0.7182 -0.1228
 1390TIP3    H125805   5.602   0.307   9.068 -4.0595 -1.8102 -0.4743
 1390TIP3    H225806   5.647   0.339   8.927 -0.8736  0.3217  0.9068
 1391TIP3   OH225807   5.672   4.906   1.200  0.6306  0.3438  0.2460
 1391TIP3    H125808   5.731   4.846   1.155  0.7906  0.7430 -0.0818
 1391TIP3    H225809   5.655   4.975   1.136  0.2646  0.5298  0.5396
 1392TIP3   OH225810   0.249   2.025   8.857 -0.1014 -0.5014  0.0951
 1392TIP3    H125811   0.213   2.065   8.778  1.6736  0.2655 -0.3698
 1392TIP3    H225812   0.201   1.943   8.867 -0.9869 -0.1711 -1.2549
 1393TIP3   OH225813   3.436   4.234   2.756 -0.2510  0.1512  0.1253
 1393TIP3    H125814   3.500   4.280   2.812 -1.4432  2.6155 -0.4152
 1393TIP3    H225815   3.481   4.225   2.672 -0.4005  1.4884 -0.1266
 1394TIP3   OH225816   3.571   2.845   0.555  0.8677 -0.1576  0.4160
 1394TIP3    H125817   3.526   2.768   0.520  0.3177 -0.2416  1.2699
 1394TIP3    H225818   3.513   2.918   0.533  2.0174  0.2147 -1.5504
 1395TIP3   OH225819   4.463   0.517   7.949 -0.3154  0.2655 -0.4534
 1395TIP3    H125820   4.386   0.488   7.998 -2.0117  4.1842 -0.4331
 1395TIP3    H225821   4.512   0.571   8.011  1.1267 -0.0903 -1.2415
 1396TIP3   OH225822   4.392   1.744   1.004 -0.5280  0.7172 -0.5342
 1396TIP3    H125823   4.486   1.751   1.022 -0.4872 -0.2247 -0.3271
 1396TIP3    H225824   4.386   1.747   0.909 -0.1083 -0.8965 -0.6482
 1397TIP3   OH225825   2.475   2.781   0.128  0.2562  0.2298 -0.0915
 1397TIP3    H125826   2.520   2.719   0.071  0.9270 -0.3185  0.9940
 1397TIP3    H225827   2.527   2.782   0.209 -1.5297 -0.2730  1.1423
 1398TIP3   OH225828   4.157   2.928   7.383  0.0996  0.1959  0.2718
 1398TIP3    H125829   4.213   2.857   7.415 -0.2966 -1.2162 -1.9583
 1398TIP3    H225830   4.068   2.900   7.402 -0.1381 -0.5941 -1.6957
 1399TIP3   OH225831   2.454   2.629   1.414 -0.2314  0.8090 -0.0139
 1399TIP3    H125832   2.391   2.695   1.444 -1.9084 -1.1259  0.9075
 1399TIP3    H225833   2.465   2.570   1.489  1.0819 -0.0914 -0.8750
 1400TIP3   OH225834   0.051   3.406   1.004 -0.2926 -0.5843 -0.5998
 1400TIP3    H125835   0.055   3.356   0.922 -0.8448 -1.0740 -0.3386
 1400TIP3    H225836   0.054   3.497   0.978 -2.8492 -0.6423 -1.3617
 1401TIP3   OH225837   5.365   0.548   1.287  0.8246  0.2664  0.6084
 1401TIP3    H125838   5.382   0.481   1.353 -1.1740 -0.0898  0.8323
 1401TIP3    H225839   5.279   0.525   1.251  0.8691  1.7343 -0.5206
 1402TIP3   OH225840   0.064   3.328   7.734  0.5128 -0.2343 -0.3871
 1402TIP3    H125841   0.072   3.349   7.827 -0.5482  1.3044 -0.6067
 1402TIP3    H225842   0.036   3.410   7.693  1.0829 -0.8386 -2.0964
 1403TIP3   OH225843   0.672   2.086   1.565 -0.1427  0.0613 -0.1481
 1403TIP3    H125844   0.649   2.009   1.618 -2.2143  0.8978  0.2821
 1403TIP3    H225845   0.758   2.113   1.598  0.4830 -1.8705 -0.1060
 1404TIP3   OH225846   5.369   3.288   8.406  0.2230 -0.6069  0.4358
 1404TIP3    H125847   5.295   3.241   8.368  0.5271  0.0097 -0.9790
 1404TIP3    H225848   5.363   3.270   8.500 -2.0244 -0.1283  0.4270
 1405TIP3   OH225849   2.823   4.688   2.326  0.5677 -0.2668  0.0388
 1405TIP3    H125850   2.728   4.692   2.313  0.4662 -0.6483  0.6308
 1405TIP3    H225851   2.852   4.779   2.318  0.3436 -0.3019 -1.4428
 1406TIP3   OH225852   2.516   5.237   7.466  0.1079 -0.1482 -0.3183
 1406TIP3    H125853   2.546   5.217   7.378 -0.1061  0.3880 -0.5184
 1406TIP3    H225854   2.475   5.323   7.459 -1.2701 -0.7538 -0.0049
 1407TIP3   OH225855   3.724   1.760   2.336  0.3468  0.3229 -0.2486
 1407TIP3    H125856   3.781   1.786   2.408 -0.6034 -0.8814  0.9989
 1407TIP3    H225857   3.648   1.818   2.344 -0.9745 -1.4980  1.4509
 1408TIP3   OH225858   4.104   5.321   8.196  0.3587  0.1979 -0.1181
 1408TIP3    H125859   4.155   5.296   8.273 -1.0728  0.7974  1.0749
 1408TIP3    H225860   4.159   5.386   8.152  0.7671  0.6599  1.0071
 1409TIP3   OH225861   1.804   3.815   2.272  0.6773 -0.1241 -0.4270
 1409TIP3    H125862   1.788   3.815   2.177 -0.7303 -1.5769 -0.2422
 1409TIP3    H225863   1.867   3.885   2.286 -1.0559  1.9089 -2.1270
 1410TIP3   OH225864   3.108   2.084   8.472  0.0533 -0.1476  0.3204
 1410TIP3    H125865   3.159   2.022   8.525 -0.9593 -1.7037 -0.4411
 1410TIP3    H225866   3.095   2.159   8.529  2.8354  0.1855  0.6861
 1411TIP3   OH225867   5.971   0.040   0.961 -0.3716  0.3314 -0.2924
 1411TIP3    H125868   5.947   0.057   0.870  0.1585  1.3052 -0.2626
 1411TIP3    H225869   6.035  -0.030   0.957 -0.0315  0.6642 -0.7061
 1412TIP3   OH225870   2.146   1.302   0.134 -0.2565 -0.2564 -0.5885
 1412TIP3    H125871   2.232   1.323   0.098 -1.2636  1.1972 -2.2632
 1412TIP3    H225872   2.164   1.283   0.227  1.6759  1.5843 -0.4946
 1413TIP3   OH225873   0.319   0.541   1.937 -0.0306  0.0557 -0.2183
 1413TIP3    H125874   0.337   0.542   2.031  0.0624  0.5960 -0.2365
 1413TIP3    H225875   0.377   0.473   1.901 -0.0998 -0.1804  0.1194
 1414TIP3   OH225876   2.934   0.957   0.810 -0.2102  0.0340  0.4189
 1414TIP3    H125877   2.958   0.906   0.888  2.5421  0.0830 -0.2919
 1414TIP3    H225878   2.941   1.048   0.838  1.5026  0.0626 -0.0352
 1415TIP3   OH225879   5.427   6.692   0.225  0.4224  0.4317  0.3890
 1415TIP3    H125880   5.476   6.612   0.241 -0.8484 -0.8172 -1.5940
 1415TIP3    H225881   5.478   6.738   0.157  0.3721  0.5880  0.4554
 1416TIP3   OH225882   3.960   3.580   1.172  0.8817  0.3344 -0.2330
 1416TIP3    H125883   3.972   3.485   1.167  0.1772  0.2765 -1.2155
 1416TIP3    H225884   3.919   3.594   1.257  0.9623 -0.2505 -0.0932
 1417TIP3   OH225885   2.356   0.380   1.833 -0.2103  0.0765  0.1464
 1417TIP3    H125886   2.300   0.406   1.760 -0.3185 -0.8778 -0.1257
 1417TIP3    H225887   2.432   0.437   1.825 -1.0314  1.2315  0.3907
 1418TIP3   OH225888   2.694   5.478   7.392  0.1409  0.4514  0.1372
 1418TIP3    H125889   2.656   5.423   7.324  1.7002  0.1797 -0.5721
 1418TIP3    H225890   2.672   5.567   7.367  1.2817  0.4052 -1.1603
 1419TIP3   OH225891   2.426   3.915   1.920  0.1775 -0.1347  0.3498
 1419TIP3    H125892   2.497   3.872   1.872  1.0040 -0.4453  1.7787
 1419TIP3    H225893   2.351   3.911   1.861  1.2371 -0.1582 -1.0424
 1420TIP3   OH225894   0.312   1.684   6.742 -1.1734 -0.1375 -0.1859
 1420TIP3    H125895   0.244   1.749   6.757 -1.4534 -0.4487 -0.1085
 1420TIP3    H225896   0.392   1.724   6.777 -1.4572 -0.0788  0.4100
 1421TIP3   OH225897   1.976   2.776   7.332 -0.7931 -0.0723  0.1423
 1421TIP3    H125898   1.931   2.732   7.259  0.3249 -0.9544 -0.0449
 1421TIP3    H225899   1.935   2.740   7.411  0.0993 -1.4685 -0.0096
 1422TIP3   OH225900   1.617   1.606   8.770 -0.0046  0.2629 -0.1270
 1422TIP3    H125901   1.623   1.675   8.836  0.5401 -0.7194  0.8724
 1422TIP3    H225902   1.683   1.542   8.795 -2.2481 -1.9411  0.5438
 1423TIP3   OH225903   0.104   0.160   8.210  0.3753 -0.9787  0.2661
 1423TIP3    H125904   0.016   0.186   8.182  0.0514 -1.2244  1.0171
 1423TIP3    H225905   0.095   0.066   8.229  1.0235 -1.2006 -0.4955
 1424TIP3   OH225906   3.769   2.458   7.628 -0.5391  0.1966  0.1460
 1424TIP3    H125907   3.744   2.430   7.540 -3.8352 -0.5598  1.1783
 1424TIP3    H225908   3.845   2.404   7.649  0.0913  0.1254 -2.0569
 1425TIP3   OH225909   0.662   2.900   7.245  0.5431 -0.4602  0.0955
 1425TIP3    H125910   0.629   2.927   7.159 -1.0068 -0.1566  0.7388
 1425TIP3    H225911   0.657   2.979   7.298  1.7181 -0.5865  0.4058
 1426TIP3   OH225912   6.250   0.627   0.204  0.3905  0.1732  0.1267
 1426TIP3    H125913   6.335   0.640   0.247  0.5862 -1.0011  0.1356
 1426TIP3    H225914   6.272   0.583   0.122 -0.2021 -0.0717  0.0984
 1427TIP3   OH225915   1.552   5.851   8.828 -0.2390 -0.7883  0.8588
 1427TIP3    H125916   1.542   5.825   8.919 -4.5024 -0.9708  0.5375
 1427TIP3    H225917   1.490   5.923   8.817  0.7815 -0.1878 -1.7240
 1428TIP3   OH225918   4.726   6.108   6.701  0.2009 -0.3202  0.3281
 1428TIP3    H125919   4.675   6.100   6.781  1.8998  0.5014  1.5612
 1428TIP3    H225920   4.702   6.194   6.666 -0.4139 -0.6074  0.0249
 1429TIP3   OH225921   3.894   5.896   8.422 -0.0437  0.3660 -0.1942
 1429TIP3    H125922   3.927   5.838   8.490  0.8969 -2.2209 -2.6968
 1429TIP3    H225923   3.967   5.907   8.362 -1.6530  0.2197 -2.2737
 1430TIP3   OH225924   3.726   6.307   0.016  0.5347  0.4574 -0.1014
 1430TIP3    H125925   3.724   6.348  -0.071  1.9580  0.9596  0.0721
 1430TIP3    H225926   3.670   6.363   0.069 -0.1068  0.3199 -0.6275
 1431TIP3   OH225927   2.327   2.674   1.001 -0.1409  0.8485 -0.2258
 1431TIP3    H125928   2.281   2.752   0.969  0.5595  1.1141 -0.6051
 1431TIP3    H225929   2.267   2.602   0.982 -1.6507  1.4685  1.8548
 1432TIP3   OH225930   5.152   4.202   7.918  0.5960 -0.1471 -0.4126
 1432TIP3    H125931   5.208   4.139   7.965  1.9690  0.6820 -0.8620
 1432TIP3    H225932   5.209   4.236   7.849 -0.0029  1.8545  0.0376
 1433TIP3   OH225933   2.959   2.852   7.161  0.0290 -0.2648 -0.1328
 1433TIP3    H125934   2.915   2.773   7.129 -0.3522  0.1859 -0.7264
 1433TIP3    H225935   2.925   2.922   7.107  0.0541  0.3774  0.6689
 1434TIP3   OH225936   4.370   4.216   0.808  0.4481 -0.5157 -0.1498
 1434TIP3    H125937   4.460   4.249   0.808  0.6943 -1.1392 -1.0362
 1434TIP3    H225938   4.315   4.294   0.803  0.8799 -0.0601  1.4463
 1435TIP3   OH225939   4.881   5.189   8.485  1.0565 -0.0472 -0.0168
 1435TIP3    H125940   4.793   5.188   8.448  1.1638  1.0818 -0.3549
 1435TIP3    H225941   4.868   5.181   8.579  0.6336 -0.6280 -0.1230
 1436TIP3   OH225942   4.328   3.932   8.067  0.3371  0.3433 -0.2807
 1436TIP3    H125943   4.238   3.920   8.099  0.2255 -1.2512 -1.0593
 1436TIP3    H225944   4.318   3.978   7.983 -0.1378 -2.7199 -2.0697
 1437TIP3   OH225945   2.699   5.993   0.763 -0.3028 -0.2794 -0.0506
 1437TIP3    H125946   2.665   6.040   0.687 -0.8600  0.4476  0.6397
 1437TIP3    H225947   2.793   6.007   0.759 -0.1435 -1.4350 -1.3870
 1438TIP3   OH225948   4.309   1.497   1.159 -0.2746  0.4759 -0.4590
 1438TIP3    H125949   4.308   1.481   1.253  1.3830  1.3137 -0.2541
 1438TIP3    H225950   4.339   1.588   1.150  0.5343  0.1224 -1.7980
 1439TIP3   OH225951   3.967   5.238   7.206  0.1968  0.2481 -1.0481
 1439TIP3    H125952   4.033   5.246   7.275 -0.1963  0.0287 -0.6378
 1439TIP3    H225953   3.970   5.146   7.180  1.1904  0.5833 -2.1934
 1440TIP3   OH225954   3.609   6.259   2.168 -0.1424  0.5022  0.1760
 1440TIP3    H125955   3.612   6.183   2.225 -1.8693 -0.2441 -0.6538
 1440TIP3    H225956   3.666   6.323   2.210  1.0464 -1.1003  1.0921
 1441TIP3   OH225957   1.851   1.728   8.271 -0.1964 -0.0916 -0.4298
 1441TIP3    H125958   1.896   1.668   8.212 -1.0078 -0.6731 -0.4872
 1441TIP3    H225959   1.842   1.679   8.353  1.8156  1.0679  0.5491
 1442TIP3   OH225960   3.447   0.620   8.034 -0.6740  0.0074 -0.3690
 1442TIP3    H125961   3.379   0.648   7.973  0.1449 -2.4103 -2.5611
 1442TIP3    H225962   3.490   0.547   7.991  3.6377  1.5953  0.6993
 1443TIP3   OH225963   1.590   3.929   8.325  0.5731  0.2546  0.2757
 1443TIP3    H125964   1.647   3.999   8.357  1.4821  0.8804 -2.4462
 1443TIP3    H225965   1.650   3.864   8.289 -0.3317  0.6633 -2.1415
 1444TIP3   OH225966   0.340   4.436   1.530 -0.0329  0.2500 -0.2305
 1444TIP3    H125967   0.375   4.391   1.453 -0.0563  0.3839 -0.3207
 1444TIP3    H225968   0.290   4.369   1.576 -0.5813  0.3303 -0.6927
 1445TIP3   OH225969   1.158   0.286   7.723  0.3559 -0.2156  0.3877
 1445TIP3    H125970   1.072   0.309   7.758  0.0404  1.8558 -1.4977
 1445TIP3    H225971   1.142   0.211   7.666 -0.0871 -0.1756  0.4597
 1446TIP3   OH225972   0.825   1.638   8.876 -0.0585 -0.0305  0.4974
 1446TIP3    H125973   0.903   1.689   8.852 -0.5403  0.8972  0.8245
 1446TIP3    H225974   0.858   1.564   8.925  0.5745  0.8506  1.4425
 1447TIP3   OH225975   0.558   2.540   1.401  0.3611 -0.5811  0.1292
 1447TIP3    H125976   0.600   2.579   1.477 -0.6266  1.4233 -0.2748
 1447TIP3    H225977   0.560   2.446   1.417 -1.9969 -0.2112  3.8819
 1448TIP3   OH225978   2.381   4.084   1.594 -0.0829  0.7664 -0.5055
 1448TIP3    H125979   2.392   4.178   1.609 -0.0341  0.7156 -0.2311
 1448TIP3    H225980   2.438   4.065   1.520  1.6644  0.5167  0.8615
 1449TIP3   OH225981   2.092   2.711   2.131  0.3961  0.1884 -0.1812
 1449TIP3    H125982   2.153   2.638   2.133  2.4441  1.7714 -0.8398
 1449TIP3    H225983   2.006   2.671   2.140  1.2638 -2.4678 -2.3446
 1450TIP3   OH225984   0.258   6.074   8.905 -0.4029  0.0229 -0.2451
 1450TIP3    H125985   0.164   6.077   8.925  0.1322 -1.1922  3.0447
 1450TIP3    H225986   0.300   6.119   8.978  1.6685 -0.2663 -1.1718
 1451TIP3   OH225987   0.990   0.522   2.569 -0.5236 -0.2605 -0.4073
 1451TIP3    H125988   0.956   0.527   2.480 -0.3397 -2.2000 -0.6407
 1451TIP3    H225989   0.960   0.436   2.601  1.9379 -0.9384  0.3010
 1452TIP3   OH225990   1.565   2.087   0.212 -0.0165  0.2901  0.2111
 1452TIP3    H125991   1.561   1.992   0.204 -1.5100  0.4093 -0.7654
 1452TIP3    H225992   1.635   2.112   0.151 -0.4581 -0.0920 -0.4673
 1453TIP3   OH225993   6.100   0.378   0.853  0.3679  0.0901  0.2008
 1453TIP3    H125994   6.035   0.385   0.783  0.5110 -1.3704 -0.1099
 1453TIP3    H225995   6.052   0.342   0.927  0.7847 -0.9352 -0.0091
 1454TIP3   OH225996   0.099   6.456   8.965 -0.2001 -0.4986 -0.2937
 1454TIP3    H125997   0.161   6.473   8.894  0.1358  2.8746  0.6608
 1454TIP3    H225998   0.018   6.499   8.937 -1.2439 -2.2323 -0.1372
 1455TIP3   OH225999   3.922   2.482   7.125 -0.1685 -0.2473  0.5102
 1455TIP3    H126000   3.857   2.449   7.063  0.6800 -1.1212  0.0681
 1455TIP3    H226001   3.979   2.408   7.142  1.1629  0.7076  0.3130
 1456TIP3   OH226002   1.094   6.702   0.835 -0.9232  0.3491 -0.5328
 1456TIP3    H126003   1.066   6.617   0.801 -2.0516  0.6956 -0.4994
 1456TIP3    H226004   1.147   6.739   0.764 -1.9510  0.3962 -1.2986
 1457TIP3   OH226005   1.140   4.427   1.834  0.0038  0.3736 -0.6079
 1457TIP3    H126006   1.152   4.364   1.762  0.0280 -1.0087  0.5462
 1457TIP3    H226007   1.105   4.505   1.792 -2.3161 -1.2129 -1.8668
 1458TIP3   OH226008   3.889   4.707   8.843 -0.0343  0.7775  0.1797
 1458TIP3    H126009   3.944   4.783   8.859 -1.0021  1.8169 -1.1807
 1458TIP3    H226010   3.918   4.642   8.907  0.6960  2.3371  1.5033
 1459TIP3   OH226011   4.089   5.705   1.678  0.0185  0.0066 -0.4688
 1459TIP3    H126012   4.174   5.749   1.685  0.3704 -0.7182 -0.0440
 1459TIP3    H226013   4.042   5.753   1.610  1.5544 -0.8832 -2.2202
 1460TIP3   OH226014   5.344   5.246   8.226 -0.0007 -0.3631  0.1449
 1460TIP3    H126015   5.384   5.168   8.265  2.0233  0.5297  0.0012
 1460TIP3    H226016   5.357   5.235   8.132  1.1817  0.5354  0.1716
 1461TIP3   OH226017   6.204   5.227   7.920 -0.0980 -0.3009 -0.3005
 1461TIP3    H126018   6.295   5.202   7.905  0.3315  0.3500  1.0222
 1461TIP3    H226019   6.168   5.240   7.833  1.5350  0.9448 -0.8466
 1462TIP3   OH226020   2.432   6.164   7.701  0.3735  0.0143  1.0652
 1462TIP3    H126021   2.360   6.147   7.640  0.5968 -1.7685  1.2573
 1462TIP3    H226022   2.490   6.223   7.653 -1.5069  2.0884  1.1546
 1463TIP3   OH226023   2.096   4.639   1.459 -0.7007 -0.6600 -0.2121
 1463TIP3    H126024   2.190   4.623   1.446 -0.5957 -1.5429  1.4077
 1463TIP3    H226025   2.072   4.697   1.386  1.8162  2.2569  1.0180
 1464TIP3   OH226026   2.982   6.016   8.387  0.5841 -0.1193 -0.2406
 1464TIP3    H126027   2.973   5.984   8.297 -0.5496  1.5911 -0.7844
 1464TIP3    H226028   2.906   5.980   8.432 -0.6261  1.5566 -0.8229
 1465TIP3   OH226029   1.497   3.609   8.256  0.2104  0.0378 -0.9632
 1465TIP3    H126030   1.550   3.578   8.329 -0.0154 -0.6857 -1.0977
 1465TIP3    H226031   1.541   3.574   8.178 -1.9961 -3.1113 -0.9723
 1466TIP3   OH226032   0.094   2.416   0.769 -0.3685  0.1797  0.2096
 1466TIP3    H126033   0.112   2.505   0.738 -0.5267  0.3632  0.6309
 1466TIP3    H226034   0.166   2.398   0.830 -1.2117  0.6691  1.4082
 1467TIP3   OH226035   6.721   4.082   1.224  0.1513  0.2639 -0.2593
 1467TIP3    H126036   6.642   4.036   1.254  0.1899 -0.3736 -1.1010
 1467TIP3    H226037   6.703   4.102   1.132  0.9807  0.1030 -0.4593
 1468TIP3   OH226038   3.051   4.569   7.741  0.1375  0.5099  0.2904
 1468TIP3    H126039   3.027   4.596   7.829  1.0120  2.0277  0.0914
 1468TIP3    H226040   3.131   4.618   7.721  0.5161 -0.5444 -0.9852
 1469TIP3   OH226041   2.901   2.786   2.439  0.0753 -0.2081  0.5654
 1469TIP3    H126042   2.910   2.819   2.349 -0.1507  0.3248  0.7341
 1469TIP3    H226043   2.954   2.706   2.440 -0.7460 -0.7908 -0.3227
 1470TIP3   OH226044   6.293   0.405   8.007  1.0703 -0.0009 -0.0557
 1470TIP3    H126045   6.314   0.322   8.050  2.3611  1.0504  1.4489
 1470TIP3    H226046   6.280   0.382   7.915  2.7114 -1.6870  0.0862
 1471TIP3   OH226047   0.620   5.135   7.167 -0.1440  0.0423 -0.4510
 1471TIP3    H126048   0.613   5.045   7.136 -0.2284 -0.3875  0.7777
 1471TIP3    H226049   0.657   5.128   7.255  1.2833  1.3017 -0.9024
 1472TIP3   OH226050   0.908   6.400   8.672 -0.3983 -0.3099 -0.3946
 1472TIP3    H126051   0.932   6.360   8.588 -1.7945 -0.0428 -0.9419
 1472TIP3    H226052   0.901   6.493   8.654  0.7192 -0.0612  0.3765
 1473TIP3   OH226053   0.615   4.559   2.487  0.4321 -0.0408  0.0496
 1473TIP3    H126054   0.697   4.520   2.517 -0.2944 -0.8921  1.0057
 1473TIP3    H226055   0.546   4.508   2.530 -0.6542 -0.1949 -1.7192
 1474TIP3   OH226056   2.495   2.832   2.014  0.0547 -0.1725 -0.0659
 1474TIP3    H126057   2.576   2.791   1.983  0.1501  0.2763 -0.4324
 1474TIP3    H226058   2.494   2.814   2.108  1.3008  0.9780  0.2054
 1475TIP3   OH226059   3.714   2.370   7.385 -1.2975 -0.1911 -0.0907
 1475TIP3    H126060   3.709   2.444   7.324  0.2952 -0.5272 -0.6973
 1475TIP3    H226061   3.713   2.293   7.329 -1.2035 -0.5556  0.4023
 1476TIP3   OH226062   3.770   3.820   7.547 -0.4142 -0.2918  0.5546
 1476TIP3    H126063   3.764   3.727   7.524 -1.6135  0.0954 -0.8152
 1476TIP3    H226064   3.681   3.845   7.572 -0.3525  0.7350 -0.1705
 1477TIP3   OH226065   3.406   5.109   8.661 -0.3371 -0.6982 -0.2347
 1477TIP3    H126066   3.432   5.065   8.581 -0.3117 -0.9873 -0.0710
 1477TIP3    H226067   3.461   5.071   8.729  0.3026  0.2120 -0.2204
 1478TIP3   OH226068   5.783   3.153   1.070 -0.2991 -0.5899 -0.3425
 1478TIP3    H126069   5.743   3.066   1.074 -1.7199  0.0200 -0.6121
 1478TIP3    H226070   5.784   3.176   0.977 -0.2175 -0.1942 -0.2481
 1479TIP3   OH226071   2.785   0.729   7.206 -0.0288  0.5467 -0.4046
 1479TIP3    H126072   2.711   0.786   7.185 -0.2093  1.1427  1.5603
 1479TIP3    H226073   2.836   0.780   7.269  0.4753 -0.9822  0.4704
 1480TIP3   OH226074   5.518   3.090   0.381 -0.4495  0.0902 -0.0249
 1480TIP3    H126075   5.460   3.147   0.329 -2.4286  1.3298  3.2106
 1480TIP3    H226076   5.597   3.142   0.394 -0.5040  0.3363 -0.6600
 1481TIP3   OH226077   1.980   2.659   0.831 -0.0066 -0.2939  0.1382
 1481TIP3    H126078   1.942   2.624   0.751 -1.1900 -0.8078  0.8974
 1481TIP3    H226079   1.966   2.754   0.824  0.9401 -0.1960 -0.7617
 1482TIP3   OH226080   4.008   3.010   1.276 -0.5567  0.1049 -0.5337
 1482TIP3    H126081   3.941   2.942   1.277 -0.2154 -0.2645  0.9312
 1482TIP3    H226082   4.079   2.973   1.328 -0.8910  2.0679  1.4587
 1483TIP3   OH226083   5.982   1.946   0.942  0.4560 -0.1098  0.2977
 1483TIP3    H126084   5.942   1.915   0.861  1.0506 -0.2937  0.0691
 1483TIP3    H226085   5.992   1.867   0.995  0.2272 -0.0161  0.4823
 1484TIP3   OH226086   3.273   3.482   8.056  0.0626  0.2448 -0.0170
 1484TIP3    H126087   3.298   3.477   7.964 -0.8922  1.0750 -0.3396
 1484TIP3    H226088   3.245   3.573   8.068  0.2546  0.1632  1.1196
 1485TIP3   OH226089   6.291   3.578   0.479 -0.1428  0.6196  0.3458
 1485TIP3    H126090   6.356   3.600   0.545 -0.1585 -1.0986  0.9810
 1485TIP3    H226091   6.340   3.575   0.396  0.5567 -0.4248  0.7824
 1486TIP3   OH226092   4.709   1.478   0.040 -0.0380  0.0948  0.5251
 1486TIP3    H126093   4.629   1.451  -0.005  1.0624 -2.6938  0.0062
 1486TIP3    H226094   4.751   1.540  -0.019 -0.5790 -0.4115 -0.4059
 1487TIP3   OH226095   2.176   5.870   8.873 -0.2315  0.7070  0.3580
 1487TIP3    H126096   2.233   5.883   8.796 -0.8620 -0.9165 -0.4266
 1487TIP3    H226097   2.110   5.939   8.866  0.5736  1.4981  0.2945
 1488TIP3   OH226098   2.906   3.512   8.432 -0.1256 -0.6768 -0.5259
 1488TIP3    H126099   2.938   3.599   8.455 -0.9607 -0.4054 -0.3405
 1488TIP3    H226100   2.841   3.492   8.499 -0.3253 -1.2120 -0.8690
 1489TIP3   OH226101   3.589   1.969   1.370 -0.0496 -0.3882  1.0959
 1489TIP3    H126102   3.597   1.973   1.465  1.1244 -1.2714  1.0586
 1489TIP3    H226103   3.600   1.877   1.348  0.4264 -0.1041  0.0544
 1490TIP3   OH226104   4.310   5.483   0.719  0.4794  0.1924  0.5965
 1490TIP3    H126105   4.313   5.576   0.740  0.2197  0.3367  0.0303
 1490TIP3    H226106   4.399   5.451   0.733  0.5787  0.5382  0.7406
 1491TIP3   OH226107   3.434   1.378   8.561 -0.0365  0.1945 -0.1469
 1491TIP3    H126108   3.509   1.331   8.523 -0.4874 -0.2885 -0.4593
 1491TIP3    H226109   3.459   1.394   8.652  0.4291  0.0004 -0.2371
 1492TIP3   OH226110   3.476   2.739   2.386 -0.0841 -0.2648  0.3293
 1492TIP3    H126111   3.433   2.738   2.300 -0.6808  1.2586  0.5699
 1492TIP3    H226112   3.407   2.716   2.448  0.2560 -0.9987  0.4481
 1493TIP3   OH226113   5.820   3.133   8.918 -0.1093 -0.0083  0.2944
 1493TIP3    H126114   5.733   3.172   8.905 -0.2424  0.2623  1.8371
 1493TIP3    H226115   5.805   3.038   8.916 -0.6646  0.0270  1.7455
 1494TIP3   OH226116   3.977   0.407   2.124  0.1001 -0.1767 -0.6872
 1494TIP3    H126117   3.911   0.354   2.080 -0.4375  1.8601 -2.4727
 1494TIP3    H226118   3.932   0.442   2.201 -0.3248 -0.2255 -0.9157
 1495TIP3   OH226119   6.088   3.214   0.335  0.6892 -0.3020  0.4347
 1495TIP3    H126120   6.090   3.154   0.409  0.4064 -0.4118  0.3522
 1495TIP3    H226121   6.038   3.168   0.267  1.7010 -0.5807 -0.1506
 1496TIP3   OH226122   0.724   1.544   0.913  0.4670  0.1732 -0.6282
 1496TIP3    H126123   0.692   1.619   0.963  0.3641 -0.1034 -0.2729
 1496TIP3    H226124   0.804   1.575   0.871  0.5263  0.4278 -0.3291
 1497TIP3   OH226125   5.074   6.657   1.232  0.3964  0.0510  0.3604
 1497TIP3    H126126   5.110   6.594   1.170  0.4718 -0.3089  0.7670
 1497TIP3    H226127   5.117   6.638   1.315  0.8362  1.0079  0.3704
 1498TIP3   OH226128   3.626   2.376   0.121 -0.3978 -0.0809  0.9612
 1498TIP3    H126129   3.607   2.451   0.065 -1.4912 -0.1408  1.2203
 1498TIP3    H226130   3.635   2.302   0.060  1.5467  0.3695  0.6286
 1499TIP3   OH226131   0.090   5.541   1.226 -0.2653 -0.5591  0.1921
 1499TIP3    H126132   0.139   5.496   1.295 -1.3007 -1.1991  0.5391
 1499TIP3    H226133   0.025   5.593   1.273 -0.1720 -0.0116 -0.2694
 1500TIP3   OH226134   4.441   1.375   0.770 -0.2762  0.1323  0.0160
 1500TIP3    H126135   4.411   1.329   0.849 -0.5380  0.8633  0.3487
 1500TIP3    H226136   4.503   1.440   0.803 -0.4023  0.4548 -0.3827
 1501TIP3   OH226137   0.760   0.741   8.106  0.3800  0.1054  0.5349
 1501TIP3    H126138   0.686   0.681   8.109  1.1928 -0.9452  0.0598
 1501TIP3    H226139   0.777   0.763   8.198  0.6047 -1.0522  0.7786
 1502TIP3   OH226140   3.387   4.880   7.865  0.3988 -0.0824  0.3920
 1502TIP3    H126141   3.481   4.893   7.878  0.6254 -0.6404 -0.5680
 1502TIP3    H226142   3.360   4.828   7.941  1.0395 -0.6396  0.2516
 1503TIP3   OH226143   0.789   3.266   7.980  0.2344  0.0203 -0.3655
 1503TIP3    H126144   0.817   3.193   7.925  0.3288  0.2622 -0.6431
 1503TIP3    H226145   0.774   3.338   7.918 -3.0179 -0.6445 -0.5755
 1504TIP3   OH226146   2.544   3.399   0.786  0.5382 -0.1380 -0.2730
 1504TIP3    H126147   2.584   3.435   0.707  1.4509  1.9012  1.0145
 1504TIP3    H226148   2.617   3.361   0.835  0.5188  1.1807  0.8544
 1505TIP3   OH226149   6.041   2.510   0.740 -0.3430 -0.3365  0.2392
 1505TIP3    H126150   6.054   2.513   0.646 -3.6638  2.0950 -0.3130
 1505TIP3    H226151   6.045   2.417   0.762  0.8340 -0.9293 -2.1820
 1506TIP3   OH226152   5.220   5.528   0.332 -0.2093  0.6145  0.3244
 1506TIP3    H126153   5.132   5.514   0.296 -0.3795  0.7852  0.6701
 1506TIP3    H226154   5.270   5.565   0.259 -0.6379  1.2610  0.3523
 1507TIP3   OH226155   1.438   4.430   7.924 -0.3205 -0.8229  0.1754
 1507TIP3    H126156   1.429   4.498   7.992 -0.6459 -0.5159 -0.1673
 1507TIP3    H226157   1.531   4.410   7.923 -0.2177 -0.3688  0.2753
 1508TIP3   OH226158   5.617   2.583   0.252 -0.3677  0.3573 -0.2522
 1508TIP3    H126159   5.540   2.560   0.200 -0.7386  0.3388  0.2971
 1508TIP3    H226160   5.628   2.510   0.313 -0.3500  0.6990  0.1580
 1509TIP3   OH226161   6.407   2.564   0.982  0.1469  0.2759 -0.2767
 1509TIP3    H126162   6.497   2.594   0.988 -0.2358  1.4991 -0.4822
 1509TIP3    H226163   6.360   2.612   1.050 -0.3872 -0.2490 -0.2565
 1510TIP3   OH226164   3.519   5.082   8.162  0.3182 -0.2838  0.0963
 1510TIP3    H126165   3.542   5.142   8.234 -1.0766 -0.4611  0.7222
 1510TIP3    H226166   3.544   5.130   8.083  1.1166  0.2661  0.6617
 1511TIP3   OH226167   2.883   2.651   6.783  0.2366  0.2876 -0.0327
 1511TIP3    H126168   2.853   2.741   6.788  1.2690  0.6105  0.7750
 1511TIP3    H226169   2.829   2.611   6.715  0.4051  1.7639 -1.0682
 1512TIP3   OH226170   0.564   5.342   1.687 -0.0250  0.0092  0.5149
 1512TIP3    H126171   0.542   5.408   1.752 -3.1177  0.6489 -0.9997
 1512TIP3    H226172   0.539   5.259   1.727  0.3314  0.1369  1.0101
 1513TIP3   OH226173   2.435   2.544   1.874  0.5723 -0.1471  0.1870
 1513TIP3    H126174   2.351   2.589   1.864  0.5344 -0.5625 -1.9251
 1513TIP3    H226175   2.416   2.470   1.931  0.0866  1.0898  1.6949
 1514TIP3   OH226176   6.063   2.265   0.579 -0.2188 -0.7294 -0.1277
 1514TIP3    H126177   6.013   2.248   0.660 -0.2177 -0.2220 -0.0171
 1514TIP3    H226178   6.149   2.228   0.596  0.1406  0.3668  0.5522
 1515TIP3   OH226179   4.346   1.273   1.025  0.0994 -0.6577  0.6615
 1515TIP3    H126180   4.337   1.355   1.073 -3.1324 -1.1270  1.0899
 1515TIP3    H226181   4.423   1.231   1.064  1.3940  1.7616  0.9386
 1516TIP3   OH226182   3.939   1.279   2.194  0.0506  0.0347 -0.5545
 1516TIP3    H126183   3.915   1.263   2.103 -1.0780 -0.4956 -0.1803
 1516TIP3    H226184   3.981   1.365   2.193 -1.2852  0.6994 -1.3646
 1517TIP3   OH226185   4.690   4.842   8.455 -0.1889 -0.3236 -0.4327
 1517TIP3    H126186   4.770   4.868   8.500 -0.6177 -0.4386  0.4295
 1517TIP3    H226187   4.720   4.794   8.378  0.5731 -0.2215 -0.2077
 1518TIP3   OH226188   2.191   1.649   0.243 -0.9922  0.5011 -0.1045
 1518TIP3    H126189   2.247   1.624   0.317 -2.6602 -1.0089  0.7176
 1518TIP3    H226190   2.247   1.639   0.166  0.5911  1.4917  0.8497
 1519TIP3   OH226191   2.977   5.778   0.709 -0.2818  0.0871  0.0510
 1519TIP3    H126192   2.936   5.703   0.668 -0.5111  0.2176  0.0399
 1519TIP3    H226193   3.061   5.745   0.742 -0.1963 -0.0731 -0.3205
 1520TIP3   OH226194   3.106   0.488   8.480 -0.1780  0.4319  0.0433
 1520TIP3    H126195   3.190   0.499   8.526 -0.9591  0.2487  1.5876
 1520TIP3    H226196   3.128   0.494   8.387  1.4642  0.9246  0.4354
 1521TIP3   OH226197   0.926   4.054   0.066 -0.1237  0.1738  0.4189
 1521TIP3    H126198   0.950   4.065   0.158  0.9650 -1.0523  0.3197
 1521TIP3    H226199   0.974   3.976   0.038 -1.6370 -0.3819 -0.7831
 1522TIP3   OH226200   3.613   5.749   6.698 -0.0952  0.4744 -0.7754
 1522TIP3    H126201   3.527   5.769   6.737 -0.9099 -0.6818 -1.9047
 1522TIP3    H226202   3.623   5.815   6.630 -0.9224 -0.4364 -1.8105
 1523TIP3   OH226203   3.026   1.737   1.705 -0.0189 -0.3871  0.0099
 1523TIP3    H126204   3.072   1.738   1.621  0.7186 -3.1664  0.2870
 1523TIP3    H226205   3.086   1.783   1.765  2.3339 -3.3896  0.2225
 1524TIP3   OH226206   5.188   0.567   7.382 -0.3785 -0.2468 -0.9223
 1524TIP3    H126207   5.096   0.592   7.372 -1.2642 -3.0871 -0.9020
 1524TIP3    H226208   5.202   0.499   7.316  0.9903 -1.5584  0.6316
 1525TIP3   OH226209   3.905   0.978   8.997 -0.1080 -0.1966  0.3488
 1525TIP3    H126210   3.936   0.891   9.021 -0.3022  0.0655  1.5945
 1525TIP3    H226211   3.810   0.967   8.985  0.0066 -0.3550 -0.4724
 1526TIP3   OH226212   3.338   2.748   1.024 -0.6174  0.1555 -0.4080
 1526TIP3    H126213   3.249   2.772   0.998 -0.6471 -0.9362 -1.4090
 1526TIP3    H226214   3.367   2.819   1.082 -1.8164  0.9524 -0.7634
 1527TIP3   OH226215   3.536   6.367   7.152  0.5477 -0.1319 -0.3260
 1527TIP3    H126216   3.631   6.370   7.168  0.7191 -2.0599 -0.6378
 1527TIP3    H226217   3.514   6.455   7.123  2.3550  0.2492 -0.7161
 1528TIP3   OH226218   3.623   0.922   8.159  0.1991 -0.3144 -0.1671
 1528TIP3    H126219   3.576   0.945   8.239 -2.0467  1.3252 -1.8525
 1528TIP3    H226220   3.700   0.873   8.190 -1.6757 -1.6407  2.8395
 1529TIP3   OH226221   2.575   1.302   0.906 -0.4741  0.6630  0.4658
 1529TIP3    H126222   2.613   1.339   0.986 -2.6024 -0.4773  2.1385
 1529TIP3    H226223   2.613   1.214   0.900 -1.4905  0.1467  1.1976
 1530TIP3   OH226224   2.922   2.164   0.530  0.0103  0.8291 -0.0971
 1530TIP3    H126225   2.958   2.220   0.461  1.9565  2.5485  2.1433
 1530TIP3    H226226   2.951   2.076   0.507 -0.1924  1.2043 -1.9211
 1531TIP3   OH226227   0.962   4.231   8.241  0.5958  0.3034  0.5304
 1531TIP3    H126228   0.999   4.229   8.153 -0.1159  0.0916  0.2232
 1531TIP3    H226229   1.031   4.267   8.296  1.6402 -1.0527  0.1656
 1532TIP3   OH226230   6.350   3.953   7.740  0.2897  0.4107  0.2394
 1532TIP3    H126231   6.290   3.968   7.667 -1.3035  1.1197  1.6318
 1532TIP3    H226232   6.427   3.911   7.700 -1.1605 -0.6384 -1.5912
 1533TIP3   OH226233   2.901   5.308   8.282  0.4125  0.3900  0.2332
 1533TIP3    H126234   2.982   5.282   8.239 -0.4381 -2.6227  0.2665
 1533TIP3    H226235   2.832   5.264   8.232 -0.9960  0.7982  1.7317
 1534TIP3   OH226236   4.302   2.418   1.167  0.2782 -0.4321  0.0505
 1534TIP3    H126237   4.260   2.378   1.091  0.4517 -0.9103  0.2027
 1534TIP3    H226238   4.252   2.386   1.242 -0.4840  0.7879  0.0837
 1535TIP3   OH226239   0.801   4.397   1.701  0.0737  0.1040 -0.7696
 1535TIP3    H126240   0.774   4.430   1.787  1.8928 -2.8246  1.0843
 1535TIP3    H226241   0.737   4.330   1.679 -0.2389  0.6626 -1.6223
 1536TIP3   OH226242   1.014   6.714   7.251  0.3394  0.0002  0.1385
 1536TIP3    H126243   1.069   6.787   7.279  1.6225 -0.0262 -2.0532
 1536TIP3    H226244   0.934   6.756   7.218  2.1366  0.8838 -3.7140
 1537TIP3   OH226245   6.566   6.647   0.620  0.4416  0.0927 -0.3214
 1537TIP3    H126246   6.529   6.720   0.571  0.8692  0.7161  0.2656
 1537TIP3    H226247   6.596   6.685   0.702  1.2429 -0.6239 -0.2587
 1538TIP3   OH226248   5.147   0.032   7.608  0.7394  0.0011 -0.2789
 1538TIP3    H126249   5.089  -0.024   7.659  0.3422  1.5032  0.9753
 1538TIP3    H226250   5.130   0.008   7.517 -0.3374 -1.0070  0.1755
 1539TIP3   OH226251   2.776   2.483   1.123  0.0275 -0.0102 -0.1696
 1539TIP3    H126252   2.686   2.455   1.114 -0.1711 -0.2655  2.0420
 1539TIP3    H226253   2.828   2.403   1.118  0.1105  0.0810 -0.9312
 1540TIP3   OH226254   4.285   5.091   0.674 -0.0060  0.2087 -0.0615
 1540TIP3    H126255   4.308   5.061   0.762  2.3332  1.1985 -0.2511
 1540TIP3    H226256   4.191   5.110   0.679 -0.7813 -3.2242  1.1112
 1541TIP3   OH226257   3.524   0.896   0.142  0.2561 -0.1842  0.0084
 1541TIP3    H126258   3.429   0.897   0.147  0.1144  1.1656 -2.0479
 1541TIP3    H226259   3.552   0.859   0.226 -1.9980  1.6999  1.6986
 1542TIP3   OH226260   4.554   5.869   2.375 -0.2380 -0.2267 -0.5326
 1542TIP3    H126261   4.595   5.810   2.438  2.8758 -0.0412 -2.1394
 1542TIP3    H226262   4.522   5.811   2.306  0.4740 -0.2234 -0.8792
 1543TIP3   OH226263   3.003   1.334   2.613  0.6920  0.3676  0.2023
 1543TIP3    H126264   3.088   1.360   2.576 -0.0076  1.7690 -0.5201
 1543TIP3    H226265   3.014   1.340   2.707  0.7886  2.8852  0.1183
 1544TIP3   OH226266   5.870   3.775   8.898 -0.2640  0.2754 -0.2675
 1544TIP3    H126267   5.960   3.766   8.869 -0.3727 -0.2355 -0.4634
 1544TIP3    H226268   5.847   3.866   8.881 -0.4224 -0.0759 -2.0591
 1545TIP3   OH226269   5.668   3.645   1.693  0.1454 -0.2232 -0.5006
 1545TIP3    H126270   5.632   3.731   1.670 -0.0403 -0.4196 -0.9795
 1545TIP3    H226271   5.684   3.649   1.787 -0.6973  0.0413 -0.3550
 1546TIP3   OH226272   0.121   2.970   8.959 -0.3223 -0.0210 -0.1283
 1546TIP3    H126273   0.172   3.014   8.891  0.1847 -0.6764 -0.1797
 1546TIP3    H226274   0.091   2.889   8.919 -0.0123 -0.4180  0.4156
 1547TIP3   OH226275   3.006   5.465   2.411  0.0289 -0.6628 -0.5558
 1547TIP3    H126276   3.029   5.512   2.330  2.3973  0.4628  0.6732
 1547TIP3    H226277   2.930   5.413   2.387 -0.3867  0.9062 -3.0557
 1548TIP3   OH226278   4.770   0.221   0.171 -0.1618 -0.3027  0.3555
 1548TIP3    H126279   4.797   0.312   0.181 -1.7754  0.4029 -1.2097
 1548TIP3    H226280   4.797   0.197   0.082  1.4056 -1.8163  1.1816
 1549TIP3   OH226281   4.698   2.561   8.173  0.5448  0.2716  0.3452
 1549TIP3    H126282   4.723   2.549   8.265  1.9847  0.7883  0.0554
 1549TIP3    H226283   4.658   2.648   8.171  1.2975  0.6292  0.3571
 1550TIP3   OH226284   4.809   6.662   7.417  0.3293  0.5282  0.0138
 1550TIP3    H126285   4.904   6.661   7.429  0.6225 -0.6564 -1.9903
 1550TIP3    H226286   4.778   6.587   7.468  0.5474  0.4241 -0.0070
 1551TIP3   OH226287   3.099   0.153   0.468  0.5419 -0.3397  0.0442
 1551TIP3    H126288   3.103   0.059   0.450 -1.3349 -1.2043  3.2603
 1551TIP3    H226289   3.027   0.185   0.414 -2.1299 -1.9313  2.3216
 1552TIP3   OH226290   6.167   4.944   0.638  0.2568  0.0421  0.1117
 1552TIP3    H126291   6.228   5.018   0.648 -0.6280  0.5833  1.9384
 1552TIP3    H226292   6.222   4.872   0.607  1.4392  1.0301 -0.1945
 1553TIP3   OH226293   4.497   4.384   7.612  0.0903  0.5931 -0.0744
 1553TIP3    H126294   4.559   4.322   7.573  1.0508  1.8239 -0.5652
 1553TIP3    H226295   4.543   4.421   7.687  0.3572  2.2009 -0.9829
 1554TIP3   OH226296   0.257   3.880   7.210  0.2425  0.0988 -0.0258
 1554TIP3    H126297   0.253   3.953   7.271 -0.4248 -0.3140  0.4360
 1554TIP3    H226298   0.346   3.884   7.174  0.0963  1.3436 -0.2851
 1555TIP3   OH226299   5.722   5.043   7.891  0.1016  0.6076 -0.3439
 1555TIP3    H126300   5.786   5.008   7.953 -0.8466 -0.5520  0.0226
 1555TIP3    H226301   5.774   5.073   7.816  1.1545  0.8371  0.4684
 1556TIP3   OH226302   4.724   3.876   7.929 -0.1726  0.3136  0.1797
 1556TIP3    H126303   4.789   3.945   7.944  0.8019 -0.5133 -0.1362
 1556TIP3    H226304   4.705   3.880   7.836 -0.6370  0.5898  0.2796
 1557TIP3   OH226305   3.509   1.311   7.290  0.2135  0.5208 -0.0858
 1557TIP3    H126306   3.543   1.396   7.262  0.8247  0.9944  1.9721
 1557TIP3    H226307   3.579   1.249   7.269 -0.1323  0.5284 -1.3530
 1558TIP3   OH226308   1.726   3.723   7.799  0.4008  0.3052 -0.2591
 1558TIP3    H126309   1.715   3.802   7.851  0.5419 -0.6032  1.2058
 1558TIP3    H226310   1.674   3.739   7.720 -1.2609  1.0421  0.9279
 1559TIP3   OH226311   1.183   3.979   0.963 -0.4525  0.4443  0.2074
 1559TIP3    H126312   1.201   4.054   1.020  3.9120  0.6128 -0.9890
 1559TIP3    H226313   1.160   3.909   1.023 -0.9862  1.8178  1.6940
 1560TIP3   OH226314   2.630   2.088   7.545 -0.6983  0.0075 -0.2349
 1560TIP3    H126315   2.567   2.157   7.524 -0.5120  0.8059  1.6286
 1560TIP3    H226316   2.578   2.008   7.546 -1.3705  0.4305 -0.2701
 1561TIP3   OH226317   3.820   5.415   8.986 -1.1486  0.4017 -0.0281
 1561TIP3    H126318   3.857   5.334   9.021  0.2447 -0.2264 -2.7187
 1561TIP3    H226319   3.886   5.448   8.925 -2.5078  2.5415 -0.4736
 1562TIP3   OH226320   4.256   0.129   7.840 -0.1072 -0.8740  0.4849
 1562TIP3    H126321   4.316   0.158   7.909 -0.7531 -0.6404  0.9518
 1562TIP3    H226322   4.223   0.045   7.871 -1.2262 -0.2674  0.9808
 1563TIP3   OH226323   5.047   4.976   0.537  0.5082 -0.3905  0.1944
 1563TIP3    H126324   5.059   4.941   0.448 -1.3663  1.1310 -0.7228
 1563TIP3    H226325   5.100   5.055   0.539 -0.8975  0.5982 -0.2580
 1564TIP3   OH226326   0.526   0.605   8.179 -0.2066 -0.3817  0.8651
 1564TIP3    H126327   0.452   0.663   8.196 -1.0935 -0.5989 -1.8057
 1564TIP3    H226328   0.510   0.528   8.232 -1.7546 -0.2828  0.5647
 1565TIP3   OH226329   1.442   6.434   6.990 -0.0554  0.2512  0.0767
 1565TIP3    H126330   1.492   6.419   6.910  0.1029 -0.1717  0.2527
 1565TIP3    H226331   1.413   6.347   7.017 -1.0041  0.4996 -0.0956
 1566TIP3   OH226332   3.720   0.010   1.742 -0.0595 -0.5937  0.0928
 1566TIP3    H126333   3.744   0.089   1.695 -0.6063 -0.4603  0.0221
 1566TIP3    H226334   3.641  -0.021   1.698 -1.6148  0.4837  1.9089
 1567TIP3   OH226335   5.047   1.368   8.084  0.3932  0.3817  0.4599
 1567TIP3    H126336   4.956   1.368   8.115  0.3449  0.8791  0.3302
 1567TIP3    H226337   5.075   1.276   8.090 -1.0294 -0.3078 -2.2100
 1568TIP3   OH226338   6.100   6.094   8.158 -0.0151 -0.1982  0.3813
 1568TIP3    H126339   6.048   6.021   8.124  1.0039 -0.6576 -0.2831
 1568TIP3    H226340   6.176   6.097   8.099  0.9575  0.0981  1.6231
 1569TIP3   OH226341   0.588   6.536   2.411 -0.1306  0.3605  0.1599
 1569TIP3    H126342   0.671   6.488   2.412  0.4332  1.2724 -0.7127
 1569TIP3    H226343   0.553   6.525   2.499  1.3623  0.7070  0.8363
 1570TIP3   OH226344   6.172   6.236   1.372  0.4139 -0.1283 -0.3017
 1570TIP3    H126345   6.105   6.291   1.333 -0.8265 -0.4182  1.3141
 1570TIP3    H226346   6.127   6.154   1.394  1.0335 -0.0174  1.6020
 1571TIP3   OH226347   1.520   0.690   7.304 -0.2012  0.7387  0.1372
 1571TIP3    H126348   1.566   0.738   7.236  0.5811 -0.5223 -0.2600
 1571TIP3    H226349   1.443   0.653   7.261 -0.4367  1.0514  0.2804
 1572TIP3   OH226350   6.264   2.564   0.519  0.4654 -0.1734 -0.1825
 1572TIP3    H126351   6.244   2.565   0.425  0.2901 -2.4805 -0.2436
 1572TIP3    H226352   6.360   2.566   0.523  0.4942 -0.7018 -0.4607
 1573TIP3   OH226353   5.632   2.275   8.110  0.1631  0.1820  0.2622
 1573TIP3    H126354   5.694   2.202   8.104 -0.2636 -0.2223  0.6677
 1573TIP3    H226355   5.666   2.341   8.049  0.5708 -0.3431 -0.0850
 1574TIP3   OH226356   4.698   1.769   6.920  0.0621 -0.4259  0.2934
 1574TIP3    H126357   4.744   1.851   6.902  0.8583 -0.6627  1.1882
 1574TIP3    H226358   4.765   1.712   6.959  0.6558 -2.9453 -3.8071
 1575TIP3   OH226359   1.032   4.734   7.455  0.1872  0.1415 -0.3714
 1575TIP3    H126360   1.045   4.787   7.377  1.9666 -1.2105 -1.0487
 1575TIP3    H226361   1.118   4.731   7.498 -0.6692  0.5799  1.4805
 1576TIP3   OH226362   3.646   4.786   6.881  0.0333 -0.4308 -0.2046
 1576TIP3    H126363   3.677   4.869   6.843  0.0878 -0.9868 -1.4302
 1576TIP3    H226364   3.707   4.768   6.953  0.0167  0.5885  0.0791
 1577TIP3   OH226365   0.298   4.027   8.858 -0.1606 -0.0676 -0.0701
 1577TIP3    H126366   0.245   4.082   8.800  0.2679  2.6911  1.9306
 1577TIP3    H226367   0.242   4.010   8.934  0.4857 -0.5100  0.3251
 1578TIP3   OH226368   6.505   2.397   8.383 -0.1578  0.0238  0.2337
 1578TIP3    H126369   6.594   2.405   8.418 -0.7006 -0.4965  1.8475
 1578TIP3    H226370   6.494   2.473   8.326  0.9449  0.6860  0.8703
 1579TIP3   OH226371   2.857   0.211   0.322 -0.2220  0.5437  0.0651
 1579TIP3    H126372   2.870   0.304   0.306 -0.9554  0.8938  1.3598
 1579TIP3    H226373   2.768   0.205   0.357  0.2960 -0.4636  1.3016
 1580TIP3   OH226374   1.304   6.768   0.651 -0.1449 -0.2228  0.1829
 1580TIP3    H126375   1.377   6.707   0.655  0.0502  0.0376  3.3817
 1580TIP3    H226376   1.338   6.843   0.603  1.1350 -0.8071  0.1492
 1581TIP3   OH226377   5.749   3.450   0.217 -0.0693 -0.4703 -0.2195
 1581TIP3    H126378   5.661   3.462   0.182  0.7904  0.6871 -2.1871
 1581TIP3    H226379   5.804   3.440   0.140  1.6080 -0.5561  0.9373
 1582TIP3   OH226380   3.278   4.401   7.457 -0.0442  0.4918 -0.5011
 1582TIP3    H126381   3.211   4.469   7.448 -0.7741 -0.3311 -1.5932
 1582TIP3    H226382   3.335   4.415   7.381 -0.1716 -0.0685 -0.7039
 1583TIP3   OH226383   1.592   1.030   8.702  0.7060 -0.0336  0.3141
 1583TIP3    H126384   1.652   1.094   8.740  1.2567 -1.1283  1.3857
 1583TIP3    H226385   1.597   0.955   8.761 -1.1901 -0.4374  0.0363
 1584TIP3   OH226386   4.824   2.517   7.431  0.2480  0.7202 -0.1157
 1584TIP3    H126387   4.739   2.548   7.400  0.3896  0.4134 -0.8354
 1584TIP3    H226388   4.849   2.449   7.369  0.5823  0.1359  0.6418
 1585TIP3   OH226389   3.673   2.888   8.324 -0.3255  0.0292  0.4016
 1585TIP3    H126390   3.625   2.810   8.295 -1.5897 -0.2233  2.9264
 1585TIP3    H226391   3.745   2.853   8.376  1.0278  0.5187 -1.0472
 1586TIP3   OH226392   4.626   3.867   7.676 -0.6543 -0.7418  0.2212
 1586TIP3    H126393   4.633   3.771   7.676 -1.5802 -0.8265  1.4103
 1586TIP3    H226394   4.572   3.887   7.600 -2.0331 -1.3224  1.0102
 1587TIP3   OH226395   4.700   0.547   8.609  0.9187  0.0458 -0.6579
 1587TIP3    H126396   4.648   0.489   8.666  2.9061 -1.4528 -0.2734
 1587TIP3    H226397   4.766   0.585   8.666  0.9812  1.0353 -1.3571
 1588TIP3   OH226398   5.502   6.243   6.973 -0.8563 -0.1660 -0.2853
 1588TIP3    H126399   5.518   6.175   7.038 -0.9253  0.3115  0.2372
 1588TIP3    H226400   5.587   6.254   6.930 -1.0756 -1.2491 -1.0389
 1589TIP3   OH226401   4.242   0.144   8.692 -0.4070  0.0819  0.1692
 1589TIP3    H126402   4.185   0.085   8.741 -0.0857  0.1265  0.5941
 1589TIP3    H226403   4.321   0.093   8.676 -0.1765  0.3569  0.4328
 1590TIP3   OH226404   5.284   1.949   2.536  0.5529  0.2009  0.0753
 1590TIP3    H126405   5.197   1.947   2.496 -0.7103 -0.3150  2.6325
 1590TIP3    H226406   5.315   1.859   2.530  0.4443  0.1594  0.1426
 1591TIP3   OH226407   4.233   1.973   8.351  0.3848  0.5046 -0.3845
 1591TIP3    H126408   4.181   2.044   8.389  2.2341  1.4531  0.5446
 1591TIP3    H226409   4.180   1.894   8.364  0.2516  0.9761  2.9982
 1592TIP3   OH226410   6.280   5.744   8.977  0.2434 -0.2294 -0.4834
 1592TIP3    H126411   6.205   5.780   9.024 -0.2354 -0.9487 -0.6746
 1592TIP3    H226412   6.350   5.740   9.042  0.5967  1.8644 -0.6787
 1593TIP3   OH226413   3.632   5.396   2.338  0.2214  0.3611 -0.2596
 1593TIP3    H126414   3.638   5.428   2.428 -1.0978 -0.8261  0.3013
 1593TIP3    H226415   3.673   5.464   2.285 -1.7173  2.5911  0.9247
 1594TIP3   OH226416   4.230   5.048   8.813 -0.6864  0.1717 -0.0737
 1594TIP3    H126417   4.168   5.004   8.755 -2.1373  1.2003  0.6216
 1594TIP3    H226418   4.271   5.114   8.758 -0.6795 -0.1026 -0.3967
 1595TIP3   OH226419   1.400   2.832   0.091 -0.0436 -0.6446 -0.3959
 1595TIP3    H126420   1.431   2.918   0.122 -0.0885 -0.6306 -0.3893
 1595TIP3    H226421   1.445   2.769   0.147  0.6628 -0.6641 -0.9699
 1596TIP3   OH226422   0.377   3.661   1.995  0.9454  0.0743 -0.2108
 1596TIP3    H126423   0.397   3.649   2.088  0.1378  2.8029  0.3956
 1596TIP3    H226424   0.326   3.584   1.972  1.4010 -0.8059  1.5089
 1597TIP3   OH226425   5.686   1.910   8.891  0.1658 -0.1697  0.1202
 1597TIP3    H126426   5.618   1.855   8.851  2.0645 -1.3857 -1.6579
 1597TIP3    H226427   5.688   1.988   8.836  0.3370 -0.2316  0.0380
 1598TIP3   OH226428   5.500   2.706   8.299 -0.3226  0.1278  0.1248
 1598TIP3    H126429   5.470   2.761   8.371 -1.4808 -0.0164 -0.2275
 1598TIP3    H226430   5.422   2.661   8.269  0.4898 -1.2464 -0.0075
 1599TIP3   OH226431   1.155   5.862   1.530  0.3664  0.4051  0.7839
 1599TIP3    H126432   1.069   5.870   1.490 -0.2155  2.1796  2.2482
 1599TIP3    H226433   1.189   5.951   1.535  2.0354 -0.1837  0.7998
 1600TIP3   OH226434   5.433   3.135   8.119  0.1058 -0.3786 -0.1231
 1600TIP3    H126435   5.446   3.230   8.125  1.3974 -0.6140  1.7151
 1600TIP3    H226436   5.506   3.105   8.064 -1.4028 -0.1772 -2.3953
 1601TIP3   OH226437   5.160   5.243   7.312 -0.4075  0.7914 -0.5658
 1601TIP3    H126438   5.197   5.332   7.316  0.7711  0.3273 -0.6357
 1601TIP3    H226439   5.133   5.224   7.402  0.7742  0.6511 -0.2276
 1602TIP3   OH226440   3.755   4.562   7.763 -0.0945 -0.2178 -0.3893
 1602TIP3    H126441   3.671   4.558   7.809 -1.2357  1.8669 -2.1431
 1602TIP3    H226442   3.817   4.593   7.830 -1.0269 -0.3520  0.5589
 1603TIP3   OH226443   6.536   6.300   1.791 -0.3800  0.4474  0.0835
 1603TIP3    H126444   6.526   6.334   1.880 -0.1359 -1.6915  0.9699
 1603TIP3    H226445   6.623   6.260   1.790 -0.4457  0.2910 -1.0881
 1604TIP3   OH226446   4.769   6.601   1.914 -0.1937  0.0552 -0.1035
 1604TIP3    H126447   4.708   6.599   1.988 -0.5778  0.4034 -0.4042
 1604TIP3    H226448   4.854   6.623   1.953 -0.5534  1.0866  0.1440
 1605TIP3   OH226449   3.562   3.488   8.419 -0.1437 -0.2136 -0.1680
 1605TIP3    H126450   3.517   3.463   8.338 -0.8984 -0.0370  0.1836
 1605TIP3    H226451   3.517   3.568   8.448 -1.1662 -1.2803  1.4033
 1606TIP3   OH226452   5.977   4.013   8.275 -0.0627  0.1277 -0.3863
 1606TIP3    H126453   5.881   4.017   8.276 -0.1456  0.5944  3.0756
 1606TIP3    H226454   5.997   3.923   8.301  0.3625  0.4486  0.4515
 1607TIP3   OH226455   3.442   4.742   8.708 -0.1784  0.1230 -0.0233
 1607TIP3    H126456   3.528   4.700   8.709 -0.5389 -0.6624 -0.5963
 1607TIP3    H226457   3.426   4.768   8.799  0.3104 -0.4440  0.2279
 1608TIP3   OH226458   6.328   6.577   2.263 -0.4575 -0.2968 -0.0487
 1608TIP3    H126459   6.314   6.634   2.339 -1.0056 -1.2902  0.6184
 1608TIP3    H226460   6.420   6.550   2.270 -1.0915 -2.2581  1.6388
 1609TIP3   OH226461   0.738   3.173   8.703 -0.2134 -0.4196  0.1130
 1609TIP3    H126462   0.782   3.133   8.779 -0.3530 -1.2398 -0.2267
 1609TIP3    H226463   0.805   3.228   8.663 -0.7422  1.8906  2.1084
 1610TIP3   OH226464   5.515   4.655   1.277  0.6594 -0.5044 -0.0022
 1610TIP3    H126465   5.589   4.705   1.244  0.1809  0.0933 -0.1821
 1610TIP3    H226466   5.503   4.687   1.367 -0.0190  0.1475 -0.3135
 1611TIP3   OH226467   6.378   2.779   0.061  0.1024 -0.3080  0.2245
 1611TIP3    H126468   6.434   2.854   0.041 -0.3626  0.2468  0.9508
 1611TIP3    H226469   6.344   2.752  -0.024 -0.1194  0.6227  0.0020
 1612TIP3   OH226470   6.675   4.462   8.995 -0.4837 -0.1732 -0.0962
 1612TIP3    H126471   6.623   4.469   8.915 -0.3210 -1.2433 -0.3092
 1612TIP3    H226472   6.721   4.379   8.986  1.6789  0.9551 -0.1624
 1613TIP3   OH226473   5.072   5.548   8.915 -0.1848 -0.0330 -0.5339
 1613TIP3    H126474   5.079   5.458   8.882  1.2797 -0.2210  0.1881
 1613TIP3    H226475   5.074   5.538   9.010 -1.1372  0.6972 -0.4321
 1614TIP3   OH226476   4.268   6.642   1.763 -0.3812 -0.2314 -0.3811
 1614TIP3    H126477   4.178   6.660   1.736 -0.1920 -0.9144 -1.5339
 1614TIP3    H226478   4.261   6.604   1.850 -1.0388  1.8580  0.5256
 1615TIP3   OH226479   2.417   4.470   7.428 -0.4383  0.3936  0.3624
 1615TIP3    H126480   2.465   4.549   7.454 -1.3663  0.6852  1.2695
 1615TIP3    H226481   2.483   4.401   7.424  0.4659  1.2728 -0.8240
 1616TIP3   OH226482   4.072   0.304   7.735 -0.7342  0.1791  0.0651
 1616TIP3    H126483   4.076   0.398   7.748 -0.6309  0.1990 -0.1086
 1616TIP3    H226484   4.153   0.271   7.776 -0.4251  0.2385 -0.4944
 1617TIP3   OH226485   5.831   2.135   0.327 -0.7420  0.0484 -0.1613
 1617TIP3    H126486   5.761   2.140   0.392 -1.0819 -0.4874 -0.4790
 1617TIP3    H226487   5.871   2.049   0.340 -0.4340  0.1734 -0.2767
 1618TIP3   OH226488   6.630   6.067   1.093 -0.1151 -0.0090  0.0155
 1618TIP3    H126489   6.586   6.026   1.019  1.3571  0.6406 -1.2816
 1618TIP3    H226490   6.574   6.048   1.168 -1.2396 -1.3855 -1.1162
 1619TIP3   OH226491   2.978   5.931   1.003 -0.1582  0.1543  0.4272
 1619TIP3    H126492   2.971   5.844   0.964 -0.6183  0.6148 -0.5668
 1619TIP3    H226493   2.968   5.991   0.929 -0.6144  1.0626  1.1985
 1620TIP3   OH226494   6.412   1.768   8.256  0.7519 -0.2127 -0.7151
 1620TIP3    H126495   6.494   1.812   8.278 -0.0668  0.6364  0.7815
 1620TIP3    H226496   6.364   1.763   8.339 -0.1845 -1.8611 -1.2978
 1621TIP3   OH226497   6.315   2.212   8.466  0.1074 -0.0015  0.4848
 1621TIP3    H126498   6.378   2.263   8.415 -2.3036  0.9905 -1.7321
 1621TIP3    H226499   6.263   2.277   8.513 -0.3898 -0.6708  0.8798
 1622TIP3   OH226500   2.431   3.058   0.029 -0.0785  0.6610 -0.2759
 1622TIP3    H126501   2.444   2.967   0.054  0.6122  0.4553 -1.3374
 1622TIP3    H226502   2.379   3.055  -0.051 -1.4501  1.2779  0.5505
 1623TIP3   OH226503   2.351   4.344   8.350  0.1734  0.7770  0.0620
 1623TIP3    H126504   2.342   4.403   8.275 -0.6364  0.6249  0.0333
 1623TIP3    H226505   2.391   4.398   8.418 -1.5773  1.7010  0.4090
 1624TIP3   OH226506   5.500   2.382   7.128 -0.2657  0.1047 -0.4540
 1624TIP3    H126507   5.561   2.331   7.181  1.4241  1.5861 -0.9099
 1624TIP3    H226508   5.473   2.321   7.059 -0.0595 -0.8525  0.2758
 1625TIP3   OH226509   2.901   5.867   7.722 -0.7645 -0.8650  0.2362
 1625TIP3    H126510   2.852   5.827   7.794  0.3024 -1.5718  0.5816
 1625TIP3    H226511   2.907   5.799   7.655 -0.9317 -0.5211 -0.1310
 1626TIP3   OH226512   2.429   3.416   8.387 -0.4183 -0.4274  0.2618
 1626TIP3    H126513   2.472   3.425   8.472 -2.9235 -0.6353  1.6432
 1626TIP3    H226514   2.437   3.323   8.366 -0.2751 -0.4877  0.5736
 1627TIP3   OH226515   3.741   5.871   0.231  1.1289  0.3027 -0.0939
 1627TIP3    H126516   3.751   5.914   0.146 -1.1867  1.1799  0.0228
 1627TIP3    H226517   3.697   5.788   0.210 -0.7000  1.1304  0.3410
 1628TIP3   OH226518   4.464   4.579   8.428 -0.1849 -0.4183 -0.9996
 1628TIP3    H126519   4.418   4.507   8.386 -0.5771 -0.3841 -0.6390
 1628TIP3    H226520   4.517   4.618   8.359 -1.2559  0.0007 -1.6003
 1629TIP3   OH226521   0.561   1.504   7.575 -0.1286  0.2137  0.0373
 1629TIP3    H126522   0.521   1.422   7.547 -1.6503  0.9197  0.0395
 1629TIP3    H226523   0.512   1.530   7.654  1.6983  0.0945  1.2712
 1630TIP3   OH226524   4.984   2.062   0.304  0.0799 -0.2658  0.4398
 1630TIP3    H126525   4.972   2.157   0.297  0.6335 -0.2824 -1.0681
 1630TIP3    H226526   4.989   2.045   0.398 -2.0488  0.9223  0.8213
 1631TIP3   OH226527   1.716   2.124   0.531  0.0556 -0.3854  0.2239
 1631TIP3    H126528   1.694   2.036   0.561 -0.1870 -0.8247 -1.2114
 1631TIP3    H226529   1.632   2.164   0.507  0.3329 -0.4203 -0.8525
 1632TIP3   OH226530   6.489   5.039   8.186  0.2129 -0.2563  0.1540
 1632TIP3    H126531   6.446   4.985   8.119  2.6407  1.6430 -3.3092
 1632TIP3    H226532   6.545   4.978   8.233 -0.6213 -1.4906 -0.3737
 1633TIP3   OH226533   6.368   0.787   1.173 -0.0236  0.2220 -0.3668
 1633TIP3    H126534   6.364   0.818   1.082  0.1504  0.6068 -0.2475
 1633TIP3    H226535   6.280   0.799   1.207  0.7516  4.0869  0.7890
 1634TIP3   OH226536   6.121   4.255   7.227 -0.0953  0.2344 -0.6154
 1634TIP3    H126537   6.119   4.175   7.175 -0.0836 -0.0052 -0.2561
 1634TIP3    H226538   6.073   4.233   7.307  0.1823  0.4869 -0.3737
 1635TIP3   OH226539   4.568   1.379   3.107  0.0585  0.2079  0.6945
 1635TIP3    H126540   4.497   1.317   3.125 -1.2287  1.9742  2.1336
 1635TIP3    H226541   4.527   1.445   3.050  1.4204 -0.2676 -0.8950
 1636TIP3   OH226542   5.416   2.239   8.927 -0.8405 -0.0317 -0.3983
 1636TIP3    H126543   5.407   2.315   8.870 -0.0058  0.2848 -0.1213
 1636TIP3    H226544   5.509   2.236   8.950 -1.0632 -0.4700  0.5086
 1637TIP3   OH226545   1.386   3.704   1.868 -0.4151 -0.6864 -0.4348
 1637TIP3    H126546   1.449   3.761   1.824 -0.3940  0.8518  1.4113
 1637TIP3    H226547   1.430   3.677   1.948 -0.3754 -3.5249 -1.3298
 1638TIP3   OH226548   0.344   1.948   7.852  0.4129  0.6706  0.3709
 1638TIP3    H126549   0.422   1.948   7.795  0.6855 -1.3738  0.6718
 1638TIP3    H226550   0.270   1.949   7.791  0.7070 -0.0728 -0.0209
 1639TIP3   OH226551   0.646   1.796   8.608 -0.1637 -0.2663 -0.6972
 1639TIP3    H126552   0.720   1.754   8.565 -0.1600  0.2064 -1.1554
 1639TIP3    H226553   0.570   1.771   8.556 -0.2998 -0.5639 -0.3594
 1640TIP3   OH226554   0.737   2.625   7.396  0.5377 -0.6083  0.7786
 1640TIP3    H126555   0.726   2.711   7.354 -0.2851  0.6703  3.3985
 1640TIP3    H226556   0.803   2.581   7.343  0.6122  1.4272 -0.9766
 1641TIP3   OH226557   3.882   3.700   2.101 -0.1022 -0.5840  0.1397
 1641TIP3    H126558   3.822   3.748   2.043 -1.3077 -0.9610  1.0232
 1641TIP3    H226559   3.825   3.646   2.155  1.0799 -1.2303  0.7868
 1642TIP3   OH226560   5.915   2.373   1.447 -0.3215  0.4743 -0.5281
 1642TIP3    H126561   5.912   2.467   1.466 -2.4846  0.4469 -0.4607
 1642TIP3    H226562   5.914   2.368   1.351 -0.0692  0.5255 -0.5326
 1643TIP3   OH226563   1.306   5.893   8.533  0.0340  0.5701  0.2141
 1643TIP3    H126564   1.318   5.807   8.574 -0.7314 -0.7991 -2.1970
 1643TIP3    H226565   1.394   5.929   8.527  0.6746 -1.0041 -0.5526
 1644TIP3   OH226566   0.628   2.515   1.130  0.0973 -0.0471  0.1080
 1644TIP3    H126567   0.679   2.596   1.120  2.6651 -1.0485  3.4127
 1644TIP3    H226568   0.574   2.530   1.207 -1.6569 -0.5383 -0.9593
 1645TIP3   OH226569   5.994   2.349   8.003 -0.3188  0.1322  0.2839
 1645TIP3    H126570   6.038   2.394   7.931 -1.5132  1.7536  0.4978
 1645TIP3    H226571   6.060   2.344   8.072 -0.0320  1.2773  0.1188
 1646TIP3   OH226572   0.713   6.688   7.028  0.3402  0.1406  0.3855
 1646TIP3    H126573   0.725   6.669   6.935  1.8738  0.1325  0.5575
 1646TIP3    H226574   0.728   6.782   7.036  1.2514 -0.0249  0.7562
 1647TIP3   OH226575   2.426   2.368   0.004  0.2846 -0.2310 -0.1654
 1647TIP3    H126576   2.498   2.306  -0.010  0.7130 -0.0323  1.0778
 1647TIP3    H226577   2.469   2.452   0.016 -0.3068  0.4195 -2.1585
 1648TIP3   OH226578   1.610   2.531   1.881 -0.6063  0.6583 -0.7022
 1648TIP3    H126579   1.546   2.483   1.935 -1.5700  1.3242 -1.2168
 1648TIP3    H226580   1.636   2.605   1.935  0.3717 -0.0494 -0.1722
 1649TIP3   OH226581   2.660   6.224   8.924 -0.3089  0.1654  0.3541
 1649TIP3    H126582   2.746   6.188   8.903 -0.2817  0.6705 -0.4565
 1649TIP3    H226583   2.672   6.266   9.010  0.4588  0.8889 -0.0986
 1650TIP3   OH226584   1.482   3.502   0.693 -0.0246 -0.2249  0.2584
 1650TIP3    H126585   1.560   3.456   0.724  0.7651  0.2342 -0.9743
 1650TIP3    H226586   1.415   3.434   0.687  1.0274 -1.1994 -1.1989
 1651TIP3   OH226587   1.418   2.759   1.545  0.1436 -0.0426  0.1178
 1651TIP3    H126588   1.376   2.823   1.488 -0.6780 -2.5989 -2.3515
 1651TIP3    H226589   1.348   2.732   1.606  0.6350  1.6465  1.5260
 1652TIP3   OH226590   2.574   0.500   9.003 -0.1449 -0.2706  0.2870
 1652TIP3    H126591   2.562   0.441   9.076 -0.8421 -1.0402 -0.4310
 1652TIP3    H226592   2.662   0.482   8.971 -0.3438 -0.9063  0.0918
 1653TIP3   OH226593   1.091   2.182   1.407 -0.1140 -0.0060 -0.8048
 1653TIP3    H126594   1.029   2.180   1.334 -0.3480 -0.2925 -0.6011
 1653TIP3    H226595   1.039   2.212   1.482  0.0252 -0.1126 -0.6637
 1654TIP3   OH226596   1.712   4.757   0.708  0.3785  0.2493 -0.5819
 1654TIP3    H126597   1.739   4.835   0.658  0.5433  1.3058  1.0709
 1654TIP3    H226598   1.767   4.759   0.786 -1.0576 -0.3529  0.4862
 1655TIP3   OH226599   2.604   0.523   7.294 -0.0182  0.2655 -0.2289
 1655TIP3    H126600   2.644   0.597   7.247 -1.4500  0.8665 -0.5664
 1655TIP3    H226601   2.676   0.484   7.343  1.4237 -0.0073 -2.4102
 1656TIP3   OH226602   5.181   2.406   0.529  0.2018 -0.5503 -0.1849
 1656TIP3    H126603   5.108   2.409   0.591 -0.2057  0.5885 -0.6885
 1656TIP3    H226604   5.139   2.417   0.443  0.8933 -0.6424 -0.5386
 1657TIP3   OH226605   5.152   2.452   7.357  0.2604 -0.0051  0.1224
 1657TIP3    H126606   5.179   2.539   7.329  0.6598  0.4430  1.7899
 1657TIP3    H226607   5.185   2.394   7.289  2.6004  0.8734  0.4083
 1658TIP3   OH226608   2.543   1.929   2.569 -0.6024 -0.1760 -0.4804
 1658TIP3    H126609   2.447   1.939   2.568 -0.4303  2.5786  0.6118
 1658TIP3    H226610   2.564   1.906   2.659 -0.1309  1.5027 -0.1298
 1659TIP3   OH226611   2.649   2.107   2.241 -0.6236  0.5871  0.4990
 1659TIP3    H126612   2.568   2.072   2.278 -0.6837  1.2461  0.9940
 1659TIP3    H226613   2.717   2.045   2.269 -0.5509  1.4366  2.3301
 1660TIP3   OH226614   4.153   4.107   1.353 -0.2589  0.0887  0.0659
 1660TIP3    H126615   4.232   4.160   1.364  0.0466 -0.1700 -0.8673
 1660TIP3    H226616   4.110   4.143   1.276 -1.1155  0.2889  0.6187
 1661TIP3   OH226617   4.180   6.525   0.892 -0.3709 -0.2839  0.0788
 1661TIP3    H126618   4.134   6.472   0.827  2.0847 -1.0640 -1.1548
 1661TIP3    H226619   4.193   6.609   0.849  2.0881 -1.0944 -0.9739
 1662TIP3   OH226620   4.947   0.946   1.343  0.1065 -0.2526  0.2108
 1662TIP3    H126621   4.883   0.992   1.288 -0.2093 -0.1233  0.6789
 1662TIP3    H226622   4.995   0.891   1.282 -0.1476 -0.0101 -0.2189
 1663TIP3   OH226623   4.014   4.312   1.520  0.0889 -0.5511 -0.0242
 1663TIP3    H126624   4.037   4.389   1.468  0.0520 -0.0193  0.7351
 1663TIP3    H226625   4.071   4.242   1.487 -1.5662 -0.8808 -2.4228
 1664TIP3   OH226626   1.172   1.463   0.485 -0.1508  0.7416 -0.1548
 1664TIP3    H126627   1.194   1.383   0.534 -1.2563  0.9860  0.7841
 1664TIP3    H226628   1.096   1.438   0.432  0.4829  0.7382 -1.0776
 1665TIP3   OH226629   3.847   6.539   8.507 -0.5811  0.3914  0.0363
 1665TIP3    H126630   3.941   6.530   8.523  0.4255  3.7105 -2.8328
 1665TIP3    H226631   3.833   6.497   8.422 -2.1470 -1.4356  1.1051
 1666TIP3   OH226632   5.490   0.941   7.608 -0.3283 -0.1812  0.1794
 1666TIP3    H126633   5.403   0.923   7.643 -1.0192 -1.2350 -1.9155
 1666TIP3    H226634   5.479   1.020   7.555  0.5958  1.1216  1.8128
 1667TIP3   OH226635   5.746   0.687   2.381  0.2193  0.1199 -0.2531
 1667TIP3    H126636   5.706   0.710   2.297 -1.2228  0.1778  0.4155
 1667TIP3    H226637   5.730   0.593   2.391 -0.6691  0.3256  0.4608
 1668TIP3   OH226638   0.262   2.245   8.290 -0.7105  0.3558 -0.9476
 1668TIP3    H126639   0.246   2.265   8.198 -0.8837 -0.1483 -1.0299
 1668TIP3    H226640   0.344   2.195   8.289 -1.6367 -1.2221 -1.0275
 1669TIP3   OH226641   0.862   0.817   1.566  0.4364 -0.3198 -0.1335
 1669TIP3    H126642   0.928   0.866   1.517 -1.9990  1.7860 -1.6043
 1669TIP3    H226643   0.779   0.852   1.534 -1.4950 -4.0368  0.2683
 1670TIP3   OH226644   4.328   3.198   7.853  0.0909 -0.2263  0.1846
 1670TIP3    H126645   4.380   3.121   7.831 -0.1105 -0.5816  0.9235
 1670TIP3    H226646   4.239   3.176   7.824  0.1491 -0.0193 -0.1626
 1671TIP3   OH226647   6.744   4.444   6.493 -0.0223 -0.0443 -0.7066
 1671TIP3    H126648   6.676   4.462   6.558 -0.3490  0.8172 -1.2877
 1671TIP3    H226649   6.701   4.455   6.409  0.5616 -0.5774 -1.0839
 1672TIP3   OH226650   2.229   3.548   8.202 -0.0638  0.5265 -0.5919
 1672TIP3    H126651   2.268   3.559   8.115  1.1750 -0.6330 -0.2101
 1672TIP3    H226652   2.238   3.455   8.221 -1.6470  0.4999  0.1917
 1673TIP3   OH226653   3.883   4.271   8.056 -0.7994 -0.5326 -0.1101
 1673TIP3    H126654   3.811   4.230   8.104 -0.3995 -1.2688 -0.1264
 1673TIP3    H226655   3.868   4.365   8.065  0.4106 -0.5339  3.2462
 1674TIP3   OH226656   0.438   6.164   8.275 -0.3993  0.3801 -0.1420
 1674TIP3    H126657   0.481   6.203   8.199 -0.4820  1.1504  0.1897
 1674TIP3    H226658   0.506   6.112   8.317 -0.3325  0.0168 -0.6983
 1675TIP3   OH226659   2.351   0.887   7.508  0.3436 -0.4877  0.1434
 1675TIP3    H126660   2.417   0.949   7.537  0.1008 -0.1486 -0.0234
 1675TIP3    H226661   2.336   0.909   7.416  0.4224 -0.9432  0.0179
 1676TIP3   OH226662   5.103   2.331   8.749  0.0099  0.1206  0.5778
 1676TIP3    H126663   5.018   2.371   8.731  0.0104 -0.4715 -0.8552
 1676TIP3    H226664   5.089   2.237   8.737  1.3005  0.1640 -1.7842
 1677TIP3   OH226665   3.800   1.772   7.169  0.6641 -0.1536 -0.4575
 1677TIP3    H126666   3.820   1.680   7.154  0.8776  0.0253 -1.3010
 1677TIP3    H226667   3.886   1.814   7.175  0.6570 -0.3286  2.2014
 1678TIP3   OH226668   1.457   5.839   1.968  0.1441 -0.1543 -0.2143
 1678TIP3    H126669   1.503   5.870   1.890 -0.4966  0.7373 -0.2473
 1678TIP3    H226670   1.484   5.747   1.976  0.0993 -0.3115 -1.5667
 1679TIP3   OH226671   5.939   5.214   2.436  0.2417  0.1914  0.1002
 1679TIP3    H126672   5.891   5.132   2.454  0.7641  0.2474  1.8762
 1679TIP3    H226673   5.882   5.261   2.376 -1.1087 -0.5326  0.7565
 1680TIP3   OH226674   2.210   6.755   7.562 -0.4512  0.0115 -0.4450
 1680TIP3    H126675   2.279   6.820   7.558  0.3709 -0.8313 -0.2756
 1680TIP3    H226676   2.253   6.675   7.594 -1.1987 -0.9040 -1.6168
 1681TIP3   OH226677   5.065   3.052   0.273  0.0863 -0.0432  0.1753
 1681TIP3    H126678   5.129   3.123   0.269 -1.9248  1.7951 -0.7276
 1681TIP3    H226679   5.020   3.065   0.356  0.1182 -0.6653  0.2935
 1682TIP3   OH226680   5.497   5.224   7.971 -0.1465 -0.0778  0.3495
 1682TIP3    H126681   5.582   5.184   7.955 -0.0592  0.1064  0.3544
 1682TIP3    H226682   5.517   5.312   8.003 -0.3387 -0.0083  0.2817
 1683TIP3   OH226683   4.549   3.755   8.619  0.0735  0.5080 -0.2407
 1683TIP3    H126684   4.631   3.793   8.652 -1.1240  2.2667  0.8402
 1683TIP3    H226685   4.570   3.663   8.603  2.6111  1.1724 -1.2176
 1684TIP3   OH226686   3.673   5.211   2.881  0.3165 -0.3732  0.0511
 1684TIP3    H126687   3.648   5.119   2.871 -0.1193 -0.6428  2.6582
 1684TIP3    H226688   3.628   5.238   2.962  3.4561  0.9707  1.5060
 1685TIP3   OH226689   0.693   1.322   0.167 -0.6933 -0.0683  0.0680
 1685TIP3    H126690   0.652   1.408   0.177  0.8311  0.9857 -2.0320
 1685TIP3    H226691   0.780   1.333   0.205 -1.2729 -1.4537  1.9453
 1686TIP3   OH226692   5.230   0.905   0.748  0.1675 -0.7143  0.1087
 1686TIP3    H126693   5.267   0.875   0.664 -0.8081 -0.2707 -0.4923
 1686TIP3    H226694   5.143   0.866   0.751  0.0629 -0.4356  0.7599
 1687TIP3   OH226695   3.137   2.348   1.949  0.0194  0.2354 -0.0591
 1687TIP3    H126696   3.122   2.259   1.982  0.8686 -0.1114 -0.5559
 1687TIP3    H226697   3.223   2.372   1.986  0.1466  0.5437 -0.5447
 1688TIP3   OH226698   0.211   2.096   7.485 -0.0508 -1.0848  0.3141
 1688TIP3    H126699   0.215   2.109   7.580 -0.2063  0.4632  0.1316
 1688TIP3    H226700   0.245   2.177   7.448 -1.5048 -1.0110 -0.9710
 1689TIP3   OH226701   5.026   2.520   7.051 -0.2453  0.0400  0.8274
 1689TIP3    H126702   5.072   2.596   7.086  1.2860  0.1140 -1.1566
 1689TIP3    H226703   5.081   2.445   7.075 -0.2864 -0.1210  0.4392
 1690TIP3   OH226704   0.305   3.548   8.140 -0.4678  0.0446  0.2294
 1690TIP3    H126705   0.323   3.629   8.187  1.5523 -1.1802  1.6948
 1690TIP3    H226706   0.304   3.574   8.047 -0.3056  1.8023  0.6871
 1691TIP3   OH226707   5.052   2.616   7.926  0.1692  0.1047 -0.1113
 1691TIP3    H126708   5.011   2.558   7.991  1.4196 -1.2965 -0.5135
 1691TIP3    H226709   5.124   2.564   7.890  3.0864  2.7536  1.3372
 1692TIP3   OH226710   2.742   0.729   0.793  0.5724  0.0900 -0.0779
 1692TIP3    H126711   2.795   0.652   0.772  0.5111  0.5676 -2.1774
 1692TIP3    H226712   2.804   0.801   0.796  0.3605  0.2782 -0.1995
 1693TIP3   OH226713   4.452   4.006   2.345  0.0462 -0.0744 -0.0349
 1693TIP3    H126714   4.426   3.927   2.393 -0.8519 -1.2571 -2.3449
 1693TIP3    H226715   4.531   3.979   2.298 -1.2233 -0.1940 -2.1861
 1694TIP3   OH226716   3.449   0.832   8.698  0.0423 -0.1715  0.6164
 1694TIP3    H126717   3.415   0.914   8.663 -0.1269 -0.3507  0.3554
 1694TIP3    H226718   3.400   0.819   8.780  0.2993  0.1473  0.8223
 1695TIP3   OH226719   0.415   4.011   1.100 -0.3339 -0.2771  0.1427
 1695TIP3    H126720   0.428   3.919   1.076  1.6755  0.1864 -0.7365
 1695TIP3    H226721   0.502   4.042   1.125 -1.3259  0.8551  2.5310
 1696TIP3   OH226722   6.523   4.876   7.096  0.3535 -0.4297  0.5753
 1696TIP3    H126723   6.534   4.792   7.141 -1.4668 -0.3663  1.2063
 1696TIP3    H226724   6.477   4.854   7.015 -1.2023  0.0538  1.2910
 1697TIP3   OH226725   1.582   0.529   7.811 -0.1989  0.0077 -0.3322
 1697TIP3    H126726   1.517   0.590   7.777  0.6084  0.5610 -0.9515
 1697TIP3    H226727   1.561   0.445   7.769 -1.1767 -0.1077  0.3496
 1698TIP3   OH226728   0.776   3.243   1.055 -0.1059 -0.5055 -0.9725
 1698TIP3    H126729   0.702   3.297   1.028 -0.1377 -0.9463 -1.7762
 1698TIP3    H226730   0.773   3.166   0.998  0.1235 -1.2168 -0.0521
 1699TIP3   OH226731   1.733   3.819   2.021  0.1237  0.0432 -0.0336
 1699TIP3    H126732   1.701   3.858   1.939 -1.6774  0.6954  0.9313
 1699TIP3    H226733   1.669   3.751   2.042  0.0419  0.5084  1.3125
 1700TIP3   OH226734   3.161   2.257   7.156 -0.3524  0.1448  0.3320
 1700TIP3    H126735   3.145   2.163   7.148 -0.0958  0.1255  0.0478
 1700TIP3    H226736   3.095   2.286   7.220 -2.0866  0.2110 -1.3994
 1701TIP3   OH226737   5.612   5.520   6.980 -0.0641  0.4026 -0.1652
 1701TIP3    H126738   5.642   5.599   7.025 -1.4222 -0.1790  1.8724
 1701TIP3    H226739   5.686   5.460   6.984  0.2779  0.8415  0.1249
 1702TIP3   OH226740   5.572   6.247   6.646  0.3187  0.1466 -0.0205
 1702TIP3    H126741   5.599   6.186   6.577 -1.2745 -0.2492 -0.3305
 1702TIP3    H226742   5.642   6.243   6.711  0.4994 -1.6166 -0.2799
 1703TIP3   OH226743   4.749   2.865   2.124  0.2119 -0.6828 -0.5459
 1703TIP3    H126744   4.773   2.786   2.173 -1.1203 -0.4855  0.4981
 1703TIP3    H226745   4.781   2.937   2.177 -1.4287 -0.4601  0.2043
 1704TIP3   OH226746   0.522   5.518   1.923 -0.5027  0.3618  0.4270
 1704TIP3    H126747   0.617   5.525   1.916 -0.3857  0.4683  1.8065
 1704TIP3    H226748   0.508   5.454   1.993 -1.4529  0.0658 -0.0209
 1705TIP3   OH226749   4.917   3.009   0.502 -0.1394 -0.4053 -0.0674
 1705TIP3    H126750   4.848   3.065   0.538 -0.4473 -0.0062 -1.2371
 1705TIP3    H226751   4.884   2.920   0.514 -1.2518 -0.1995 -1.3031
 1706TIP3   OH226752   6.093   1.516   8.586  0.5250  0.0612  0.3046
 1706TIP3    H126753   6.038   1.460   8.640  1.3663 -0.4528  0.6441
 1706TIP3    H226754   6.033   1.582   8.551 -0.0955  0.2140  1.6046
 1707TIP3   OH226755   2.067   4.603   8.046  0.0708 -0.3353  0.1404
 1707TIP3    H126756   1.971   4.598   8.046  0.0665 -0.2593  0.4648
 1707TIP3    H226757   2.089   4.635   8.133  0.4250 -0.9959  0.3030
 1708TIP3   OH226758   5.077   6.400   7.418 -0.3397  0.1298 -0.6385
 1708TIP3    H126759   5.061   6.327   7.479  0.8347  0.3338 -0.0528
 1708TIP3    H226760   5.170   6.393   7.396 -0.3084  1.1936 -0.9163
 1709TIP3   OH226761   3.528   5.714   1.975 -0.0260  0.1023  0.2750
 1709TIP3    H126762   3.595   5.685   2.036 -0.1734 -1.6089 -0.3034
 1709TIP3    H226763   3.493   5.632   1.938 -1.8476  0.9745 -0.0443
 1710TIP3   OH226764   6.716   2.805   8.246  0.6506  0.3575 -0.0644
 1710TIP3    H126765   6.718   2.713   8.220  0.2044  0.2089  0.4144
 1710TIP3    H226766   6.796   2.842   8.208 -0.2452  0.2964 -2.1828
 1711TIP3   OH226767   4.517   3.507   0.924 -1.0664  0.0111  0.6611
 1711TIP3    H126768   4.480   3.593   0.906  1.5406  0.7866 -1.5078
 1711TIP3    H226769   4.472   3.448   0.863 -0.1185  0.6150 -0.6701
 1712TIP3   OH226770   0.987   3.430   1.728 -0.5367  0.0627  0.0140
 1712TIP3    H126771   1.014   3.511   1.686  0.6835 -0.2565  0.1432
 1712TIP3    H226772   1.037   3.362   1.683  1.3703 -0.2331  2.3589
 1713TIP3   OH226773   1.421   5.482   0.245  0.1012  0.3367 -0.0937
 1713TIP3    H126774   1.346   5.456   0.298 -0.2061  1.5583  0.1114
 1713TIP3    H226775   1.401   5.572   0.218  1.3291  0.5547 -0.3351
 1714TIP3   OH226776   0.127   5.311   7.715 -0.4147 -0.0801  0.1217
 1714TIP3    H126777   0.202   5.346   7.763 -0.0937 -1.9780  1.0752
 1714TIP3    H226778   0.124   5.363   7.634 -0.2872  2.4271  1.6291
 1715TIP3   OH226779   5.281   5.315   2.535  0.8150 -0.1051 -0.1376
 1715TIP3    H126780   5.241   5.387   2.486  0.0346  0.2036  0.9338
 1715TIP3    H226781   5.210   5.252   2.549  1.3893 -0.9035 -0.6852
 1716TIP3   OH226782   0.131   6.452   1.734 -0.0535  0.1063 -0.4513
 1716TIP3    H126783   0.070   6.380   1.719  0.0578 -0.2308  0.6292
 1716TIP3    H226784   0.216   6.417   1.708  0.3754 -0.9705  2.0716
 1717TIP3   OH226785   0.185   6.343   7.388 -0.1004  0.1288 -0.2069
 1717TIP3    H126786   0.099   6.366   7.421  0.2236  1.0701  0.0190
 1717TIP3    H226787   0.184   6.248   7.380  0.5943 -0.5690  4.9184
 1718TIP3   OH226788   0.580   5.414   8.251  0.9729  0.2189  0.1827
 1718TIP3    H126789   0.648   5.408   8.318  0.6363 -0.7717  0.4442
 1718TIP3    H226790   0.576   5.327   8.213  0.8898  0.6744 -0.8735
 1719TIP3   OH226791   5.204   4.311   8.264 -0.6126 -0.2375  0.4627
 1719TIP3    H126792   5.245   4.227   8.242 -0.1836 -0.3168  1.5120
 1719TIP3    H226793   5.252   4.376   8.212 -0.1185 -0.4990  0.5859
 1720TIP3   OH226794   2.094   0.929   0.155  0.1700  0.1456  0.4537
 1720TIP3    H126795   2.121   0.903   0.243 -0.1159  1.5605  0.9955
 1720TIP3    H226796   2.175   0.927   0.103  1.0155  2.2880  1.5368
 1721TIP3   OH226797   0.735   6.685   2.154  0.7124 -0.4833  0.1752
 1721TIP3    H126798   0.719   6.601   2.110 -1.0573  0.1508 -0.4633
 1721TIP3    H226799   0.819   6.672   2.199 -0.9355 -3.6563  2.7401
 1722TIP3   OH226800   3.445   0.236   0.958  0.1355 -0.4962 -0.5930
 1722TIP3    H126801   3.525   0.226   1.011  1.0900  2.8449 -1.1995
 1722TIP3    H226802   3.376   0.201   1.014  1.5214  0.0059  1.5839
 1723TIP3   OH226803   3.824   2.333   0.848 -0.1663 -0.1091  0.3674
 1723TIP3    H126804   3.804   2.301   0.760 -1.2020 -0.6875  0.7978
 1723TIP3    H226805   3.742   2.322   0.897  0.5190 -0.2104  1.5231
 1724TIP3   OH226806   5.607   1.359   7.471 -0.1209  0.1490 -0.1194
 1724TIP3    H126807   5.642   1.329   7.555  1.2033 -0.4956 -0.8631
 1724TIP3    H226808   5.683   1.397   7.426 -1.0825  1.7542 -0.4985
 1725TIP3   OH226809   4.533   6.322   1.449 -0.3113 -0.0410  0.3815
 1725TIP3    H126810   4.494   6.369   1.522 -2.6957 -1.8126  0.3882
 1725TIP3    H226811   4.505   6.370   1.371 -2.2064 -0.9651  0.4222
 1726TIP3   OH226812   0.373   5.948   8.127 -0.1999 -0.6419 -0.1938
 1726TIP3    H126813   0.435   5.968   8.057 -1.1697 -0.3401 -1.0098
 1726TIP3    H226814   0.390   6.014   8.194  0.2962 -0.5037 -0.4531
 1727TIP3   OH226815   2.971   1.714   8.550 -0.3114 -0.0904 -0.4112
 1727TIP3    H126816   2.980   1.644   8.614 -2.6195 -0.9232 -0.9117
 1727TIP3    H226817   3.060   1.750   8.542  1.0827 -3.2188 -0.4983
 1728TIP3   OH226818   1.643   2.155   8.476  0.1826  0.6642 -0.2071
 1728TIP3    H126819   1.615   2.068   8.446 -0.5953  0.8338  0.0035
 1728TIP3    H226820   1.738   2.154   8.467  0.4212 -0.9881  1.7895
 1729TIP3   OH226821   4.735   2.058   7.204  0.3633 -0.7579 -0.2256
 1729TIP3    H126822   4.790   2.119   7.253 -0.0015 -0.5288 -0.0977
 1729TIP3    H226823   4.698   2.111   7.133 -0.1035 -0.7787 -0.0033
 1730TIP3   OH226824   5.206   2.340   7.903 -0.3967  0.2948 -0.8531
 1730TIP3    H126825   5.192   2.336   7.808 -0.6706  1.9602 -0.9001
 1730TIP3    H226826   5.295   2.375   7.913  0.5411 -1.9955 -0.4712
 1731TIP3   OH226827   3.495   5.976   8.116  0.4434  0.2948 -0.3770
 1731TIP3    H126828   3.431   6.026   8.066 -0.0669 -1.0734 -1.1249
 1731TIP3    H226829   3.445   5.909   8.162  1.4835 -2.5588 -3.0885
 1732TIP3   OH226830   4.214   5.851   0.206 -0.6226  0.7984 -0.4452
 1732TIP3    H126831   4.150   5.922   0.213 -1.3818  0.0700  0.2732
 1732TIP3    H226832   4.210   5.807   0.291  0.6841  0.5974 -0.4614
 1733TIP3   OH226833   5.385   4.115   1.065 -0.7335  0.3091 -0.0506
 1733TIP3    H126834   5.358   4.111   0.973  1.4584  1.0194 -0.7775
 1733TIP3    H226835   5.324   4.178   1.105 -2.5503 -0.9885 -0.6341
 1734TIP3   OH226836   2.270   5.065   2.398 -0.1775  0.2035 -0.2540
 1734TIP3    H126837   2.255   5.003   2.327  1.0450  1.1771 -1.4112
 1734TIP3    H226838   2.186   5.110   2.408 -1.3539 -2.1157  1.1816
 1735TIP3   OH226839   4.478   3.850   1.395  0.3383 -0.2178  0.0013
 1735TIP3    H126840   4.382   3.844   1.398  0.2838 -0.6145 -1.5034
 1735TIP3    H226841   4.494   3.939   1.364  0.3949 -0.5936 -1.0910
 1736TIP3   OH226842   4.205   4.871   0.479 -0.2161 -0.1546  0.4520
 1736TIP3    H126843   4.199   4.960   0.512 -1.7945 -0.1067  0.1408
 1736TIP3    H226844   4.205   4.880   0.384 -3.4231 -0.5043  0.2954
 1737TIP3   OH226845   3.776   1.790   1.774 -0.1617  0.4053 -0.8585
 1737TIP3    H126846   3.770   1.854   1.844  1.3662 -0.0683 -0.2706
 1737TIP3    H226847   3.789   1.706   1.819  2.4595  0.2907 -1.6760
 1738TIP3   OH226848   5.525   4.624   0.957 -0.0387 -0.1671 -0.9714
 1738TIP3    H126849   5.485   4.710   0.948 -1.1148 -0.6838 -1.3138
 1738TIP3    H226850   5.519   4.604   1.051  1.2411  0.5919 -0.7097
 1739TIP3   OH226851   2.836   6.163   7.703 -0.5532  0.4445 -0.2143
 1739TIP3    H126852   2.844   6.184   7.610  2.1920  0.0238 -0.1560
 1739TIP3    H226853   2.822   6.069   7.706  0.3533  0.2980 -0.2182
 1740TIP3   OH226854   5.363   2.411   8.477 -0.0486  0.6409 -0.2889
 1740TIP3    H126855   5.396   2.321   8.469  0.4387  0.8821 -1.1425
 1740TIP3    H226856   5.313   2.425   8.396 -2.2156  0.3270  0.9074
 1741TIP3   OH226857   0.302   4.359   8.416  0.0326 -0.1998  0.0330
 1741TIP3    H126858   0.212   4.339   8.391  0.2781 -0.6187 -0.5478
 1741TIP3    H226859   0.354   4.337   8.339  0.8429 -1.7591  0.9567
 1742TIP3   OH226860   3.615   4.233   7.252  0.7878 -0.6618  0.2737
 1742TIP3    H126861   3.571   4.307   7.209 -1.9804 -1.4585  1.5495
 1742TIP3    H226862   3.596   4.244   7.345  0.1761 -3.0327  0.4908
 1743TIP3   OH226863   0.476   2.757   1.852 -0.5239  0.1356 -0.6778
 1743TIP3    H126864   0.494   2.665   1.871  1.4399  0.5768 -0.1625
 1743TIP3    H226865   0.487   2.801   1.936  1.9903  1.2720 -1.5295
 1744TIP3   OH226866   3.752   4.574   8.103 -0.2626 -0.0983  0.0765
 1744TIP3    H126867   3.665   4.598   8.070 -1.3220 -2.0717  1.2637
 1744TIP3    H226868   3.767   4.633   8.177 -0.9002 -0.2192  0.3056
 1745TIP3   OH226869   2.897   3.385   0.157  0.1583  0.2651 -0.3359
 1745TIP3    H126870   2.898   3.457   0.094  2.0319  1.1170  0.5942
 1745TIP3    H226871   2.928   3.424   0.238 -2.4236 -0.7435  1.2528
 1746TIP3   OH226872   2.459   6.196   1.702  0.2210 -0.1148 -0.0076
 1746TIP3    H126873   2.432   6.248   1.777  0.2489 -0.9192  0.5714
 1746TIP3    H226874   2.379   6.178   1.654  0.0572 -0.5032  0.4135
 1747TIP3   OH226875   6.059   6.181   0.802 -0.3728  0.8919  0.1187
 1747TIP3    H126876   6.070   6.258   0.857  0.7739  0.6535  0.2451
 1747TIP3    H226877   5.988   6.131   0.843 -1.4491  2.0732 -0.2189
 1748TIP3   OH226878   5.888   0.872   7.092  0.5273 -0.2314  0.4058
 1748TIP3    H126879   5.932   0.836   7.015  1.3011  0.3713  0.5596
 1748TIP3    H226880   5.804   0.903   7.060  1.6824  2.0207 -0.6784
 1749TIP3   OH226881   0.138   4.343   8.113  0.0378 -0.1721  0.1366
 1749TIP3    H126882   0.216   4.385   8.077 -0.8988  0.4934 -1.1646
 1749TIP3    H226883   0.083   4.324   8.037 -0.8494 -1.1109  0.9817
 1750TIP3   OH226884   5.433   2.502   7.926 -0.1903  0.1281  0.5911
 1750TIP3    H126885   5.519   2.480   7.891  0.3582  0.8790  1.4334
 1750TIP3    H226886   5.424   2.597   7.911 -0.1418  0.3778  2.0170
 1751TIP3   OH226887   2.757   1.427   1.574 -0.4865  0.0303  0.6125
 1751TIP3    H126888   2.816   1.378   1.631 -0.1104  0.0068  0.2095
 1751TIP3    H226889   2.743   1.510   1.620  0.4754  0.3464  0.3585
 1752TIP3   OH226890   0.763   1.943   1.289 -0.1902 -0.5019 -0.0657
 1752TIP3    H126891   0.797   1.859   1.319 -0.6421 -0.4853  0.5100
 1752TIP3    H226892   0.753   1.995   1.369 -0.5664 -0.1411 -0.3444
 1753TIP3   OH226893   5.256   3.561   8.811 -0.2808 -0.1135  0.2236
 1753TIP3    H126894   5.209   3.499   8.868  0.5574 -1.3115 -0.3384
 1753TIP3    H226895   5.249   3.523   8.723  0.5126  0.4314 -0.0907
 1754TIP3   OH226896   0.593   5.413   7.717  0.0096 -0.2713 -0.1707
 1754TIP3    H126897   0.661   5.480   7.716 -0.9930  0.7903  0.4776
 1754TIP3    H226898   0.566   5.405   7.625 -0.8143  1.2360 -0.0893
 1755TIP3   OH226899   4.828   6.717   8.665 -0.4005 -0.1396 -0.2371
 1755TIP3    H126900   4.881   6.687   8.739  2.5918 -0.7824 -2.4171
 1755TIP3    H226901   4.858   6.806   8.649 -0.8868 -0.0645 -0.7507
 1756TIP3   OH226902   2.300   6.455   7.346 -0.3758  0.2552  0.0705
 1756TIP3    H126903   2.365   6.415   7.288 -1.1520 -0.3592 -0.3866
 1756TIP3    H226904   2.229   6.483   7.288 -2.6163 -3.1239  0.8976
 1757TIP3   OH226905   3.302   6.707   1.029  0.2083  0.4549  0.1566
 1757TIP3    H126906   3.259   6.792   1.034  1.1167  0.9172  0.3786
 1757TIP3    H226907   3.312   6.680   1.120  0.8045  0.5851  0.1385
 1758TIP3   OH226908   2.520   1.761   0.202  0.1506 -0.1219  0.2984
 1758TIP3    H126909   2.502   1.725   0.289 -1.5459 -0.3337 -0.0953
 1758TIP3    H226910   2.511   1.855   0.213 -2.1634 -0.2314 -0.0003
 1759TIP3   OH226911   1.050   0.550   0.066 -0.1171  0.1131  0.2074
 1759TIP3    H126912   1.031   0.458   0.047  1.6817 -0.3369  0.4560
 1759TIP3    H226913   1.016   0.597  -0.010  2.9244 -1.2254 -2.1991
 1760TIP3   OH226914   4.949   5.234   0.338  0.0368  0.3227  0.3353
 1760TIP3    H126915   4.942   5.140   0.322  1.6195  0.0490  1.0246
 1760TIP3    H226916   4.859   5.261   0.358 -0.4314 -1.0732  0.2791
 1761TIP3   OH226917   0.971   0.086   1.020  0.1775 -0.2637 -0.3610
 1761TIP3    H126918   0.943   0.017   1.080  0.0487  0.5365  0.5449
 1761TIP3    H226919   1.010   0.041   0.946  1.1752 -1.2729  0.7547
 1762TIP3   OH226920   1.134   0.194   6.922  0.5139 -0.5001 -0.3523
 1762TIP3    H126921   1.223   0.168   6.944  0.9318  1.8127  1.1055
 1762TIP3    H226922   1.131   0.193   6.826  2.7748  1.1690 -0.5382
 1763TIP3   OH226923   6.734   4.511   0.294 -0.1241  0.0788 -0.1592
 1763TIP3    H126924   6.649   4.489   0.255 -0.6000  1.4506  0.0589
 1763TIP3    H226925   6.739   4.457   0.373 -1.4980  1.0566  0.6529
 1764TIP3   OH226926   5.764   0.550   8.195  0.4378  0.5186 -0.3696
 1764TIP3    H126927   5.680   0.512   8.222  0.5683  0.1740 -0.4457
 1764TIP3    H226928   5.829   0.505   8.249  0.6877 -0.0744 -1.1577
 1765TIP3   OH226929   0.172   4.778   1.755  0.3339 -0.0633 -0.3408
 1765TIP3    H126930   0.077   4.765   1.761  0.3911  0.3376  1.9339
 1765TIP3    H226931   0.184   4.823   1.671 -1.4901  0.0601 -0.5804
 1766TIP3   OH226932   4.461   5.695   1.894 -0.3120 -0.1856 -0.4167
 1766TIP3    H126933   4.476   5.604   1.868 -1.3941  0.5442 -4.2095
 1766TIP3    H226934   4.549   5.730   1.911  0.2288 -1.5858 -0.1937
 1767TIP3   OH226935   5.831   1.811   0.753 -0.1185 -0.3097 -0.5457
 1767TIP3    H126936   5.825   1.717   0.738 -0.0229 -0.3233 -0.5045
 1767TIP3    H226937   5.741   1.842   0.752 -0.1440 -0.3851 -0.6641
 1768TIP3   OH226938   2.692   3.051   8.485 -0.2871  0.2260  0.5672
 1768TIP3    H126939   2.740   3.128   8.454  0.0931  0.0579  0.7350
 1768TIP3    H226940   2.632   3.085   8.552  0.5874  0.2351  1.3668
 1769TIP3   OH226941   0.525   4.196   7.866 -0.4059  0.4981 -0.2007
 1769TIP3    H126942   0.585   4.270   7.867 -1.7301  1.6621 -1.6319
 1769TIP3    H226943   0.578   4.122   7.838  0.9448  0.8648  1.2476
 1770TIP3   OH226944   3.640   0.583   8.516  0.0798 -0.1377  0.0013
 1770TIP3    H126945   3.652   0.589   8.610  0.4966 -2.0916  0.1057
 1770TIP3    H226946   3.545   0.581   8.504  0.0260  0.2019  0.3719
 1771TIP3   OH226947   2.654   0.607   7.899  0.2641  0.0690  0.1958
 1771TIP3    H126948   2.560   0.628   7.903  0.9253  3.3699  1.2189
 1771TIP3    H226949   2.667   0.545   7.971 -1.4307 -2.2798 -1.3827
 1772TIP3   OH226950   3.829   3.823   1.119 -0.2317  0.3666 -0.3087
 1772TIP3    H126951   3.871   3.738   1.128  0.1376  0.6599  0.8997
 1772TIP3    H226952   3.742   3.803   1.084 -0.0054 -0.4706 -0.4134
 1773TIP3   OH226953   5.448   5.259   1.112 -0.8436 -0.5387 -0.4869
 1773TIP3    H126954   5.521   5.266   1.174 -1.3973 -1.6249  0.3172
 1773TIP3    H226955   5.412   5.348   1.107  0.3473 -0.0491 -0.6814
 1774TIP3   OH226956   3.658   4.910   0.400  1.0237  0.1114 -0.1998
 1774TIP3    H126957   3.652   4.946   0.489  1.8002  0.9566 -0.4774
 1774TIP3    H226958   3.738   4.857   0.402  0.6880 -0.4035 -0.2191
 1775TIP3   OH226959   2.029   2.018   0.265 -0.1899  0.0214 -0.2548
 1775TIP3    H126960   2.118   2.017   0.302 -0.3203  0.0740  0.0659
 1775TIP3    H226961   2.040   2.053   0.177  0.0617  0.3751 -0.0871
 1776TIP3   OH226962   2.450   5.967   1.906 -0.0759  0.2644  0.2219
 1776TIP3    H126963   2.427   5.874   1.914 -1.3772  0.4402 -0.9377
 1776TIP3    H226964   2.386   6.012   1.962  0.3951  0.4826  0.5890
 1777TIP3   OH226965   2.618   5.364   0.028  0.0884 -0.1566 -0.3490
 1777TIP3    H126966   2.656   5.397  -0.053  0.4506 -1.4039 -0.7031
 1777TIP3    H226967   2.531   5.403   0.032  0.1202  0.0163 -1.2642
 1778TIP3   OH226968   6.184   2.788   6.686  0.5147  0.6311 -0.4440
 1778TIP3    H126969   6.279   2.795   6.670  0.5141  1.1270 -0.2527
 1778TIP3    H226970   6.160   2.703   6.648  0.8218  1.0294 -1.5974
 1779TIP3   OH226971   4.571   6.372   1.038 -0.3646  0.6548 -0.3460
 1779TIP3    H126972   4.518   6.369   0.959 -1.5556  1.5305  0.3841
 1779TIP3    H226973   4.642   6.432   1.017 -1.0427  1.3977 -0.5514
 1780TIP3   OH226974   0.663   3.545   1.711  0.3504 -0.1618  0.0401
 1780TIP3    H126975   0.644   3.520   1.802 -0.7212  0.7215  0.0843
 1780TIP3    H226976   0.655   3.464   1.662 -1.5812 -0.2409  0.3926
 1781TIP3   OH226977   1.347   3.475   1.347  0.3248  0.3420 -0.7209
 1781TIP3    H126978   1.349   3.539   1.276 -0.5754 -0.0629 -1.1263
 1781TIP3    H226979   1.399   3.515   1.417 -0.2954  1.5511 -0.9253
 1782TIP3   OH226980   3.168   3.219   6.354 -0.0514 -0.2578 -0.1947
 1782TIP3    H126981   3.176   3.152   6.423 -0.1095 -0.0262  0.0381
 1782TIP3    H226982   3.258   3.234   6.325 -0.0168 -0.2868 -0.1036
 1783TIP3   OH226983   0.934   1.009   0.398  0.0806  0.4656  0.7558
 1783TIP3    H126984   0.864   1.041   0.341  1.0631  0.2201 -0.6313
 1783TIP3    H226985   0.992   0.959   0.340  0.7610 -0.3698  2.1003
 1784TIP3   OH226986   4.493   1.466   8.861 -0.3647  0.0628  0.7434
 1784TIP3    H126987   4.411   1.421   8.841 -1.2169  2.2310 -1.0477
 1784TIP3    H226988   4.473   1.559   8.852  2.4170  0.6672 -0.3781
 1785TIP3   OH226989   1.741   1.479   1.094  0.0513 -0.4161 -0.6172
 1785TIP3    H126990   1.648   1.466   1.076 -0.4382 -0.4460  1.5938
 1785TIP3    H226991   1.786   1.435   1.022 -1.6443 -2.0806 -0.7326
 1786TIP3   OH226992   3.235   2.931   7.959  0.6755 -0.3921  0.4055
 1786TIP3    H126993   3.242   3.023   7.984 -1.4429 -0.2359  0.5623
 1786TIP3    H226994   3.316   2.913   7.911  0.6433  1.8697 -0.5934
 1787TIP3   OH226995   3.438   2.738   1.666  0.0710 -0.1252 -0.1749
 1787TIP3    H126996   3.500   2.696   1.606  0.7111  0.0213  0.3750
 1787TIP3    H226997   3.427   2.826   1.630 -0.9511 -0.6059 -1.0938
 1788TIP3   OH226998   3.452   1.007   7.951 -0.1330  0.0882 -0.1602
 1788TIP3    H126999   3.423   1.094   7.980 -1.6846 -0.0791 -1.1346
 1788TIP3    H227000   3.513   0.979   8.020 -1.2619  1.0399  1.3103
 1789TIP3   OH227001   1.947   2.181   1.851  0.0149 -0.4917 -0.2858
 1789TIP3    H127002   1.879   2.116   1.868 -0.1942 -0.3984 -0.7671
 1789TIP3    H227003   2.027   2.142   1.885 -0.3591 -0.3972  0.7358
 1790TIP3   OH227004   3.923   0.645   8.782  0.0519  0.0417  0.4015
 1790TIP3    H127005   3.922   0.736   8.811  0.8997  0.1564  0.1028
 1790TIP3    H227006   3.913   0.651   8.687  2.7611  0.0145  0.0374
 1791TIP3   OH227007   0.362   2.202   0.184 -0.1981 -0.3966  0.1298
 1791TIP3    H127008   0.374   2.225   0.276  0.5284 -2.3130  0.5810
 1791TIP3    H227009   0.342   2.108   0.186  3.7677 -1.4950 -1.8260
 1792TIP3   OH227010   2.893   5.515   0.575  0.5331 -0.1750  0.1729
 1792TIP3    H127011   2.801   5.506   0.550  0.5658 -1.7897  0.5269
 1792TIP3    H227012   2.937   5.540   0.494 -0.3184  1.6051  0.1985
 1793TIP3   OH227013   2.214   3.520   0.359  0.3650  0.1769 -0.0512
 1793TIP3    H127014   2.303   3.508   0.391  0.2338  0.3398  0.3846
 1793TIP3    H227015   2.225   3.559   0.273  0.7116  1.9424  0.7369
 1794TIP3   OH227016   3.069   1.132   7.747 -0.3267  0.0925  0.1900
 1794TIP3    H127017   3.094   1.040   7.750 -2.8858 -0.6677  1.3409
 1794TIP3    H227018   3.073   1.155   7.654  0.3763 -1.1604 -0.1115
 1795TIP3   OH227019   5.464   1.251   8.243 -0.1697 -0.3885 -0.3610
 1795TIP3    H127020   5.447   1.286   8.155  0.4368 -0.0052 -0.3322
 1795TIP3    H227021   5.379   1.219   8.273 -0.1578 -1.7233 -1.6029
 1796TIP3   OH227022   4.358   5.473   2.127 -0.0250 -0.4037  0.4797
 1796TIP3    H127023   4.276   5.490   2.080 -0.2364 -0.9577  0.6409
 1796TIP3    H227024   4.400   5.403   2.077 -1.0893 -2.2893  2.0623
 1797TIP3   OH227025   2.942   5.950   6.804  0.5296 -0.7714 -0.3272
 1797TIP3    H127026   3.033   5.952   6.835  0.2534 -1.6539  0.6057
 1797TIP3    H227027   2.922   6.041   6.781  1.2917 -0.3753  0.5175
 1798TIP3   OH227028   2.642   2.241   0.780 -0.0594 -0.5584 -0.1504
 1798TIP3    H127029   2.676   2.168   0.729  0.0803  0.3396 -1.4035
 1798TIP3    H227030   2.553   2.254   0.748  0.3172  0.5593 -0.8073
 1799TIP3   OH227031   1.476   2.959   7.259 -0.3468 -0.3194  0.2409
 1799TIP3    H127032   1.562   2.923   7.237  0.0770 -0.0707  1.4291
 1799TIP3    H227033   1.425   2.950   7.178  0.4349 -1.5137 -0.1490
 1800TIP3   OH227034   4.993   3.597   1.626 -0.0571  0.2790 -0.3174
 1800TIP3    H127035   5.024   3.688   1.618  0.4414  0.1204 -0.2205
 1800TIP3    H227036   4.914   3.594   1.572 -1.1617  1.2641  1.1503
 1801TIP3   OH227037   3.704   5.125   8.405 -0.0677 -0.0835  0.0623
 1801TIP3    H127038   3.798   5.136   8.416  0.0383 -0.7110 -0.1913
 1801TIP3    H227039   3.666   5.192   8.461  0.5277  0.0473  0.3200
 1802TIP3   OH227040   4.821   3.089   7.794  0.2608  0.3771  0.8654
 1802TIP3    H127041   4.866   3.049   7.720  0.1436  0.3861  0.7882
 1802TIP3    H227042   4.827   3.183   7.778 -2.5058  0.3731 -0.8264
 1803TIP3   OH227043   5.941   4.920   6.710  0.3039  0.1449  0.2872
 1803TIP3    H127044   5.884   4.994   6.687  0.9929  0.1987 -1.4035
 1803TIP3    H227045   5.896   4.844   6.674  0.1150 -0.1478  1.1138
 1804TIP3   OH227046   2.417   6.120   1.058  0.0927 -0.0628 -0.0265
 1804TIP3    H127047   2.512   6.120   1.062  0.1244 -0.7278 -0.5960
 1804TIP3    H227048   2.389   6.145   1.147  0.7857  0.9920 -0.0878
 1805TIP3   OH227049   3.960   2.911   1.688 -0.3619  0.2053  0.0565
 1805TIP3    H127050   3.904   2.882   1.761 -2.3790  0.7670 -1.1991
 1805TIP3    H227051   3.977   2.832   1.638 -1.4255  0.2911 -0.4537
 1806TIP3   OH227052   0.789   2.067   8.245 -0.0386 -0.1950  0.0103
 1806TIP3    H127053   0.715   2.074   8.306 -1.0735  1.4106 -1.3376
 1806TIP3    H227054   0.820   2.157   8.236  1.4395 -0.7125 -0.2520
 1807TIP3   OH227055   0.800   5.819   8.363  0.3464 -0.1163 -0.4568
 1807TIP3    H127056   0.870   5.772   8.408  1.0759  1.8828  0.6228
 1807TIP3    H227057   0.719   5.781   8.397  0.9027 -1.0524 -0.1617
 1808TIP3   OH227058   1.797   0.136   8.852  0.0055 -0.0782  0.2791
 1808TIP3    H127059   1.767   0.210   8.799 -1.8375 -1.6092 -0.9345
 1808TIP3    H227060   1.848   0.082   8.792  0.3683 -0.3862  0.8558
 1809TIP3   OH227061   3.695   5.746   7.244 -0.2249  0.0568 -0.1625
 1809TIP3    H127062   3.631   5.681   7.214  0.4324 -1.1085  0.8157
 1809TIP3    H227063   3.660   5.778   7.327 -0.5001  0.8994 -0.5983
 1810TIP3   OH227064   1.728   0.472   1.847  0.6173 -0.2682  0.5436
 1810TIP3    H127065   1.667   0.510   1.910  0.0036  1.1414 -0.8283
 1810TIP3    H227066   1.739   0.540   1.780  2.2424 -1.2058 -0.2152
 1811TIP3   OH227067   2.185   4.582   1.006 -0.2390 -0.4543  0.2552
 1811TIP3    H127068   2.129   4.608   1.079 -1.2039 -0.1110 -0.5923
 1811TIP3    H227069   2.258   4.644   1.009 -1.0824  0.5681 -0.0290
 1812TIP3   OH227070   2.246   4.054   1.304  0.4972 -0.0957  0.0262
 1812TIP3    H127071   2.272   3.966   1.330 -0.0920 -0.1625  0.4157
 1812TIP3    H227072   2.324   4.107   1.317  0.4570 -0.2864  1.1477
 1813TIP3   OH227073   0.102   1.372   1.370 -0.6569 -0.6113 -0.4559
 1813TIP3    H127074   0.160   1.304   1.405  1.2575  0.2473 -1.7889
 1813TIP3    H227075   0.077   1.423   1.447  0.0345 -1.2441  0.2161
 1814TIP3   OH227076   3.490   2.039   0.217 -0.4792  0.1351  0.3529
 1814TIP3    H127077   3.556   1.985   0.173 -2.0744 -0.9751 -0.8104
 1814TIP3    H227078   3.471   1.993   0.298 -0.1144  0.2649  0.5167
 1815TIP3   OH227079   2.910   5.987   2.591  0.2124 -0.2223  0.2637
 1815TIP3    H127080   2.843   6.016   2.653  0.0117  1.1034 -0.5508
 1815TIP3    H227081   2.992   5.991   2.640 -0.0122  0.3172  0.6045
 1816TIP3   OH227082   3.656   2.696   7.529  0.3528 -0.2094  0.4346
 1816TIP3    H127083   3.601   2.680   7.452  1.1449  0.2124 -0.2353
 1816TIP3    H227084   3.746   2.687   7.497  0.6840 -0.9060  1.5193
 1817TIP3   OH227085   2.653   6.146   0.438  0.0455 -0.3371  0.3404
 1817TIP3    H127086   2.566   6.158   0.477 -0.2173  1.3153 -0.6663
 1817TIP3    H227087   2.635   6.109   0.351  0.3512 -0.0138  0.1395
 1818TIP3   OH227088   6.322   2.404   0.783 -0.2962  0.1673  0.3589
 1818TIP3    H127089   6.315   2.439   0.872 -1.4525 -0.5881  0.6001
 1818TIP3    H227090   6.311   2.480   0.726 -3.2456  0.2374  0.8592
 1819TIP3   OH227091   5.284   5.715   0.970 -0.0272 -0.0542 -0.1279
 1819TIP3    H127092   5.248   5.803   0.985  1.4475  0.4386  0.7153
 1819TIP3    H227093   5.271   5.700   0.877  0.5546  1.4834 -0.4991
 1820TIP3   OH227094   2.649   0.728   8.472 -0.1882 -0.1619  0.3045
 1820TIP3    H127095   2.743   0.710   8.467  0.5708  3.2202 -0.0487
 1820TIP3    H227096   2.613   0.688   8.392  1.3111  0.2678 -0.6290
 1821TIP3   OH227097   4.410   4.918   7.104 -0.9215  0.2686  0.4622
 1821TIP3    H127098   4.406   5.011   7.123  0.4838  0.2180  1.1692
 1821TIP3    H227099   4.346   4.904   7.035 -2.0418  1.5237  1.2136
 1822TIP3   OH227100   5.014   4.063   8.955  0.4859  0.4850 -0.0668
 1822TIP3    H127101   5.050   4.152   8.958 -1.2931  1.1896  2.1379
 1822TIP3    H227102   5.008   4.044   8.861  1.5335  2.4084 -0.5889
 1823TIP3   OH227103   0.322   5.446   1.380  0.2468  1.2646 -0.5296
 1823TIP3    H127104   0.381   5.377   1.347  1.1231  1.4970  0.4984
 1823TIP3    H227105   0.381   5.518   1.404 -0.6363  2.2736 -1.3222
 1824TIP3   OH227106   2.403   6.158   0.031 -0.2209 -1.4298 -0.8331
 1824TIP3    H127107   2.486   6.178  -0.010 -0.8488  0.9580 -1.0617
 1824TIP3    H227108   2.338   6.206  -0.020 -1.1315  0.9949  2.3034
 1825TIP3   OH227109   6.457   5.110   7.888 -0.3284  0.2077 -0.0607
 1825TIP3    H127110   6.482   5.017   7.892  0.4457  0.4484  1.2932
 1825TIP3    H227111   6.535   5.157   7.917 -1.3405  1.1613  1.2306
 1826TIP3   OH227112   5.747   3.821   0.480  0.7510  0.4329 -0.5616
 1826TIP3    H127113   5.839   3.821   0.508  0.6720  1.1122 -0.3008
 1826TIP3    H227114   5.742   3.888   0.412  0.6497 -0.2872 -1.2849
 1827TIP3   OH227115   1.534   3.677   1.205 -0.2743 -0.7150 -0.2643
 1827TIP3    H127116   1.478   3.753   1.224 -1.2100 -0.8664 -2.1566
 1827TIP3    H227117   1.618   3.698   1.245 -0.7522  0.9832 -0.0810
 1828TIP3   OH227118   0.802   4.312   8.591 -0.2646  0.0469 -0.0137
 1828TIP3    H127119   0.744   4.332   8.664  0.7610  1.4234  0.4751
 1828TIP3    H227120   0.744   4.278   8.523 -1.0238 -3.2116  2.0586
 1829TIP3   OH227121   3.178   3.200   7.960 -0.8914  0.7224  0.2221
 1829TIP3    H127122   3.126   3.237   7.889 -0.2086  1.8548  0.2822
 1829TIP3    H227123   3.201   3.276   8.014 -0.5634  0.0145  1.1082
 1830TIP3   OH227124   4.244   2.927   1.049  0.1193  0.4166 -0.4702
 1830TIP3    H127125   4.180   2.947   1.116  1.7170  0.0290  1.2473
 1830TIP3    H227126   4.309   2.871   1.092  1.0946 -0.0631 -2.3943
 1831TIP3   OH227127   1.758   5.468   0.079 -0.4875  0.4460  0.1291
 1831TIP3    H127128   1.754   5.504   0.168  1.3229  0.8332  0.0825
 1831TIP3    H227129   1.766   5.374   0.091 -0.7481  0.4487  0.3470
 1832TIP3   OH227130   4.497   1.394   0.442 -0.3184 -0.5616 -0.5784
 1832TIP3    H127131   4.459   1.386   0.529 -2.5035  2.4830 -1.1022
 1832TIP3    H227132   4.451   1.329   0.389 -0.0418 -1.3947  0.1894
 1833TIP3   OH227133   2.298   2.113   7.344 -0.4037  0.3909  0.2064
 1833TIP3    H127134   2.278   2.020   7.332 -0.1165  0.4418 -0.7550
 1833TIP3    H227135   2.356   2.135   7.271 -0.1525  1.2340  0.6432
 1834TIP3   OH227136   6.319   6.464   8.458 -0.0464 -0.3462 -0.1085
 1834TIP3    H127137   6.345   6.373   8.450  1.0506 -0.1402  0.9072
 1834TIP3    H227138   6.250   6.465   8.524 -1.2763 -0.6327 -1.3460
 1835TIP3   OH227139   1.394   0.175   7.476 -0.4491 -0.4521  0.8264
 1835TIP3    H127140   1.445   0.110   7.525  1.3956 -0.0895 -0.5446
 1835TIP3    H227141   1.326   0.123   7.432  2.2195 -1.8960 -1.9307
 1836TIP3   OH227142   2.050   2.910   9.001  0.0057 -0.0122 -0.0431
 1836TIP3    H127143   2.074   2.887   8.911 -1.1360  0.0133 -0.3627
 1836TIP3    H227144   2.102   2.851   9.055  1.3456  0.5227 -0.6705
 1837TIP3   OH227145   3.712   2.589   1.237  0.1118  0.0314  0.0952
 1837TIP3    H127146   3.734   2.497   1.219  0.4686  0.2222 -0.4708
 1837TIP3    H227147   3.679   2.623   1.154  0.7480  0.6337  0.0764
 1838TIP3   OH227148   5.335   2.608   0.299  0.0049  0.3819 -0.1187
 1838TIP3    H127149   5.373   2.597   0.386 -1.1230  0.0700  0.3471
 1838TIP3    H227150   5.275   2.534   0.289 -0.8849  1.1479 -0.6064
 1839TIP3   OH227151   4.252   1.495   2.201 -0.2554 -0.0567  0.6023
 1839TIP3    H127152   4.292   1.497   2.288 -0.8838  1.7944  0.8901
 1839TIP3    H227153   4.202   1.576   2.196 -1.2793 -0.7484 -1.0093
 1840TIP3   OH227154   5.655   1.331   8.960  0.5386  0.5254  0.2109
 1840TIP3    H127155   5.701   1.411   8.935  0.1519  1.0364  1.0910
 1840TIP3    H227156   5.716   1.286   9.019  0.3188  0.7249  0.5981
 1841TIP3   OH227157   3.051   6.659   0.379 -0.2334 -0.4252  0.1420
 1841TIP3    H127158   3.122   6.643   0.442 -0.6853 -0.5114  0.6364
 1841TIP3    H227159   2.977   6.687   0.433 -0.4951 -0.0610 -0.3979
 1842TIP3   OH227160   3.950   3.410   0.867  0.0292 -0.2205  0.3002
 1842TIP3    H127161   3.882   3.368   0.921 -0.5456 -0.0898 -0.3114
 1842TIP3    H227162   3.927   3.503   0.867 -1.1792 -0.4493 -1.8001
 1843TIP3   OH227163   3.035   1.246   7.499 -0.0343  0.0271  0.1677
 1843TIP3    H127164   2.993   1.323   7.536 -0.2134 -0.0932  0.2169
 1843TIP3    H227165   3.085   1.279   7.424 -0.2891  0.1576  0.0539
 1844TIP3   OH227166   2.090   4.479   7.489 -0.0796  0.0643 -0.4189
 1844TIP3    H127167   2.178   4.519   7.489 -1.0994  2.4657 -0.6638
 1844TIP3    H227168   2.075   4.456   7.397  0.7957 -1.6621 -0.1693
 1845TIP3   OH227169   1.787   1.255   8.243  0.5693 -0.4623 -0.2573
 1845TIP3    H127170   1.877   1.240   8.217  0.8501 -1.2692  1.1009
 1845TIP3    H227171   1.741   1.174   8.221  1.0935 -1.7013  2.7939
 1846TIP3   OH227172   4.975   0.491   6.947  0.4443  0.3846  0.4195
 1846TIP3    H127173   5.041   0.444   6.896 -1.4972 -1.5205 -0.4879
 1846TIP3    H227174   4.981   0.581   6.916  1.8783  0.0411 -0.4110
 1847TIP3   OH227175   1.425   6.665   7.181  0.1293 -0.2864 -0.2619
 1847TIP3    H127176   1.402   6.584   7.135  0.6169 -0.4734 -0.1819
 1847TIP3    H227177   1.429   6.731   7.113 -0.6139 -0.2541 -0.2823
 1848TIP3   OH227178   1.670   6.421   0.538  0.3517  0.0817 -0.3014
 1848TIP3    H127179   1.612   6.486   0.498  1.5791  0.9662 -0.7072
 1848TIP3    H227180   1.746   6.418   0.480  0.1976 -1.9619 -0.4475
 1849TIP3   OH227181   6.644   0.198   6.440 -0.4742  0.4987 -0.0274
 1849TIP3    H127182   6.570   0.196   6.379 -1.4727  0.7166  1.1309
 1849TIP3    H227183   6.699   0.125   6.414 -1.5792 -0.2464 -0.3349
 1850TIP3   OH227184   1.364   0.339   0.321 -0.3698 -0.2472  0.7267
 1850TIP3    H127185   1.317   0.378   0.247  1.0649  1.3308  0.5961
 1850TIP3    H227186   1.382   0.249   0.293 -1.8426 -0.3820  0.1219
 1851TIP3   OH227187   2.635   2.709   7.295  0.1750  0.1934  0.2314
 1851TIP3    H127188   2.687   2.645   7.343  0.6658  0.8973  0.6508
 1851TIP3    H227189   2.575   2.656   7.242  0.2062 -0.6027  0.9759
 1852TIP3   OH227190   1.755   4.213   0.022  0.1452  0.0045 -0.2423
 1852TIP3    H127191   1.802   4.131   0.035 -0.4778 -0.4064 -0.5617
 1852TIP3    H227192   1.667   4.197   0.056 -0.0303  0.4923 -0.4521
 1853TIP3   OH227193   1.427   0.250   1.546 -0.3854 -0.3861 -0.6458
 1853TIP3    H127194   1.406   0.295   1.464  2.1605 -0.3910 -1.3888
 1853TIP3    H227195   1.475   0.172   1.518  1.1623 -0.0141  0.8606
 1854TIP3   OH227196   4.967   5.958   0.026 -0.1468  0.3739  0.1595
 1854TIP3    H127197   5.056   5.932   0.049 -0.3847  1.2711  2.2846
 1854TIP3    H227198   4.962   6.051   0.047 -0.9201  0.9436 -2.2040
 1855TIP3   OH227199   1.972   1.571   7.147  0.2399  0.4805  0.2674
 1855TIP3    H127200   1.920   1.544   7.072 -0.2384 -0.3026  0.8663
 1855TIP3    H227201   2.048   1.616   7.109  0.3313 -0.4656 -0.7096
 1856TIP3   OH227202   1.195   3.257   7.143  0.2051  0.0437  0.3175
 1856TIP3    H127203   1.179   3.173   7.101  0.9144 -0.9765  2.0032
 1856TIP3    H227204   1.150   3.320   7.087 -0.9620 -1.5216 -0.6004
 1857TIP3   OH227205   0.794   0.211   1.318  0.5977 -0.3580 -0.3183
 1857TIP3    H127206   0.799   0.131   1.370  1.5941 -0.6851 -0.8928
 1857TIP3    H227207   0.827   0.280   1.376  0.7796 -0.5505 -0.1947
 1858TIP3   OH227208   5.920   0.288   1.402 -0.7617 -0.0447 -0.2480
 1858TIP3    H127209   5.825   0.274   1.401 -0.7197 -0.3434 -0.2777
 1858TIP3    H227210   5.948   0.267   1.313 -0.7740  0.8358 -0.4707
 1859TIP3   OH227211   6.118   3.813   0.802 -0.0763  0.1582  0.3070
 1859TIP3    H127212   6.048   3.877   0.789  1.2832  1.8755  1.0003
 1859TIP3    H227213   6.182   3.833   0.733  0.4398 -0.3392  0.6336
 1860TIP3   OH227214   2.650   5.334   0.370  0.2755  0.1122 -0.5287
 1860TIP3    H127215   2.616   5.413   0.412  1.0705  0.8112 -1.1541
 1860TIP3    H227216   2.597   5.324   0.290 -1.5553 -1.4860  0.7940
 1861TIP3   OH227217   1.319   0.689   2.083 -0.1658 -0.1739 -0.0983
 1861TIP3    H127218   1.296   0.604   2.121 -1.6799 -0.9649 -2.5133
 1861TIP3    H227219   1.291   0.753   2.148 -0.0955 -1.4692  1.2640
 1862TIP3   OH227220   3.815   2.869   6.493  0.0420  0.4096  0.5894
 1862TIP3    H127221   3.809   2.964   6.494 -1.5258  0.3527  1.9195
 1862TIP3    H227222   3.889   2.848   6.549  0.7146  0.8414 -0.1243
 1863TIP3   OH227223   0.537   6.452   1.498  0.1428 -0.5787 -0.0799
 1863TIP3    H127224   0.490   6.371   1.477  0.1671 -0.6272  0.0515
 1863TIP3    H227225   0.470   6.511   1.533 -0.1015 -0.1114 -1.3093
 1864TIP3   OH227226   1.171   6.000   8.938 -0.7592 -0.0149 -0.3793
 1864TIP3    H127227   1.120   6.053   8.999  0.6015  1.2249 -0.2777
 1864TIP3    H227228   1.142   5.910   8.954 -1.8852  0.5029  0.6393
 1865TIP3   OH227229   2.823   0.893   6.709  0.5700 -0.6492 -0.0026
 1865TIP3    H127230   2.882   0.852   6.646  1.5618  1.4420 -0.5417
 1865TIP3    H227231   2.832   0.987   6.692 -0.1546 -0.0796  2.3780
 1866TIP3   OH227232   5.938   6.766   0.420 -0.5318 -0.1693  0.5568
 1866TIP3    H127233   5.896   6.807   0.344 -0.2767 -0.2499  0.3686
 1866TIP3    H227234   5.940   6.673   0.399 -0.4759 -0.1948  0.6720
 1867TIP3   OH227235   0.980   6.503   7.527  0.1335 -0.0342 -0.3497
 1867TIP3    H127236   1.047   6.539   7.468 -1.1140  0.1528 -1.7170
 1867TIP3    H227237   0.966   6.414   7.495 -0.1299 -0.1347  0.0381
 1868TIP3   OH227238   1.670   3.559   1.775  0.1207 -0.1571 -0.0260
 1868TIP3    H127239   1.628   3.476   1.754  2.1085 -0.9550 -1.1564
 1868TIP3    H227240   1.611   3.626   1.740 -1.2103 -1.0969  0.3506
 1869TIP3   OH227241   4.781   4.752   8.165 -0.0493 -0.3543 -0.1537
 1869TIP3    H127242   4.761   4.790   8.079  0.7030  1.2606  0.3429
 1869TIP3    H227243   4.866   4.709   8.152 -0.6225 -1.4062 -0.5651
 1870TIP3   OH227244   1.574   1.447   0.083  0.2262  0.0476 -0.4291
 1870TIP3    H127245   1.661   1.447   0.122  0.0986  0.5611 -0.1363
 1870TIP3    H227246   1.537   1.532   0.107 -0.8206 -0.6458  0.5099
 1871TIP3   OH227247   6.098   3.084   0.571  0.2292 -0.0279  0.0760
 1871TIP3    H127248   6.159   3.011   0.574  0.2369 -0.1124 -1.4319
 1871TIP3    H227249   6.033   3.064   0.637  0.1302 -1.5086 -0.4414
 1872TIP3   OH227250   5.700   2.685   7.895 -0.3338 -0.0358  0.6960
 1872TIP3    H127251   5.647   2.704   7.972 -1.7922  1.3482 -0.5591
 1872TIP3    H227252   5.672   2.751   7.830  0.5867 -1.3423 -1.1176
 1873TIP3   OH227253   4.167   5.745   0.852  0.0234 -0.5846 -0.2548
 1873TIP3    H127254   4.106   5.751   0.926  0.2967  1.3247 -0.1365
 1873TIP3    H227255   4.113   5.718   0.778 -0.9529  0.9408 -0.1217
 1874TIP3   OH227256   6.301   5.115   6.883  0.5556 -0.0647  0.4395
 1874TIP3    H127257   6.358   5.041   6.866 -0.2955 -0.6942  0.2475
 1874TIP3    H227258   6.338   5.187   6.832  1.1885 -0.4479  0.3559
 1875TIP3   OH227259   3.593   3.971   0.841  0.2775  0.4315  0.9282
 1875TIP3    H127260   3.597   4.066   0.840 -0.2938  0.5007  2.3594
 1875TIP3    H227261   3.501   3.950   0.851  0.2566 -0.3279 -0.5822
 1876TIP3   OH227262   0.874   2.791   7.093  0.3929 -0.1325 -0.4332
 1876TIP3    H127263   0.794   2.826   7.133 -0.8138 -0.5759 -2.3235
 1876TIP3    H227264   0.892   2.710   7.142  0.5432  0.6945  0.9334
 1877TIP3   OH227265   0.264   6.517   8.213  0.7524 -1.0701 -0.4949
 1877TIP3    H127266   0.238   6.589   8.155  1.3500 -1.2998 -1.0553
 1877TIP3    H227267   0.183   6.489   8.254  0.7102  0.9838  0.9645
 1878TIP3   OH227268   4.556   2.680   7.873 -0.2009 -0.1370 -0.1412
 1878TIP3    H127269   4.534   2.736   7.798 -0.4091 -1.5148 -1.1501
 1878TIP3    H227270   4.609   2.736   7.930 -0.3132  1.0471 -1.1510
 1879TIP3   OH227271   3.170   1.650   0.343  0.1381  0.6879 -0.0984
 1879TIP3    H127272   3.237   1.636   0.410 -0.8154 -2.4861  0.3640
 1879TIP3    H227273   3.190   1.735   0.306  1.8342  1.7557  2.9490
 1880TIP3   OH227274   1.669   0.460   2.519 -0.4779  0.0266  0.0540
 1880TIP3    H127275   1.618   0.525   2.471  2.8233  2.5960 -0.3767
 1880TIP3    H227276   1.738   0.434   2.458 -0.5343 -2.4790  0.9340
 1881TIP3   OH227277   2.558   0.626   1.938 -0.0998 -0.1823  0.3694
 1881TIP3    H127278   2.554   0.619   1.842  0.0769 -0.0794  0.3541
 1881TIP3    H227279   2.518   0.711   1.957  2.4476  1.1752  0.1653
 1882TIP3   OH227280   2.209   4.997   1.371  0.8117  0.0178 -0.2969
 1882TIP3    H127281   2.126   5.038   1.397  0.3182  0.3662 -2.2497
 1882TIP3    H227282   2.183   4.927   1.311  1.7665 -2.0078  1.5503
 1883TIP3   OH227283   6.244   4.463   1.387 -0.5800  0.0851 -0.5199
 1883TIP3    H127284   6.293   4.401   1.442  0.4973  1.8906  0.6846
 1883TIP3    H227285   6.184   4.506   1.448 -0.3653  1.1491 -1.0357
 1884TIP3   OH227286   2.008   3.299   7.596  0.2850 -0.5842 -0.4651
 1884TIP3    H127287   1.989   3.392   7.588  1.9453  0.0446  1.9270
 1884TIP3    H227288   2.091   3.287   7.551 -0.3199 -1.1426 -1.4971
 1885TIP3   OH227289   4.401   3.739   0.802 -0.1080  0.8146  0.3927
 1885TIP3    H127290   4.444   3.820   0.774 -0.6293  1.7307  2.0437
 1885TIP3    H227291   4.335   3.769   0.865 -0.7114 -0.8602  0.5857
 1886TIP3   OH227292   5.067   4.069   1.964 -0.1020  0.3196 -0.0929
 1886TIP3    H127293   5.004   4.049   2.034 -1.7197  0.9701 -1.2819
 1886TIP3    H227294   5.035   4.151   1.926  0.1914 -0.4427 -2.1304
 1887TIP3   OH227295   1.126   3.125   0.326  0.3189 -0.4284 -0.4578
 1887TIP3    H127296   1.152   3.041   0.365 -2.6356 -1.6066 -0.7339
 1887TIP3    H227297   1.061   3.101   0.260 -0.8456  2.0976 -0.3371
 1888TIP3   OH227298   0.979   0.288   0.015 -0.0131 -0.0480  0.1310
 1888TIP3    H127299   0.886   0.273  -0.002  0.1698 -0.5708 -0.4251
 1888TIP3    H227300   1.024   0.249  -0.060  0.4943  3.4361 -1.5787
 1889TIP3   OH227301   4.469   6.257   8.594  0.5894  0.2907  0.5577
 1889TIP3    H127302   4.411   6.210   8.534  0.5219 -0.3055  1.0725
 1889TIP3    H227303   4.550   6.269   8.544 -1.1924  4.8676 -1.7656
 1890TIP3   OH227304   6.662   2.070   0.098  0.3179 -0.6489  0.5772
 1890TIP3    H127305   6.570   2.088   0.083  0.1547  0.3008  2.4131
 1890TIP3    H227306   6.700   2.061   0.011 -1.4851 -1.0367 -0.2055
 1891TIP3   OH227307   0.152   0.792   8.439 -0.4245  0.3052  0.2490
 1891TIP3    H127308   0.233   0.816   8.393 -1.4504  0.8698 -1.3814
 1891TIP3    H227309   0.178   0.722   8.498  0.8691 -1.0730 -1.8034
 1892TIP3   OH227310   5.986   0.153   7.611  0.3269 -0.2616  0.2809
 1892TIP3    H127311   5.914   0.211   7.634  2.4948  2.8012  0.0703
 1892TIP3    H227312   6.000   0.168   7.518 -0.1737 -2.6415 -0.2517
 1893TIP3   OH227313   2.352   1.466   0.766  0.3287 -0.1726 -0.1250
 1893TIP3    H127314   2.426   1.508   0.723 -0.0838 -1.6646 -2.4835
 1893TIP3    H227315   2.392   1.410   0.833  1.2668 -0.0814 -0.5934
 1894TIP3   OH227316   2.468   4.930   2.664 -0.4044 -0.2013  0.0918
 1894TIP3    H127317   2.541   4.881   2.701  0.1083 -0.0486 -0.6980
 1894TIP3    H227318   2.401   4.863   2.646 -0.2612 -0.4100  0.3221
 1895TIP3   OH227319   3.504   4.548   7.937  0.0976  0.3701 -0.4590
 1895TIP3    H127320   3.468   4.529   7.851 -0.8302 -0.3664  0.0697
 1895TIP3    H227321   3.432   4.592   7.984 -0.6287 -2.1762  1.0049
 1896TIP3   OH227322   2.347   6.684   7.965  0.3089  0.2072 -0.8824
 1896TIP3    H127323   2.308   6.597   7.961  0.0488  0.3358 -1.1436
 1896TIP3    H227324   2.441   6.669   7.954  0.4345 -0.1805  0.5248
 1897TIP3   OH227325   0.282   2.219   2.146  0.0799  0.5978 -0.3985
 1897TIP3    H127326   0.197   2.262   2.150  0.1678  0.7077  0.6065
 1897TIP3    H227327   0.344   2.286   2.175  0.3141  0.0533  0.3994
 1898TIP3   OH227328   3.477   2.670   7.303 -0.4419  0.2622  0.2212
 1898TIP3    H127329   3.447   2.725   7.231 -0.7488 -0.3535 -0.1227
 1898TIP3    H227330   3.417   2.596   7.304  0.2676 -0.3236  0.3653
 1899TIP3   OH227331   4.394   4.030   8.627 -0.2059  0.1930  0.5540
 1899TIP3    H127332   4.411   4.102   8.566  0.7820 -0.3580  0.1439
 1899TIP3    H227333   4.479   4.014   8.669 -0.1828 -1.2304  0.0443
 1900TIP3   OH227334   1.542   4.500   0.451  0.1822  0.4913 -0.3138
 1900TIP3    H127335   1.530   4.407   0.431  3.0557  0.7937 -4.9250
 1900TIP3    H227336   1.465   4.543   0.414 -1.3606  0.0964  2.1952
 1901TIP3   OH227337   3.038   4.002   0.294 -0.1245  0.1914 -0.0550
 1901TIP3    H127338   3.100   3.983   0.223 -0.0896 -0.3981  0.1295
 1901TIP3    H227339   2.962   3.948   0.274 -0.5104  0.7707 -0.1731
 1902TIP3   OH227340   5.059   5.428   7.599  0.7295 -0.2814 -0.1078
 1902TIP3    H127341   5.141   5.426   7.550  0.8239 -3.0361  0.0294
 1902TIP3    H227342   5.086   5.437   7.691  0.8976 -1.1141 -0.0690
 1903TIP3   OH227343   1.374   5.976   0.529  0.8557 -0.3530  0.6256
 1903TIP3    H127344   1.424   5.999   0.451  1.5390 -1.6184  0.6704
 1903TIP3    H227345   1.435   5.986   0.601  0.1800  0.9720  1.0542
 1904TIP3   OH227346   3.037   0.478   2.411  0.7902  0.2817 -0.3993
 1904TIP3    H127347   2.949   0.493   2.446  0.5427 -0.1710 -0.8151
 1904TIP3    H227348   3.057   0.388   2.437  0.5335 -0.1206 -1.5518
 1905TIP3   OH227349   5.133   5.105   2.326 -0.4303  0.1775 -0.0039
 1905TIP3    H127350   5.083   5.127   2.405  2.2187 -1.2572  2.2690
 1905TIP3    H227351   5.103   5.017   2.303 -0.8078  0.3656 -0.2201
 1906TIP3   OH227352   2.493   6.222   2.176  0.6169  0.4846  0.8403
 1906TIP3    H127353   2.567   6.162   2.166 -0.0303 -0.0240 -1.2904
 1906TIP3    H227354   2.523   6.286   2.241  1.7314 -1.4831  2.3905
 1907TIP3   OH227355   3.344   3.862   1.888  0.0145 -0.2960  0.2241
 1907TIP3    H127356   3.382   3.949   1.904 -2.3140  0.8661 -0.1069
 1907TIP3    H227357   3.251   3.879   1.874 -0.6255 -2.9409  0.7490
 1908TIP3   OH227358   1.654   2.696   8.358  0.7860  0.1403  0.0967
 1908TIP3    H127359   1.560   2.689   8.339  0.4696  1.8445  0.9028
 1908TIP3    H227360   1.696   2.677   8.274 -0.2737 -0.4774 -0.3181
 1909TIP3   OH227361   1.807   2.611   8.572 -0.0829  0.2682  0.4558
 1909TIP3    H127362   1.741   2.638   8.508  0.6386  0.6257 -0.1550
 1909TIP3    H227363   1.886   2.656   8.544  1.0851 -2.1104 -0.3308
 1910TIP3   OH227364   2.736   4.573   1.934 -0.1366 -0.2309  0.9405
 1910TIP3    H127365   2.666   4.611   1.987 -2.9675 -0.9144 -2.0058
 1910TIP3    H227366   2.742   4.482   1.964 -0.1100 -0.0188  1.5851
 1911TIP3   OH227367   3.942   4.662   8.588 -0.3756 -0.2512  0.5358
 1911TIP3    H127368   3.867   4.618   8.548 -0.8461 -0.4074  1.5683
 1911TIP3    H227369   3.916   4.677   8.679 -0.1656  1.9846  0.2924
 1912TIP3   OH227370   1.771   4.036   8.543  0.0037 -0.5474  0.0352
 1912TIP3    H127371   1.756   3.953   8.589 -0.2135 -1.8221 -2.1995
 1912TIP3    H227372   1.856   4.026   8.502  0.9818  1.2570  1.4775
 1913TIP3   OH227373   5.832   1.490   8.244 -0.0166 -0.1484 -0.1668
 1913TIP3    H127374   5.793   1.429   8.307 -1.4765 -3.0371 -3.4773
 1913TIP3    H227375   5.926   1.471   8.248  0.0694  0.4644  1.7179
 1914TIP3   OH227376   2.642   2.756   2.466  0.0271  0.1716  0.2648
 1914TIP3    H127377   2.731   2.773   2.496 -0.4769  2.1237  0.8620
 1914TIP3    H227378   2.602   2.705   2.536  1.1118 -2.2534 -0.7789
 1915TIP3   OH227379   0.871   0.136   0.556  0.0283  0.3097 -0.2761
 1915TIP3    H127380   0.826   0.220   0.560  1.0230  0.8600 -0.5834
 1915TIP3    H227381   0.847   0.093   0.639  1.2422  1.7825  0.8980
 1916TIP3   OH227382   6.416   0.781   7.758 -0.0051 -0.1877  0.1712
 1916TIP3    H127383   6.325   0.751   7.757 -0.2338  0.5022 -0.4759
 1916TIP3    H227384   6.411   0.873   7.784  0.5068 -0.1339  0.0969
 1917TIP3   OH227385   0.733   4.465   6.394  0.4728 -0.2801  0.4745
 1917TIP3    H127386   0.749   4.450   6.487 -1.5882 -2.2101  0.5944
 1917TIP3    H227387   0.716   4.559   6.388  4.4407  0.6823  1.3240
 1918TIP3   OH227388   6.243   5.253   8.412  0.3479  0.1403  0.5429
 1918TIP3    H127389   6.312   5.304   8.455 -1.2771  3.0662 -0.0728
 1918TIP3    H227390   6.265   5.255   8.319  0.1357 -0.1050  0.4837
 1919TIP3   OH227391   1.735   5.589   7.538  0.0348  0.4205  0.6412
 1919TIP3    H127392   1.719   5.504   7.578  0.8016 -0.4525 -0.8152
 1919TIP3    H227393   1.653   5.611   7.494  0.6580 -1.0357 -1.4673
 1920TIP3   OH227394   6.042   4.130   1.312  0.5925  0.4918  0.0506
 1920TIP3    H127395   6.087   4.177   1.241  0.7229 -0.4327 -0.4990
 1920TIP3    H227396   5.950   4.133   1.288  0.7880 -1.3219 -1.1225
 1921TIP3   OH227397   4.179   5.710   7.340 -0.0326  0.3015 -0.0086
 1921TIP3    H127398   4.182   5.651   7.265 -0.4651  0.7875 -0.4150
 1921TIP3    H227399   4.223   5.662   7.410  0.7334 -0.0075 -0.6778
 1922TIP3   OH227400   6.597   3.872   0.096 -0.3791 -0.2379 -0.1240
 1922TIP3    H127401   6.600   3.917   0.012 -0.5945 -0.6403 -0.3468
 1922TIP3    H227402   6.508   3.887   0.128  0.0614  0.9677  0.6169
 1923TIP3   OH227403   2.845   6.483   8.608  0.0078  0.4230  0.0177
 1923TIP3    H127404   2.855   6.521   8.696 -1.1282 -0.6009  0.6053
 1923TIP3    H227405   2.858   6.389   8.621 -0.4642  0.2307 -0.8638
 1924TIP3   OH227406   5.230   4.376   7.548  0.2348 -0.2501  0.3982
 1924TIP3    H127407   5.293   4.307   7.568  0.4639 -0.2134 -0.1752
 1924TIP3    H227408   5.274   4.431   7.482  0.0630  0.4486  0.8522
 1925TIP3   OH227409   1.724   3.388   0.796  0.3441  0.0304  0.1177
 1925TIP3    H127410   1.792   3.321   0.790 -1.2091 -1.8161  1.5847
 1925TIP3    H227411   1.758   3.452   0.859  1.8373  0.6400 -1.2652
 1926TIP3   OH227412   2.652   5.753   8.875 -0.2116 -0.0565  0.0726
 1926TIP3    H127413   2.707   5.685   8.836 -1.3729 -0.1215 -1.5535
 1926TIP3    H227414   2.713   5.807   8.925  0.8181 -1.9842  1.0303
 1927TIP3   OH227415   6.122   2.044   7.996 -0.5685  0.4359  0.6159
 1927TIP3    H127416   6.156   1.958   8.022 -1.0558  0.4969  1.5085
 1927TIP3    H227417   6.166   2.105   8.056 -1.8324  0.5728  1.4319
 1928TIP3   OH227418   3.375   0.479   7.366 -0.3256  0.3781 -0.0795
 1928TIP3    H127419   3.378   0.412   7.434  2.2698  0.9316  0.4858
 1928TIP3    H227420   3.380   0.562   7.414  0.4512  0.8162 -0.8845
 1929TIP3   OH227421   1.784   6.319   8.687 -0.2498 -0.4261  0.1818
 1929TIP3    H127422   1.831   6.371   8.752 -2.7129  0.5430  1.2982
 1929TIP3    H227423   1.843   6.318   8.611  2.1142 -0.4230  1.8787
 1930TIP3   OH227424   6.364   1.291   0.166  0.0632  0.0431  0.1305
 1930TIP3    H127425   6.452   1.286   0.128 -0.1126  0.3940 -0.3206
 1930TIP3    H227426   6.307   1.312   0.092 -0.4238 -0.3288  0.3932
 1931TIP3   OH227427   0.038   3.457   1.808  0.4579  0.2156  0.5032
 1931TIP3    H127428   0.031   3.365   1.782  1.4538  0.4823 -0.7335
 1931TIP3    H227429   0.094   3.455   1.886  2.3869 -0.0513 -0.8176
 1932TIP3   OH227430   2.873   0.502   0.657 -0.1835 -0.0117 -0.4094
 1932TIP3    H127431   2.822   0.435   0.703  0.1794 -1.0703 -1.4917
 1932TIP3    H227432   2.880   0.469   0.567 -0.4001  1.7150 -1.1120
 1933TIP3   OH227433   5.021   5.936   0.660  0.2893  0.5312 -0.4221
 1933TIP3    H127434   5.027   5.939   0.756  1.3511  1.0089 -0.4900
 1933TIP3    H227435   5.083   5.868   0.634 -1.1758 -0.7360 -0.6945
 1934TIP3   OH227436   2.806   3.486   8.021  0.2838  0.6605  0.0353
 1934TIP3    H127437   2.840   3.399   8.040  0.6009  0.7730  0.0025
 1934TIP3    H227438   2.876   3.546   8.050  0.4980  0.8570 -0.8450
 1935TIP3   OH227439   0.286   2.440   6.820  0.1496  0.0001 -0.6219
 1935TIP3    H127440   0.376   2.420   6.795  0.2982 -0.6805  0.4051
 1935TIP3    H227441   0.238   2.445   6.737  0.9548 -0.5064 -1.1212
 1936TIP3   OH227442   6.733   1.602   8.848  0.3091 -0.0985  0.0186
 1936TIP3    H127443   6.685   1.534   8.800 -0.6580 -2.0087  3.3774
 1936TIP3    H227444   6.819   1.563   8.864  1.1377  1.1097 -1.3183
 1937TIP3   OH227445   2.771   1.441   0.117  0.2862 -0.2484 -0.2455
 1937TIP3    H127446   2.811   1.361   0.081  1.4274 -0.4874  1.4622
 1937TIP3    H227447   2.728   1.413   0.198 -0.2755  0.6869 -0.1981
 1938TIP3   OH227448   5.593   3.875   1.584 -0.2454  0.2056 -0.2282
 1938TIP3    H127449   5.679   3.907   1.555 -0.2821  0.5096 -0.0044
 1938TIP3    H227450   5.553   3.839   1.505 -0.5252  1.4181 -0.6657
 1939TIP3   OH227451   6.296   4.538   8.568 -0.0076  0.2319 -1.3332
 1939TIP3    H127452   6.333   4.615   8.527 -0.9178  0.9846 -0.7819
 1939TIP3    H227453   6.354   4.520   8.642 -1.1647  1.9299  0.0556
 1940TIP3   OH227454   0.132   5.711   7.350  0.3989 -0.5306  0.2925
 1940TIP3    H127455   0.145   5.650   7.277  3.3250  0.1421  0.1058
 1940TIP3    H227456   0.074   5.778   7.315 -0.0269 -1.3780 -0.6740
 1941TIP3   OH227457   5.658   6.356   1.116 -0.4064  0.1220 -0.3800
 1941TIP3    H127458   5.715   6.370   1.040  1.5001  1.6106  1.2206
 1941TIP3    H227459   5.624   6.443   1.136 -2.1091 -0.5060 -0.3746
 1942TIP3   OH227460   0.544   6.047   7.945  0.4463  0.1284  0.1607
 1942TIP3    H127461   0.570   6.137   7.967 -1.8907  1.0335 -0.4347
 1942TIP3    H227462   0.517   6.053   7.853 -0.7717 -0.9404  0.4359
 1943TIP3   OH227463   5.957   6.178   8.355 -0.4827 -0.0989 -0.1836
 1943TIP3    H127464   5.880   6.204   8.304  0.6299  1.1938 -1.2770
 1943TIP3    H227465   6.025   6.164   8.289  0.5151 -0.1575  0.8405
 1944TIP3   OH227466   1.523   1.657   1.678  0.1461  0.1125 -0.0037
 1944TIP3    H127467   1.542   1.575   1.723  2.1994 -0.1965 -1.3056
 1944TIP3    H227468   1.542   1.639   1.586 -2.5318  1.1378 -0.8567
 1945TIP3   OH227469   5.555   2.119   7.831 -0.0316  0.0591 -0.5729
 1945TIP3    H127470   5.512   2.165   7.759 -1.7402 -0.9491 -0.2633
 1945TIP3    H227471   5.623   2.179   7.861 -1.7200  2.1166 -0.6039
 1946TIP3   OH227472   4.119   6.516   1.978 -0.3352  0.3078 -0.0000
 1946TIP3    H127473   4.053   6.567   2.025 -2.9996 -1.8541 -1.1269
 1946TIP3    H227474   4.178   6.485   2.046  0.5688  3.6001  0.8667
 1947TIP3   OH227475   1.771   1.039   2.755 -0.2411 -0.0796 -0.0260
 1947TIP3    H127476   1.743   1.000   2.672  0.6593  1.5073 -1.1277
 1947TIP3    H227477   1.834   0.975   2.791  0.5573 -0.0846 -1.3623
 1948TIP3   OH227478   2.081   5.397   0.165 -0.0655  0.0599 -0.5508
 1948TIP3    H127479   2.001   5.351   0.140  0.7147 -1.0269 -1.1273
 1948TIP3    H227480   2.093   5.464   0.098 -1.9711  2.1570  1.0509
 1949TIP3   OH227481   2.124   5.943   7.364 -0.6417 -0.3624  0.0162
 1949TIP3    H127482   2.138   5.908   7.452  0.1689  1.1623  0.5336
 1949TIP3    H227483   2.124   5.866   7.308  0.3243 -1.2659  1.1773
 1950TIP3   OH227484   1.439   2.389   8.327  0.7640 -0.3266 -0.1138
 1950TIP3    H127485   1.410   2.480   8.335  0.3095 -0.4488 -0.2941
 1950TIP3    H227486   1.475   2.366   8.413  2.2351  0.4753 -0.4923
 1951TIP3   OH227487   3.618   4.817   2.156  0.1101  0.0469  0.2646
 1951TIP3    H127488   3.692   4.757   2.160  0.3217  0.1291 -1.5326
 1951TIP3    H227489   3.585   4.822   2.246  0.0158 -2.8332  0.4686
 1952TIP3   OH227490   2.429   5.815   8.702 -0.2588  0.3649  0.5134
 1952TIP3    H127491   2.409   5.722   8.706  1.6240 -0.0402  1.5845
 1952TIP3    H227492   2.511   5.824   8.750 -0.7685  2.6942  1.0566
 1953TIP3   OH227493   1.491   0.483   8.871  0.3439  0.2340 -0.0286
 1953TIP3    H127494   1.403   0.515   8.853  0.5427  1.5284  1.1701
 1953TIP3    H227495   1.485   0.388   8.861 -1.1515  0.3172 -0.0384
 1954TIP3   OH227496   0.218   0.749   8.014  0.0050 -0.1288  0.0605
 1954TIP3    H127497   0.219   0.826   8.071 -0.2796 -1.2238  1.6130
 1954TIP3    H227498   0.310   0.727   8.000  0.1344  1.0774 -1.2964
 1955TIP3   OH227499   1.709   3.153   1.496 -0.7273 -0.3795  0.1867
 1955TIP3    H127500   1.704   3.244   1.469  4.1146 -0.1144 -0.5297
 1955TIP3    H227501   1.759   3.154   1.577 -2.2276 -2.3690  1.2486
 1956TIP3   OH227502   6.356   4.117   1.002  0.1380  0.3104  0.0791
 1956TIP3    H127503   6.349   4.043   1.063  0.7185  0.2431  0.0648
 1956TIP3    H227504   6.305   4.187   1.044 -2.2987 -0.7301 -0.9124
 1957TIP3   OH227505   0.008   4.095   2.480  0.3580 -0.6525 -0.5494
 1957TIP3    H127506   0.071   4.166   2.490  0.9689 -0.7286 -3.1842
 1957TIP3    H227507   0.061   4.019   2.455 -0.5921 -1.2356 -0.8411
 1958TIP3   OH227508   0.711   4.482   1.451 -0.3468 -0.0310  0.0165
 1958TIP3    H127509   0.722   4.454   1.542  0.8092 -2.1433 -0.7090
 1958TIP3    H227510   0.696   4.576   1.457 -0.5046 -0.1338  2.3962
 1959TIP3   OH227511   6.075   4.343   0.429  0.0918 -0.5523 -0.1583
 1959TIP3    H127512   6.024   4.419   0.459  2.2612  1.0999 -0.4447
 1959TIP3    H227513   6.060   4.340   0.335  2.0404  1.2383 -0.5991
 1960TIP3   OH227514   4.602   1.698   2.213 -0.0366 -0.1133 -0.0838
 1960TIP3    H127515   4.696   1.680   2.204  0.2308  0.3778  1.3845
 1960TIP3    H227516   4.584   1.684   2.306 -1.4232 -0.1787 -0.3471
 1961TIP3   OH227517   6.567   4.467   6.706 -0.0193  0.3827  0.0602
 1961TIP3    H127518   6.579   4.422   6.790 -1.5974 -1.2968 -0.5370
 1961TIP3    H227519   6.554   4.559   6.729  0.5215  0.1058  1.5749
 1962TIP3   OH227520   6.064   1.851   0.543 -0.5302  0.2332 -0.5748
 1962TIP3    H127521   6.072   1.768   0.495 -0.5925 -0.4296  0.5186
 1962TIP3    H227522   5.996   1.834   0.608  0.6003  0.6053  0.7392
 1963TIP3   OH227523   3.968   6.233   7.422 -0.0408  0.2246  0.6823
 1963TIP3    H127524   3.954   6.307   7.362  0.5525  0.6054  1.0002
 1963TIP3    H227525   3.880   6.200   7.440 -0.3206  0.8953  0.5823
 1964TIP3   OH227526   0.966   5.641   8.512  0.0337 -0.3029 -0.0589
 1964TIP3    H127527   1.001   5.560   8.549 -1.9079 -0.1121  2.4290
 1964TIP3    H227528   0.973   5.705   8.583  0.0599  1.3289 -1.4516
 1965TIP3   OH227529   3.877   3.658   0.150  0.0224  0.1851 -0.3788
 1965TIP3    H127530   3.892   3.752   0.139 -0.3565  0.0705 -2.2522
 1965TIP3    H227531   3.897   3.621   0.065 -3.0037 -0.9801 -0.7177
 1966TIP3   OH227532   4.080   3.551   1.990 -0.4839 -0.3042  0.0857
 1966TIP3    H127533   4.001   3.595   2.022 -0.3413 -1.2764  1.9244
 1966TIP3    H227534   4.149   3.617   2.000 -0.8797  0.2185 -0.5710
 1967TIP3   OH227535   6.634   2.847   1.428  0.4999 -0.0618  0.2460
 1967TIP3    H127536   6.629   2.885   1.340  1.3222 -0.0504  0.2026
 1967TIP3    H227537   6.585   2.909   1.483 -1.2190 -0.7616 -0.4130
 1968TIP3   OH227538   0.869   2.194   0.570  0.2147 -0.6240 -0.0940
 1968TIP3    H127539   0.892   2.122   0.512 -0.5541 -0.4809 -0.5881
 1968TIP3    H227540   0.778   2.179   0.594  0.0403  0.1835 -0.2082
 1969TIP3   OH227541   1.537   6.456   1.795  0.4817 -0.0557 -0.0545
 1969TIP3    H127542   1.546   6.495   1.882 -1.3311 -0.0882  0.1788
 1969TIP3    H227543   1.566   6.524   1.735  2.3201 -0.2421  0.5706
 1970TIP3   OH227544   6.583   6.127   7.033  0.5496 -0.0395 -0.4738
 1970TIP3    H127545   6.556   6.041   7.063  0.4450 -0.1939 -0.9945
 1970TIP3    H227546   6.646   6.110   6.963 -1.3908  0.2298 -2.4051
 1971TIP3   OH227547   1.739   5.688   1.206 -0.0480  0.2800  0.1143
 1971TIP3    H127548   1.820   5.734   1.183  0.0600  0.2957  0.5134
 1971TIP3    H227549   1.674   5.758   1.216  0.5965  0.6125  2.8241
 1972TIP3   OH227550   1.696   4.770   8.938 -0.7489 -1.0212 -0.3003
 1972TIP3    H127551   1.641   4.711   8.888 -2.9772  0.2387  0.5275
 1972TIP3    H227552   1.654   4.856   8.930  0.2143 -0.2862  1.6294
 1973TIP3   OH227553   0.379   5.314   7.333 -0.1553  0.7689  0.1787
 1973TIP3    H127554   0.474   5.310   7.338  0.1960  2.6815 -2.4389
 1973TIP3    H227555   0.352   5.225   7.308  0.6304 -0.3572  2.9881
 1974TIP3   OH227556   6.043   5.572   1.206 -0.1142  0.4485  0.4467
 1974TIP3    H127557   6.053   5.572   1.301  0.2319 -0.6435  0.4280
 1974TIP3    H227558   6.115   5.517   1.174  0.0449  1.1725 -0.4839
 1975TIP3   OH227559   3.072   1.365   1.269 -0.0825  0.2206  0.6011
 1975TIP3    H127560   2.982   1.342   1.291 -1.3462  3.2649 -0.7456
 1975TIP3    H227561   3.069   1.460   1.253  3.0673  0.1835 -1.0030
 1976TIP3   OH227562   2.237   0.328   0.994  0.2140 -0.0576  0.1867
 1976TIP3    H127563   2.149   0.342   1.030  0.2631 -1.4281  0.9075
 1976TIP3    H227564   2.223   0.317   0.900 -0.2634  0.6816  0.1633
 1977TIP3   OH227565   1.000   6.719   6.718  0.6618  0.5429  0.1524
 1977TIP3    H127566   1.030   6.802   6.679 -2.0035  1.3779 -0.3390
 1977TIP3    H227567   1.017   6.730   6.811  0.1192  1.8044  0.1342
 1978TIP3   OH227568   4.688   2.785   0.352 -1.2547  0.3433  0.1530
 1978TIP3    H127569   4.657   2.696   0.370 -0.0208 -0.1852 -0.2571
 1978TIP3    H227570   4.713   2.784   0.260  1.2237  0.3161  0.7409
 1979TIP3   OH227571   6.417   2.847   1.735  0.6670 -0.2138 -0.0774
 1979TIP3    H127572   6.365   2.809   1.665  0.6728  1.1592 -0.8517
 1979TIP3    H227573   6.427   2.775   1.798 -0.0413 -1.2274 -1.0682
 1980TIP3   OH227574   4.924   0.213   8.635 -0.5848 -0.3029  0.2657
 1980TIP3    H127575   5.006   0.218   8.684 -0.2515 -1.8268 -0.0918
 1980TIP3    H227576   4.933   0.279   8.567 -0.6211  1.1206  1.5885
 1981TIP3   OH227577   4.309   1.405   2.483  0.3848  0.0226  0.3553
 1981TIP3    H127578   4.283   1.331   2.538  0.7333  0.3006  0.9002
 1981TIP3    H227579   4.370   1.455   2.537  1.1182  0.0354 -0.4553
 1982TIP3   OH227580   2.497   2.509   0.784 -0.0096  0.6602  0.2745
 1982TIP3    H127581   2.538   2.569   0.846 -0.8344  0.6125  0.8852
 1982TIP3    H227582   2.455   2.566   0.719  3.5380  0.7763 -2.2130
 1983TIP3   OH227583   0.771   3.243   1.817 -0.5820  0.3120 -0.6608
 1983TIP3    H127584   0.782   3.163   1.765  1.4366  0.0611  0.0919
 1983TIP3    H227585   0.843   3.300   1.790  0.0442  0.4964  1.2631
 1984TIP3   OH227586   3.642   6.386   0.371  0.2943 -0.6837 -0.1390
 1984TIP3    H127587   3.551   6.367   0.396 -0.3347  0.7112 -1.2047
 1984TIP3    H227588   3.634   6.438   0.291  1.9753  0.7242  0.5489
 1985TIP3   OH227589   3.739   1.193   8.178 -0.0374 -0.2238  0.3114
 1985TIP3    H127590   3.715   1.101   8.163  1.4248 -0.7713  1.1244
 1985TIP3    H227591   3.790   1.192   8.259 -0.5965  1.4271  0.7239
 1986TIP3   OH227592   4.529   5.312   8.893  0.2765  0.2387  0.0860
 1986TIP3    H127593   4.523   5.408   8.895  2.0027  0.4652 -1.6719
 1986TIP3    H227594   4.486   5.287   8.811  1.8712 -0.2098 -0.6611
 1987TIP3   OH227595   6.195   4.257   0.715 -0.0086 -0.0528  0.1410
 1987TIP3    H127596   6.157   4.274   0.629  0.4148 -0.0598 -0.0499
 1987TIP3    H227597   6.280   4.217   0.696 -0.3436 -0.9810  0.5751
 1988TIP3   OH227598   0.737   5.213   7.883 -0.2691 -0.0974 -0.7275
 1988TIP3    H127599   0.685   5.286   7.851 -1.7703 -0.6771  0.2845
 1988TIP3    H227600   0.688   5.135   7.858  0.6017 -0.7064 -0.5867
 1989TIP3   OH227601   3.815   1.096   0.596 -0.7255 -0.6005 -0.2871
 1989TIP3    H127602   3.881   1.077   0.529 -0.1662  0.4534 -0.0599
 1989TIP3    H227603   3.734   1.111   0.547  0.0401  1.9224 -0.9543
 1990TIP3   OH227604   3.368   6.287   1.191  0.6915  0.2570  0.3712
 1990TIP3    H127605   3.350   6.198   1.160  0.3853  0.6248 -0.5244
 1990TIP3    H227606   3.294   6.339   1.160  0.0767  0.5592  2.2041
 1991TIP3   OH227607   5.517   3.842   8.585  0.8321 -0.3247  0.0343
 1991TIP3    H127608   5.503   3.747   8.586  1.4636 -0.5089 -2.4146
 1991TIP3    H227609   5.610   3.853   8.602  0.6378 -0.0821  0.9818
 1992TIP3   OH227610   0.206   0.562   7.551 -0.1894  0.4827 -0.0387
 1992TIP3    H127611   0.251   0.483   7.522  0.6736  0.8803  0.1834
 1992TIP3    H227612   0.131   0.571   7.492 -0.7023 -0.8703  0.3649
 1993TIP3   OH227613   6.500   4.302   8.140 -0.1294  0.0206 -0.4758
 1993TIP3    H127614   6.508   4.209   8.118 -0.5391 -0.5065  1.4740
 1993TIP3    H227615   6.408   4.323   8.126 -0.2505 -0.1404  0.0668
 1994TIP3   OH227616   1.967   1.452   8.326  0.5441  0.3880 -0.4490
 1994TIP3    H127617   1.895   1.391   8.310 -1.0908  2.2081 -0.3814
 1994TIP3    H227618   1.997   1.477   8.239  0.3606  0.4520 -0.4943
 1995TIP3   OH227619   2.708   4.849   7.253  0.1202  0.6767 -0.4665
 1995TIP3    H127620   2.734   4.931   7.211  2.0654 -0.3556 -1.3808
 1995TIP3    H227621   2.770   4.784   7.220 -0.7254 -0.9747  1.0342
 1996TIP3   OH227622   1.886   1.912   0.768  0.2087 -0.3153 -0.2484
 1996TIP3    H127623   1.967   1.962   0.773  0.4236 -0.6992  0.1488
 1996TIP3    H227624   1.892   1.865   0.684  0.8974 -1.1788  0.2627
 1997TIP3   OH227625   5.022   5.999   7.407 -0.3446 -0.3578 -0.2964
 1997TIP3    H127626   5.016   6.016   7.501 -2.9099  2.1253 -0.8008
 1997TIP3    H227627   5.060   6.079   7.370  0.8311 -1.3779 -1.3953
 1998TIP3   OH227628   6.416   5.927   8.003 -0.4443  0.3394  0.6373
 1998TIP3    H127629   6.453   6.010   8.033  0.9814 -0.6439  1.7545
 1998TIP3    H227630   6.490   5.880   7.964 -1.6123  0.3050 -1.6913
 1999TIP3   OH227631   1.825   1.818   0.523 -0.1684  0.1046  0.1700
 1999TIP3    H127632   1.863   1.796   0.438 -1.5154  0.8737 -0.6634
 1999TIP3    H227633   1.819   1.734   0.569  1.7444 -0.1538  0.0406
 2000TIP3   OH227634   0.093   2.056   1.411  0.4547  0.0395  0.3457
 2000TIP3    H127635   0.121   2.018   1.328  0.4104  1.0527 -0.1459
 2000TIP3    H227636   0.113   2.149   1.403 -0.0298  0.2356  1.2696
 2001TIP3   OH227637   6.615   3.571   1.964  0.2551  0.2275  0.1952
 2001TIP3    H127638   6.657   3.656   1.971 -0.6026  1.0151 -2.9048
 2001TIP3    H227639   6.661   3.528   1.892 -1.1746 -0.7861 -0.1413
 2002TIP3   OH227640   1.542   4.364   8.532  0.0565  0.3545  0.1050
 2002TIP3    H127641   1.456   4.340   8.564 -1.1792  2.7383 -1.1635
 2002TIP3    H227642   1.551   4.315   8.450  0.0911 -0.1901  0.4287
 2003TIP3   OH227643   2.617   4.163   0.918 -0.3711  0.4635  0.0684
 2003TIP3    H127644   2.560   4.131   0.848  1.3968  0.8770 -1.6300
 2003TIP3    H227645   2.601   4.257   0.922  0.1290  0.5665 -0.3496
 2004TIP3   OH227646   3.264   5.313   2.371  0.4473 -0.5131  0.6415
 2004TIP3    H127647   3.338   5.259   2.343  0.4060  0.6381 -2.0066
 2004TIP3    H227648   3.261   5.385   2.308 -2.1252  0.2185  1.4542
 2005TIP3   OH227649   5.362   4.711   1.540 -0.3011 -0.7625 -0.3080
 2005TIP3    H127650   5.335   4.799   1.565  0.4129 -0.2120 -1.3995
 2005TIP3    H227651   5.280   4.661   1.538 -0.8018  0.0404 -0.3349
 2006TIP3   OH227652   1.889   1.049   8.823  0.2796 -0.4649  0.5249
 2006TIP3    H127653   1.827   1.081   8.888 -1.0740 -1.4075 -0.2320
 2006TIP3    H227654   1.940   0.982   8.868 -0.2139 -0.6636  0.7890
 2007TIP3   OH227655   5.914   2.946   1.951  0.8901  0.1041 -0.1775
 2007TIP3    H127656   5.875   2.862   1.974  0.3392  0.1295 -0.9733
 2007TIP3    H227657   5.915   2.996   2.033  0.5400 -0.4045  0.1378
 2008TIP3   OH227658   2.488   1.661   8.945 -0.5464  0.4955 -0.0826
 2008TIP3    H127659   2.511   1.703   9.028  0.7919  1.0362 -0.6811
 2008TIP3    H227660   2.397   1.685   8.930 -0.9405  0.0239  1.4250
 2009TIP3   OH227661   0.624   1.172   8.211 -0.2930  0.5967 -0.4193
 2009TIP3    H127662   0.679   1.137   8.142 -0.3001  0.3673 -0.3106
 2009TIP3    H227663   0.592   1.256   8.177 -2.2288 -0.5884 -1.7020
 2010TIP3   OH227664   1.534   5.657   0.817  0.4850  0.3479 -0.3744
 2010TIP3    H127665   1.563   5.608   0.894 -2.7447 -0.2510  0.6241
 2010TIP3    H227666   1.568   5.609   0.742  1.0238 -0.9092  0.6606
 2011TIP3   OH227667   2.454   2.811   1.197 -0.4330 -0.6785  0.4707
 2011TIP3    H127668   2.461   2.748   1.269 -2.8660 -1.2552  0.2725
 2011TIP3    H227669   2.446   2.756   1.118  1.2893 -0.0567 -0.1957
 2012TIP3   OH227670   3.345   0.020   0.693 -0.1876 -0.5173  0.3707
 2012TIP3    H127671   3.300  -0.007   0.773  0.1447 -1.2188  0.3313
 2012TIP3    H227672   3.376   0.108   0.711 -2.0693  0.2254  0.1936
 2013TIP3   OH227673   0.575   1.180   1.550 -0.5167  0.6112 -0.3076
 2013TIP3    H127674   0.549   1.217   1.465  0.3597  1.0813 -0.3808
 2013TIP3    H227675   0.610   1.255   1.599  1.7249 -0.1414 -0.6290
 2014TIP3   OH227676   1.552   2.321   7.220  0.0825  0.3011  0.2654
 2014TIP3    H127677   1.575   2.322   7.128 -0.6381 -0.0507  0.0781
 2014TIP3    H227678   1.462   2.355   7.223  0.8350  2.4489  1.0512
 2015TIP3   OH227679   0.440   5.671   1.488  0.6998  0.3018 -0.1646
 2015TIP3    H127680   0.443   5.766   1.476 -0.8285  0.2926 -0.9345
 2015TIP3    H227681   0.529   5.646   1.512  1.3129  1.8162 -0.7950
 2016TIP3   OH227682   2.550   2.484   1.622  0.5705  0.7143 -0.4034
 2016TIP3    H127683   2.642   2.505   1.633 -0.1513  4.1824  0.1696
 2016TIP3    H227684   2.513   2.492   1.710 -0.2516 -1.0232 -0.5501
 2017TIP3   OH227685   5.225   0.092   2.466  0.1018 -0.2052 -0.1915
 2017TIP3    H127686   5.187   0.155   2.527 -0.9885 -0.7178 -0.3157
 2017TIP3    H227687   5.300   0.055   2.512  1.3233  1.7985 -0.4458
 2018TIP3   OH227688   2.104   1.167   0.415  0.0583 -0.3657 -0.1008
 2018TIP3    H127689   2.182   1.196   0.463 -0.7670 -0.5660  1.4134
 2018TIP3    H227690   2.031   1.185   0.474 -0.9933 -0.7704 -1.2346
 2019TIP3   OH227691   6.182   5.833   2.173 -0.7825 -0.0746 -0.2703
 2019TIP3    H127692   6.239   5.767   2.213 -0.7393  1.4501  2.3784
 2019TIP3    H227693   6.119   5.855   2.241 -1.7412  1.5140 -1.6095
 2020TIP3   OH227694   2.221   0.683   0.500 -0.0462 -0.2293  0.5328
 2020TIP3    H127695   2.183   0.715   0.582  0.5047 -0.7442  0.9965
 2020TIP3    H227696   2.201   0.752   0.436  0.7649  0.8600  1.4134
 2021TIP3   OH227697   3.004   3.855   1.419  0.1630  0.5413 -0.0974
 2021TIP3    H127698   3.070   3.807   1.469  0.2603  0.0850 -0.6502
 2021TIP3    H227699   2.921   3.831   1.459  0.2245  0.0328 -0.2681
 2022TIP3   OH227700   6.189   6.607   1.013 -0.5124 -0.5265  0.0661
 2022TIP3    H127701   6.271   6.588   1.058 -1.2639 -2.2721  0.7658
 2022TIP3    H227702   6.216   6.652   0.933  1.0957 -0.8060  0.4156
 2023TIP3   OH227703   3.268   1.456   1.645  0.2010  0.0805  0.1961
 2023TIP3    H127704   3.257   1.505   1.563  0.7754  0.6602  0.4562
 2023TIP3    H227705   3.361   1.435   1.649  0.4579  1.2743  1.3620
 2024TIP3   OH227706   5.143   5.423   7.854 -0.2017 -0.1387  0.2326
 2024TIP3    H127707   5.162   5.485   7.925  1.6253 -0.8868  0.4415
 2024TIP3    H227708   5.150   5.337   7.896  0.2321 -0.5678 -0.7019
 2025TIP3   OH227709   0.580   3.208   0.169 -0.2277 -0.3303  0.2338
 2025TIP3    H127710   0.575   3.252   0.254 -1.5111  1.8323 -0.8623
 2025TIP3    H227711   0.490   3.207   0.137  0.3157 -0.4393 -1.3901
 2026TIP3   OH227712   4.797   0.144   0.600  0.6531 -0.1288 -0.2570
 2026TIP3    H127713   4.785   0.162   0.693  3.7718 -0.1444  0.2527
 2026TIP3    H227714   4.888   0.114   0.592  0.7934  0.7341 -3.4316
 2027TIP3   OH227715   1.929   3.460   0.286 -0.2770  0.1239 -0.2302
 2027TIP3    H127716   2.024   3.469   0.292 -0.4334  1.0655  3.1421
 2027TIP3    H227717   1.911   3.450   0.192  2.9709  1.7040 -1.1584
 2028TIP3   OH227718   4.910   1.567   0.659  0.2137 -0.0089 -0.1235
 2028TIP3    H127719   4.900   1.611   0.574 -1.8006 -0.0190  0.0546
 2028TIP3    H227720   4.902   1.638   0.723 -2.6134 -0.4649  0.1513
 2029TIP3   OH227721   4.412   3.316   1.131  0.6215 -0.3220 -0.0981
 2029TIP3    H127722   4.323   3.307   1.096  0.1566 -0.7710  1.1520
 2029TIP3    H227723   4.454   3.381   1.074  0.2505 -1.7780 -2.1409
 2030TIP3   OH227724   6.631   6.371   1.381 -0.1292  0.3544  0.3917
 2030TIP3    H127725   6.636   6.442   1.444  1.2887  0.9570 -0.3527
 2030TIP3    H227726   6.577   6.406   1.310  0.3580  0.6126  0.1414
 2031TIP3   OH227727   2.938   3.828   8.848  0.0731  0.3671 -1.0537
 2031TIP3    H127728   2.897   3.888   8.786  0.7795  0.1233 -1.7848
 2031TIP3    H227729   2.981   3.885   8.912 -1.3565  0.6194 -0.2886
 2032TIP3   OH227730   4.903   6.493   0.715  0.8367  0.9899  0.2972
 2032TIP3    H127731   4.907   6.413   0.768 -0.7394 -0.4233 -1.5516
 2032TIP3    H227732   4.990   6.501   0.678  1.3367  0.7909  1.3854
 2033TIP3   OH227733   4.872   3.635   8.030  0.8001  0.0349  0.2186
 2033TIP3    H127734   4.893   3.648   8.122  1.4220  1.1174 -0.0564
 2033TIP3    H227735   4.834   3.719   8.002  0.6663 -0.2626 -0.5175
 2034TIP3   OH227736   5.163   0.189   1.124  0.7653  0.4078  0.4437
 2034TIP3    H127737   5.086   0.159   1.075  0.4531  0.4724  0.8857
 2034TIP3    H227738   5.226   0.118   1.116  0.8819  0.5938 -0.4103
 2035TIP3   OH227739   2.868   3.136   0.056  0.2280 -0.3762  0.1955
 2035TIP3    H127740   2.920   3.142  -0.024 -0.9911 -0.0646 -0.6035
 2035TIP3    H227741   2.881   3.220   0.100  2.0101 -1.0648  1.0649
 2036TIP3   OH227742   3.789   3.340   2.147  0.0719 -0.0335 -0.2688
 2036TIP3    H127743   3.870   3.316   2.192 -1.1205  0.0174  2.0211
 2036TIP3    H227744   3.738   3.389   2.212 -1.8111 -0.0686 -1.6313
 2037TIP3   OH227745   4.222   3.704   0.212 -0.1212 -0.3899 -0.4923
 2037TIP3    H127746   4.297   3.762   0.225 -1.0418  0.9615 -0.9750
 2037TIP3    H227747   4.163   3.723   0.286 -1.1196  0.4395 -1.4713
 2038TIP3   OH227748   5.712   3.392   8.718 -0.1861 -0.0535  0.0970
 2038TIP3    H127749   5.682   3.301   8.712  1.3026 -0.5841  0.4916
 2038TIP3    H227750   5.631   3.443   8.728 -0.9450 -1.4958  1.8018
 2039TIP3   OH227751   4.688   2.147   8.790  0.3433  0.2928 -0.1713
 2039TIP3    H127752   4.631   2.096   8.733 -0.4351  1.0080 -0.0529
 2039TIP3    H227753   4.628   2.201   8.842  0.7034 -2.4668  3.5676
 2040TIP3   OH227754   1.466   5.384   7.758 -0.6324  0.5543 -0.3379
 2040TIP3    H127755   1.379   5.384   7.798 -0.7546  1.3773 -0.5864
 2040TIP3    H227756   1.450   5.399   7.665 -0.4102 -2.0992 -0.8841
 2041TIP3   OH227757   1.733   5.282   7.511  0.3198  0.2486  0.3963
 2041TIP3    H127758   1.682   5.300   7.432  0.2445  1.9188  0.7818
 2041TIP3    H227759   1.815   5.245   7.478  1.5680  3.6209 -0.8150
 2042TIP3   OH227760   6.660   2.971   1.173 -0.0145 -0.0824 -0.0670
 2042TIP3    H127761   6.656   3.067   1.171  0.9030 -0.0432 -0.8417
 2042TIP3    H227762   6.692   2.947   1.086  2.4533 -0.9242  1.0011
 2043TIP3   OH227763   2.628   3.879   8.122 -0.0199  0.4402 -0.2423
 2043TIP3    H127764   2.625   3.789   8.088  0.5359  0.4595 -0.3497
 2043TIP3    H227765   2.565   3.879   8.194 -0.9390  0.2996 -1.0246
 2044TIP3   OH227766   1.066   0.119   2.364  0.2823 -0.4081 -0.2799
 2044TIP3    H127767   1.155   0.150   2.347  0.4890 -1.1102 -0.4709
 2044TIP3    H227768   1.035   0.176   2.435 -0.2241  1.8787 -2.1912
 2045TIP3   OH227769   2.492   3.122   2.040 -0.4228 -0.0013 -0.6073
 2045TIP3    H127770   2.581   3.119   2.004  0.2827  1.6947  0.8472
 2045TIP3    H227771   2.479   3.036   2.079  1.0021  0.0472  0.0515
 2046TIP3   OH227772   4.628   3.206   1.635  0.0370  0.3868 -0.1020
 2046TIP3    H127773   4.697   3.165   1.583 -1.7093 -2.6926 -0.2877
 2046TIP3    H227774   4.654   3.191   1.726  0.4482  0.8037 -0.1513
 2047TIP3   OH227775   2.310   4.740   6.721  0.4398  0.1656  0.1169
 2047TIP3    H127776   2.357   4.823   6.715 -2.3830  1.9336  0.9580
 2047TIP3    H227777   2.312   4.705   6.632 -1.4686  3.0244 -1.1734
 2048TIP3   OH227778   6.457   1.287   8.341  0.2117  0.8636 -0.6046
 2048TIP3    H127779   6.427   1.366   8.297 -2.1697 -0.8243 -2.2672
 2048TIP3    H227780   6.428   1.297   8.432 -2.0390  1.0098 -1.2988
 2049TIP3   OH227781   3.047   3.701   0.793 -0.5031  0.2891  0.6116
 2049TIP3    H127782   3.027   3.751   0.714  0.3787 -0.1443  0.0967
 2049TIP3    H227783   2.997   3.621   0.784 -1.8754  1.0174  1.4119
 2050TIP3   OH227784   1.237   0.799   1.801  0.0207  0.0121 -0.0223
 2050TIP3    H127785   1.175   0.867   1.771  0.6501  0.8141  0.4667
 2050TIP3    H227786   1.227   0.798   1.896  1.3261  0.7247  0.1448
 2051TIP3   OH227787   5.689   0.720   2.652 -0.0470  0.4775  0.3182
 2051TIP3    H127788   5.701   0.691   2.562  1.3219 -1.9251  1.1758
 2051TIP3    H227789   5.725   0.809   2.653  3.9911 -0.9058 -0.7174
 2052TIP3   OH227790   6.584   4.061   8.083  0.5675  0.3445  0.0856
 2052TIP3    H127791   6.677   4.036   8.076  0.5203  0.4015 -0.8809
 2052TIP3    H227792   6.538   3.978   8.093  0.8099  0.3842  1.9547
 2053TIP3   OH227793   6.703   5.490   7.254  0.2186 -0.7037 -0.2579
 2053TIP3    H127794   6.653   5.464   7.177  0.0504 -2.3975  0.3955
 2053TIP3    H227795   6.790   5.452   7.241  0.8107  0.6767 -0.5215
 2054TIP3   OH227796   4.834   5.076   7.773 -0.1871 -0.0745 -0.2646
 2054TIP3    H127797   4.852   5.044   7.862 -0.3925  0.1215 -0.1500
 2054TIP3    H227798   4.833   5.171   7.783  0.8716 -0.0084 -0.6855
 2055TIP3   OH227799   0.249   3.473   6.951 -0.0141  0.0144 -0.0271
 2055TIP3    H127800   0.162   3.466   6.990  0.4321 -0.2972  0.9274
 2055TIP3    H227801   0.246   3.553   6.899 -1.4965 -0.9946 -1.6210
 2056TIP3   OH227802   6.276   3.230   7.663 -0.1373 -0.1518 -0.2093
 2056TIP3    H127803   6.350   3.285   7.688 -1.1054 -0.4208  4.0397
 2056TIP3    H227804   6.309   3.140   7.671 -0.8155 -0.2800  1.8928
 2057TIP3   OH227805   4.719   1.218   7.599 -0.4509 -0.1118 -0.0998
 2057TIP3    H127806   4.747   1.153   7.534  0.4440 -2.4836  2.4723
 2057TIP3    H227807   4.628   1.237   7.575 -0.5011 -1.7154 -1.4120
 2058TIP3   OH227808   2.701   2.628   1.954 -0.1656 -0.3307  0.0504
 2058TIP3    H127809   2.757   2.551   1.959 -0.8216 -1.2131 -3.2804
 2058TIP3    H227810   2.615   2.594   1.930 -0.9008  1.3270  0.1557
 2059TIP3   OH227811   1.274   6.765   8.679  0.1525 -0.0859  0.7617
 2059TIP3    H127812   1.249   6.673   8.682  0.2982 -0.3092 -2.2329
 2059TIP3    H227813   1.370   6.764   8.682  0.1649 -0.0612  0.3966
 2060TIP3   OH227814   0.683   4.467   1.148  0.1628  0.3478  0.1376
 2060TIP3    H127815   0.721   4.473   1.235 -0.0878  2.3508  0.1568
 2060TIP3    H227816   0.751   4.502   1.090 -0.6508  1.5915 -0.1110
 2061TIP3   OH227817   4.040   1.490   2.390 -0.0974  0.0995  0.1814
 2061TIP3    H127818   4.013   1.475   2.480 -0.8250  2.7649  0.4747
 2061TIP3    H227819   4.135   1.500   2.394 -0.0801 -0.2132  0.5683
 2062TIP3   OH227820   0.972   6.675   2.257  0.1290 -0.1691  0.5468
 2062TIP3    H127821   0.979   6.765   2.290 -0.8668 -0.6342  2.1274
 2062TIP3    H227822   1.051   6.632   2.290  0.9061  0.2528 -0.7136
 2063TIP3   OH227823   0.613   1.596   0.182 -0.0850  0.0249 -0.0926
 2063TIP3    H127824   0.526   1.615   0.146 -0.0208 -0.5734 -0.5788
 2063TIP3    H227825   0.666   1.673   0.161 -0.3441  0.1496 -0.2974
 2064TIP3   OH227826   5.797   2.017   1.303 -0.0753 -0.3112  0.0633
 2064TIP3    H127827   5.736   2.053   1.238 -0.5115 -1.5955 -0.2559
 2064TIP3    H227828   5.835   1.940   1.261 -0.5556 -1.3105  1.4127
 2065TIP3   OH227829   4.023   2.287   8.676 -0.0859  0.1525 -0.4267
 2065TIP3    H127830   3.946   2.328   8.717 -0.1105  0.9018 -1.1891
 2065TIP3    H227831   4.066   2.359   8.631  1.4294 -0.1256  0.5123
 2066TIP3   OH227832   5.085   0.347   0.376  0.1766  0.0988 -0.3769
 2066TIP3    H127833   5.106   0.342   0.283  0.1212 -1.0563 -0.3368
 2066TIP3    H227834   5.135   0.423   0.407  2.5528 -1.2156 -0.7468
 2067TIP3   OH227835   5.106   3.641   0.374  0.1457  0.2927 -0.1954
 2067TIP3    H127836   5.183   3.605   0.331 -0.7408 -1.0052 -0.7708
 2067TIP3    H227837   5.078   3.574   0.435  0.8305  1.7368  1.7999
 2068TIP3   OH227838   3.398   0.908   7.717 -0.0558  0.6021 -0.1363
 2068TIP3    H127839   3.386   0.989   7.667  0.1731  1.8292  1.7140
 2068TIP3    H227840   3.406   0.937   7.808 -0.0431 -1.5208  0.5822
 2069TIP3   OH227841   1.496   3.787   0.048  0.1052  0.6942  0.1725
 2069TIP3    H127842   1.439   3.764  -0.026  0.4577 -0.0364  0.1155
 2069TIP3    H227843   1.471   3.726   0.117 -0.9974  2.0927  1.0682
 2070TIP3   OH227844   2.104   5.738   8.191 -0.0853 -0.2892 -0.7526
 2070TIP3    H127845   2.128   5.825   8.160  1.2830 -0.3433  0.0875
 2070TIP3    H227846   2.116   5.742   8.286  1.9651 -1.9512 -0.8615
 2071TIP3   OH227847   4.073   1.977   7.401 -0.1687  0.0691 -0.0264
 2071TIP3    H127848   4.146   1.995   7.461  1.9584  1.1438 -2.7259
 2071TIP3    H227849   4.082   1.884   7.378 -0.2127 -0.0202  0.3132
 2072TIP3   OH227850   6.608   5.820   7.830  0.0463 -0.4860  0.4720
 2072TIP3    H127851   6.654   5.741   7.802 -1.2161 -1.1063  0.0824
 2072TIP3    H227852   6.552   5.843   7.756  1.1046  1.3612  0.1879
 2073TIP3   OH227853   6.589   6.535   8.874  0.0760  0.3887  0.3231
 2073TIP3    H127854   6.589   6.555   8.780  0.1338  1.0541  0.4597
 2073TIP3    H227855   6.505   6.492   8.889  0.3459 -0.3337 -0.1529
 2074TIP3   OH227856   6.334   6.287   0.967 -0.3665  0.1715 -0.0722
 2074TIP3    H127857   6.377   6.371   0.983 -1.1153  0.9239 -1.8130
 2074TIP3    H227858   6.241   6.306   0.971 -0.5511 -0.6350 -0.2684
 2075TIP3   OH227859   5.229   4.743   0.760  0.0654 -0.4355  0.3479
 2075TIP3    H127860   5.225   4.696   0.676  0.3975  0.4692 -0.1842
 2075TIP3    H227861   5.138   4.769   0.776  0.1785  0.4320 -0.3464
 2076TIP3   OH227862   3.009   0.820   1.023 -0.2427 -0.0588 -0.6077
 2076TIP3    H127863   3.030   0.887   1.088 -0.4110 -0.7360  0.1610
 2076TIP3    H227864   3.052   0.741   1.056 -1.7679 -0.8240 -0.3992
 2077TIP3   OH227865   6.720   0.541   0.642  0.4692 -0.1124 -0.1363
 2077TIP3    H127866   6.795   0.500   0.685 -0.1980 -1.3229 -0.0823
 2077TIP3    H227867   6.712   0.494   0.558 -1.5346 -1.5428  0.7829
 2078TIP3   OH227868   6.031   6.275   0.378  0.2541 -0.6941  0.3592
 2078TIP3    H127869   6.095   6.319   0.434 -0.5947 -2.0583  2.5578
 2078TIP3    H227870   6.027   6.186   0.412 -1.7452 -1.0330 -0.6156
 2079TIP3   OH227871   5.969   2.220   0.827 -0.1350 -1.0023 -0.1121
 2079TIP3    H127872   5.999   2.164   0.898  0.0617  0.2662  0.8378
 2079TIP3    H227873   5.873   2.213   0.830 -0.1933 -0.0736  1.0597
 2080TIP3   OH227874   0.240   3.647   6.661  0.5443 -0.2878 -0.1116
 2080TIP3    H127875   0.209   3.730   6.698 -1.3210 -1.5496  1.3902
 2080TIP3    H227876   0.167   3.586   6.676  1.7234 -2.1209 -1.4549
 2081TIP3   OH227877   2.752   3.809   1.541  0.0001 -0.1980 -0.1921
 2081TIP3    H127878   2.732   3.779   1.630  1.5004 -0.4294  0.1001
 2081TIP3    H227879   2.774   3.902   1.552  0.5307 -0.3137 -0.2587
 2082TIP3   OH227880   5.612   1.272   1.186 -0.0636 -0.0346 -0.1716
 2082TIP3    H127881   5.524   1.240   1.164 -0.1858  0.4706 -0.4252
 2082TIP3    H227882   5.601   1.366   1.198  0.5194  0.0929 -0.6147
 2083TIP3   OH227883   6.285   4.291   8.896  0.7132 -0.0737  0.0930
 2083TIP3    H127884   6.274   4.386   8.896 -1.1688 -0.2282 -1.2487
 2083TIP3    H227885   6.345   4.274   8.824 -1.3147 -0.0185 -1.7181
 2084TIP3   OH227886   3.873   6.301   0.267 -0.0777  0.1140 -0.1084
 2084TIP3    H127887   3.828   6.311   0.183  0.7142 -0.2227 -0.5853
 2084TIP3    H227888   3.806   6.318   0.333 -0.6498  0.6257 -0.8120
 2085TIP3   OH227889   1.473   2.001   7.884  0.1036  0.1253 -0.2097
 2085TIP3    H127890   1.431   1.981   7.800 -1.2796  2.0174 -0.0461
 2085TIP3    H227891   1.445   1.931   7.942 -1.8812  0.6420 -0.4593
 2086TIP3   OH227892   4.934   1.526   0.218 -0.2999  0.4160  0.0493
 2086TIP3    H127893   4.940   1.588   0.145  2.4819 -1.1201 -1.1939
 2086TIP3    H227894   4.857   1.474   0.199  0.6789 -0.3371 -2.2276
 2087TIP3   OH227895   1.319   2.285   1.533  0.2466  0.4917  0.7830
 2087TIP3    H127896   1.368   2.337   1.469 -0.6899  4.3252  2.8567
 2087TIP3    H227897   1.255   2.237   1.482  2.2445  0.0285 -1.4532
 2088TIP3   OH227898   2.208   0.366   0.715 -0.0579  0.6434  0.9967
 2088TIP3    H127899   2.292   0.411   0.707 -0.4847  1.2030 -0.9776
 2088TIP3    H227900   2.184   0.345   0.625 -1.4889 -0.5481  1.6190
 2089TIP3   OH227901   0.357   4.730   1.505  0.5807  0.1510 -0.3601
 2089TIP3    H127902   0.352   4.635   1.504 -2.6684  0.0501  2.5154
 2089TIP3    H227903   0.286   4.758   1.447 -0.4109  0.6212  1.0036
 2090TIP3   OH227904   1.771   2.039   0.014  0.9574  0.4957 -0.6431
 2090TIP3    H127905   1.771   2.115  -0.045  1.8981  0.9277 -0.1099
 2090TIP3    H227906   1.855   1.995  -0.004  1.5555  0.9863  0.7937
 2091TIP3   OH227907   0.192   1.716   2.397  0.8063 -0.2598  0.2374
 2091TIP3    H127908   0.110   1.762   2.379 -1.2423 -2.7154  2.4940
 2091TIP3    H227909   0.230   1.701   2.310 -1.0281  1.1026 -0.8792
 2092TIP3   OH227910   1.629   1.358   7.970 -0.1712 -0.0345 -0.2657
 2092TIP3    H127911   1.620   1.263   7.963  1.4702 -0.2662  0.3095
 2092TIP3    H227912   1.703   1.370   8.030  0.3171  1.5951 -1.1533
 2093TIP3   OH227913   1.876   3.133   8.115 -0.3355  0.0889  0.2191
 2093TIP3    H127914   1.789   3.156   8.081 -0.0916 -0.1947 -0.6275
 2093TIP3    H227915   1.905   3.061   8.058 -0.1147 -0.7461  1.3478
 2094TIP3   OH227916   1.926   1.339   1.550 -0.0263  0.3016  0.1272
 2094TIP3    H127917   1.984   1.284   1.496 -0.7035  1.2154 -1.5989
 2094TIP3    H227918   1.923   1.423   1.504 -2.3579  0.4245  0.3889
 2095TIP3   OH227919   4.586   5.039   8.960  0.2291 -0.0325 -0.1208
 2095TIP3    H127920   4.553   5.124   8.930  0.5161 -0.4223 -1.6241
 2095TIP3    H227921   4.515   4.978   8.940 -0.6783  0.0589  2.5161
 2096TIP3   OH227922   5.015   4.265   0.358 -0.9999  0.3854  0.3942
 2096TIP3    H127923   4.986   4.175   0.344 -0.8802  0.3547  0.3431
 2096TIP3    H227924   5.014   4.304   0.271 -0.0571  0.1363  0.2678
 2097TIP3   OH227925   5.687   4.050   7.146  0.0682  0.1152  0.0388
 2097TIP3    H127926   5.684   4.045   7.051 -0.9597  2.0589 -0.0820
 2097TIP3    H227927   5.604   4.011   7.175  0.6879 -1.1333  0.2222
 2098TIP3   OH227928   5.170   0.695   1.729 -0.5705  0.2961 -0.0486
 2098TIP3    H127929   5.134   0.682   1.816 -0.2387 -0.0418  0.0410
 2098TIP3    H227930   5.106   0.751   1.684 -1.0599 -0.0589  0.2002
 2099TIP3   OH227931   3.900   4.475   0.067  0.4050 -0.1788  0.3325
 2099TIP3    H127932   3.836   4.533   0.109  1.3168  0.0247  1.5156
 2099TIP3    H227933   3.855   4.391   0.059  0.2284 -0.2567  1.8689
 2100TIP3   OH227934   4.709   0.978   1.757 -0.3713  0.4620  0.2449
 2100TIP3    H127935   4.667   0.936   1.833  1.3050 -0.5556  0.6870
 2100TIP3    H227936   4.637   1.002   1.699 -1.5929 -0.3509  1.3660
 2101TIP3   OH227937   2.545   4.927   7.840  0.2149 -0.1517  0.0723
 2101TIP3    H127938   2.614   4.954   7.779  1.7145 -1.9548  0.8691
 2101TIP3    H227939   2.484   4.876   7.786 -0.4106  1.2559 -0.5912
 2102TIP3   OH227940   5.959   1.569   1.081  0.4472  0.0550  0.0090
 2102TIP3    H127941   6.041   1.520   1.090  0.4488 -0.5270 -2.4448
 2102TIP3    H227942   5.926   1.544   0.995 -0.8274  2.5140 -0.2989
 2103TIP3   OH227943   1.578   6.242   7.401 -0.1879  0.0488 -0.3150
 2103TIP3    H127944   1.547   6.166   7.450 -0.6507 -0.3845 -1.2502
 2103TIP3    H227945   1.506   6.264   7.342  0.2264  0.7572 -0.5741
 2104TIP3   OH227946   0.831   1.684   1.223  0.2382 -0.3008  0.1343
 2104TIP3    H127947   0.855   1.611   1.280  0.3868 -0.1771  0.2313
 2104TIP3    H227948   0.913   1.712   1.183 -0.2899 -2.5918 -2.8530
 2105TIP3   OH227949   4.505   1.712   7.101  0.0137  0.6839 -0.4819
 2105TIP3    H127950   4.577   1.724   7.040 -0.8966 -1.6574 -2.2092
 2105TIP3    H227951   4.512   1.620   7.128  0.7018  1.7119  3.5379
 2106TIP3   OH227952   4.307   3.539   8.979  0.0892 -0.1832  0.3449
 2106TIP3    H127953   4.354   3.623   8.975 -0.0866  0.0011  1.7448
 2106TIP3    H227954   4.253   3.545   9.058 -0.9431 -1.1030 -0.2643
 2107TIP3   OH227955   1.570   5.909   1.223 -0.3575 -0.2011  0.5871
 2107TIP3    H127956   1.510   5.968   1.177 -0.2241 -0.3095  0.2699
 2107TIP3    H227957   1.596   5.957   1.301  1.1870  0.9331 -0.5507
 2108TIP3   OH227958   0.677   6.296   8.822  0.7680 -0.4284  0.2240
 2108TIP3    H127959   0.624   6.372   8.797  2.1324  0.1436 -1.1008
 2108TIP3    H227960   0.758   6.306   8.771  0.8452 -2.9592 -0.2602
 2109TIP3   OH227961   4.784   3.819   2.506  0.1754 -0.6915  0.6007
 2109TIP3    H127962   4.790   3.911   2.483 -1.4034 -0.6010  0.4401
 2109TIP3    H227963   4.871   3.784   2.490  0.7149  0.7030  0.3824
 2110TIP3   OH227964   1.995   5.205   1.879 -0.2069  0.0956  0.1676
 2110TIP3    H127965   1.908   5.204   1.840  0.1307  0.7175 -0.6318
 2110TIP3    H227966   1.980   5.189   1.972 -1.1538 -0.0277 -0.0002
 2111TIP3   OH227967   6.733   2.486   7.800 -0.5485  0.5704 -0.3525
 2111TIP3    H127968   6.707   2.533   7.721 -0.6185  3.4742  1.2650
 2111TIP3    H227969   6.755   2.555   7.863  1.2186 -1.6320  1.6260
 2112TIP3   OH227970   1.161   1.177   7.819  0.2116 -0.0269  0.6535
 2112TIP3    H127971   1.230   1.208   7.878  1.2178 -1.9593  0.5622
 2112TIP3    H227972   1.089   1.239   7.832  1.3167  1.0416  2.0313
 2113TIP3   OH227973   2.431   4.174   7.605  0.5417  0.5626  0.0059
 2113TIP3    H127974   2.481   4.096   7.628  2.4383  1.6367 -0.2336
 2113TIP3    H227975   2.496   4.245   7.607 -1.1708  2.1908  0.5399
 2114TIP3   OH227976   2.292   6.232   0.837 -0.5373 -0.1940 -0.0112
 2114TIP3    H127977   2.351   6.183   0.894  0.3740 -0.5733 -1.2182
 2114TIP3    H227978   2.220   6.171   0.818 -1.2088  0.1707  1.2348
 2115TIP3   OH227979   0.665   1.735   1.612  0.2071  0.2143  0.2566
 2115TIP3    H127980   0.573   1.731   1.588 -0.1732  0.6512  1.5778
 2115TIP3    H227981   0.693   1.643   1.614 -0.5633 -0.0171  1.1337
 2116TIP3   OH227982   6.761   4.485   7.439 -0.3255 -0.1097  0.2431
 2116TIP3    H127983   6.793   4.546   7.505 -1.1048 -1.0455  1.5312
 2116TIP3    H227984   6.836   4.472   7.381  0.5856  0.2614  1.3001
 2117TIP3   OH227985   5.973   6.523   2.096  0.3602 -0.3056  0.2621
 2117TIP3    H127986   5.986   6.430   2.078 -2.8001 -0.7660 -0.2360
 2117TIP3    H227987   6.006   6.567   2.017  0.3981 -1.1324 -0.1964
 2118TIP3   OH227988   5.891   1.109   1.692 -0.2597  0.1503 -0.5540
 2118TIP3    H127989   5.967   1.133   1.640  1.6778 -0.7113  1.6592
 2118TIP3    H227990   5.867   1.189   1.739  0.4910 -0.0065  0.1183
 2119TIP3   OH227991   5.410   4.079   2.295 -0.0037  0.0687  0.1098
 2119TIP3    H127992   5.341   4.115   2.352  0.4312 -0.3006  0.8873
 2119TIP3    H227993   5.488   4.128   2.320  0.5347 -1.1773  0.9641
 2120TIP3   OH227994   3.760   5.188   8.759 -0.3662  0.2848 -0.8847
 2120TIP3    H127995   3.810   5.149   8.688  1.4781  1.3329 -0.2525
 2120TIP3    H227996   3.756   5.281   8.737  2.3210  1.1041  1.3664
 2121TIP3   OH227997   0.744   4.994   0.705 -0.2256  0.1628 -0.1028
 2121TIP3    H127998   0.727   4.985   0.612 -1.2256  1.0824 -0.0280
 2121TIP3    H227999   0.838   4.978   0.714 -0.4621 -1.9598 -0.9738
 2122TIP3   OH228000   5.694   5.360   7.754  0.4925 -0.0018  0.3655
 2122TIP3    H128001   5.764   5.299   7.772  0.5961  0.0174  0.0461
 2122TIP3    H228002   5.679   5.352   7.659  0.3945  0.3403  0.3481
 2123TIP3   OH228003   3.342   2.132   7.764 -0.4456 -0.0808 -0.0854
 2123TIP3    H128004   3.367   2.040   7.765  1.4413  0.3775 -0.5825
 2123TIP3    H228005   3.246   2.131   7.761 -0.4522 -2.0284 -0.7827
 2124TIP3   OH228006   6.254   6.750   2.439  0.4134 -0.3723 -0.6692
 2124TIP3    H128007   6.166   6.775   2.411  0.6138  1.3032  0.0778
 2124TIP3    H228008   6.276   6.814   2.506  1.5780 -1.7457  0.3097
 2125TIP3   OH228009   1.226   2.013   8.096  0.2660 -0.3320  0.4142
 2125TIP3    H128010   1.283   1.944   8.061  1.0281  1.1871 -1.5311
 2125TIP3    H228011   1.227   2.081   8.029 -1.5992  0.9851  1.6269
 2126TIP3   OH228012   1.302   4.092   7.811 -0.4796 -0.0679 -0.2447
 2126TIP3    H128013   1.328   4.055   7.895  1.2887 -0.2343 -0.8127
 2126TIP3    H228014   1.344   4.178   7.808 -2.6326  1.0612  0.0790
 2127TIP3   OH228015   3.615   5.501   8.280  0.9185 -0.2724  0.4310
 2127TIP3    H128016   3.607   5.570   8.345 -3.0476  0.2058 -0.2908
 2127TIP3    H228017   3.570   5.425   8.319  1.4047 -1.0425 -0.4581
 2128TIP3   OH228018   0.154   4.138   8.636  0.4777  0.1960 -0.0974
 2128TIP3    H128019   0.170   4.199   8.564 -0.3876  2.0414  1.2019
 2128TIP3    H228020   0.129   4.056   8.593 -0.8686  1.4837 -1.8936
 2129TIP3   OH228021   2.304   5.612   7.001  0.3964  0.3653  0.1166
 2129TIP3    H128022   2.243   5.581   6.934  0.7174 -0.7339  0.3249
 2129TIP3    H228023   2.370   5.543   7.008  1.0533  1.0339  0.6894
 2130TIP3   OH228024   2.202   4.546   0.343 -0.1466 -0.0647  0.0917
 2130TIP3    H128025   2.228   4.455   0.327 -0.6844 -0.1672 -0.2413
 2130TIP3    H228026   2.283   4.595   0.337  0.1070 -0.4890 -0.0304
 2131TIP3   OH228027   1.143   0.853   0.232  0.5180 -0.0994  0.0165
 2131TIP3    H128028   1.148   0.925   0.169  1.3782  0.7436  1.0085
 2131TIP3    H228029   1.135   0.775   0.178 -0.6126  0.7344 -1.0834
 2132TIP3   OH228030   4.408   5.390   7.437 -0.5165  0.2454 -0.1801
 2132TIP3    H128031   4.327   5.424   7.475 -0.5351 -1.1294  1.1085
 2132TIP3    H228032   4.468   5.381   7.511 -0.5865 -2.5992 -0.3524
 2133TIP3   OH228033   3.003   5.081   7.550  0.1531 -0.0974 -0.0037
 2133TIP3    H128034   3.089   5.080   7.591  0.2155  0.2060 -0.1260
 2133TIP3    H228035   2.991   4.992   7.516  0.0335 -0.4045  0.8136
 2134TIP3   OH228036   2.804   3.809   8.495 -0.2361 -0.0240 -0.1223
 2134TIP3    H128037   2.854   3.876   8.449 -0.2731  0.5816  0.7037
 2134TIP3    H228038   2.717   3.848   8.508 -0.6134 -0.6715 -0.6398
 2135TIP3   OH228039   6.061   3.558   8.020  0.4887 -0.3560  0.8350
 2135TIP3    H128040   6.084   3.637   7.971  1.7888 -0.1673  1.6877
 2135TIP3    H228041   6.142   3.535   8.066 -0.4378 -1.0068  2.1996
 2136TIP3   OH228042   2.528   3.526   7.378 -0.3505  0.1750 -0.3050
 2136TIP3    H128043   2.522   3.431   7.377  1.1860  0.0491 -1.4197
 2136TIP3    H228044   2.440   3.556   7.356 -1.1937 -0.9220  1.3134
 2137TIP3   OH228045   4.640   1.199   2.082 -0.1685 -0.0370 -0.5257
 2137TIP3    H128046   4.696   1.138   2.130 -0.4940  0.1717  0.1316
 2137TIP3    H228047   4.702   1.262   2.043  0.1734 -0.8200 -1.2797
 2138TIP3   OH228048   1.990   5.764   1.794 -0.2559  0.2383 -0.6478
 2138TIP3    H128049   1.996   5.681   1.841 -0.2821  0.4858 -0.2066
 2138TIP3    H228050   2.048   5.752   1.719 -0.4279 -0.2581 -0.7121
 2139TIP3   OH228051   0.539   3.820   0.725  0.7757 -0.3049  0.2566
 2139TIP3    H128052   0.474   3.826   0.654  0.9908 -1.0669 -0.0223
 2139TIP3    H228053   0.514   3.889   0.786  0.9704  0.8101 -0.8718
 2140TIP3   OH228054   2.290   1.276   8.503  0.1945 -0.4636  0.2490
 2140TIP3    H128055   2.297   1.369   8.480  1.1576 -0.4104  0.7068
 2140TIP3    H228056   2.197   1.257   8.497  0.1464  0.1326 -1.4018
 2141TIP3   OH228057   5.252   2.472   6.727 -0.3400  0.1780  0.4453
 2141TIP3    H128058   5.159   2.464   6.747  0.1196 -2.0888  1.9559
 2141TIP3    H228059   5.296   2.460   6.811  1.3495  2.1457 -0.0577
 2142TIP3   OH228060   0.676   4.576   0.621  0.3372 -0.9224 -0.6717
 2142TIP3    H128061   0.651   4.666   0.598  0.9576 -0.8301 -1.0168
 2142TIP3    H228062   0.648   4.566   0.712 -1.8406 -1.1604 -1.2966
 2143TIP3   OH228063   4.687   3.620   7.265  0.0711 -0.5296  0.1696
 2143TIP3    H128064   4.718   3.575   7.186  1.5361 -2.2062  1.6084
 2143TIP3    H228065   4.605   3.575   7.287  0.5693 -1.2616  0.5620
 2144TIP3   OH228066   4.082   6.420   1.136 -0.0507  0.1410 -0.3879
 2144TIP3    H128067   4.124   6.453   1.056 -0.1234 -0.4274 -0.6709
 2144TIP3    H228068   4.018   6.356   1.104  0.8971 -1.1280  0.1899
 2145TIP3   OH228069   3.167   6.372   0.846 -0.1420 -0.8213 -0.0585
 2145TIP3    H128070   3.263   6.368   0.851 -0.0118 -3.5400 -2.4324
 2145TIP3    H228071   3.139   6.387   0.937  2.4803  1.2500  0.5476
 2146TIP3   OH228072   2.206   4.986   7.452 -0.0399  0.0027  0.3439
 2146TIP3    H128073   2.281   4.935   7.420 -0.7446 -0.3716 -0.7582
 2146TIP3    H228074   2.138   4.921   7.469 -0.9619  0.5296 -1.1043
 2147TIP3   OH228075   0.790   4.817   7.632 -0.1436 -0.2863 -0.2973
 2147TIP3    H128076   0.883   4.817   7.607 -0.6612  1.0933 -2.4972
 2147TIP3    H228077   0.787   4.866   7.714  1.3293 -2.6745  1.3094
 2148TIP3   OH228078   6.152   0.797   7.216 -0.0018  0.8838 -0.8487
 2148TIP3    H128079   6.080   0.824   7.159 -1.1116  0.3678  0.2637
 2148TIP3    H228080   6.140   0.850   7.296 -1.3741 -1.7386  0.8116
 2149TIP3   OH228081   5.264   2.842   6.951  0.0684  0.1312 -0.2577
 2149TIP3    H128082   5.308   2.759   6.969  0.8717  0.7614  0.7949
 2149TIP3    H228083   5.210   2.824   6.874  1.2675 -0.9987 -0.8750
 2150TIP3   OH228084   0.231   2.639   0.654  0.0935  0.3068 -0.3681
 2150TIP3    H128085   0.297   2.708   0.652  0.0374  0.3907  0.4327
 2150TIP3    H228086   0.272   2.566   0.607  1.1559  0.0170  0.9338
 2151TIP3   OH228087   4.716   0.379   8.905  0.7432  0.4407  0.1322
 2151TIP3    H128088   4.635   0.378   8.957  0.7652  3.2161  0.3942
 2151TIP3    H228089   4.747   0.289   8.906 -1.4928 -0.3886  1.3882
 2152TIP3   OH228090   0.626   3.364   1.528  0.3848 -0.2911  0.1830
 2152TIP3    H128091   0.540   3.327   1.510  0.4710  0.7628 -3.1339
 2152TIP3    H228092   0.687   3.308   1.480  1.2381  0.4187  0.4046
 2153TIP3   OH228093   6.638   3.874   2.034 -0.1841  0.3758  0.1675
 2153TIP3    H128094   6.701   3.872   2.106 -0.1089 -1.4463  0.0872
 2153TIP3    H228095   6.553   3.871   2.076 -0.1382 -0.7796  0.1933
 2154TIP3   OH228096   1.588   5.744   0.343 -0.2593  0.4600 -0.3390
 2154TIP3    H128097   1.589   5.838   0.327 -2.0998  0.3475 -1.5119
 2154TIP3    H228098   1.525   5.732   0.413 -0.0171  0.1046 -0.1806
 2155TIP3   OH228099   6.064   5.360   6.725 -0.1716  0.1951 -0.6716
 2155TIP3    H128100   6.123   5.428   6.757 -0.6264 -0.2456  1.2688
 2155TIP3    H228101   6.094   5.341   6.637  1.6156  1.0684 -0.2902
 2156TIP3   OH228102   5.891   3.005   0.274 -0.0063 -0.8396  0.4778
 2156TIP3    H128103   5.953   2.941   0.241 -0.1124 -1.9608  2.3319
 2156TIP3    H228104   5.806   2.960   0.274 -0.4832  0.0212 -0.1882
 2157TIP3   OH228105   4.690   3.528   8.592 -0.5797 -0.4322 -0.2107
 2157TIP3    H128106   4.616   3.474   8.565 -1.4249  1.4517 -1.8816
 2157TIP3    H228107   4.763   3.466   8.600 -1.8031 -2.0086 -0.7186
 2158TIP3   OH228108   5.479   4.457   8.855 -0.4956 -0.2352  0.0205
 2158TIP3    H128109   5.492   4.362   8.849 -1.1671 -0.2616 -1.4409
 2158TIP3    H228110   5.542   4.494   8.793 -1.2082  0.1724 -0.4733
 2159TIP3   OH228111   3.254   5.896   7.484  0.3158  0.3690 -0.1066
 2159TIP3    H128112   3.224   5.820   7.534  0.9054 -0.8864 -1.5875
 2159TIP3    H228113   3.190   5.906   7.414  0.7936  0.5885 -0.5210
 2160TIP3   OH228114   0.047   0.235   7.613 -0.2010 -0.2962 -0.0006
 2160TIP3    H128115   0.056   0.176   7.538 -3.7902 -0.9840 -0.0374
 2160TIP3    H228116   0.016   0.317   7.575 -2.7229 -0.8578  0.6920
 2161TIP3   OH228117   2.341   2.182   8.738  0.3841 -0.6034  0.5565
 2161TIP3    H128118   2.369   2.220   8.821  2.1634 -1.3794  0.3587
 2161TIP3    H228119   2.338   2.255   8.677  0.7988 -0.3006  0.8951
 2162TIP3   OH228120   4.472   3.446   7.935 -0.0105 -0.0814  0.4925
 2162TIP3    H128121   4.401   3.387   7.912 -1.9022  1.9812  0.7621
 2162TIP3    H228122   4.429   3.528   7.960  2.4129  0.9337  1.6836
 2163TIP3   OH228123   5.021   1.197   7.353  0.5172  0.3554 -0.8116
 2163TIP3    H128124   4.927   1.211   7.343  0.1684 -0.9515  0.3831
 2163TIP3    H228125   5.054   1.194   7.264 -0.7528 -0.2510 -1.2876
 2164TIP3   OH228126   5.629   2.092   0.515 -0.0154 -0.2671 -0.3145
 2164TIP3    H128127   5.550   2.142   0.492  0.4342  0.4236 -0.3936
 2164TIP3    H228128   5.601   2.001   0.511 -1.2708  0.0063  1.3696
 2165TIP3   OH228129   2.038   6.179   8.253  0.3555  0.0313 -0.3180
 2165TIP3    H128130   2.076   6.098   8.219  0.1899  1.3967 -4.1084
 2165TIP3    H228131   1.963   6.196   8.196 -0.7199  1.9656  1.5256
 2166TIP3   OH228132   5.715   2.774   1.731 -0.2204 -0.1701  0.0439
 2166TIP3    H128133   5.699   2.734   1.816  0.6450 -0.0223  0.2793
 2166TIP3    H228134   5.639   2.748   1.678 -0.5932 -0.5484  0.7485
 2167TIP3   OH228135   1.887   5.783   0.552  0.2135 -0.4787 -0.0419
 2167TIP3    H128136   1.963   5.771   0.495 -1.0531 -1.4059 -1.5778
 2167TIP3    H228137   1.838   5.701   0.545 -0.7864 -0.0116  1.1664
 2168TIP3   OH228138   5.234   1.736   8.803 -0.2568 -0.1265  0.1455
 2168TIP3    H128139   5.252   1.830   8.810  0.5910 -0.2571 -0.1466
 2168TIP3    H228140   5.156   1.731   8.748 -0.5104  0.4198  0.4462
 2169TIP3   OH228141   6.639   3.342   8.532  0.2475  0.7727 -0.3028
 2169TIP3    H128142   6.615   3.334   8.440 -1.0927  1.0866 -0.0029
 2169TIP3    H228143   6.598   3.265   8.574 -0.8954  1.6845  0.3323
 2170TIP3   OH228144   1.172   5.211   1.388 -0.0375  0.3737  0.3630
 2170TIP3    H128145   1.191   5.195   1.295 -0.3096  1.5530  0.0886
 2170TIP3    H228146   1.256   5.239   1.425  0.5093 -1.7744  0.9084
 2171TIP3   OH228147   4.076   5.451   2.050  0.1977 -0.4584 -0.5895
 2171TIP3    H128148   4.026   5.491   1.979 -0.6809 -1.3291 -0.4748
 2171TIP3    H228149   4.017   5.452   2.125  1.2921  0.9364  0.3093
 2172TIP3   OH228150   6.776   0.560   1.777  0.2400 -0.7852  0.0116
 2172TIP3    H128151   6.721   0.611   1.838 -0.2229 -1.4428  0.1559
 2172TIP3    H228152   6.837   0.624   1.742  1.9861 -0.7642  2.7840
 2173TIP3   OH228153   4.761   3.207   1.881  0.9479  0.1344  0.2478
 2173TIP3    H128154   4.728   3.255   1.957  1.3022 -0.7481  0.9803
 2173TIP3    H228155   4.844   3.170   1.910  0.6898 -0.9050 -0.2967
 2174TIP3   OH228156   1.348   0.833   8.948  0.0584  0.1830  0.0094
 2174TIP3    H128157   1.307   0.915   8.920 -0.3322 -0.5698 -1.7798
 2174TIP3    H228158   1.278   0.769   8.944  1.0362 -0.8703 -1.8547
 2175TIP3   OH228159   4.138   5.050   7.354 -0.2092 -0.5446  0.3026
 2175TIP3    H128160   4.111   4.993   7.282  1.4678  0.7976 -1.4837
 2175TIP3    H228161   4.075   5.032   7.424 -1.5325 -2.3429 -1.2662
 2176TIP3   OH228162   2.070   5.202   0.606  0.1109 -0.1939 -0.0490
 2176TIP3    H128163   2.145   5.213   0.547  0.1516  0.6471  0.1428
 2176TIP3    H228164   2.008   5.270   0.579 -0.2920 -0.4420  0.2375
 2177TIP3   OH228165   5.784   4.800   8.391 -0.2846 -0.6805 -0.1729
 2177TIP3    H128166   5.806   4.893   8.387  1.1115 -0.8152  2.2313
 2177TIP3    H228167   5.706   4.797   8.445 -0.7371 -0.8782 -0.8307
 2178TIP3   OH228168   3.266   1.802   0.695  0.4554 -0.0624  0.5738
 2178TIP3    H128169   3.286   1.895   0.705  1.2029 -0.2039  0.4265
 2178TIP3    H228170   3.221   1.779   0.777  1.7928  0.0355  1.3535
 2179TIP3   OH228171   1.961   2.272   0.983 -0.4818 -0.1513  0.4589
 2179TIP3    H128172   1.971   2.248   0.891  3.1912  0.7364  0.4966
 2179TIP3    H228173   1.964   2.189   1.031  3.8329 -0.4342  0.0514
 2180TIP3   OH228174   0.944   1.655   8.097 -0.4130  0.3564  0.2588
 2180TIP3    H128175   0.922   1.726   8.037  0.0086  0.8851  0.7239
 2180TIP3    H228176   0.992   1.592   8.044 -0.9006  0.3499 -0.1869
 2181TIP3   OH228177   3.893   3.479   0.493 -0.2524  0.7695 -0.3872
 2181TIP3    H128178   3.844   3.438   0.422  1.7095  0.5663 -1.6907
 2181TIP3    H228179   3.899   3.410   0.560 -1.6437  0.7861 -0.2032
 2182TIP3   OH228180   3.200   3.772   8.102  0.2803  0.3589  0.1478
 2182TIP3    H128181   3.118   3.780   8.053 -0.0146  0.1910  0.6075
 2182TIP3    H228182   3.191   3.833   8.175  0.9480  1.0148 -0.3070
 2183TIP3   OH228183   1.582   4.370   7.262  0.0987 -0.2450 -0.1610
 2183TIP3    H128184   1.628   4.387   7.344  1.4696  0.2807 -1.0027
 2183TIP3    H228185   1.496   4.411   7.272 -0.0751 -0.9217  1.3082
 2184TIP3   OH228186   6.766   1.914   0.417  0.1252 -0.0060 -0.0752
 2184TIP3    H128187   6.715   1.875   0.345  1.2489 -2.4739  0.3557
 2184TIP3    H228188   6.700   1.950   0.476 -0.9893 -0.6199 -0.9056
 2185TIP3   OH228189   6.675   2.644   8.586 -0.0204  0.2462 -0.3736
 2185TIP3    H128190   6.648   2.719   8.533  0.9503  0.1436 -1.0434
 2185TIP3    H228191   6.725   2.589   8.526  0.0140 -0.5104  0.3319
 2186TIP3   OH228192   2.741   5.311   0.743 -0.4293 -0.2250  0.1416
 2186TIP3    H128193   2.789   5.393   0.753  0.7376 -0.7910 -0.6085
 2186TIP3    H228194   2.653   5.330   0.776 -0.0395  1.1833  0.4144
 2187TIP3   OH228195   5.613   5.355   0.094  0.6706  0.2763 -0.4978
 2187TIP3    H128196   5.547   5.379   0.159  1.4331  1.2953 -0.0773
 2187TIP3    H228197   5.663   5.285   0.135  0.6001  0.3258 -0.3250
 2188TIP3   OH228198   3.417   0.163   8.988 -0.2881 -0.4771 -0.2341
 2188TIP3    H128199   3.470   0.235   8.955 -0.2825 -0.3416  0.0724
 2188TIP3    H228200   3.376   0.197   9.067 -0.7383 -0.6207 -0.4016
 2189TIP3   OH228201   3.715   3.889   2.616  0.2571  0.4730  0.5171
 2189TIP3    H128202   3.621   3.879   2.604  0.3400 -2.3064  1.3306
 2189TIP3    H228203   3.729   3.870   2.709  1.7233 -0.6412  0.1099
 2190TIP3   OH228204   3.964   2.452   0.151 -0.6318 -0.1153 -0.1479
 2190TIP3    H128205   3.997   2.498   0.075 -0.3449 -2.9102 -1.8497
 2190TIP3    H228206   4.041   2.437   0.206 -0.8532  1.9710  0.8252
 2191TIP3   OH228207   6.462   3.540   0.237  0.0454 -0.4046  0.1132
 2191TIP3    H128208   6.439   3.451   0.210 -2.2676  1.0330 -3.2982
 2191TIP3    H228209   6.519   3.572   0.166  1.9831  0.4937  1.9613
 2192TIP3   OH228210   6.327   0.152   8.127 -0.0621  0.5801  0.4987
 2192TIP3    H128211   6.234   0.132   8.131  0.3947 -1.6069  2.3630
 2192TIP3    H228212   6.370   0.067   8.118  1.7889  1.4954  0.0336
 2193TIP3   OH228213   1.825   4.630   7.776 -0.5307  0.0081  0.0760
 2193TIP3    H128214   1.889   4.562   7.756 -0.8139 -0.1028 -0.4923
 2193TIP3    H228215   1.814   4.626   7.871  0.4678  0.1858  0.2102
 2194TIP3   OH228216   1.896   1.944   1.470 -0.0809  0.5723  0.0523
 2194TIP3    H128217   1.942   1.868   1.435 -2.3808 -0.4333 -1.0648
 2194TIP3    H228218   1.869   1.918   1.558  0.7414  0.8402  0.3873
 2195TIP3   OH228219   2.791   5.338   2.347  0.8458  0.0657  0.2888
 2195TIP3    H128220   2.730   5.411   2.358 -0.5990 -0.6271 -2.3312
 2195TIP3    H228221   2.770   5.278   2.419 -0.8173  0.3672  0.0877
 2196TIP3   OH228222   3.261   3.499   0.679 -0.4552 -0.5692 -0.1281
 2196TIP3    H128223   3.314   3.488   0.758 -0.1663 -1.5023 -0.4392
 2196TIP3    H228224   3.279   3.588   0.650  1.3644 -1.0277 -0.5195
 2197TIP3   OH228225   2.959   1.220   2.051 -0.6075  0.7458 -0.1614
 2197TIP3    H128226   2.992   1.276   2.121  0.8562 -0.8097  0.4238
 2197TIP3    H228227   2.895   1.276   2.006 -0.6909  2.1980  1.6209
 2198TIP3   OH228228   0.540   5.572   0.639  0.0916  0.2130  0.1083
 2198TIP3    H128229   0.450   5.563   0.672  0.0462 -1.5982 -0.3908
 2198TIP3    H228230   0.587   5.497   0.676  0.7992 -0.1700 -1.4580
 2199TIP3   OH228231   3.981   2.499   0.598  0.0378 -0.0617  0.3275
 2199TIP3    H128232   3.903   2.496   0.654 -1.9116 -0.3806 -2.2645
 2199TIP3    H228233   3.985   2.589   0.566  1.6117  0.3347  1.4529
 2200TIP3   OH228234   2.285   0.330   8.997 -0.5056  0.2104  0.0388
 2200TIP3    H128235   2.249   0.418   8.984 -1.8574 -0.0006  1.9316
 2200TIP3    H228236   2.369   0.344   9.041 -0.5771  0.5687  0.0653
 2201TIP3   OH228237   5.983   0.703   0.238 -0.0660 -0.3732 -0.5837
 2201TIP3    H128238   5.968   0.751   0.319 -0.6170 -1.2271 -0.1648
 2201TIP3    H228239   6.078   0.694   0.232  0.3206  3.1667 -2.1154
 2202TIP3   OH228240   2.219   1.651   8.914  0.0847  0.2267  0.4584
 2202TIP3    H128241   2.156   1.723   8.924 -1.2229 -0.9741  1.2148
 2202TIP3    H228242   2.178   1.592   8.850  0.8179 -0.1836  0.3601
 2203TIP3   OH228243   6.575   6.769   8.333  0.0995  0.4703 -0.1825
 2203TIP3    H128244   6.556   6.791   8.241 -2.6706  0.6034  0.3453
 2203TIP3    H228245   6.493   6.787   8.379  0.7146 -1.7977  1.9549
 2204TIP3   OH228246   5.935   5.095   8.526  0.2090 -0.6364  0.0967
 2204TIP3    H128247   5.969   5.140   8.604 -2.5842  1.9147  0.0203
 2204TIP3    H228248   5.970   5.146   8.453 -1.6385  0.5079 -0.0491
 2205TIP3   OH228249   3.172   3.095   7.637  0.1516  0.6564 -0.0928
 2205TIP3    H128250   3.200   3.021   7.583 -0.5243  0.1502  0.2434
 2205TIP3    H228251   3.142   3.160   7.573  0.1136  0.3781 -0.3643
 2206TIP3   OH228252   5.189   1.391   1.285 -0.0898 -0.2847 -0.4593
 2206TIP3    H128253   5.248   1.323   1.252  1.7349 -0.6712  3.1118
 2206TIP3    H228254   5.248   1.458   1.319 -1.7875  0.7323  0.5783
 2207TIP3   OH228255   0.266   4.184   0.938 -0.2223 -0.8239  0.5362
 2207TIP3    H128256   0.297   4.263   0.894 -1.6667 -0.4726  0.1025
 2207TIP3    H228257   0.346   4.139   0.966  0.6476  0.2394 -0.1712
 2208TIP3   OH228258   1.942   2.828   1.206 -0.4137  0.0245  0.3224
 2208TIP3    H128259   2.027   2.870   1.192 -0.3327  0.4619  1.9068
 2208TIP3    H228260   1.889   2.895   1.249 -0.6366 -1.1187  1.9156
 2209TIP3   OH228261   5.710   1.945   8.251  0.0906  0.5667 -0.0385
 2209TIP3    H128262   5.746   2.033   8.248  1.8719 -0.1029  0.3711
 2209TIP3    H228263   5.778   1.890   8.211 -0.8891 -0.6521 -0.0937
 2210TIP3   OH228264   6.688   6.510   8.099 -0.1913  0.0948 -0.1654
 2210TIP3    H128265   6.609   6.480   8.056  0.0770  0.0617 -0.6478
 2210TIP3    H228266   6.723   6.433   8.144 -0.3530  0.0748 -0.0745
 2211TIP3   OH228267   4.518   4.565   7.380  0.2550 -0.7649 -0.3647
 2211TIP3    H128268   4.524   4.481   7.427  1.6021 -1.4847 -1.7509
 2211TIP3    H228269   4.506   4.540   7.288 -2.4791  0.6093 -0.4872
 2212TIP3   OH228270   0.830   1.169   1.308  0.0052  0.0047 -0.4381
 2212TIP3    H128271   0.784   1.088   1.330  0.1607 -0.5119 -1.8526
 2212TIP3    H228272   0.828   1.171   1.212  2.5741  0.1414 -0.5548
 2213TIP3   OH228273   0.657   6.001   8.599  0.1959  0.0286  0.7221
 2213TIP3    H128274   0.737   6.020   8.550  0.6236  0.8581  1.7096
 2213TIP3    H228275   0.685   5.995   8.690 -0.5811 -1.5469  0.8921
 2214TIP3   OH228276   1.586   2.341   0.740 -0.0104  0.0351 -0.5064
 2214TIP3    H128277   1.523   2.376   0.676 -1.1406 -0.9496  0.0189
 2214TIP3    H228278   1.671   2.356   0.701 -0.6052  0.8443 -1.5417
 2215TIP3   OH228279   2.262   3.158   7.076  0.2675  0.9705 -0.9110
 2215TIP3    H128280   2.241   3.069   7.046  1.6060  1.1688 -2.5856
 2215TIP3    H228281   2.193   3.212   7.037 -1.2795  0.5958  1.1210
 2216TIP3   OH228282   2.027   0.144   2.429  0.0377  0.1341  0.5415
 2216TIP3    H128283   1.952   0.087   2.414  0.0172  0.2306  0.2610
 2216TIP3    H228284   2.010   0.186   2.513 -0.4128  0.4507  0.2925
 2217TIP3   OH228285   3.118   0.194   7.214  0.2763 -0.2296  0.3939
 2217TIP3    H128286   3.077   0.116   7.177  0.5190 -0.6201  0.9282
 2217TIP3    H228287   3.200   0.203   7.166 -0.7001  0.9191 -1.1133
 2218TIP3   OH228288   6.714   5.388   0.090 -0.2548  0.3010 -0.0557
 2218TIP3    H128289   6.626   5.372   0.054 -0.2265 -0.4064  0.1707
 2218TIP3    H228290   6.712   5.346   0.176  0.3052  0.2934 -0.0439
 2219TIP3   OH228291   5.006   5.298   0.985 -0.3618  0.0037  0.1854
 2219TIP3    H128292   4.930   5.327   0.935 -0.8054  2.7254  2.2309
 2219TIP3    H228293   5.071   5.275   0.918 -1.0551  3.0120 -1.7018
 2220TIP3   OH228294   0.322   6.594   7.447 -0.4383  0.1431 -0.6996
 2220TIP3    H128295   0.393   6.585   7.383 -0.0495 -1.8136 -0.0752
 2220TIP3    H228296   0.263   6.521   7.427 -2.1321  1.5375 -0.9882
 2221TIP3   OH228297   1.765   3.905   0.727  0.1617  0.0937 -0.6822
 2221TIP3    H128298   1.680   3.942   0.702 -1.0431 -1.8007  0.3000
 2221TIP3    H228299   1.780   3.835   0.663  0.3126 -0.4505 -0.0601
 2222TIP3   OH228300   4.912   2.808   6.888 -0.6968 -0.3496 -0.7764
 2222TIP3    H128301   4.937   2.889   6.932 -1.0418 -0.2295 -0.7926
 2222TIP3    H228302   4.958   2.811   6.804  1.0733 -1.2469  0.1156
 2223TIP3   OH228303   4.094   3.462   0.146  0.1456 -0.1284 -0.0293
 2223TIP3    H128304   4.125   3.542   0.187 -0.6879  0.2584 -0.1281
 2223TIP3    H228305   4.157   3.395   0.173  1.8378  0.8624 -1.3292
 2224TIP3   OH228306   2.898   3.471   1.720  0.3331 -0.2649 -0.0553
 2224TIP3    H128307   2.951   3.450   1.643 -0.2262 -2.2471  0.0555
 2224TIP3    H228308   2.808   3.456   1.691 -0.0693  1.3357  0.2862
 2225TIP3   OH228309   6.476   4.791   7.436 -0.0203 -0.1493 -0.0566
 2225TIP3    H128310   6.552   4.807   7.380  0.5694 -0.1447  0.7236
 2225TIP3    H228311   6.452   4.700   7.417  0.0241 -0.0740 -0.4871
 2226TIP3   OH228312   6.706   6.506   6.943 -0.1960 -0.2146 -0.2133
 2226TIP3    H128313   6.660   6.565   6.883  3.1663  3.7699  0.6796
 2226TIP3    H228314   6.740   6.436   6.887 -2.2248 -0.0357 -1.7826
 2227TIP3   OH228315   2.396   6.352   7.929 -0.3501  0.4283 -0.3835
 2227TIP3    H128316   2.427   6.303   7.853 -1.0364 -0.6089 -0.0240
 2227TIP3    H228317   2.302   6.334   7.933 -0.7940  2.4351 -0.6768
 2228TIP3   OH228318   3.692   3.063   2.252 -0.1854 -0.4730  0.6390
 2228TIP3    H128319   3.652   3.139   2.294 -0.7649 -0.4414  0.0523
 2228TIP3    H228320   3.762   3.099   2.197  2.8324 -0.7360  3.9537
 2229TIP3   OH228321   2.483   3.215   8.659  0.2580 -0.0121  0.0725
 2229TIP3    H128322   2.445   3.258   8.736 -0.1816  0.0309 -0.1634
 2229TIP3    H228323   2.408   3.201   8.600  0.8324  1.4523 -1.0561
 2230TIP3   OH228324   1.595   6.249   0.105  0.1471  0.3933  0.0177
 2230TIP3    H128325   1.651   6.294   0.169 -1.3364  0.2023  1.5377
 2230TIP3    H228326   1.507   6.255   0.143 -0.4623 -1.6665 -0.9458
 2231TIP3   OH228327   5.172   1.137   2.458  0.3636  0.8381 -0.6867
 2231TIP3    H128328   5.137   1.218   2.496  1.2140  0.9717 -0.1462
 2231TIP3    H228329   5.229   1.167   2.387  1.5682  0.8174  0.2187
 2232TIP3   OH228330   3.517   1.577   0.069 -0.0270  0.0587  0.2117
 2232TIP3    H128331   3.524   1.668   0.041 -1.5632 -0.6179 -2.7844
 2232TIP3    H228332   3.561   1.575   0.154  0.0132  3.5633  0.4260
 2233TIP3   OH228333   5.135   4.684   1.752  0.5998 -0.3777 -0.4211
 2233TIP3    H128334   5.187   4.759   1.781  0.6352  0.1479 -1.7839
 2233TIP3    H228335   5.064   4.678   1.816 -0.4917  2.0121 -1.3258
 2234TIP3   OH228336   0.306   1.447   1.037 -0.1965 -0.8204  0.1920
 2234TIP3    H128337   0.383   1.486   1.080 -0.2552 -0.3262 -0.1426
 2234TIP3    H228338   0.240   1.516   1.040 -0.5126 -1.1244  0.1659
 2235TIP3   OH228339   5.992   6.422   1.278 -0.0116 -0.1503  0.1392
 2235TIP3    H128340   5.983   6.517   1.278  0.5158 -0.0365 -2.6905
 2235TIP3    H228341   5.927   6.393   1.343 -1.1262  2.0500  0.1275
 2236TIP3   OH228342   3.907   2.187   0.044  0.2432 -0.4288  0.1581
 2236TIP3    H128343   3.914   2.276   0.079 -1.2299  0.5045 -1.7269
 2236TIP3    H228344   3.838   2.146   0.095 -0.9782  0.4756 -0.7017
 2237TIP3   OH228345   1.737   1.747   7.426  0.1670 -0.4443  0.2805
 2237TIP3    H128346   1.758   1.771   7.336 -0.5598 -0.0522  0.2007
 2237TIP3    H228347   1.750   1.828   7.476 -3.2057  0.5337 -0.1443
 2238TIP3   OH228348   2.044   0.275   1.732  0.3057  0.0088 -0.0399
 2238TIP3    H128349   2.048   0.323   1.814  0.9860  2.5522 -1.4629
 2238TIP3    H228350   1.951   0.274   1.709  0.1185 -0.6738  0.6856
 2239TIP3   OH228351   5.799   0.879   1.531  0.1754 -0.1008  0.1063
 2239TIP3    H128352   5.716   0.865   1.576  0.9846 -0.3362  1.5702
 2239TIP3    H228353   5.827   0.967   1.557 -0.2757  0.5757 -1.5270
 2240TIP3   OH228354   4.597   6.735   8.021 -0.0572 -0.1503 -0.7393
 2240TIP3    H128355   4.527   6.790   8.056 -1.1980 -2.5506  0.9898
 2240TIP3    H228356   4.670   6.749   8.081 -0.1853 -0.1588 -0.5793
 2241TIP3   OH228357   0.036   0.761   0.309  0.2851 -0.1489 -0.2091
 2241TIP3    H128358   0.092   0.690   0.280 -0.2873  0.2541 -2.4799
 2241TIP3    H228359  -0.045   0.750   0.260 -0.9254  0.4001  1.5630
 2242TIP3   OH228360   2.836   4.127   0.755 -0.4582  0.2486 -0.2281
 2242TIP3    H128361   2.787   4.200   0.717 -2.0448 -0.6963 -0.1058
 2242TIP3    H228362   2.794   4.111   0.839  1.7948  1.0743  1.1514
 2243TIP3   OH228363   2.378   4.184   8.047  0.3297 -0.0577  0.0623
 2243TIP3    H128364   2.461   4.201   8.001  0.0223 -1.1491 -0.9249
 2243TIP3    H228365   2.348   4.271   8.073  0.2192  0.6882 -2.3429
 2244TIP3   OH228366   3.929   1.398   1.201  0.0562  0.5796 -0.3079
 2244TIP3    H128367   3.973   1.448   1.132 -0.7797 -0.4470 -1.6453
 2244TIP3    H228368   3.990   1.397   1.274  0.9949  1.6649 -1.0496
 2245TIP3   OH228369   2.212   2.834   8.140 -0.1553  0.3617 -0.1483
 2245TIP3    H128370   2.276   2.896   8.176 -0.4208 -0.2062  1.4202
 2245TIP3    H228371   2.214   2.848   8.046  1.3553  1.2473 -0.0154
 2246TIP3   OH228372   3.620   4.403   2.340  0.2853 -0.5097 -0.8265
 2246TIP3    H128373   3.642   4.493   2.362  0.5019  0.7857 -5.2538
 2246TIP3    H228374   3.701   4.354   2.353  0.2967 -0.0576  1.1373
 2247TIP3   OH228375   4.494   4.938   1.673  0.1713 -0.0647 -0.2538
 2247TIP3    H128376   4.561   4.992   1.631 -0.1459  2.1247  1.8657
 2247TIP3    H228377   4.491   4.969   1.763 -2.0371 -1.7513  0.3286
 2248TIP3   OH228378   4.356   3.397   7.522  0.6438  0.0770  1.1951
 2248TIP3    H128379   4.346   3.302   7.529 -0.5503  0.2452  2.2691
 2248TIP3    H228380   4.279   3.432   7.568  0.8477  1.5626  0.4602
 2249TIP3   OH228381   3.019   3.071   1.354 -0.6094 -0.1891 -0.2300
 2249TIP3    H128382   2.979   3.135   1.413 -0.1097  2.2842 -2.4051
 2249TIP3    H228383   2.945   3.024   1.316 -1.3406  1.8928 -1.5456
 2250TIP3   OH228384   2.751   3.902   0.626 -0.4282  0.0034 -0.7743
 2250TIP3    H128385   2.697   3.936   0.555 -1.6446  1.7320  0.8358
 2250TIP3    H228386   2.798   3.980   0.659  0.2522 -0.7828  0.1761
 2251TIP3   OH228387   3.620   4.251   0.148 -0.4266 -0.0373 -0.0795
 2251TIP3    H128388   3.618   4.291   0.061 -3.8997 -1.4567 -0.8334
 2251TIP3    H228389   3.530   4.258   0.179  0.2066 -1.6691  2.3968
 2252TIP3   OH228390   0.940   6.733   1.923  0.0735 -0.0141 -0.2897
 2252TIP3    H128391   0.930   6.808   1.864 -2.0452 -0.0256 -0.0364
 2252TIP3    H228392   0.920   6.768   2.010  1.5027 -0.3729  0.2098
 2253TIP3   OH228393   0.695   2.877   1.263 -0.3544  0.0895  0.1560
 2253TIP3    H128394   0.783   2.869   1.224 -0.1292  1.3190  0.3848
 2253TIP3    H228395   0.709   2.860   1.356 -0.5355 -0.6837  0.0515
 2254TIP3   OH228396   1.904   6.514   2.194 -0.0010 -0.1957  1.1580
 2254TIP3    H128397   1.816   6.537   2.224 -0.8774  0.6903 -1.7404
 2254TIP3    H228398   1.949   6.598   2.186  0.6824 -0.5362  1.3389
 2255TIP3   OH228399   2.704   5.538   1.251  0.4221  0.4327  0.2075
 2255TIP3    H128400   2.650   5.459   1.246 -1.8086  1.8260  0.6940
 2255TIP3    H228401   2.730   5.543   1.343  0.3126  0.4195  0.2395
 2256TIP3   OH228402   3.724   6.020   2.903 -0.8483  0.3312 -0.1726
 2256TIP3    H128403   3.765   5.956   2.962 -1.1299  0.3016 -0.0084
 2256TIP3    H228404   3.797   6.075   2.873 -0.6177 -0.0138 -0.2504
 2257TIP3   OH228405   3.576   3.317   0.416 -0.1014  0.2068  0.0334
 2257TIP3    H128406   3.635   3.258   0.463 -0.1139  0.6251  0.5946
 2257TIP3    H228407   3.540   3.264   0.346  0.2728 -0.3073  0.2179
 2258TIP3   OH228408   6.312   6.566   1.811 -0.6749  0.5185 -0.2602
 2258TIP3    H128409   6.318   6.474   1.835  0.1392  0.4466 -0.6729
 2258TIP3    H228410   6.397   6.602   1.836 -1.0001  1.1651 -0.0735
 2259TIP3   OH228411   4.975   6.209   0.185  0.3907 -0.7751  0.5017
 2259TIP3    H128412   5.012   6.247   0.105  1.1621 -1.4282  0.5281
 2259TIP3    H228413   5.050   6.202   0.244 -0.1664 -0.3248  1.2786
 2260TIP3   OH228414   1.064   4.995   9.006 -0.3482  0.2244  0.2708
 2260TIP3    H128415   0.992   5.014   9.066 -0.3801  0.7622  0.0608
 2260TIP3    H228416   1.065   4.899   8.999 -0.0780  0.1270  1.4515
 2261TIP3   OH228417   0.095   2.125   7.006  0.3750 -0.1190  0.3199
 2261TIP3    H128418   0.062   2.157   6.922  0.2283  1.5350  0.9698
 2261TIP3    H228419   0.026   2.148   7.069  0.9620 -0.3484  1.0556
 2262TIP3   OH228420   1.798   6.250   8.149 -0.9596 -0.3610  0.1779
 2262TIP3    H128421   1.780   6.341   8.173 -1.2799 -0.1379 -0.8620
 2262TIP3    H228422   1.781   6.246   8.055  2.2930 -0.6701 -0.5319
 2263TIP3   OH228423   0.325   1.584   0.671 -0.2736 -0.2931  0.0818
 2263TIP3    H128424   0.298   1.493   0.684 -1.0152 -0.0422  0.3192
 2263TIP3    H228425   0.282   1.610   0.589 -1.8250  0.5007  1.1005
 2264TIP3   OH228426   2.091   4.536   8.615 -0.1671  0.4415  0.2094
 2264TIP3    H128427   2.145   4.562   8.689  1.5528 -0.3359 -0.7331
 2264TIP3    H228428   2.101   4.441   8.610  1.0442  0.6221 -1.9491
 2265TIP3   OH228429   6.276   3.530   8.157  0.6665  0.6728  0.3822
 2265TIP3    H128430   6.330   3.582   8.216 -0.0874  0.5131  1.2221
 2265TIP3    H228431   6.286   3.440   8.188  1.2681  0.4099 -0.5257
 2266TIP3   OH228432   3.926   1.206   7.826 -0.4373  0.3258  0.0944
 2266TIP3    H128433   3.972   1.246   7.900  0.3082  2.5900 -1.4440
 2266TIP3    H228434   3.844   1.255   7.820 -1.8862 -1.8245  1.1208
 2267TIP3   OH228435   1.406   5.385   7.470 -0.2488  0.1430 -0.1823
 2267TIP3    H128436   1.349   5.455   7.503  0.6715 -0.0391  1.9588
 2267TIP3    H228437   1.463   5.429   7.407 -0.2859  1.1515  0.4568
 2268TIP3   OH228438   4.566   5.057   7.497  0.1391  0.3686  0.2073
 2268TIP3    H128439   4.498   5.021   7.441  0.5423  0.0452 -0.0846
 2268TIP3    H228440   4.586   4.987   7.559  1.4569 -0.2268 -0.8367
 2269TIP3   OH228441   5.583   4.286   1.068 -0.4277 -0.4759 -0.1873
 2269TIP3    H128442   5.570   4.284   0.973  0.4819 -1.0558 -0.3054
 2269TIP3    H228443   5.531   4.212   1.100 -3.1919  1.4309  0.1258
 2270TIP3   OH228444   0.878   5.960   8.835  0.6558  0.3908  0.1880
 2270TIP3    H128445   0.800   5.997   8.876  0.4256 -0.4813  0.5611
 2270TIP3    H228446   0.928   5.924   8.908  1.8057  1.6358  0.0453
 2271TIP3   OH228447   5.385   6.617   6.565 -0.9092  0.0632 -0.3445
 2271TIP3    H128448   5.459   6.629   6.505 -1.0039  0.1181 -0.4497
 2271TIP3    H228449   5.329   6.552   6.522 -1.5607  0.9498 -0.8603
 2272TIP3   OH228450   0.840   1.902   0.565  0.8579  0.1310 -0.3019
 2272TIP3    H128451   0.840   1.872   0.474  0.8441 -0.5241 -0.0927
 2272TIP3    H228452   0.848   1.821   0.616 -4.4913 -0.2049  0.5242
 2273TIP3   OH228453   2.225   0.280   8.727  0.2855 -0.0133 -0.4516
 2273TIP3    H128454   2.230   0.305   8.819 -0.0156 -0.6921 -0.2484
 2273TIP3    H228455   2.309   0.308   8.690  0.9165 -0.8590  0.3048
 2274TIP3   OH228456   2.965   3.029   7.848 -0.1105  0.4203 -0.0377
 2274TIP3    H128457   2.996   3.077   7.771 -0.5796 -1.0305 -1.1859
 2274TIP3    H228458   3.045   3.000   7.892  0.2152  2.7939  1.1220
 2275TIP3   OH228459   5.020   6.516   0.227 -0.2465  0.2058 -0.3893
 2275TIP3    H128460   4.971   6.598   0.232 -0.0646  0.5096 -2.4816
 2275TIP3    H228461   4.952   6.449   0.219 -0.3729  0.2733  0.0840
 2276TIP3   OH228462   2.178   3.740   8.799 -0.4465  0.1723  0.1333
 2276TIP3    H128463   2.262   3.697   8.788  0.3800  1.6355  0.4298
 2276TIP3    H228464   2.116   3.669   8.817  0.9031 -0.8404  0.9225
 2277TIP3   OH228465   3.862   3.402   1.901 -0.4592  0.0150 -0.3110
 2277TIP3    H128466   3.949   3.436   1.922 -0.2645 -0.5448 -0.1967
 2277TIP3    H228467   3.832   3.362   1.982 -0.0183 -1.5012 -0.8718
 2278TIP3   OH228468   5.367   2.995   1.777 -0.3420  0.7036 -0.3766
 2278TIP3    H128469   5.277   2.969   1.755 -0.3147  0.3630 -0.0803
 2278TIP3    H228470   5.363   3.021   1.869 -0.0020  0.0728 -0.1796
 2279TIP3   OH228471   6.091   5.309   1.530 -0.6295 -0.1293  0.1939
 2279TIP3    H128472   6.042   5.391   1.529  1.0468  0.8968 -0.6115
 2279TIP3    H228473   6.171   5.329   1.579  0.1619 -1.0390 -0.6789
 2280TIP3   OH228474   3.474   2.408   8.120  0.2565 -0.1046 -0.2253
 2280TIP3    H128475   3.560   2.366   8.115  0.4412  0.3271 -0.8332
 2280TIP3    H228476   3.446   2.416   8.029 -0.6631 -0.6987 -0.0100
 2281TIP3   OH228477   4.562   3.974   0.645 -0.4219 -0.4386 -0.0873
 2281TIP3    H128478   4.496   4.016   0.590 -0.3898 -1.2417 -0.7678
 2281TIP3    H228479   4.628   4.042   0.661  0.1370 -0.4684 -1.9802
 2282TIP3   OH228480   6.204   5.176   1.926  0.1570 -0.2129 -0.1561
 2282TIP3    H128481   6.296   5.168   1.952 -0.6259 -1.8126  2.3923
 2282TIP3    H228482   6.197   5.266   1.893  2.7945 -0.3400 -1.3272
 2283TIP3   OH228483   3.901   3.977   1.358 -0.0463  0.1323  0.0897
 2283TIP3    H128484   3.985   4.014   1.332  1.0163 -1.8344  0.4956
 2283TIP3    H228485   3.864   3.942   1.277  0.5970 -0.9501  0.2400
 2284TIP3   OH228486   0.643   4.908   1.873 -0.4999  0.1493 -0.5514
 2284TIP3    H128487   0.657   4.942   1.962 -0.3094 -2.0605  0.3258
 2284TIP3    H228488   0.554   4.935   1.851 -0.1294  1.7700 -0.2088
 2285TIP3   OH228489   5.864   1.771   8.108 -0.4114  0.5771 -0.5161
 2285TIP3    H128490   5.828   1.687   8.135 -0.7554  0.9912  0.3425
 2285TIP3    H228491   5.911   1.752   8.026 -0.4788 -0.4394 -0.3289
 2286TIP3   OH228492   6.515   0.741   1.442 -0.3895  0.1612  0.0662
 2286TIP3    H128493   6.440   0.709   1.493 -0.5427 -1.7983 -1.2910
 2286TIP3    H228494   6.475   0.798   1.376 -0.5814 -0.0746 -0.0250
 2287TIP3   OH228495   4.186   1.860   1.843 -0.0443 -0.4559 -0.7664
 2287TIP3    H128496   4.270   1.813   1.840  0.8249  0.8851  1.0418
 2287TIP3    H228497   4.194   1.918   1.918 -2.0726  0.7399 -1.4145
 2288TIP3   OH228498   4.143   2.160   2.353  0.1070  0.3259 -0.2027
 2288TIP3    H128499   4.156   2.151   2.447  2.7347  0.0975 -0.5327
 2288TIP3    H228500   4.115   2.072   2.325 -1.4262  0.5771  0.4018
 2289TIP3   OH228501   2.063   2.301   2.438  0.4862 -0.5041 -0.3122
 2289TIP3    H128502   2.143   2.353   2.451 -0.0478 -0.1435  1.8750
 2289TIP3    H228503   2.087   2.214   2.468  0.3657 -0.6745 -0.7079
 2290TIP3   OH228504   0.760   1.152   8.612  0.1566  0.2928  0.3123
 2290TIP3    H128505   0.841   1.114   8.646 -0.3303 -0.8115  0.2898
 2290TIP3    H228506   0.709   1.174   8.690 -0.7664 -1.8151  0.3777
 2291TIP3   OH228507   4.917   0.060   1.634 -0.4424 -0.3206  0.1728
 2291TIP3    H128508   4.984   0.097   1.576 -0.7494 -0.8237 -0.5138
 2291TIP3    H228509   4.840   0.115   1.619 -0.1425  0.3904  1.1193
 2292TIP3   OH228510   4.950   3.501   8.809  0.4543 -0.4897 -0.2047
 2292TIP3    H128511   4.881   3.452   8.854 -0.4124  0.6993 -0.1912
 2292TIP3    H228512   4.983   3.562   8.875  0.4525 -0.0086 -0.6418
 2293TIP3   OH228513   0.972   6.228   7.487 -0.0798 -0.6188  0.8852
 2293TIP3    H128514   0.942   6.145   7.526 -1.0287 -0.6724  0.0865
 2293TIP3    H228515   0.987   6.207   7.394 -1.2476  0.3167  0.4640
 2294TIP3   OH228516   6.615   4.008   8.853 -0.0324 -0.2737  0.2321
 2294TIP3    H128517   6.520   4.003   8.844 -0.1053 -1.3695  1.3368
 2294TIP3    H228518   6.650   3.965   8.775 -0.4346  0.0509 -0.1309
 2295TIP3   OH228519   2.327   0.612   2.112  0.0707  0.8960 -0.1401
 2295TIP3    H128520   2.279   0.644   2.036 -0.0956 -1.5573 -1.1590
 2295TIP3    H228521   2.264   0.616   2.184 -0.4760  1.1321 -0.6277
 2296TIP3   OH228522   3.840   1.506   8.731 -0.5759 -0.0458  0.0109
 2296TIP3    H128523   3.853   1.435   8.793  0.9984  0.3212  0.1504
 2296TIP3    H228524   3.870   1.470   8.647  1.0871  0.6956  0.2501
 2297TIP3   OH228525   6.614   3.619   0.032  0.1519  0.8251 -0.8911
 2297TIP3    H128526   6.623   3.710   0.063  0.1620  0.0765  1.5101
 2297TIP3    H228527   6.704   3.587   0.027  0.0717  0.3781  0.2306
 2298TIP3   OH228528   3.195   4.862   0.693 -0.5850 -0.3301  0.6858
 2298TIP3    H128529   3.282   4.900   0.690  0.0507 -1.7361 -0.7849
 2298TIP3    H228530   3.169   4.865   0.785 -0.5423  3.3452  0.7020
 2299TIP3   OH228531   1.219   4.414   2.241 -0.3156 -0.5226 -0.6079
 2299TIP3    H128532   1.304   4.415   2.285 -1.5015  0.7632  1.8064
 2299TIP3    H228533   1.157   4.388   2.308 -2.4314  2.9162 -1.0316
 2300TIP3   OH228534   0.009   2.970   8.469  0.1207 -0.2156  0.1976
 2300TIP3    H128535  -0.032   2.943   8.387 -0.3142  1.4482 -0.1531
 2300TIP3    H228536  -0.064   2.996   8.525  0.5419  0.7519  0.3181
 2301TIP3   OH228537   2.131   2.002   0.832 -0.0487 -0.3644  0.7124
 2301TIP3    H128538   2.204   1.940   0.837  1.5993  1.4429  0.1429
 2301TIP3    H228539   2.087   1.993   0.917  0.1777 -2.2178  0.6811
 2302TIP3   OH228540   4.303   2.789   6.670 -0.0751 -0.1750  0.2367
 2302TIP3    H128541   4.341   2.767   6.755 -2.4882  1.1051  1.7501
 2302TIP3    H228542   4.359   2.859   6.636  0.3257  0.0196  1.2610
 2303TIP3   OH228543   4.813   0.425   0.505  0.0549  0.3907 -0.1354
 2303TIP3    H128544   4.805   0.349   0.563  0.2579 -0.2751 -0.9663
 2303TIP3    H228545   4.745   0.413   0.440 -1.1045  1.8733  0.7477
 2304TIP3   OH228546   5.497   4.155   8.899  0.6901  0.5990  0.9330
 2304TIP3    H128547   5.425   4.110   8.855  0.4530  0.6316  1.2785
 2304TIP3    H228548   5.483   4.137   8.992  1.3805  0.2381  0.9748
 2305TIP3   OH228549   0.839   6.432   2.328 -0.0692  0.4267 -0.5008
 2305TIP3    H128550   0.890   6.499   2.283 -0.8643  1.2641 -0.1856
 2305TIP3    H228551   0.882   6.349   2.305  0.2646  0.9403 -1.7909
 2306TIP3   OH228552   2.859   1.770   8.073 -0.1591  0.3811  0.3327
 2306TIP3    H128553   2.909   1.815   8.140 -0.5226  0.1803  0.7412
 2306TIP3    H228554   2.770   1.805   8.080 -0.1026  0.6759 -0.3340
 2307TIP3   OH228555   4.930   2.155   8.172  0.0480 -0.0254  0.1644
 2307TIP3    H128556   4.850   2.121   8.213 -1.0195 -3.1165 -3.8643
 2307TIP3    H228557   4.998   2.091   8.196  0.6222  0.8302  0.9170
 2308TIP3   OH228558   6.179   3.384   1.812 -0.1244  0.1554  0.0167
 2308TIP3    H128559   6.198   3.305   1.761 -0.2794  0.2478 -0.1844
 2308TIP3    H228560   6.127   3.352   1.886  0.8717 -0.1076  0.6113
 2309TIP3   OH228561   5.175   6.334   1.733 -0.0299  0.2692 -0.8234
 2309TIP3    H128562   5.101   6.278   1.710 -0.2264  0.4341 -0.6024
 2309TIP3    H228563   5.150   6.372   1.817  0.4128  0.1390 -0.6324
 2310TIP3   OH228564   4.841   0.247   0.869 -0.2926 -0.0614  0.0219
 2310TIP3    H128565   4.783   0.254   0.945 -1.0826  0.5959 -0.6212
 2310TIP3    H228566   4.923   0.211   0.905 -0.3011  1.1310  1.3732
 2311TIP3   OH228567   5.922   0.913   0.015  0.3976  0.3253  0.0174
 2311TIP3    H128568   6.010   0.896   0.048 -0.2917 -1.4760  1.0830
 2311TIP3    H228569   5.922   0.876  -0.073  0.2236 -1.3666  0.6842
 2312TIP3   OH228570   3.968   4.017   7.910  0.3529  0.3361  0.1940
 2312TIP3    H128571   3.875   4.002   7.896  0.2874  0.8329  0.0581
 2312TIP3    H228572   3.971   4.096   7.964  0.6638 -0.3925  1.2546
 2313TIP3   OH228573   6.396   0.990   0.485  0.2839  0.2146  0.2985
 2313TIP3    H128574   6.306   1.022   0.485 -0.1915 -0.9894 -1.1185
 2313TIP3    H228575   6.396   0.918   0.548  0.0693 -0.1916 -0.1533
 2314TIP3   OH228576   5.906   5.150   7.722 -0.7186 -0.0191  0.1793
 2314TIP3    H128577   5.958   5.223   7.690 -1.3397  1.6820  2.7927
 2314TIP3    H228578   5.965   5.075   7.718  0.5279  0.9669 -0.8507
 2315TIP3   OH228579   6.018   0.798   7.509  0.2330  0.4143  0.1998
 2315TIP3    H128580   5.938   0.762   7.471  0.5959  0.6481 -0.8171
 2315TIP3    H228581   6.009   0.893   7.501  0.5166  0.4525  0.2816
 2316TIP3   OH228582   3.474   2.793   7.873 -0.3739 -0.6317  0.4452
 2316TIP3    H128583   3.483   2.751   7.959  1.9441  0.8314  1.0062
 2316TIP3    H228584   3.563   2.822   7.851 -1.2817  0.9520 -1.4444
 2317TIP3   OH228585   4.015   2.490   2.157 -0.2885  0.4872  0.6187
 2317TIP3    H128586   3.923   2.482   2.184 -0.3904  0.9136  0.4039
 2317TIP3    H228587   4.064   2.448   2.228 -0.7204 -0.9588  0.0999
 2318TIP3   OH228588   2.740   4.067   0.082 -0.6737 -0.2180  0.1855
 2318TIP3    H128589   2.769   4.153   0.112 -1.3691  0.1183 -0.0899
 2318TIP3    H228590   2.679   4.086   0.011 -0.6714 -0.9468 -0.0154
 2319TIP3   OH228591   4.802   4.961   2.169  0.4609  0.3968 -0.0529
 2319TIP3    H128592   4.844   5.015   2.102 -0.6331 -0.4024 -1.4228
 2319TIP3    H228593   4.714   4.998   2.178  0.6434  0.5783  1.0598
 2320TIP3   OH228594   4.182   4.776   8.342 -0.2668  0.8788 -0.1923
 2320TIP3    H128595   4.263   4.827   8.351 -0.5422  1.3430 -0.3404
 2320TIP3    H228596   4.180   4.721   8.421  0.0888  1.0116 -0.0869
 2321TIP3   OH228597   5.636   4.732   1.636  0.2186  0.0247  0.1547
 2321TIP3    H128598   5.548   4.765   1.655  0.1841  1.4711 -2.1356
 2321TIP3    H228599   5.686   4.810   1.612  1.9797 -0.8579  0.7793
 2322TIP3   OH228600   3.153   3.581   7.622 -0.1557 -0.4372 -0.0708
 2322TIP3    H128601   3.243   3.552   7.608 -0.3718 -1.1384 -0.0697
 2322TIP3    H228602   3.131   3.630   7.542  0.5682  0.6637  0.3785
 2323TIP3   OH228603   5.870   3.367   8.063 -0.2967  0.5073  0.1300
 2323TIP3    H128604   5.804   3.408   8.007  0.4542  1.0226 -0.4022
 2323TIP3    H228605   5.953   3.401   8.030  0.0915  3.3679  3.4949
 2324TIP3   OH228606   3.897   4.777   0.410  0.5846 -0.2720 -0.1949
 2324TIP3    H128607   3.909   4.703   0.470 -1.5381  0.7202  1.6304
 2324TIP3    H228608   3.946   4.848   0.450 -2.9147  1.1528  2.0965
 2325TIP3   OH228609   2.938   1.473   7.618 -0.1099 -0.1612  0.4223
 2325TIP3    H128610   2.921   1.568   7.613  1.2709  0.0974  0.2921
 2325TIP3    H228611   2.885   1.444   7.693  0.3129  0.9315  1.1894
 2326TIP3   OH228612   0.008   1.754   8.357 -0.6774 -0.2387  0.6869
 2326TIP3    H128613  -0.076   1.770   8.401 -0.6733 -1.8135  1.3328
 2326TIP3    H228614  -0.015   1.706   8.278 -0.5327  1.1296 -0.2144
 2327TIP3   OH228615   1.738   5.673   8.175  0.0010 -0.3438 -0.6593
 2327TIP3    H128616   1.651   5.635   8.191 -0.6022  1.0225 -0.5691
 2327TIP3    H228617   1.751   5.736   8.246  1.8226 -1.7183  0.3085
 2328TIP3   OH228618   0.353   0.689   8.593  0.2331  0.0821 -0.1225
 2328TIP3    H128619   0.387   0.777   8.610  1.4003 -0.2045 -0.8979
 2328TIP3    H228620   0.427   0.641   8.556 -0.5766 -1.0359 -0.3380
 2329TIP3   OH228621   0.154   1.619   8.576  0.0061  0.7616 -0.1643
 2329TIP3    H128622   0.091   1.607   8.505 -0.0287 -0.6033  0.0698
 2329TIP3    H228623   0.146   1.539   8.628  1.5816  0.7952  0.1505
 2330TIP3   OH228624   3.570   2.371   0.401  0.1169 -0.0328  0.0044
 2330TIP3    H128625   3.580   2.466   0.398 -0.1076 -0.0409 -1.3962
 2330TIP3    H228626   3.596   2.340   0.314 -0.3363 -1.1999  0.2542
 2331TIP3   OH228627   2.312   6.670   0.313 -0.0251  0.3086 -0.4101
 2331TIP3    H128628   2.311   6.623   0.230 -1.2469  0.2743 -0.3942
 2331TIP3    H228629   2.267   6.753   0.294  1.0476  0.9695 -0.1482
 2332TIP3   OH228630   2.577   2.060   0.217 -0.1656 -0.0341 -0.6120
 2332TIP3    H128631   2.572   2.126   0.148 -2.4295  1.1775  0.5837
 2332TIP3    H228632   2.566   2.109   0.299  3.4328 -1.2648  0.8348
 2333TIP3   OH228633   5.182   6.221   7.850  0.2376  0.0642  0.7848
 2333TIP3    H128634   5.277   6.208   7.852  0.6317  2.2787 -0.6503
 2333TIP3    H228635   5.155   6.214   7.942  1.5878 -1.6219  1.1061
 2334TIP3   OH228636   1.255   3.999   7.281 -0.4889  0.0395  0.5312
 2334TIP3    H128637   1.232   4.078   7.231 -1.3673 -0.1074  0.6745
 2334TIP3    H228638   1.290   4.032   7.363  2.5401  0.3144 -0.7621
 2335TIP3   OH228639   4.072   6.085   8.992 -0.3309 -0.2007 -0.3135
 2335TIP3    H128640   4.101   6.089   9.083 -2.3388 -1.6152  0.4559
 2335TIP3    H228641   4.105   6.166   8.953 -0.3857  1.0098  1.9839
 2336TIP3   OH228642   0.756   6.600   0.059  0.8119  0.0899 -0.6266
 2336TIP3    H128643   0.729   6.673   0.114  2.5513 -0.9661  1.7740
 2336TIP3    H228644   0.830   6.633   0.008  0.0014  0.6910 -1.4473
 2337TIP3   OH228645   3.145   4.650   7.362 -0.3877  0.1383 -0.2185
 2337TIP3    H128646   3.235   4.685   7.366 -0.8647  1.3929  0.1653
 2337TIP3    H228647   3.134   4.621   7.272  0.9329 -1.5491  0.1164
 2338TIP3   OH228648   1.169   4.904   7.223  0.4401  0.9867 -0.3372
 2338TIP3    H128649   1.253   4.862   7.207  0.1875 -0.1931  1.2209
 2338TIP3    H228650   1.140   4.935   7.137  1.5612 -0.3058 -1.2014
 2339TIP3   OH228651   5.946   1.978   7.573  0.1465  0.0887 -0.4218
 2339TIP3    H128652   5.980   1.890   7.585  0.8550  0.4367  0.3040
 2339TIP3    H228653   5.870   1.983   7.630 -0.6930 -0.4610 -1.4766
 2340TIP3   OH228654   3.758   1.383   9.000 -0.3770  0.2507  0.5779
 2340TIP3    H128655   3.722   1.315   9.057 -1.5370 -0.8342 -1.3479
 2340TIP3    H228656   3.808   1.439   9.059 -1.8409 -0.5523  2.7240
 2341TIP3   OH228657   3.746   6.644   8.156  0.0964  0.3566  0.0782
 2341TIP3    H128658   3.744   6.577   8.223 -1.4685  1.1505  0.8712
 2341TIP3    H228659   3.728   6.597   8.074 -1.0998 -0.1943  0.6367
 2342TIP3   OH228660   5.505   3.364   1.223  0.0650 -0.4026  0.1781
 2342TIP3    H128661   5.448   3.436   1.249 -1.5837 -1.8631  0.8520
 2342TIP3    H228662   5.588   3.405   1.200 -0.6310  1.6314  1.0953
 2343TIP3   OH228663   6.141   0.831   1.290 -0.3136  0.0813 -0.0847
 2343TIP3    H128664   6.130   0.803   1.381  0.0568 -1.5410 -0.4975
 2343TIP3    H228665   6.074   0.898   1.276  0.2671  1.0897  1.6481
 2344TIP3   OH228666   4.514   1.625   7.464 -0.7034 -0.6839 -0.0735
 2344TIP3    H128667   4.503   1.697   7.402  0.1832 -0.0815  0.4352
 2344TIP3    H228668   4.429   1.615   7.506 -1.1952 -0.8291 -1.0988
 2345TIP3   OH228669   3.708   3.413   7.989 -0.2948  0.1196 -0.5435
 2345TIP3    H128670   3.647   3.340   7.989 -1.3218  0.9552 -1.2909
 2345TIP3    H228671   3.794   3.371   7.980 -0.8429 -1.0084 -0.7770
 2346TIP3   OH228672   4.608   3.693   8.971  0.6047 -0.9967 -0.6230
 2346TIP3    H128673   4.699   3.718   8.960  0.4652 -0.2794 -0.1725
 2346TIP3    H228674   4.604   3.656   9.060 -0.0877  1.5655  0.4915
 2347TIP3   OH228675   1.588   5.530   1.673 -0.6543 -0.4467 -0.0834
 2347TIP3    H128676   1.533   5.452   1.669  0.7933 -1.5607  0.6217
 2347TIP3    H228677   1.532   5.602   1.643 -2.3008 -1.6061  0.1278
 2348TIP3   OH228678   5.617   0.133   2.411  0.1947 -0.9655  0.3758
 2348TIP3    H128679   5.654   0.108   2.496  0.3272  0.7169  0.8442
 2348TIP3    H228680   5.561   0.207   2.430 -0.2193 -0.9198 -0.9433
 2349TIP3   OH228681   3.632   6.451   0.663  0.3208  0.1047  0.1257
 2349TIP3    H128682   3.609   6.540   0.637  1.5102  0.7047  1.0177
 2349TIP3    H228683   3.657   6.407   0.582 -1.8684  0.0223 -0.5837
 2350TIP3   OH228684   3.019   6.315   1.831 -0.5691 -0.4085  0.2678
 2350TIP3    H128685   3.070   6.381   1.878  1.1449 -2.1128  0.9500
 2350TIP3    H228686   2.930   6.350   1.829  0.5340  2.6668 -0.8653
 2351TIP3   OH228687   0.825   5.280   0.894 -0.0573 -0.1733  0.3355
 2351TIP3    H128688   0.812   5.193   0.932  0.0749 -0.1718  0.3844
 2351TIP3    H228689   0.915   5.278   0.860  0.0043 -0.0008  0.4856
 2352TIP3   OH228690   1.367   0.944   8.245 -0.4420 -0.1426  0.1024
 2352TIP3    H128691   1.389   1.036   8.229 -2.1248  0.1128 -0.9694
 2352TIP3    H228692   1.388   0.899   8.163 -0.9666 -0.4541  0.1342
 2353TIP3   OH228693   3.097   5.041   2.845 -0.7097 -0.1388  0.3989
 2353TIP3    H128694   3.181   4.995   2.844 -0.6190  0.0316 -0.1291
 2353TIP3    H228695   3.121   5.133   2.847 -0.8925 -0.0960  0.8195
 2354TIP3   OH228696   5.540   5.496   1.604 -0.2346 -0.8833  0.7638
 2354TIP3    H128697   5.453   5.533   1.596  0.0040 -0.0731  1.6898
 2354TIP3    H228698   5.600   5.570   1.595  0.3883 -1.4641 -0.1275
 2355TIP3   OH228699   2.878   1.076   8.010 -0.7689 -0.1271 -0.1067
 2355TIP3    H128700   2.881   1.064   8.105 -1.5277  0.8436  0.0506
 2355TIP3    H228701   2.790   1.110   7.992 -0.0829  1.2682 -0.9635
 2356TIP3   OH228702   6.335   1.573   7.625  0.6749  0.6894 -0.4020
 2356TIP3    H128703   6.412   1.518   7.614  0.5160  0.6017 -1.0855
 2356TIP3    H228704   6.311   1.599   7.536  1.2523  2.5637 -0.0670
 2357TIP3   OH228705   3.997   6.126   8.071 -0.4243 -0.2488  0.1284
 2357TIP3    H128706   4.033   6.101   7.986 -1.4058 -1.6998  0.1086
 2357TIP3    H228707   4.044   6.071   8.134  0.1326  0.6528  0.5306
 2358TIP3   OH228708   1.021   0.536   8.270 -0.2634  0.2536 -0.0146
 2358TIP3    H128709   1.113   0.521   8.288 -0.0789  0.4302 -0.7569
 2358TIP3    H228710   1.019   0.622   8.227 -0.8364  0.5201  0.5361
 2359TIP3   OH228711   4.847   4.848   8.953  0.5765  0.2403  0.0721
 2359TIP3    H128712   4.763   4.894   8.959  0.4650  0.0808 -0.2162
 2359TIP3    H228713   4.845   4.785   9.025  0.5358  0.3754  0.1902
 2360TIP3   OH228714   1.505   2.993   8.755 -0.0859  0.3569  0.1335
 2360TIP3    H128715   1.486   2.908   8.795  0.3211 -0.4424 -1.3112
 2360TIP3    H228716   1.564   3.035   8.818 -1.1855  0.0687  1.4074
 2361TIP3   OH228717   3.516   3.778   1.613 -0.0358 -0.0876  0.1584
 2361TIP3    H128718   3.455   3.736   1.552 -1.5751  1.6003  0.4489
 2361TIP3    H228719   3.590   3.805   1.558 -0.1226 -1.0101 -0.4388
 2362TIP3   OH228720   3.456   3.063   8.207 -0.0048  0.3077  1.0063
 2362TIP3    H128721   3.527   3.028   8.262  0.2581  1.5811  1.5074
 2362TIP3    H228722   3.381   3.008   8.228  0.1428  0.6491  2.5362
 2363TIP3   OH228723   0.205   1.450   6.818 -0.1994  0.3070  0.7102
 2363TIP3    H128724   0.262   1.520   6.786  1.3865 -1.6587 -0.9814
 2363TIP3    H228725   0.264   1.379   6.840 -1.8999 -1.2440  0.4777
 2364TIP3   OH228726   4.616   6.396   1.823 -0.3439  0.2682 -0.5890
 2364TIP3    H128727   4.671   6.321   1.846  0.6077  1.1237 -0.0178
 2364TIP3    H228728   4.648   6.468   1.877 -1.4783  1.0128 -0.8603
 2365TIP3   OH228729   3.242   2.585   7.626 -0.1980  0.7924  0.4085
 2365TIP3    H128730   3.250   2.672   7.585 -0.2629  0.1566 -1.0128
 2365TIP3    H228731   3.332   2.551   7.626 -0.4820 -0.0576 -1.2084
 2366TIP3   OH228732   1.643   4.876   7.040  0.0076  0.0543  0.5051
 2366TIP3    H128733   1.712   4.814   7.062 -0.1317 -0.3918 -0.2987
 2366TIP3    H228734   1.678   4.926   6.967 -1.4491 -1.8784 -1.6455
 2367TIP3   OH228735   3.975   2.612   1.065  0.5819  0.7314 -0.0945
 2367TIP3    H128736   3.892   2.659   1.063 -0.7839 -1.5540 -1.5513
 2367TIP3    H228737   3.972   2.560   1.145  0.1587 -0.0140 -0.5764
 2368TIP3   OH228738   5.092   2.299   1.187 -0.6092 -0.3680  0.0776
 2368TIP3    H128739   5.077   2.204   1.189  0.1658 -0.4958  1.7171
 2368TIP3    H228740   5.070   2.328   1.276 -0.8894  1.0058 -0.4202
 2369TIP3   OH228741   0.916   3.845   7.208  0.7055  0.2136 -0.0782
 2369TIP3    H128742   0.930   3.878   7.119  2.4384  0.3861  0.2178
 2369TIP3    H228743   0.907   3.924   7.262 -0.5986  0.1094 -0.1087
 2370TIP3   OH228744   2.250   2.081   1.528 -0.4652  0.1984  0.0526
 2370TIP3    H128745   2.186   2.050   1.592 -2.2706  3.1197 -0.1136
 2370TIP3    H228746   2.298   2.150   1.574  0.7536 -0.1655 -0.6507
 2371TIP3   OH228747   2.685   3.670   1.310 -0.9794  0.0181  0.3554
 2371TIP3    H128748   2.610   3.620   1.343 -0.3968 -0.6481  0.7030
 2371TIP3    H228749   2.709   3.728   1.382 -0.3780 -0.6740  0.7266
 2372TIP3   OH228750   1.272   3.743   1.617 -0.2987 -0.1106 -0.4521
 2372TIP3    H128751   1.274   3.746   1.713  1.0896 -2.9712 -0.2848
 2372TIP3    H228752   1.220   3.819   1.592 -1.6840  0.0972  2.5918
 2373TIP3   OH228753   1.013   3.364   8.998 -1.0072  0.2492  0.1764
 2373TIP3    H128754   1.074   3.342   8.928  0.4220  1.4767  0.9955
 2373TIP3    H228755   1.044   3.313   9.074 -1.1919  0.6372  0.5162
 2374TIP3   OH228756   6.279   2.889   7.074  0.5042  0.5420 -0.0033
 2374TIP3    H128757   6.347   2.833   7.036  0.2136 -0.8612  1.4064
 2374TIP3    H228758   6.217   2.827   7.113  0.1270  1.8527  1.5779
 2375TIP3   OH228759   1.555   5.495   0.615  0.1598  0.0137  0.2722
 2375TIP3    H128760   1.521   5.413   0.652  1.0971 -0.9924 -0.9804
 2375TIP3    H228761   1.478   5.538   0.578 -0.0384 -1.5532 -1.2862
 2376TIP3   OH228762   0.588   3.303   0.455  0.4969  0.2378 -0.7874
 2376TIP3    H128763   0.592   3.398   0.446  0.6049  0.0935 -2.6464
 2376TIP3    H228764   0.677   3.278   0.480 -0.1419  0.7911  2.5090
 2377TIP3   OH228765   1.141   5.092   0.308 -0.0056  0.5050 -0.8279
 2377TIP3    H128766   1.147   5.156   0.238  0.7796  1.4153  0.0458
 2377TIP3    H228767   1.184   5.014   0.273 -1.3856  0.2765 -2.0711
 2378TIP3   OH228768   4.985   0.986   7.522 -0.0718 -1.6166 -0.3377
 2378TIP3    H128769   4.969   1.051   7.591 -0.3657 -2.3489  0.3074
 2378TIP3    H228770   4.995   1.037   7.442 -0.9855 -0.8216  0.0375
 2379TIP3   OH228771   0.359   3.844   0.520  1.1020 -0.0331 -0.0647
 2379TIP3    H128772   0.273   3.870   0.554  0.8510  0.8406 -1.3180
 2379TIP3    H228773   0.366   3.888   0.436  1.7092 -2.1213 -1.1713
 2380TIP3   OH228774   2.485   0.734   1.291  0.1113  0.4303  0.1779
 2380TIP3    H128775   2.557   0.705   1.235  0.5808 -2.8177  2.1885
 2380TIP3    H228776   2.417   0.668   1.277 -1.6080  2.1614  0.0595
 2381TIP3   OH228777   6.068   4.111   8.826  0.2287 -0.0154  0.1046
 2381TIP3    H128778   6.141   4.158   8.866  0.2654 -1.5146  1.8990
 2381TIP3    H228779   6.101   4.082   8.741  1.7944 -0.8093  0.9543
 2382TIP3   OH228780   0.906   0.587   7.375 -0.1120  0.0338 -0.1988
 2382TIP3    H128781   0.905   0.642   7.297  1.1378  2.0906  1.1463
 2382TIP3    H228782   0.997   0.560   7.384 -0.2890 -0.3562  0.4662
 2383TIP3   OH228783   3.017   3.579   6.738  0.3074 -0.3324  0.2142
 2383TIP3    H128784   3.061   3.571   6.653 -0.4702  1.4935 -0.3972
 2383TIP3    H228785   2.952   3.509   6.738 -0.8339  0.6622 -1.4418
 2384TIP3   OH228786   0.267   1.248   7.178  0.1779  0.5590 -0.1105
 2384TIP3    H128787   0.207   1.191   7.226 -1.1539  1.8824 -0.1325
 2384TIP3    H228788   0.352   1.232   7.218 -0.2821 -0.9238  0.3325
 2385TIP3   OH228789   1.054   4.745   1.492  0.3186  0.3426 -0.6128
 2385TIP3    H128790   0.985   4.782   1.546  0.8613 -0.9663  1.0754
 2385TIP3    H228791   1.096   4.820   1.450  0.2957  1.4974  1.3269
 2386TIP3   OH228792   5.918   3.666   0.996 -0.4130 -0.1252 -0.3169
 2386TIP3    H128793   5.931   3.749   0.949  1.3385 -0.3984 -0.3929
 2386TIP3    H228794   6.003   3.649   1.037 -0.9277 -1.6012  0.1841
 2387TIP3   OH228795   0.197   0.785   8.801 -0.0710 -0.1350 -0.2281
 2387TIP3    H128796   0.216   0.875   8.774  1.6635 -0.1478  0.7586
 2387TIP3    H228797   0.249   0.731   8.741 -0.0041 -0.3874  0.0529
 2388TIP3   OH228798   1.240   5.203   7.302  0.0849  0.5845  0.7523
 2388TIP3    H128799   1.297   5.274   7.331 -1.6377  2.0255  0.8082
 2388TIP3    H228800   1.178   5.245   7.243 -0.6723 -1.0016  0.3535
 2389TIP3   OH228801   6.113   4.268   6.676  0.6142  0.3317 -0.1537
 2389TIP3    H128802   6.199   4.248   6.638 -0.3291  0.3968 -2.4663
 2389TIP3    H228803   6.084   4.186   6.715  1.3695  0.1019 -0.0610
 2390TIP3   OH228804   2.617   1.406   7.795  0.5317  0.2859 -0.0937
 2390TIP3    H128805   2.709   1.405   7.819  0.6617  0.2858 -0.5698
 2390TIP3    H228806   2.592   1.314   7.791  0.9366  0.2137 -1.4974
 2391TIP3   OH228807   0.484   6.080   7.373  0.4248  0.1509  0.1839
 2391TIP3    H128808   0.523   6.008   7.323  0.5691  1.4083 -1.5662
 2391TIP3    H228809   0.545   6.153   7.363  0.1548  0.6387  1.7354
 2392TIP3   OH228810   5.144   3.206   8.258  0.0536  0.1939  0.4292
 2392TIP3    H128811   5.180   3.164   8.180  0.9248  0.8290  0.4848
 2392TIP3    H228812   5.084   3.273   8.223  0.3104  0.3616  0.3057
 2393TIP3   OH228813   6.308   0.072   1.765  0.1637  0.1006  0.1903
 2393TIP3    H128814   6.224   0.055   1.722 -1.2951  1.3872  2.3293
 2393TIP3    H228815   6.296   0.042   1.855  1.9856  0.4226  0.5857
 2394TIP3   OH228816   2.325   4.191   8.677  0.0879  0.3345  0.1540
 2394TIP3    H128817   2.232   4.186   8.700  0.0195  0.2265 -0.1435
 2394TIP3    H228818   2.325   4.195   8.581  0.4163 -0.2309  0.1311
 2395TIP3   OH228819   6.293   3.891   0.605  0.2623  0.2601  0.3853
 2395TIP3    H128820   6.291   3.980   0.569 -1.6649 -0.5288 -1.6652
 2395TIP3    H228821   6.371   3.851   0.568  0.4987  0.7371  0.3652
 2396TIP3   OH228822   2.113   2.985   0.320 -0.2983  0.2008 -0.3785
 2396TIP3    H128823   2.202   2.987   0.356  1.0052  0.3772 -3.3371
 2396TIP3    H228824   2.101   2.895   0.290 -0.8292  0.3871 -0.7351
 2397TIP3   OH228825   4.489   1.856   8.288  0.9178 -0.7498 -0.0797
 2397TIP3    H128826   4.400   1.879   8.259  0.8308 -1.2184 -0.1940
 2397TIP3    H228827   4.482   1.850   8.383  1.0653  0.2030  0.0021
 2398TIP3   OH228828   4.629   1.848   0.575 -0.0486 -0.0206 -1.0172
 2398TIP3    H128829   4.550   1.872   0.624  0.8215 -1.5108  1.2747
 2398TIP3    H228830   4.699   1.898   0.617  0.5036 -0.0505 -1.8760
 2399TIP3   OH228831   3.172   4.459   8.095 -0.1149  0.5098 -0.1748
 2399TIP3    H128832   3.147   4.411   8.016  1.0244 -1.2918  0.5133
 2399TIP3    H228833   3.106   4.434   8.160  0.1353  0.3465  0.0169
 2400TIP3   OH228834   3.323   4.705   8.078 -0.0284 -0.8816 -0.6759
 2400TIP3    H128835   3.303   4.763   8.151  0.8002 -1.9318  0.4252
 2400TIP3    H228836   3.262   4.633   8.086  0.0529 -0.9966 -1.0411
 2401TIP3   OH228837   5.900   0.726   7.823  0.4669 -0.1123 -0.0953
 2401TIP3    H128838   5.851   0.765   7.750 -2.3938 -0.9885  1.2353
 2401TIP3    H228839   5.885   0.786   7.896  1.0363 -0.6336  0.4533
 2402TIP3   OH228840   1.937   4.638   0.004  0.3844  0.1215  0.2714
 2402TIP3    H128841   1.856   4.686  -0.012  1.2145  1.0877 -1.3048
 2402TIP3    H228842   1.920   4.550  -0.029 -0.0993  0.2515  0.1690
 2403TIP3   OH228843   3.097   0.284   1.553  0.5287  0.1978  0.5630
 2403TIP3    H128844   3.008   0.262   1.528  1.0074  1.0879 -2.3222
 2403TIP3    H228845   3.090   0.365   1.603 -0.3270 -0.2848  1.2405
 2404TIP3   OH228846   2.858   0.923   8.263  0.0741 -0.2608  0.1753
 2404TIP3    H128847   2.869   0.837   8.304 -1.5443 -0.1637  0.9125
 2404TIP3    H228848   2.900   0.984   8.324  0.4507 -0.4289  0.0898
 2405TIP3   OH228849   2.865   3.786   1.142 -0.0665  0.3996  0.0836
 2405TIP3    H128850   2.794   3.754   1.197  0.2450  2.3871  1.7517
 2405TIP3    H228851   2.943   3.739   1.174  0.1737  1.7834  1.6710
 2406TIP3   OH228852   4.606   6.629   8.499  0.0235  0.4728 -0.5289
 2406TIP3    H128853   4.635   6.627   8.407  0.9314  0.4172 -0.2470
 2406TIP3    H228854   4.678   6.669   8.546 -0.3701  0.3404  0.1978
 2407TIP3   OH228855   5.347   2.591   7.005  0.1648  1.0401  0.2924
 2407TIP3    H128856   5.417   2.533   7.037  0.5655  1.7050  0.6377
 2407TIP3    H228857   5.298   2.615   7.084 -0.9112  0.0044 -0.0337
 2408TIP3   OH228858   6.503   6.294   8.025 -0.1716 -0.8289  0.1164
 2408TIP3    H128859   6.454   6.315   7.945  3.0922  0.2044 -1.8026
 2408TIP3    H228860   6.562   6.224   8.000  0.2789 -1.1715  1.9658
 2409TIP3   OH228861   1.663   3.797   0.476 -0.4172 -0.3464 -0.8869
 2409TIP3    H128862   1.605   3.805   0.400 -1.9907 -0.7132  0.2418
 2409TIP3    H228863   1.690   3.706   0.476 -3.3319 -1.3384  0.9696
 2410TIP3   OH228864   1.025   5.645   0.336 -0.6202 -0.1837 -0.1731
 2410TIP3    H128865   1.083   5.712   0.373 -0.0607 -0.3785 -0.6808
 2410TIP3    H228866   0.937   5.674   0.360 -0.3711  0.6233 -0.2013
 2411TIP3   OH228867   6.774   4.776   0.419  0.3662  0.0902 -1.2228
 2411TIP3    H128868   6.781   4.684   0.395 -0.2977 -0.0912 -0.7566
 2411TIP3    H228869   6.721   4.816   0.350 -1.0332 -0.3072 -0.4308
 2412TIP3   OH228870   4.773   2.032   0.900  0.3558  0.1411 -0.1014
 2412TIP3    H128871   4.819   2.104   0.942  1.2156 -0.3739 -0.1176
 2412TIP3    H228872   4.681   2.056   0.903  0.7325  2.0930 -1.6911
 2413TIP3   OH228873   0.494   5.939   1.460  0.0330 -0.2719 -0.2871
 2413TIP3    H128874   0.454   6.013   1.414  0.8774 -0.3296 -1.1630
 2413TIP3    H228875   0.504   5.969   1.550  1.9509  1.3756 -0.9767
 2414TIP3   OH228876   4.269   4.323   0.216 -0.1194 -0.1266  0.4538
 2414TIP3    H128877   4.260   4.228   0.226  1.3641 -0.5845 -1.7238
 2414TIP3    H228878   4.226   4.342   0.132  0.5677  0.9309  0.3290
 2415TIP3   OH228879   6.419   0.520   1.251  0.2194 -0.2230  0.2817
 2415TIP3    H128880   6.443   0.597   1.199  0.1886  0.3639  1.1215
 2415TIP3    H228881   6.332   0.540   1.286 -0.1735 -1.0176 -0.2027
 2416TIP3   OH228882   4.335   0.466   2.430 -0.9292  0.2360 -0.6405
 2416TIP3    H128883   4.263   0.410   2.401 -0.2954 -0.6122 -0.6435
 2416TIP3    H228884   4.412   0.409   2.425 -0.4094  0.8364  0.2902
 2417TIP3   OH228885   2.673   2.178   1.974  0.6334 -0.9505 -0.5354
 2417TIP3    H128886   2.628   2.115   1.919 -1.7925 -0.0258  0.2647
 2417TIP3    H228887   2.674   2.138   2.061 -0.5095 -0.1251 -0.1228
 2418TIP3   OH228888   3.988   1.466   0.158  0.4318  0.4148 -0.3984
 2418TIP3    H128889   4.038   1.484   0.078 -0.6055 -1.4083 -1.5041
 2418TIP3    H228890   3.998   1.372   0.172  0.9415  0.7561  1.8997
 2419TIP3   OH228891   2.556   2.743   0.441  0.0998  0.3927 -0.6958
 2419TIP3    H128892   2.567   2.754   0.536  0.7590 -0.6293 -0.6440
 2419TIP3    H228893   2.593   2.657   0.422 -1.5588 -0.1535 -1.6351
 2420TIP3   OH228894   5.152   2.270   7.118 -0.1382  0.3108  0.0115
 2420TIP3    H128895   5.237   2.235   7.091 -0.9465  0.2595 -2.6643
 2420TIP3    H228896   5.090   2.198   7.104 -1.1323  1.3903 -1.3940
 2421TIP3   OH228897   0.339   3.771   8.295  0.2020  0.0265  1.2056
 2421TIP3    H128898   0.281   3.816   8.356 -1.2056  1.7676 -1.1965
 2421TIP3    H228899   0.409   3.835   8.277  1.4643 -1.0576  2.1067
 2422TIP3   OH228900   0.256   5.295   1.613 -0.2715  0.5360  0.0862
 2422TIP3    H128901   0.236   5.316   1.521 -2.0208  1.8857  0.7120
 2422TIP3    H228902   0.325   5.357   1.637  2.3574 -1.7152 -1.0387
 2423TIP3   OH228903   4.468   2.997   2.307  0.1213 -0.2070 -0.5303
 2423TIP3    H128904   4.502   2.922   2.357 -1.9241 -0.3761  0.7265
 2423TIP3    H228905   4.536   3.064   2.314  2.0498 -1.9153 -1.7582
 2424TIP3   OH228906   4.842   6.433   2.194 -0.0830 -0.1197  0.4444
 2424TIP3    H128907   4.879   6.397   2.114 -0.6591 -0.9552  0.5385
 2424TIP3    H228908   4.888   6.516   2.207  1.8484 -1.1693  0.6347
 2425TIP3   OH228909   2.883   4.529   1.688 -0.0050 -0.7616  0.2170
 2425TIP3    H128910   2.827   4.544   1.764  0.5700  1.1717  0.3302
 2425TIP3    H228911   2.841   4.578   1.617 -0.9314 -3.1283 -0.9592
 2426TIP3   OH228912   2.318   3.662   7.919 -0.3300 -0.3284  0.3687
 2426TIP3    H128913   2.407   3.645   7.950 -0.5780 -1.0043  0.7311
 2426TIP3    H228914   2.278   3.575   7.912 -0.2864 -0.2413 -1.9019
 2427TIP3   OH228915   0.930   1.991   0.812  0.2919 -0.1737  0.1432
 2427TIP3    H128916   1.022   1.967   0.817 -0.1075 -1.9114 -0.3194
 2427TIP3    H228917   0.911   1.995   0.718  0.1600  1.3474  0.2102
 2428TIP3   OH228918   2.583   4.999   1.858  0.0788 -0.0584  0.4157
 2428TIP3    H128919   2.642   4.936   1.817 -0.8812 -0.1784 -0.8289
 2428TIP3    H228920   2.564   5.062   1.789  0.9599  1.6062  1.6100
 2429TIP3   OH228921   3.898   0.477   1.832 -0.6400  0.0542  0.1286
 2429TIP3    H128922   3.840   0.401   1.831  0.7999 -1.0654 -0.2049
 2429TIP3    H228923   3.985   0.442   1.816  0.0245  1.8141 -0.3716
 2430TIP3   OH228924   1.444   5.296   8.267  0.0501 -0.4203 -0.3052
 2430TIP3    H128925   1.365   5.330   8.227  1.1021  0.2761 -1.8563
 2430TIP3    H228926   1.471   5.363   8.330  0.4896  0.2799 -1.2226
 2431TIP3   OH228927   5.986   2.387   1.993 -0.5818 -0.0216 -0.1181
 2431TIP3    H128928   5.981   2.328   2.068 -0.4730  0.3009  0.1419
 2431TIP3    H228929   6.052   2.452   2.017 -1.3080  0.7083 -0.0522
 2432TIP3   OH228930   0.534   2.321   8.756 -0.1600  0.1441 -0.2000
 2432TIP3    H128931   0.454   2.350   8.800 -0.6697 -2.1082  0.5042
 2432TIP3    H228932   0.504   2.253   8.696  1.2139 -0.6346 -0.0356
 2433TIP3   OH228933   6.480   5.525   0.992  0.0435  0.8955  0.0118
 2433TIP3    H128934   6.528   5.606   0.978 -0.4416  1.1087 -0.4582
 2433TIP3    H228935   6.547   5.460   1.010  0.4531  1.3494  0.1568
 2434TIP3   OH228936   0.533   6.461   8.972 -0.0877 -0.6631  0.4180
 2434TIP3    H128937   0.487   6.544   8.960  0.8571 -0.2381 -0.4031
 2434TIP3    H228938   0.613   6.485   9.020  1.2403 -0.7249 -1.6589
 2435TIP3   OH228939   5.398   4.870   0.936  0.7949  0.1175  0.0834
 2435TIP3    H128940   5.358   4.813   0.871  1.3040  0.3776 -0.4663
 2435TIP3    H228941   5.335   4.941   0.948  0.1102 -0.5883  0.8480
 2436TIP3   OH228942   3.070   6.055   8.706  0.4959  0.0578 -0.2081
 2436TIP3    H128943   3.115   6.066   8.623 -0.7495  1.7791 -0.7206
 2436TIP3    H228944   3.124   6.102   8.770  0.1940  0.9046 -0.5557
 2437TIP3   OH228945   5.409   2.243   0.489  0.3170 -0.2752 -0.2020
 2437TIP3    H128946   5.339   2.304   0.515  0.9840  0.5952 -0.3925
 2437TIP3    H228947   5.376   2.201   0.410  0.4218  0.8891 -0.8885
 2438TIP3   OH228948   0.174   5.117   1.829  0.0785  0.1905 -0.4023
 2438TIP3    H128949   0.157   5.172   1.753  0.7248 -0.1315 -0.7859
 2438TIP3    H228950   0.127   5.160   1.900 -1.6242 -0.2021 -1.2351
 2439TIP3   OH228951   2.889   1.628   8.852  0.1733 -0.0213  0.4687
 2439TIP3    H128952   2.976   1.653   8.883 -0.3851  2.9513 -0.0734
 2439TIP3    H228953   2.829   1.680   8.905 -1.3905 -2.2856  1.1040
 2440TIP3   OH228954   2.214   6.676   8.502 -0.5885 -0.3852 -0.1168
 2440TIP3    H128955   2.306   6.674   8.479 -0.2691  0.0190  1.0267
 2440TIP3    H228956   2.172   6.722   8.430  0.2294  0.0927 -0.3024
 2441TIP3   OH228957   4.886   0.670   0.505 -0.2407  0.5022  0.0452
 2441TIP3    H128958   4.859   0.579   0.513 -0.0101  0.4397  0.1225
 2441TIP3    H228959   4.967   0.667   0.454 -0.1853  0.6557  0.1219
 2442TIP3   OH228960   0.896   1.208   1.735 -0.4893 -0.3356  0.3358
 2442TIP3    H128961   0.965   1.164   1.785  0.2615  1.8753  1.3761
 2442TIP3    H228962   0.877   1.148   1.663  0.3753 -2.3742  1.6823
 2443TIP3   OH228963   2.035   4.868   1.205  0.1706  0.2194 -0.7554
 2443TIP3    H128964   1.980   4.945   1.211  1.1464  0.8709  0.2724
 2443TIP3    H228965   2.014   4.829   1.120 -2.5127 -0.0918 -0.0264
 2444TIP3   OH228966   6.572   5.828   7.512  0.0204  0.3971 -0.0880
 2444TIP3    H128967   6.666   5.838   7.495 -0.2163  1.5244 -0.7962
 2444TIP3    H228968   6.542   5.766   7.446 -0.1749  1.9078 -1.4723
 2445TIP3   OH228969   1.300   2.622   8.524  0.1605  0.4440  0.2067
 2445TIP3    H128970   1.213   2.642   8.559  0.2997 -0.7918  1.3695
 2445TIP3    H228971   1.361   2.654   8.590  0.5608  0.5574 -0.2099
 2446TIP3   OH228972   3.768   5.299   7.055  0.0520  0.3613  0.2368
 2446TIP3    H128973   3.763   5.388   7.022 -1.3883  0.0742 -0.3860
 2446TIP3    H228974   3.846   5.299   7.111  0.0558  2.0099  0.2890
 2447TIP3   OH228975   4.368   4.476   1.751  0.2155  0.0304 -0.0205
 2447TIP3    H128976   4.277   4.479   1.781 -0.1708 -0.7833 -1.0689
 2447TIP3    H228977   4.379   4.556   1.700  0.1437  0.2002  0.2258
 2448TIP3   OH228978   2.886   1.080   1.499  0.1434  0.1287  0.2127
 2448TIP3    H128979   2.876   1.001   1.446 -0.0872 -1.1684  2.0732
 2448TIP3    H228980   2.979   1.102   1.495  0.4574 -1.0410  0.7085
 2449TIP3   OH228981   0.526   6.618   7.631 -0.0314  0.2926 -0.3577
 2449TIP3    H128982   0.439   6.614   7.589  0.2017 -3.6527 -0.9034
 2449TIP3    H228983   0.509   6.602   7.723  0.0678  0.2167 -0.3525
 2450TIP3   OH228984   4.294   5.967   7.976 -0.1778  0.4216  0.1336
 2450TIP3    H128985   4.292   5.872   7.970 -0.2542  0.4701 -0.8910
 2450TIP3    H228986   4.248   5.988   8.058 -1.0198 -0.3808 -0.1158
 2451TIP3   OH228987   3.856   1.459   1.636 -0.5423 -0.2294  0.5457
 2451TIP3    H128988   3.905   1.377   1.635 -1.8008 -1.0092  0.5093
 2451TIP3    H228989   3.896   1.510   1.705  2.3465  0.4702 -1.4779
 2452TIP3   OH228990   6.742   1.550   2.271  0.1592  0.1232  0.4695
 2452TIP3    H128991   6.763   1.637   2.237 -0.7306  0.9201  1.8876
 2452TIP3    H228992   6.647   1.552   2.284  0.3950 -0.3219  2.4843
 2453TIP3   OH228993   2.845   1.954   0.218 -0.4620  0.0504 -0.3821
 2453TIP3    H128994   2.751   1.957   0.200 -0.7904 -1.9545  0.7093
 2453TIP3    H228995   2.878   1.886   0.160 -0.1505 -0.9759  0.9592
 2454TIP3   OH228996   1.042   3.010   7.041 -0.1879  0.1773 -0.3349
 2454TIP3    H128997   0.988   3.058   6.979 -0.2994 -2.7325 -2.7144
 2454TIP3    H228998   0.981   2.958   7.092 -0.0277  1.9751  1.8563
 2455TIP3   OH228999   1.938   3.273   2.158  0.3047  0.1666 -0.0242
 2455TIP3    H129000   1.942   3.219   2.237 -0.2818  1.2601  0.7829
 2455TIP3    H229001   1.963   3.361   2.188 -2.7870  1.2797 -0.3866
 2456TIP3   OH229002   4.381   4.421   8.043 -0.1614  0.3674  0.3821
 2456TIP3    H129003   4.311   4.454   7.988  0.5427 -1.5826 -1.8718
 2456TIP3    H229004   4.350   4.434   8.133 -4.3890 -2.2121 -0.4513
 2457TIP3   OH229005   5.077   4.477   1.509  0.2135 -0.8327 -0.2352
 2457TIP3    H129006   5.089   4.537   1.435  0.3305  2.9630  2.5309
 2457TIP3    H229007   5.162   4.435   1.520  1.0172  0.6164 -0.6578
 2458TIP3   OH229008   4.402   1.518   1.930  0.5230 -0.3475 -0.3191
 2458TIP3    H129009   4.382   1.498   2.021  1.0521  3.3330  0.7434
 2458TIP3    H229010   4.316   1.533   1.889  0.2917 -1.9257 -0.4697
 2459TIP3   OH229011   0.040   1.261   6.990 -0.2031  0.1550 -0.1416
 2459TIP3    H129012   0.071   1.321   6.922 -1.5649  1.0560 -0.0012
 2459TIP3    H229013   0.107   1.265   7.058  0.5069  0.2751 -0.8183
 2460TIP3   OH229014   4.988   1.832   1.377 -0.4517 -0.2302  0.0087
 2460TIP3    H129015   4.918   1.833   1.442 -1.5536  0.5068 -1.1281
 2460TIP3    H229016   4.983   1.918   1.335  0.6223 -0.4658 -0.6309
 2461TIP3   OH229017   3.873   1.518   1.936 -0.3173 -0.2990  0.1204
 2461TIP3    H129018   3.820   1.442   1.913 -0.1402  0.0418 -1.5231
 2461TIP3    H229019   3.885   1.511   2.031 -2.3024 -1.0107  0.3633
 2462TIP3   OH229020   2.408   5.330   8.255  0.2174  0.0618 -0.1066
 2462TIP3    H129021   2.405   5.274   8.177 -0.0230 -0.6446  0.3987
 2462TIP3    H229022   2.417   5.269   8.328  0.9939  0.7471  0.3862
 2463TIP3   OH229023   5.397   5.355   6.927  0.5666  0.1412  0.0443
 2463TIP3    H129024   5.433   5.268   6.946  0.8889 -0.0301 -1.2793
 2463TIP3    H229025   5.470   5.415   6.941  0.6475  0.0786 -0.1088
 2464TIP3   OH229026   3.911   0.257   7.969  0.3103  0.3959  0.0231
 2464TIP3    H129027   3.927   0.298   7.884 -2.0608  0.4849 -0.4345
 2464TIP3    H229028   3.832   0.299   8.002 -0.5823 -1.7733  0.8539
 2465TIP3   OH229029   2.949   1.369   0.428 -0.0088 -0.1210 -0.0585
 2465TIP3    H129030   2.977   1.341   0.515 -0.6730 -1.0338 -0.1163
 2465TIP3    H229031   2.855   1.352   0.426  0.0330 -0.3554 -1.0291
 2466TIP3   OH229032   4.632   1.602   8.325  0.0946  0.0221 -0.2891
 2466TIP3    H129033   4.573   1.544   8.373  1.2980 -1.1503 -0.1539
 2466TIP3    H229034   4.576   1.672   8.292 -1.2657 -0.7679  0.2670
 2467TIP3   OH229035   3.255   2.450   2.206 -0.5156 -0.0066  0.1651
 2467TIP3    H129036   3.288   2.438   2.295  1.5689 -0.8146 -0.6652
 2467TIP3    H229037   3.294   2.532   2.176 -0.8797  0.0537 -0.1645
 2468TIP3   OH229038   2.467   3.370   0.391 -0.1613  0.3735 -0.1623
 2468TIP3    H129039   2.539   3.422   0.355 -0.2697  1.1634  0.7322
 2468TIP3    H229040   2.483   3.281   0.359  0.6906  0.7285 -0.7383
 2469TIP3   OH229041   2.146   2.465   0.957 -0.3219  0.0386 -0.1599
 2469TIP3    H129042   2.102   2.526   0.897  0.1248 -0.0636 -0.6028
 2469TIP3    H229043   2.080   2.399   0.976 -0.7311  0.5201  0.1202
 2470TIP3   OH229044   1.641   6.613   8.414  0.1278 -0.1336  0.3834
 2470TIP3    H129045   1.571   6.577   8.360  1.4676  2.1380 -3.2226
 2470TIP3    H229046   1.718   6.561   8.391  0.8757  1.3349 -0.5458
 2471TIP3   OH229047   1.005   1.710   0.266  0.0186 -0.5041 -0.0904
 2471TIP3    H129048   1.093   1.727   0.300 -0.1040 -1.2371  0.6380
 2471TIP3    H229049   0.963   1.796   0.265 -0.0272 -0.4436  1.8544
 2472TIP3   OH229050   4.847   6.709   2.168 -0.5059  0.3180 -0.2599
 2472TIP3    H129051   4.933   6.744   2.193 -0.9366  0.5584  0.9655
 2472TIP3    H229052   4.785   6.774   2.201 -1.1676  0.1984 -1.2246
 2473TIP3   OH229053   2.584   1.666   0.797 -0.2238  0.2660 -0.1233
 2473TIP3    H129054   2.625   1.590   0.755 -0.8042  0.9255 -1.9767
 2473TIP3    H229055   2.651   1.699   0.857  0.1762 -1.4497  0.4448
 2474TIP3   OH229056   6.038   5.483   7.971  0.3200  0.3567  0.3591
 2474TIP3    H129057   6.127   5.516   7.963  1.5206 -2.7046 -0.5924
 2474TIP3    H229058   6.044   5.392   7.941 -3.4045  0.4165 -1.1180
 2475TIP3   OH229059   2.344   5.553   0.322  0.0762  0.1580  0.0106
 2475TIP3    H129060   2.327   5.631   0.270 -0.9287  0.8898  1.3887
 2475TIP3    H229061   2.399   5.583   0.394  0.5532 -0.6210 -0.0122
 2476TIP3   OH229062   4.189   3.380   1.429  0.2228 -0.2683  0.5071
 2476TIP3    H129063   4.243   3.443   1.381  0.1055 -0.4089  0.1901
 2476TIP3    H229064   4.118   3.357   1.368  1.0732 -1.8323  0.0275
 2477TIP3   OH229065   2.937   0.698   8.414  0.0566 -0.7648 -0.1015
 2477TIP3    H129066   2.984   0.774   8.450  0.9861 -0.8045 -1.1880
 2477TIP3    H229067   2.972   0.623   8.462  2.0053 -0.9339 -1.6622
 2478TIP3   OH229068   2.461   1.867   7.598  0.5571  0.4739  0.1943
 2478TIP3    H129069   2.457   1.779   7.560 -0.3232  0.7520 -0.3857
 2478TIP3    H229070   2.521   1.858   7.672 -0.3669 -0.8792  0.8251
 2479TIP3   OH229071   0.537   0.431   8.744  0.6269  0.6190 -0.2316
 2479TIP3    H129072   0.493   0.472   8.818  1.5747  0.0404  0.6845
 2479TIP3    H229073   0.468   0.382   8.700  0.3414 -0.3999  1.2565
 2480TIP3   OH229074   1.057   2.623   8.641  0.5160 -0.1923  0.0030
 2480TIP3    H129075   0.999   2.661   8.706 -2.2992 -1.5255 -1.5529
 2480TIP3    H229076   1.068   2.532   8.669  2.9832  0.2944  0.9150
 2481TIP3   OH229077   0.911   2.124   7.235 -1.3845  0.2543 -0.3405
 2481TIP3    H129078   0.987   2.182   7.223 -1.7417  1.0867  1.1336
 2481TIP3    H229079   0.857   2.139   7.158 -0.4056  0.2273 -1.0395
 2482TIP3   OH229080   3.081   0.000   0.804  0.5231  0.7640  0.4165
 2482TIP3    H129081   3.059   0.092   0.786 -2.2062  0.1563  0.3023
 2482TIP3    H229082   3.052  -0.015   0.893 -0.7627 -0.4435 -0.1729
 2483TIP3   OH229083   4.082   3.137   7.755  0.3697  0.1187  0.3121
 2483TIP3    H129084   4.046   3.199   7.691  3.5899  3.4499  1.3579
 2483TIP3    H229085   4.092   3.055   7.707  0.5910  1.8299 -2.8101
 2484TIP3   OH229086   4.586   5.134   0.803  0.4883  0.6365 -0.1676
 2484TIP3    H129087   4.643   5.091   0.739  0.9131  1.6864 -0.5304
 2484TIP3    H229088   4.549   5.209   0.755 -1.6582 -0.3148 -0.1129
 2485TIP3   OH229089   1.092   4.408   0.396  0.3666 -0.9309 -0.0460
 2485TIP3    H129090   1.115   4.326   0.352  0.5261 -1.4565  0.9827
 2485TIP3    H229091   0.997   4.415   0.384  0.4764 -0.7933 -0.9076
 2486TIP3   OH229092   4.554   2.920   8.417  0.0135  0.1000  0.4585
 2486TIP3    H129093   4.511   3.005   8.405  1.5591  0.8926  0.2475
 2486TIP3    H229094   4.514   2.883   8.496 -2.4830 -0.1689 -0.8355
 2487TIP3   OH229095   4.480   5.333   7.925  0.0381 -0.3750  0.0434
 2487TIP3    H129096   4.498   5.311   7.834  0.7202 -0.7480  0.2630
 2487TIP3    H229097   4.430   5.415   7.920  1.8426  0.7569 -0.6114
 2488TIP3   OH229098   1.770   5.041   0.922  0.0308 -0.2358  0.0328
 2488TIP3    H129099   1.789   5.123   0.968  0.9538 -0.7583  0.6075
 2488TIP3    H229100   1.811   5.052   0.837 -2.4914  1.1234 -1.1264
 2489TIP3   OH229101   4.196   0.844   0.416  0.5786  0.3143  0.0365
 2489TIP3    H129102   4.122   0.785   0.432  1.3278 -1.3555 -2.1065
 2489TIP3    H229103   4.257   0.826   0.488 -1.2068  2.1806  2.2149
 2490TIP3   OH229104   4.959   4.325   0.692  0.2215 -0.3554 -0.0889
 2490TIP3    H129105   4.939   4.352   0.781 -0.8639 -1.8102  0.1409
 2490TIP3    H229106   4.966   4.408   0.643 -0.9744  0.4162  0.9729
 2491TIP3   OH229107   4.275   5.297   8.436  0.0765 -0.2937 -0.5452
 2491TIP3    H129108   4.209   5.330   8.497  0.5096  0.9277 -0.6989
 2491TIP3    H229109   4.314   5.376   8.398  1.4911 -0.9916 -0.6120
 2492TIP3   OH229110   4.059   6.084   0.255 -0.2657 -0.0231 -0.1155
 2492TIP3    H129111   4.112   6.116   0.328  0.7880 -1.0401 -0.3953
 2492TIP3    H229112   3.987   6.146   0.249  0.4188  0.9186  0.8444
 2493TIP3   OH229113   3.645   1.253   7.895  0.4087 -0.0402 -0.3640
 2493TIP3    H129114   3.552   1.269   7.912 -0.1136 -1.5497 -1.5603
 2493TIP3    H229115   3.683   1.238   7.982 -0.7411 -0.7441  0.0375
 2494TIP3   OH229116   0.377   0.755   7.460 -0.4537 -0.4368 -0.2274
 2494TIP3    H129117   0.411   0.715   7.380  0.0530 -0.2199 -0.1279
 2494TIP3    H229118   0.323   0.687   7.500  1.2474 -1.4386  0.4918
 2495TIP3   OH229119   6.659   1.767   0.211 -0.2297  0.0945  0.2876
 2495TIP3    H129120   6.600   1.711   0.161  2.2227 -1.7204 -0.7752
 2495TIP3    H229121   6.707   1.817   0.145  0.6852  0.1853  0.9953
 2496TIP3   OH229122   2.662   6.374   1.626 -0.0076  0.5121  0.1500
 2496TIP3    H129123   2.732   6.309   1.625 -0.6875 -0.3859  3.0378
 2496TIP3    H229124   2.586   6.327   1.661 -1.6645  1.8721 -1.3867
 2497TIP3   OH229125   3.622   3.488   1.799  0.5165 -0.0435 -0.6075
 2497TIP3    H129126   3.706   3.454   1.829  0.3108 -0.2765 -0.2909
 2497TIP3    H229127   3.599   3.433   1.724  1.2731  0.8613 -1.5273
 2498TIP3   OH229128   2.141   4.011   8.835  0.0130 -0.1611 -1.0468
 2498TIP3    H129129   2.132   3.917   8.821  2.8385 -0.5670 -0.8452
 2498TIP3    H229130   2.230   4.031   8.805 -0.1214  2.2509 -0.0792
 2499TIP3   OH229131   4.998   2.479   0.735  0.2035  0.2007  0.2709
 2499TIP3    H129132   5.042   2.558   0.766 -0.0520  0.1966  0.6633
 2499TIP3    H229133   4.906   2.493   0.757 -0.0732  0.4248 -0.9965
 2500TIP3   OH229134   4.480   4.233   8.457 -0.0749 -0.1110  0.2473
 2500TIP3    H129135   4.496   4.328   8.462 -0.9329  0.0811 -0.3347
 2500TIP3    H229136   4.515   4.207   8.372 -0.7703 -0.1034 -0.0539
 2501TIP3   OH229137   1.348   5.125   8.506  0.2160 -0.6464 -0.5257
 2501TIP3    H129138   1.272   5.075   8.478 -0.2437  0.2682 -0.9555
 2501TIP3    H229139   1.353   5.198   8.444  1.3857 -0.6401 -0.4386
 2502TIP3   OH229140   1.089   3.142   2.443  0.1810  0.0246  0.2244
 2502TIP3    H129141   1.043   3.209   2.392  0.0088  0.4133  0.8779
 2502TIP3    H229142   1.178   3.176   2.452  0.1902 -0.0069  0.2513
 2503TIP3   OH229143   2.138   2.373   8.427  0.0627 -0.0052  0.2083
 2503TIP3    H129144   2.234   2.377   8.434  0.2576 -1.7725 -0.9090
 2503TIP3    H229145   2.116   2.442   8.365  0.6624  0.0558  0.0553
 2504TIP3   OH229146   0.839   2.597   8.135  0.2771  0.6216 -0.4423
 2504TIP3    H129147   0.786   2.520   8.159  0.8174  0.5674  0.6557
 2504TIP3    H229148   0.874   2.628   8.219  1.5957  0.9387 -1.0994
 2505TIP3   OH229149   6.421   3.554   2.161  0.2723 -0.1531  0.0758
 2505TIP3    H129150   6.486   3.541   2.092 -2.6543  0.6053 -3.0989
 2505TIP3    H229151   6.416   3.648   2.172 -0.2162 -0.2099  0.3611
 2506TIP3   OH229152   2.428   2.366   1.325 -0.2302  0.3719 -0.1122
 2506TIP3    H129153   2.469   2.401   1.246  2.6217 -1.8838  0.2144
 2506TIP3    H229154   2.439   2.434   1.391  2.4035  0.2093 -0.2846
 2507TIP3   OH229155   5.901   3.563   8.558 -0.2396  0.2702 -0.2690
 2507TIP3    H129156   5.859   3.548   8.473 -0.3735  0.7485 -0.2898
 2507TIP3    H229157   5.839   3.529   8.622 -0.2652  0.1697 -0.3466
 2508TIP3   OH229158   5.332   2.758   7.892 -0.8138 -0.2954  0.5506
 2508TIP3    H129159   5.244   2.756   7.855  0.0626  3.2879 -2.3992
 2508TIP3    H229160   5.323   2.807   7.974 -1.5915 -0.3400  0.4973
 2509TIP3   OH229161   3.022   5.603   0.362 -0.5837 -0.0236  0.3816
 2509TIP3    H129162   3.117   5.616   0.368 -0.7433  1.1130  0.6538
 2509TIP3    H229163   3.005   5.591   0.269 -0.0559 -1.3040  0.4286
 2510TIP3   OH229164   4.142   5.425   1.375 -0.5185 -0.0905  0.2091
 2510TIP3    H129165   4.094   5.391   1.451  0.0023  1.1189  1.1115
 2510TIP3    H229166   4.222   5.464   1.413  1.6149 -2.6748 -1.2882
 2511TIP3   OH229167   3.888   0.390   8.351 -0.1647 -0.5443  0.0200
 2511TIP3    H129168   3.952   0.353   8.411  0.2287  1.0125  0.6053
 2511TIP3    H229169   3.912   0.354   8.265  0.4954 -1.2198  0.4777
 2512TIP3   OH229170   3.983   4.954   8.939  0.0671 -0.3400  0.2798
 2512TIP3    H129171   4.017   4.933   9.026  0.1877  0.0768  0.3365
 2512TIP3    H229172   4.037   5.027   8.909 -0.3101 -0.1432  0.0728
 2513TIP3   OH229173   3.713   0.947   1.350  0.8042  0.4759 -0.1793
 2513TIP3    H129174   3.684   0.878   1.411  0.7597  1.8956  1.4697
 2513TIP3    H229175   3.646   0.947   1.281 -0.2089  0.1119  0.7802
 2514TIP3   OH229176   0.660   0.023   8.505  0.5664  0.4794  0.2586
 2514TIP3    H129177   0.572   0.005   8.538 -0.4277  1.4818 -1.7099
 2514TIP3    H229178   0.692  -0.062   8.474  1.0280 -0.2287  2.4906
 2515TIP3   OH229179   3.303   1.849   1.652  0.2021 -0.4632 -0.2188
 2515TIP3    H129180   3.335   1.802   1.728  0.9573 -1.2852 -1.0185
 2515TIP3    H229181   3.381   1.868   1.600 -0.3593 -0.5132 -1.1074
 2516TIP3   OH229182   0.132   0.016   7.481  0.1657 -0.1746 -0.2410
 2516TIP3    H129183   0.064  -0.022   7.537  1.3693 -1.3907  0.4754
 2516TIP3    H229184   0.200  -0.051   7.478  2.0480  1.5856  0.4017
 2517TIP3   OH229185   2.736   6.238   8.300  0.1242  0.9369 -0.3417
 2517TIP3    H129186   2.796   6.242   8.225  0.0698 -1.1803 -0.5477
 2517TIP3    H229187   2.734   6.328   8.334  1.9814  1.4427 -1.4431
 2518TIP3   OH229188   2.215   5.309   6.717 -0.5148 -0.0304 -0.2137
 2518TIP3    H129189   2.301   5.350   6.707 -0.8195  0.6038 -0.2999
 2518TIP3    H229190   2.220   5.229   6.665  0.9468 -1.4834  1.9735
 2519TIP3   OH229191   3.131   2.716   8.617  0.4555  0.4333 -0.2135
 2519TIP3    H129192   3.058   2.778   8.623  0.4426  0.5529 -1.3092
 2519TIP3    H229193   3.205   2.761   8.657  0.0221  0.4562  0.5762
 2520TIP3   OH229194   1.802   4.651   8.083  0.0188 -0.0262 -0.2436
 2520TIP3    H129195   1.719   4.618   8.117  0.4767 -1.1028 -0.1269
 2520TIP3    H229196   1.828   4.719   8.146 -1.5040  1.4293 -1.1262
 2521TIP3   OH229197   5.220   0.193   0.106  0.0219  0.3349  0.0011
 2521TIP3    H129198   5.270   0.137   0.047  1.1754 -0.0850  1.3253
 2521TIP3    H229199   5.202   0.272   0.054  0.4380 -0.2748 -1.1089
 2522TIP3   OH229200   0.140   0.738   1.572 -0.4762 -0.5301 -0.6058
 2522TIP3    H129201   0.218   0.749   1.518 -1.2346  0.8382 -1.4702
 2522TIP3    H229202   0.094   0.664   1.531 -0.1818 -0.6335 -0.7571
 2523TIP3   OH229203   2.680   3.801   7.261  0.3125  0.3155 -0.5536
 2523TIP3    H129204   2.729   3.731   7.303 -0.3593  0.8198  1.1301
 2523TIP3    H229205   2.606   3.757   7.218 -0.9146  0.0753  1.6874
 2524TIP3   OH229206   3.531   0.336   0.718  0.2381 -0.1121  0.0566
 2524TIP3    H129207   3.539   0.417   0.768  1.6773  0.0297 -0.3498
 2524TIP3    H229208   3.485   0.276   0.776 -0.4504  0.8489  0.5322
 2525TIP3   OH229209   4.664   4.874   1.000 -0.3677  0.1110  0.2931
 2525TIP3    H129210   4.760   4.871   0.998 -0.3627 -1.7878 -2.7549
 2525TIP3    H229211   4.643   4.960   0.964  0.2217 -0.1093 -0.6092
 2526TIP3   OH229212   4.090   1.514   1.007 -0.3448 -0.6237  0.2491
 2526TIP3    H129213   4.169   1.498   1.059 -0.9214  1.1374  1.7887
 2526TIP3    H229214   4.123   1.553   0.926  0.3874  0.8617  1.2058
 2527TIP3   OH229215   2.513   5.868   7.479  0.0543 -0.5370 -0.0055
 2527TIP3    H129216   2.420   5.885   7.463  0.0878  1.1240  1.2566
 2527TIP3    H229217   2.515   5.819   7.561  0.3022  0.5044  0.6385
 2528TIP3   OH229218   1.068   1.810   1.147  0.1191 -0.2203  0.1158
 2528TIP3    H129219   1.032   1.885   1.196  1.1886 -0.1353  0.7981
 2528TIP3    H229220   1.163   1.819   1.156  0.3469 -0.2691 -1.8988
 2529TIP3   OH229221   1.049   1.941   7.564  0.0382  0.1850  0.1226
 2529TIP3    H129222   1.046   2.021   7.512 -0.8769  0.7076  0.9416
 2529TIP3    H229223   1.018   1.873   7.505  3.4447 -0.1637 -1.4943
 2530TIP3   OH229224   5.911   2.281   1.161 -0.1591 -0.0204 -0.1051
 2530TIP3    H129225   5.950   2.193   1.161 -0.1341 -0.0094 -0.1068
 2530TIP3    H229226   5.826   2.270   1.119 -0.4803 -0.1939  0.5734
 2531TIP3   OH229227   3.567   5.676   7.007  0.8818 -0.3019 -0.1639
 2531TIP3    H129228   3.580   5.594   6.959 -0.1773 -1.3164  1.2124
 2531TIP3    H229229   3.510   5.728   6.951  0.6061 -0.9866 -0.5300
 2532TIP3   OH229230   3.094   6.330   1.105  0.2774 -0.0047  0.3240
 2532TIP3    H129231   3.070   6.364   1.191 -1.7950 -1.3095  0.3340
 2532TIP3    H229232   3.097   6.235   1.115  1.6436 -0.1029 -0.6854
 2533TIP3   OH229233   2.318   3.275   7.505 -0.2346  0.0597 -0.7729
 2533TIP3    H129234   2.404   3.250   7.472 -0.8430 -0.0866 -2.3070
 2533TIP3    H229235   2.262   3.277   7.428 -1.1707  2.1174 -0.1120
 2534TIP3   OH229236   5.938   6.725   8.996  0.5633 -0.5887  0.2077
 2534TIP3    H129237   6.011   6.671   9.027  0.4906 -1.2452 -0.7194
 2534TIP3    H229238   5.961   6.746   8.906  0.1552  0.1810  0.2778
 2535TIP3   OH229239   1.132   6.375   0.188  0.0436 -0.5574  0.3945
 2535TIP3    H129240   1.111   6.392   0.096  0.7945 -3.0809 -0.3080
 2535TIP3    H229241   1.073   6.303   0.213  1.4961 -1.5259  1.1343
 2536TIP3   OH229242   5.738   6.457   7.797 -0.2644 -0.2180  0.0989
 2536TIP3    H129243   5.646   6.445   7.823 -0.2872  0.0559  0.1459
 2536TIP3    H229244   5.736   6.457   7.701 -0.3905  0.3868  0.1027
 2537TIP3   OH229245   3.100   0.913   2.367 -0.1521 -0.1085 -0.3166
 2537TIP3    H129246   3.124   0.995   2.410 -1.3994  0.3147 -0.3848
 2537TIP3    H229247   3.080   0.938   2.277  0.8311 -0.7255 -0.7190
 2538TIP3   OH229248   3.732   5.611   1.621 -0.3699  0.1931 -0.0146
 2538TIP3    H129249   3.789   5.629   1.547 -0.6043 -0.8090 -0.4516
 2538TIP3    H229250   3.643   5.619   1.586 -0.5256  1.5134  0.6065
 2539TIP3   OH229251   3.717   5.810   2.662 -0.1876  0.1817 -0.6770
 2539TIP3    H129252   3.799   5.780   2.623 -0.3653 -0.6728 -0.4123
 2539TIP3    H229253   3.741   5.889   2.710  1.0815 -1.5398  1.7489
 2540TIP3   OH229254   5.329   2.545   1.940 -0.1261  0.3399 -0.0976
 2540TIP3    H129255   5.290   2.462   1.967  1.1050 -0.5084 -0.7938
 2540TIP3    H229256   5.347   2.591   2.022 -1.6542  0.3288  0.2615
 2541TIP3   OH229257   1.012   3.634   7.611 -0.1199  0.3789 -0.0685
 2541TIP3    H129258   1.080   3.624   7.678  0.5862  0.9340 -0.6973
 2541TIP3    H229259   0.977   3.722   7.625 -0.2366  0.3522 -0.1903
 2542TIP3   OH229260   1.913   5.117   1.267 -0.1573  0.4824 -0.2590
 2542TIP3    H129261   1.951   5.190   1.219  1.1106  0.7456  1.0862
 2542TIP3    H229262   1.856   5.158   1.333 -0.4312  0.1982 -0.3154
 2543TIP3   OH229263   0.428   3.071   0.459 -0.0428 -0.3870  0.1912
 2543TIP3    H129264   0.484   3.149   0.455 -1.4728  0.6431 -1.8057
 2543TIP3    H229265   0.339   3.105   0.448 -0.8195 -2.2281  0.3848
 2544TIP3   OH229266   5.295   3.204   8.697 -0.2536 -0.1156  0.6304
 2544TIP3    H129267   5.275   3.242   8.783  1.8738  0.2170  1.0402
 2544TIP3    H229268   5.277   3.111   8.707 -1.0788  0.0799  1.0724
 2545TIP3   OH229269   3.121   1.996   7.092  0.1479  0.7184 -0.0656
 2545TIP3    H129270   3.166   1.941   7.028  0.1875 -0.5777  1.0460
 2545TIP3    H229271   3.044   2.028   7.045  0.1427 -0.2544 -0.7521
 2546TIP3   OH229272   6.691   6.052   8.481 -0.2081 -0.0899  0.0415
 2546TIP3    H129273   6.655   6.136   8.508 -1.8178 -1.3253  2.0483
 2546TIP3    H229274   6.671   6.044   8.388 -1.8800  0.8629  0.2989
 2547TIP3   OH229275   2.817   4.046   8.017 -0.0913 -0.3106 -0.1853
 2547TIP3    H129276   2.754   3.995   8.067  0.2825 -1.5297 -0.9168
 2547TIP3    H229277   2.875   4.084   8.083 -0.0050 -1.3504  0.3597
 2548TIP3   OH229278   2.111   0.732   8.322  0.2082 -0.2962  0.7032
 2548TIP3    H129279   2.176   0.780   8.271  1.7134 -2.2145  0.6765
 2548TIP3    H229280   2.091   0.789   8.396  0.9180  0.8829  0.0231
 2549TIP3   OH229281   2.062   1.277   7.857  0.1292 -0.4843  0.0836
 2549TIP3    H129282   2.071   1.207   7.922 -3.1654 -0.6492  0.5006
 2549TIP3    H229283   1.996   1.336   7.893  0.5453  1.1756 -1.6874
 2550TIP3   OH229284   3.229   3.836   7.082 -0.3730 -0.0014  0.3460
 2550TIP3    H129285   3.279   3.799   7.009  2.4631  0.3638  1.9652
 2550TIP3    H229286   3.218   3.763   7.143 -0.1196  0.3597  0.8343
 2551TIP3   OH229287   1.064   1.639   7.424 -0.3539  0.0487  0.4055
 2551TIP3    H129288   1.037   1.710   7.366 -0.9520 -1.6987 -1.5800
 2551TIP3    H229289   1.005   1.645   7.499 -1.2868  0.8009 -0.3751
 2552TIP3   OH229290   0.044   6.286   8.172  0.3311  0.2626  0.3807
 2552TIP3    H129291  -0.029   6.225   8.161 -0.3707  0.9953  0.8547
 2552TIP3    H229292   0.090   6.254   8.249  1.2086 -0.8660 -0.5723
 2553TIP3   OH229293   5.146   0.917   8.683  0.3656  0.8210 -0.5353
 2553TIP3    H129294   5.219   0.878   8.633 -0.3298 -0.7037 -0.4195
 2553TIP3    H229295   5.185   0.993   8.725  1.8503  0.1885 -0.6725
 2554TIP3   OH229296   0.776   6.598   6.789  0.0988  0.2260 -0.0095
 2554TIP3    H129297   0.847   6.644   6.744  1.1487 -1.7336 -0.4346
 2554TIP3    H229298   0.742   6.536   6.725 -1.6139  0.6904  0.3951
 2555TIP3   OH229299   1.317   2.558   7.569  0.1286  1.3965 -0.3375
 2555TIP3    H129300   1.240   2.509   7.598  0.7771  0.0361 -0.8130
 2555TIP3    H229301   1.356   2.503   7.501  1.3106  2.2411 -0.3793
 2556TIP3   OH229302   4.116   3.244   8.634 -0.0025 -0.1427 -0.1161
 2556TIP3    H129303   4.029   3.206   8.618  0.1311 -0.0214 -1.2245
 2556TIP3    H229304   4.151   3.260   8.546  1.5541 -1.1162  0.2882
 2557TIP3   OH229305   6.291   2.860   8.250  0.5855 -0.6381  0.7016
 2557TIP3    H129306   6.248   2.876   8.333  0.0596 -3.1172  0.9876
 2557TIP3    H229307   6.248   2.782   8.215  1.0734  0.0866 -1.7082
 2558TIP3   OH229308   2.895   4.347   7.687 -0.0298 -0.1271  0.1750
 2558TIP3    H129309   2.947   4.273   7.716  0.0768 -0.1334 -0.0296
 2558TIP3    H229310   2.929   4.422   7.736  0.6215 -0.0089 -0.4397
 2559TIP3   OH229311   0.083   6.706   1.857 -0.7581 -0.2436 -0.0698
 2559TIP3    H129312   0.104   6.628   1.805  1.2865 -0.0743  0.4527
 2559TIP3    H229313   0.064   6.672   1.944  0.3785 -0.1508  0.2208
 2560TIP3   OH229314   3.941   0.337   2.885 -0.1705 -0.7278 -0.0196
 2560TIP3    H129315   3.943   0.432   2.899 -3.0308 -0.5013 -0.5900
 2560TIP3    H229316   4.024   0.318   2.842  0.3737  1.5530 -0.1113
 2561TIP3   OH229317   2.449   1.406   0.090 -0.4497  0.1245 -0.3012
 2561TIP3    H129318   2.500   1.405   0.171  0.9339 -0.7305 -1.1415
 2561TIP3    H229319   2.491   1.472   0.036 -1.2589  0.5639 -0.4109
 2562TIP3   OH229320   6.436   3.284   8.038 -1.1567 -0.6678 -0.3507
 2562TIP3    H129321   6.452   3.191   8.053  1.5898 -0.1572  0.3966
 2562TIP3    H229322   6.444   3.294   7.943  0.1393 -0.9837 -0.2978
 2563TIP3   OH229323   4.130   6.487   7.113 -0.0113  0.4079  0.3499
 2563TIP3    H129324   4.088   6.446   7.037  0.1584 -1.0199  0.9905
 2563TIP3    H229325   4.163   6.571   7.080 -0.6052  0.1511 -0.9532
 2564TIP3   OH229326   0.636   5.822   1.253  0.2690 -0.1020 -0.1228
 2564TIP3    H129327   0.604   5.866   1.332  0.4968  2.5498 -1.4000
 2564TIP3    H229328   0.556   5.800   1.205  0.1280 -1.7485  0.7691
 2565TIP3   OH229329   3.414   4.444   8.811  0.1706  0.0946 -0.1469
 2565TIP3    H129330   3.501   4.481   8.802 -0.1073  0.8358  0.1784
 2565TIP3    H229331   3.430   4.351   8.831  0.9335  0.6257  1.9252
 2566TIP3   OH229332   1.319   2.446   0.197  0.2431 -0.3649 -0.6611
 2566TIP3    H129333   1.367   2.377   0.152 -0.1646 -0.9059 -0.2792
 2566TIP3    H229334   1.239   2.403   0.227 -1.1621  0.8153 -2.4587
 2567TIP3   OH229335   5.032   5.019   1.761 -0.0301  0.3575  0.3097
 2567TIP3    H129336   5.043   5.092   1.699  0.6232 -1.0919 -1.3467
 2567TIP3    H229337   5.067   4.943   1.715 -0.6497 -1.0145  2.0188
 2568TIP3   OH229338   3.595   0.422   9.000 -0.3122 -0.0817 -0.7464
 2568TIP3    H129339   3.563   0.373   9.075 -0.1444  0.1777 -0.5038
 2568TIP3    H229340   3.690   0.414   9.004 -0.2300  0.9328 -0.2325
 2569TIP3   OH229341   2.129   5.734   2.069 -0.2332 -0.0868 -0.5595
 2569TIP3    H129342   2.123   5.710   2.161  0.4344  1.6504 -0.0192
 2569TIP3    H229343   2.190   5.670   2.031 -0.7016 -0.9639  0.1238
 2570TIP3   OH229344   5.211   6.181   0.366 -0.1411  0.2138 -0.2182
 2570TIP3    H129345   5.178   6.185   0.456 -0.8368  1.5324 -0.5086
 2570TIP3    H229346   5.240   6.091   0.355 -0.6329 -0.1271  1.1221
 2571TIP3   OH229347   6.651   1.903   6.853  1.2412  0.1907  0.0743
 2571TIP3    H129348   6.578   1.904   6.915  0.2614 -2.5675 -0.8295
 2571TIP3    H229349   6.617   1.949   6.776  0.6402 -0.5033 -0.0968
 2572TIP3   OH229350   3.219   3.006   6.512 -0.2113 -0.1717 -0.1494
 2572TIP3    H129351   3.304   3.026   6.550  0.9191 -0.4661 -2.3803
 2572TIP3    H229352   3.177   2.949   6.576  1.0296  0.3951  1.2318
 2573TIP3   OH229353   6.322   0.063   7.530  0.5296 -0.2118  0.5695
 2573TIP3    H129354   6.322   0.159   7.534  0.9975 -0.2224  0.9838
 2573TIP3    H229355   6.346   0.042   7.440 -0.0259  0.0607  0.3552
 2574TIP3   OH229356   2.468   4.691   0.192  0.4006  0.0700  0.1192
 2574TIP3    H129357   2.419   4.756   0.243  1.8681  0.1231  1.5265
 2574TIP3    H229358   2.506   4.742   0.120 -1.6101  0.0076 -1.0742
 2575TIP3   OH229359   0.487   4.446   7.260  0.5134 -0.4412 -0.2301
 2575TIP3    H129360   0.479   4.528   7.310  1.3239 -0.9126  0.7251
 2575TIP3    H229361   0.397   4.418   7.246  0.2522 -0.4992  1.3656
 2576TIP3   OH229362   6.069   3.093   8.154  0.0302  0.2698  0.3098
 2576TIP3    H129363   6.107   3.047   8.079  0.0494 -2.5471  1.9035
 2576TIP3    H229364   5.977   3.067   8.153 -0.0590  0.5453  1.0384
 2577TIP3   OH229365   0.336   3.164   0.044  0.5162 -0.5694  0.3798
 2577TIP3    H129366   0.318   3.081   0.000 -1.6137  0.2242 -0.4110
 2577TIP3    H229367   0.262   3.177   0.103 -0.2067  1.5737 -0.8592
 2578TIP3   OH229368   3.940   2.736   0.467 -0.0670  0.1851 -0.0820
 2578TIP3    H129369   3.976   2.799   0.405  1.5288 -0.6675 -0.0728
 2578TIP3    H229370   3.863   2.700   0.423 -1.5177  2.6588  0.2418
 2579TIP3   OH229371   5.223   1.613   0.095 -0.1563 -0.1882  0.0916
 2579TIP3    H129372   5.130   1.632   0.105  0.2314  1.6057  0.6138
 2579TIP3    H229373   5.259   1.620   0.183  0.9077  1.9167 -0.4368
 2580TIP3   OH229374   0.105   3.752   6.958 -1.0744  0.0685  0.9174
 2580TIP3    H129375   0.096   3.758   7.053 -1.7940 -1.3475  0.9583
 2580TIP3    H229376   0.190   3.793   6.940 -0.9637  0.4285  2.1470
 2581TIP3   OH229377   3.798   5.538   0.835 -0.2368  0.4965 -0.2579
 2581TIP3    H129378   3.712   5.513   0.870  0.1406 -0.7836 -0.1934
 2581TIP3    H229379   3.855   5.542   0.912  0.1991 -0.6100 -0.5053
 2582TIP3   OH229380   2.274   3.302   0.155 -0.1161 -0.0211 -0.5740
 2582TIP3    H129381   2.252   3.395   0.168  0.2950  0.0380 -0.2685
 2582TIP3    H229382   2.369   3.302   0.141 -0.3483 -0.2234 -2.3789
 2583TIP3   OH229383   1.960   6.203   0.098  0.2969 -0.0279  0.0171
 2583TIP3    H129384   1.986   6.114   0.124  0.2512 -0.4635 -1.3227
 2583TIP3    H229385   1.878   6.191   0.051 -2.0547  1.2348  3.4389
 2584TIP3   OH229386   5.573   3.138   8.738 -0.8314 -0.1705 -0.2359
 2584TIP3    H129387   5.583   3.062   8.680 -0.2191 -0.9682  0.8586
 2584TIP3    H229388   5.480   3.143   8.756 -1.3487  1.3186 -2.8196
 2585TIP3   OH229389   1.200   5.750   7.942  0.4100 -0.6357 -0.0420
 2585TIP3    H129390   1.141   5.786   8.009 -0.9948 -2.6842 -0.0948
 2585TIP3    H229391   1.248   5.826   7.909 -2.4349  1.2343 -0.2229
 2586TIP3   OH229392   3.257   5.432   1.818  0.5390  0.1025 -0.5123
 2586TIP3    H129393   3.187   5.429   1.753 -0.3590 -0.0215  0.4361
 2586TIP3    H229394   3.238   5.510   1.870 -0.1338 -1.0693  1.0755
 2587TIP3   OH229395   4.946   4.824   0.734  0.1225 -0.1886 -0.3035
 2587TIP3    H129396   4.995   4.875   0.670  1.0274 -0.3699  0.2307
 2587TIP3    H229397   4.934   4.885   0.808  0.6116 -0.5248  0.0586
 2588TIP3   OH229398   3.389   4.742   8.986  0.2941  0.6450 -0.1104
 2588TIP3    H129399   3.458   4.675   8.986 -0.6446 -0.3520 -0.6925
 2588TIP3    H229400   3.401   4.788   9.069  0.7043 -0.5506  0.5246
 2589TIP3   OH229401   5.841   3.060   1.668  0.5490 -0.6455 -0.0213
 2589TIP3    H129402   5.766   3.000   1.666 -0.8916  0.9411  2.0074
 2589TIP3    H229403   5.881   3.044   1.753  0.6639  0.6513  0.1784
 2590TIP3   OH229404   0.641   3.917   8.019 -0.1915 -0.3668  0.0632
 2590TIP3    H129405   0.718   3.965   8.052 -1.4550  0.9290  1.2615
 2590TIP3    H229406   0.668   3.825   8.020  1.7112  0.1307 -0.6072
 2591TIP3   OH229407   6.202   3.047   8.430  0.2001 -0.0169  0.3786
 2591TIP3    H129408   6.227   3.133   8.462 -3.3746  0.5083  2.2358
 2591TIP3    H229409   6.170   3.063   8.341  0.3599  0.4078  0.3944
 2592TIP3   OH229410   2.948   0.991   0.557 -0.5744  0.3107 -0.0776
 2592TIP3    H129411   2.882   1.061   0.559 -1.6951 -0.6853 -0.8448
 2592TIP3    H229412   2.957   0.965   0.649 -1.3957  0.3594  0.0308
 2593TIP3   OH229413   0.364   5.888   7.689  0.4425 -0.2148 -0.0201
 2593TIP3    H129414   0.383   5.827   7.618 -0.0342  1.2290 -1.4453
 2593TIP3    H229415   0.438   5.949   7.688  0.9701 -0.7891  1.4569
 2594TIP3   OH229416   5.437   0.972   7.971 -0.1774 -0.3529  0.6565
 2594TIP3    H129417   5.450   0.906   8.040  2.3434  0.1315  0.7330
 2594TIP3    H229418   5.481   0.935   7.894  0.5012  0.8320  0.4555
 2595TIP3   OH229419   3.354   1.815   1.078  0.1411 -0.5598 -0.2403
 2595TIP3    H129420   3.425   1.778   1.026 -0.4456 -1.8064 -0.2024
 2595TIP3    H229421   3.284   1.750   1.071 -0.6834  0.2440  0.4157
 2596TIP3   OH229422   5.914   5.665   7.771 -0.2211  0.1612 -0.0241
 2596TIP3    H129423   5.846   5.714   7.817 -0.7220 -0.0025 -0.5808
 2596TIP3    H229424   5.940   5.596   7.833 -2.0006 -1.0447 -0.5242
 2597TIP3   OH229425   6.336   0.837   8.915  0.2727  0.3432  0.4319
 2597TIP3    H129426   6.365   0.749   8.936  0.1048  0.2560  0.3026
 2597TIP3    H229427   6.292   0.868   8.994 -1.1738 -0.3280 -0.0816
 2598TIP3   OH229428   6.707   5.294   1.736  0.0471 -0.0206 -0.0066
 2598TIP3    H129429   6.761   5.359   1.782 -0.7622  1.4827 -1.0722
 2598TIP3    H229430   6.617   5.328   1.744 -0.5967 -1.7398  0.5439
 2599TIP3   OH229431   4.541   3.353   0.062  0.3684  0.2604 -0.3456
 2599TIP3    H129432   4.524   3.443   0.092 -2.3260 -0.3349  0.1919
 2599TIP3    H229433   4.593   3.364  -0.017  0.5489  2.2742 -0.0125
 2600TIP3   OH229434   1.321   4.770   7.569 -0.0639  0.0389  0.9979
 2600TIP3    H129435   1.397   4.711   7.567  0.0061  0.1388  0.4541
 2600TIP3    H229436   1.340   4.831   7.640  1.3985  1.3969 -0.4728
 2601TIP3   OH229437   4.905   5.949   8.102  0.6412  0.4482 -0.0581
 2601TIP3    H129438   4.985   5.933   8.152  0.7849 -3.3390 -1.1407
 2601TIP3    H229439   4.923   5.911   8.016 -1.8689  0.5891 -0.7306
 2602TIP3   OH229440   2.392   0.405   8.373  0.5059 -0.1827  0.5537
 2602TIP3    H129441   2.297   0.415   8.377  0.0044 -3.4065 -0.0821
 2602TIP3    H229442   2.420   0.398   8.464  0.0231  0.1660  0.7241
 2603TIP3   OH229443   3.709   3.976   2.141  0.1516 -0.2167 -0.2209
 2603TIP3    H129444   3.661   3.939   2.215  0.6813  0.6745  0.5758
 2603TIP3    H229445   3.784   4.020   2.180  1.6688 -1.5845 -1.4329
 2604TIP3   OH229446   6.678   1.399   0.958  0.6965  0.2741  0.3956
 2604TIP3    H129447   6.687   1.488   0.994  1.8706  0.7636 -0.9891
 2604TIP3    H229448   6.686   1.341   1.034 -1.3429  1.3451  1.5183
 2605TIP3   OH229449   6.483   3.549   1.009 -0.2225 -0.1168 -0.8776
 2605TIP3    H129450   6.561   3.585   1.051  0.3254 -1.4865 -0.6757
 2605TIP3    H229451   6.423   3.623   1.003  1.3304  1.1275 -1.6622
 2606TIP3   OH229452   3.671   4.356   2.817 -0.8462  0.5398  0.3255
 2606TIP3    H129453   3.677   4.448   2.845 -0.0666  0.5459  0.1551
 2606TIP3    H229454   3.753   4.317   2.846 -1.4506 -0.2775  0.9813
 2607TIP3   OH229455   0.257   5.765   1.851  0.2324  0.0689  0.1905
 2607TIP3    H129456   0.348   5.794   1.855  0.4135 -0.4812  0.1630
 2607TIP3    H229457   0.253   5.692   1.912 -0.3801  0.5747  0.7690
 2608TIP3   OH229458   3.213   6.272   7.496 -0.0982 -0.3326  0.2367
 2608TIP3    H129459   3.187   6.307   7.411 -1.2213  2.6487  1.6552
 2608TIP3    H229460   3.133   6.229   7.529  0.6651 -2.5206 -0.6071
 2609TIP3   OH229461   6.327   3.112   8.951  0.2802 -0.0930 -0.3119
 2609TIP3    H129462   6.419   3.108   8.928  0.2345 -2.0633 -0.3760
 2609TIP3    H229463   6.298   3.020   8.949 -1.3475  0.3380  1.0202
 2610TIP3   OH229464   1.229   6.293   7.576  0.1445 -0.3337  0.1825
 2610TIP3    H129465   1.135   6.272   7.575  0.3833 -1.4646  0.4538
 2610TIP3    H229466   1.263   6.254   7.496  0.4811 -0.3654  0.3404
 2611TIP3   OH229467   0.195   4.997   7.523 -0.4304  0.7318 -0.1593
 2611TIP3    H129468   0.184   5.089   7.500  0.5598  1.3953  1.8248
 2611TIP3    H229469   0.136   4.984   7.597 -0.1162 -0.0719 -0.0398
 2612TIP3   OH229470   3.232   0.117   8.473  0.1946 -0.3977 -0.6891
 2612TIP3    H129471   3.264   0.029   8.492 -0.0130 -0.2694  0.2989
 2612TIP3    H229472   3.196   0.149   8.556  0.6356  0.7782 -0.9202
 2613TIP3   OH229473   4.506   4.924   0.484 -0.1225  0.3504 -0.7887
 2613TIP3    H129474   4.452   4.942   0.561  0.8092  0.5088 -0.1618
 2613TIP3    H229475   4.444   4.891   0.419 -1.0059  0.7340 -0.1579
 2614TIP3   OH229476   5.624   0.136   7.240  0.2731  0.3469  0.0949
 2614TIP3    H129477   5.599   0.057   7.289 -0.3065 -1.0050 -2.2343
 2614TIP3    H229478   5.591   0.208   7.293 -3.2209 -1.1377  0.1768
 2615TIP3   OH229479   3.159   6.567   2.405 -0.3869  0.2612 -0.9842
 2615TIP3    H129480   3.096   6.551   2.334  0.4742 -0.8736 -1.5394
 2615TIP3    H229481   3.120   6.526   2.482 -1.3185  1.4817 -0.7857
 2616TIP3   OH229482   5.782   3.072   0.647  0.3112  0.6925  0.6291
 2616TIP3    H129483   5.689   3.078   0.668  0.1489 -1.0511  0.5936
 2616TIP3    H229484   5.794   3.129   0.572 -1.0894 -0.2675 -0.3768
 2617TIP3   OH229485   1.570   5.487   1.097 -0.5853  0.4299 -0.0571
 2617TIP3    H129486   1.638   5.554   1.090  0.1547 -0.3243 -0.2089
 2617TIP3    H229487   1.514   5.517   1.168  0.1202  0.8737  0.3210
 2618TIP3   OH229488   2.870   1.986   6.738  0.5669  0.4171  0.8061
 2618TIP3    H129489   2.792   2.037   6.715  0.7246  1.0455  1.6462
 2618TIP3    H229490   2.885   2.005   6.830  0.1524 -1.7778  1.3804
 2619TIP3   OH229491   4.339   5.684   0.395 -0.5323 -0.0491 -0.2953
 2619TIP3    H129492   4.408   5.665   0.332 -2.2689 -0.7844 -2.0932
 2619TIP3    H229493   4.318   5.599   0.434 -1.0936 -0.0170 -0.5144
 2620TIP3   OH229494   0.220   1.596   8.086 -0.3691 -0.1918  0.5373
 2620TIP3    H129495   0.310   1.629   8.094  0.0277 -0.7038 -1.2900
 2620TIP3    H229496   0.165   1.674   8.088  0.2949  0.3144 -0.3108
 2621TIP3   OH229497   5.647   2.160   0.072  0.0897  0.1285 -0.4694
 2621TIP3    H129498   5.714   2.131   0.134  0.0020  0.8958 -0.0081
 2621TIP3    H229499   5.676   2.125  -0.013  0.1442 -1.0358  0.0107
 2622TIP3   OH229500   4.445   6.544   6.475  0.0371 -0.1565 -0.2239
 2622TIP3    H129501   4.360   6.551   6.519  0.9348  1.3486  1.3985
 2622TIP3    H229502   4.497   6.489   6.534  0.3426 -0.6769 -0.9747
 2623TIP3   OH229503   6.155   2.543   1.502 -0.0554 -0.3421  0.1861
 2623TIP3    H129504   6.166   2.474   1.437 -0.5803 -0.3515  0.1076
 2623TIP3    H229505   6.110   2.501   1.575  0.7607 -0.3955  0.6699
 2624TIP3   OH229506   0.451   0.710   1.659 -0.4389 -0.0821 -0.3875
 2624TIP3    H129507   0.407   0.694   1.576 -1.3175 -1.1279  0.2544
 2624TIP3    H229508   0.508   0.634   1.671  1.1656  0.9947 -0.9458
 2625TIP3   OH229509   4.898   6.565   1.636  0.4387  0.3375 -0.4594
 2625TIP3    H129510   4.836   6.546   1.706 -0.2240  0.1342 -1.0811
 2625TIP3    H229511   4.897   6.661   1.628 -0.7555  0.2828 -1.2799
 2626TIP3   OH229512   2.391   4.436   2.193 -0.7776  0.1703 -0.0343
 2626TIP3    H129513   2.407   4.529   2.208 -1.3007  0.1738  0.5956
 2626TIP3    H229514   2.405   4.423   2.099  0.2217  0.6867  0.0357
 2627TIP3   OH229515   2.194   2.362   0.387  0.2309  0.4795  0.6159
 2627TIP3    H129516   2.187   2.302   0.462 -2.6893  0.9717  0.8708
 2627TIP3    H229517   2.215   2.306   0.313 -2.2654 -0.9769  0.8738
 2628TIP3   OH229518   4.390   5.997   7.618 -0.0938 -0.0389 -0.0559
 2628TIP3    H129519   4.376   6.022   7.527 -0.0711  2.3281  0.5043
 2628TIP3    H229520   4.454   6.061   7.651 -0.6379 -0.3683  1.7829
 2629TIP3   OH229521   5.707   0.171   7.933  0.4186 -0.5024  0.6139
 2629TIP3    H129522   5.794   0.138   7.955  0.3676 -1.7072 -0.8301
 2629TIP3    H229523   5.723   0.243   7.872  0.4007 -1.5660 -0.6814
 2630TIP3   OH229524   3.633   1.015   0.812 -0.5269 -0.1151 -0.2015
 2630TIP3    H129525   3.581   0.974   0.742 -0.8153 -1.8137  0.9370
 2630TIP3    H229526   3.694   1.073   0.766 -0.3315 -1.5868 -1.9123
 2631TIP3   OH229527   3.185   1.529   8.086 -0.2223 -0.1399  0.0140
 2631TIP3    H129528   3.220   1.568   8.005 -1.9549  0.0824 -0.6766
 2631TIP3    H229529   3.094   1.507   8.064 -0.3434 -1.2605  1.5264
 2632TIP3   OH229530   4.157   6.622   8.756 -0.4212 -0.8110  0.1831
 2632TIP3    H129531   4.214   6.630   8.680 -1.9307  0.1051 -0.9110
 2632TIP3    H229532   4.127   6.531   8.754  0.7826 -1.2450  0.6551
 2633TIP3   OH229533   1.096   4.864   6.950  0.1759  0.1955 -0.1509
 2633TIP3    H129534   1.036   4.806   6.902  0.6233 -1.9501  1.7003
 2633TIP3    H229535   1.176   4.812   6.958  0.3435  0.7445  2.2430
 2634TIP3   OH229536   3.382   3.894   8.436 -0.6468  0.3562  0.7165
 2634TIP3    H129537   3.441   3.821   8.457 -0.4839  0.1965 -0.2412
 2634TIP3    H229538   3.343   3.919   8.520  1.1221  0.7620  1.4582
 2635TIP3   OH229539   6.527   0.974   1.006  0.5706 -0.6875  0.4858
 2635TIP3    H129540   6.525   1.003   1.097  1.6134  0.3270  0.2036
 2635TIP3    H229541   6.615   0.995   0.976 -0.0103 -0.2627 -0.9928
 2636TIP3   OH229542   2.755   3.005   8.010 -0.1915 -0.3194  0.4165
 2636TIP3    H129543   2.825   3.016   7.945  0.3612  1.3956  1.2322
 2636TIP3    H229544   2.746   2.910   8.019  2.0240 -0.6140  0.2604
 2637TIP3   OH229545   3.223   3.774   1.003 -0.1583 -0.2361 -0.0595
 2637TIP3    H129546   3.172   3.744   1.078 -1.1523  3.1064  0.7811
 2637TIP3    H229547   3.166   3.759   0.928 -0.2109 -1.2648  0.1724
 2638TIP3   OH229548   3.986   2.498   1.315 -0.3885  0.2844 -0.4505
 2638TIP3    H129549   3.990   2.536   1.402  0.6873 -0.5141 -0.1270
 2638TIP3    H229550   3.946   2.412   1.328  3.0691 -1.4394 -0.0691
 2639TIP3   OH229551   0.242   2.007   0.755  0.7708 -0.3322  0.2718
 2639TIP3    H129552   0.260   1.933   0.813  1.3555  0.2456  0.8461
 2639TIP3    H229553   0.196   2.071   0.809  1.6418  0.3650  0.2202
 2640TIP3   OH229554   1.838   2.944   8.699 -0.2415  0.0791  0.2900
 2640TIP3    H129555   1.765   2.921   8.756  0.5352 -0.3872  1.1159
 2640TIP3    H229556   1.796   2.972   8.617 -1.4723  2.2156  1.5424
 2641TIP3   OH229557   6.048   4.554   8.107 -0.0057 -0.5844  0.2371
 2641TIP3    H129558   6.140   4.531   8.098  0.2713  0.4109  0.4654
 2641TIP3    H229559   6.041   4.642   8.071 -0.1924  0.7186  3.1199
 2642TIP3   OH229560   5.888   1.338   1.272 -0.3520 -0.2517  0.4782
 2642TIP3    H129561   5.905   1.430   1.252 -0.6805 -0.0116  1.2694
 2642TIP3    H229562   5.799   1.323   1.240 -0.3583 -0.2550  0.4969
 2643TIP3   OH229563   0.884   2.047   2.540  0.3715 -0.1717  0.1243
 2643TIP3    H129564   0.926   2.090   2.465  1.8265  0.3466  1.1896
 2643TIP3    H229565   0.957   2.020   2.596 -0.6891 -0.3300  1.4735
 2644TIP3   OH229566   3.419   3.685   1.383  0.1778 -0.1754 -0.1675
 2644TIP3    H129567   3.467   3.651   1.308 -1.5081 -0.3266 -1.2463
 2644TIP3    H229568   3.383   3.768   1.353  0.3879  0.3067  0.8629
 2645TIP3   OH229569   4.199   2.492   0.285 -0.0555  0.6396  0.0745
 2645TIP3    H129570   4.173   2.540   0.363 -1.7872  1.1262 -0.7468
 2645TIP3    H229571   4.275   2.539   0.251  0.6802  0.4464  1.4318
 2646TIP3   OH229572   1.160   6.469   1.567  0.7411  0.6219  0.4388
 2646TIP3    H129573   1.116   6.407   1.508  0.6588  1.1245 -0.0317
 2646TIP3    H229574   1.220   6.517   1.510  3.4442 -1.3958  1.3669
 2647TIP3   OH229575   0.184   0.746   1.201  0.2676 -0.0133  0.0414
 2647TIP3    H129576   0.162   0.831   1.240 -1.2095 -1.0444  1.6002
 2647TIP3    H229577   0.189   0.764   1.107 -1.3049  1.5805  0.1979
 2648TIP3   OH229578   5.748   6.053   8.905 -0.1283 -0.0666  0.1078
 2648TIP3    H129579   5.786   5.991   8.844  0.4980  0.9259 -0.5422
 2648TIP3    H229580   5.788   6.137   8.882 -0.0469  0.3765  1.7319
 2649TIP3   OH229581   5.721   3.516   1.109 -0.7126  0.2364 -0.4318
 2649TIP3    H129582   5.738   3.441   1.052  0.1090  0.2420 -0.2062
 2649TIP3    H229583   5.777   3.585   1.074 -1.6661  0.8408 -0.8110
 2650TIP3   OH229584   2.853   3.238   8.379 -0.3117  0.6229  0.3492
 2650TIP3    H129585   2.857   3.332   8.393  1.7623  0.5103  0.9280
 2650TIP3    H229586   2.877   3.226   8.287  0.2734  0.6463  0.4908
 2651TIP3   OH229587   3.472   5.452   1.979  0.0184  0.2876 -0.5052
 2651TIP3    H129588   3.444   5.427   2.067  1.5360 -0.9880 -0.3414
 2651TIP3    H229589   3.396   5.434   1.923 -0.2487 -0.9871  0.2335
 2652TIP3   OH229590   2.545   5.703   6.703 -0.3537  0.1121  0.1663
 2652TIP3    H129591   2.552   5.661   6.617 -0.5064  2.5100 -1.1141
 2652TIP3    H229592   2.451   5.700   6.723 -0.4332  0.3038 -0.1705
 2653TIP3   OH229593   3.361   4.466   7.208  0.0702  0.1417  0.0531
 2653TIP3    H129594   3.425   4.452   7.138  2.9710  0.0981  2.5483
 2653TIP3    H229595   3.295   4.523   7.168  1.8104  0.4845 -2.5817
 2654TIP3   OH229596   4.355   1.056   1.264  0.1522  0.2007 -0.3848
 2654TIP3    H129597   4.360   1.143   1.305  1.5151 -0.9811  2.2630
 2654TIP3    H229598   4.301   1.005   1.325  0.2121 -1.0556 -1.3572
 2655TIP3   OH229599   5.315   1.227   1.960  0.1413  0.0448  0.5166
 2655TIP3    H129600   5.372   1.286   2.009  0.9825 -0.3157 -0.0214
 2655TIP3    H229601   5.237   1.280   1.941  0.0491  0.3748  1.7156
 2656TIP3   OH229602   4.117   2.855   6.337  0.0449  0.2361 -0.2458
 2656TIP3    H129603   4.185   2.913   6.371  1.3704 -0.2487 -1.8863
 2656TIP3    H229604   4.055   2.913   6.293 -0.1858  0.6218  0.5824
 2657TIP3   OH229605   1.587   0.882   1.753  0.2641  0.0119 -0.3432
 2657TIP3    H129606   1.653   0.952   1.745  1.3200 -0.7340  1.2328
 2657TIP3    H229607   1.514   0.924   1.797 -0.0140  0.6344 -1.3396
 2658TIP3   OH229608   4.235   1.202   7.986 -0.7831  0.6426 -0.0414
 2658TIP3    H129609   4.236   1.117   7.941 -0.2587 -0.9739  2.7507
 2658TIP3    H229610   4.308   1.251   7.948 -0.1316 -0.7560 -0.6669
 2659TIP3   OH229611   0.337   4.778   7.702 -0.0051  0.1952  1.2125
 2659TIP3    H129612   0.266   4.770   7.765 -1.7625 -2.9678 -0.9413
 2659TIP3    H229613   0.298   4.821   7.626  0.9336  0.2123  0.7183
 2660TIP3   OH229614   5.822   1.160   0.063  0.1424  0.0811  0.2765
 2660TIP3    H129615   5.890   1.104   0.028 -0.0530 -0.8552  1.3473
 2660TIP3    H229616   5.866   1.212   0.130  0.0140  0.1870  0.2793
 2661TIP3   OH229617   5.223   0.899   7.644 -0.0993  0.0230 -0.5714
 2661TIP3    H129618   5.211   0.977   7.699  0.8280 -0.0940 -0.2016
 2661TIP3    H229619   5.144   0.897   7.590  0.1269  1.5715 -1.0168
 2662TIP3   OH229620   1.300   0.519   8.337  0.1793 -0.0473 -0.0305
 2662TIP3    H129621   1.349   0.574   8.276  0.2022 -1.9059 -1.7817
 2662TIP3    H229622   1.367   0.479   8.392  0.1931  1.2806  0.9588
 2663TIP3   OH229623   6.419   5.083   0.215 -0.2320 -0.4095  0.1088
 2663TIP3    H129624   6.388   5.007   0.166 -1.6088 -0.3187  0.8110
 2663TIP3    H229625   6.341   5.119   0.257  0.5431  0.8739  0.5108
 2664TIP3   OH229626   3.383   2.854   7.500  0.4365 -0.0140 -0.1108
 2664TIP3    H129627   3.322   2.823   7.433  1.6425  0.6169 -1.5554
 2664TIP3    H229628   3.415   2.775   7.542 -0.2105 -0.4388 -0.4117
 2665TIP3   OH229629   2.913   0.355   0.922  0.6110 -0.0864 -0.4518
 2665TIP3    H129630   2.973   0.327   0.853  2.3228  0.2185  0.8447
 2665TIP3    H229631   2.963   0.420   0.972 -0.6041 -0.2241  0.9968
 2666TIP3   OH229632   5.493   6.441   7.952 -0.3384 -0.4075 -0.2319
 2666TIP3    H129633   5.483   6.358   7.998  0.4935  0.0062  0.7400
 2666TIP3    H229634   5.407   6.482   7.958  0.1501  0.4125  2.5607
 2667TIP3   OH229635   1.070   3.597   1.481 -0.2251  0.1858 -0.0373
 2667TIP3    H129636   1.083   3.643   1.399  1.1499  0.0026  0.0525
 2667TIP3    H229637   1.149   3.617   1.533 -1.3432  0.8413  1.5025
 2668TIP3   OH229638   6.429   0.460   2.404 -0.8618  0.2811  0.0597
 2668TIP3    H129639   6.360   0.449   2.339  1.1978 -1.6151 -2.0093
 2668TIP3    H229640   6.486   0.528   2.368  0.0026 -0.3821  0.1457
 2669TIP3   OH229641   6.646   0.236   1.044 -0.0536  0.2862 -0.4081
 2669TIP3    H129642   6.702   0.304   1.083 -1.2820  0.2277  1.5883
 2669TIP3    H229643   6.569   0.284   1.014  0.6850  0.2609 -2.4762
 2670TIP3   OH229644   3.680   3.840   1.895 -0.1917 -0.1910  0.0005
 2670TIP3    H129645   3.683   3.904   1.967 -1.6192  0.0541 -0.1400
 2670TIP3    H229646   3.755   3.863   1.840 -0.4287  1.1011  0.1785
 2671TIP3   OH229647   1.507   4.930   0.467 -0.2314 -0.5937 -0.3898
 2671TIP3    H129648   1.445   4.898   0.533  0.0325 -0.8724 -0.2761
 2671TIP3    H229649   1.454   4.942   0.388 -0.9695  1.5152  0.3428
 2672TIP3   OH229650   0.142   5.796   7.916  0.3660 -0.1805  0.0937
 2672TIP3    H129651   0.149   5.802   8.011  2.1984 -0.1548 -0.0209
 2672TIP3    H229652   0.224   5.832   7.883  0.2596 -1.2682 -1.4628
 2673TIP3   OH229653   0.984   1.581   0.803  0.3739 -0.6118 -0.0021
 2673TIP3    H129654   0.924   1.565   0.730  0.2672 -1.5147  0.2685
 2673TIP3    H229655   1.024   1.666   0.783 -0.3164 -0.4272 -0.6488
 2674TIP3   OH229656   4.414   2.186   8.413 -0.2494  0.7731 -0.2307
 2674TIP3    H129657   4.361   2.116   8.376 -1.1856  0.9286  0.7774
 2674TIP3    H229658   4.397   2.262   8.358 -0.8722  0.7526 -0.0660
 2675TIP3   OH229659   3.324   3.158   0.862  0.0086  0.6642 -0.8674
 2675TIP3    H129660   3.370   3.212   0.798  1.2739  1.6199  0.7647
 2675TIP3    H229661   3.391   3.134   0.926 -1.0066 -1.0676 -0.3935
 2676TIP3   OH229662   2.545   3.483   6.856 -0.6661 -0.1788  0.5181
 2676TIP3    H129663   2.534   3.396   6.895  1.8852  0.1584  2.2111
 2676TIP3    H229664   2.491   3.541   6.910  0.7314 -0.1533  1.9655
 2677TIP3   OH229665   5.109   0.722   1.194 -0.1896 -0.3903 -0.0268
 2677TIP3    H129666   5.095   0.668   1.272 -1.5779  0.7004  0.5233
 2677TIP3    H229667   5.075   0.669   1.122 -0.7621 -0.6128  0.3921
 2678TIP3   OH229668   0.741   5.709   8.750 -0.4113 -0.2478  0.1290
 2678TIP3    H129669   0.791   5.791   8.751 -1.4582  0.4744 -1.6095
 2678TIP3    H229670   0.689   5.712   8.830 -0.9822  1.1801 -0.2559
 2679TIP3   OH229671   6.146   4.716   0.982 -0.2043  1.1299  0.4364
 2679TIP3    H129672   6.056   4.746   0.967 -1.3673 -1.8945  0.6408
 2679TIP3    H229673   6.140   4.620   0.979  3.3306  0.8108 -1.2053
 2680TIP3   OH229674   3.201   0.976   7.371 -0.6967  0.0285 -0.2895
 2680TIP3    H129675   3.247   1.031   7.435  0.6786 -0.5858 -0.7056
 2680TIP3    H229676   3.271   0.935   7.321 -1.6837 -1.8508 -0.2069
 2681TIP3   OH229677   0.533   3.085   0.784 -0.1337  0.5494  0.5412
 2681TIP3    H129678   0.463   3.150   0.779 -0.2006  0.3978 -0.7035
 2681TIP3    H229679   0.502   3.012   0.731  1.0296  0.5526 -0.1715
 2682TIP3   OH229680   2.704   2.044   8.199 -0.7931 -0.1848  0.1527
 2682TIP3    H129681   2.799   2.043   8.212 -0.5925 -1.2673 -1.2000
 2682TIP3    H229682   2.669   1.984   8.265  0.0035 -3.9683 -2.5962
 2683TIP3   OH229683   4.780   4.267   8.883  0.1605 -0.0347  0.0474
 2683TIP3    H129684   4.752   4.289   8.795 -0.1980 -0.5867  0.0147
 2683TIP3    H229685   4.795   4.351   8.926 -0.0655  0.2416 -0.4096
 2684TIP3   OH229686   4.523   0.855   1.908  0.0464 -0.1229  0.1982
 2684TIP3    H129687   4.463   0.794   1.864 -2.9550  2.3110  0.5708
 2684TIP3    H229688   4.513   0.836   2.001  0.6519 -0.3585  0.2192
 2685TIP3   OH229689   4.055   4.844   2.625  0.0958  0.3318  0.3788
 2685TIP3    H129690   4.116   4.908   2.587  2.4225 -2.8967 -1.8663
 2685TIP3    H229691   4.081   4.838   2.717  1.6342  0.7135 -0.0038
 2686TIP3   OH229692   2.714   2.699   7.994 -0.0333  0.7276  0.2220
 2686TIP3    H129693   2.725   2.638   7.921  1.5143 -2.8884  3.1473
 2686TIP3    H229694   2.801   2.706   8.033 -1.3459 -0.5360  3.7748
 2687TIP3   OH229695   4.717   5.045   1.523 -0.2193  0.3315 -0.7293
 2687TIP3    H129696   4.785   4.980   1.537  0.2241  0.6974 -1.1710
 2687TIP3    H229697   4.749   5.099   1.451 -1.2129  0.1745 -1.3018
 2688TIP3   OH229698   6.614   5.327   6.661 -0.2483 -0.2605  0.4645
 2688TIP3    H129699   6.573   5.247   6.626 -1.5741 -0.1351  1.6362
 2688TIP3    H229700   6.542   5.374   6.702  0.6712  1.1821  0.4721
 2689TIP3   OH229701   3.342   0.667   7.575 -0.4436  0.1518 -0.9496
 2689TIP3    H129702   3.350   0.743   7.632 -1.6881  0.4075 -1.0968
 2689TIP3    H229703   3.294   0.603   7.627  1.4192 -0.9407 -0.4675
 2690TIP3   OH229704   1.030   6.534   0.424 -1.0852  0.1514 -0.1492
 2690TIP3    H129705   0.961   6.600   0.438 -0.4040  0.7257  0.6030
 2690TIP3    H229706   1.056   6.546   0.333 -1.4385  0.4664 -0.2122
 2691TIP3   OH229707   3.846   5.163   2.473 -0.0514 -0.1690  0.5329
 2691TIP3    H129708   3.931   5.205   2.488 -0.4005  0.6524  0.2749
 2691TIP3    H229709   3.783   5.223   2.511 -0.6828  0.2815 -1.1496
 2692TIP3   OH229710   1.540   2.999   1.663  0.7863  0.4223  0.5918
 2692TIP3    H129711   1.601   2.983   1.736  2.2315  0.2935 -0.6064
 2692TIP3    H229712   1.594   3.039   1.595 -0.7733  1.5879 -0.0206
 2693TIP3   OH229713   3.410   6.590   1.961  0.3472  0.2917  0.3725
 2693TIP3    H129714   3.440   6.631   2.042 -0.9199  0.0355  0.9980
 2693TIP3    H229715   3.335   6.536   1.988  0.1737 -0.1330 -0.9014
 2694TIP3   OH229716   2.485   2.176   6.923 -0.2114  0.0034 -0.1174
 2694TIP3    H129717   2.466   2.269   6.906  1.4048  0.1035 -1.6238
 2694TIP3    H229718   2.399   2.135   6.929 -0.9575  1.2726 -1.4809
 2695TIP3   OH229719   4.694   1.865   7.992  0.2049  0.1576 -0.0953
 2695TIP3    H129720   4.612   1.895   7.953 -0.0467  1.7263  1.5056
 2695TIP3    H229721   4.757   1.865   7.920 -0.7319  0.8731 -0.9328
 2696TIP3   OH229722   5.498   1.657   7.993 -0.4722  0.3108 -0.5488
 2696TIP3    H129723   5.520   1.649   8.085 -0.6796 -0.4895 -0.5578
 2696TIP3    H229724   5.496   1.751   7.976  1.7345  0.4391 -0.2786
 2697TIP3   OH229725   4.742   0.829   7.600 -0.2322 -0.0324  0.3890
 2697TIP3    H129726   4.713   0.823   7.691 -1.0078  0.1899  0.1663
 2697TIP3    H229727   4.820   0.884   7.603 -2.5295  3.5462  0.4959
 2698TIP3   OH229728   3.564   4.283   7.569 -0.6279 -0.0680  0.3258
 2698TIP3    H129729   3.469   4.269   7.561 -0.2425 -2.2433 -1.8278
 2698TIP3    H229730   3.575   4.377   7.561 -2.6359  0.2931  1.1085
 2699TIP3   OH229731   2.887   1.212   8.837 -0.2017  0.2091  0.9198
 2699TIP3    H129732   2.841   1.198   8.920 -2.9356 -2.1889 -0.8083
 2699TIP3    H229733   2.884   1.127   8.794  2.0410  1.1322 -1.2537
 2700TIP3   OH229734   4.537   3.727   6.682  0.1554  0.2828 -0.0911
 2700TIP3    H129735   4.598   3.789   6.721  1.8999 -0.3308 -1.6741
 2700TIP3    H229736   4.526   3.659   6.748 -1.1197  1.7807  1.3287
 2701TIP3   OH229737   2.117   0.643   7.826 -0.3480  0.0234  0.2466
 2701TIP3    H129738   2.119   0.705   7.754  0.9742  0.9153  1.0272
 2701TIP3    H229739   2.023   0.627   7.840 -0.6558  0.4828 -1.0832
 2702TIP3   OH229740   1.301   3.775   7.412  0.1647  0.1166  0.3830
 2702TIP3    H129741   1.265   3.839   7.351  2.0473  0.0520 -0.8918
 2702TIP3    H229742   1.334   3.827   7.485  1.3208  0.6067 -0.4580
 2703TIP3   OH229743   1.244   1.505   0.071 -0.2231 -0.3987  0.1676
 2703TIP3    H129744   1.298   1.523  -0.006  0.4165 -2.5515  0.0373
 2703TIP3    H229745   1.307   1.492   0.142 -0.8247  2.1977  1.2758
 2704TIP3   OH229746   6.358   1.559   8.823 -0.2437  0.4089  0.1472
 2704TIP3    H129747   6.276   1.590   8.861 -0.6440 -0.9155  0.4257
 2704TIP3    H229748   6.425   1.615   8.862 -0.9779  1.3266  0.1281
 2705TIP3   OH229749   5.411   3.323   7.838  0.4643 -0.2599  0.7324
 2705TIP3    H129750   5.505   3.317   7.825  0.3921 -0.5374  0.3126
 2705TIP3    H229751   5.378   3.236   7.816 -0.0023  0.1247 -0.1473
 2706TIP3   OH229752   2.864   6.523   7.501  0.1409  0.5651  0.5155
 2706TIP3    H129753   2.822   6.502   7.585 -0.1515  0.3680  0.3190
 2706TIP3    H229754   2.932   6.587   7.524 -0.5713  1.2448  0.7786
 2707TIP3   OH229755   2.833   0.482   2.191  0.5141  0.0686  0.1869
 2707TIP3    H129756   2.864   0.543   2.124  0.0867 -0.2076 -0.2708
 2707TIP3    H229757   2.884   0.504   2.269  0.0450  1.3124  0.1622
 2708TIP3   OH229758   4.473   6.536   7.091  0.3838 -0.1052 -0.0056
 2708TIP3    H129759   4.405   6.603   7.081  0.8161  0.4486  0.7040
 2708TIP3    H229760   4.485   6.528   7.186 -1.1305 -2.6959  0.0469
 2709TIP3   OH229761   1.569   2.262   0.997  0.4467  0.0830  0.2066
 2709TIP3    H129762   1.636   2.194   1.004  0.9301  0.3272 -1.7127
 2709TIP3    H229763   1.588   2.307   0.915 -1.0523  1.2785  0.4721
 2710TIP3   OH229764   4.043   0.252   8.510  0.2456  0.4313 -0.2487
 2710TIP3    H129765   4.112   0.243   8.575 -0.5730  0.1301  0.6030
 2710TIP3    H229766   4.026   0.163   8.479  1.0111  0.6306 -1.3080
 2711TIP3   OH229767   1.609   4.717   2.430  0.0637 -0.4646  0.0104
 2711TIP3    H129768   1.571   4.630   2.440 -1.4903 -0.0799 -2.1149
 2711TIP3    H229769   1.586   4.762   2.511  1.6024 -2.1941  1.5314
 2712TIP3   OH229770   4.376   1.202   2.202  0.1953  0.5501  0.0692
 2712TIP3    H129771   4.321   1.267   2.158  0.3018 -0.3336 -1.4716
 2712TIP3    H229772   4.448   1.187   2.141 -0.6221 -2.1305 -0.4035
 2713TIP3   OH229773   0.891   2.188   8.620  0.1293 -0.1878 -0.8437
 2713TIP3    H129774   0.825   2.251   8.592 -0.9242 -1.0645 -0.3890
 2713TIP3    H229775   0.975   2.233   8.606 -0.5994  1.4643 -0.1627
 2714TIP3   OH229776   0.471   6.724   8.948  0.0142  0.2859 -0.3756
 2714TIP3    H129777   0.494   6.806   8.993 -2.0891 -0.1276  1.6312
 2714TIP3    H229778   0.454   6.751   8.858  1.3494  1.6785 -0.2680
 2715TIP3   OH229779   2.197   0.784   1.387 -0.0906  0.5728 -0.0991
 2715TIP3    H129780   2.146   0.714   1.426  2.5929 -1.0983  0.6411
 2715TIP3    H229781   2.183   0.774   1.293  0.0184 -0.7866  0.0100
 2716TIP3   OH229782   5.028   4.811   2.225  0.2036  0.5195 -0.8588
 2716TIP3    H129783   4.940   4.845   2.209 -0.2905 -0.5889 -0.5619
 2716TIP3    H229784   5.018   4.749   2.297  1.4290  1.2176 -0.0358
 2717TIP3   OH229785   5.689   0.283   1.747  0.1562  0.0195 -0.2954
 2717TIP3    H129786   5.636   0.218   1.702 -0.2137 -0.0167  0.1784
 2717TIP3    H229787   5.666   0.366   1.705  0.6165 -0.1475 -0.8867
 2718TIP3   OH229788   6.014   6.631   0.746  0.5515  0.1598 -0.2672
 2718TIP3    H129789   6.094   6.674   0.776  0.7538  0.2277 -0.8942
 2718TIP3    H229790   6.035   6.600   0.657  0.0960 -0.3884 -0.1912
 2719TIP3   OH229791   4.844   4.319   7.738 -0.1172 -0.0019 -0.2542
 2719TIP3    H129792   4.788   4.394   7.754 -1.3145 -0.9506  0.1537
 2719TIP3    H229793   4.788   4.243   7.754  1.4924 -1.0047  1.0739
 2720TIP3   OH229794   5.304   5.159   2.830 -0.0628 -0.1606  0.2313
 2720TIP3    H129795   5.260   5.223   2.886 -1.4616 -0.1971 -0.7742
 2720TIP3    H229796   5.397   5.177   2.842 -0.3821  1.0193  1.1750
 2721TIP3   OH229797   3.608   1.465   1.743 -0.5875  0.3251  0.4897
 2721TIP3    H129798   3.678   1.418   1.699 -1.5363 -1.1156  0.4529
 2721TIP3    H229799   3.572   1.523   1.676 -1.3619 -1.1095 -0.3785
 2722TIP3   OH229800   4.482   3.965   7.471 -0.1174 -0.0296  0.0560
 2722TIP3    H129801   4.396   3.942   7.436 -0.3116  0.0566  0.4627
 2722TIP3    H229802   4.508   4.044   7.423  0.4901 -1.0031 -1.2462
 2723TIP3   OH229803   1.922   2.747   0.343 -0.6276  0.2145  0.2963
 2723TIP3    H129804   2.010   2.711   0.335 -1.1096 -2.6577  4.5903
 2723TIP3    H229805   1.863   2.672   0.332 -2.4289  1.6106 -0.1554
 2724TIP3   OH229806   1.863   2.178   1.290 -0.7387  0.1018 -0.0151
 2724TIP3    H129807   1.851   2.119   1.365 -1.6202 -1.7335 -1.5221
 2724TIP3    H229808   1.774   2.200   1.262 -0.4773 -0.7730 -1.6414
 2725TIP3   OH229809   3.145   5.520   7.880 -0.6729 -0.7923 -0.2027
 2725TIP3    H129810   3.240   5.522   7.893 -0.8648  0.5313  1.3587
 2725TIP3    H229811   3.127   5.431   7.850  1.1473 -0.8049 -1.3834
 2726TIP3   OH229812   2.161   2.586   8.242 -0.3156 -0.1185  0.0960
 2726TIP3    H129813   2.167   2.669   8.195  0.0325 -0.1901  0.0142
 2726TIP3    H229814   2.170   2.519   8.174 -0.0498 -0.2214  0.2329
 2727TIP3   OH229815   2.700   2.684   8.697 -0.0901 -0.4487  0.0730
 2727TIP3    H129816   2.754   2.745   8.648  0.2862 -0.6085  0.2873
 2727TIP3    H229817   2.724   2.598   8.664 -0.6674 -0.4859 -0.2765
 2728TIP3   OH229818   1.880   6.642   0.113 -0.2117  0.4524  0.8991
 2728TIP3    H129819   1.785   6.636   0.104 -0.3427  0.7146  1.9362
 2728TIP3    H229820   1.894   6.719   0.169  0.6340  0.6361  0.4637
 2729TIP3   OH229821   0.679   5.532   1.230  0.5230 -0.1845 -0.2607
 2729TIP3    H129822   0.659   5.611   1.279  2.9661  1.0654 -1.1375
 2729TIP3    H229823   0.695   5.465   1.296 -0.4093  0.3268  0.5050
 2730TIP3   OH229824   1.046   4.541   8.093  0.1916  0.1777  0.1129
 2730TIP3    H129825   0.982   4.567   8.159 -1.3399 -0.3631 -1.0947
 2730TIP3    H229826   1.048   4.615   8.031  0.4721  0.0347 -0.0534
 2731TIP3   OH229827   3.365   6.734   8.692 -0.2774 -0.4018  0.0193
 2731TIP3    H129828   3.450   6.714   8.732 -1.0133 -1.4463  1.1340
 2731TIP3    H229829   3.306   6.749   8.767 -1.1992 -0.2234 -0.7215
 2732TIP3   OH229830   3.248   2.564   1.246  0.5648  0.5310 -0.0451
 2732TIP3    H129831   3.286   2.521   1.323  0.8605 -0.4334 -0.7054
 2732TIP3    H229832   3.315   2.626   1.217  1.2247 -0.4026 -0.5769
 2733TIP3   OH229833   4.911   4.431   2.230  0.6198  0.0078  0.3030
 2733TIP3    H129834   4.857   4.355   2.210  1.6686 -0.6226 -0.2156
 2733TIP3    H229835   4.970   4.439   2.155  1.7006  0.2652  1.1605
 2734TIP3   OH229836   1.786   4.354   0.281 -0.1520 -0.0973  0.0943
 2734TIP3    H129837   1.797   4.278   0.337  0.2930  0.0236  0.1808
 2734TIP3    H229838   1.809   4.323   0.193  0.4009  0.0211  0.1888
 2735TIP3   OH229839   6.300   1.321   1.443 -0.0704  0.2165 -0.3525
 2735TIP3    H129840   6.263   1.373   1.514 -1.5707 -1.7017  0.3793
 2735TIP3    H229841   6.255   1.352   1.365 -2.3389 -1.0512  0.3236
 2736TIP3   OH229842   4.261   4.228   7.230  0.5392 -0.1532 -0.5540
 2736TIP3    H129843   4.224   4.147   7.264  0.9608 -0.2847 -0.4056
 2736TIP3    H229844   4.347   4.235   7.271  0.2545  0.6955 -0.0799
 2737TIP3   OH229845   1.187   3.844   0.476  0.7125 -0.1417  0.1291
 2737TIP3    H129846   1.228   3.763   0.505  0.9462 -0.1499 -0.2236
 2737TIP3    H229847   1.150   3.882   0.556 -1.0111 -1.4861  0.0067
 2738TIP3   OH229848   4.958   0.781   0.751  0.4027 -0.1777 -0.0705
 2738TIP3    H129849   4.927   0.748   0.667 -1.9964  0.5392  0.4575
 2738TIP3    H229850   4.919   0.722   0.816 -0.3176  1.0486  0.6534
 2739TIP3   OH229851   1.986   0.910   7.537  0.6494  0.6001  0.2257
 2739TIP3    H129852   1.960   0.998   7.508 -0.3424  0.9186  1.9537
 2739TIP3    H229853   1.905   0.872   7.571  1.2529 -0.6936  0.2624
 2740TIP3   OH229854   3.253   3.413   1.988 -0.1587  0.0366  0.3756
 2740TIP3    H129855   3.336   3.381   2.021 -0.5317  2.1386  3.9132
 2740TIP3    H229856   3.195   3.413   2.064 -1.9494  3.0561 -0.7945
 2741TIP3   OH229857   4.268   1.040   0.758  0.2573  0.4143 -0.2862
 2741TIP3    H129858   4.299   1.047   0.848 -0.7395  0.5861  0.0600
 2741TIP3    H229859   4.327   0.977   0.717  0.1744 -0.3617  0.7470
 2742TIP3   OH229860   4.145   3.227   8.348 -0.1894  0.2447 -0.1417
 2742TIP3    H129861   4.165   3.204   8.258  0.5142 -1.0652  0.3281
 2742TIP3    H229862   4.078   3.295   8.341 -0.4772 -0.1595 -1.6305
 2743TIP3   OH229863   5.516   1.875   8.482 -0.1543 -0.0838  0.5260
 2743TIP3    H129864   5.437   1.823   8.468  0.3122 -0.8723  0.7401
 2743TIP3    H229865   5.581   1.837   8.422  0.3214 -0.0457  1.0093
 2744TIP3   OH229866   3.151   1.616   8.951 -0.3018 -0.7680  0.0514
 2744TIP3    H129867   3.234   1.631   8.906  0.4320  1.2261  1.8834
 2744TIP3    H229868   3.153   1.523   8.975 -0.3691 -1.7045 -3.1288
 2745TIP3   OH229869   3.219   0.909   0.482  0.6347  0.2026  0.5557
 2745TIP3    H129870   3.137   0.938   0.524  0.3756  1.3944 -0.6856
 2745TIP3    H229871   3.190   0.861   0.405  1.1076  0.3657  0.2774
 2746TIP3   OH229872   3.592   2.585   8.323 -0.3264 -0.0558  0.5578
 2746TIP3    H129873   3.540   2.528   8.267 -0.7822  2.2480 -1.5142
 2746TIP3    H229874   3.676   2.592   8.279  0.7653 -1.2694  2.2834
 2747TIP3   OH229875   6.317   2.217   7.485 -0.0477  0.0587 -0.1277
 2747TIP3    H129876   6.356   2.152   7.427  0.0731  1.6683 -1.9437
 2747TIP3    H229877   6.223   2.215   7.464  0.0713  1.0350 -0.8211
 2748TIP3   OH229878   2.248   3.127   8.557 -0.0183 -0.6906 -0.6285
 2748TIP3    H129879   2.162   3.145   8.596  0.7518  1.1005  0.3876
 2748TIP3    H229880   2.233   3.132   8.463 -0.6511  2.0026 -0.4756
 2749TIP3   OH229881   1.144   2.811   0.015  0.1576  0.3091 -0.2750
 2749TIP3    H129882   1.175   2.729  -0.022 -0.1417  0.1429 -0.1587
 2749TIP3    H229883   1.222   2.851   0.054  0.3676  0.2396 -0.6224
 2750TIP3   OH229884   6.728   0.086   7.191  0.0474  0.1364 -0.6088
 2750TIP3    H129885   6.769   0.170   7.168  0.2739 -0.1086 -1.1074
 2750TIP3    H229886   6.678   0.105   7.270  1.4522  0.3513  0.2617
 2751TIP3   OH229887   5.595   0.755   7.884 -0.2590 -0.2332 -0.1888
 2751TIP3    H129888   5.652   0.757   7.961 -0.7207  0.6930  0.1433
 2751TIP3    H229889   5.645   0.707   7.819 -0.1372 -1.6532  0.9025
 2752TIP3   OH229890   3.132   4.498   2.015 -0.5442  0.3359  0.0183
 2752TIP3    H129891   3.089   4.581   2.037  1.4673  0.9105  2.1262
 2752TIP3    H229892   3.160   4.462   2.099  1.9789 -0.5940 -1.1323
 2753TIP3   OH229893   6.772   0.014   7.797 -0.3071 -0.3901 -0.5457
 2753TIP3    H129894   6.723  -0.048   7.744  0.5365 -1.4434 -0.1434
 2753TIP3    H229895   6.802   0.080   7.735 -2.2399  0.3162 -0.7876
 2754TIP3   OH229896   0.959   4.860   1.045  1.2482 -0.3078  0.1993
 2754TIP3    H129897   0.961   4.778   1.096  0.3562 -1.1941 -1.1210
 2754TIP3    H229898   0.996   4.836   0.960 -2.1705 -0.3483 -1.4700
 2755TIP3   OH229899   0.174   3.904   7.639 -0.4027 -0.2130 -0.3035
 2755TIP3    H129900   0.193   3.987   7.596 -0.5414 -1.3561 -2.6940
 2755TIP3    H229901   0.080   3.890   7.624 -0.6272 -0.3344  1.0229
 2756TIP3   OH229902   0.721   0.721   0.679  0.2598  0.1283  0.2456
 2756TIP3    H129903   0.665   0.674   0.616  0.7228 -0.6908  0.4206
 2756TIP3    H229904   0.809   0.714   0.642  0.4838 -0.0546  0.7973
 2757TIP3   OH229905   0.549   1.990   1.007 -0.4512  0.6112 -0.0013
 2757TIP3    H129906   0.582   1.906   1.041 -1.2502 -0.3899 -1.5915
 2757TIP3    H229907   0.625   2.048   1.011 -0.0276  0.0228  1.6832
 2758TIP3   OH229908   0.296   2.332   7.785  0.3453  0.3068 -0.1374
 2758TIP3    H129909   0.372   2.273   7.787  0.3976  0.3862  0.6128
 2758TIP3    H229910   0.223   2.274   7.764  0.4998  0.0879 -0.0882
 2759TIP3   OH229911   3.987   3.068   6.249 -0.0363 -0.1660 -0.2748
 2759TIP3    H129912   3.916   3.131   6.248 -0.7805 -0.9667  0.2400
 2759TIP3    H229913   4.064   3.118   6.276 -0.9743  0.1652  1.9806
 2760TIP3   OH229914   3.484   2.463   7.597 -0.2970 -0.5667 -0.5322
 2760TIP3    H129915   3.574   2.493   7.609 -0.8892  1.2772 -0.4324
 2760TIP3    H229916   3.487   2.408   7.519  0.9561 -0.7664 -0.3689
 2761TIP3   OH229917   5.987   4.785   7.942  0.2418 -0.3396 -0.1429
 2761TIP3    H129918   5.983   4.850   7.872 -1.6175  0.3029  0.5070
 2761TIP3    H229919   5.954   4.705   7.902 -1.9746  0.3170  0.2358
 2762TIP3   OH229920   3.273   5.768   0.710  0.1373 -0.6048 -0.1763
 2762TIP3    H129921   3.320   5.766   0.793  0.9051 -0.1155 -0.5901
 2762TIP3    H229922   3.244   5.677   0.697 -2.7732 -0.1471  2.1435
 2763TIP3   OH229923   0.649   0.301   8.405 -0.1601  0.6631  0.0946
 2763TIP3    H129924   0.628   0.213   8.436  2.2798 -0.2086 -0.4742
 2763TIP3    H229925   0.686   0.287   8.318  2.6542  1.9222  0.9781
 2764TIP3   OH229926   2.554   0.031   0.146 -0.0305  0.0293 -0.4413
 2764TIP3    H129927   2.464   0.025   0.113  0.1905 -2.5317 -0.7619
 2764TIP3    H229928   2.608   0.031   0.067  0.2934  0.1275 -0.2220
 2765TIP3   OH229929   2.401   1.130   0.259  0.4185 -0.3955  0.4814
 2765TIP3    H129930   2.441   1.149   0.174 -2.2739  0.5951 -0.6495
 2765TIP3    H229931   2.463   1.166   0.323  2.2788 -0.7388 -1.0329
 2766TIP3   OH229932   6.365   2.073   7.748 -0.1456  0.3304 -0.2681
 2766TIP3    H129933   6.377   2.054   7.656 -1.1923  1.3762 -0.6494
 2766TIP3    H229934   6.274   2.103   7.755 -0.5298 -0.9801  1.3221
 2767TIP3   OH229935   0.749   0.048   1.527  0.3996 -0.0776  0.2631
 2767TIP3    H129936   0.806  -0.022   1.561 -0.3706 -1.4002 -1.0378
 2767TIP3    H229937   0.677   0.001   1.485 -0.7790  1.5480  0.4140
 2768TIP3   OH229938   6.666   2.627   1.007 -0.2678  0.2924 -0.2320
 2768TIP3    H129939   6.704   2.666   1.086 -1.0294 -2.6696  1.7786
 2768TIP3    H229940   6.707   2.540   1.001 -1.1811 -0.0621 -2.3911
 2769TIP3   OH229941   0.702   2.064   7.388 -0.4237 -0.5864 -0.2226
 2769TIP3    H129942   0.660   2.003   7.328 -2.0184  0.0542  0.1831
 2769TIP3    H229943   0.769   2.108   7.336 -0.3633 -1.5146 -0.9482
 2770TIP3   OH229944   1.229   1.775   7.232  0.0354  0.0251  0.9844
 2770TIP3    H129945   1.242   1.693   7.279 -0.1046  1.0091  2.8449
 2770TIP3    H229946   1.189   1.834   7.297 -2.5748  0.7316 -1.0801
 2771TIP3   OH229947   4.440   6.492   1.639  0.5851  0.2260  0.2331
 2771TIP3    H129948   4.371   6.552   1.668  1.6166  1.9235 -0.6984
 2771TIP3    H229949   4.495   6.479   1.716  0.2219  0.2442  0.5029
 2772TIP3   OH229950   4.948   2.105   8.642 -0.4186 -0.7596  0.2709
 2772TIP3    H129951   4.970   2.139   8.555  1.5188 -2.5588 -0.0298
 2772TIP3    H229952   4.872   2.049   8.628 -0.0691 -1.1004 -0.2947
 2773TIP3   OH229953   1.348   3.840   8.326 -0.6736 -0.0203 -0.4612
 2773TIP3    H129954   1.425   3.896   8.314 -0.8020  0.0024 -1.2122
 2773TIP3    H229955   1.385   3.753   8.342 -0.4594  0.3499  1.2951
 2774TIP3   OH229956   4.720   0.663   0.000  0.5082  0.2636 -0.1387
 2774TIP3    H129957   4.653   0.706  -0.053  1.4453  0.3339 -1.2735
 2774TIP3    H229958   4.738   0.581  -0.045 -0.4896 -0.9004  1.4348
 2775TIP3   OH229959   1.190   3.693   8.518  0.1183  0.0052  0.0948
 2775TIP3    H129960   1.163   3.684   8.427 -0.7023 -2.2485  0.4848
 2775TIP3    H229961   1.136   3.630   8.566  0.6714  0.9679  2.1261
 2776TIP3   OH229962   3.743   6.087   7.777 -0.2604 -0.3215 -0.5626
 2776TIP3    H129963   3.730   6.129   7.862 -2.1096 -0.5003 -0.7180
 2776TIP3    H229964   3.827   6.043   7.784  0.7161  1.5650  0.3681
 2777TIP3   OH229965   4.804   5.652   1.098 -0.4464  0.3262 -0.0303
 2777TIP3    H129966   4.790   5.677   1.006 -2.2926 -1.3391 -0.2681
 2777TIP3    H229967   4.732   5.593   1.118  0.2198  0.2253  2.3686
 2778TIP3   OH229968   3.089   2.561   7.244  0.2534  0.2023 -0.1594
 2778TIP3    H129969   3.055   2.577   7.156 -0.8789  1.3125  0.4535
 2778TIP3    H229970   3.094   2.465   7.251 -2.3666 -0.0135 -0.4549
 2779TIP3   OH229971   4.115   3.846   7.763 -0.4356 -0.0795 -0.4596
 2779TIP3    H129972   4.189   3.906   7.752  0.2032 -0.9111 -0.7346
 2779TIP3    H229973   4.074   3.875   7.844 -1.7975  2.4828 -1.9185
 2780TIP3   OH229974   0.135   5.823   8.216 -0.7679 -0.4568  0.7347
 2780TIP3    H129975   0.155   5.761   8.287 -0.9494 -1.6412 -0.2119
 2780TIP3    H229976   0.215   5.875   8.207 -0.7818 -0.2070  1.8688
 2781TIP3   OH229977   6.020   2.603   1.783 -0.0476 -0.2383  0.2808
 2781TIP3    H129978   6.080   2.678   1.785  0.4270 -0.6243  0.6124
 2781TIP3    H229979   5.936   2.640   1.810  0.3120  0.0696  1.0100
 2782TIP3   OH229980   1.593   6.005   0.340  0.4146  0.0761  0.1227
 2782TIP3    H129981   1.676   6.025   0.385  0.5210 -0.3029  0.1022
 2782TIP3    H229982   1.590   6.067   0.268  1.4606 -0.9126 -0.8236
 2783TIP3   OH229983   2.579   5.317   7.215  0.5387 -0.3035 -0.1687
 2783TIP3    H129984   2.543   5.385   7.158  1.7338  0.6758  0.2060
 2783TIP3    H229985   2.510   5.251   7.220 -0.3940  0.5702 -1.0709
 2784TIP3   OH229986   5.962   3.038   0.828 -0.4054 -0.1168  0.5296
 2784TIP3    H129987   5.881   3.053   0.778  1.2029 -1.5065 -2.8117
 2784TIP3    H229988   5.954   2.947   0.858 -0.5497  0.1044  1.1629
 2785TIP3   OH229989   5.949   4.133   6.878 -0.0381 -0.4109  0.3771
 2785TIP3    H129990   5.946   4.060   6.816 -0.5097 -0.7170  0.7536
 2785TIP3    H229991   5.972   4.092   6.961  0.6063  0.0005  0.4018
 2786TIP3   OH229992   1.892   5.820   2.701 -0.6396 -0.6979  0.4341
 2786TIP3    H129993   1.823   5.868   2.747  0.7553  0.7466  1.1013
 2786TIP3    H229994   1.920   5.879   2.631 -0.6505 -1.6213 -0.3732
 2787TIP3   OH229995   2.497   6.419   1.407  0.1510  0.7891  0.2072
 2787TIP3    H129996   2.517   6.433   1.500  0.8116 -0.5254  0.2706
 2787TIP3    H229997   2.572   6.371   1.372 -2.1277 -3.1668  0.1617
 2788TIP3   OH229998   3.053   3.837   0.556  0.1984  0.3783  0.0121
 2788TIP3    H129999   2.960   3.835   0.580  0.3607 -2.5813  0.8451
 2788TIP3    H230000   3.053   3.829   0.461 -0.4405 -0.4186  0.0651
 2789TIP3   OH230001   2.093   2.050   8.713 -0.5595 -0.5548 -0.0849
 2789TIP3    H130002   2.094   1.983   8.644 -0.5982 -1.7330  1.0159
 2789TIP3    H230003   2.182   2.084   8.715 -0.5193 -0.6120 -0.6048
 2790TIP3   OH230004   1.760   6.344   1.177  0.1542 -0.1646 -0.0790
 2790TIP3    H130005   1.764   6.425   1.125 -0.3537 -0.0649  0.0353
 2790TIP3    H230006   1.731   6.372   1.264  1.1148 -0.3151  0.2986
 2791TIP3   OH230007   1.000   3.447   0.562 -0.6655  0.6699 -0.1251
 2791TIP3    H130008   1.030   3.521   0.614  1.0976 -0.1455  0.0813
 2791TIP3    H230009   1.048   3.372   0.597  0.2363 -0.0010 -2.6052
 2792TIP3   OH230010   1.635   5.527   1.409 -0.8216  0.5475  0.1111
 2792TIP3    H130011   1.637   5.565   1.497 -0.0374  1.5511 -0.3224
 2792TIP3    H230012   1.665   5.597   1.351 -0.6487 -0.3109 -0.8809
 2793TIP3   OH230013   3.568   4.932   2.422  0.5053  0.2149 -0.2235
 2793TIP3    H130014   3.534   4.943   2.512 -0.3932 -0.3598 -0.4775
 2793TIP3    H230015   3.578   5.022   2.390  0.0384  0.4145  0.1709
 2794TIP3   OH230016   6.051   1.056   8.772 -0.3266  0.1778  0.7347
 2794TIP3    H130017   6.047   0.980   8.714 -1.2276  0.7129  0.0765
 2794TIP3    H230018   5.965   1.096   8.765 -0.7243 -0.1638  3.0441
 2795TIP3   OH230019   0.876   2.334   2.280  0.1124 -0.6230 -0.0392
 2795TIP3    H130020   0.859   2.353   2.373 -0.6267  1.5716 -0.5655
 2795TIP3    H230021   0.908   2.244   2.280 -0.7939 -1.0259  2.2516
 2796TIP3   OH230022   2.447   2.113   1.194  0.0500  0.3668 -0.2732
 2796TIP3    H130023   2.438   2.200   1.232 -1.0783 -0.0360  0.4455
 2796TIP3    H230024   2.382   2.060   1.241  1.8342 -1.2580  0.4671
 2797TIP3   OH230025   4.498   3.103   0.163  0.3495 -0.3278 -0.5232
 2797TIP3    H130026   4.559   3.055   0.218  0.5194  2.2767  1.8089
 2797TIP3    H230027   4.552   3.167   0.117 -0.3675  0.8103  0.1787
 2798TIP3   OH230028   0.426   5.283   8.803 -0.1720  0.4472 -0.0406
 2798TIP3    H130029   0.358   5.331   8.848  1.0307 -0.5614  3.1028
 2798TIP3    H230030   0.395   5.192   8.801  1.2750 -0.1532  2.0662
 2799TIP3   OH230031   3.153   3.287   1.615  0.4414 -0.0517 -0.2053
 2799TIP3    H130032   3.069   3.302   1.572  0.3892 -0.3126 -0.1950
 2799TIP3    H230033   3.131   3.241   1.696  0.2831  2.5176  1.3549
 2800TIP3   OH230034   5.667   4.004   6.875 -0.5226  0.3953 -0.0911
 2800TIP3    H130035   5.578   4.006   6.841 -0.1205  0.7740 -1.1791
 2800TIP3    H230036   5.712   3.939   6.820  0.0269  0.6701  0.0280
 2801TIP3   OH230037   4.978   0.859   1.610 -0.3520  0.4057 -0.5916
 2801TIP3    H130038   4.980   0.891   1.519  1.8145 -0.2863 -0.8477
 2801TIP3    H230039   4.908   0.794   1.611  0.4527 -0.5367 -2.1376
 2802TIP3   OH230040   4.834   5.416   0.813  0.5449 -0.5681 -0.4146
 2802TIP3    H130041   4.827   5.508   0.837 -1.2254 -0.7802 -0.0338
 2802TIP3    H230042   4.865   5.417   0.722 -0.7972  0.4448 -0.8902
 2803TIP3   OH230043   1.375   1.309   1.635  0.5345 -0.1217  0.2952
 2803TIP3    H130044   1.326   1.304   1.717  0.9122 -1.4612  0.4723
 2803TIP3    H230045   1.417   1.394   1.636 -0.6289  0.4652  0.8125
 2804TIP3   OH230046   4.229   3.906   0.651 -0.6089 -0.2220  0.8674
 2804TIP3    H130047   4.178   3.866   0.580 -0.7212  2.1251 -0.4622
 2804TIP3    H230048   4.282   3.973   0.608  0.0094  0.6747  2.8962
 2805TIP3   OH230049   5.852   1.607   6.999  0.4187 -0.1569  0.0230
 2805TIP3    H130050   5.760   1.631   6.987  0.1520 -1.0141  0.3532
 2805TIP3    H230051   5.892   1.686   7.035 -0.2689  0.0985  0.2486
 2806TIP3   OH230052   4.880   2.625   6.577  0.4203  0.3693  0.2976
 2806TIP3    H130053   4.947   2.570   6.618 -0.3937 -0.5426  0.4344
 2806TIP3    H230054   4.928   2.701   6.545  1.6533 -0.6479 -0.3294
 2807TIP3   OH230055   5.856   5.532   0.490  0.0798 -0.3817 -0.7481
 2807TIP3    H130056   5.770   5.542   0.532  0.0563 -1.3946 -0.5435
 2807TIP3    H230057   5.850   5.585   0.410  0.9598  3.7539  1.5971
 2808TIP3   OH230058   4.408   6.772   8.344  0.6550 -0.4347 -0.4325
 2808TIP3    H130059   4.462   6.711   8.395 -0.4030 -1.2667 -0.2714
 2808TIP3    H230060   4.467   6.845   8.325  0.6818  0.7661  3.4055
 2809TIP3   OH230061   0.215   3.753   7.863 -0.0292 -0.2665  0.1724
 2809TIP3    H130062   0.154   3.679   7.866  0.1516 -0.4058  0.4814
 2809TIP3    H230063   0.196   3.797   7.781 -2.1263  1.0583  1.2916
 2810TIP3   OH230064   5.959   4.680   2.719 -0.0900 -0.3693 -0.0714
 2810TIP3    H130065   5.990   4.605   2.668 -1.4345 -0.1574 -1.2630
 2810TIP3    H230066   5.895   4.723   2.662 -0.1692  1.0440  1.0316
 2811TIP3   OH230067   0.674   4.962   0.445 -0.5243 -0.4748 -0.4610
 2811TIP3    H130068   0.589   4.929   0.475  0.0832 -1.2702  0.4270
 2811TIP3    H230069   0.665   4.967   0.350 -2.4920  2.0878 -0.2748
 2812TIP3   OH230070   6.150   0.848   7.996  0.2368  0.1507 -0.5484
 2812TIP3    H130071   6.127   0.774   7.939  1.1944 -0.2156 -0.4602
 2812TIP3    H230072   6.220   0.893   7.949 -0.9924  1.5865 -1.0706
 2813TIP3   OH230073   3.821   6.420   7.180 -0.3723 -0.0675 -0.4136
 2813TIP3    H130074   3.905   6.443   7.140 -0.8240  0.8429 -0.8652
 2813TIP3    H230075   3.806   6.488   7.245 -0.5761 -0.4505 -0.0609
 2814TIP3   OH230076   6.141   0.518   8.610 -0.4699 -0.3363 -0.4416
 2814TIP3    H130077   6.047   0.504   8.624 -0.6604  0.4817 -0.8696
 2814TIP3    H230078   6.147   0.606   8.575  0.6410  0.3579  1.3889
 2815TIP3   OH230079   3.993   5.479   1.108 -0.1254 -0.3216  0.2769
 2815TIP3    H130080   4.071   5.433   1.076  1.2864  2.2943 -0.3386
 2815TIP3    H230081   4.005   5.483   1.203  0.0907 -0.6141  0.2647
 2816TIP3   OH230082   0.884   0.320   8.156 -0.2180  0.6432  0.2645
 2816TIP3    H130083   0.938   0.392   8.190  2.4681 -0.9974 -0.3339
 2816TIP3    H230084   0.876   0.338   8.062 -0.4853  0.7084  0.2971
 2817TIP3   OH230085   4.716   1.527   1.264  0.3170 -0.1734 -0.0602
 2817TIP3    H130086   4.717   1.585   1.341 -1.5133  1.1218 -0.9355
 2817TIP3    H230087   4.806   1.529   1.232  0.3103  2.4068 -0.1606
 2818TIP3   OH230088   0.656   3.843   7.527 -0.5977  0.8081 -0.1463
 2818TIP3    H130089   0.712   3.819   7.600  0.1300  1.4219 -0.4854
 2818TIP3    H230090   0.568   3.816   7.554 -0.9958  4.0572  2.4782
 2819TIP3   OH230091   0.604   5.989   6.945  0.1081 -0.5540 -0.2737
 2819TIP3    H130092   0.531   5.931   6.923  0.3755 -1.0376  0.0970
 2819TIP3    H230093   0.665   5.933   6.992  0.6507 -0.1129 -0.4493
 2820TIP3   OH230094   2.584   5.786   0.898  0.1049  0.1041  0.0401
 2820TIP3    H130095   2.611   5.866   0.854 -1.4027  0.6466  0.0530
 2820TIP3    H230096   2.497   5.767   0.863 -0.0054 -0.9384  0.8200
 2821TIP3   OH230097   2.221   4.377   1.444  0.1578  0.4259 -0.1097
 2821TIP3    H130098   2.267   4.373   1.360  0.7895  1.8475  0.1317
 2821TIP3    H230099   2.147   4.435   1.428 -0.5325 -0.4156 -0.0270
 2822TIP3   OH230100   0.177   3.095   7.744  0.0446 -0.1229  0.0902
 2822TIP3    H130101   0.206   3.137   7.825  0.7846  0.4905 -0.4694
 2822TIP3    H230102   0.144   3.167   7.690  1.5059 -0.1977 -0.9578
 2823TIP3   OH230103   5.990   2.629   8.900 -0.3828 -0.5957  0.4399
 2823TIP3    H130104   6.084   2.644   8.907 -0.4792  0.2038  0.1035
 2823TIP3    H230105   5.966   2.590   8.984  0.0937  0.0639  0.8978
 2824TIP3   OH230106   2.843   3.338   1.962  0.4980 -0.4013 -0.1033
 2824TIP3    H130107   2.753   3.308   1.946  1.0304 -1.2614 -1.6193
 2824TIP3    H230108   2.876   3.363   1.876  1.0110  2.0298  0.7169
 2825TIP3   OH230109   2.797   3.524   7.001  0.1707  0.2457 -0.0949
 2825TIP3    H130110   2.718   3.503   6.951  0.5066 -0.5592 -0.3075
 2825TIP3    H230111   2.817   3.614   6.977 -1.0488  0.6920  0.4688
 2826TIP3   OH230112   6.424   4.677   8.148  0.2249 -0.9108 -0.0654
 2826TIP3    H130113   6.509   4.645   8.119 -0.0387 -1.2276 -0.5039
 2826TIP3    H230114   6.387   4.721   8.072  1.5894  2.7016  1.1612
 2827TIP3   OH230115   5.740   5.493   8.318  0.0289  0.1105  0.0556
 2827TIP3    H130116   5.680   5.454   8.381 -1.0934  2.0996  0.2937
 2827TIP3    H230117   5.823   5.447   8.332 -0.8369 -1.1381  1.2874
 2828TIP3   OH230118   1.112   1.292   0.143  0.1528  0.1353  0.5596
 2828TIP3    H130119   1.134   1.383   0.124  1.7231 -0.5013 -0.9921
 2828TIP3    H230120   1.020   1.294   0.169  0.6375  2.3483  2.3406
 2829TIP3   OH230121   2.765   2.478   8.513  0.3041 -0.2519  0.2482
 2829TIP3    H130122   2.691   2.453   8.457 -0.2148 -1.0860  1.2463
 2829TIP3    H230123   2.827   2.520   8.455 -1.0463  0.6376 -0.5980
 2830TIP3   OH230124   2.886   3.318   2.474 -0.2562 -0.0887  0.1891
 2830TIP3    H130125   2.819   3.360   2.528  0.3143  1.0023  0.0564
 2830TIP3    H230126   2.935   3.390   2.435 -0.4110 -0.8411 -1.4992
 2831TIP3   OH230127   3.681   0.020   6.905 -0.1480  0.0461 -0.6916
 2831TIP3    H130128   3.607  -0.030   6.938  0.3414  0.1045  0.5735
 2831TIP3    H230129   3.698  -0.016   6.818 -0.8775 -0.8116 -0.4913
 2832TIP3   OH230130   4.572   3.161   8.153  0.1107 -0.0755  0.2576
 2832TIP3    H130131   4.514   3.177   8.078  0.5710  1.8818  0.2674
 2832TIP3    H230132   4.644   3.110   8.117 -0.0315  0.2336 -0.4764
 2833TIP3   OH230133   0.970   5.344   1.700 -0.9121  0.6260 -0.3851
 2833TIP3    H130134   0.941   5.303   1.619  0.4022  1.6168 -1.3901
 2833TIP3    H230135   0.989   5.435   1.676  1.5994  0.4141  0.4888
 2834TIP3   OH230136   2.890   2.073   7.452  0.1906 -0.6244 -0.0560
 2834TIP3    H130137   2.812   2.065   7.507  1.7215 -0.6709  2.2745
 2834TIP3    H230138   2.902   1.985   7.415 -0.6493 -0.7124 -0.1209
 2835TIP3   OH230139   6.273   2.035   2.442  0.0030 -0.2861 -0.2939
 2835TIP3    H130140   6.237   1.949   2.422 -0.6489  0.3014 -1.7839
 2835TIP3    H230141   6.198   2.087   2.472 -0.2902  0.6315 -2.4003
 2836TIP3   OH230142   0.887   2.179   1.222  0.6050 -0.2999 -0.0449
 2836TIP3    H130143   0.857   2.193   1.132 -0.0594  0.7390  0.3141
 2836TIP3    H230144   0.846   2.097   1.249  1.5228 -1.0911 -0.9640
 2837TIP3   OH230145   4.454   3.571   1.995  0.2496  0.2727 -0.0842
 2837TIP3    H130146   4.380   3.628   1.975  0.4910  0.2338 -1.1646
 2837TIP3    H230147   4.521   3.630   2.028  0.2837  0.5487 -0.6229
 2838TIP3   OH230148   1.082   3.900   7.570 -0.1667  0.2819 -0.1436
 2838TIP3    H130149   1.153   3.949   7.610  0.5601  0.6428 -1.7791
 2838TIP3    H230150   1.081   3.930   7.479 -4.0864  2.2721  0.3022
 2839TIP3   OH230151   4.837   3.593   7.485 -0.1590  0.1294 -0.0822
 2839TIP3    H130152   4.793   3.597   7.400  0.9412  1.0061 -0.6519
 2839TIP3    H230153   4.772   3.626   7.548 -0.2093  1.8589 -0.9643
 2840TIP3   OH230154   1.482   1.609   7.446 -0.1536 -0.3074  0.3380
 2840TIP3    H130155   1.567   1.653   7.437 -0.4950  0.4044  0.4988
 2840TIP3    H230156   1.501   1.530   7.497  0.2886  0.2505  1.0682
 2841TIP3   OH230157   4.307   0.533   0.218 -0.0043 -0.3863  0.2261
 2841TIP3    H130158   4.399   0.553   0.231  0.4526 -2.1690 -0.0290
 2841TIP3    H230159   4.289   0.459   0.276 -1.2874 -0.0424  0.3018
 2842TIP3   OH230160   6.204   4.704   7.678 -0.1539 -0.0713 -0.3245
 2842TIP3    H130161   6.167   4.624   7.714 -0.0903 -1.2019 -2.6037
 2842TIP3    H230162   6.263   4.675   7.609  0.6751  1.9084 -0.5209
 2843TIP3   OH230163   4.299   1.272   8.833  0.4256  0.8651 -0.8101
 2843TIP3    H130164   4.340   1.193   8.795 -0.4911  0.1166 -0.2831
 2843TIP3    H230165   4.275   1.245   8.922 -0.1999  1.6492 -0.7405
 2844TIP3   OH230166   4.821   5.697   0.823  0.1990  0.2945  0.1206
 2844TIP3    H130167   4.854   5.691   0.734  0.3282  0.5988  0.1466
 2844TIP3    H230168   4.794   5.789   0.833 -0.7117  0.0492  0.0792
 2845TIP3   OH230169   3.878   6.771   7.937 -0.4818 -0.0441  0.1281
 2845TIP3    H130170   3.816   6.794   8.006 -0.8968  1.0309 -0.5787
 2845TIP3    H230171   3.929   6.851   7.922  1.7346 -1.1332  1.3063
 2846TIP3   OH230172   1.879   2.217   2.666  0.5536 -0.1451  0.0158
 2846TIP3    H130173   1.952   2.164   2.632  0.6472  0.0875 -0.1422
 2846TIP3    H230174   1.918   2.302   2.685  0.0695  0.3748 -1.2062
 2847TIP3   OH230175   2.320   0.342   2.563 -0.4431  0.7675  0.3770
 2847TIP3    H130176   2.251   0.389   2.517 -0.4449 -0.0681 -0.5120
 2847TIP3    H230177   2.276   0.267   2.603  0.0477 -0.2963 -0.9697
 2848TIP3   OH230178   1.390   1.214   0.247 -0.7559  0.1116  0.6423
 2848TIP3    H130179   1.453   1.222   0.175 -0.0354 -0.9113  1.1305
 2848TIP3    H230180   1.304   1.212   0.205 -0.3557 -0.2552 -0.1674
 2849TIP3   OH230181   2.565   3.344   0.112 -0.1295 -0.3511 -0.1887
 2849TIP3    H130182   2.595   3.255   0.092  0.6357  0.3687 -2.7545
 2849TIP3    H230183   2.627   3.376   0.177  0.4092 -1.2465 -0.2411
 2850TIP3   OH230184   2.593   0.970   1.676  0.2279  0.5875 -0.0985
 2850TIP3    H130185   2.666   0.971   1.614  0.1781 -1.4045 -0.2532
 2850TIP3    H230186   2.543   0.892   1.653 -0.9305  0.9184  1.1763
 2851TIP3   OH230187   6.533   2.826   8.445 -0.2340  0.7651 -0.4709
 2851TIP3    H130188   6.448   2.794   8.417 -0.6554  1.9282 -0.5684
 2851TIP3    H230189   6.583   2.837   8.364 -0.1460  0.5090 -0.4515
 2852TIP3   OH230190   0.847   5.879   1.112 -0.0423 -0.0831  0.3335
 2852TIP3    H130191   0.758   5.886   1.146  0.3378  0.8623  1.1784
 2852TIP3    H230192   0.863   5.961   1.066  0.0349 -0.6791 -0.7558
 2853TIP3   OH230193   1.421   6.105   1.077  0.0922  0.0508 -0.3041
 2853TIP3    H130194   1.335   6.114   1.119  0.5803  3.8496  0.1587
 2853TIP3    H230195   1.418   6.166   1.003  1.9656 -0.7665 -1.1073
 2854TIP3   OH230196   4.280   3.285   0.229 -0.3069  0.2225  0.3004
 2854TIP3    H130197   4.305   3.300   0.320 -0.2690 -0.3945  0.3953
 2854TIP3    H230198   4.347   3.226   0.195 -0.6741 -0.0537  0.0523
 2855TIP3   OH230199   5.693   5.887   7.928 -0.3376  0.4749  0.5637
 2855TIP3    H130200   5.651   5.898   7.842  0.3275 -0.8109  0.0379
 2855TIP3    H230201   5.622   5.865   7.987 -0.5771 -0.5777 -0.0883
 2856TIP3   OH230202   5.843   1.967   1.652 -0.5511  0.0038  0.2917
 2856TIP3    H130203   5.765   1.914   1.671 -0.9216  0.5386  0.3170
 2856TIP3    H230204   5.864   2.009   1.736  1.9182 -2.8274  1.2438
 2857TIP3   OH230205   1.490   5.669   7.476  0.1908  0.1480  0.0525
 2857TIP3    H130206   1.461   5.707   7.559  3.3044  1.7815  0.5687
 2857TIP3    H230207   1.434   5.709   7.410 -1.1446  0.2335  1.1940
 2858TIP3   OH230208   5.482   3.238   7.562 -0.2557  0.4056 -0.1297
 2858TIP3    H130209   5.462   3.192   7.643  0.6193  1.9415  1.0146
 2858TIP3    H230210   5.536   3.177   7.512  2.6468  0.7747  2.2185
 2859TIP3   OH230211   2.937   5.696   6.953 -0.2288  0.6553  0.5159
 2859TIP3    H130212   2.848   5.678   6.922 -0.0294  0.0495  0.2869
 2859TIP3    H230213   2.973   5.756   6.888 -0.0452 -0.0858 -0.0861
 2860TIP3   OH230214   6.175   5.813   1.051  0.0601  0.0091 -0.3615
 2860TIP3    H130215   6.157   5.901   1.085  0.0742  0.7826 -2.2525
 2860TIP3    H230216   6.129   5.755   1.112  0.0613  1.2989  0.9358
 2861TIP3   OH230217   0.360   6.377   2.551  0.2120 -0.0850  0.7194
 2861TIP3    H130218   0.364   6.311   2.481  2.4865  0.8758 -0.1501
 2861TIP3    H230219   0.325   6.455   2.509  0.1422  0.0579  1.0393
 2862TIP3   OH230220   5.970   5.816   1.725 -0.2390 -0.3908  0.0199
 2862TIP3    H130221   6.002   5.906   1.719  1.2278 -0.9940 -3.7138
 2862TIP3    H230222   6.007   5.783   1.807  2.3501  1.3512 -0.3334
 2863TIP3   OH230223   4.167   3.794   1.178 -0.0450 -0.2397 -0.1977
 2863TIP3    H130224   4.111   3.716   1.176 -1.1720  0.5362 -0.0740
 2863TIP3    H230225   4.181   3.816   1.086  0.5321 -0.7464 -0.2404
 2864TIP3   OH230226   5.921   5.966   7.400  0.0611 -0.0423  0.2674
 2864TIP3    H130227   5.961   5.882   7.379 -0.6666 -0.6398  1.1925
 2864TIP3    H230228   5.836   5.964   7.356 -0.4200 -0.2624  1.1843
 2865TIP3   OH230229   0.045   2.419   2.225 -0.1810  0.3203  0.1224
 2865TIP3    H130230   0.102   2.490   2.252 -1.7666  1.1411  1.4734
 2865TIP3    H230231  -0.028   2.462   2.179  0.9157 -0.8062 -2.9735
 2866TIP3   OH230232   4.879   1.365   2.253 -0.2521 -0.5331  0.0896
 2866TIP3    H130233   4.968   1.392   2.228 -1.3277  2.4945 -0.9304
 2866TIP3    H230234   4.830   1.367   2.171 -1.4263 -1.6147  0.7314
 2867TIP3   OH230235   3.254   4.731   7.670 -0.2584  0.1905 -0.4727
 2867TIP3    H130236   3.250   4.778   7.587  0.1043  0.0391 -0.5752
 2867TIP3    H230237   3.302   4.790   7.728 -0.0248  0.0542 -0.5287
 2868TIP3   OH230238   5.494   2.720   1.573  0.2942 -0.2316 -0.6093
 2868TIP3    H130239   5.407   2.725   1.534  0.1647 -1.1533 -0.4749
 2868TIP3    H230240   5.492   2.640   1.626  0.3422  1.1818  1.6310
 2869TIP3   OH230241   1.646   4.292   0.951 -0.9476  0.2837 -0.5522
 2869TIP3    H130242   1.737   4.279   0.924 -1.3431 -0.1036 -1.7613
 2869TIP3    H230243   1.608   4.347   0.882 -1.8812 -0.3686 -0.5847
 2870TIP3   OH230244   4.956   6.468   6.998 -0.1262  0.0814 -0.1623
 2870TIP3    H130245   4.985   6.555   6.970  2.0907 -0.8233 -0.8581
 2870TIP3    H230246   4.873   6.484   7.042  0.9053  2.7338  1.0028
 2871TIP3   OH230247   5.819   3.002   7.030  0.0088 -0.1831 -0.4802
 2871TIP3    H130248   5.806   2.969   7.119 -0.3309 -1.5158 -0.9972
 2871TIP3    H230249   5.745   3.060   7.015 -0.8098 -1.1977 -0.4440
 2872TIP3   OH230250   2.238   5.871   7.082 -0.1573  0.0356 -0.2403
 2872TIP3    H130251   2.254   5.791   7.034  0.9595 -0.7513  1.3307
 2872TIP3    H230252   2.323   5.894   7.120 -0.5208  1.7773 -0.3617
 2873TIP3   OH230253   0.099   1.123   7.324  0.1514  0.4266 -0.1868
 2873TIP3    H130254   0.151   1.060   7.374  0.9649  1.4581  0.3198
 2873TIP3    H230255   0.012   1.118   7.363  0.2566 -0.2343 -0.0238
 2874TIP3   OH230256   2.356   6.600   0.574  0.1709  0.1920  0.1351
 2874TIP3    H130257   2.278   6.546   0.587  0.4470 -0.2952 -0.2187
 2874TIP3    H230258   2.354   6.624   0.482 -0.1947  1.1848  0.3860
 2875TIP3   OH230259   6.709   1.644   2.558  0.8445 -0.2587  0.1425
 2875TIP3    H130260   6.629   1.646   2.506  0.3726 -0.3076  0.8447
 2875TIP3    H230261   6.701   1.720   2.616 -0.1505 -1.8868  2.2886
 2876TIP3   OH230262   5.918   1.867   7.103 -0.5051  0.0644  0.6752
 2876TIP3    H130263   5.911   1.920   7.183  2.1798  3.4734 -1.1326
 2876TIP3    H230264   5.850   1.902   7.046  1.6924  2.2768 -0.7673
 2877TIP3   OH230265   3.497   6.616   7.043  0.0303  0.6109 -0.3077
 2877TIP3    H130266   3.435   6.640   6.974 -1.5351  1.4778  1.3137
 2877TIP3    H230267   3.451   6.636   7.124  0.6591 -3.0587  1.1177
 2878TIP3   OH230268   4.623   1.574   0.848 -0.0839 -0.4566  0.7447
 2878TIP3    H130269   4.688   1.508   0.826 -0.7239 -1.7636  2.5729
 2878TIP3    H230270   4.670   1.657   0.841  0.6712 -1.0148 -1.8430
 2879TIP3   OH230271   6.445   4.759   8.444  0.4085 -0.0641 -0.3835
 2879TIP3    H130272   6.403   4.832   8.490  0.0102 -1.1413  1.0820
 2879TIP3    H230273   6.424   4.772   8.352  1.0802  2.1103 -0.2637
 2880TIP3   OH230274   4.755   0.704   7.108 -0.7425 -0.4373  0.0154
 2880TIP3    H130275   4.777   0.717   7.200  1.1847 -0.7066 -0.3733
 2880TIP3    H230276   4.809   0.767   7.060 -0.8243 -1.1126 -1.0041
 2881TIP3   OH230277   3.923   2.861   8.074 -0.2550 -0.1114 -0.0158
 2881TIP3    H130278   3.888   2.950   8.070 -1.0741 -0.4047  0.4844
 2881TIP3    H230279   3.989   2.859   8.004  2.0925  1.8357  1.9427
 2882TIP3   OH230280   5.262   5.726   1.436 -0.2244  0.4572 -0.0342
 2882TIP3    H130281   5.169   5.749   1.437 -0.5126 -0.5835 -0.9857
 2882TIP3    H230282   5.294   5.749   1.523 -1.5399  0.1963  0.5340
 2883TIP3   OH230283   0.680   0.326   0.291 -0.7794 -0.1403  0.3697
 2883TIP3    H130284   0.698   0.358   0.379 -0.3365 -0.4826  0.4037
 2883TIP3    H230285   0.640   0.401   0.246 -1.0050  0.0363  0.8549
 2884TIP3   OH230286   5.556   1.848   1.989 -0.2818  0.2471 -0.6074
 2884TIP3    H130287   5.576   1.763   2.027 -0.0212  0.7740  0.4814
 2884TIP3    H230288   5.594   1.845   1.901  2.7686  0.4431  0.5988
 2885TIP3   OH230289   3.499   6.527   8.386  0.0108  0.2942  0.1169
 2885TIP3    H130290   3.578   6.504   8.337 -0.3683 -1.2823  0.1775
 2885TIP3    H230291   3.501   6.469   8.463 -1.3398  0.0235 -0.0302
 2886TIP3   OH230292   6.607   5.570   2.380 -0.2363  0.8125  0.1692
 2886TIP3    H130293   6.695   5.574   2.416  0.0504 -0.7154 -0.2680
 2886TIP3    H230294   6.565   5.498   2.428 -0.0007 -0.9576 -2.0632
 2887TIP3   OH230295   5.476   5.165   1.497  0.1977  0.0931  0.4526
 2887TIP3    H130296   5.544   5.200   1.440  0.9040  0.9236  1.7396
 2887TIP3    H230297   5.488   5.212   1.580 -2.1586  0.5266  0.6346
 2888TIP3   OH230298   2.843   0.064   8.395 -0.3026 -0.1399 -0.2890
 2888TIP3    H130299   2.796   0.093   8.316 -1.0251 -0.5368 -0.0087
 2888TIP3    H230300   2.896  -0.010   8.365 -0.2723 -0.0450 -0.4785
 2889TIP3   OH230301   4.350   1.976   0.026  0.0936  0.6740  0.4453
 2889TIP3    H130302   4.260   1.963   0.057  0.0120  0.7402  0.2350
 2889TIP3    H230303   4.344   2.051  -0.033  0.4192  1.1644  1.0189
 2890TIP3   OH230304   0.647   0.074   7.730  0.0257 -0.0862  0.3790
 2890TIP3    H130305   0.625   0.157   7.686  0.5920  0.0036  0.2552
 2890TIP3    H230306   0.583   0.011   7.696 -0.4100  0.2966  0.4745
 2891TIP3   OH230307   1.760   0.634   1.636  0.1293 -0.3305 -0.2834
 2891TIP3    H130308   1.705   0.703   1.599  2.7058  0.8999 -2.0977
 2891TIP3    H230309   1.748   0.559   1.579 -1.1088 -0.7351  0.4831
 2892TIP3   OH230310   2.417   2.312   2.038 -0.3521  0.1824 -0.7553
 2892TIP3    H130311   2.366   2.234   2.057  0.3551  0.0080  0.6181
 2892TIP3    H230312   2.508   2.285   2.050 -0.0571  1.0210 -1.0081
 2893TIP3   OH230313   2.841   6.002   8.859  0.0520 -0.1112 -0.0601
 2893TIP3    H130314   2.867   6.028   8.948  3.1060  0.6382 -1.0570
 2893TIP3    H230315   2.923   5.983   8.815 -1.3607 -0.1466 -2.8749
 2894TIP3   OH230316   0.188   1.316   7.842 -0.1875 -0.9733 -0.1469
 2894TIP3    H130317   0.099   1.329   7.877  0.3940 -0.8622  1.3579
 2894TIP3    H230318   0.174   1.299   7.749 -1.8555 -1.7225  0.1860
 2895TIP3   OH230319   5.933   0.929   0.732 -1.0092  0.3141 -0.0585
 2895TIP3    H130320   5.858   0.871   0.743  0.8572 -2.2648 -0.0412
 2895TIP3    H230321   5.987   0.913   0.809  0.0722  1.3400 -0.5710
 2896TIP3   OH230322   4.708   0.120   7.499 -0.2961  0.0050  0.0063
 2896TIP3    H130323   4.656   0.144   7.423  0.4110  0.8181 -0.2437
 2896TIP3    H230324   4.744   0.034   7.478 -0.2165  0.1677 -0.5267
 2897TIP3   OH230325   2.299   1.581   1.333  0.3029 -0.2542 -0.6722
 2897TIP3    H130326   2.305   1.534   1.416  2.7930  1.4202  0.2144
 2897TIP3    H230327   2.247   1.659   1.353  1.3316  0.4112 -0.4839
 2898TIP3   OH230328   4.336   4.809   0.241  0.7529 -0.2951  0.9840
 2898TIP3    H130329   4.360   4.837   0.153 -2.2781 -0.1138  0.0955
 2898TIP3    H230330   4.350   4.715   0.242  1.3002 -0.2218  0.4770
 2899TIP3   OH230331   2.058   5.120   7.811 -0.0181  0.1368 -0.1524
 2899TIP3    H130332   2.119   5.087   7.745 -0.0032 -0.9990  0.4105
 2899TIP3    H230333   2.093   5.090   7.894  0.5485  2.4592  0.5159
 2900TIP3   OH230334   2.298   4.826   0.916  0.2219  0.3361  0.3457
 2900TIP3    H130335   2.343   4.779   0.845  0.7676  0.6506  0.4762
 2900TIP3    H230336   2.254   4.898   0.872 -1.3611 -0.7863  0.0193
 2901TIP3   OH230337   2.962   2.559   8.335 -0.5952 -0.2674  0.4202
 2901TIP3    H130338   2.915   2.537   8.255 -1.5100 -1.6103  1.2866
 2901TIP3    H230339   3.050   2.524   8.322 -0.4407  0.3625 -0.3486
 2902TIP3   OH230340   4.789   5.509   8.040 -0.0156 -0.0174  0.2195
 2902TIP3    H130341   4.825   5.573   8.102  1.7274 -1.4154  0.7328
 2902TIP3    H230342   4.700   5.539   8.024 -0.3210  0.8009  2.9088
 2903TIP3   OH230343   2.955   0.094   6.816  0.5339  0.1344 -0.8697
 2903TIP3    H130344   3.023   0.160   6.831  1.2923 -0.2220 -2.4912
 2903TIP3    H230345   2.999   0.011   6.833 -0.0940 -0.0118  0.0705
 2904TIP3   OH230346   4.443   6.610   0.178 -0.4778  0.3677 -1.1542
 2904TIP3    H130347   4.351   6.627   0.158 -0.2461  1.3210 -1.4750
 2904TIP3    H230348   4.473   6.689   0.223  0.3249  0.2902 -1.5338
 2905TIP3   OH230349   6.005   0.260   1.840  0.0003  0.0696  0.2776
 2905TIP3    H130350   5.949   0.330   1.875 -0.7022 -1.1435  1.7040
 2905TIP3    H230351   6.059   0.234   1.915 -0.9819 -2.0762  0.2981
 2906TIP3   OH230352   2.632   0.248   1.791 -0.2854 -0.5883  0.2437
 2906TIP3    H130353   2.635   0.192   1.869  0.3822 -0.7262  0.1251
 2906TIP3    H230354   2.691   0.321   1.813  0.0330 -0.7120 -0.1983
 2907TIP3   OH230355   6.635   0.729   0.097  0.3335 -0.1959  0.1388
 2907TIP3    H130356   6.555   0.681   0.118  1.6077 -1.1934  3.3125
 2907TIP3    H230357   6.613   0.821   0.113 -0.1367 -0.4888  1.2671
 2908TIP3   OH230358   2.952   4.022   1.054  0.5951  0.5812  0.1754
 2908TIP3    H130359   2.999   4.048   1.133 -0.6800  2.0535  0.5203
 2908TIP3    H230360   2.947   3.927   1.058  1.5995  0.5608  1.2457
 2909TIP3   OH230361   5.815   6.499   8.901 -0.3323 -0.0230  0.5539
 2909TIP3    H130362   5.860   6.559   8.962  0.2564  0.7654 -0.6164
 2909TIP3    H230363   5.875   6.424   8.893  0.4049  0.6283 -0.3164
 2910TIP3   OH230364   5.810   1.137   8.672 -0.3812 -0.4036 -0.4299
 2910TIP3    H130365   5.811   1.129   8.577 -0.8738  2.5769 -0.7640
 2910TIP3    H230366   5.721   1.112   8.697 -0.3303 -0.9306 -0.7513
 2911TIP3   OH230367   1.966   5.540   1.544  0.3863 -0.0119 -0.3216
 2911TIP3    H130368   2.028   5.607   1.516  0.9044 -0.3293  0.0471
 2911TIP3    H230369   2.020   5.474   1.587 -0.0043 -1.0832 -1.4089
 2912TIP3   OH230370   0.778   6.690   7.456 -0.1139 -0.3637 -0.0426
 2912TIP3    H130371   0.711   6.694   7.524  0.7502 -0.4516  0.8317
 2912TIP3    H230372   0.843   6.629   7.489  0.7845  0.3049 -0.5257
 2913TIP3   OH230373   0.553   1.695   0.529  0.1977 -0.3751 -0.2633
 2913TIP3    H130374   0.510   1.754   0.467  0.4600  0.0991 -0.0053
 2913TIP3    H230375   0.481   1.655   0.578 -0.0272 -1.1094 -1.1866
 2914TIP3   OH230376   1.940   6.631   8.136  0.1428  0.2389 -0.5184
 2914TIP3    H130377   2.011   6.585   8.182  0.2469  0.5279 -0.3869
 2914TIP3    H230378   1.861   6.581   8.158  0.3952 -0.5007 -1.2286
 2915TIP3   OH230379   4.651   4.610   0.782 -0.0128 -1.0797 -0.1813
 2915TIP3    H130380   4.730   4.627   0.833 -0.6659 -0.6695  0.7347
 2915TIP3    H230381   4.663   4.660   0.702  1.0331 -1.7222 -0.4498
 2916TIP3   OH230382   6.749   5.447   0.482  0.3193  0.1174  0.2603
 2916TIP3    H130383   6.710   5.382   0.541  0.9274 -0.9615 -0.5175
 2916TIP3    H230384   6.822   5.402   0.440  1.2685  1.5462  0.2974
 2917TIP3   OH230385   2.550   4.696   7.491 -0.7529 -0.3787  0.5985
 2917TIP3    H130386   2.618   4.681   7.425 -1.0489 -0.2246  0.2551
 2917TIP3    H230387   2.598   4.727   7.568 -0.5407  0.8560 -0.0185
 2918TIP3   OH230388   2.068   2.421   2.793 -0.2899  0.5643 -0.2120
 2918TIP3    H130389   2.068   2.378   2.878 -0.3280 -1.7251 -1.2883
 2918TIP3    H230390   2.160   2.425   2.768 -0.4259 -1.7005 -1.3601
 2919TIP3   OH230391   4.976   6.522   7.935 -0.1940 -0.0888 -0.1556
 2919TIP3    H130392   4.966   6.572   7.854 -0.7945 -0.8364 -0.5474
 2919TIP3    H230393   4.977   6.589   8.004 -2.2681  0.4395 -0.5621
 2920TIP3   OH230394   5.503   6.103   0.015  0.0096  0.2779 -0.6522
 2920TIP3    H130395   5.585   6.073  -0.024 -0.0080 -0.5702 -0.0543
 2920TIP3    H230396   5.530   6.167   0.081  0.2991 -0.9980  0.4909
 2921TIP3   OH230397   6.001   2.769   0.951 -0.2510 -0.0324  0.5074
 2921TIP3    H130398   6.075   2.751   0.892 -0.3846 -0.1559  0.3773
 2921TIP3    H230399   6.031   2.739   1.036 -0.4423 -0.7967  0.3073
 2922TIP3   OH230400   0.084   0.162   0.115 -0.1324 -0.1956 -0.3847
 2922TIP3    H130401   0.151   0.101   0.086  0.1359 -0.0459 -0.0834
 2922TIP3    H230402   0.011   0.106   0.143  0.4306 -0.4247  0.6924
 2923TIP3   OH230403   4.461   6.495   1.255  0.1071 -0.8515 -0.1223
 2923TIP3    H130404   4.462   6.419   1.197 -1.1934  0.3003 -1.7849
 2923TIP3    H230405   4.433   6.567   1.198  2.1133  1.0672  1.1790
 2924TIP3   OH230406   0.944   5.791   7.861  0.0507  0.6253  0.7556
 2924TIP3    H130407   0.898   5.830   7.935 -1.6282 -2.0047  1.2340
 2924TIP3    H230408   1.030   5.766   7.897 -1.3612 -2.2349  2.4847
 2925TIP3   OH230409   1.817   1.007   1.303  0.0699 -0.3703  0.2691
 2925TIP3    H130410   1.757   1.051   1.364  0.8504 -0.1551  0.8902
 2925TIP3    H230411   1.798   1.048   1.218 -0.0023  0.3653  0.6318
 2926TIP3   OH230412   2.169   2.619   0.377  0.7333 -0.4023 -0.0522
 2926TIP3    H130413   2.163   2.524   0.389 -2.2507 -0.4821 -1.3258
 2926TIP3    H230414   2.183   2.630   0.283 -0.0933  0.3890 -0.0943
 2927TIP3   OH230415   2.353   3.334   8.878 -0.0909 -0.4411 -0.2970
 2927TIP3    H130416   2.414   3.346   8.951 -1.1022 -2.8145  1.0345
 2927TIP3    H230417   2.268   3.318   8.919 -1.2262  0.6017 -2.0786
 2928TIP3   OH230418   3.888   5.425   8.368 -0.2840  0.1246  0.4191
 2928TIP3    H130419   3.950   5.381   8.310  0.9758  2.2247  0.0680
 2928TIP3    H230420   3.812   5.443   8.313  0.5315  1.2757 -0.3799
 2929TIP3   OH230421   2.513   6.455   2.335 -0.0433 -0.5896  0.4073
 2929TIP3    H130422   2.520   6.467   2.430  0.4446 -0.0426  0.3084
 2929TIP3    H230423   2.489   6.542   2.302 -0.5558 -0.8618  0.0663
 2930TIP3   OH230424   1.418   2.372   8.049  0.1167 -0.2093  0.2659
 2930TIP3    H130425   1.493   2.404   7.998 -0.4612 -0.4414 -0.7443
 2930TIP3    H230426   1.442   2.391   8.140  2.4728 -2.3800  0.2257
 2931TIP3   OH230427   2.664   4.741   0.982 -0.0323  0.0300 -0.1334
 2931TIP3    H130428   2.633   4.685   0.910  0.1842  0.7593 -0.8111
 2931TIP3    H230429   2.630   4.828   0.961  1.2561  0.5616 -0.1604
 2932TIP3   OH230430   5.902   1.050   7.575  0.2108  0.2413  0.1282
 2932TIP3    H130431   5.881   1.078   7.486 -0.5707  1.7562  0.7470
 2932TIP3    H230432   5.986   1.092   7.594  0.1268  0.3476  0.2716
 2933TIP3   OH230433   0.915   3.341   8.253  0.1956  0.0163  0.0818
 2933TIP3    H130434   0.995   3.393   8.244  0.9813 -0.7011  2.1366
 2933TIP3    H230435   0.907   3.293   8.171  1.9562  0.0394 -0.1328
 2934TIP3   OH230436   0.666   0.956   1.420 -0.4225 -0.2753 -0.3981
 2934TIP3    H130437   0.627   1.027   1.470 -0.1587 -0.0521 -0.5066
 2934TIP3    H230438   0.592   0.909   1.382 -0.5858  0.1942 -0.6738
 2935TIP3   OH230439   6.083   5.760   7.334  0.1883 -0.5330 -0.3006
 2935TIP3    H130440   6.049   5.672   7.315  1.6866 -1.3085  0.4151
 2935TIP3    H230441   6.142   5.779   7.261 -0.2729 -0.0135 -0.5498
 2936TIP3   OH230442   2.113   3.950   0.616 -0.3778  0.0676 -0.1866
 2936TIP3    H130443   2.100   3.857   0.634 -0.1417  0.1028  0.1829
 2936TIP3    H230444   2.196   3.954   0.570  0.5902  0.2630  1.4978
 2937TIP3   OH230445   3.210   0.535   8.205 -0.1938  0.2515  0.0401
 2937TIP3    H130446   3.178   0.622   8.184  1.3600  1.2031  1.3989
 2937TIP3    H230447   3.300   0.534   8.172 -0.3339 -1.0249 -0.3773
 2938TIP3   OH230448   0.819   0.509   7.639 -0.7636  0.1428 -0.2052
 2938TIP3    H130449   0.844   0.512   7.546 -2.1470 -1.0829 -0.6579
 2938TIP3    H230450   0.733   0.465   7.639  0.1832 -1.9082  1.8214
 2939TIP3   OH230451   3.400   4.858   0.228 -0.0901 -0.4346 -0.0018
 2939TIP3    H130452   3.459   4.818   0.291  3.2791  0.7868 -2.0980
 2939TIP3    H230453   3.413   4.953   0.240 -2.6585 -0.0333  0.2598
 2940TIP3   OH230454   3.481   1.156   1.315 -0.5523 -0.7773 -0.2311
 2940TIP3    H130455   3.459   1.244   1.282  0.7890 -0.5154 -0.4979
 2940TIP3    H230456   3.489   1.103   1.236  1.0412 -0.5348 -0.2843
 2941TIP3   OH230457   0.246   2.025   8.542 -1.2160 -0.5597 -0.2363
 2941TIP3    H130458   0.338   2.027   8.569 -1.4720  0.8998  0.6566
 2941TIP3    H230459   0.212   1.944   8.580 -0.0482 -1.7594 -1.5988
 2942TIP3   OH230460   0.250   4.350   0.593 -0.4597 -0.1293  0.3480
 2942TIP3    H130461   0.174   4.390   0.550 -0.7939  0.4731  1.4467
 2942TIP3    H230462   0.214   4.272   0.635 -0.0975 -0.8192 -0.6049
 2943TIP3   OH230463   2.489   4.184   2.262  0.1099  0.2444  0.1345
 2943TIP3    H130464   2.442   4.262   2.233  2.7556  2.5515  1.6356
 2943TIP3    H230465   2.439   4.153   2.337 -0.5630  0.9043 -0.0259
 2944TIP3   OH230466   3.961   4.990   7.057 -0.3293 -0.5954 -0.0363
 2944TIP3    H130467   3.906   5.015   6.982 -0.2070 -2.2615 -0.7183
 2944TIP3    H230468   3.985   4.899   7.040  2.4164 -0.0246  0.3891
 2945TIP3   OH230469   5.635   0.512   0.491 -0.3036  0.0259 -0.4585
 2945TIP3    H130470   5.555   0.471   0.524 -0.3580  0.4122 -0.1045
 2945TIP3    H230471   5.622   0.605   0.506  1.1011 -0.0417  1.6243
 2946TIP3   OH230472   1.104   6.457   6.841 -0.9001  0.7221  0.7284
 2946TIP3    H130473   1.166   6.507   6.788  0.2294 -0.2960  1.0377
 2946TIP3    H230474   1.093   6.509   6.921 -1.1634  1.3473  0.2920
 2947TIP3   OH230475   0.229   5.475   0.255  0.3096  0.3103  0.5539
 2947TIP3    H130476   0.209   5.398   0.308  1.0527  0.3305  0.8865
 2947TIP3    H230477   0.324   5.484   0.262  0.3147  0.8105 -0.1037
 2948TIP3   OH230478   1.521   2.185   7.616  0.5438 -0.2543 -0.5435
 2948TIP3    H130479   1.447   2.127   7.635 -0.5694  1.6063  1.1093
 2948TIP3    H230480   1.535   2.234   7.697 -0.0043  3.3525 -2.4477
 2949TIP3   OH230481   1.421   1.790   8.058  0.0913 -0.5989 -0.2978
 2949TIP3    H130482   1.386   1.730   8.123  1.1592 -0.2303  0.6462
 2949TIP3    H230483   1.496   1.832   8.101 -0.8246  1.6908 -0.7812
 2950TIP3   OH230484   6.471   5.901   2.449  0.0611 -0.1001  0.4486
 2950TIP3    H130485   6.554   5.932   2.411 -0.5159  1.3408  0.2723
 2950TIP3    H230486   6.460   5.955   2.527 -1.1774  0.4372 -0.0665
 2951TIP3   OH230487   2.661   6.524   7.291  0.3630  0.2964  0.4463
 2951TIP3    H130488   2.685   6.500   7.202  0.3201  1.1737  0.1829
 2951TIP3    H230489   2.744   6.525   7.339  0.4164  0.0546  0.3595
 2952TIP3   OH230490   0.150   6.587   2.126  0.3252 -0.3151 -0.3815
 2952TIP3    H130491   0.237   6.551   2.143  0.3336 -0.9525 -1.5999
 2952TIP3    H230492   0.098   6.563   2.202  0.9649 -0.8034 -0.0910
 2953TIP3   OH230493   1.974   3.731   0.198 -0.5162  0.2247 -0.2373
 2953TIP3    H130494   1.921   3.741   0.119  0.5273  0.3322 -0.9486
 2953TIP3    H230495   1.943   3.650   0.238 -3.0615  1.6357  0.8534
 2954TIP3   OH230496   3.124   6.574   2.754  0.1128 -0.0398 -0.4311
 2954TIP3    H130497   3.210   6.545   2.783 -0.6214 -0.4170  1.5385
 2954TIP3    H230498   3.089   6.500   2.705  0.7405 -0.0191 -0.9313
 2955TIP3   OH230499   0.861   4.695   1.910  0.0033 -0.1506 -0.6375
 2955TIP3    H130500   0.799   4.768   1.908 -0.6603 -0.6995 -0.2416
 2955TIP3    H230501   0.807   4.617   1.923  0.8543 -0.5118  0.9893
 2956TIP3   OH230502   0.568   0.764   8.833  0.2405 -0.3421  0.2050
 2956TIP3    H130503   0.632   0.722   8.777  3.9858  1.5762  2.6161
 2956TIP3    H230504   0.551   0.849   8.792  0.3430 -0.3011  0.2460
 2957TIP3   OH230505   6.628   4.127   1.648 -0.0616  0.3388  0.5942
 2957TIP3    H130506   6.668   4.179   1.718  1.6132 -0.7251  0.4880
 2957TIP3    H230507   6.566   4.070   1.694  0.2335  0.4020  1.0800
 2958TIP3   OH230508   6.112   0.895   1.857  0.0466  0.0650 -0.1170
 2958TIP3    H130509   6.102   0.990   1.867 -1.2165 -0.0355 -0.1646
 2958TIP3    H230510   6.100   0.880   1.763 -2.3370 -0.3503  0.1754
 2959TIP3   OH230511   6.443   4.458   0.458  0.1352  0.0146 -0.3428
 2959TIP3    H130512   6.437   4.473   0.363 -1.3130  1.5549 -0.0615
 2959TIP3    H230513   6.528   4.415   0.470  0.9994  1.0507 -2.1991
 2960TIP3   OH230514   0.604   1.742   1.091 -0.0583 -0.0722 -0.0648
 2960TIP3    H130515   0.679   1.754   1.150 -0.8928 -0.9319  1.2186
 2960TIP3    H230516   0.536   1.704   1.146 -1.1896 -0.0419 -1.3912
 2961TIP3   OH230517   4.771   2.846   1.494 -0.5621  0.0717 -1.0117
 2961TIP3    H130518   4.732   2.820   1.577 -0.6347  0.2617 -0.9844
 2961TIP3    H230519   4.800   2.936   1.508 -1.3466  0.4061 -1.4539
 2962TIP3   OH230520   2.332   1.720   2.328  0.9106  0.2255 -0.7407
 2962TIP3    H130521   2.280   1.727   2.248 -0.0248 -0.9906 -0.2657
 2962TIP3    H230522   2.301   1.792   2.384 -0.7663 -0.8513 -0.2123
 2963TIP3   OH230523   4.856   0.387   7.388  0.5563 -0.5541 -0.5892
 2963TIP3    H130524   4.866   0.440   7.467 -1.4535  1.2642 -1.4535
 2963TIP3    H230525   4.806   0.311   7.415 -0.3682  0.1980 -0.1328
 2964TIP3   OH230526   4.538   0.186   7.816  0.2892 -0.1911 -0.0311
 2964TIP3    H130527   4.487   0.153   7.741 -2.9705 -1.2227  2.4010
 2964TIP3    H230528   4.538   0.113   7.878  1.4993  1.1618  1.6320
 2965TIP3   OH230529   5.007   6.687   8.854 -0.3458  0.2756 -0.3447
 2965TIP3    H130530   5.090   6.700   8.807 -0.0985  0.5360  0.1572
 2965TIP3    H230531   5.030   6.629   8.927 -0.3453  1.2995  0.4945
 2966TIP3   OH230532   4.078   5.722   8.061  0.1175 -0.5691  0.4360
 2966TIP3    H130533   4.081   5.759   8.148  1.0921 -0.8910  0.5566
 2966TIP3    H230534   4.018   5.778   8.012 -1.6055 -1.2375  1.6830
 2967TIP3   OH230535   0.639   2.300   7.944  0.2048  0.1378  0.2774
 2967TIP3    H130536   0.595   2.320   7.861  1.0419 -5.2473 -1.8966
 2967TIP3    H230537   0.732   2.303   7.923  0.4724 -0.3710  1.3199
 2968TIP3   OH230538   1.020   1.049   1.447  0.1985  0.4325  0.1171
 2968TIP3    H130539   1.105   1.093   1.435  0.4984 -0.2864 -0.4216
 2968TIP3    H230540   0.957   1.107   1.405  0.9050 -0.8250 -2.8916
 2969TIP3   OH230541   0.071   4.909   0.974 -0.0324 -0.1252 -0.6096
 2969TIP3    H130542   0.093   4.817   0.990 -1.5133 -0.9350 -2.8012
 2969TIP3    H230543   0.072   4.949   1.060  2.1095 -1.8302  0.2583
 2970TIP3   OH230544   6.451   1.998   0.429 -0.9117  0.6257 -0.3859
 2970TIP3    H130545   6.505   2.064   0.473  0.1102 -0.1314 -0.4657
 2970TIP3    H230546   6.430   2.037   0.344 -0.2088  0.8046 -0.4869
 2971TIP3   OH230547   4.791   5.502   8.701  0.5098 -0.5176  0.4289
 2971TIP3    H130548   4.716   5.554   8.672 -0.7090 -1.2386  2.1261
 2971TIP3    H230549   4.866   5.559   8.686 -0.6309  1.2094  0.9364
 2972TIP3   OH230550   3.176   6.269   6.365 -1.1478 -0.1322 -0.2712
 2972TIP3    H130551   3.204   6.230   6.281 -0.9845 -0.2187 -0.1779
 2972TIP3    H230552   3.096   6.317   6.344 -0.1776  1.3088 -0.8425
 2973TIP3   OH230553   0.552   5.812   1.878 -0.1505 -0.1980 -0.5568
 2973TIP3    H130554   0.579   5.852   1.961 -0.6429  0.3478 -0.6577
 2973TIP3    H230555   0.599   5.729   1.876 -0.6877 -0.5464  0.6069
 2974TIP3   OH230556   5.757   5.654   1.690  0.2614 -0.0075  0.1297
 2974TIP3    H130557   5.752   5.597   1.766  0.0117 -0.6421 -0.3501
 2974TIP3    H230558   5.832   5.712   1.708 -0.5885  0.7415  1.4383
 2975TIP3   OH230559   0.138   5.886   1.467  0.6137  0.1519 -0.1880
 2975TIP3    H130560   0.145   5.910   1.374 -0.8124  0.1677 -0.3237
 2975TIP3    H230561   0.172   5.962   1.514  1.2144  0.2010 -0.6973
 2976TIP3   OH230562   6.490   5.648   8.791  0.2190 -0.0152  0.3361
 2976TIP3    H130563   6.413   5.654   8.734 -0.0954  1.0002  0.8456
 2976TIP3    H230564   6.454   5.650   8.880  0.8272  0.4102  0.5802
 2977TIP3   OH230565   1.942   3.537   2.240 -0.3134 -0.4120 -0.1590
 2977TIP3    H130566   1.898   3.620   2.259  0.5885  0.0785 -0.1671
 2977TIP3    H230567   2.029   3.547   2.278 -0.4285 -1.6351  0.4816
 2978TIP3   OH230568   4.451   0.379   8.728 -0.1201  0.2796 -0.2955
 2978TIP3    H130569   4.360   0.408   8.736 -0.3331 -0.7159  1.0507
 2978TIP3    H230570   4.446   0.294   8.685  0.2480  0.5944 -0.9784
 2979TIP3   OH230571   5.324   5.193   1.868 -0.1353 -0.0953  0.3605
 2979TIP3    H130572   5.270   5.201   1.947  0.0536 -0.6775  0.5552
 2979TIP3    H230573   5.384   5.267   1.872  0.3667 -0.5206  1.1617
 2980TIP3   OH230574   0.222   5.368   8.973  0.3493 -0.4176  0.4591
 2980TIP3    H130575   0.227   5.389   9.067  2.8890 -3.2836  1.0879
 2980TIP3    H230576   0.146   5.311   8.966 -1.4208  1.8283  0.2093
 2981TIP3   OH230577   4.557   3.752   8.091 -0.0077  0.0142 -0.1662
 2981TIP3    H130578   4.621   3.791   8.032 -1.9884  0.8485 -1.8663
 2981TIP3    H230579   4.480   3.809   8.085 -0.9854 -0.9979  1.7167
 2982TIP3   OH230580   1.514   2.903   0.461  0.1267 -0.3910  0.0518
 2982TIP3    H130581   1.583   2.962   0.491  1.3780 -1.3536 -0.8134
 2982TIP3    H230582   1.559   2.820   0.444 -1.5154 -1.4984  0.8638
 2983TIP3   OH230583   1.858   3.541   0.553 -0.0340  0.0838  0.0845
 2983TIP3    H130584   1.813   3.473   0.603  0.2801 -0.9484 -0.9939
 2983TIP3    H230585   1.845   3.516   0.461  0.2331  1.3963 -0.3349
 2984TIP3   OH230586   1.303   6.280   7.290  0.3979  0.6405  0.0876
 2984TIP3    H130587   1.248   6.349   7.253 -0.5633 -0.1925 -0.0675
 2984TIP3    H230588   1.332   6.229   7.214 -0.8259 -0.5210  0.3633
 2985TIP3   OH230589   0.497   5.286   2.789 -0.3676 -0.1926 -0.3957
 2985TIP3    H130590   0.505   5.262   2.697  1.5741 -1.0110 -0.0603
 2985TIP3    H230591   0.403   5.291   2.804 -0.7292 -0.5758 -2.2891
 2986TIP3   OH230592   4.005   1.190   0.174 -0.3269 -0.2802 -0.1712
 2986TIP3    H130593   3.951   1.156   0.102 -0.4921 -0.6107  0.1059
 2986TIP3    H230594   4.092   1.154   0.157  0.1453  1.2941 -1.3414
 2987TIP3   OH230595   0.826   5.302   0.514 -0.1338 -0.2893  0.4850
 2987TIP3    H130596   0.907   5.253   0.526  0.9454  1.2673 -0.1240
 2987TIP3    H230597   0.820   5.316   0.419 -1.0626 -0.2897  0.5298
 2988TIP3   OH230598   4.874   3.237   8.585  0.2090 -0.3013  0.2360
 2988TIP3    H130599   4.810   3.236   8.514 -0.3986  0.6487  0.7443
 2988TIP3    H230600   4.870   3.149   8.623  0.4086 -0.7568 -0.7794
 2989TIP3   OH230601   3.318   1.614   7.838  0.0850  0.3143  0.1835
 2989TIP3    H130602   3.398   1.629   7.788  0.1312 -1.6198 -0.4322
 2989TIP3    H230603   3.288   1.528   7.808 -1.3895  0.3305  1.5194
 2990TIP3   OH230604   0.361   6.564   0.633 -0.0153  0.6075 -0.1621
 2990TIP3    H130605   0.296   6.595   0.695  2.3192  1.7454  1.8807
 2990TIP3    H230606   0.358   6.468   0.641 -3.8328  0.2832 -2.8700
 2991TIP3   OH230607   6.378   4.192   7.873  0.7531 -0.3631  0.0460
 2991TIP3    H130608   6.401   4.249   7.799 -1.5865 -0.3794 -0.7772
 2991TIP3    H230609   6.390   4.103   7.840  1.7947 -0.3696  0.4259
 2992TIP3   OH230610   3.427   6.717   2.815  0.0965 -0.2711 -0.3065
 2992TIP3    H130611   3.523   6.710   2.819  0.1484  0.4739 -0.1099
 2992TIP3    H230612   3.397   6.627   2.805  0.9015 -0.4015 -1.9258
 2993TIP3   OH230613   5.351   3.897   7.807 -0.5094 -0.2953 -0.1165
 2993TIP3    H130614   5.256   3.901   7.793 -0.2553 -0.2345 -2.1739
 2993TIP3    H230615   5.372   3.804   7.800 -0.3135 -0.2256 -0.4524
 2994TIP3   OH230616   2.070   0.720   7.376 -0.6906 -0.0119 -0.1759
 2994TIP3    H130617   2.073   0.790   7.441  0.7755 -0.6575  0.4850
 2994TIP3    H230618   2.027   0.760   7.300  0.3186  1.6869  0.0961
 2995TIP3   OH230619   4.835   4.985   7.449 -0.2260 -0.2332 -0.1018
 2995TIP3    H130620   4.744   5.005   7.470 -0.7004 -1.0198 -1.2959
 2995TIP3    H230621   4.832   4.899   7.407  0.6788  0.9170 -2.7654
 2996TIP3   OH230622   4.634   2.864   0.936  0.0863  0.1451 -0.5662
 2996TIP3    H130623   4.592   2.834   1.016  0.0743  1.8088  0.0908
 2996TIP3    H230624   4.713   2.910   0.965  0.2958  0.4237 -1.5218
 2997TIP3   OH230625   2.266   5.788   6.707 -0.3772 -0.0732 -0.2636
 2997TIP3    H130626   2.183   5.818   6.668 -1.8190 -0.7791  2.0942
 2997TIP3    H230627   2.251   5.696   6.727  0.2549  0.2672  1.9712
 2998TIP3   OH230628   1.247   5.534   0.621  0.1932  0.2027  0.3501
 2998TIP3    H130629   1.235   5.556   0.714 -3.6613 -2.4266  0.6990
 2998TIP3    H230630   1.203   5.605   0.574  0.8622  0.7754  0.5647
 2999TIP3   OH230631   5.961   5.515   7.318 -0.4148  0.2986 -0.1828
 2999TIP3    H130632   5.971   5.427   7.355 -2.1797 -0.1997 -0.8078
 2999TIP3    H230633   5.962   5.501   7.223 -0.3228  1.0210 -0.2922
 3000TIP3   OH230634   1.776   4.303   8.639  0.5503  0.3639  0.2791
 3000TIP3    H130635   1.773   4.223   8.587  0.4187  1.6688 -1.8808
 3000TIP3    H230636   1.701   4.355   8.608  0.2759  1.1057  2.0348
 3001TIP3   OH230637   2.421   6.457   0.133 -0.3347 -0.2760  0.5595
 3001TIP3    H130638   2.440   6.507   0.053 -0.6569  0.2087  0.7803
 3001TIP3    H230639   2.337   6.416   0.116 -1.2438  1.1970  1.2749
 3002TIP3   OH230640   5.787   6.489   7.453 -0.3858 -0.4551 -0.3751
 3002TIP3    H130641   5.837   6.504   7.373  1.4961  1.1517  0.9984
 3002TIP3    H230642   5.807   6.398   7.477  0.9890 -0.2060 -0.4859
 3003TIP3   OH230643   5.535   2.856   8.957  0.2733  0.0169 -0.0532
 3003TIP3    H130644   5.574   2.857   8.870 -1.2370 -1.3998 -0.8170
 3003TIP3    H230645   5.490   2.771   8.961 -0.5323  0.4907  1.7222
 3004TIP3   OH230646   4.493   4.523   7.115  0.0260  0.3660 -0.3497
 3004TIP3    H130647   4.420   4.499   7.059 -0.0960 -0.1041  0.0019
 3004TIP3    H230648   4.566   4.539   7.055 -0.5668  1.6572 -0.7735
 3005TIP3   OH230649   0.269   5.551   2.013 -0.7268 -0.4090 -1.0877
 3005TIP3    H130650   0.336   5.490   1.982  2.1838  1.1204  1.5579
 3005TIP3    H230651   0.250   5.521   2.102 -2.3907  0.1671 -1.2251
 3006TIP3   OH230652   5.198   2.737   6.696 -0.1900 -0.3633  0.2779
 3006TIP3    H130653   5.221   2.747   6.604  1.3065  0.8692  0.7469
 3006TIP3    H230654   5.210   2.644   6.714 -1.0961 -0.7410 -0.8869
 3007TIP3   OH230655   2.518   4.697   2.353  0.1345 -0.2269 -0.1345
 3007TIP3    H130656   2.447   4.716   2.291 -0.3014 -1.7881 -0.1633
 3007TIP3    H230657   2.481   4.717   2.439 -0.6833 -1.8490 -0.0744
 3008TIP3   OH230658   3.626   5.696   7.784  0.4590 -0.0278 -0.0494
 3008TIP3    H130659   3.695   5.714   7.720  0.0845  1.1596 -0.1450
 3008TIP3    H230660   3.547   5.732   7.744  0.3173  1.2710  1.3148
 3009TIP3   OH230661   0.458   0.069   7.101  0.2018  0.6144  0.4112
 3009TIP3    H130662   0.540   0.106   7.067  0.7511 -0.8018  0.1180
 3009TIP3    H230663   0.406   0.053   7.022  0.8849 -1.2909  0.2880
 3010TIP3   OH230664   1.622   2.808   7.963  0.2475  0.0870  0.4633
 3010TIP3    H130665   1.565   2.855   8.024  1.9245  0.9090  1.4761
 3010TIP3    H230666   1.699   2.786   8.015  0.9524 -0.8065 -0.9051
 3011TIP3   OH230667   2.553   3.016   0.765  0.0665  0.1829 -0.3800
 3011TIP3    H130668   2.574   3.050   0.679 -1.1431 -0.7794 -1.0950
 3011TIP3    H230669   2.484   3.073   0.798 -1.1932 -0.8412 -1.1208
 3012TIP3   OH230670   0.598   4.209   1.600 -0.0647  0.0794 -0.1710
 3012TIP3    H130671   0.509   4.175   1.613 -0.0117  0.5018  1.5710
 3012TIP3    H230672   0.653   4.131   1.597 -0.6149 -0.2792 -2.8434
 3013TIP3   OH230673   4.626   0.750   2.565  0.6017  0.4462  0.1221
 3013TIP3    H130674   4.681   0.769   2.489 -2.1323  1.6151 -1.7310
 3013TIP3    H230675   4.558   0.692   2.531 -1.0424  1.4808  1.4652
 3014TIP3   OH230676   2.081   3.275   1.410  0.1487 -0.1952 -0.0781
 3014TIP3    H130677   2.032   3.275   1.328  0.0536 -1.4590 -0.0463
 3014TIP3    H230678   2.053   3.355   1.455 -0.4148  0.0897 -0.9136
 3015TIP3   OH230679   6.225   2.750   2.051  0.2281  0.0732 -0.1378
 3015TIP3    H130680   6.316   2.757   2.020 -0.0061  1.8064 -0.5131
 3015TIP3    H230681   6.173   2.796   1.986 -1.0369 -1.3734 -0.2203
 3016TIP3   OH230682   3.537   1.497   1.012 -0.2245 -0.3860 -0.6903
 3016TIP3    H130683   3.594   1.573   1.019 -2.2691  1.0554  1.9819
 3016TIP3    H230684   3.596   1.425   0.988  2.2555  1.4623 -0.5101
 3017TIP3   OH230685   1.542   1.303   1.303  0.0627 -0.8467 -0.5487
 3017TIP3    H130686   1.581   1.327   1.219 -0.7641  1.6490 -0.3227
 3017TIP3    H230687   1.453   1.275   1.282 -0.2330  0.0339 -0.5145
 3018TIP3   OH230688   1.593   2.997   2.186  0.3115  0.0590  0.4842
 3018TIP3    H130689   1.633   2.991   2.273 -0.2894 -2.4434  0.6705
 3018TIP3    H230690   1.499   3.005   2.204  0.3563  1.8859  0.0359
 3019TIP3   OH230691   4.007   0.898   1.356 -0.0032 -0.7251 -0.1218
 3019TIP3    H130692   4.047   0.969   1.407 -0.2616  1.7480 -3.0510
 3019TIP3    H230693   3.914   0.905   1.374 -0.0113 -0.3762 -0.2765
 3020TIP3   OH230694   2.506   5.366   0.866  0.0023 -0.6525  0.2903
 3020TIP3    H130695   2.431   5.315   0.835  0.3231 -1.0149  0.1065
 3020TIP3    H230696   2.476   5.456   0.865 -0.8552 -0.8976  1.3971
 3021TIP3   OH230697   5.536   1.157   1.427  0.3878 -0.2489  0.1719
 3021TIP3    H130698   5.596   1.177   1.355 -0.8369 -0.6798 -0.9926
 3021TIP3    H230699   5.532   1.062   1.429 -0.1988 -0.2228  0.2912
 3022TIP3   OH230700   4.169   4.456   0.758 -0.3737 -0.6521  0.2742
 3022TIP3    H130701   4.161   4.522   0.827 -3.1274  0.3130 -0.7971
 3022TIP3    H230702   4.202   4.504   0.683 -0.0213 -1.0738  0.1544
 3023TIP3   OH230703   2.159   2.909   7.480  0.2518 -0.0721 -0.3416
 3023TIP3    H130704   2.197   2.968   7.414  0.6291 -0.7567 -0.7455
 3023TIP3    H230705   2.122   2.837   7.429  0.6495 -0.6660  0.1927
 3024TIP3   OH230706   0.252   3.210   7.972  0.5686  0.0095  0.1739
 3024TIP3    H130707   0.254   3.177   8.062  0.2156  0.9757  0.5462
 3024TIP3    H230708   0.193   3.285   7.975  1.5582  0.8582 -0.5875
 3025TIP3   OH230709   2.380   3.965   7.841 -0.0550 -0.2759 -0.1181
 3025TIP3    H130710   2.366   4.003   7.928 -4.2788  2.0827 -1.5303
 3025TIP3    H230711   2.364   3.871   7.854  1.1813 -0.2735  1.8796
 3026TIP3   OH230712   3.380   1.662   1.838  0.0124  0.1418  0.1133
 3026TIP3    H130713   3.325   1.592   1.871  0.4628 -0.4929 -0.4539
 3026TIP3    H230714   3.448   1.674   1.904  0.0979 -0.1553  0.0789
 3027TIP3   OH230715   3.978   6.711   1.769  0.0497  0.2156 -0.0573
 3027TIP3    H130716   3.889   6.742   1.749  0.0895 -0.0277 -0.6518
 3027TIP3    H230717   3.983   6.712   1.864  0.1822  2.4082 -0.0418
 3028TIP3   OH230718   0.613   3.119   8.159  0.2767  0.0953 -0.6456
 3028TIP3    H130719   0.579   3.207   8.175  0.1234  0.2298 -1.6427
 3028TIP3    H230720   0.670   3.129   8.083 -0.3983 -0.8085 -1.2924
 3029TIP3   OH230721   5.740   0.855   7.658  0.1148  0.2643 -0.3788
 3029TIP3    H130722   5.807   0.920   7.637  1.1746 -0.0061  1.9027
 3029TIP3    H230723   5.658   0.904   7.659  1.1457  2.3614  3.9041
 3030TIP3   OH230724   4.545   5.239   1.059  0.0996 -0.5156  0.5065
 3030TIP3    H130725   4.534   5.221   0.966  1.2297 -0.1868  0.2915
 3030TIP3    H230726   4.561   5.154   1.098 -0.1246 -0.6253  0.3608
 3031TIP3   OH230727   4.198   2.973   2.261 -0.0557 -0.1155 -0.5860
 3031TIP3    H130728   4.166   2.902   2.317  0.1760 -0.2628 -0.6355
 3031TIP3    H230729   4.293   2.973   2.275 -0.0333  0.0555 -0.7368
 3032TIP3   OH230730   2.997   2.745   7.833  0.1325 -0.3700 -0.4871
 3032TIP3    H130731   3.019   2.679   7.899 -0.1663  1.0082  1.0712
 3032TIP3    H230732   3.038   2.825   7.865  1.1481  0.0948 -2.7181
 3033TIP3   OH230733   5.727   5.157   8.161 -0.3861 -0.0288  0.0662
 3033TIP3    H130734   5.822   5.147   8.160 -0.4838 -1.0597  0.0029
 3033TIP3    H230735   5.712   5.251   8.151  0.6619  0.4013  2.0109
 3034TIP3   OH230736   4.323   2.976   0.352  0.0634 -0.1887 -0.3833
 3034TIP3    H130737   4.240   2.929   0.350 -0.8343  1.3597 -0.6530
 3034TIP3    H230738   4.334   3.010   0.264  0.5995  0.2657 -0.1453
 3035TIP3   OH230739   1.135   0.550   0.976  0.6772 -0.0320 -0.0555
 3035TIP3    H130740   1.191   0.616   1.018  1.4474 -1.4008  1.1534
 3035TIP3    H230741   1.059   0.542   1.034  1.2866 -1.2327  0.6173
 3036TIP3   OH230742   1.261   1.768   0.300  0.0501 -0.2212  0.3644
 3036TIP3    H130743   1.270   1.789   0.207 -1.1967 -0.8117  0.0845
 3036TIP3    H230744   1.332   1.705   0.317  0.2106 -0.2033 -0.2127
 3037TIP3   OH230745   1.513   6.030   7.556  0.6585 -0.6521 -0.2192
 3037TIP3    H130746   1.461   6.007   7.633 -1.1379  0.0251 -1.1595
 3037TIP3    H230747   1.597   5.986   7.569 -0.1381 -1.7804  1.3890
 3038TIP3   OH230748   6.228   0.986   0.154  0.3138 -0.0249  0.2640
 3038TIP3    H130749   6.195   0.991   0.244 -1.3523 -1.1833 -0.2158
 3038TIP3    H230750   6.226   1.076   0.122  0.7258  0.3687  1.3040
 3039TIP3   OH230751   0.327   0.154   7.338  0.6104  0.6953 -0.3097
 3039TIP3    H130752   0.350   0.110   7.256  0.3748  1.7679 -0.9672
 3039TIP3    H230753   0.253   0.104   7.372  1.8578 -0.9042  0.2406
 3040TIP3   OH230754   4.510   3.983   1.864 -0.1048 -0.1565 -0.0704
 3040TIP3    H130755   4.561   3.905   1.886 -0.4707  0.1001  1.8078
 3040TIP3    H230756   4.430   3.975   1.916 -1.5603 -0.0267 -2.1452
 3041TIP3   OH230757   3.641   3.088   0.089  0.1332  0.3538  0.2017
 3041TIP3    H130758   3.728   3.094   0.127  0.0568  3.5208  0.0934
 3041TIP3    H230759   3.585   3.138   0.148 -0.9056  1.3182 -1.5197
 3042TIP3   OH230760   5.989   4.577   2.439  0.8101 -0.3369 -0.1112
 3042TIP3    H130761   5.933   4.652   2.458  1.1590 -0.0707 -0.1106
 3042TIP3    H230762   5.930   4.510   2.407  0.6754  0.4477 -1.5543
 3043TIP3   OH230763   0.444   4.158   2.762 -0.1960 -0.5563  0.7604
 3043TIP3    H130764   0.505   4.174   2.834 -0.0959  2.4313  0.1375
 3043TIP3    H230765   0.443   4.240   2.713  0.4125 -2.7040 -3.2133
 3044TIP3   OH230766   6.579   0.675   0.902 -0.4977  0.3919  1.0484
 3044TIP3    H130767   6.603   0.722   0.822 -0.0391 -0.4263  0.6934
 3044TIP3    H230768   6.570   0.743   0.968  2.9198  0.7751  1.2612
 3045TIP3   OH230769   3.523   3.617   2.050 -0.6681  0.2685  0.3024
 3045TIP3    H130770   3.508   3.523   2.061  2.6752 -0.4049  0.3145
 3045TIP3    H230771   3.466   3.659   2.114 -0.8778 -1.8776  1.6123
 3046TIP3   OH230772   6.717   4.796   2.742 -0.2268  0.0256  0.5545
 3046TIP3    H130773   6.783   4.754   2.797  1.1133 -0.4145 -1.2843
 3046TIP3    H230774   6.728   4.890   2.759  0.4837 -0.0796  0.6996
 3047TIP3   OH230775   5.129   0.437   1.207 -0.7419 -0.3772 -0.1357
 3047TIP3    H130776   5.115   0.479   1.122  0.2291  1.8461  0.7065
 3047TIP3    H230777   5.150   0.346   1.186  0.1829  0.2715 -2.3250
 3048TIP3   OH230778   6.075   1.845   8.848 -0.8518 -0.3672 -0.5625
 3048TIP3    H130779   6.097   1.753   8.866 -0.2998 -0.3614 -1.1653
 3048TIP3    H230780   6.035   1.876   8.929  0.2129 -0.7586  0.1350
 3049TIP3   OH230781   2.553   3.589   8.031  0.3712  0.0670  1.0043
 3049TIP3    H130782   2.534   3.541   8.112  1.2717 -0.5356  0.8731
 3049TIP3    H230783   2.638   3.555   8.003  0.6991  1.2511  0.5257
 3050TIP3   OH230784   0.053   4.901   7.740  0.0119 -0.4836 -0.2672
 3050TIP3    H130785  -0.009   4.829   7.748  0.1876 -0.6804 -0.6452
 3050TIP3    H230786   0.016   4.971   7.795 -0.5256 -0.6090 -0.4627
 3051TIP3   OH230787   5.791   1.140   8.396  0.2610  0.1227 -0.4394
 3051TIP3    H130788   5.768   1.232   8.409  1.2578 -0.0006  3.8020
 3051TIP3    H230789   5.714   1.102   8.355 -1.6452  2.2137  0.9489
 3052TIP3   OH230790   3.890   5.716   1.421  0.3354 -0.3421 -0.4444
 3052TIP3    H130791   3.884   5.790   1.482 -2.4588 -0.0186 -0.9564
 3052TIP3    H230792   3.971   5.732   1.372  0.3353  1.8404  0.1382
 3053TIP3   OH230793   2.979   2.835   8.308  0.0531  0.0102  0.0417
 3053TIP3    H130794   3.005   2.743   8.312  1.4217  0.3017 -1.1256
 3053TIP3    H230795   2.888   2.833   8.278 -0.5386 -0.9808  1.7642
 3054TIP3   OH230796   4.634   2.846   1.231 -0.0519 -0.5614 -0.3200
 3054TIP3    H130797   4.583   2.927   1.229 -1.5829 -1.4446  0.4907
 3054TIP3    H230798   4.682   2.849   1.314 -0.2456 -0.5483 -0.2069
 3055TIP3   OH230799   4.318   0.694   2.590  0.4866 -0.5413 -0.7279
 3055TIP3    H130800   4.322   0.651   2.675 -0.5526  0.6557 -0.0449
 3055TIP3    H230801   4.319   0.622   2.527 -2.2418 -1.7205  0.3852
 3056TIP3   OH230802   2.278   1.847   7.318 -0.1505 -0.3832  0.0518
 3056TIP3    H130803   2.202   1.804   7.277  1.6353 -3.2332 -0.6218
 3056TIP3    H230804   2.295   1.795   7.396  2.6373 -1.6361 -1.2443
 3057TIP3   OH230805   1.130   0.497   6.671  1.0159 -0.3668  0.3857
 3057TIP3    H130806   1.084   0.559   6.615  1.6305 -0.1936  0.0560
 3057TIP3    H230807   1.178   0.441   6.610  0.3758 -1.2522  0.6734
 3058TIP3   OH230808   3.762   5.877   8.811 -0.1962  0.4570  0.1345
 3058TIP3    H130809   3.763   5.949   8.874 -1.2088  2.3093 -1.8312
 3058TIP3    H230810   3.728   5.803   8.860  2.0597  0.9026  2.5785
 3059TIP3   OH230811   4.039   2.145   8.170 -0.3829 -0.3968 -0.0911
 3059TIP3    H130812   3.961   2.092   8.191 -0.3963  0.3987  2.0888
 3059TIP3    H230813   4.029   2.224   8.222  1.1973  0.3737 -0.8970
 3060TIP3   OH230814   6.311   0.350   8.416 -0.3298 -0.0137  0.2168
 3060TIP3    H130815   6.389   0.366   8.470  0.7223 -0.8212 -1.0204
 3060TIP3    H230816   6.242   0.401   8.459  0.2165 -1.3179  2.8393
 3061TIP3   OH230817   0.066   6.387   1.043  0.1073 -0.3488  0.9494
 3061TIP3    H130818   0.001   6.436   1.094 -0.4385 -0.9202  0.8198
 3061TIP3    H230819   0.040   6.295   1.054  0.4064 -0.5253  0.2173
 3062TIP3   OH230820   0.667   0.777   7.628  0.0625  0.5781  0.2707
 3062TIP3    H130821   0.728   0.704   7.636 -0.5459  0.0611  0.2584
 3062TIP3    H230822   0.588   0.747   7.673 -0.2326  1.1818  0.1629
 3063TIP3   OH230823   6.606   3.770   1.180  0.2125 -0.3283  0.2988
 3063TIP3    H130824   6.689   3.792   1.136  0.0270 -0.7116 -0.2428
 3063TIP3    H230825   6.627   3.695   1.235  0.7551  0.9210  1.8627
 3064TIP3   OH230826   0.441   2.606   7.134 -0.6288  0.3736 -0.0174
 3064TIP3    H130827   0.473   2.661   7.062  0.9942  0.9959  1.1253
 3064TIP3    H230828   0.347   2.597   7.117 -0.8946  3.1235 -0.5280
 3065TIP3   OH230829   5.317   4.046   0.813  0.0662 -0.5010  0.5619
 3065TIP3    H130830   5.285   3.961   0.783  0.4075  0.1729 -1.8912
 3065TIP3    H230831   5.238   4.101   0.818  0.2317 -0.0687 -1.1398
 3066TIP3   OH230832   2.758   0.433   7.692 -0.1935 -0.0779  0.0103
 3066TIP3    H130833   2.720   0.488   7.760 -1.3383 -1.9949  1.0311
 3066TIP3    H230834   2.730   0.344   7.716  2.5603 -1.2742 -0.8414
 3067TIP3   OH230835   6.429   1.488   6.827 -0.1775 -0.6119  0.1099
 3067TIP3    H130836   6.382   1.477   6.745 -1.3010  0.8222  0.5279
 3067TIP3    H230837   6.504   1.429   6.820  0.6743  0.6823 -2.6088
 3068TIP3   OH230838   2.007   6.694   7.732 -0.0856  0.5498 -0.3844
 3068TIP3    H130839   1.921   6.733   7.721 -0.2329 -0.1043 -1.6626
 3068TIP3    H230840   2.055   6.718   7.653  0.1120 -1.0788 -0.7855
 3069TIP3   OH230841   2.032   2.092   7.843 -0.0084  0.3978 -0.3804
 3069TIP3    H130842   2.072   2.010   7.872 -0.6483 -0.4254 -1.7427
 3069TIP3    H230843   1.938   2.077   7.850 -0.1582  1.8358  1.4939
 3070TIP3   OH230844   5.065   5.774   1.635 -0.1131  0.1196  0.2755
 3070TIP3    H130845   5.013   5.696   1.651 -0.1100  0.1366  0.3651
 3070TIP3    H230846   5.076   5.814   1.721  0.0071  0.1416  0.2507
 3071TIP3   OH230847   4.267   2.166   1.336  0.2576 -0.0584 -0.3973
 3071TIP3    H130848   4.175   2.141   1.348  0.3015  0.0569  0.2086
 3071TIP3    H230849   4.287   2.140   1.246 -0.3866 -0.0278 -0.5593
 3072TIP3   OH230850   0.884   2.896   8.018  0.0305  0.3757  0.2634
 3072TIP3    H130851   0.960   2.880   8.075 -0.4295 -2.5249  0.1889
 3072TIP3    H230852   0.808   2.880   8.075 -0.5500  2.0524  0.0086
 3073TIP3   OH230853   2.530   0.536   1.664  0.0226 -0.2672  0.1370
 3073TIP3    H130854   2.470   0.595   1.618 -0.1078  0.8681  1.6706
 3073TIP3    H230855   2.607   0.530   1.607  0.0940  1.5092 -0.0025
 3074TIP3   OH230856   6.656   4.993   0.792  0.3295  0.3583 -0.6165
 3074TIP3    H130857   6.716   4.944   0.848  1.4933  2.4356  0.0556
 3074TIP3    H230858   6.604   4.925   0.747  3.8138 -1.6327 -2.0275
 3075TIP3   OH230859   5.580   3.886   1.055 -0.0932 -0.0893 -0.3712
 3075TIP3    H130860   5.526   3.957   1.090 -0.1261  0.7605 -2.0527
 3075TIP3    H230861   5.658   3.885   1.111 -1.4577 -0.8059  1.5856
 3076TIP3   OH230862   0.285   2.595   8.428  0.2494 -0.0972 -0.5690
 3076TIP3    H130863   0.317   2.575   8.340  1.0209 -0.9019 -0.1288
 3076TIP3    H230864   0.365   2.599   8.481 -0.2978 -1.4756  0.4301
 3077TIP3   OH230865   6.267   6.141   7.358 -0.1185  0.1875 -0.8828
 3077TIP3    H130866   6.202   6.103   7.299  0.3946 -1.9291 -0.1670
 3077TIP3    H230867   6.277   6.076   7.427  1.3415  1.3571  0.0579
 3078TIP3   OH230868   6.574   4.273   7.419  0.0758 -0.2043 -1.1812
 3078TIP3    H130869   6.638   4.344   7.418  0.9820 -0.9909 -1.3359
 3078TIP3    H230870   6.546   4.265   7.328  0.2310 -0.2595 -1.2250
 3079TIP3   OH230871   1.069   4.090   2.317  0.1920  0.0316 -0.3646
 3079TIP3    H130872   0.983   4.062   2.286  0.8718  0.2291 -2.6759
 3079TIP3    H230873   1.051   4.153   2.386 -1.4536 -1.3366  0.5243
 3080TIP3   OH230874   6.201   0.151   1.381  0.2607  0.1628  0.0402
 3080TIP3    H130875   6.279   0.178   1.332 -0.4695  0.6693 -0.8686
 3080TIP3    H230876   6.162   0.233   1.411 -0.3240 -0.0398 -0.1451
 3081TIP3   OH230877   0.859   2.468   1.332  0.1496  0.4908  0.0945
 3081TIP3    H130878   0.795   2.429   1.273  0.8726  0.4153 -0.6684
 3081TIP3    H230879   0.900   2.538   1.280  1.6994 -0.4047  0.0480
 3082TIP3   OH230880   2.436   0.824   8.638  0.0491 -0.6938 -0.1198
 3082TIP3    H130881   2.513   0.806   8.583 -0.7255 -0.3348 -1.3686
 3082TIP3    H230882   2.427   0.919   8.637 -1.2401 -0.7938 -1.2193
 3083TIP3   OH230883   3.748   6.400   8.287 -0.2185  0.5748  0.5170
 3083TIP3    H130884   3.810   6.343   8.333 -0.0402  0.6831  0.4101
 3083TIP3    H230885   3.716   6.347   8.214 -1.2296  0.0464  1.3008
 3084TIP3   OH230886   0.711   0.163   8.759 -0.5551  0.0881  0.4445
 3084TIP3    H130887   0.676   0.097   8.699  0.9400 -0.7624  0.4776
 3084TIP3    H230888   0.641   0.228   8.765 -1.7271 -1.0528 -0.2558
 3085TIP3   OH230889   2.206   0.758   1.915 -0.3009  0.1685  0.0172
 3085TIP3    H130890   2.199   0.679   1.862 -3.4982  1.1348 -1.1858
 3085TIP3    H230891   2.189   0.830   1.855  0.8947  1.7120  1.4194
 3086TIP3   OH230892   3.283   1.629   2.694 -0.6737  0.6040  0.0599
 3086TIP3    H130893   3.311   1.678   2.617  0.2904 -0.9596 -0.6551
 3086TIP3    H230894   3.289   1.537   2.666 -3.0726  0.0764  1.0940
 3087TIP3   OH230895   4.258   1.448   7.325  0.3550 -0.8306  0.0580
 3087TIP3    H130896   4.336   1.469   7.275 -0.2885  0.7342 -0.3589
 3087TIP3    H230897   4.192   1.426   7.259  0.3548 -1.8668  0.3892
 3088TIP3   OH230898   1.865   0.260   6.832 -0.4396 -0.0167  0.2025
 3088TIP3    H130899   1.783   0.230   6.869  0.3094 -1.6461  0.6062
 3088TIP3    H230900   1.857   0.242   6.738 -0.5297 -0.2038  0.2461
 3089TIP3   OH230901   1.332   4.114   2.419 -0.0819 -0.2651 -0.0125
 3089TIP3    H130902   1.260   4.101   2.358  1.6738 -2.0695 -1.8544
 3089TIP3    H230903   1.380   4.189   2.384 -0.3001  0.0818  0.4267
 3090TIP3   OH230904   0.424   1.698   8.516  0.0472 -0.5446 -0.1283
 3090TIP3    H130905   0.338   1.673   8.549  0.5221 -1.8011  0.2137
 3090TIP3    H230906   0.422   1.674   8.424 -0.2742  0.2977 -0.3552
 3091TIP3   OH230907   5.997   0.299   7.351 -0.2187  0.8386  0.3500
 3091TIP3    H130908   5.928   0.323   7.288  0.5673  1.8357 -0.1699
 3091TIP3    H230909   6.041   0.382   7.370  0.5412  0.2909  1.0306
 3092TIP3   OH230910   2.269   0.420   0.441  0.0834 -0.2291 -0.1899
 3092TIP3    H130911   2.190   0.380   0.403 -0.0633  0.6337 -0.8187
 3092TIP3    H230912   2.248   0.513   0.446  1.5708  0.2235 -1.6693
 3093TIP3   OH230913   3.125   4.062   6.957  0.4595 -0.0687 -0.3797
 3093TIP3    H130914   3.164   3.979   6.986 -0.0544  0.2072  1.2083
 3093TIP3    H230915   3.198   4.123   6.955  0.4351  0.0342  0.9436
 3094TIP3   OH230916   4.820   2.991   8.223  0.2848  0.1725 -0.6254
 3094TIP3    H130917   4.806   3.018   8.313  3.1676  0.6187 -0.2245
 3094TIP3    H230918   4.898   2.935   8.227 -0.1207 -0.6192 -2.7075
 3095TIP3   OH230919   5.353   0.903   2.179  0.1731 -0.5528 -0.2244
 3095TIP3    H130920   5.443   0.872   2.187 -0.3390 -2.3670 -0.8424
 3095TIP3    H230921   5.300   0.823   2.183 -1.4369  0.4787  0.3818
 3096TIP3   OH230922   1.517   0.113   8.296 -0.2550  0.9262  0.4452
 3096TIP3    H130923   1.521   0.026   8.256  0.0206  0.5926  1.1839
 3096TIP3    H230924   1.444   0.108   8.357  0.2632  0.9542  1.0797
 3097TIP3   OH230925   4.558   0.634   0.257 -0.0612 -0.7917 -0.7525
 3097TIP3    H130926   4.613   0.663   0.184 -1.7304  3.2152 -0.6567
 3097TIP3    H230927   4.585   0.688   0.331 -1.7302 -1.2451  0.2438
 3098TIP3   OH230928   3.043   5.103   0.091  0.4404 -0.0095 -0.1230
 3098TIP3    H130929   3.043   5.175   0.155  0.0423  0.1285 -0.2819
 3098TIP3    H230930   3.136   5.087   0.075  0.5411  1.2732 -0.9900
 3099TIP3   OH230931   3.553   5.696   8.476 -0.3360 -0.5170 -0.2642
 3099TIP3    H130932   3.593   5.779   8.502  0.0562 -0.5527 -0.7365
 3099TIP3    H230933   3.537   5.650   8.559  0.3694 -0.3902 -0.0465
 3100TIP3   OH230934   4.832   4.545   8.965  0.3363  0.5667 -0.3229
 3100TIP3    H130935   4.844   4.575   9.055  1.2940  0.9415 -0.5650
 3100TIP3    H230936   4.891   4.600   8.913  1.8238 -1.4022 -0.8383
 3101TIP3   OH230937   2.235   2.489   2.161  0.3339  0.3554 -0.4249
 3101TIP3    H130938   2.223   2.469   2.254 -1.9786  0.0368 -0.7209
 3101TIP3    H230939   2.320   2.450   2.139  0.5485 -0.2896  1.3536
 3102TIP3   OH230940   6.665   6.073   7.904  0.7974  0.5453 -0.0650
 3102TIP3    H130941   6.650   5.982   7.879 -0.8645  1.2934 -2.1295
 3102TIP3    H230942   6.745   6.097   7.857  1.2546  0.1500  0.5054
 3103TIP3   OH230943   1.078   6.443   0.689 -0.0374 -0.2597  0.2103
 3103TIP3    H130944   1.071   6.458   0.594 -1.1909  2.5776  0.6261
 3103TIP3    H230945   1.159   6.394   0.700  0.5978  0.1146 -2.1877
 3104TIP3   OH230946   5.713   1.391   8.477 -0.2483 -0.1948  0.2112
 3104TIP3    H130947   5.632   1.370   8.522  0.4031  1.3451  2.2871
 3104TIP3    H230948   5.738   1.477   8.511  2.4759 -0.7955  0.0014
 3105TIP3   OH230949   2.598   0.577   8.254  0.1269  0.0911 -0.6288
 3105TIP3    H130950   2.600   0.488   8.220  0.1710 -0.3744  0.5626
 3105TIP3    H230951   2.515   0.584   8.301  1.3434 -0.2997  1.7426
 3106TIP3   OH230952   0.194   2.613   7.023 -0.3170  0.3472  0.2758
 3106TIP3    H130953   0.116   2.655   6.987  1.3541  1.5773 -2.1440
 3106TIP3    H230954   0.225   2.556   6.953  0.4416 -0.8740  1.5628
 3107TIP3   OH230955   4.430   6.149   7.833 -0.2062 -0.4170  0.2132
 3107TIP3    H130956   4.401   6.076   7.887 -2.1055  0.0422 -0.0946
 3107TIP3    H230957   4.406   6.227   7.884  0.9229  0.0093  0.1210
 3108TIP3   OH230958   1.306   4.851   0.860  0.3763  0.1857 -0.9903
 3108TIP3    H130959   1.375   4.899   0.906 -0.4120 -0.7215  1.2537
 3108TIP3    H230960   1.346   4.767   0.839  0.3782  0.1760 -0.9483
 3109TIP3   OH230961   0.484   4.764   7.153  0.1690 -0.7037 -0.0292
 3109TIP3    H130962   0.482   4.816   7.073  1.2226  0.6715  0.7765
 3109TIP3    H230963   0.424   4.691   7.137 -0.7896  0.3574 -1.5014
 3110TIP3   OH230964   3.820   4.419   2.593  0.1204 -0.3215  0.5344
 3110TIP3    H130965   3.848   4.357   2.526  0.4613 -0.1180  0.4823
 3110TIP3    H230966   3.745   4.377   2.635 -0.8490  0.0653 -0.7463
 3111TIP3   OH230967   2.748   5.195   2.606  0.3596  0.1349  0.3697
 3111TIP3    H130968   2.780   5.119   2.656 -0.0118 -0.0630  0.3118
 3111TIP3    H230969   2.770   5.270   2.660  0.7634 -0.0104  0.4148
 3112TIP3   OH230970   1.611   1.020   7.071 -0.1481 -0.1857 -0.0244
 3112TIP3    H130971   1.651   0.934   7.080  1.1584  0.2292 -1.4877
 3112TIP3    H230972   1.517   1.004   7.084  0.3675 -1.0989  4.0323
 3113TIP3   OH230973   4.173   2.648   6.500 -0.4594 -0.1076  0.3169
 3113TIP3    H130974   4.236   2.689   6.558 -2.8632 -0.2221  3.2545
 3113TIP3    H230975   4.150   2.716   6.437  0.6799  0.7428  0.8083
 3114TIP3   OH230976   5.156   5.457   1.393 -0.4549  0.6211  0.0934
 3114TIP3    H130977   5.167   5.547   1.423 -0.6010  0.5943  0.2251
 3114TIP3    H230978   5.092   5.463   1.322  1.0571  0.9171 -1.3418
 3115TIP3   OH230979   4.691   2.587   1.283 -0.6528  0.2574 -1.0866
 3115TIP3    H130980   4.643   2.659   1.242  0.8833  0.1980 -3.1857
 3115TIP3    H230981   4.648   2.574   1.368 -1.5315  3.0329 -1.0091
 3116TIP3   OH230982   1.918   2.616   2.461 -0.3190  0.1615 -0.9005
 3116TIP3    H130983   1.890   2.658   2.380  0.2093 -0.3649 -1.3649
 3116TIP3    H230984   1.981   2.549   2.434  2.3694  2.0767  0.1584
 3117TIP3   OH230985   6.484   5.162   1.946  0.1319  0.0099 -0.0416
 3117TIP3    H130986   6.526   5.077   1.933 -0.3765  0.0110 -1.9691
 3117TIP3    H230987   6.463   5.164   2.040  1.5089 -1.3346  0.3369
 3118TIP3   OH230988   4.685   3.684   1.286 -0.0700 -0.1208 -0.7133
 3118TIP3    H130989   4.615   3.747   1.306  0.8514  0.7208 -0.0438
 3118TIP3    H230990   4.673   3.614   1.350 -0.9175 -0.4961 -1.2662
 3119TIP3   OH230991   4.611   1.151   8.181  0.6533 -0.1123 -0.2276
 3119TIP3    H130992   4.692   1.100   8.186  0.5720 -0.2132  0.0609
 3119TIP3    H230993   4.638   1.241   8.199  0.5181 -0.3237  1.1076
 3120TIP3   OH230994   6.614   6.468   0.296 -0.3463 -0.0119 -0.3398
 3120TIP3    H130995   6.642   6.380   0.321  0.8703 -0.0938 -1.8547
 3120TIP3    H230996   6.542   6.455   0.236 -0.4821  0.0418 -0.1888
 3121TIP3   OH230997   3.284   4.053   2.582  0.1328 -0.6104 -0.2110
 3121TIP3    H130998   3.202   4.037   2.628  0.4641 -1.1023  0.2096
 3121TIP3    H230999   3.347   4.075   2.650  0.1410  0.7002 -0.6106
 3122TIP3   OH231000   0.499   4.705   8.850 -0.2729 -0.1751  0.1432
 3122TIP3    H131001   0.461   4.665   8.928 -0.6497 -0.2445 -0.0721
 3122TIP3    H231002   0.426   4.709   8.788 -0.8758  2.8615  0.9027
 3123TIP3   OH231003   3.209   1.471   2.021 -0.0442  0.3660 -0.2427
 3123TIP3    H131004   3.224   1.378   2.036  0.3793  0.2754 -1.1956
 3123TIP3    H231005   3.121   1.476   1.984  1.0097  0.0099 -3.0415
 3124TIP3   OH231006   4.142   6.358   0.236  0.5238  0.1510 -0.1033
 3124TIP3    H131007   4.055   6.332   0.264  0.6002 -0.3320 -0.2953
 3124TIP3    H231008   4.129   6.399   0.151  0.2365  2.0407  0.8039
 3125TIP3   OH231009   5.630   1.545   1.259  0.5928  0.5199 -0.8247
 3125TIP3    H131010   5.626   1.631   1.300  0.0173  0.6593 -1.1620
 3125TIP3    H231011   5.668   1.561   1.173  1.0049  0.3516 -0.6777
 3126TIP3   OH231012   5.724   4.609   2.182 -0.4156  0.3695 -0.3084
 3126TIP3    H131013   5.786   4.543   2.212 -0.7053  0.1679 -0.1429
 3126TIP3    H231014   5.741   4.617   2.088 -1.3382 -1.0001 -0.6224
 3127TIP3   OH231015   2.502   3.704   0.507 -0.1417 -0.3882 -0.2537
 3127TIP3    H131016   2.541   3.682   0.591  1.1514  1.8890 -0.1714
 3127TIP3    H231017   2.555   3.657   0.442  2.2123  1.7812 -0.0644
 3128TIP3   OH231018   3.988   2.733   2.008 -0.3060 -1.1177  0.9574
 3128TIP3    H131019   3.999   2.671   2.080  1.9092 -0.6691  1.0859
 3128TIP3    H231020   4.076   2.766   1.991 -0.8713 -0.6289 -1.4565
 3129TIP3   OH231021   5.355   4.061   1.608  0.4587  0.1025 -0.2045
 3129TIP3    H131022   5.274   4.040   1.655 -1.5378  0.3952 -3.2270
 3129TIP3    H231023   5.403   3.978   1.603  0.8141  0.0866  2.2791
 3130TIP3   OH231024   4.686   1.314   8.714  0.2347  0.4715  0.3743
 3130TIP3    H131025   4.636   1.236   8.692 -0.0933  0.9111 -0.4891
 3130TIP3    H231026   4.633   1.361   8.778  0.2285  0.2140  0.5589
 3131TIP3   OH231027   4.528   0.918   0.394 -0.4921  0.0746 -0.4904
 3131TIP3    H131028   4.500   0.889   0.481  0.3602  3.2242  0.9979
 3131TIP3    H231029   4.611   0.962   0.410 -1.2176  2.3921 -2.5648
 3132TIP3   OH231030   1.013   3.595   7.343 -0.7184 -0.0847  0.0175
 3132TIP3    H131031   1.032   3.620   7.433 -2.0769  0.4106  0.1869
 3132TIP3    H231032   0.993   3.678   7.299  3.7710  0.3069 -1.8259
 3133TIP3   OH231033   4.725   4.685   2.097  0.0035  0.3264 -0.1230
 3133TIP3    H131034   4.660   4.689   2.026 -1.0614 -0.4430  0.7881
 3133TIP3    H231035   4.764   4.773   2.097  0.2965  0.2457 -1.8824
 3134TIP3   OH231036   6.345   5.385   2.285 -0.6330  0.1341  0.0432
 3134TIP3    H131037   6.368   5.385   2.378 -0.9394  1.8877  0.1621
 3134TIP3    H231038   6.375   5.300   2.253 -1.1853 -0.8231  1.8866
 3135TIP3   OH231039   1.671   2.656   0.161  0.3159  0.1286 -0.2994
 3135TIP3    H131040   1.740   2.591   0.148  0.8609  0.4211  0.9704
 3135TIP3    H231041   1.688   2.722   0.094  0.4825 -0.4249 -0.8195
 3136TIP3   OH231042   0.210   0.551   0.246 -0.1244  0.1536 -0.3453
 3136TIP3    H131043   0.267   0.555   0.168  2.7070 -0.1484  1.5464
 3136TIP3    H231044   0.221   0.461   0.278 -0.4445  0.5512  0.9174
 3137TIP3   OH231045   6.159   1.298   7.863  0.5824  0.1885 -0.3415
 3137TIP3    H131046   6.071   1.331   7.846  0.5001 -0.6289 -1.6398
 3137TIP3    H231047   6.213   1.377   7.874  0.0390  0.7431 -1.4575
 3138TIP3   OH231048   1.662   2.396   6.954  0.0452 -0.0137 -0.0209
 3138TIP3    H131049   1.693   2.391   6.864 -0.5986 -1.5818 -0.1981
 3138TIP3    H231050   1.682   2.485   6.982  2.3349 -0.1654 -0.9474
 3139TIP3   OH231051   2.229   0.086   2.249  0.4290 -0.0184  0.3815
 3139TIP3    H131052   2.159   0.103   2.312 -0.2010  0.6083 -0.4558
 3139TIP3    H231053   2.228   0.162   2.191  0.6443 -0.7993 -0.6915
 3140TIP3   OH231054   6.020   3.751   8.220 -0.6651 -0.0647 -0.0201
 3140TIP3    H131055   6.079   3.685   8.183  0.2378 -0.3367  1.7912
 3140TIP3    H231056   5.936   3.735   8.177  0.2970 -0.3315 -1.9189
 3141TIP3   OH231057   4.426   0.208   2.665  0.3344 -0.0872 -0.3548
 3141TIP3    H131058   4.468   0.279   2.714  0.0495 -0.8196  1.0292
 3141TIP3    H231059   4.492   0.179   2.602  1.2572 -0.0195  0.5483
 3142TIP3   OH231060   5.101   0.446   8.377 -0.1318  0.0005 -0.3136
 3142TIP3    H131061   5.068   0.385   8.311  0.5234 -1.5873  0.7543
 3142TIP3    H231062   5.186   0.410   8.403 -0.4245  0.4906  1.4673
 3143TIP3   OH231063   0.907   5.032   2.784  0.0363 -0.7410 -0.0756
 3143TIP3    H131064   0.854   4.955   2.804  0.8315 -1.3319 -0.1911
 3143TIP3    H231065   0.914   5.032   2.688 -1.1107  0.2750 -0.1858
 3144TIP3   OH231066   3.884   5.517   2.236  0.2223 -0.2125 -0.3392
 3144TIP3    H131067   3.844   5.595   2.197  0.5044 -0.6897 -1.6628
 3144TIP3    H231068   3.960   5.550   2.283  0.4097  0.3232 -0.9918
 3145TIP3   OH231069   0.636   5.270   0.721  0.0610  0.6851  0.0922
 3145TIP3    H131070   0.686   5.229   0.649  0.0224 -0.1273  0.5131
 3145TIP3    H231071   0.702   5.294   0.786 -0.0233  0.2330  0.3494
 3146TIP3   OH231072   3.540   4.223   0.790  0.3875 -0.4921  0.3886
 3146TIP3    H131073   3.595   4.288   0.835 -1.3686 -0.0255  1.9973
 3146TIP3    H231074   3.461   4.272   0.767  0.1097 -1.4490 -0.7667
 3147TIP3   OH231075   6.303   1.647   7.377 -0.0544  0.1467 -0.5007
 3147TIP3    H131076   6.242   1.674   7.309 -1.0722  0.0458  0.3350
 3147TIP3    H231077   6.359   1.582   7.335 -1.4454 -0.8212 -0.9408
 3148TIP3   OH231078   3.721   2.702   0.994  0.0925  0.0625  0.6629
 3148TIP3    H131079   3.706   2.660   0.909 -1.1134 -0.1394  0.9520
 3148TIP3    H231080   3.773   2.779   0.974 -0.1827  0.0221 -0.2738
 3149TIP3   OH231081   5.125   6.524   0.514  0.3842 -0.4875 -0.0527
 3149TIP3    H131082   5.199   6.467   0.537 -1.2175 -2.4438  0.5121
 3149TIP3    H231083   5.108   6.506   0.422  0.0931 -0.6725  0.0356
 3150TIP3   OH231084   4.509   0.047   1.736  0.2399 -0.9156 -0.0831
 3150TIP3    H131085   4.530   0.066   1.827  1.1525  0.3190 -0.5184
 3150TIP3    H231086   4.442  -0.021   1.740  0.0825 -0.6975  1.5101
 3151TIP3   OH231087   1.366   1.605   7.847  0.0931 -0.1957  1.0292
 3151TIP3    H131088   1.403   1.669   7.907  0.5449 -0.2959  0.8615
 3151TIP3    H231089   1.383   1.641   7.760  0.3061 -0.5140  0.9356
 3152TIP3   OH231090   4.835   0.530   0.863 -0.1260 -0.0186 -0.3492
 3152TIP3    H131091   4.859   0.437   0.858 -0.3430 -0.1365  0.6467
 3152TIP3    H231092   4.740   0.529   0.873 -0.0078  0.2537  0.9501
 3153TIP3   OH231093   5.320   1.385   6.507  0.4874 -0.8299  0.1348
 3153TIP3    H131094   5.259   1.311   6.507 -1.5771  0.7752 -0.2177
 3153TIP3    H231095   5.309   1.425   6.593 -2.1289  1.8204 -1.2547
 3154TIP3   OH231096   4.477   0.768   2.162  0.4991  0.8550 -0.1199
 3154TIP3    H131097   4.392   0.725   2.163  0.3517  0.9856 -2.2953
 3154TIP3    H231098   4.482   0.815   2.245 -1.5799  0.9180  0.0096
 3155TIP3   OH231099   5.346   6.497   8.572  0.2002  0.5271 -0.5329
 3155TIP3    H131100   5.335   6.410   8.611  1.6464  0.5008 -0.1371
 3155TIP3    H231101   5.393   6.481   8.490  1.9713  1.0373  0.3281
 3156TIP3   OH231102   1.840   6.570   7.415 -0.5505 -0.2100  0.2801
 3156TIP3    H131103   1.833   6.565   7.320  1.6810  0.1115  0.0296
 3156TIP3    H231104   1.921   6.619   7.430 -0.8012 -0.3490  2.3421
 3157TIP3   OH231105   6.019   0.822   0.992  0.2123  0.7892 -0.0916
 3157TIP3    H131106   5.998   0.882   1.064 -0.3125 -0.3471  0.7474
 3157TIP3    H231107   6.054   0.744   1.036 -0.8266 -0.2302 -1.0195
 3158TIP3   OH231108   1.135   2.399   7.745 -0.2873 -0.0150  0.5391
 3158TIP3    H131109   1.132   2.442   7.831  1.2429  1.1213  0.0681
 3158TIP3    H231110   1.181   2.317   7.761 -0.0955  0.1451  0.8374
 3159TIP3   OH231111   3.690   0.371   8.099  0.3795  0.3230  0.1429
 3159TIP3    H131112   3.706   0.465   8.099  0.1354  0.4388 -2.2886
 3159TIP3    H231113   3.627   0.358   8.028  0.1884 -1.6419  0.6196
 3160TIP3   OH231114   0.795   1.598   0.603  0.1658  0.1800  0.0598
 3160TIP3    H131115   0.790   1.530   0.536 -0.4180  0.7000 -0.4316
 3160TIP3    H231116   0.726   1.660   0.581 -0.0294  0.3714  1.1364
 3161TIP3   OH231117   6.055   1.231   1.042 -1.2007 -0.0256  0.3875
 3161TIP3    H131118   5.982   1.169   1.033 -0.9064 -0.3661  0.3092
 3161TIP3    H231119   6.040   1.272   1.127 -1.2155 -0.4503  0.5948
 3162TIP3   OH231120   0.252   6.272   2.306 -0.0229  0.1659  0.0220
 3162TIP3    H131121   0.287   6.337   2.246  0.3186 -0.8634 -0.9303
 3162TIP3    H231122   0.161   6.296   2.318  0.3398  1.3798  0.4788
 3163TIP3   OH231123   4.888   6.284   8.733 -0.6504  0.1376  0.6805
 3163TIP3    H131124   4.856   6.193   8.739  0.7969 -0.5285 -0.8743
 3163TIP3    H231125   4.871   6.309   8.642  1.4436  0.4182  0.3232
 3164TIP3   OH231126   0.150   4.585   6.610 -0.1189  0.2049  0.3338
 3164TIP3    H131127   0.158   4.666   6.559  3.0686 -1.3630 -2.0381
 3164TIP3    H231128   0.090   4.530   6.560 -0.3691  0.2237  0.6134
 3165TIP3   OH231129   4.778   2.564   8.483 -0.0825  0.3328  0.4917
 3165TIP3    H131130   4.797   2.500   8.552 -1.4488 -0.6446  0.0144
 3165TIP3    H231131   4.683   2.580   8.491  0.0228  1.4125 -0.1551
 3166TIP3   OH231132   0.732   3.169   7.334  0.1059 -0.1504 -0.3011
 3166TIP3    H131133   0.735   3.126   7.419 -0.7383 -1.1131 -0.7344
 3166TIP3    H231134   0.813   3.220   7.330  0.3169 -0.3540  0.9327
 3167TIP3   OH231135   3.549   5.669   0.186 -0.3514 -0.2755  0.8210
 3167TIP3    H131136   3.469   5.678   0.238  0.4616 -1.0038  2.2433
 3167TIP3    H231137   3.587   5.586   0.214  1.5300  0.6101  1.0573
 3168TIP3   OH231138   6.282   1.864   1.634 -0.1545 -0.1264  0.5247
 3168TIP3    H131139   6.321   1.789   1.677 -0.6793 -0.3167  0.6801
 3168TIP3    H231140   6.348   1.893   1.571 -0.5383 -1.6878 -0.6674
 3169TIP3   OH231141   3.606   3.415   6.831  0.5938 -0.3577 -0.4696
 3169TIP3    H131142   3.690   3.387   6.869 -1.2033 -0.3440  4.1539
 3169TIP3    H231143   3.550   3.338   6.838 -0.2493  0.0841 -2.0706
 3170TIP3   OH231144   4.642   2.977   7.971  0.1860  0.3423  0.1205
 3170TIP3    H131145   4.582   2.970   7.896 -0.2331 -0.8974  0.5441
 3170TIP3    H231146   4.722   3.012   7.934 -0.2203  0.3294 -0.8039
 3171TIP3   OH231147   4.418   4.918   8.287  0.5415  0.4120 -0.1586
 3171TIP3    H131148   4.400   5.010   8.269 -0.7466  0.2869  0.3621
 3171TIP3    H231149   4.503   4.918   8.332 -0.2583  1.5467  1.4610
 3172TIP3   OH231150   2.888   6.136   1.415  0.4987  0.1040  0.5292
 3172TIP3    H131151   2.881   6.049   1.376  0.4500  1.2045 -2.1223
 3172TIP3    H231152   2.982   6.154   1.416  0.4007  0.8782 -1.1108
 3173TIP3   OH231153   0.306   6.482   6.590  0.2399 -0.5326  0.3532
 3173TIP3    H131154   0.239   6.548   6.567  0.4008 -0.1472  0.9679
 3173TIP3    H231155   0.291   6.411   6.528 -1.6924 -1.0944  1.3519
 3174TIP3   OH231156   0.148   2.995   2.270  0.4603  0.5277 -0.3713
 3174TIP3    H131157   0.201   2.951   2.204  1.6548  2.3930 -0.7342
 3174TIP3    H231158   0.141   3.085   2.239 -0.2644  1.0866  1.2868
 3175TIP3   OH231159   4.081   3.471   7.848 -0.0049  0.1851  0.0293
 3175TIP3    H131160   4.138   3.535   7.891  0.0339  2.2435 -2.8365
 3175TIP3    H231161   4.038   3.426   7.921  2.7390  0.8370  2.2437
 3176TIP3   OH231162   1.216   2.676   0.390 -0.3818 -0.1329  0.0712
 3176TIP3    H131163   1.122   2.663   0.385 -0.6406  0.8071  1.6790
 3176TIP3    H231164   1.253   2.613   0.328 -2.0716 -0.2502 -0.8602
 3177TIP3   OH231165   5.358   3.620   7.729 -0.2369 -0.4591  0.1970
 3177TIP3    H131166   5.306   3.551   7.688 -0.6550 -1.1847  1.8939
 3177TIP3    H231167   5.441   3.619   7.680  0.0418 -2.6512  0.6082
 3178TIP3   OH231168   2.603   1.590   7.585  0.2640 -0.4226  0.2052
 3178TIP3    H131169   2.559   1.538   7.518 -1.8178  0.6274  0.6502
 3178TIP3    H231170   2.608   1.532   7.661  2.3880 -1.5248 -0.6701
 3179TIP3   OH231171   2.637   5.025   8.565  0.6484  0.1056 -0.2071
 3179TIP3    H131172   2.723   5.005   8.604  1.1615 -2.1743 -2.2762
 3179TIP3    H231173   2.580   4.957   8.600 -0.1391  1.0854  0.4557
 3180TIP3   OH231174   1.045   1.457   8.867 -0.7013  0.4153  0.3808
 3180TIP3    H131175   1.128   1.481   8.907 -0.4766 -2.6594  2.0253
 3180TIP3    H231176   1.053   1.363   8.848 -2.7305  0.6410 -2.2364
 3181TIP3   OH231177   2.766   6.767   7.920  0.0953  0.3599 -0.0067
 3181TIP3    H131178   2.738   6.681   7.952 -0.0138  0.4630  0.1726
 3181TIP3    H231179   2.840   6.748   7.863 -0.8912  0.0021 -1.2076
 3182TIP3   OH231180   0.573   2.389   0.870 -0.3937 -0.3078  0.2605
 3182TIP3    H131181   0.605   2.437   0.946 -0.6013 -1.0328  0.8105
 3182TIP3    H231182   0.603   2.299   0.884 -1.0329 -0.5931 -0.1729
 3183TIP3   OH231183   2.878   6.603   0.991 -0.0497 -0.1040 -0.2875
 3183TIP3    H131184   2.869   6.602   0.896  0.0218 -0.5165 -0.2889
 3183TIP3    H231185   2.944   6.537   1.010  0.9553  0.9327 -0.0499
 3184TIP3   OH231186   1.984   6.602   1.452  0.2849  0.5152  0.3954
 3184TIP3    H131187   2.075   6.613   1.424 -0.4218  2.2040 -1.4538
 3184TIP3    H231188   1.985   6.624   1.546  1.8888 -0.3381  0.6147
 3185TIP3   OH231189   1.023   0.457   2.115  0.8628 -0.4378 -0.1148
 3185TIP3    H131190   1.114   0.461   2.142  0.8685  1.4244 -0.2860
 3185TIP3    H231191   0.973   0.484   2.193  0.4550 -1.3267 -0.0555
 3186TIP3   OH231192   1.165   3.022   7.620 -0.0809 -0.3211  0.1671
 3186TIP3    H131193   1.234   2.973   7.574 -0.1104 -1.5794  1.4010
 3186TIP3    H231194   1.083   2.988   7.583 -0.1278 -1.9174  1.6579
 3187TIP3   OH231195   5.418   4.458   8.561  0.1164 -0.3157  0.0221
 3187TIP3    H131196   5.440   4.426   8.649  2.4851  0.9840 -0.0090
 3187TIP3    H231197   5.496   4.441   8.509 -0.6266  0.4453 -1.3980
 3188TIP3   OH231198   5.052   5.940   7.823  0.3090 -0.1897 -0.0221
 3188TIP3    H131199   5.069   6.031   7.799  1.2524 -0.7462 -1.5705
 3188TIP3    H231200   5.138   5.905   7.849  0.1874 -0.9738 -0.6424
 3189TIP3   OH231201   1.432   5.145   0.112 -0.0257 -0.0615 -0.7846
 3189TIP3    H131202   1.361   5.206   0.096  2.4501  3.3670  0.2439
 3189TIP3    H231203   1.497   5.195   0.161  2.6623 -3.2798 -0.6639
 3190TIP3   OH231204   3.725   2.166   7.845 -0.3030  0.2636  0.2034
 3190TIP3    H131205   3.797   2.222   7.817  0.0637 -0.2067  0.1899
 3190TIP3    H231206   3.706   2.111   7.768 -1.5850  1.2818 -0.2631
 3191TIP3   OH231207   2.297   4.882   0.347 -0.1183  0.4720 -0.2747
 3191TIP3    H131208   2.365   4.934   0.389 -0.1804  1.4654 -1.3621
 3191TIP3    H231209   2.214   4.918   0.381 -0.1592  1.0496 -0.9708
 3192TIP3   OH231210   4.256   4.386   2.429  0.3775  0.1522  0.4291
 3192TIP3    H131211   4.205   4.307   2.412  0.7373  0.1837 -0.9596
 3192TIP3    H231212   4.192   4.450   2.460 -0.4283  0.1130 -1.0354
 3193TIP3   OH231213   5.874   2.097   2.154 -0.2496 -0.0705 -0.1420
 3193TIP3    H131214   5.922   2.143   2.223  0.2926  0.1324 -0.6503
 3193TIP3    H231215   5.921   2.014   2.144  0.7647  0.6305 -1.4880
 3194TIP3   OH231216   4.509   2.044   1.681  0.0685  0.2245 -0.0834
 3194TIP3    H131217   4.529   2.005   1.596  0.1146  1.1472 -0.5078
 3194TIP3    H231218   4.469   1.973   1.731 -0.1809 -0.2699 -0.9618
 3195TIP3   OH231219   0.375   2.759   6.729 -0.2539  0.0862  0.4470
 3195TIP3    H131220   0.319   2.836   6.719  1.4310  1.1098 -2.2697
 3195TIP3    H231221   0.425   2.776   6.809 -0.2967  1.5686  0.1895
 3196TIP3   OH231222   6.697   4.121   7.690 -0.0676 -0.3691  0.7085
 3196TIP3    H131223   6.646   4.042   7.673  1.1980 -1.5875  2.3149
 3196TIP3    H231224   6.702   4.165   7.605  1.8340 -3.6092 -1.0405
 3197TIP3   OH231225   5.760   3.753   7.912 -0.1213 -0.0292  0.0955
 3197TIP3    H131226   5.764   3.721   8.002  2.3805  2.5123  1.0308
 3197TIP3    H231227   5.725   3.842   7.918  1.2523  0.6575 -1.2448
 3198TIP3   OH231228   4.148   1.134   1.910  0.1319 -0.1197  0.2900
 3198TIP3    H131229   4.141   1.094   1.996 -0.2377  0.9155  0.7543
 3198TIP3    H231230   4.239   1.121   1.884  0.4034  0.1126  1.1108
 3199TIP3   OH231231   4.428   1.932   0.733  0.3533  0.4401  0.1344
 3199TIP3    H131232   4.337   1.908   0.749 -0.2697  2.0944 -0.6105
 3199TIP3    H231233   4.452   1.987   0.807 -0.2856  2.4598 -1.0736
 3200TIP3   OH231234   0.174   1.059   0.683  0.7242 -0.5571  0.7524
 3200TIP3    H131235   0.079   1.060   0.679  0.6856  0.5430  1.4119
 3200TIP3    H231236   0.202   1.014   0.604 -0.2773  1.7893 -1.0467
 3201TIP3   OH231237   3.623   4.996   0.657  0.3382  0.0255 -0.7306
 3201TIP3    H131238   3.619   4.935   0.731  1.5145  0.2485 -0.4678
 3201TIP3    H231239   3.687   5.062   0.683  0.7524  0.1286 -1.9224
 3202TIP3   OH231240   3.096   4.834   2.561  0.2646  0.2861  0.1723
 3202TIP3    H131241   3.134   4.905   2.509 -0.8537 -0.0366 -1.1588
 3202TIP3    H231242   3.037   4.878   2.622  1.3739  0.6473  1.0297
 3203TIP3   OH231243   2.537   4.992   0.938  0.3583  0.0129  0.1840
 3203TIP3    H131244   2.469   4.953   0.993 -0.7863  0.7459 -0.6647
 3203TIP3    H231245   2.558   5.075   0.980 -1.4902  1.2147 -1.1318
 3204TIP3   OH231246   3.790   5.324   7.450 -0.2641 -0.4163  0.1796
 3204TIP3    H131247   3.802   5.399   7.392  0.8424 -2.0884 -1.8926
 3204TIP3    H231248   3.713   5.278   7.414  0.6961 -1.7106 -0.2999
 3205TIP3   OH231249   5.371   2.285   1.562 -0.4008  0.0890  0.1090
 3205TIP3    H131250   5.291   2.249   1.602 -1.8186  0.4964 -2.1938
 3205TIP3    H231251   5.341   2.361   1.513  1.4742  0.4153 -0.6050
 3206TIP3   OH231252   0.589   2.683   8.294  0.3850  0.4037 -0.0596
 3206TIP3    H131253   0.614   2.595   8.266 -2.3419 -0.1124 -1.2035
 3206TIP3    H231254   0.594   2.735   8.214 -1.8003  0.2932 -0.3310
 3207TIP3   OH231255   2.044   1.687   1.447 -0.3523 -0.4646 -0.0095
 3207TIP3    H131256   2.026   1.631   1.372  0.7277 -0.3070 -0.4028
 3207TIP3    H231257   2.080   1.627   1.513 -0.9915 -0.5476  0.2690
 3208TIP3   OH231258   2.473   6.655   7.434 -0.8534 -0.2392  0.3138
 3208TIP3    H131259   2.397   6.602   7.409 -0.5653 -0.9670  0.9264
 3208TIP3    H231260   2.543   6.625   7.376 -0.8251 -0.1508  0.3029
 3209TIP3   OH231261   2.143   5.548   6.764  0.0653  0.0868 -0.2740
 3209TIP3    H131262   2.168   5.457   6.749 -0.2037 -0.0248 -0.0520
 3209TIP3    H231263   2.048   5.545   6.777  0.0873  0.3676 -0.0359
 3210TIP3   OH231264   6.143   3.551   2.104 -0.4158  0.5371  0.0384
 3210TIP3    H131265   6.118   3.475   2.051 -0.1704  1.1571 -0.9987
 3210TIP3    H231266   6.231   3.532   2.135 -0.6480  0.0707  0.4138
 3211TIP3   OH231267   3.096   1.695   0.986  0.2079  0.1143  0.0073
 3211TIP3    H131268   3.049   1.694   1.069 -0.6422 -1.2357 -0.4592
 3211TIP3    H231269   3.061   1.621   0.937  2.3999 -0.6008 -0.6146
 3212TIP3   OH231270   3.462   2.007   7.994  0.2412  0.3464 -0.0710
 3212TIP3    H131271   3.456   2.012   8.090 -1.4716 -0.5762 -0.0925
 3212TIP3    H231272   3.505   2.088   7.969 -1.3996  1.7570  1.3444
 3213TIP3   OH231273   4.381   1.481   8.342 -0.2803 -0.0293  0.0192
 3213TIP3    H131274   4.372   1.475   8.246 -0.3974 -1.2797  0.0859
 3213TIP3    H231275   4.351   1.396   8.373  0.3676  0.1377  1.1303
 3214TIP3   OH231276   3.096   2.740   1.449 -0.0796  0.0410  0.3528
 3214TIP3    H131277   3.004   2.715   1.455 -0.6110  1.8110 -0.0695
 3214TIP3    H231278   3.143   2.665   1.487 -1.5976 -1.3139 -0.3012
 3215TIP3   OH231279   6.537   4.013   1.418 -0.5891  0.1316  0.2931
 3215TIP3    H131280   6.592   3.936   1.431 -1.1993 -0.2877  0.4224
 3215TIP3    H231281   6.576   4.080   1.474  1.1106  0.5337 -1.2830
 3216TIP3   OH231282   2.284   6.754   0.029 -0.4010 -0.3383 -0.0467
 3216TIP3    H131283   2.290   6.752  -0.066  1.3391  0.2031  0.0212
 3216TIP3    H231284   2.214   6.817   0.047 -0.5386 -0.2103 -0.9638
 3217TIP3   OH231285   2.537   2.137   7.195  0.2854 -0.0047 -0.5138
 3217TIP3    H131286   2.524   2.170   7.106  2.0927  0.3454 -0.7030
 3217TIP3    H231287   2.617   2.181   7.225 -0.1980 -0.2528  1.2213
 3218TIP3   OH231288   4.638   1.891   2.028  0.3748 -0.0538 -0.1569
 3218TIP3    H131289   4.727   1.883   1.995 -0.2399  0.4014 -2.0244
 3218TIP3    H231290   4.636   1.833   2.104  2.2157 -0.1663 -0.1473
 3219TIP3   OH231291   3.543   5.016   0.991  0.1890  0.2744  0.2295
 3219TIP3    H131292   3.637   5.034   0.994  0.1954  0.3055 -0.2100
 3219TIP3    H231293   3.532   4.939   1.047  0.1954  1.4451  1.9263
 3220TIP3   OH231294   3.672   0.357   7.399  0.1984  0.2939 -0.5104
 3220TIP3    H131295   3.609   0.369   7.470  1.0963  1.2481  0.1551
 3220TIP3    H231296   3.694   0.446   7.372  0.9817 -0.0359 -0.9803
 3221TIP3   OH231297   2.187   2.278   1.362 -0.0161 -0.2871  0.1955
 3221TIP3    H131298   2.269   2.326   1.370  0.1873 -0.6463  0.3186
 3221TIP3    H231299   2.206   2.192   1.399 -0.3717 -0.4617 -0.0184
 3222TIP3   OH231300   0.775   5.641   7.723  0.0054 -0.0104  0.1664
 3222TIP3    H131301   0.837   5.690   7.776  1.7641 -0.2423 -1.5636
 3222TIP3    H231302   0.807   5.650   7.633 -3.2435  1.0194 -1.0667
 3223TIP3   OH231303   4.185   5.150   1.283  0.3428 -0.0268  0.8065
 3223TIP3    H131304   4.165   5.243   1.274 -2.2017 -0.6385 -0.7299
 3223TIP3    H231305   4.201   5.138   1.377  0.8779  1.9453  1.0172
 3224TIP3   OH231306   4.358   0.479   8.388 -0.1770 -0.4877  0.9180
 3224TIP3    H131307   4.337   0.441   8.474 -0.8023 -1.6619  0.2581
 3224TIP3    H231308   4.355   0.574   8.403 -0.7146 -0.6729  2.0896
 3225TIP3   OH231309   2.045   1.806   7.776  0.1933  0.2675  0.4554
 3225TIP3    H131310   2.068   1.835   7.687  0.2106 -0.4962  0.2027
 3225TIP3    H231311   1.977   1.740   7.763 -0.3012  0.6450  1.0582
 3226TIP3   OH231312   1.200   6.135   2.495 -0.0827  0.0922 -0.2624
 3226TIP3    H131313   1.115   6.101   2.523  1.3652 -1.9651  2.1218
 3226TIP3    H231314   1.198   6.227   2.520 -1.1032 -0.2818  1.1906
 3227TIP3   OH231315   0.331   6.264   1.831 -0.5049  0.0613 -0.1431
 3227TIP3    H131316   0.356   6.353   1.853  1.2229 -0.7703  1.5637
 3227TIP3    H231317   0.305   6.225   1.914 -0.2359 -1.3153 -0.6762
 3228TIP3   OH231318   5.578   4.803   8.567  0.1210  0.2698 -0.9067
 3228TIP3    H131319   5.553   4.893   8.584 -1.8205 -0.4812  0.5905
 3228TIP3    H231320   5.495   4.758   8.549  0.7390 -1.6419  0.5986
 3229TIP3   OH231321   0.717   5.285   0.247  0.5279 -0.2135  0.1737
 3229TIP3    H131322   0.628   5.286   0.283  0.4710 -0.7407  0.0692
 3229TIP3    H231323   0.705   5.307   0.155  0.5836  0.3669  0.3030
 3230TIP3   OH231324   1.115   6.171   0.991  0.2957 -0.2234 -0.4218
 3230TIP3    H131325   1.151   6.230   0.924 -0.1552 -0.1572 -0.6120
 3230TIP3    H231326   1.148   6.085   0.967  0.1168 -0.2026 -0.7463
 3231TIP3   OH231327   4.976   3.238   1.004 -0.4806 -0.8886  0.5382
 3231TIP3    H131328   4.948   3.208   1.091 -0.8645 -1.2517  0.2937
 3231TIP3    H231329   4.903   3.290   0.972 -0.9665 -2.0033 -0.1857
 3232TIP3   OH231330   3.489   4.171   8.438 -0.2864  0.0304  0.3956
 3232TIP3    H131331   3.457   4.087   8.471 -1.0466  0.1604  0.0256
 3232TIP3    H231332   3.414   4.208   8.391  0.4281  0.3349 -0.5446
 3233TIP3   OH231333   5.680   0.294   6.866 -0.4924 -0.0021 -0.3848
 3233TIP3    H131334   5.612   0.237   6.830 -0.6610 -0.2037  0.2414
 3233TIP3    H231335   5.640   0.381   6.866 -1.8856 -0.5252  2.6552
 3234TIP3   OH231336   5.253   1.137   1.449  0.0451  0.2821 -0.3779
 3234TIP3    H131337   5.241   1.099   1.362  0.1351 -0.5637 -0.0305
 3234TIP3    H231338   5.345   1.161   1.453 -0.4930  2.8373 -1.4881
 3235TIP3   OH231339   2.533   3.892   8.490 -0.1218 -0.7811 -0.3883
 3235TIP3    H131340   2.487   3.969   8.457 -0.8296 -0.7659  0.6027
 3235TIP3    H231341   2.493   3.819   8.443  0.7792 -0.5608 -1.5827
 3236TIP3   OH231342   5.133   1.999   2.126 -0.1775  0.8586  0.1625
 3236TIP3    H131343   5.115   2.051   2.204 -2.9865 -1.3077  1.0999
 3236TIP3    H231344   5.217   1.957   2.144 -0.8881  0.2063  2.1829
 3237TIP3   OH231345   2.009   2.002   1.120  0.7893  0.1196 -0.1646
 3237TIP3    H131346   2.081   1.996   1.183 -0.5625 -0.7669  1.3541
 3237TIP3    H231347   1.939   2.046   1.167 -0.4385 -1.0163 -0.8436
 3238TIP3   OH231348   0.543   1.593   8.826 -0.5815 -0.2848 -0.0393
 3238TIP3    H131349   0.633   1.612   8.851 -1.2852  0.8678  1.8300
 3238TIP3    H231350   0.515   1.671   8.778 -0.6390 -0.5807 -0.4940
 3239TIP3   OH231351   4.252   1.758   7.565 -0.2865 -0.5571 -0.2427
 3239TIP3    H131352   4.161   1.754   7.535  0.2879 -0.0768 -2.1401
 3239TIP3    H231353   4.244   1.767   7.661 -2.1800 -2.5655 -0.1319
 3240TIP3   OH231354   0.356   1.412   8.914 -0.2606  0.1463  0.6781
 3240TIP3    H131355   0.398   1.484   8.867 -1.4283  0.0025 -0.6793
 3240TIP3    H231356   0.424   1.346   8.923  0.7483  1.2794  1.6913
 3241TIP3   OH231357   4.189   1.083   1.501 -0.2614 -0.1207 -0.0268
 3241TIP3    H131358   4.123   1.152   1.491  1.2446  1.2915 -0.6665
 3241TIP3    H231359   4.165   1.039   1.583 -0.4153  2.2061  1.2831
 3242TIP3   OH231360   4.347   0.627   1.285  0.1373  0.1729  0.1907
 3242TIP3    H131361   4.321   0.690   1.351 -1.4551 -1.5304  1.3036
 3242TIP3    H231362   4.297   0.651   1.207  2.1366  2.2819 -0.5397
 3243TIP3   OH231363   2.745   1.428   8.735  0.6527  0.3363 -0.2644
 3243TIP3    H131364   2.809   1.484   8.779  0.8038 -0.5114  0.6209
 3243TIP3    H231365   2.785   1.342   8.733 -0.6717 -0.3344  0.7812
 3244TIP3   OH231366   3.232   2.621   8.169 -1.0361 -0.5123 -0.2242
 3244TIP3    H131367   3.231   2.638   8.075 -0.0176 -0.5369 -0.2584
 3244TIP3    H231368   3.282   2.540   8.178  0.7318  0.5815  0.4599
 3245TIP3   OH231369   3.614   3.525   7.717 -0.8856 -0.0489 -0.0378
 3245TIP3    H131370   3.522   3.498   7.712 -1.0694  0.3167  1.0399
 3245TIP3    H231371   3.660   3.465   7.659 -1.9002  0.2155 -1.1673
 3246TIP3   OH231372   5.113   4.343   8.526  0.4499 -0.2259  0.4768
 3246TIP3    H131373   5.130   4.351   8.432  2.0781  3.4253  0.8932
 3246TIP3    H231374   5.174   4.276   8.556  1.7801  0.3933 -0.7303
 3247TIP3   OH231375   0.817   6.627   1.090  0.0783 -0.0012 -0.0500
 3247TIP3    H131376   0.764   6.554   1.059  0.4343 -0.3006  0.0311
 3247TIP3    H231377   0.902   6.587   1.110 -0.0748  0.2109  1.1273
 3248TIP3   OH231378   2.224   5.504   8.737 -0.1349 -0.3021 -0.0889
 3248TIP3    H131379   2.285   5.559   8.687  2.1917 -1.2938  1.4695
 3248TIP3    H231380   2.224   5.421   8.690  0.0554 -0.4226  0.1183
 3249TIP3   OH231381   3.096   0.549   1.016  0.2436  0.2308  0.2817
 3249TIP3    H131382   3.172   0.523   1.068  1.0380  1.0257 -0.4573
 3249TIP3    H231383   3.133   0.590   0.938 -0.9413  1.7038  0.4445
 3250TIP3   OH231384   1.070   4.239   8.770 -0.0124 -0.2450 -0.0287
 3250TIP3    H131385   0.982   4.261   8.739  0.5487  1.8765 -0.2884
 3250TIP3    H231386   1.101   4.170   8.711 -1.1548 -0.3815 -0.4894
 3251TIP3   OH231387   3.154   3.759   8.677  0.3634 -0.1727 -0.3767
 3251TIP3    H131388   3.161   3.664   8.683  1.0231 -0.1367 -0.4796
 3251TIP3    H231389   3.063   3.778   8.696  0.0570 -0.8909 -1.0597
 3252TIP3   OH231390   4.961   0.766   8.838  0.3735 -0.1943 -0.2040
 3252TIP3    H131391   5.028   0.818   8.794  1.0587 -0.6867  0.2501
 3252TIP3    H231392   4.879   0.812   8.819  0.5592 -0.7343 -2.4907
 3253TIP3   OH231393   6.237   6.271   1.778  0.4216  0.2522 -0.0022
 3253TIP3    H131394   6.239   6.222   1.861 -0.7732 -0.7123 -0.4962
 3253TIP3    H231395   6.315   6.242   1.731  0.4324 -0.1733  0.2712
 3254TIP3   OH231396   5.384   6.419   0.584 -0.1934  0.4005  0.0799
 3254TIP3    H131397   5.442   6.457   0.518 -0.3462 -1.2354 -1.0652
 3254TIP3    H231398   5.426   6.438   0.668  1.3502  0.3444 -0.6522
 3255TIP3   OH231399   0.386   6.611   7.889 -0.5844 -0.0851  0.0357
 3255TIP3    H131400   0.323   6.663   7.939  0.3774 -1.0179  2.3667
 3255TIP3    H231401   0.472   6.636   7.925  0.0227 -2.0257  0.0766
 3256TIP3   OH231402   6.195   5.777   8.053 -0.2625  0.3697 -0.7393
 3256TIP3    H131403   6.218   5.696   8.007 -0.0249 -0.6378  1.0812
 3256TIP3    H231404   6.268   5.837   8.034  0.0807 -0.1914 -1.2282
 3257TIP3   OH231405   0.402   5.655   8.129  0.0475 -0.2664 -0.3269
 3257TIP3    H131406   0.404   5.751   8.121 -1.7521 -0.1103  0.5755
 3257TIP3    H231407   0.380   5.623   8.042 -1.0513  0.2631 -0.2557
 3258TIP3   OH231408   1.211   2.585   1.327 -0.1975 -0.0892 -0.0181
 3258TIP3    H131409   1.155   2.581   1.405  1.6290  0.3005  1.3651
 3258TIP3    H231410   1.193   2.672   1.290 -1.1760 -0.3290 -0.1340
 3259TIP3   OH231411   1.735   0.363   8.720 -0.0109  0.7078  0.3394
 3259TIP3    H131412   1.685   0.428   8.770  0.8155  0.8304  1.0279
 3259TIP3    H231413   1.817   0.407   8.698  0.2641  0.1291  0.2007
 3260TIP3   OH231414   2.299   5.415   2.078 -0.0129  0.4875  0.3728
 3260TIP3    H131415   2.391   5.437   2.094  0.3764 -0.7015 -0.1569
 3260TIP3    H231416   2.296   5.319   2.084 -1.0152  0.4425 -0.6464
 3261TIP3   OH231417   1.177   6.027   1.908 -0.3336  0.0008  0.5239
 3261TIP3    H131418   1.150   6.116   1.883 -1.4913 -0.1052  1.3169
 3261TIP3    H231419   1.100   5.973   1.891  0.7228 -1.0849 -1.0219
 3262TIP3   OH231420   6.000   4.531   1.910 -0.7951  0.3383 -0.1279
 3262TIP3    H131421   6.025   4.622   1.921 -0.7441  0.2861  0.2078
 3262TIP3    H231422   5.917   4.535   1.863 -0.6518  0.5462 -0.3656
 3263TIP3   OH231423   4.640   5.838   1.235  0.2505 -0.0463 -0.5762
 3263TIP3    H131424   4.683   5.856   1.318 -1.1267  1.3022 -0.0923
 3263TIP3    H231425   4.711   5.815   1.175  1.3479 -0.2975  0.7757
 3264TIP3   OH231426   5.138   1.352   0.269 -0.0172 -0.4280 -0.3585
 3264TIP3    H131427   5.176   1.366   0.182 -0.2030  0.0305 -0.3695
 3264TIP3    H231428   5.055   1.400   0.267 -0.0430 -0.4530  0.0540
 3265TIP3   OH231429   5.007   6.103   8.488 -0.4604  0.0051 -0.1571
 3265TIP3    H131430   5.038   6.057   8.566  0.8637 -0.9906 -1.2173
 3265TIP3    H231431   4.916   6.076   8.478 -0.1734 -1.1042  0.1576
 3266TIP3   OH231432   1.888   4.838   8.292  0.5933 -0.6798 -0.2914
 3266TIP3    H131433   1.808   4.888   8.311  0.0698 -1.0519 -1.4386
 3266TIP3    H231434   1.921   4.812   8.378  0.6170  1.2138  0.3260
 3267TIP3   OH231435   1.553   1.545   1.431  0.3324  0.2535  0.4973
 3267TIP3    H131436   1.577   1.601   1.358  0.7174 -0.4180  0.1000
 3267TIP3    H231437   1.560   1.456   1.397  0.0498 -0.0527  1.2106
 3268TIP3   OH231438   5.467   6.653   8.204  0.6476 -0.0014 -0.0492
 3268TIP3    H131439   5.449   6.565   8.235  0.8109 -0.8317 -2.1012
 3268TIP3    H231440   5.536   6.642   8.138 -1.0587  1.2542 -2.2058
 3269TIP3   OH231441   6.462   5.769   0.177  0.1728  0.8020 -0.2812
 3269TIP3    H131442   6.530   5.768   0.243  0.9993 -0.8419 -1.1202
 3269TIP3    H231443   6.458   5.861   0.148  0.0471  1.4672  1.7326
 3270TIP3   OH231444   2.316   5.074   7.675  0.3043  0.2485  0.0553
 3270TIP3    H131445   2.307   5.072   7.579 -1.8205  0.5876  0.1957
 3270TIP3    H231446   2.323   4.982   7.700  0.8914  0.1578 -0.4092
 3271TIP3   OH231447   2.957   2.595   8.858  0.4135 -0.1431  0.6348
 3271TIP3    H131448   3.041   2.563   8.827 -0.5656 -1.4848 -0.7607
 3271TIP3    H231449   2.931   2.661   8.794 -0.1076 -0.5536  0.4165
 3272TIP3   OH231450   5.697   5.568   7.375  0.4162 -0.4651 -0.1233
 3272TIP3    H131451   5.786   5.536   7.364  1.0557  0.3365  2.2018
 3272TIP3    H231452   5.649   5.493   7.410  0.4475 -0.5622 -0.2853
 3273TIP3   OH231453   3.871   2.116   1.623  0.1270 -0.2110  0.3041
 3273TIP3    H131454   3.812   2.092   1.694 -0.1230  0.7681  0.4501
 3273TIP3    H231455   3.930   2.042   1.614 -0.4298 -0.7404  0.9004
 3274TIP3   OH231456   3.267   5.021   6.721  0.2202 -0.1776 -0.1826
 3274TIP3    H131457   3.259   5.112   6.750 -1.7621 -0.6999  1.1554
 3274TIP3    H231458   3.274   4.971   6.802 -0.3944 -1.3414 -0.8279
 3275TIP3   OH231459   6.323   0.704   0.591  0.2246  0.8879  0.8278
 3275TIP3    H131460   6.232   0.684   0.567  0.5397  0.4863 -0.0302
 3275TIP3    H231461   6.324   0.696   0.687 -0.2767 -0.6703  0.7269
 3276TIP3   OH231462   3.135   6.164   7.139  0.2169  0.1367 -0.4128
 3276TIP3    H131463   3.117   6.126   7.053  0.1209 -2.2906  0.5982
 3276TIP3    H231464   3.196   6.103   7.180  1.1707  1.8498  0.8364
 3277TIP3   OH231465   0.072   5.128   0.165  0.4027  0.3136  0.6524
 3277TIP3    H131466   0.011   5.166   0.229 -1.1187  1.6539 -1.4394
 3277TIP3    H231467   0.040   5.038   0.152  0.1570  0.3364  1.0809
 3278TIP3   OH231468   2.233   1.591   2.736  0.0872  1.1709  0.0972
 3278TIP3    H131469   2.172   1.540   2.790  0.7137 -0.8409 -0.9902
 3278TIP3    H231470   2.189   1.675   2.724 -2.1225  0.0936  0.0470
 3279TIP3   OH231471   2.797   5.834   1.567 -0.0136  0.1237  1.1199
 3279TIP3    H131472   2.806   5.867   1.478  0.8827  4.8743  2.6803
 3279TIP3    H231473   2.707   5.855   1.591  0.4038  0.9824  1.9926
 3280TIP3   OH231474   3.708   2.950   7.588  0.4469  0.4005  0.2005
 3280TIP3    H131475   3.667   2.864   7.581  0.2452  0.3912  1.2755
 3280TIP3    H231476   3.703   2.987   7.500 -1.5020  0.2188  0.1968
 3281TIP3   OH231477   6.684   1.222   1.174  0.9447 -0.2486  0.2214
 3281TIP3    H131478   6.709   1.257   1.260 -1.8192  0.0900  1.0015
 3281TIP3    H231479   6.648   1.136   1.193 -0.8310  0.3206 -0.3596
 3282TIP3   OH231480   4.810   6.231   8.116  0.3368 -0.0460 -0.4519
 3282TIP3    H131481   4.895   6.272   8.135  0.9235 -0.7462 -1.4368
 3282TIP3    H231482   4.832   6.150   8.070 -0.8768  0.1775 -1.5120
 3283TIP3   OH231483   3.742   0.855   8.581 -0.3235  0.1606 -0.1273
 3283TIP3    H131484   3.652   0.833   8.558  0.0570 -1.9297  0.1428
 3283TIP3    H231485   3.787   0.770   8.583  1.1558  0.9221  1.8118
 3284TIP3   OH231486   0.719   4.198   1.027  0.1408  0.1140  0.6315
 3284TIP3    H131487   0.757   4.182   1.113  1.4834  0.3390  0.1061
 3284TIP3    H231488   0.708   4.293   1.022  1.3593  0.2545  0.0709
 3285TIP3   OH231489   4.609   6.393   8.051  0.1722 -0.5580  0.2658
 3285TIP3    H131490   4.645   6.441   7.977 -0.1458  0.5182  0.7817
 3285TIP3    H231491   4.678   6.332   8.077  0.6004 -0.3583 -0.3871
 3286TIP3   OH231492   6.118   6.695   7.654 -0.5201  0.4408 -0.9240
 3286TIP3    H131493   6.087   6.784   7.634 -0.0989  0.5836 -0.9564
 3286TIP3    H231494   6.204   6.690   7.612 -1.0199 -0.3771 -1.9194
 3287TIP3   OH231495   2.463   6.242   8.358  0.5021  0.4756 -0.2368
 3287TIP3    H131496   2.438   6.192   8.436  1.1688  2.9631  1.6962
 3287TIP3    H231497   2.556   6.222   8.346  0.5448  0.5640 -0.0451
 3288TIP3   OH231498   6.592   0.387   8.619  0.1140 -0.4119  0.0522
 3288TIP3    H131499   6.662   0.368   8.556  0.9465  0.4889  0.6817
 3288TIP3    H231500   6.573   0.480   8.606  0.9891  0.0409  1.7916
 3289TIP3   OH231501   2.653   4.490   8.134  0.0594  0.1097  0.0092
 3289TIP3    H131502   2.561   4.483   8.159  0.5737 -0.3727  1.9179
 3289TIP3    H231503   2.664   4.582   8.110 -1.1567 -0.0690 -1.4733
 3290TIP3   OH231504   1.592   0.514   0.312 -0.1400  0.1860 -0.2930
 3290TIP3    H131505   1.601   0.585   0.249 -0.0436  2.0979  1.7382
 3290TIP3    H231506   1.503   0.482   0.300  0.3326 -0.4719 -2.3192
 3291TIP3   OH231507   6.763   4.399   0.524  0.4082  0.1606 -0.2041
 3291TIP3    H131508   6.756   4.441   0.610 -0.3633 -0.3530 -0.0061
 3291TIP3    H231509   6.740   4.307   0.540  3.3564 -0.7078 -0.3725
 3292TIP3   OH231510   6.035   1.504   6.828 -0.2107 -0.1256  0.1852
 3292TIP3    H131511   5.988   1.534   6.905  0.4612 -0.2718  0.6645
 3292TIP3    H231512   5.978   1.438   6.789 -0.8774  0.4628  0.1460
 3293TIP3   OH231513   3.655   5.467   6.828  0.2717  0.2211 -0.4875
 3293TIP3    H131514   3.579   5.416   6.800  2.2033 -1.3221 -3.4959
 3293TIP3    H231515   3.639   5.555   6.792 -0.4924  0.1973 -0.2338
 3294TIP3   OH231516   0.395   0.967   1.543  0.2927  0.4053  0.1070
 3294TIP3    H131517   0.447   0.902   1.592 -1.2910 -0.4708  0.7091
 3294TIP3    H231518   0.450   1.045   1.542  0.7057  0.2533  2.7357
 3295TIP3   OH231519   4.915   3.648   1.904 -0.1883  0.1287  0.0503
 3295TIP3    H131520   4.932   3.572   1.958 -0.7422  0.3298  0.5173
 3295TIP3    H231521   4.929   3.617   1.814 -1.7609 -0.9204  0.1291
 3296TIP3   OH231522   5.750   1.602   8.918  0.2678 -0.8017 -0.3508
 3296TIP3    H131523   5.826   1.641   8.875  0.0500 -0.6375 -0.5913
 3296TIP3    H231524   5.675   1.643   8.875  0.0465 -0.6552  0.1659
 3297TIP3   OH231525   3.574   5.068   8.931 -0.1269 -0.2470  0.5636
 3297TIP3    H131526   3.610   4.984   8.959 -1.4321 -0.8271  0.5435
 3297TIP3    H231527   3.648   5.112   8.888  0.9449 -0.7786  1.8107
 3298TIP3   OH231528   0.998   0.679   7.722  0.0552  0.1308  0.1924
 3298TIP3    H131529   0.932   0.616   7.692  0.1620  0.1128 -0.0066
 3298TIP3    H231530   0.996   0.749   7.656 -0.1695  0.4137  0.4901
 3299TIP3   OH231531   5.298   1.538   0.395 -0.3163 -0.3225 -0.5466
 3299TIP3    H131532   5.229   1.473   0.388 -0.9657 -0.0424  2.1403
 3299TIP3    H231533   5.373   1.499   0.351 -1.2111 -2.1008 -0.5571
 3300TIP3   OH231534   6.367   3.393   2.381  0.0908 -0.0100  0.4176
 3300TIP3    H131535   6.374   3.459   2.312 -1.5878  1.5293  1.5964
 3300TIP3    H231536   6.286   3.346   2.361 -0.6709  0.7689  1.5291
 3301TIP3   OH231537   5.810   1.516   0.169  0.2129 -0.0212  0.4490
 3301TIP3    H131538   5.744   1.538   0.236 -0.8123 -1.6893  0.0299
 3301TIP3    H231539   5.775   1.554   0.088  1.8406  2.7068  0.8859
 3302TIP3   OH231540   2.833   6.239   7.459  0.4985 -0.3638  0.1291
 3302TIP3    H131541   2.892   6.228   7.384  1.1970 -0.7666  0.7304
 3302TIP3    H231542   2.811   6.332   7.458  1.7247 -0.0526  0.3123
 3303TIP3   OH231543   4.941   3.023   2.270  0.5524  0.3738  0.0277
 3303TIP3    H131544   4.975   2.990   2.353 -1.8174 -1.3099  0.4312
 3303TIP3    H231545   5.013   3.074   2.232  1.3910  2.1078  3.5551
 3304TIP3   OH231546   5.403   0.676   1.059 -0.1417 -0.0522 -0.1460
 3304TIP3    H131547   5.312   0.703   1.049 -0.3317 -0.7832 -0.4760
 3304TIP3    H231548   5.403   0.615   1.132  0.1984  0.4352  0.2716
 3305TIP3   OH231549   3.129   3.468   8.655 -0.1888 -0.1800  0.0185
 3305TIP3    H131550   3.216   3.472   8.615  0.1758 -1.8610  0.5780
 3305TIP3    H231551   3.093   3.385   8.625 -1.2514  0.0857  0.5317
 3306TIP3   OH231552   0.838   5.251   2.112  0.6800  0.3372  0.0988
 3306TIP3    H131553   0.867   5.342   2.116 -1.9163  1.2112  2.1336
 3306TIP3    H231554   0.907   5.201   2.155  0.6880  1.8394  1.9458
 3307TIP3   OH231555   2.896   2.855   8.613  0.1347 -0.0641  0.1863
 3307TIP3    H131556   2.915   2.840   8.520  0.2129 -0.3955  0.2549
 3307TIP3    H231557   2.844   2.935   8.614  1.4233  0.8056 -0.0079
 3308TIP3   OH231558   2.920   6.498   2.303  0.1523  0.0298  0.3260
 3308TIP3    H131559   2.866   6.534   2.232 -0.1300 -0.9515  0.0346
 3308TIP3    H231560   2.909   6.403   2.296  2.2751 -0.2329 -0.0160
 3309TIP3   OH231561   1.639   5.094   1.239 -0.1165 -0.2281 -0.0252
 3309TIP3    H131562   1.706   5.144   1.192  0.3720  0.7252  1.5920
 3309TIP3    H231563   1.682   5.012   1.262  0.9158  0.7570  1.8432
 3310TIP3   OH231564   1.310   6.374   0.518 -1.0594  0.2775 -0.4031
 3310TIP3    H131565   1.380   6.337   0.572 -0.7351  0.0785 -0.9564
 3310TIP3    H231566   1.333   6.466   0.508 -1.1951  0.3479 -0.0919
 3311TIP3   OH231567   5.032   0.406   7.719  0.0159 -0.2050 -0.1725
 3311TIP3    H131568   4.953   0.353   7.729  0.3438 -0.8048 -0.6209
 3311TIP3    H231569   5.007   0.475   7.658  0.1003 -0.9998 -1.1465
 3312TIP3   OH231570   3.404   3.464   7.535  0.1178  0.2569  0.3546
 3312TIP3    H131571   3.422   3.488   7.444  0.6755  0.5837  0.5437
 3312TIP3    H231572   3.373   3.374   7.530 -1.1217  0.6925 -0.2853
 3313TIP3   OH231573   6.568   1.083   1.947  0.0616 -0.1310 -0.2325
 3313TIP3    H131574   6.582   1.123   2.033 -2.2605 -0.9651  0.6165
 3313TIP3    H231575   6.637   1.017   1.940  1.4653  1.2424  0.1023
 3314TIP3   OH231576   4.332   2.427   0.549 -0.4555  0.0798  0.2037
 3314TIP3    H131577   4.252   2.480   0.552  0.4625  1.6028 -0.7945
 3314TIP3    H231578   4.383   2.456   0.625 -0.5244 -0.3693  0.4260
 3315TIP3   OH231579   5.477   2.400   0.842  0.2590  0.0796 -0.1111
 3315TIP3    H131580   5.426   2.408   0.762 -0.7472 -0.2143  0.4905
 3315TIP3    H231581   5.456   2.479   0.892 -0.0578 -0.3099  0.3827
 3316TIP3   OH231582   3.209   6.122   1.760 -0.0466 -0.1619 -0.3089
 3316TIP3    H131583   3.153   6.190   1.799 -0.0615 -0.5706  0.3928
 3316TIP3    H231584   3.172   6.108   1.673 -1.0697 -0.4578  0.1566
 3317TIP3   OH231585   4.711   3.471   7.815  0.3424 -0.4254  0.3729
 3317TIP3    H131586   4.623   3.439   7.838  0.5070 -1.0228  0.1870
 3317TIP3    H231587   4.748   3.500   7.898  0.9675 -2.6389  0.9302
 3318TIP3   OH231588   5.531   1.546   8.265  0.2007 -0.3085 -0.1094
 3318TIP3    H131589   5.605   1.488   8.284  0.4320 -0.0023 -0.0603
 3318TIP3    H231590   5.453   1.491   8.278  0.4055 -0.5071  0.2943
 3319TIP3   OH231591   2.844   6.200   6.843 -0.2560  0.0794 -0.1271
 3319TIP3    H131592   2.903   6.271   6.865  0.4765 -1.2050  2.5470
 3319TIP3    H231593   2.767   6.243   6.805  0.0294  2.3290  1.6319
 3320TIP3   OH231594   5.124   4.898   1.509  0.4706 -0.3063 -0.1698
 3320TIP3    H131595   5.090   4.825   1.458  0.9369 -0.5151 -0.1851
 3320TIP3    H231596   5.166   4.955   1.445  0.8247 -0.4343 -0.0492
 3321TIP3   OH231597   4.775   1.387   8.224 -0.0759  0.6486 -0.8989
 3321TIP3    H131598   4.854   1.368   8.274 -1.9357 -1.4037  1.4852
 3321TIP3    H231599   4.727   1.451   8.276  0.1242  2.2294 -2.5418
 3322TIP3   OH231600   5.717   4.600   6.774 -0.1150  0.6874 -0.1691
 3322TIP3    H131601   5.750   4.515   6.804 -0.3489  1.1030  1.3539
 3322TIP3    H231602   5.633   4.609   6.818  0.2105  2.0023  0.2005
 3323TIP3   OH231603   2.087   1.576   0.795 -0.0415  0.0390 -0.0672
 3323TIP3    H131604   2.162   1.534   0.753  0.2069  0.1835  0.2273
 3323TIP3    H231605   2.123   1.618   0.873 -0.5838 -0.6863  0.5938
 3324TIP3   OH231606   1.458   0.597   1.320 -0.2987 -0.6143  0.0171
 3324TIP3    H131607   1.481   0.645   1.399 -0.8526 -1.6489  0.8280
 3324TIP3    H231608   1.400   0.657   1.272  1.7013  0.8673 -0.6794
 3325TIP3   OH231609   2.972   1.080   0.264 -0.0033  0.1651 -0.1497
 3325TIP3    H131610   3.036   1.012   0.243 -1.1279 -1.4230  1.2566
 3325TIP3    H231611   2.957   1.071   0.358  1.1296  3.6327  0.4742
 3326TIP3   OH231612   3.810   1.520   7.770 -0.3767  0.2982 -0.1819
 3326TIP3    H131613   3.790   1.481   7.855 -0.3485 -0.6865 -0.6149
 3326TIP3    H231614   3.724   1.533   7.729 -0.4969  2.1293  0.5524
 3327TIP3   OH231615   5.395   2.147   7.022  0.2037 -0.0643 -0.0484
 3327TIP3    H131616   5.337   2.148   6.946 -0.8212  0.0615  0.7222
 3327TIP3    H231617   5.440   2.062   7.016  1.7517  0.8272 -1.9546
 3328TIP3   OH231618   3.850   2.695   6.243  0.2495  0.9274 -0.4474
 3328TIP3    H131619   3.873   2.743   6.164  1.6318  0.5177 -0.3223
 3328TIP3    H231620   3.822   2.762   6.305 -1.0175  1.2378 -1.3115
 3329TIP3   OH231621   4.016   2.474   7.817 -0.0414  0.3656  0.3989
 3329TIP3    H131622   4.005   2.395   7.765 -0.4098 -0.5185  1.7600
 3329TIP3    H231623   4.085   2.523   7.773 -2.4805  1.3095 -2.8299
 3330TIP3   OH231624   3.633   6.118   8.292 -0.0185 -0.0383  0.3487
 3330TIP3    H131625   3.570   6.157   8.353 -1.7871  0.4175 -1.6223
 3330TIP3    H231626   3.585   6.045   8.252  0.6855  0.3154 -1.2152
 3331TIP3   OH231627   2.291   2.659   0.619  0.1724  0.5366  0.6374
 3331TIP3    H131628   2.279   2.753   0.631  0.2310  0.6202  0.0764
 3331TIP3    H231629   2.240   2.638   0.541 -1.1689 -0.1951  1.6665
 3332TIP3   OH231630   6.774   2.439   8.403 -0.6312 -0.1159 -0.1985
 3332TIP3    H131631   6.799   2.347   8.410 -0.0797  0.1597  2.3007
 3332TIP3    H231632   6.849   2.481   8.359  1.4849 -0.1067  3.0695
 3333TIP3   OH231633   3.557   1.082   8.666 -0.5241  1.0013 -0.0059
 3333TIP3    H131634   3.650   1.096   8.646 -0.7589 -0.5787 -2.6260
 3333TIP3    H231635   3.556   1.006   8.725 -0.1985 -1.0422 -2.4753
 3334TIP3   OH231636   2.849   6.172   1.681  0.1383  0.3424  0.2464
 3334TIP3    H131637   2.883   6.125   1.605  0.1080  0.1289  0.3645
 3334TIP3    H231638   2.927   6.204   1.726  0.3139 -1.8358  1.6144
 3335TIP3   OH231639   6.443   4.426   2.236 -0.3448  0.0694 -0.0962
 3335TIP3    H131640   6.439   4.360   2.166  0.6236 -1.0550  0.8470
 3335TIP3    H231641   6.525   4.472   2.220 -0.5113  0.3450 -0.1555
 3336TIP3   OH231642   6.269   2.528   8.916 -0.4890  0.3888  1.1798
 3336TIP3    H131643   6.241   2.485   8.997 -1.9343 -1.0615 -0.0132
 3336TIP3    H231644   6.356   2.493   8.899 -1.9187 -3.0130 -0.2072
 3337TIP3   OH231645   1.725   2.020   0.962  0.2846 -0.4830  0.2660
 3337TIP3    H131646   1.741   1.948   1.022 -0.7256  0.3066  1.5302
 3337TIP3    H231647   1.773   1.996   0.883  2.5272 -1.0941  1.7066
 3338TIP3   OH231648   2.403   5.094   0.469 -0.0552 -0.9517 -0.6956
 3338TIP3    H131649   2.489   5.055   0.482 -0.9496 -2.6093  0.8337
 3338TIP3    H231650   2.412   5.149   0.391  2.3652 -1.0309 -0.5360
 3339TIP3   OH231651   3.601   3.603   1.188  0.3841 -0.4035 -0.6887
 3339TIP3    H131652   3.671   3.557   1.234  0.5318  0.9838  0.5596
 3339TIP3    H231653   3.639   3.629   1.104  0.4816 -1.9717 -1.1678
 3340TIP3   OH231654   0.099   2.154   0.926 -0.3884 -0.7187 -0.5229
 3340TIP3    H131655   0.043   2.210   0.873 -1.3994 -0.5781  0.6515
 3340TIP3    H231656   0.172   2.210   0.951 -0.7579 -0.2934 -0.3806
 3341TIP3   OH231657   0.940   4.698   0.329 -0.4563  0.1106  0.5235
 3341TIP3    H131658   0.873   4.756   0.366 -0.3453  1.1862 -0.8755
 3341TIP3    H231659   0.904   4.610   0.340 -0.4468  0.3521  3.0745
 3342TIP3   OH231660   5.697   0.403   1.174  0.5659 -0.2628  0.1190
 3342TIP3    H131661   5.662   0.328   1.222  0.5195 -0.5484 -0.3571
 3342TIP3    H231662   5.735   0.459   1.242  0.5925 -0.7090  0.4782
 3343TIP3   OH231663   0.580   5.686   8.486  0.1311  1.2235 -0.3995
 3343TIP3    H131664   0.486   5.679   8.507  0.0128  0.3544 -1.1788
 3343TIP3    H231665   0.624   5.640   8.558 -0.2088 -0.7426 -1.3826
 3344TIP3   OH231666   2.573   4.423   1.007  0.1170  0.3431 -0.4243
 3344TIP3    H131667   2.652   4.460   1.048 -0.9616  1.2491  0.9208
 3344TIP3    H231668   2.553   4.483   0.935  0.0986  0.6856 -0.1378
 3345TIP3   OH231669   6.357   5.515   7.636 -0.0842 -0.8376  0.0006
 3345TIP3    H131670   6.450   5.521   7.614  0.0847 -0.3814  0.8131
 3345TIP3    H231671   6.315   5.584   7.586  0.1401 -0.5033  0.2723
 3346TIP3   OH231672   2.007   3.013   1.830  0.1101 -0.2141 -0.2596
 3346TIP3    H131673   2.102   3.017   1.843  0.3005 -1.3567 -1.0910
 3346TIP3    H231674   1.990   2.921   1.810 -1.3282 -0.2478  0.8946
 3347TIP3   OH231675   1.323   4.006   0.727 -0.2971  0.4110 -0.4331
 3347TIP3    H131676   1.273   3.989   0.806 -0.2206  1.1772 -0.2149
 3347TIP3    H231677   1.367   3.923   0.708  2.2232  1.0167  2.1207
 3348TIP3   OH231678   2.569   2.392   8.330 -0.0648  0.2689 -0.1463
 3348TIP3    H131679   2.596   2.415   8.241 -1.1960  1.0559 -0.3057
 3348TIP3    H231680   2.587   2.298   8.337  1.6905  0.5385 -0.5800
 3349TIP3   OH231681   2.591   1.881   8.414 -0.1320 -0.5975  0.1606
 3349TIP3    H131682   2.579   1.788   8.392 -2.3716 -0.8761  2.1815
 3349TIP3    H231683   2.666   1.881   8.474  0.0652 -1.0575 -0.0768
 3350TIP3   OH231684   1.695   4.909   1.829  0.1688 -0.3670  0.1553
 3350TIP3    H131685   1.790   4.905   1.816  0.0646 -0.6638 -0.5944
 3350TIP3    H231686   1.682   4.882   1.920  0.7836 -0.6225  0.1741
 3351TIP3   OH231687   1.110   2.095   1.028 -0.1626 -0.1621  0.3774
 3351TIP3    H131688   1.190   2.051   1.000 -0.3662 -0.0917 -0.3322
 3351TIP3    H231689   1.041   2.029   1.018 -0.3595  0.1015 -0.0312
 3352TIP3   OH231690   0.007   5.274   2.003 -0.4486  0.0054 -0.5084
 3352TIP3    H131691  -0.039   5.216   2.062  1.3925 -0.4083  0.6091
 3352TIP3    H231692  -0.036   5.359   2.014 -1.4613 -0.5375 -0.1736
 3353TIP3   OH231693   2.050   4.198   2.548 -0.5707 -1.0314 -0.1075
 3353TIP3    H131694   2.007   4.162   2.625  1.0263  0.8651  1.7977
 3353TIP3    H231695   2.016   4.287   2.541  1.5498 -0.1169  0.3601
 3354TIP3   OH231696   1.478   6.515   1.225  0.5313  0.3799  0.1394
 3354TIP3    H131697   1.446   6.513   1.135  0.1108 -1.5197  0.2821
 3354TIP3    H231698   1.564   6.556   1.218  0.9717 -0.6831 -1.3236
 3355TIP3   OH231699   5.686   5.449   0.856  0.2702  0.4517 -0.1584
 3355TIP3    H131700   5.704   5.355   0.853 -0.7352  0.1336  1.7746
 3355TIP3    H231701   5.767   5.488   0.886 -0.4058 -0.3281  3.0538
 3356TIP3   OH231702   0.048   1.484   1.634  0.5112 -0.7188  0.3689
 3356TIP3    H131703  -0.044   1.484   1.663  0.8279  1.1165  1.5351
 3356TIP3    H231704   0.095   1.441   1.705  0.8172  0.4324  0.8883
 3357TIP3   OH231705   6.557   6.602   7.325  0.3616 -0.3826  0.7484
 3357TIP3    H131706   6.526   6.512   7.329 -1.4011 -0.0654 -2.6815
 3357TIP3    H231707   6.649   6.595   7.301 -0.0209 -1.3204 -0.5555
 3358TIP3   OH231708   4.407   4.199   6.672  0.0134  0.5337 -0.4665
 3358TIP3    H131709   4.418   4.287   6.708  2.3647  0.7469 -1.5073
 3358TIP3    H231710   4.338   4.209   6.606 -0.4658  1.3506  0.1337
 3359TIP3   OH231711   2.467   0.320   8.615 -0.2185 -0.2162 -0.2607
 3359TIP3    H131712   2.545   0.366   8.646 -1.9266  2.7456 -0.0055
 3359TIP3    H231713   2.479   0.230   8.646  1.9364  0.6832  1.8954
 3360TIP3   OH231714   4.844   0.327   8.060 -0.7993  0.0576  0.5095
 3360TIP3    H131715   4.934   0.302   8.080 -0.1281  1.2506 -0.9171
 3360TIP3    H231716   4.851   0.402   8.002 -2.7354  0.7465  1.0810
 3361TIP3   OH231717   0.933   6.623   1.634  0.7341 -0.0629 -0.1672
 3361TIP3    H131718   1.013   6.574   1.616  1.3413  0.5636  0.7601
 3361TIP3    H231719   0.927   6.625   1.730 -0.2922  0.0544 -0.2239
 3362TIP3   OH231720   3.145   1.157   8.066  0.3124  0.8546  0.1463
 3362TIP3    H131721   3.072   1.136   8.008 -1.6277  0.9174  2.4017
 3362TIP3    H231722   3.203   1.211   8.013 -1.1183  0.5646 -1.8379
 3363TIP3   OH231723   3.921   1.753   7.849 -0.2562  0.2786  0.1804
 3363TIP3    H131724   3.840   1.790   7.884 -0.2377 -1.1100  1.8498
 3363TIP3    H231725   3.901   1.660   7.836  0.3228  0.3875 -1.8829
 3364TIP3   OH231726   6.713   3.811   1.561 -0.3251  0.3391 -0.6067
 3364TIP3    H131727   6.766   3.737   1.532 -0.7404  0.2100 -1.0519
 3364TIP3    H231728   6.625   3.774   1.575 -0.9306  1.0257 -2.3363
 3365TIP3   OH231729   1.968   4.031   0.037 -0.0588 -0.3695  0.4073
 3365TIP3    H131730   2.015   4.002   0.115  0.6106  1.6808  0.8310
 3365TIP3    H231731   2.036   4.035  -0.031  0.3712  2.0052  0.8678
 3366TIP3   OH231732   0.746   5.054   1.010  0.0466  0.2609 -0.0921
 3366TIP3    H131733   0.784   4.978   1.054 -0.1369  0.3585  0.2355
 3366TIP3    H231734   0.732   5.024   0.920 -0.7175 -0.3403  0.2146
 3367TIP3   OH231735   1.577   1.060   7.718 -0.2678  0.2008 -0.2926
 3367TIP3    H131736   1.642   1.130   7.725  0.1719 -0.0834 -1.3997
 3367TIP3    H231737   1.535   1.058   7.804  3.3019 -1.6995  1.6244
 3368TIP3   OH231738   4.036   3.625   6.760 -0.4864  0.4414 -0.5976
 3368TIP3    H131739   4.005   3.714   6.745  0.4095  1.0403  0.8432
 3368TIP3    H231740   4.071   3.596   6.676  1.4852  2.4112 -0.5382
 3369TIP3   OH231741   3.053   0.787   1.437  0.5172  0.1882  0.1420
 3369TIP3    H131742   3.120   0.845   1.474  1.4682 -0.2515 -0.8439
 3369TIP3    H231743   3.049   0.713   1.497  0.3260  0.5864  0.6322
 3370TIP3   OH231744   3.348   0.280   1.981  0.5092  0.2326  0.1991
 3370TIP3    H131745   3.291   0.221   1.931  1.1461 -0.8327  0.6873
 3370TIP3    H231746   3.288   0.343   2.022 -0.0296  1.1377 -1.8675
 3371TIP3   OH231747   0.098   5.188   7.324 -0.3065  0.5990 -0.9338
 3371TIP3    H131748   0.172   5.166   7.267  0.8004 -0.3259  0.7853
 3371TIP3    H231749   0.022   5.186   7.265  0.7058 -0.8443 -2.2870
 3372TIP3   OH231750   4.243   2.819   8.283 -0.0682 -0.2926 -0.0276
 3372TIP3    H131751   4.307   2.781   8.344 -0.0309 -1.7183 -0.9027
 3372TIP3    H231752   4.295   2.843   8.207 -0.3475  0.0193 -0.1196
 3373TIP3   OH231753   6.703   5.069   6.856 -0.0648  0.2316 -0.1656
 3373TIP3    H131754   6.743   5.054   6.771  2.3690  0.4105  0.8792
 3373TIP3    H231755   6.622   5.017   6.854 -0.8014  1.3531 -3.0406
 3374TIP3   OH231756   5.918   2.570   0.138 -0.0573 -0.2082 -0.6232
 3374TIP3    H131757   5.824   2.553   0.148 -0.2352  0.3544 -1.2774
 3374TIP3    H231758   5.958   2.528   0.214 -1.0688  1.4978  0.9237
 3375TIP3   OH231759   3.192   4.657   1.674  0.1855  0.2380  0.1259
 3375TIP3    H131760   3.104   4.690   1.690 -0.2922 -0.3451 -1.2031
 3375TIP3    H231761   3.185   4.563   1.685  0.6456  0.1853  0.0048
 3376TIP3   OH231762   4.214   2.191   8.900 -0.3662 -0.1587  0.0977
 3376TIP3    H131763   4.261   2.266   8.937  0.1644  0.1512 -1.1427
 3376TIP3    H231764   4.161   2.228   8.830  1.7400 -1.1925 -2.1896
 3377TIP3   OH231765   4.273   5.734   8.963  0.3002  0.7518 -0.1475
 3377TIP3    H131766   4.254   5.774   9.048 -1.3638 -0.6525  0.1935
 3377TIP3    H231767   4.278   5.808   8.903 -0.8265  1.6287  0.7756
 3378TIP3   OH231768   1.023   6.662   8.606  0.4216 -0.1404  1.2009
 3378TIP3    H131769   1.057   6.685   8.519 -0.8213 -0.1420  0.6945
 3378TIP3    H231770   1.075   6.586   8.633 -0.7994 -1.7414 -0.6504
 3379TIP3   OH231771   1.408   0.855   0.547  0.0583 -0.0542 -0.5187
 3379TIP3    H131772   1.353   0.779   0.566 -1.0742  0.6013 -1.0696
 3379TIP3    H231773   1.494   0.817   0.527 -0.3203 -1.1427 -0.1714
 3380TIP3   OH231774   6.429   2.171   8.065 -0.3190 -0.2528 -0.3637
 3380TIP3    H131775   6.396   2.084   8.041 -0.1249  0.1240 -2.1371
 3380TIP3    H231776   6.471   2.203   7.985  0.3338  1.1383  0.5126
 3381TIP3   OH231777   5.735   5.405   2.198  0.3856  0.0826  0.1383
 3381TIP3    H131778   5.723   5.422   2.292 -0.1939 -1.4615  0.3772
 3381TIP3    H231779   5.704   5.316   2.186 -1.0672  0.7965 -1.8503
 3382TIP3   OH231780   2.064   2.641   1.805  0.3082  0.3643  0.3355
 3382TIP3    H131781   2.006   2.568   1.829 -0.3995  0.9382  0.3975
 3382TIP3    H231782   2.094   2.676   1.889  1.9789 -0.8659  0.3098
 3383TIP3   OH231783   6.311   5.565   7.929  0.1962 -0.1035  0.7366
 3383TIP3    H131784   6.386   5.588   7.983  0.3831  1.3402 -0.0588
 3383TIP3    H231785   6.349   5.530   7.848 -0.0899 -3.1984  1.8328
 3384TIP3   OH231786   4.896   1.685   0.416  0.4966 -0.3136  0.6317
 3384TIP3    H131787   4.844   1.763   0.395  0.8509 -0.2431  0.0071
 3384TIP3    H231788   4.896   1.634   0.335  0.7987 -0.6619  0.8502
 3385TIP3   OH231789   2.362   1.374   1.090 -0.1334 -0.4960  0.2705
 3385TIP3    H131790   2.396   1.338   1.172 -1.5038 -1.4489  0.4573
 3385TIP3    H231791   2.403   1.320   1.021  1.0669  0.3454  0.2893
 3386TIP3   OH231792   3.837   5.290   0.996  0.0691 -0.1696 -0.4230
 3386TIP3    H131793   3.915   5.337   1.025  0.5585 -1.5300  0.5074
 3386TIP3    H231794   3.764   5.338   1.036  0.3946  0.9881 -1.1435
 3387TIP3   OH231795   6.215   4.920   1.449  0.2845  0.3753  0.5344
 3387TIP3    H131796   6.238   4.871   1.371 -1.0844 -0.6536  0.7386
 3387TIP3    H231797   6.196   5.008   1.417 -0.2565 -0.0318 -0.3030
 3388TIP3   OH231798   6.163   6.024   0.316  0.4608 -0.0375 -0.8940
 3388TIP3    H131799   6.202   6.062   0.395 -4.1506  0.1056  1.7031
 3388TIP3    H231800   6.172   5.929   0.329 -0.5455 -0.0275  0.1069
 3389TIP3   OH231801   4.136   5.471   7.527 -0.1878  0.0532  0.2150
 3389TIP3    H131802   4.061   5.454   7.470  0.0740  0.5486 -0.2794
 3389TIP3    H231803   4.097   5.491   7.612 -0.6296  0.6767 -0.1313
 3390TIP3   OH231804   0.724   2.564   0.236 -0.9365  0.4046 -0.3796
 3390TIP3    H131805   0.783   2.605   0.172  0.4674 -2.1087 -0.8203
 3390TIP3    H231806   0.662   2.514   0.184  0.1482 -1.5788  0.1336
 3391TIP3   OH231807   6.161   3.349   8.908  0.5194  0.2327 -0.3135
 3391TIP3    H131808   6.083   3.375   8.958  2.3310  2.1005  1.7289
 3391TIP3    H231809   6.187   3.265   8.946  0.1072  0.1013 -0.3136
 3392TIP3   OH231810   0.009   4.209   8.880 -0.1041 -0.0319 -0.5128
 3392TIP3    H131811   0.064   4.217   8.802  0.5043 -0.9665 -0.1925
 3392TIP3    H231812  -0.065   4.155   8.852  0.3043 -0.6841 -0.3577
 3393TIP3   OH231813   6.529   6.447   2.057  0.1809  0.0483 -0.2843
 3393TIP3    H131814   6.532   6.482   2.146  0.6961 -0.7155  0.0150
 3393TIP3    H231815   6.526   6.524   2.000 -1.5643  0.5378  0.4165
 3394TIP3   OH231816   1.179   2.708   2.227  0.0596 -0.1716 -0.1562
 3394TIP3    H131817   1.119   2.634   2.225 -0.6327  0.4074 -1.1121
 3394TIP3    H231818   1.168   2.746   2.314 -0.5039 -0.4307 -0.1157
 3395TIP3   OH231819   5.654   4.057   1.313  0.1151  0.0989 -0.1868
 3395TIP3    H131820   5.631   3.964   1.317 -0.1833  0.0600 -1.8952
 3395TIP3    H231821   5.720   4.062   1.244  0.2972  1.1324  0.0439
 3396TIP3   OH231822   3.005   0.269   8.632 -1.0199 -0.2201  0.2976
 3396TIP3    H131823   3.031   0.334   8.567 -0.1054 -0.0508  0.8106
 3396TIP3    H231824   2.921   0.235   8.601 -0.7502  0.0850 -0.7914
 3397TIP3   OH231825   3.641   3.953   0.155 -0.4301  0.4812  0.1151
 3397TIP3    H131826   3.679   3.941   0.068 -1.6134 -0.3410 -0.3157
 3397TIP3    H231827   3.595   4.037   0.149  0.6086  1.0760  0.3790
 3398TIP3   OH231828   4.389   0.943   8.236  0.0614 -0.3259 -0.1874
 3398TIP3    H131829   4.436   1.024   8.216 -1.1492  0.4639  0.0991
 3398TIP3    H231830   4.406   0.886   8.160  1.4778 -0.0940 -0.0870
 3399TIP3   OH231831   0.823   4.594   8.231  0.0680 -0.4024  0.0739
 3399TIP3    H131832   0.736   4.555   8.221 -1.2619  2.1618  0.5406
 3399TIP3    H231833   0.853   4.564   8.317  0.5727 -2.8526 -0.8862
 3400TIP3   OH231834   5.276   1.989   8.874  0.0420  0.1623  0.2209
 3400TIP3    H131835   5.216   1.990   8.948 -1.1427  0.3953 -0.7122
 3400TIP3    H231836   5.326   2.070   8.882 -0.2364  0.2913  0.6369
 3401TIP3   OH231837   5.655   0.800   1.052 -0.5804 -0.5405  0.1853
 3401TIP3    H131838   5.580   0.741   1.060  0.4387 -1.6816  1.9620
 3401TIP3    H231839   5.704   0.766   0.977 -2.3186  0.8817 -1.7128
 3402TIP3   OH231840   2.494   2.855   7.473  0.5756  0.2110  0.0173
 3402TIP3    H131841   2.548   2.802   7.415  1.0021  1.6473 -0.9396
 3402TIP3    H231842   2.452   2.919   7.415  0.8987  1.5953  1.2560
 3403TIP3   OH231843   6.454   6.203   0.729  0.5226 -0.5151 -0.1032
 3403TIP3    H131844   6.541   6.173   0.756  0.6012 -0.3902 -0.2218
 3403TIP3    H231845   6.404   6.208   0.811  0.8202  0.0538  0.0450
 3404TIP3   OH231846   6.020   2.877   1.524  0.2704  0.5489  0.0753
 3404TIP3    H131847   6.075   2.883   1.602  2.0482 -0.5917 -1.0142
 3404TIP3    H231848   5.957   2.948   1.534  1.2070  1.1921  1.9546
 3405TIP3   OH231849   4.931   1.233   8.807 -0.2587  0.3825  0.1515
 3405TIP3    H131850   4.842   1.256   8.783  0.0360  1.5051  0.0761
 3405TIP3    H231851   4.983   1.311   8.786  0.6846 -0.1352  0.4840
 3406TIP3   OH231852   2.218   6.186   1.567  0.1790  0.1576 -0.5781
 3406TIP3    H131853   2.247   6.117   1.508 -0.6105  0.8900 -1.8750
 3406TIP3    H231854   2.123   6.176   1.571  0.0425  1.2004 -0.8617
 3407TIP3   OH231855   5.662   6.022   7.257 -0.0109 -0.0105 -0.3557
 3407TIP3    H131856   5.601   6.056   7.323  0.9360 -0.3010  0.6832
 3407TIP3    H231857   5.605   5.982   7.191 -1.1428  2.6434 -1.1417
 3408TIP3   OH231858   2.239   1.469   1.575 -0.2869  0.1350 -0.3322
 3408TIP3    H131859   2.184   1.483   1.652 -0.5696  2.0860 -0.8365
 3408TIP3    H231860   2.323   1.440   1.610 -0.7830 -0.1768  0.6218
 3409TIP3   OH231861   3.193   0.671   0.791 -0.2454 -0.1863 -0.0656
 3409TIP3    H131862   3.195   0.638   0.701  1.1271 -0.5042  0.0575
 3409TIP3    H231863   3.162   0.761   0.783 -0.1215 -0.2080 -0.8506
 3410TIP3   OH231864   1.614   1.082   0.071  0.4761 -0.3592 -0.1719
 3410TIP3    H131865   1.708   1.084   0.089  0.1942  1.3639  1.4067
 3410TIP3    H231866   1.580   1.014   0.129  0.4784  0.6337  1.0417
 3411TIP3   OH231867   6.462   4.223   2.061 -0.0742 -0.3996  0.0480
 3411TIP3    H131868   6.551   4.220   2.094  0.1558  0.4521 -0.4657
 3411TIP3    H231869   6.414   4.160   2.116  0.7329 -0.5385  0.6168
 3412TIP3   OH231870   1.913   3.384   0.030 -0.4276  0.2528 -0.1438
 3412TIP3    H131871   1.963   3.302   0.036  0.5475  0.6891 -1.7508
 3412TIP3    H231872   1.828   3.358  -0.006  0.3371  0.0640 -1.9197
 3413TIP3   OH231873   5.722   0.744   0.753  0.1193 -0.4351  0.2188
 3413TIP3    H131874   5.669   0.664   0.758  1.6051 -1.3770  2.1821
 3413TIP3    H231875   5.704   0.778   0.665 -0.4303 -3.0362 -0.7891
 3414TIP3   OH231876   3.215   1.093   7.108 -0.6097 -0.6584  0.4791
 3414TIP3    H131877   3.265   1.013   7.089 -0.7227 -1.1941  2.2567
 3414TIP3    H231878   3.236   1.152   7.035  0.8242 -1.6881  0.0039
 3415TIP3   OH231879   5.468   4.872   8.981 -0.0865  0.6347 -0.4364
 3415TIP3    H131880   5.415   4.931   9.035 -0.2000  0.9536 -0.8837
 3415TIP3    H231881   5.427   4.877   8.894 -0.6856 -0.8358 -0.2733
 3416TIP3   OH231882   1.204   2.944   0.787 -0.0568 -0.6344  0.5991
 3416TIP3    H131883   1.147   3.019   0.799 -0.9778 -1.4272  1.2932
 3416TIP3    H231884   1.225   2.945   0.693  0.2808  0.6969  0.6646
 3417TIP3   OH231885   2.631   1.480   2.248  0.0274 -0.0477  0.4184
 3417TIP3    H131886   2.651   1.527   2.329 -0.4712  1.4821 -0.3183
 3417TIP3    H231887   2.570   1.411   2.275 -2.1755  2.0043  1.0226
 3418TIP3   OH231888   5.885   0.339   7.069 -0.5834  0.6361  0.4259
 3418TIP3    H131889   5.913   0.430   7.056  0.8531  0.4470  1.9051
 3418TIP3    H231890   5.834   0.318   6.991 -0.2708  2.4565 -0.3068
 3419TIP3   OH231891   0.316   4.131   1.565 -0.5531  0.0658 -0.0236
 3419TIP3    H131892   0.290   4.120   1.474  1.1768 -1.5647 -0.3947
 3419TIP3    H231893   0.250   4.084   1.615 -1.9763  1.6631 -0.3141
 3420TIP3   OH231894   0.552   6.648   1.788 -0.2014 -0.0310  0.2199
 3420TIP3    H131895   0.476   6.661   1.731 -0.5774 -1.2215  0.4392
 3420TIP3    H231896   0.621   6.700   1.747 -0.8235  0.1687 -0.6010
 3421TIP3   OH231897   2.426   0.637   2.784  0.6398  0.3408  0.6673
 3421TIP3    H131898   2.423   0.724   2.744 -0.5600  0.3442  0.7306
 3421TIP3    H231899   2.414   0.577   2.710  2.7200  0.1361  0.4314
 3422TIP3   OH231900   2.695   1.764   1.051 -0.2426 -0.4063  0.1938
 3422TIP3    H131901   2.640   1.835   1.016  1.4087  0.8065 -0.0949
 3422TIP3    H231902   2.636   1.711   1.105 -2.3843 -0.9640 -2.4740
 3423TIP3   OH231903   2.700   6.282   1.287  0.8291  0.5062 -0.4627
 3423TIP3    H131904   2.768   6.242   1.340 -0.2443 -1.2692 -0.3613
 3423TIP3    H231905   2.668   6.212   1.230 -0.8499  1.2948 -0.5783
 3424TIP3   OH231906   3.226   4.535   8.605 -0.2107 -0.2222 -0.7909
 3424TIP3    H131907   3.281   4.491   8.670 -1.5867 -1.6081 -0.5105
 3424TIP3    H231908   3.172   4.465   8.569 -1.5157  1.0303 -1.3297
 3425TIP3   OH231909   3.152   4.961   1.048 -0.7947 -0.5843 -0.4696
 3425TIP3    H131910   3.216   4.891   1.037  0.3223  0.3739 -0.1806
 3425TIP3    H231911   3.070   4.923   1.017 -0.7042 -2.7676  1.6366
 3426TIP3   OH231912   1.792   0.104   7.654 -0.2803  0.3630 -0.4156
 3426TIP3    H131913   1.822   0.191   7.680 -0.4278  1.0071 -2.2647
 3426TIP3    H231914   1.742   0.072   7.730 -0.0095  1.7627  0.3907
 3427TIP3   OH231915   4.072   6.064   7.800 -0.0166  0.4808 -0.2577
 3427TIP3    H131916   4.093   6.117   7.722  0.7010  0.1550 -0.2952
 3427TIP3    H231917   4.156   6.026   7.826  0.1321  1.9639  1.7209
 3428TIP3   OH231918   4.630   4.160   7.686  0.1383  0.0751 -0.2737
 3428TIP3    H131919   4.636   4.073   7.725  0.0536  0.6772  1.1192
 3428TIP3    H231920   4.594   4.215   7.755  2.0189  1.6493 -0.4723
 3429TIP3   OH231921   5.394   6.776   1.126  0.4459  0.0314 -0.1766
 3429TIP3    H131922   5.413   6.854   1.073 -1.1952  1.2650  0.9579
 3429TIP3    H231923   5.419   6.802   1.215  0.2995 -0.9230  0.1512
 3430TIP3   OH231924   6.471   4.069   0.766 -0.3263  0.0759  0.3089
 3430TIP3    H131925   6.432   3.982   0.764 -0.9851  0.3430  1.2616
 3430TIP3    H231926   6.441   4.108   0.848 -1.0684  1.6774 -0.6821
 3431TIP3   OH231927   3.476   1.868   7.729  0.3474 -0.5226  0.1741
 3431TIP3    H131928   3.497   1.855   7.821  0.5065 -2.6176 -0.1004
 3431TIP3    H231929   3.556   1.902   7.690 -0.1344  1.7312  1.0037
 3432TIP3   OH231930   6.042   5.100   6.920  0.2522 -0.6801 -0.1244
 3432TIP3    H131931   6.005   5.039   6.857  0.2084 -0.4893 -0.2842
 3432TIP3    H231932   6.133   5.112   6.892  0.9239 -2.3447  1.1520
 3433TIP3   OH231933   5.152   2.609   8.560  0.7461  0.7277  0.2166
 3433TIP3    H131934   5.181   2.518   8.552 -3.2282 -0.8044  1.1667
 3433TIP3    H231935   5.164   2.645   8.472  2.9402 -0.4406 -0.0425
 3434TIP3   OH231936   6.696   0.815   0.557 -0.2874 -0.1592 -0.3775
 3434TIP3    H131937   6.706   0.728   0.597  0.4257 -0.0845 -0.3798
 3434TIP3    H231938   6.744   0.809   0.475 -0.0831  0.2913 -0.2952
 3435TIP3   OH231939   3.677   3.734   8.127  0.2484 -0.3589  0.8086
 3435TIP3    H131940   3.606   3.790   8.159  0.3648 -0.5865  1.4828
 3435TIP3    H231941   3.742   3.735   8.196  0.6142 -0.6784  0.4779
 3436TIP3   OH231942   4.403   5.416   6.972 -0.2456 -0.1153  0.0921
 3436TIP3    H131943   4.420   5.507   6.997  1.1031 -0.6786  1.4030
 3436TIP3    H231944   4.308   5.409   6.972 -0.3887  1.3867 -0.4186
 3437TIP3   OH231945   6.107   5.449   1.863  0.2729 -0.3610 -0.0853
 3437TIP3    H131946   6.123   5.543   1.878  0.2450 -0.3879  0.1242
 3437TIP3    H231947   6.012   5.439   1.876  0.5348 -0.7604  1.8959
 3438TIP3   OH231948   2.813   3.177   0.786 -0.0433  0.5779 -0.1501
 3438TIP3    H131949   2.761   3.112   0.738  0.4576 -0.7522  1.0309
 3438TIP3    H231950   2.771   3.183   0.871  2.9025 -2.3289  1.7616
 3439TIP3   OH231951   5.720   2.164   8.809 -0.0239  0.1146 -0.2591
 3439TIP3    H131952   5.801   2.171   8.759 -0.5226  0.8792 -1.0006
 3439TIP3    H231953   5.659   2.222   8.763 -0.7754  0.1150  0.7032
 3440TIP3   OH231954   3.578   0.252   7.000 -0.2357  0.0536 -0.1644
 3440TIP3    H131955   3.626   0.329   6.969 -0.2711  0.0487 -0.2306
 3440TIP3    H231956   3.628   0.178   6.968  0.0524  0.0477  0.2849
 3441TIP3   OH231957   0.384   4.974   1.796  0.3599  0.1120 -0.2252
 3441TIP3    H131958   0.311   5.035   1.799  0.1660  0.0979 -2.4863
 3441TIP3    H231959   0.343   4.888   1.795  0.4951  0.0424  0.1284
 3442TIP3   OH231960   1.411   6.093   2.309  0.4364 -0.3473  0.3768
 3442TIP3    H131961   1.477   6.057   2.367  1.6403  2.7650  1.1499
 3442TIP3    H231962   1.344   6.128   2.368  1.6709  2.8527  0.0844
 3443TIP3   OH231963   1.122   0.218   8.776  0.3686  0.0402  0.0617
 3443TIP3    H131964   1.172   0.137   8.764 -0.2145 -0.4108  0.5562
 3443TIP3    H231965   1.062   0.220   8.701 -2.0591 -1.8632  1.7738
 3444TIP3   OH231966   0.722   1.415   8.419  0.4241 -0.1262  0.0559
 3444TIP3    H131967   0.750   1.372   8.338 -1.3704 -1.3556  0.0428
 3444TIP3    H231968   0.679   1.495   8.390  1.7062  0.5403 -0.0571
 3445TIP3   OH231969   6.529   2.152   1.637 -0.1794 -0.2376  0.0320
 3445TIP3    H131970   6.568   2.108   1.713 -1.9271 -1.6167  0.1877
 3445TIP3    H231971   6.518   2.082   1.572  0.2287  0.6989 -1.0705
 3446TIP3   OH231972   5.072   0.566   0.976  0.3874  0.4869 -0.0972
 3446TIP3    H131973   5.138   0.540   0.912  0.0374  1.1294 -0.7434
 3446TIP3    H231974   4.989   0.561   0.928  0.1566  1.3126  0.1915
 3447TIP3   OH231975   2.973   1.530   1.901  0.2184  0.1834  0.0468
 3447TIP3    H131976   2.975   1.587   1.824 -0.2684  0.8219  0.4934
 3447TIP3    H231977   2.885   1.494   1.903  0.2098  0.2134  0.3288
 3448TIP3   OH231978   5.133   1.887   7.487  0.1991 -0.3819 -0.1302
 3448TIP3    H131979   5.103   1.805   7.527  2.2119 -1.5841 -0.8853
 3448TIP3    H231980   5.179   1.933   7.558  0.1218 -0.5021 -0.0026
 3449TIP3   OH231981   1.092   1.421   7.253  0.1108 -0.0056 -0.4775
 3449TIP3    H131982   1.185   1.437   7.238  0.0570 -0.4875 -1.4424
 3449TIP3    H231983   1.061   1.496   7.303  0.8654  0.5079 -0.7816
 3450TIP3   OH231984   4.412   6.713   0.762 -0.0609 -0.7158 -0.1842
 3450TIP3    H131985   4.408   6.789   0.704  0.7226  0.6692  1.4753
 3450TIP3    H231986   4.503   6.685   0.759  0.2594  0.0720  1.1586
 3451TIP3   OH231987   5.337   2.392   8.175  0.5013  0.5790  0.1364
 3451TIP3    H131988   5.325   2.300   8.152  2.9793  0.1684  0.1996
 3451TIP3    H231989   5.405   2.423   8.114  2.4659  1.2636  2.5143
 3452TIP3   OH231990   4.896   6.692   7.727 -0.0925  0.1619  0.1087
 3452TIP3    H131991   4.909   6.785   7.750 -0.3422  0.2689 -0.1797
 3452TIP3    H231992   4.804   6.676   7.747 -0.3118  0.2533 -0.8132
 3453TIP3   OH231993   5.658   0.065   7.675  0.4657  0.1505  0.0077
 3453TIP3    H131994   5.610   0.141   7.642  0.3565 -0.2915 -0.9028
 3453TIP3    H231995   5.682   0.088   7.764 -0.5683  0.7944  0.1394
 3454TIP3   OH231996   3.918   3.681   0.784  0.2337 -0.4311  0.3064
 3454TIP3    H131997   3.984   3.648   0.723 -0.7788 -2.3355  0.1752
 3454TIP3    H231998   3.882   3.758   0.741  2.1044  0.4509  0.2308
 3455TIP3   OH231999   3.110   2.329   1.193  0.1624  0.0147  0.6188
 3455TIP3    H132000   3.084   2.291   1.277 -1.4912  0.2255  0.2537
 3455TIP3    H232001   3.159   2.408   1.216 -2.8786  1.8014  1.5080
 3456TIP3   OH232002   3.243   0.600   0.538  0.0858  0.5242 -0.4219
 3456TIP3    H132003   3.246   0.680   0.486  0.8873  1.0297  0.3733
 3456TIP3    H232004   3.288   0.535   0.485  0.4785  0.9087 -0.5592
 3457TIP3   OH232005   2.696   2.853   8.283  0.5249 -0.2797  0.2709
 3457TIP3    H132006   2.616   2.801   8.291 -0.5335  1.3198  0.4030
 3457TIP3    H232007   2.677   2.935   8.329  2.2606  0.1236  0.3465
 3458TIP3   OH232008   0.031   2.421   1.316 -0.1913  0.4128  0.1407
 3458TIP3    H132009   0.097   2.384   1.374 -0.6356 -0.2151  0.2532
 3458TIP3    H232010  -0.027   2.470   1.374 -1.4446 -1.3544  0.4639
 3459TIP3   OH232011   6.731   6.421   8.475  0.0042  0.0551 -0.4679
 3459TIP3    H132012   6.671   6.419   8.400  0.9329 -0.9141 -1.2096
 3459TIP3    H232013   6.693   6.359   8.537 -0.8340  0.9470 -0.0579
 3460TIP3   OH232014   2.134   6.471   8.230  0.4988  0.3661  0.1862
 3460TIP3    H132015   2.132   6.436   8.141  0.2239  0.6531  0.0791
 3460TIP3    H232016   2.128   6.393   8.287  0.3837  0.2049 -0.0467
 3461TIP3   OH232017   0.171   2.970   1.666 -0.3350  0.4104 -0.1070
 3461TIP3    H132018   0.093   2.983   1.613 -1.3530 -1.2263  0.9125
 3461TIP3    H232019   0.226   2.911   1.613 -0.4163  0.4382 -0.2240
 3462TIP3   OH232020   1.147   4.339   8.415 -0.6622  0.0619 -0.5895
 3462TIP3    H132021   1.219   4.355   8.354 -0.5617  0.8685 -0.2755
 3462TIP3    H232022   1.176   4.378   8.497 -0.5163 -1.5780  0.1789
 3463TIP3   OH232023   1.697   3.043   0.597 -0.3900 -0.1222  0.4088
 3463TIP3    H132024   1.770   3.105   0.586 -1.6667  1.1877 -1.3712
 3463TIP3    H232025   1.668   3.056   0.688 -0.0077  1.2116  0.3637
 3464TIP3   OH232026   0.073   4.629   1.400  0.5272 -0.2272  0.3443
 3464TIP3    H132027   0.050   4.635   1.307  2.1277  0.9672 -0.0113
 3464TIP3    H232028   0.052   4.539   1.423 -1.2322 -0.1643 -0.7819
 3465TIP3   OH232029   3.550   1.753   7.447 -0.4243 -0.2150  0.3250
 3465TIP3    H132030   3.468   1.801   7.437 -0.4990 -0.2172  0.8871
 3465TIP3    H232031   3.618   1.819   7.435 -0.5082 -0.1960 -0.0507
 3466TIP3   OH232032   4.854   2.446   0.250  0.1814  0.1121  0.2237
 3466TIP3    H132033   4.823   2.513   0.189 -0.5343  0.2784  0.7523
 3466TIP3    H232034   4.776   2.393   0.269  0.0995  0.7560  1.8732
 3467TIP3   OH232035   5.649   2.139   1.092 -0.0522 -0.0452 -1.0458
 3467TIP3    H132036   5.697   2.166   1.014 -1.0467  0.7532 -1.4022
 3467TIP3    H232037   5.563   2.180   1.083 -0.1148  0.2312  0.5772
 3468TIP3   OH232038   5.268   6.383   6.913  1.2400  0.2897 -0.3599
 3468TIP3    H132039   5.199   6.356   6.853 -1.3875  1.4908  1.9309
 3468TIP3    H232040   5.334   6.313   6.907 -2.3552 -3.6086  0.8153
 3469TIP3   OH232041   3.568   1.979   2.841  0.3595 -0.0608 -0.1323
 3469TIP3    H132042   3.629   2.013   2.776  1.7196 -0.5372  0.8627
 3469TIP3    H232043   3.493   2.039   2.836  1.1553  0.9064 -0.9542
 3470TIP3   OH232044   5.033   2.432   1.850 -0.4846 -0.1317  0.4041
 3470TIP3    H132045   5.089   2.366   1.890  0.0291 -0.2717 -0.5267
 3470TIP3    H232046   4.964   2.446   1.915 -1.3359 -2.5109  0.1383
 3471TIP3   OH232047   3.725   2.936   7.859 -0.0748  0.6308  0.3583
 3471TIP3    H132048   3.797   2.874   7.849 -0.5075  0.0887  0.5584
 3471TIP3    H232049   3.697   2.956   7.770 -1.4297 -1.2426  0.3124
 3472TIP3   OH232050   4.407   3.137   8.394  0.9248 -0.1323 -0.2161
 3472TIP3    H132051   4.319   3.173   8.401  0.6932 -0.8689  0.9539
 3472TIP3    H232052   4.435   3.158   8.304 -0.3266  0.3408 -0.5114
 3473TIP3   OH232053   2.320   3.304   1.297 -0.1690  0.5946  0.3910
 3473TIP3    H132054   2.367   3.222   1.312  0.4055  0.8898  0.2424
 3473TIP3    H232055   2.235   3.291   1.340  0.0145  0.0226  0.5959
 3474TIP3   OH232056   5.073   5.963   1.851  0.3442  0.2417 -0.1864
 3474TIP3    H132057   5.011   6.035   1.840 -1.5087 -1.1629  0.4639
 3474TIP3    H232058   5.076   5.948   1.946  0.1379 -0.9692 -0.3525
 3475TIP3   OH232059   3.492   2.486   2.960  0.0294  0.2662 -0.5727
 3475TIP3    H132060   3.511   2.438   3.041 -0.8046  1.3901  0.3354
 3475TIP3    H232061   3.431   2.429   2.913  0.5503 -0.4221 -0.4330
 3476TIP3   OH232062   1.867   3.027   0.220 -0.7052 -0.1951  0.1059
 3476TIP3    H132063   1.846   2.935   0.238 -2.6839 -0.1857 -1.7753
 3476TIP3    H232064   1.963   3.029   0.220 -0.6046 -2.2612  0.2460
 3477TIP3   OH232065   3.611   2.161   7.576 -0.4761  0.1374 -0.3735
 3477TIP3    H132066   3.518   2.183   7.571 -0.5770 -0.3075 -0.4794
 3477TIP3    H232067   3.655   2.241   7.547 -0.7843  0.6828  0.6251
 3478TIP3   OH232068   0.077   4.669   0.015 -0.0764  0.4015 -0.2832
 3478TIP3    H132069   0.012   4.602   0.039  0.5028  0.3259  1.1363
 3478TIP3    H232070   0.145   4.662   0.082  1.0395  1.0017 -1.3121
 3479TIP3   OH232071   1.738   0.956   6.829  0.4922  0.4544  0.2804
 3479TIP3    H132072   1.793   0.879   6.841 -0.3634 -0.1155  0.6388
 3479TIP3    H232073   1.690   0.965   6.912 -0.6585  0.3613 -0.3531
 3480TIP3   OH232074   4.051   2.926   7.026  0.4942 -0.9003  0.0710
 3480TIP3    H132075   4.054   2.833   7.047  2.5193 -0.9122  0.0126
 3480TIP3    H232076   4.086   2.931   6.937  1.0972 -0.0540  0.3402
 3481TIP3   OH232077   6.165   1.075   7.631  0.2620 -0.3609  0.6553
 3481TIP3    H132078   6.254   1.053   7.603 -0.0627 -2.2843  1.0062
 3481TIP3    H232079   6.176   1.155   7.683  1.3156  1.3610 -1.9758
 3482TIP3   OH232080   3.622   2.618   1.502 -0.0332 -0.0261  0.2837
 3482TIP3    H132081   3.656   2.599   1.415 -1.0524  0.3095 -0.1917
 3482TIP3    H232082   3.628   2.535   1.549  1.8363  0.1126  0.3657
 3483TIP3   OH232083   1.126   3.983   1.574  0.3208  0.0356 -0.0572
 3483TIP3    H132084   1.153   4.062   1.527  0.6954 -0.8769 -1.4499
 3483TIP3    H232085   1.081   4.015   1.652  0.9710  1.6128 -0.2937
 3484TIP3   OH232086   3.157   4.712   8.347  0.5977  0.5233 -0.2572
 3484TIP3    H132087   3.206   4.791   8.325  0.1180  1.2876  1.2361
 3484TIP3    H232088   3.117   4.732   8.432  1.2082 -1.6502  0.6043
 3485TIP3   OH232089   2.548   5.631   7.193  0.1388 -0.0357  0.1445
 3485TIP3    H132090   2.561   5.651   7.101 -0.9325 -0.5531 -0.1391
 3485TIP3    H232091   2.561   5.715   7.238  2.6396 -0.1657 -0.2265
 3486TIP3   OH232092   6.710   1.156   7.538 -0.3704  0.5902  0.0295
 3486TIP3    H132093   6.721   1.101   7.615  2.1679  0.9080 -0.0184
 3486TIP3    H232094   6.652   1.105   7.481 -1.2211 -0.2457  1.5728
 3487TIP3   OH232095   2.826   6.562   1.265 -0.0902  0.1369  0.0957
 3487TIP3    H132096   2.833   6.607   1.180  0.1889 -0.0289  0.0296
 3487TIP3    H232097   2.787   6.477   1.243  0.7325 -0.2283  0.0192
 3488TIP3   OH232098   1.667   6.276   7.081  0.1683  0.5129 -0.3589
 3488TIP3    H132099   1.587   6.233   7.110  0.0459  1.1465  0.2725
 3488TIP3    H232100   1.638   6.362   7.049  0.3722  0.0462 -1.8717
 3489TIP3   OH232101   6.412   4.621   1.936 -0.1866 -0.3605  0.6629
 3489TIP3    H132102   6.374   4.546   1.981  0.5984 -0.9470  0.3745
 3489TIP3    H232103   6.414   4.595   1.843  0.8768 -0.3412  0.6697
 3490TIP3   OH232104   6.188   4.013   7.541 -0.0230 -0.2646  0.1095
 3490TIP3    H132105   6.108   4.009   7.594 -1.4224 -0.7101 -1.8857
 3490TIP3    H232106   6.164   3.968   7.459  2.6197 -1.3073 -0.1747
 3491TIP3   OH232107   5.311   5.883   2.084 -0.8132  0.4649 -0.0828
 3491TIP3    H132108   5.293   5.976   2.100 -1.2257  0.5463 -0.9395
 3491TIP3    H232109   5.406   5.877   2.080 -0.8014  1.0062 -0.8377
 3492TIP3   OH232110   3.009   5.136   7.073 -0.1150  0.2845  0.1906
 3492TIP3    H132111   2.991   5.200   7.004  0.9069 -0.8527 -1.1917
 3492TIP3    H232112   2.924   5.119   7.113 -0.4772  2.1430  0.3011
 3493TIP3   OH232113   4.770   5.845   1.505 -0.3206  0.0411 -0.4982
 3493TIP3    H132114   4.746   5.937   1.512 -0.5656 -0.1310  1.4382
 3493TIP3    H232115   4.783   5.817   1.595  0.2034 -1.7159 -1.0825
 3494TIP3   OH232116   6.091   2.626   1.198 -0.3348  0.1955  0.7924
 3494TIP3    H132117   6.167   2.650   1.251 -1.4946 -0.3828  2.8259
 3494TIP3    H232118   6.116   2.545   1.153  0.7363  0.8036  0.2628
 3495TIP3   OH232119   0.620   4.124   7.501  0.6103  0.2156  0.8985
 3495TIP3    H132120   0.609   4.029   7.502  1.4646  0.1126  0.9436
 3495TIP3    H232121   0.579   4.152   7.419 -0.4715 -0.0735  1.3161
 3496TIP3   OH232122   2.578   1.096   8.032  0.1961 -0.0068 -0.2412
 3496TIP3    H132123   2.547   1.036   8.100 -2.3194  0.8374 -0.5103
 3496TIP3    H232124   2.571   1.045   7.951  1.0266 -0.2974 -0.1379
 3497TIP3   OH232125   6.068   6.361   1.022 -0.4160 -0.7461  0.1119
 3497TIP3    H132126   6.092   6.453   1.028  2.0005 -1.3530  0.5672
 3497TIP3    H232127   6.011   6.346   1.098  0.0049  0.1230  0.6116
 3498TIP3   OH232128   2.834   6.519   0.713  0.5237  0.0402 -0.1756
 3498TIP3    H132129   2.746   6.497   0.682  0.3798 -0.8914  0.8555
 3498TIP3    H232130   2.860   6.594   0.659 -0.7844  0.1506 -0.6864
 3499TIP3   OH232131   2.524   1.290   6.975  0.0105  0.7759 -0.2228
 3499TIP3    H132132   2.477   1.229   6.917 -0.4498  0.7945  0.1222
 3499TIP3    H232133   2.465   1.365   6.982 -1.2814 -0.3915  2.5510
 3500TIP3   OH232134   6.569   1.430   1.794  0.1220 -0.3877 -0.2751
 3500TIP3    H132135   6.552   1.448   1.886  0.1573  0.1066 -0.3615
 3500TIP3    H232136   6.507   1.361   1.771  0.6358 -1.0626  0.3139
 3501TIP3   OH232137   5.295   4.762   0.308  0.0583 -0.3082 -0.8059
 3501TIP3    H132138   5.223   4.769   0.245  1.5654  0.3749 -2.5461
 3501TIP3    H232139   5.334   4.850   0.309 -0.0010 -0.2641  1.2339
 3502TIP3   OH232140   0.158   3.870   8.496 -0.1591 -0.2540 -0.1529
 3502TIP3    H132141   0.085   3.902   8.443 -1.0140 -1.3237  0.3417
 3502TIP3    H232142   0.117   3.815   8.563  1.0007  0.0991  0.8900
 3503TIP3   OH232143   6.352   4.749   0.565  0.3842 -0.0484  0.6986
 3503TIP3    H132144   6.341   4.653   0.565  2.6922 -0.3750 -0.1656
 3503TIP3    H232145   6.413   4.766   0.636 -0.4162  0.8630  1.1832
 3504TIP3   OH232146   1.814   4.437   7.078 -0.0404  0.5402 -0.3990
 3504TIP3    H132147   1.819   4.522   7.034 -0.9060  0.4843 -0.6079
 3504TIP3    H232148   1.751   4.449   7.148  0.5861  0.3461  0.2035
 3505TIP3   OH232149   1.437   1.070   1.953 -0.6780 -0.1383  0.4153
 3505TIP3    H132150   1.362   1.123   1.926 -1.3940 -0.4321  1.7775
 3505TIP3    H232151   1.418   1.043   2.043  0.9664 -0.3928  0.7284
 3506TIP3   OH232152   2.048   1.231   8.152 -0.2267  0.4803 -0.5577
 3506TIP3    H132153   2.126   1.278   8.182  0.5024  0.0343 -1.6964
 3506TIP3    H232154   2.082   1.164   8.092 -1.2705 -1.2245  0.6636
 3507TIP3   OH232155   3.199   5.547   8.185  0.8022 -0.1372 -0.3651
 3507TIP3    H132156   3.197   5.565   8.091 -2.7269 -0.8497 -0.5381
 3507TIP3    H232157   3.197   5.451   8.191 -0.5860 -0.0772  0.3828
 3508TIP3   OH232158   0.222   3.742   1.318  0.0507  0.5272  0.6025
 3508TIP3    H132159   0.312   3.709   1.319 -0.1125  0.0903  0.9236
 3508TIP3    H232160   0.178   3.696   1.389  0.2848  2.7918  2.3377
 3509TIP3   OH232161   2.088   3.670   0.546 -0.2118 -0.1024 -0.4239
 3509TIP3    H132162   2.125   3.627   0.469  0.1286  0.7349 -0.7400
 3509TIP3    H232163   2.004   3.628   0.560  0.1914 -0.9825 -0.6213
 3510TIP3   OH232164   0.920   2.870   1.101  0.2086 -0.2770 -0.2929
 3510TIP3    H132165   0.970   2.936   1.149  0.5316  0.4015 -1.5106
 3510TIP3    H232166   0.875   2.919   1.032  0.0014 -1.2537 -0.8804
 3511TIP3   OH232167   6.171   5.855   2.773 -0.2420  0.1959  0.0446
 3511TIP3    H132168   6.128   5.770   2.786 -0.0312 -0.2317 -1.7127
 3511TIP3    H232169   6.100   5.919   2.778 -0.2957  0.0354  2.1295
 3512TIP3   OH232170   6.219   5.021   2.706  0.7063  0.6703  0.2045
 3512TIP3    H132171   6.157   4.983   2.769  0.2973 -1.3364 -1.2829
 3512TIP3    H232172   6.290   4.956   2.700  1.0968  1.1643 -0.8429
 3513TIP3   OH232173   0.113   3.959   1.701 -0.4004 -0.3263 -1.0622
 3513TIP3    H132174   0.050   3.914   1.645 -1.3460 -0.7590  0.2829
 3513TIP3    H232175   0.059   4.020   1.753  0.4001 -0.1230 -0.4496
 3514TIP3   OH232176   0.370   4.296   8.967  0.2755 -0.1085 -0.6064
 3514TIP3    H132177   0.437   4.228   8.971  2.9454  2.3551  0.3961
 3514TIP3    H232178   0.365   4.319   8.874  2.0717  0.7233 -0.5402
 3515TIP3   OH232179   1.497   1.649   2.286  0.2896 -0.2116  0.0055
 3515TIP3    H132180   1.545   1.619   2.209  0.4235 -0.7798  0.3036
 3515TIP3    H232181   1.454   1.730   2.258  0.2684 -0.4599 -0.6883
 3516TIP3   OH232182   4.511   6.639   7.363 -0.1898 -0.3413  0.1847
 3516TIP3    H132183   4.535   6.601   7.447  1.7205 -1.2703 -0.7139
 3516TIP3    H232184   4.544   6.729   7.367 -0.5149 -0.2366  0.5832
 3517TIP3   OH232185   5.592   1.219   7.966 -0.2692  0.0099  0.3294
 3517TIP3    H132186   5.543   1.137   7.958  0.3465 -0.2245 -1.3871
 3517TIP3    H232187   5.524   1.287   7.967 -0.7676 -0.4691  1.5253
 3518TIP3   OH232188   2.272   6.458   7.616 -0.4146  0.2499  0.2480
 3518TIP3    H132189   2.270   6.452   7.521 -1.4470  0.2968  0.2538
 3518TIP3    H232190   2.190   6.417   7.645  0.4592 -0.9238  1.1964
 3519TIP3   OH232191   2.051   0.898   8.600 -0.3016  0.5680 -0.1659
 3519TIP3    H132192   2.130   0.950   8.615 -0.0554  0.0339  0.4975
 3519TIP3    H232193   1.981   0.962   8.588 -0.0658  1.0625  0.9402
 3520TIP3   OH232194   1.727   2.833   1.423 -0.3020 -1.0276 -1.0971
 3520TIP3    H132195   1.782   2.779   1.481 -0.0165 -1.4888 -1.7812
 3520TIP3    H232196   1.758   2.922   1.437  0.6020 -1.2740 -1.4270
 3521TIP3   OH232197   5.772   3.367   0.878  0.6068  0.9548  0.0375
 3521TIP3    H132198   5.824   3.351   0.799  2.0002 -0.6620  1.2008
 3521TIP3    H232199   5.681   3.353   0.850  1.1544 -0.7725 -1.0416
 3522TIP3   OH232200   1.522   0.636   8.196 -0.0145  0.1722  0.1283
 3522TIP3    H132201   1.603   0.666   8.156  1.1803 -0.5870  1.8665
 3522TIP3    H232202   1.538   0.544   8.217 -0.3904  0.6078  2.6757
 3523TIP3   OH232203   0.604   1.996   2.466 -0.1384 -0.8134  0.0153
 3523TIP3    H132204   0.690   2.034   2.485 -0.5739  1.2229 -1.6305
 3523TIP3    H232205   0.543   2.067   2.487 -1.1113 -0.9803 -2.0280
 3524TIP3   OH232206   3.661   5.635   8.927  0.4551  0.4709  0.0175
 3524TIP3    H132207   3.700   5.554   8.961 -0.4898 -0.2426 -0.5366
 3524TIP3    H232208   3.587   5.652   8.986  0.2019  0.5097 -0.3096
 3525TIP3   OH232209   4.337   4.006   7.760 -0.2681 -0.4260 -0.3469
 3525TIP3    H132210   4.315   4.099   7.751 -0.4853 -0.2716  1.4222
 3525TIP3    H232211   4.415   3.995   7.706  0.1347  0.9388 -0.0962
 3526TIP3   OH232212   4.046   4.253   1.140  0.5630  0.0826 -0.4257
 3526TIP3    H132213   3.986   4.203   1.084  1.8034 -1.4781 -0.4308
 3526TIP3    H232214   4.012   4.342   1.137 -1.0719 -0.5196 -1.3535
 3527TIP3   OH232215   1.818   5.948   0.066  0.0645 -0.0747  0.3346
 3527TIP3    H132216   1.820   6.013  -0.003 -0.1272  1.6444  1.8641
 3527TIP3    H232217   1.742   5.894   0.046  1.2246 -1.0048 -1.9216
 3528TIP3   OH232218   1.358   3.505   7.397  0.0407 -1.0791  0.3957
 3528TIP3    H132219   1.314   3.436   7.448 -1.0800 -1.9253 -1.5975
 3528TIP3    H232220   1.303   3.583   7.411 -0.9316 -1.5983 -0.3922
 3529TIP3   OH232221   4.039   2.870   8.644  0.2721 -0.8270 -0.3708
 3529TIP3    H132222   4.062   2.778   8.648  0.1000 -0.8259  1.2770
 3529TIP3    H232223   4.010   2.884   8.554  1.5113 -2.0670 -0.9900
 3530TIP3   OH232224   3.259   2.767   1.889 -0.2710  0.4227 -0.0575
 3530TIP3    H132225   3.332   2.755   1.828  0.3071  1.1155  0.4808
 3530TIP3    H232226   3.260   2.861   1.908 -0.6290  0.2564  0.8051
 3531TIP3   OH232227   3.947   6.304   0.758  0.0013  0.6460 -0.2265
 3531TIP3    H132228   3.998   6.353   0.693  2.1744 -1.3315 -0.1340
 3531TIP3    H232229   3.891   6.247   0.707  0.8203 -0.0358 -0.3710
 3532TIP3   OH232230   6.130   2.892   1.796 -0.3514  0.1763 -0.4501
 3532TIP3    H132231   6.199   2.957   1.782 -0.4391  0.0536 -1.4768
 3532TIP3    H232232   6.064   2.939   1.848 -0.6439  1.0733 -1.5951
 3533TIP3   OH232233   3.613   1.546   7.204  1.1056 -1.1057 -0.3417
 3533TIP3    H132234   3.705   1.551   7.177  0.6987  0.7201 -1.5197
 3533TIP3    H232235   3.601   1.619   7.264  0.3400 -1.0668 -0.5260
 3534TIP3   OH232236   1.637   5.926   1.760  0.2074 -0.0691  0.1417
 3534TIP3    H132237   1.591   6.008   1.743 -0.6362  0.3832  3.7927
 3534TIP3    H232238   1.727   5.953   1.781  0.0593 -0.0931  0.8375
 3535TIP3   OH232239   4.586   4.261   7.947 -1.0581  0.3442  0.1077
 3535TIP3    H132240   4.538   4.333   7.987 -1.4611 -0.2670  0.7360
 3535TIP3    H232241   4.672   4.263   7.988 -1.1997  0.2262  0.4100
 3536TIP3   OH232242   2.107   6.353   7.971 -0.1536  0.4655  0.2312
 3536TIP3    H132243   2.102   6.272   7.921  1.7356 -0.3589  1.2443
 3536TIP3    H232244   2.026   6.400   7.951 -1.1948 -1.5691 -0.5426
 3537TIP3   OH232245   0.045   6.672   8.399  0.1364  0.3749  0.1094
 3537TIP3    H132246   0.024   6.580   8.413 -0.1768  0.2568 -1.0268
 3537TIP3    H232247  -0.041   6.714   8.389  0.3134  0.5071 -0.9630
 3538TIP3   OH232248   5.875   2.585   0.456 -0.0101  0.2882 -0.5160
 3538TIP3    H132249   5.826   2.524   0.511  0.5678 -1.1162 -1.5150
 3538TIP3    H232250   5.808   2.635   0.410 -0.5321  1.7963  1.6730
 3539TIP3   OH232251   4.276   1.862   8.627  0.2404  0.1143  0.1457
 3539TIP3    H132252   4.214   1.934   8.610  0.7177  0.5410  0.1895
 3539TIP3    H232253   4.237   1.786   8.583 -0.4447  0.3156  0.3920
 3540TIP3   OH232254   6.109   4.570   1.600 -0.7959  0.0733  0.3054
 3540TIP3    H132255   6.068   4.652   1.625  2.1119  1.1871  1.8351
 3540TIP3    H232256   6.044   4.503   1.624 -2.6440  1.7905  0.3666
 3541TIP3   OH232257   4.978   2.746   8.712  1.0741 -0.1224  0.1746
 3541TIP3    H132258   5.037   2.676   8.686 -1.4330 -1.6695 -1.6914
 3541TIP3    H232259   4.940   2.778   8.630 -0.2982  1.1635  1.2532
 3542TIP3   OH232260   1.635   4.752   2.057 -0.4247 -0.1114  0.1784
 3542TIP3    H132261   1.595   4.679   2.103 -0.0393 -0.4417 -0.0100
 3542TIP3    H232262   1.658   4.815   2.126 -0.9654 -0.0628  0.3177
 3543TIP3   OH232263   3.302   3.784   0.596  0.3335 -0.3669 -0.1119
 3543TIP3    H132264   3.364   3.856   0.611  0.2354 -0.2921 -0.0625
 3543TIP3    H232265   3.216   3.826   0.594  0.2704 -0.4895 -0.0255
 3544TIP3   OH232266   3.871   0.797   8.241 -0.1878  0.0590  0.5284
 3544TIP3    H132267   3.949   0.748   8.217 -0.4643 -0.3683  0.4786
 3544TIP3    H232268   3.868   0.793   8.337 -1.0794 -1.4448  0.4776
 3545TIP3   OH232269   2.374   0.634   7.885 -0.3360 -0.3482 -0.8033
 3545TIP3    H132270   2.356   0.564   7.948 -0.1460  0.7374  0.4940
 3545TIP3    H232271   2.290   0.650   7.843 -0.8114 -0.0758  0.2367
 3546TIP3   OH232272   2.539   6.589   1.982 -0.0917 -0.3142  0.2577
 3546TIP3    H132273   2.482   6.622   2.052  0.2592 -0.2969  0.5393
 3546TIP3    H232274   2.590   6.666   1.955  0.5644 -0.5654  0.7563
 3547TIP3   OH232275   0.268   1.546   7.439 -0.1496  0.0356 -0.6645
 3547TIP3    H132276   0.358   1.519   7.422  0.1452  0.6069 -0.0657
 3547TIP3    H232277   0.227   1.468   7.477  0.0162 -0.3067 -1.1759
 3548TIP3   OH232278   0.018   5.902   1.789 -0.5492 -0.3175 -0.1975
 3548TIP3    H132279  -0.037   5.881   1.714 -0.5748 -1.5873  0.1597
 3548TIP3    H232280   0.100   5.856   1.773 -0.7121 -0.9649  0.7552
 3549TIP3   OH232281   3.731   5.187   1.425 -0.4703 -0.1698 -0.4555
 3549TIP3    H132282   3.741   5.247   1.500 -1.9900 -1.2667  0.6832
 3549TIP3    H232283   3.807   5.128   1.432 -1.4887 -1.3789  1.3566
 3550TIP3   OH232284   3.719   5.738   2.177 -0.4880 -0.0360 -0.1131
 3550TIP3    H132285   3.735   5.829   2.200 -1.2334  0.3734 -1.1533
 3550TIP3    H232286   3.674   5.701   2.253  0.9732  0.0822  0.8611
 3551TIP3   OH232287   2.988   3.390   0.649 -0.0950 -0.0630 -0.1819
 3551TIP3    H132288   2.998   3.319   0.712  3.1076  1.0854  0.8448
 3551TIP3    H232289   3.078   3.415   0.627 -1.0929  1.3610 -3.2297
 3552TIP3   OH232290   6.572   2.401   7.166  0.2955  0.1754  0.6580
 3552TIP3    H132291   6.612   2.451   7.094  0.3598 -2.5140 -1.2969
 3552TIP3    H232292   6.613   2.315   7.161 -1.5269 -0.8614  2.3900
 3553TIP3   OH232293   3.323   0.257   0.227 -0.1288 -0.3462  0.2814
 3553TIP3    H132294   3.407   0.301   0.242  0.3202 -1.3376  0.7352
 3553TIP3    H232295   3.258   0.318   0.262  0.4769 -0.0153  0.8601
 3554TIP3   OH232296   0.909   0.418   0.768 -0.0340  0.3578  0.0212
 3554TIP3    H132297   0.883   0.345   0.825 -0.7376  1.1032  0.6846
 3554TIP3    H232298   0.963   0.474   0.825 -0.3493  0.8696 -0.1799
 3555TIP3   OH232299   1.513   2.365   8.580  0.0718 -0.3572 -0.3692
 3555TIP3    H132300   1.579   2.305   8.545  1.0923 -1.4320  2.9970
 3555TIP3    H232301   1.559   2.414   8.648 -2.3222 -0.5402  1.5128
 3556TIP3   OH232302   0.693   3.865   2.027 -0.5287  0.4747 -0.0145
 3556TIP3    H132303   0.617   3.854   1.971 -0.6462 -1.8862  0.5212
 3556TIP3    H232304   0.695   3.786   2.081  1.4689  1.1520  1.0007
 3557TIP3   OH232305   2.291   0.177   6.568  0.1162  0.5977 -0.2865
 3557TIP3    H132306   2.377   0.141   6.589  0.0194  1.2496  1.3251
 3557TIP3    H232307   2.230   0.127   6.621 -0.5488  0.0624 -1.5026
 3558TIP3   OH232308   2.251   0.355   7.176 -0.1796 -0.3741  0.1725
 3558TIP3    H132309   2.238   0.286   7.242  1.4629 -0.8384  0.0529
 3558TIP3    H232310   2.225   0.314   7.094 -0.1372 -0.5218  0.2321
 3559TIP3   OH232311   1.960   3.822   1.213  0.0767 -0.0635 -0.3396
 3559TIP3    H132312   2.037   3.839   1.158 -1.7449  0.5889 -2.8420
 3559TIP3    H232313   1.888   3.863   1.167 -2.2349 -2.7358  0.6420
 3560TIP3   OH232314   0.762   5.942   7.406 -0.1265  0.2462  0.2113
 3560TIP3    H132315   0.710   5.888   7.347  0.4264 -1.5989  1.3493
 3560TIP3    H232316   0.821   5.990   7.347 -1.2966  0.4074 -0.8870
 3561TIP3   OH232317   2.665   0.973   0.187 -0.0741  0.2164  0.2496
 3561TIP3    H132318   2.608   0.901   0.213 -1.0966  1.1441  0.6353
 3561TIP3    H232319   2.750   0.931   0.171 -0.6966 -1.0972  0.2433
 3562TIP3   OH232320   2.953   5.309   7.392 -0.6859 -0.2730 -0.2770
 3562TIP3    H132321   2.869   5.355   7.386 -1.8588 -2.4194 -2.3511
 3562TIP3    H232322   2.929   5.221   7.423  0.8527 -0.7796 -0.4661
 3563TIP3   OH232323   2.044   0.533   1.416 -0.0350  0.0024 -0.2625
 3563TIP3    H132324   1.960   0.499   1.386 -0.6794  1.9886 -0.8831
 3563TIP3    H232325   2.087   0.458   1.459 -2.2458 -0.9537  0.4071
 3564TIP3   OH232326   5.076   0.236   8.215 -0.0231 -0.2947 -0.2426
 3564TIP3    H132327   5.066   0.187   8.134 -1.4192 -2.8703  1.3328
 3564TIP3    H232328   5.131   0.180   8.270 -0.7839  0.3771  1.2597
 3565TIP3   OH232329   2.425   5.767   0.064  0.1698 -0.4068  0.1433
 3565TIP3    H132330   2.493   5.733   0.006  0.1613  0.1448 -0.1936
 3565TIP3    H232331   2.356   5.799   0.005  0.5813  1.0441  0.4147
 3566TIP3   OH232332   3.981   5.449   7.849  0.8284 -0.5860  0.5921
 3566TIP3    H132333   4.072   5.479   7.847  0.3072  1.0189 -1.0165
 3566TIP3    H232334   3.939   5.506   7.914  0.9009 -1.1842  1.1756
 3567TIP3   OH232335   5.983   1.278   7.445  1.1182  0.0597  0.4162
 3567TIP3    H132336   5.968   1.306   7.536 -1.2644  1.0076 -0.1851
 3567TIP3    H232337   5.914   1.322   7.395 -0.6950 -4.0681 -1.1822
 3568TIP3   OH232338   4.410   6.395   0.538 -0.2398 -0.0261  0.2328
 3568TIP3    H132339   4.505   6.400   0.527 -0.5060  1.8263 -1.9479
 3568TIP3    H232340   4.376   6.390   0.448 -2.1766 -2.5870  0.9858
 3569TIP3   OH232341   0.186   6.725   8.634  0.2263 -0.3120 -0.3859
 3569TIP3    H132342   0.129   6.694   8.564 -0.3426 -0.3576  0.0844
 3569TIP3    H232343   0.126   6.755   8.703  0.7660  0.4306 -0.2176
 3570TIP3   OH232344   0.479   3.124   1.454  0.1802 -0.1180  0.0301
 3570TIP3    H132345   0.462   3.098   1.364  1.8811  1.1435 -0.7175
 3570TIP3    H232346   0.554   3.070   1.480  0.9915  0.9350 -0.0491
 3571TIP3   OH232347   3.185   1.371   7.770 -0.2130 -0.1830  0.7617
 3571TIP3    H132348   3.111   1.424   7.741 -0.0140  0.1936  0.9443
 3571TIP3    H232349   3.150   1.281   7.772 -0.4854 -0.0948  0.2410
 3572TIP3   OH232350   4.903   0.694   7.379 -0.5979 -0.0495 -0.1587
 3572TIP3    H132351   4.905   0.782   7.417  1.0018  0.2213 -0.7797
 3572TIP3    H232352   4.820   0.657   7.408 -0.2348  0.7634  2.1987
 3573TIP3   OH232353   3.896   5.908   0.447  0.2726  0.2095 -0.0767
 3573TIP3    H132354   3.858   5.892   0.361 -2.7172 -0.2741  1.1905
 3573TIP3    H232355   3.946   5.989   0.438 -0.0820  0.2357 -2.1944
 3574TIP3   OH232356   3.716   5.550   2.535 -0.3694  0.5500 -0.2324
 3574TIP3    H132357   3.779   5.621   2.522 -1.8356  1.8648 -0.3771
 3574TIP3    H232358   3.704   5.547   2.630 -0.6831  0.8423 -0.2612
 3575TIP3   OH232359   5.137   2.486   1.009  0.3899 -0.1227 -0.1255
 3575TIP3    H132360   5.129   2.405   1.058  0.4445 -1.3608 -2.0380
 3575TIP3    H232361   5.053   2.531   1.022 -0.0005 -0.9386  0.2285
 3576TIP3   OH232362   2.156   2.998   1.190 -0.0707 -0.2954  0.2663
 3576TIP3    H132363   2.103   3.078   1.195  1.1217  0.7774 -2.3020
 3576TIP3    H232364   2.216   3.004   1.264  0.7853  1.8724 -0.5113
 3577TIP3   OH232365   1.644   2.778   2.012  0.0488  0.0434  0.0228
 3577TIP3    H132366   1.592   2.729   2.076  0.3773 -1.0477 -0.5244
 3577TIP3    H232367   1.599   2.862   2.004 -2.0458 -1.0874 -0.9243
 3578TIP3   OH232368   1.175   3.293   7.558  0.2301 -0.2653  0.0842
 3578TIP3    H132369   1.172   3.198   7.571 -0.4882 -0.2170  0.3138
 3578TIP3    H232370   1.096   3.313   7.508  0.8617  0.0998 -0.8062
 3579TIP3   OH232371   6.272   0.594   6.966  0.2733  0.1124 -0.5041
 3579TIP3    H132372   6.334   0.659   6.931 -0.6727  1.4297  0.1721
 3579TIP3    H232373   6.189   0.642   6.973 -0.1783 -0.8322  1.1177
 3580TIP3   OH232374   1.009   5.556   1.284  0.0929 -0.3712 -0.3680
 3580TIP3    H132375   0.995   5.469   1.247 -0.1227 -0.1843 -0.7305
 3580TIP3    H232376   0.953   5.613   1.232  0.3171  0.0031 -0.2010
 3581TIP3   OH232377   1.058   1.381   1.539  0.5719 -0.0575 -0.0688
 3581TIP3    H132378   1.103   1.441   1.599 -1.3883  2.0663 -0.5464
 3581TIP3    H232379   1.053   1.299   1.587  2.9109  0.2568  0.8499
 3582TIP3   OH232380   2.857   6.222   2.065  0.4019  0.2520 -0.1179
 3582TIP3    H132381   2.914   6.234   2.141 -0.2228  0.5154  0.3209
 3582TIP3    H232382   2.825   6.310   2.046  1.3005  0.3525 -1.2976
 3583TIP3   OH232383   4.384   1.749   8.857 -0.2089  0.2225 -0.4967
 3583TIP3    H132384   4.328   1.772   8.783  0.8767  0.5973 -1.2340
 3583TIP3    H232385   4.371   1.820   8.919 -1.8584 -0.5765  0.1312
 3584TIP3   OH232386   4.986   4.212   7.364  0.7584  0.3290 -1.2517
 3584TIP3    H132387   5.052   4.280   7.349  1.0950  0.0362 -1.0977
 3584TIP3    H232388   4.991   4.157   7.286 -0.0038  0.8750 -1.7030
 3585TIP3   OH232389   0.765   3.234   1.354 -0.2769  0.2753  0.4171
 3585TIP3    H132390   0.825   3.160   1.348 -1.3717 -0.5897 -0.1397
 3585TIP3    H232391   0.771   3.276   1.268 -0.1022  0.4763  0.5280
 3586TIP3   OH232392   4.687   1.065   0.669  0.3243  0.2138  0.0190
 3586TIP3    H132393   4.738   1.020   0.602 -0.6704 -0.4774 -0.2881
 3586TIP3    H232394   4.670   1.151   0.631  0.7894  0.2604 -0.0968
 3587TIP3   OH232395   0.470   3.624   8.512  0.6031  0.1882 -0.0431
 3587TIP3    H132396   0.530   3.698   8.523  0.5698  0.4815 -1.5688
 3587TIP3    H232397   0.416   3.649   8.437 -0.1772 -0.8893  0.1449
 3588TIP3   OH232398   0.453   0.950   8.108  0.4795  0.2519 -0.0243
 3588TIP3    H132399   0.417   1.017   8.049  0.6011  0.8213  0.5300
 3588TIP3    H232400   0.535   0.923   8.067 -0.1432 -0.4282 -0.8566
 3589TIP3   OH232401   6.178   3.766   7.888  0.0433  0.4644 -0.3164
 3589TIP3    H132402   6.166   3.804   7.801  2.7851 -0.0270 -1.0162
 3589TIP3    H232403   6.226   3.833   7.937  1.1476 -0.3873 -0.1912
 3590TIP3   OH232404   4.234   2.595   8.747 -0.8270 -0.0299 -0.3454
 3590TIP3    H132405   4.182   2.622   8.823 -0.3078  0.1347 -0.0400
 3590TIP3    H232406   4.248   2.501   8.759 -2.2590 -0.3813 -1.1787
 3591TIP3   OH232407   0.625   1.886   7.195 -0.2179  0.1898  0.2124
 3591TIP3    H132408   0.566   1.812   7.180 -1.0008  0.8207  0.1447
 3591TIP3    H232409   0.703   1.865   7.143 -0.8915 -0.0511 -0.7294
 3592TIP3   OH232410   4.362   0.909   2.811  0.0305  0.4008 -0.2379
 3592TIP3    H132411   4.373   0.864   2.728 -0.5405  1.2972 -0.8179
 3592TIP3    H232412   4.273   0.889   2.839 -0.2819  1.2607 -0.5756
 3593TIP3   OH232413   6.037   1.648   1.420 -0.0432  0.2312  0.6308
 3593TIP3    H132414   6.100   1.643   1.492  1.1676  1.3386 -0.3117
 3593TIP3    H232415   5.953   1.624   1.460  0.1433  3.0475  3.0151
 3594TIP3   OH232416   2.538   5.304   8.670  0.2799 -0.3834 -0.2497
 3594TIP3    H132417   2.468   5.257   8.715 -0.2194 -0.0495 -0.6710
 3594TIP3    H232418   2.577   5.238   8.612  0.0699 -0.4708 -0.2905
 3595TIP3   OH232419   2.506   4.190   8.880 -0.3891  1.1363 -0.1530
 3595TIP3    H132420   2.543   4.278   8.888  1.5497  0.5594 -1.9735
 3595TIP3    H232421   2.445   4.195   8.807  0.4916  0.7657 -0.9316
 3596TIP3   OH232422   2.087   1.365   1.028  0.1102 -0.4649  0.1416
 3596TIP3    H132423   2.084   1.434   0.962  0.5153 -0.5502  0.0289
 3596TIP3    H232424   2.178   1.363   1.056 -0.1987  0.0405  1.2203
 3597TIP3   OH232425   0.902   0.397   1.558 -0.0102 -0.5003  0.0306
 3597TIP3    H132426   0.995   0.391   1.580  0.2184 -0.9857 -1.0007
 3597TIP3    H232427   0.857   0.367   1.637  0.6827  0.1857  0.7116
 3598TIP3   OH232428   4.227   5.150   0.211  0.6436  0.4698  0.3778
 3598TIP3    H132429   4.295   5.165   0.277  0.8938 -1.0965  0.5053
 3598TIP3    H232430   4.235   5.057   0.189  0.0193  0.7768 -1.2679
 3599TIP3   OH232431   2.941   0.270   8.012  0.4616 -0.0968 -0.1717
 3599TIP3    H132432   2.987   0.235   8.088 -0.4889 -0.7004  0.1406
 3599TIP3    H232433   2.923   0.193   7.957  0.0776  0.1616 -0.4137
 3600TIP3   OH232434   1.114   1.788   7.842  0.1728  0.1922 -0.1725
 3600TIP3    H132435   1.112   1.803   7.748 -1.9725  0.6193 -0.1055
 3600TIP3    H232436   1.073   1.866   7.880  0.0601 -0.4277  1.0229
 3601TIP3   OH232437   4.631   4.231   6.919 -0.0004 -0.5051 -0.4267
 3601TIP3    H132438   4.661   4.316   6.952  0.5289 -0.6044 -0.6470
 3601TIP3    H232439   4.653   4.169   6.988  0.2388 -0.5695 -0.5623
 3602TIP3   OH232440   0.019   6.544   6.595 -0.1905  0.1983  0.2018
 3602TIP3    H132441  -0.046   6.596   6.643 -0.6940 -0.3292  0.1095
 3602TIP3    H232442   0.029   6.464   6.647 -0.8876 -0.4696 -0.6509
 3603TIP3   OH232443   5.647   5.096   8.598  0.3480  0.3150  0.2742
 3603TIP3    H132444   5.609   5.138   8.675 -0.8857  1.2153 -0.7727
 3603TIP3    H232445   5.742   5.102   8.611  0.1817 -0.4101  2.1359
 3604TIP3   OH232446   5.371   4.469   0.095 -0.2060 -0.1054 -0.0095
 3604TIP3    H132447   5.417   4.442   0.015 -1.2962  0.5658 -0.9076
 3604TIP3    H232448   5.328   4.551   0.070  0.9177  1.0994  1.8393
 3605TIP3   OH232449   0.465   3.382   8.281 -0.4742 -0.6064 -0.0573
 3605TIP3    H132450   0.478   3.449   8.349 -1.0722  0.0218 -0.5477
 3605TIP3    H232451   0.436   3.432   8.204  0.4517 -1.2706 -0.8657
 3606TIP3   OH232452   2.065   4.061   1.784 -0.8101 -0.4376  0.7442
 3606TIP3    H132453   2.108   4.116   1.849 -1.5371 -0.3999  1.2089
 3606TIP3    H232454   2.048   4.120   1.710 -0.3881 -0.3676  0.7040
 3607TIP3   OH232455   5.216   4.320   1.183 -0.3338  0.1287 -0.1074
 3607TIP3    H132456   5.241   4.381   1.113  1.1549 -0.1492  0.1438
 3607TIP3    H232457   5.242   4.364   1.263  3.0701 -1.7446 -0.0173
 3608TIP3   OH232458   1.650   2.666   1.647 -0.1094  0.1803  0.2827
 3608TIP3    H132459   1.581   2.724   1.616  0.4458  2.0049  2.2062
 3608TIP3    H232460   1.609   2.614   1.716 -0.2784 -0.8629 -0.5804
 3609TIP3   OH232461   4.480   1.307   7.473  0.0456  0.3891 -0.1421
 3609TIP3    H132462   4.521   1.392   7.459  0.0252  0.5069  0.5111
 3609TIP3    H232463   4.386   1.324   7.463 -0.1460  0.8943  2.0839
 3610TIP3   OH232464   5.615   3.698   0.757  0.9641 -0.0234 -0.0696
 3610TIP3    H132465   5.573   3.663   0.836  2.3295 -1.8111 -0.0639
 3610TIP3    H232466   5.708   3.680   0.769  1.5036  1.8666 -1.0430
 3611TIP3   OH232467   0.590   2.677   0.465 -0.0846 -0.9426 -0.4249
 3611TIP3    H132468   0.639   2.659   0.384  0.9744 -0.8683  0.1777
 3611TIP3    H232469   0.625   2.615   0.528  0.8284  0.5658  0.6210
 3612TIP3   OH232470   0.208   4.436   1.152  0.2248 -0.0480  0.0051
 3612TIP3    H132471   0.297   4.401   1.148  0.6833  1.0864 -0.0957
 3612TIP3    H232472   0.183   4.427   1.244  1.1900  1.3781  0.4317
 3613TIP3   OH232473   6.415   1.763   2.550 -0.3297 -0.1000 -0.5172
 3613TIP3    H132474   6.337   1.738   2.501  0.2109 -1.8549 -0.5507
 3613TIP3    H232475   6.424   1.696   2.617  1.4150 -0.2392 -0.8273
 3614TIP3   OH232476   1.957   5.187   8.549  0.2626 -0.2299 -0.1765
 3614TIP3    H132477   2.034   5.134   8.532  0.1030 -0.8982  1.0581
 3614TIP3    H232478   1.949   5.244   8.473  0.6138 -1.7563 -1.4002
 3615TIP3   OH232479   4.324   5.724   7.642 -0.2091 -0.6249 -0.0491
 3615TIP3    H132480   4.235   5.730   7.678 -0.1637 -2.1300  0.3915
 3615TIP3    H232481   4.347   5.814   7.619 -1.4356 -0.0566  0.8303
 3616TIP3   OH232482   2.967   5.028   7.973 -0.4298 -0.3788 -0.1036
 3616TIP3    H132483   2.914   5.107   7.965  0.1118 -0.1394 -1.7571
 3616TIP3    H232484   2.976   5.014   8.067  0.4354  2.1972  0.2694
 3617TIP3   OH232485   3.065   4.920   1.900  0.6680 -0.3392 -0.2412
 3617TIP3    H132486   3.159   4.928   1.885  0.5098  0.6722 -0.7887
 3617TIP3    H232487   3.027   4.997   1.858 -0.3876 -0.6070  0.1758
 3618TIP3   OH232488   2.094   6.070   0.715 -0.4804  0.3471 -0.3244
 3618TIP3    H132489   2.087   6.088   0.622 -1.2518  2.0274  0.0233
 3618TIP3    H232490   2.010   6.031   0.739 -0.4473  0.3222 -0.2450
 3619TIP3   OH232491   5.866   2.653   1.511  0.5352 -0.5514  0.2065
 3619TIP3    H132492   5.952   2.695   1.501 -0.1999  0.8164 -0.6869
 3619TIP3    H232493   5.825   2.699   1.584  0.5749 -1.2444  0.6717
 3620TIP3   OH232494   4.857   5.997   0.355  0.0184  0.6671 -0.1968
 3620TIP3    H132495   4.859   6.089   0.329 -0.0472  0.7174 -0.0271
 3620TIP3    H232496   4.934   5.987   0.412  0.2206  0.5321 -0.4925
 3621TIP3   OH232497   0.230   2.422   0.479 -0.0605 -0.5664 -0.1357
 3621TIP3    H132498   0.309   2.368   0.483  0.3741  0.0598 -0.2311
 3621TIP3    H232499   0.158   2.359   0.488  0.4369 -1.1697 -0.2991
 3622TIP3   OH232500   4.105   6.749   8.320 -0.2507  0.4464  0.6678
 3622TIP3    H132501   4.200   6.741   8.331 -0.0915  0.6919 -0.4184
 3622TIP3    H232502   4.070   6.668   8.356  0.6534 -1.2748 -2.0058
 3623TIP3   OH232503   3.362   5.174   1.860 -0.1025  0.8791 -0.1721
 3623TIP3    H132504   3.347   5.269   1.864  1.9516  1.2256  0.9457
 3623TIP3    H232505   3.371   5.147   1.952 -1.0836 -0.5001 -0.4540
 3624TIP3   OH232506   1.618   4.709   1.120  0.0476 -0.4328 -0.0725
 3624TIP3    H132507   1.564   4.742   1.192  1.2837 -1.6861  1.5218
 3624TIP3    H232508   1.569   4.730   1.041 -2.5135 -1.0694  1.2541
 3625TIP3   OH232509   5.504   0.419   1.959 -0.4719  0.2285  0.0668
 3625TIP3    H132510   5.487   0.448   2.048  2.1533  1.2797  0.3275
 3625TIP3    H232511   5.461   0.484   1.903  0.8296  1.6140  0.6271
 3626TIP3   OH232512   2.391   3.799   2.154 -0.3747  0.2746  0.6280
 3626TIP3    H132513   2.319   3.748   2.117 -0.1741  0.0533  0.5383
 3626TIP3    H232514   2.420   3.856   2.083  0.3217 -0.4843  0.2785
 3627TIP3   OH232515   5.417   5.671   7.747  0.1426  0.0088  0.6022
 3627TIP3    H132516   5.372   5.715   7.675  1.1220  1.1543  0.6706
 3627TIP3    H232517   5.501   5.644   7.710  1.5021  2.3597  1.7842
 3628TIP3   OH232518   0.781   2.256   8.907  0.3645  0.2071  0.2474
 3628TIP3    H132519   0.739   2.171   8.920  0.0332  0.2756 -0.2996
 3628TIP3    H232520   0.733   2.295   8.833 -0.3881  1.4538  1.3577
 3629TIP3   OH232521   0.257   5.981   7.107 -0.2304  0.3618 -0.5994
 3629TIP3    H132522   0.262   6.012   7.017 -1.1107  0.0194 -0.7854
 3629TIP3    H232523   0.312   5.902   7.108  0.4386  0.8217 -0.6202
 3630TIP3   OH232524   2.228   4.279   7.825  0.3086 -0.4594  0.1490
 3630TIP3    H132525   2.268   4.344   7.768  1.3284  0.2253  1.5990
 3630TIP3    H232526   2.301   4.243   7.876 -0.7978  0.5533  2.6140
 3631TIP3   OH232527   2.349   3.561   1.834 -0.4216  0.1175 -0.1444
 3631TIP3    H132528   2.326   3.516   1.753 -1.0015  0.4559 -0.1746
 3631TIP3    H232529   2.281   3.628   1.845 -1.3906 -1.0476  1.5419
 3632TIP3   OH232530   6.338   4.308   1.610  0.5871 -1.1671 -0.3262
 3632TIP3    H132531   6.254   4.327   1.651 -1.1115 -0.5462 -3.7846
 3632TIP3    H232532   6.358   4.218   1.637 -2.2827 -2.1107 -1.0339
 3633TIP3   OH232533   4.905   1.923   1.951 -0.0808 -0.4871  0.2457
 3633TIP3    H132534   4.959   1.971   2.014  1.1762 -1.7015  0.1515
 3633TIP3    H232535   4.958   1.847   1.929 -2.8298 -3.1363  2.0399
 3634TIP3   OH232536   6.500   3.768   0.467 -0.1060 -0.0803  0.3639
 3634TIP3    H132537   6.579   3.785   0.518 -0.1850  0.1643  0.4079
 3634TIP3    H232538   6.532   3.727   0.387  0.3523  2.3107 -0.7822
 3635TIP3   OH232539   5.488   5.405   1.942 -0.2608  1.0323 -0.5699
 3635TIP3    H132540   5.490   5.405   2.038 -0.4708  0.5445 -0.5596
 3635TIP3    H232541   5.443   5.486   1.919 -3.2262 -0.3421 -0.1451
 3636TIP3   OH232542   2.237   5.125   1.774  0.0022 -0.0490 -0.4185
 3636TIP3    H132543   2.158   5.123   1.828 -1.0510 -0.0405 -1.9154
 3636TIP3    H232544   2.306   5.151   1.835 -0.9110 -1.1995  1.1953
 3637TIP3   OH232545   1.147   1.040   0.014 -0.0991 -0.2559  0.0094
 3637TIP3    H132546   1.143   1.120   0.066 -0.5033 -0.0409 -0.3556
 3637TIP3    H232547   1.158   1.069  -0.076  2.2947 -0.6393  0.0941
 3638TIP3   OH232548   5.799   1.542   0.747  0.1291  0.0182  0.4502
 3638TIP3    H132549   5.750   1.495   0.680 -1.3158  0.7335  0.9431
 3638TIP3    H232550   5.736   1.554   0.818  2.0214 -2.1436  2.6876
 3639TIP3   OH232551   1.909   6.426   7.747 -0.4933 -0.3069 -0.0882
 3639TIP3    H132552   1.954   6.511   7.750  1.5917 -1.3328 -0.4057
 3639TIP3    H232553   1.831   6.443   7.694  0.1747  1.3042 -0.6440
 3640TIP3   OH232554   4.849   5.014   8.032  0.2266 -0.3197 -0.1417
 3640TIP3    H132555   4.912   4.996   8.102  1.4620  0.2908 -1.0647
 3640TIP3    H232556   4.811   5.099   8.056  1.4397  0.4195 -0.7278
 3641TIP3   OH232557   3.772   6.399   0.996 -0.0087  0.1656 -0.4866
 3641TIP3    H132558   3.751   6.313   1.033 -0.5201 -0.0324 -1.2102
 3641TIP3    H232559   3.800   6.381   0.907 -0.0060  0.7427 -0.6080
 3642TIP3   OH232560   0.326   4.845   6.369  0.3972  0.2315 -0.2008
 3642TIP3    H132561   0.271   4.783   6.321 -0.7805  1.5921 -0.7215
 3642TIP3    H232562   0.263   4.896   6.420  1.2904  1.1733 -0.0186
 3643TIP3   OH232563   2.485   1.521   8.731 -0.0249  0.2203 -0.4351
 3643TIP3    H132564   2.492   1.591   8.796 -0.5117  0.1630 -0.3187
 3643TIP3    H232565   2.571   1.480   8.730 -0.2749 -0.4079  0.8887
 3644TIP3   OH232566   0.741   5.563   0.093 -0.4036 -0.1079  0.0863
 3644TIP3    H132567   0.673   5.501   0.120 -0.7456  0.0626 -0.3737
 3644TIP3    H232568   0.696   5.623   0.034  0.3761 -0.6015 -1.0409
 3645TIP3   OH232569   1.178   5.794   0.527 -0.3183  0.2977 -0.3749
 3645TIP3    H132570   1.132   5.813   0.609 -0.0994  0.1945 -0.2277
 3645TIP3    H232571   1.254   5.853   0.528  1.1119 -1.4416  0.7071
 3646TIP3   OH232572   0.991   5.329   1.141  0.0437 -0.0626 -0.0723
 3646TIP3    H132573   0.911   5.292   1.103 -0.6888  0.7928  0.5981
 3646TIP3    H232574   1.062   5.279   1.100 -0.8309 -0.9150 -0.5934
 3647TIP3   OH232575   4.121   6.336   8.207 -0.0091 -0.0752  0.1123
 3647TIP3    H132576   4.066   6.258   8.215 -0.8052  0.3722 -0.7801
 3647TIP3    H232577   4.084   6.384   8.133  0.7413  0.9281  0.3617
 3648TIP3   OH232578   2.867   5.895   1.278  0.1411  0.2983  0.2898
 3648TIP3    H132579   2.781   5.866   1.251  0.4638  0.0282 -0.4700
 3648TIP3    H232580   2.899   5.949   1.205  0.3097  1.0247  0.8840
 3649TIP3   OH232581   3.534   5.113   6.705  0.5189 -0.3806 -0.0967
 3649TIP3    H132582   3.453   5.064   6.690  0.9952 -1.0215 -0.6500
 3649TIP3    H232583   3.505   5.203   6.720 -0.1991 -0.1047 -2.6640
 3650TIP3   OH232584   0.685   2.456   0.601 -0.0872  0.3397  0.1690
 3650TIP3    H132585   0.653   2.428   0.687 -1.1091 -1.9218 -0.8806
 3650TIP3    H232586   0.780   2.444   0.606 -0.0607  0.8713  1.1765
 3651TIP3   OH232587   6.340   5.993   8.838 -0.2624  0.6933 -0.1114
 3651TIP3    H132588   6.385   5.960   8.759  0.2537  0.6768  0.1855
 3651TIP3    H232589   6.279   5.923   8.861 -1.2381  1.1829 -1.1562
 3652TIP3   OH232590   3.208   4.694   2.945 -0.0337  0.5161  0.2360
 3652TIP3    H132591   3.256   4.767   2.905 -1.1927  1.1358 -0.0466
 3652TIP3    H232592   3.133   4.734   2.987 -0.0172 -0.3914  1.1603
 3653TIP3   OH232593   2.744   4.150   1.827  0.1466  0.2508 -0.4819
 3653TIP3    H132594   2.705   4.140   1.914  1.1110 -0.7033 -0.1399
 3653TIP3    H232595   2.831   4.188   1.843  0.2179  0.3491 -1.0617
 3654TIP3   OH232596   5.269   1.763   8.419  0.6360  0.1693  0.0451
 3654TIP3    H132597   5.206   1.710   8.370  0.2163 -0.5336  1.2835
 3654TIP3    H232598   5.252   1.853   8.392 -0.6874 -0.0431  0.1168
 3655TIP3   OH232599   2.024   0.479   7.517  0.2432 -0.0922 -0.6756
 3655TIP3    H132600   1.956   0.524   7.567  1.3554  0.4609  0.3928
 3655TIP3    H232601   2.053   0.543   7.452  1.1867  0.4712  0.2531
 3656TIP3   OH232602   6.526   0.641   8.534 -0.0104 -0.0584 -0.0139
 3656TIP3    H132603   6.562   0.705   8.472  1.1402 -1.1012 -0.4635
 3656TIP3    H232604   6.432   0.655   8.530  0.0496  0.1069 -1.8093
 3657TIP3   OH232605   1.744   0.190   8.425 -0.9158 -1.0497  0.0775
 3657TIP3    H132606   1.833   0.169   8.452 -1.6527 -2.9103  1.2031
 3657TIP3    H232607   1.709   0.109   8.388 -1.8627 -0.0925 -1.2726
 3658TIP3   OH232608   4.594   1.886   1.465  1.1618  0.2800 -0.6019
 3658TIP3    H132609   4.617   1.797   1.493  0.7260  0.5424  0.6702
 3658TIP3    H232610   4.521   1.875   1.405 -3.1106 -0.0704  4.0310
 3659TIP3   OH232611   0.743   3.104   8.969  0.0941 -0.1559  0.9455
 3659TIP3    H132612   0.664   3.138   9.011 -1.7810 -1.0296 -1.6792
 3659TIP3    H232613   0.750   3.014   8.999 -0.1896 -0.2266  0.7990
 3660TIP3   OH232614   3.572   2.318   0.963  0.3589  0.3566 -0.4533
 3660TIP3    H132615   3.622   2.331   1.044 -1.4980  1.1724  0.6392
 3660TIP3    H232616   3.558   2.224   0.959  2.0773  0.0795 -0.8898
 3661TIP3   OH232617   5.547   5.166   0.864  0.4299  0.7437 -0.4152
 3661TIP3    H132618   5.508   5.189   0.948  0.5480  2.6015 -0.8332
 3661TIP3    H232619   5.606   5.093   0.884  0.2337  0.9554  1.0413
 3662TIP3   OH232620   4.580   0.485   7.144  0.4612 -0.3865  0.1728
 3662TIP3    H132621   4.497   0.520   7.112 -0.0260 -0.6495  1.1196
 3662TIP3    H232622   4.636   0.562   7.155  0.5738 -0.2688 -1.0694
 3663TIP3   OH232623   5.923   5.120   2.011  0.8861  0.1402 -0.0432
 3663TIP3    H132624   5.878   5.060   1.951 -0.1304 -0.0331  0.8497
 3663TIP3    H232625   6.006   5.140   1.967 -0.3693  1.0954 -2.1484
 3664TIP3   OH232626   2.940   6.021   0.332 -0.0695 -0.0441  0.0624
 3664TIP3    H132627   2.912   6.099   0.380  0.5302 -0.9650  2.0264
 3664TIP3    H232628   2.933   6.045   0.240  0.8978  2.6069  0.6040
 3665TIP3   OH232629   0.761   6.208   6.950 -0.1435 -0.4293  0.0101
 3665TIP3    H132630   0.835   6.191   6.892 -0.2554 -0.5377 -0.1012
 3665TIP3    H232631   0.701   6.136   6.934  0.0561 -0.7393  0.6400
 3666TIP3   OH232632   1.535   4.329   8.870 -0.4254 -0.7526  0.7845
 3666TIP3    H132633   1.499   4.241   8.881 -0.1989 -1.1867 -1.5361
 3666TIP3    H232634   1.629   4.315   8.860 -0.1436 -0.0435  2.1193
 3667TIP3   OH232635   3.094   5.851   7.912  0.1101 -0.1845 -0.1563
 3667TIP3    H132636   3.043   5.869   7.833 -0.6796  1.7216  0.7310
 3667TIP3    H232637   3.171   5.908   7.904  1.2591 -1.7173 -0.6193
 3668TIP3   OH232638   1.414   3.870   2.402 -0.2168  0.3996 -0.2489
 3668TIP3    H132639   1.391   3.961   2.418 -0.2843  0.5465 -1.1694
 3668TIP3    H232640   1.387   3.853   2.312  0.7018 -0.2370 -0.4165
 3669TIP3   OH232641   2.193   3.855   7.449  0.0824  0.3858  0.2390
 3669TIP3    H132642   2.169   3.831   7.538 -1.5302 -0.4029 -0.3611
 3669TIP3    H232643   2.268   3.914   7.459 -2.3958  3.5670  2.3843
 3670TIP3   OH232644   0.609   3.438   8.706 -0.3214 -0.1277 -0.2086
 3670TIP3    H132645   0.658   3.412   8.628 -0.5497  0.1227 -0.4411
 3670TIP3    H232646   0.609   3.361   8.762  0.3595 -0.1170 -0.1959
 3671TIP3   OH232647   0.841   6.445   0.820  0.0241  0.0225 -0.4061
 3671TIP3    H132648   0.931   6.454   0.787  0.5619 -2.3965  0.2217
 3671TIP3    H232649   0.812   6.359   0.789 -2.0287  0.6444 -0.3997
 3672TIP3   OH232650   6.139   5.627   8.273 -0.1820  0.5402 -0.3625
 3672TIP3    H132651   6.150   5.703   8.217 -0.3793  0.6544 -0.2505
 3672TIP3    H232652   6.205   5.638   8.342  0.0370  0.4169 -0.5548
 3673TIP3   OH232653   6.436   1.071   1.373 -0.2708 -0.4243  0.5386
 3673TIP3    H132654   6.401   1.156   1.347  0.1957  0.1694  1.7792
 3673TIP3    H232655   6.406   1.059   1.463  2.0689 -0.2028  1.4145
 3674TIP3   OH232656   1.168   4.731   0.182 -0.1482 -0.3608 -0.0784
 3674TIP3    H132657   1.184   4.664   0.115  0.0909 -1.6063  1.1750
 3674TIP3    H232658   1.085   4.706   0.222  0.6158 -0.7671  1.3444
 3675TIP3   OH232659   3.676   5.011   7.210  0.0528  0.2302 -0.4336
 3675TIP3    H132660   3.594   5.060   7.214  0.8431  1.5249  0.9923
 3675TIP3    H232661   3.740   5.075   7.178  0.9126 -0.1249  0.5184
 3676TIP3   OH232662   3.590   3.284   8.862 -0.2546  0.3783  0.3473
 3676TIP3    H132663   3.609   3.372   8.894 -0.0536  0.1380  0.9020
 3676TIP3    H232664   3.570   3.233   8.941 -1.6908  0.2448 -0.0650
 3677TIP3   OH232665   0.227   4.598   0.916  0.4047 -0.0679 -0.5577
 3677TIP3    H132666   0.208   4.545   0.994  1.8649 -3.3296 -2.1887
 3677TIP3    H232667   0.312   4.637   0.935  0.3084 -0.0453 -0.1503
 3678TIP3   OH232668   4.820   3.831   8.718 -0.0786 -0.6057 -0.0435
 3678TIP3    H132669   4.905   3.872   8.738 -0.5592 -0.0820  1.0375
 3678TIP3    H232670   4.841   3.740   8.698  0.7623 -0.4371  0.0300
 3679TIP3   OH232671   0.440   3.571   0.177  0.4071  0.1483 -0.5172
 3679TIP3    H132672   0.506   3.631   0.143 -0.3006  0.6043 -1.1191
 3679TIP3    H232673   0.452   3.573   0.272  2.0186 -0.6825 -0.6621
 3680TIP3   OH232674   6.330   4.421   7.242 -0.4714 -0.0758  0.5387
 3680TIP3    H132675   6.253   4.370   7.221 -0.7812  1.1693 -1.6923
 3680TIP3    H232676   6.404   4.362   7.226 -0.8881 -0.5014  0.1723
 3681TIP3   OH232677   2.310   5.232   2.654 -0.2915 -0.3968  0.1126
 3681TIP3    H132678   2.273   5.311   2.614  0.0459 -0.4147 -0.2422
 3681TIP3    H232679   2.235   5.173   2.664 -0.6036  0.0863  0.6776
 3682TIP3   OH232680   0.637   3.852   8.462  0.0003  0.1930  0.7178
 3682TIP3    H132681   0.630   3.899   8.379 -2.0370 -1.2051  0.0291
 3682TIP3    H232682   0.724   3.875   8.494  0.6945  1.1227 -1.5809
 3683TIP3   OH232683   2.891   4.214   0.425 -0.3452  0.7668 -0.5039
 3683TIP3    H132684   2.956   4.165   0.375  0.0144  0.2802  0.4120
 3683TIP3    H232685   2.820   4.151   0.439  0.2614  0.3830  0.9576
 3684TIP3   OH232686   3.085   4.029   9.006 -0.0438 -0.2937  0.4296
 3684TIP3    H132687   3.159   3.983   9.045  0.5231  0.8014  0.7019
 3684TIP3    H232688   3.090   4.117   9.044 -1.2016 -0.0608  0.0768
 3685TIP3   OH232689   1.800   2.568   2.897 -0.0919 -0.4115 -0.2680
 3685TIP3    H132690   1.891   2.545   2.879 -0.7247 -0.8059 -3.6601
 3685TIP3    H232691   1.762   2.488   2.933  1.1551  0.2123  2.6612
 3686TIP3   OH232692   0.903   2.681   8.382  0.5349  0.3064  0.0732
 3686TIP3    H132693   0.904   2.776   8.375 -0.1398  0.3771  0.7871
 3686TIP3    H232694   0.970   2.661   8.448  1.6815  0.1696 -1.0948
 3687TIP3   OH232695   2.849   4.291   1.225  0.8956 -0.3597  0.1778
 3687TIP3    H132696   2.927   4.251   1.264  0.5667 -2.0890 -0.8088
 3687TIP3    H232697   2.802   4.217   1.185 -0.3805  0.8853 -0.7219
 3688TIP3   OH232698   6.292   1.140   0.895 -0.6442  0.5802 -0.2980
 3688TIP3    H132699   6.228   1.165   0.961  0.6746  1.1298  0.8117
 3688TIP3    H232700   6.361   1.095   0.943 -0.1230  0.0946 -1.4465
 3689TIP3   OH232701   5.395   4.142   7.557 -0.1527 -0.1674 -0.2680
 3689TIP3    H132702   5.340   4.076   7.515  1.6038 -1.4331 -0.6768
 3689TIP3    H232703   5.477   4.096   7.578  1.5399  2.0753 -1.4778
 3690TIP3   OH232704   2.734   2.823   2.812  0.2504 -0.3564 -0.3566
 3690TIP3    H132705   2.790   2.760   2.856  1.5973 -0.8425 -2.5971
 3690TIP3    H232706   2.665   2.770   2.772 -0.1060 -0.1000 -0.0886
 3691TIP3   OH232707   5.885   3.656   0.739  0.1429 -0.0291 -0.1399
 3691TIP3    H132708   5.960   3.709   0.712  0.9900 -1.0695  0.1112
 3691TIP3    H232709   5.899   3.640   0.832 -0.6846  0.2154  0.0358
 3692TIP3   OH232710   5.830   5.668   2.149  0.3473  0.4466  0.1427
 3692TIP3    H132711   5.789   5.585   2.173  1.4343 -0.4421 -0.9478
 3692TIP3    H232712   5.773   5.735   2.187  0.5124 -0.7894  2.8087
 3693TIP3   OH232713   2.862   6.595   1.774  0.3932  0.6294  0.3472
 3693TIP3    H132714   2.935   6.603   1.712 -0.1121  0.7979 -0.2327
 3693TIP3    H232715   2.785   6.621   1.724 -0.4705 -2.0515  0.1552
 3694TIP3   OH232716   4.510   2.229   1.195  0.5361 -0.5022  0.7882
 3694TIP3    H132717   4.501   2.324   1.190 -0.0367 -0.5788  0.2017
 3694TIP3    H232718   4.479   2.206   1.282  3.1500  0.0926  1.9665
 3695TIP3   OH232719   3.713   2.234   0.582 -0.0335 -0.1616  0.3777
 3695TIP3    H132720   3.800   2.231   0.544  0.1797 -0.8400  0.9073
 3695TIP3    H232721   3.663   2.291   0.524  1.4462  2.4147  1.4795
 3696TIP3   OH232722   4.105   0.050   0.805  0.3932 -0.1758  1.1307
 3696TIP3    H132723   4.163   0.126   0.799  0.6931 -0.4087  1.0487
 3696TIP3    H232724   4.091   0.038   0.899  1.7373 -1.0499  1.2552
 3697TIP3   OH232725   4.421   0.129   6.763  0.2389  0.1074 -0.8715
 3697TIP3    H132726   4.371   0.200   6.801 -0.7904  0.1523 -2.2248
 3697TIP3    H232727   4.356   0.066   6.734  1.0945 -1.0087 -0.4461
 3698TIP3   OH232728   3.942   3.235   7.543  0.1161 -0.6987  0.6627
 3698TIP3    H132729   3.857   3.279   7.544  0.4372  0.0144 -0.5609
 3698TIP3    H232730   3.941   3.181   7.464  0.2799 -1.7896  1.3863
 3699TIP3   OH232731   4.230   0.940   2.538  0.0763  0.6538  1.0796
 3699TIP3    H132732   4.150   0.915   2.493  0.7285  0.3760  0.0356
 3699TIP3    H232733   4.270   0.857   2.564  0.2567  0.7709  1.1780
 3700TIP3   OH232734   4.783   5.876   7.476  0.1592  0.1855 -0.3505
 3700TIP3    H132735   4.769   5.806   7.539  1.1218  1.3670  1.2688
 3700TIP3    H232736   4.873   5.864   7.446  0.6182  1.1529  0.5631
 3701TIP3   OH232737   1.389   4.765   7.126  0.6555 -0.5618  0.0478
 3701TIP3    H132738   1.363   4.711   7.051  0.5378 -0.3452 -0.0685
 3701TIP3    H232739   1.483   4.780   7.113  0.1915  1.5287 -1.4023
 3702TIP3   OH232740   0.425   1.283   7.482  0.2110  0.3923  0.1103
 3702TIP3    H132741   0.438   1.205   7.537  2.1378 -0.2648 -1.1808
 3702TIP3    H232742   0.471   1.263   7.401 -1.8751  1.6709 -1.4768
 3703TIP3   OH232743   0.778   3.677   8.318 -0.1259 -0.3882  0.4910
 3703TIP3    H132744   0.737   3.740   8.377 -0.3722 -1.3423  1.3826
 3703TIP3    H232745   0.853   3.643   8.368  2.0745  1.5877 -1.2467
 3704TIP3   OH232746   5.425   0.432   8.503  0.1191  0.1705  0.3022
 3704TIP3    H132747   5.507   0.477   8.481 -0.4711  0.7103 -0.9320
 3704TIP3    H232748   5.377   0.494   8.557 -0.3948  0.7782 -0.8163
 3705TIP3   OH232749   0.279   2.634   0.938  0.5477 -0.0657  0.5746
 3705TIP3    H132750   0.352   2.681   0.978  0.1185 -0.0248  1.3404
 3705TIP3    H232751   0.260   2.681   0.857 -0.2387  1.4450  1.5973
 3706TIP3   OH232752   5.169   3.134   1.476  0.0000  0.0155  0.4610
 3706TIP3    H132753   5.187   3.074   1.549 -1.1146 -0.9854 -0.0659
 3706TIP3    H232754   5.208   3.217   1.504  2.9686 -1.2935  0.5456
 3707TIP3   OH232755   2.090   5.196   8.212  0.4225 -0.2464  0.3102
 3707TIP3    H132756   2.086   5.166   8.121 -3.1382  0.8245 -0.0354
 3707TIP3    H232757   2.084   5.291   8.206 -2.5889 -0.2675  1.6227
 3708TIP3   OH232758   5.870   0.479   8.756  0.3151  0.0756 -0.2177
 3708TIP3    H132759   5.830   0.555   8.714 -0.0892 -0.3338 -0.5817
 3708TIP3    H232760   5.909   0.514   8.836  0.1917  0.6786 -0.4154
 3709TIP3   OH232761   0.659   6.525   7.960 -0.2184  0.3724  0.0198
 3709TIP3    H132762   0.745   6.505   7.922  0.1878 -0.0567  1.1304
 3709TIP3    H232763   0.617   6.440   7.970 -1.5404  0.7032 -2.2054
 3710TIP3   OH232764   6.237   6.125   0.572 -0.2836 -0.1066 -0.1829
 3710TIP3    H132765   6.187   6.150   0.649 -0.6262 -0.1366 -0.3915
 3710TIP3    H232766   6.327   6.148   0.593 -0.6775  2.1494 -0.7105
 3711TIP3   OH232767   3.509   2.040   0.968 -0.6322  0.0993  0.4037
 3711TIP3    H132768   3.596   2.012   0.997 -0.1624  1.6040  0.5050
 3711TIP3    H232769   3.451   1.971   0.999  0.5202 -0.9454  0.3204
 3712TIP3   OH232770   1.000   1.902   1.500 -0.1918  0.0651 -0.6488
 3712TIP3    H132771   1.034   1.815   1.480 -1.5052 -0.4188 -0.8750
 3712TIP3    H232772   1.011   1.911   1.595  1.9687  0.5750 -0.8938
 3713TIP3   OH232773   5.338   3.067   7.749 -0.5422  0.1690 -0.9172
 3713TIP3    H132774   5.255   3.066   7.796  0.1625 -2.0559  0.4281
 3713TIP3    H232775   5.348   2.978   7.716  2.4419 -0.4288  1.1864
 3714TIP3   OH232776   0.074   1.225   1.829  0.1265 -0.1009  0.0841
 3714TIP3    H132777   0.080   1.135   1.860  2.1095 -0.1008 -0.2186
 3714TIP3    H232778   0.044   1.274   1.905  2.2240 -0.5382  1.2605
 3715TIP3   OH232779   5.276   1.228   6.846  0.5096  0.2875 -0.4017
 3715TIP3    H132780   5.316   1.312   6.823  2.4437 -0.2632  0.7130
 3715TIP3    H232781   5.340   1.186   6.903 -1.1751 -1.2140  0.4929
 3716TIP3   OH232782   4.372   5.145   8.106 -0.2680  0.1510 -0.5527
 3716TIP3    H132783   4.279   5.164   8.099 -0.0090  1.9478  0.2282
 3716TIP3    H232784   4.413   5.211   8.050  0.5126 -1.2248 -1.6659
 3717TIP3   OH232785   1.322   0.662   7.817 -0.3754  0.1214  0.5781
 3717TIP3    H132786   1.313   0.757   7.823 -0.2731  0.2193 -0.5261
 3717TIP3    H232787   1.235   0.632   7.790 -0.3230 -0.0685  0.6213
 3718TIP3   OH232788   6.035   2.806   8.407 -0.2548 -0.1656  0.0165
 3718TIP3    H132789   6.023   2.896   8.437  1.4081 -0.5259  2.0101
 3718TIP3    H232790   5.948   2.777   8.380 -1.0500  1.6200  0.5558
 3719TIP3   OH232791   1.017   5.712   0.991  0.6918  0.2828 -0.1636
 3719TIP3    H132792   0.970   5.766   1.056  1.5597 -0.5313  1.2007
 3719TIP3    H232793   0.956   5.641   0.972  0.9842 -0.3020  0.9526
 3720TIP3   OH232794   3.262   0.648   2.364  0.5758 -0.4728 -0.9629
 3720TIP3    H132795   3.188   0.592   2.386  0.3750  0.6823  1.7066
 3720TIP3    H232796   3.225   0.736   2.355  1.4873  0.0049 -0.3109
 3721TIP3   OH232797   6.282   0.668   0.897 -0.3244 -0.6437 -0.0205
 3721TIP3    H132798   6.247   0.620   0.972  0.7306 -0.8362  0.3718
 3721TIP3    H232799   6.217   0.735   0.878 -0.7604 -0.8006  0.8698
 3722TIP3   OH232800   4.714   5.998   7.838  0.4211 -0.7325  0.2259
 3722TIP3    H132801   4.790   6.010   7.781  0.8694 -0.3076  0.8934
 3722TIP3    H232802   4.665   6.080   7.829  1.3994  0.0594  1.7482
 3723TIP3   OH232803   2.626   5.575   0.526  0.6427 -0.8229  0.0326
 3723TIP3    H132804   2.559   5.595   0.591  0.6411 -1.9787  0.4055
 3723TIP3    H232805   2.664   5.660   0.503  3.2412 -0.5827  4.2846
 3724TIP3   OH232806   2.154   6.388   1.025 -0.2168 -0.1269  0.5712
 3724TIP3    H132807   2.177   6.479   1.004 -2.3899  0.7309  1.5706
 3724TIP3    H232808   2.199   6.336   0.959  1.9927  1.5689  0.6166
 3725TIP3   OH232809   0.254   2.996   6.677  0.4108 -0.0141 -0.0715
 3725TIP3    H132810   0.250   3.054   6.601 -0.6783  1.4389  1.0200
 3725TIP3    H232811   0.269   3.055   6.751 -0.5654 -1.1437  1.0738
 3726TIP3   OH232812   2.434   3.789   8.938 -0.0622 -0.5109  0.7800
 3726TIP3    H132813   2.492   3.845   8.885  0.7602  0.2653  2.4151
 3726TIP3    H232814   2.396   3.728   8.875  0.0624  1.0084 -0.8776
 3727TIP3   OH232815   6.716   2.273   7.528 -0.1937  0.5682  0.5057
 3727TIP3    H132816   6.775   2.239   7.461 -1.2295  1.4560 -0.8944
 3727TIP3    H232817   6.671   2.195   7.562  1.4210 -0.0783  1.3205
 3728TIP3   OH232818   3.793   1.452   8.070  0.1837  0.0706 -0.1880
 3728TIP3    H132819   3.770   1.395   8.143 -0.2201  1.2292  0.6099
 3728TIP3    H232820   3.878   1.421   8.041  0.4697 -0.2368  0.9440
 3729TIP3   OH232821   4.354   6.545   8.582  0.5422  0.1433 -0.6094
 3729TIP3    H132822   4.371   6.460   8.624 -1.7156  0.5582  1.3953
 3729TIP3    H232823   4.439   6.574   8.550  1.7860 -1.8454  0.6960
 3730TIP3   OH232824   3.997   1.705   1.190 -0.4578  0.2566  0.2324
 3730TIP3    H132825   4.039   1.680   1.108 -1.1103  1.5189 -0.5015
 3730TIP3    H232826   3.912   1.662   1.187 -0.5460  0.4373  0.1848
 3731TIP3   OH232827   0.692   1.451   7.843 -0.0652  0.0752 -0.0118
 3731TIP3    H132828   0.680   1.546   7.850 -0.6498 -0.0635  1.3025
 3731TIP3    H232829   0.612   1.420   7.800  0.3199  0.2202 -0.8343
 3732TIP3   OH232830   0.585   5.096   8.667  0.5919 -0.1734  0.1247
 3732TIP3    H132831   0.678   5.090   8.690  0.1109 -1.9931  1.8173
 3732TIP3    H232832   0.562   5.187   8.687  2.1398  0.5374 -1.0491
 3733TIP3   OH232833   5.001   0.029   0.174 -0.0355  0.2393  0.2978
 3733TIP3    H132834   5.072   0.088   0.148  1.6811 -2.6189 -2.1148
 3733TIP3    H232835   4.922   0.071   0.139  1.2816  0.5278 -2.6334
 3734TIP3   OH232836   5.525   1.076   1.801  0.5423 -0.0969 -0.5403
 3734TIP3    H132837   5.548   1.050   1.890  0.2555  0.3117 -0.3414
 3734TIP3    H232838   5.435   1.108   1.808  0.3783 -0.4240 -1.0520
 3735TIP3   OH232839   6.231   3.863   8.379 -0.2003 -0.1131 -0.3455
 3735TIP3    H132840   6.179   3.827   8.307 -0.8626  1.4873 -0.7200
 3735TIP3    H232841   6.246   3.789   8.437 -3.3209 -0.5897  0.0214
 3736TIP3   OH232842   2.787   5.892   8.606  0.0078 -0.6577  0.8031
 3736TIP3    H132843   2.767   5.923   8.695  1.1563 -2.9030  1.9269
 3736TIP3    H232844   2.750   5.804   8.603  0.3725 -0.7790 -0.8041
 3737TIP3   OH232845   5.357   4.461   2.325  0.2530 -0.2616  0.0433
 3737TIP3    H132846   5.421   4.445   2.256 -0.2358 -1.8539 -0.0806
 3737TIP3    H232847   5.283   4.502   2.280  0.9319  1.0644  0.0921
 3738TIP3   OH232848   2.080   1.088   1.119  0.2583 -0.2229  0.2204
 3738TIP3    H132849   2.017   1.030   1.075  0.5763 -0.1971 -0.2841
 3738TIP3    H232850   2.068   1.173   1.076  0.8942 -0.3104 -0.1419
 3739TIP3   OH232851   5.578   1.013   8.288 -0.0608 -0.0263  0.4056
 3739TIP3    H132852   5.535   1.092   8.255 -0.1854  0.6383  2.0438
 3739TIP3    H232853   5.539   0.941   8.239  0.3643  0.9403 -1.4313
 3740TIP3   OH232854   2.291   0.829   8.876 -0.1354  0.7945 -0.0266
 3740TIP3    H132855   2.257   0.918   8.883  0.5598  1.0516  0.1763
 3740TIP3    H232856   2.339   0.827   8.794 -1.6557  0.0659 -0.9423
 3741TIP3   OH232857   4.436   4.268   2.625 -0.2608  0.2539  0.0754
 3741TIP3    H132858   4.404   4.337   2.566  0.8798  1.9638  1.4057
 3741TIP3    H232859   4.358   4.214   2.641 -1.1833  1.1979 -0.9862
 3742TIP3   OH232860   0.476   3.544   2.240 -0.6391  0.1828 -0.1419
 3742TIP3    H132861   0.546   3.500   2.191 -1.7075  0.1482 -1.6834
 3742TIP3    H232862   0.421   3.474   2.273  0.0933  0.2043  1.1963
 3743TIP3   OH232863   3.175   0.525   0.201  0.5103  0.1648  0.1023
 3743TIP3    H132864   3.185   0.620   0.201  1.1968  0.1029  0.6027
 3743TIP3    H232865   3.225   0.496   0.124 -1.9242  0.3799 -1.6913
 3744TIP3   OH232866   2.530   4.170   1.367 -0.7183  0.5207  0.2592
 3744TIP3    H132867   2.601   4.131   1.317 -1.5919 -0.8085  0.0187
 3744TIP3    H232868   2.513   4.254   1.323 -0.8413 -0.1965 -1.1125
 3745TIP3   OH232869   1.406   1.451   2.083 -0.1370  0.1151 -0.0162
 3745TIP3    H132870   1.348   1.516   2.043 -0.8221 -0.2125  0.4325
 3745TIP3    H232871   1.347   1.393   2.131  0.4120 -1.1771 -0.8573
 3746TIP3   OH232872   1.831   2.627   7.538 -1.0806  0.3606  0.0911
 3746TIP3    H132873   1.825   2.577   7.456  2.6488 -1.1336  0.4906
 3746TIP3    H232874   1.783   2.574   7.602 -1.8508  0.1781 -0.6333
 3747TIP3   OH232875   6.437   5.306   0.482 -0.3853 -0.2884  0.1594
 3747TIP3    H132876   6.424   5.328   0.389  1.7305  0.8516  0.0729
 3747TIP3    H232877   6.401   5.381   0.529 -0.9591 -0.6165  0.2504
 3748TIP3   OH232878   1.997   5.906   6.939  0.0088  0.9124  0.5884
 3748TIP3    H132879   2.000   5.905   6.844  0.8386  1.6899  0.5876
 3748TIP3    H232880   2.083   5.874   6.966 -0.3358  0.3915  1.0814
 3749TIP3   OH232881   4.692   2.042   8.214  0.0730 -0.6094 -0.1284
 3749TIP3    H132882   4.613   2.006   8.255 -0.8761 -0.2910 -1.5902
 3749TIP3    H232883   4.708   1.984   8.139 -0.3961  0.8717 -1.4319
 3750TIP3   OH232884   3.278   4.481   1.308 -0.1057  0.1490 -0.9464
 3750TIP3    H132885   3.217   4.554   1.302 -0.2136 -0.0385 -2.5643
 3750TIP3    H232886   3.330   4.487   1.228  0.9878 -0.5904 -0.3158
 3751TIP3   OH232887   2.684   1.826   1.912 -0.3729 -0.6031  0.2692
 3751TIP3    H132888   2.659   1.777   1.990 -0.8454 -1.5700 -0.4645
 3751TIP3    H232889   2.605   1.875   1.888 -0.1230 -0.0338  0.5841
 3752TIP3   OH232890   3.421   1.313   8.060  0.2952 -0.4886  0.7196
 3752TIP3    H132891   3.400   1.296   8.152 -0.8700  0.4214  0.6470
 3752TIP3    H232892   3.426   1.409   8.054  0.9672 -0.5604 -0.0496
 3753TIP3   OH232893   1.137   1.928   8.478 -0.6740  0.0363 -0.0789
 3753TIP3    H132894   1.112   1.912   8.386  1.0943 -1.2323 -0.3906
 3753TIP3    H232895   1.074   1.992   8.509 -1.1670  0.6929 -2.2673
 3754TIP3   OH232896   5.216   6.229   8.755 -0.4142  0.0501  0.1483
 3754TIP3    H132897   5.282   6.160   8.753  0.6548  1.0289 -1.7881
 3754TIP3    H232898   5.135   6.184   8.779  0.9337 -1.1460  2.7670
 3755TIP3   OH232899   5.134   6.280   1.318 -0.0184  0.5417 -0.4171
 3755TIP3    H132900   5.040   6.281   1.303 -0.2843 -2.5806  0.4533
 3755TIP3    H232901   5.172   6.256   1.233 -0.0211  1.1136 -0.5886
 3756TIP3   OH232902   6.574   0.367   8.148  0.0079 -0.6615  0.4320
 3756TIP3    H132903   6.567   0.394   8.239 -0.0468  2.4768 -0.3833
 3756TIP3    H232904   6.502   0.305   8.135 -0.1098 -0.9906  2.4193
 3757TIP3   OH232905   3.086   4.114   1.276 -0.8835 -0.1136  0.0622
 3757TIP3    H132906   3.164   4.162   1.303 -0.8072  0.9793 -1.8750
 3757TIP3    H232907   3.093   4.029   1.319  1.2196  0.0648  0.1672
 3758TIP3   OH232908   0.782   6.253   7.776  0.5229  0.0579 -0.1773
 3758TIP3    H132909   0.784   6.176   7.719 -1.7831  0.6372 -1.1500
 3758TIP3    H232910   0.705   6.302   7.748  0.6924  1.6312  1.8611
 3759TIP3   OH232911   1.004   5.496   0.104  0.2767  0.0301 -0.2913
 3759TIP3    H132912   0.909   5.508   0.100  0.2623  0.2326  0.4613
 3759TIP3    H232913   1.030   5.537   0.187  1.2213  1.3647 -1.1922
 3760TIP3   OH232914   0.620   0.499   1.675  0.5035  0.6817  0.4502
 3760TIP3    H132915   0.590   0.408   1.671  1.2784  0.4006  0.9661
 3760TIP3    H232916   0.655   0.509   1.763  0.1899  1.5625  0.4853
 3761TIP3   OH232917   6.147   5.331   7.665 -0.3490  0.4821  0.0915
 3761TIP3    H132918   6.177   5.422   7.670 -0.6971  0.6482 -0.6990
 3761TIP3    H232919   6.215   5.286   7.616  0.2706  0.0984  1.2487
 3762TIP3   OH232920   3.091   3.648   1.206  1.1485 -0.3594 -0.5147
 3762TIP3    H132921   3.125   3.563   1.236  2.3044 -0.3133 -1.6176
 3762TIP3    H232922   3.088   3.701   1.286  0.8417 -1.2935  0.1106
 3763TIP3   OH232923   0.207   3.543   0.607 -0.1330 -0.4978  0.2533
 3763TIP3    H132924   0.299   3.568   0.617 -0.4325  0.0642  1.9815
 3763TIP3    H232925   0.204   3.496   0.524  2.0833 -2.2050  1.0374
 3764TIP3   OH232926   3.079   5.256   0.636 -0.0574  0.6164  0.1641
 3764TIP3    H132927   2.997   5.241   0.590  0.6995  0.5815 -1.2396
 3764TIP3    H232928   3.067   5.215   0.722 -0.1682 -2.8272 -1.3384
 3765TIP3   OH232929   6.050   2.834   0.139 -0.0167 -0.0164  0.6767
 3765TIP3    H132930   6.024   2.742   0.140  0.0240 -0.0269  0.9561
 3765TIP3    H232931   6.139   2.833   0.103  0.1233 -0.1244  1.0278
 3766TIP3   OH232932   4.963   6.229   0.868 -0.1343  0.6317 -0.1876
 3766TIP3    H132933   4.963   6.151   0.924 -2.2141  0.2628 -0.6152
 3766TIP3    H232934   4.893   6.284   0.903 -0.8039  0.8476 -1.7655
 3767TIP3   OH232935   4.227   0.957   7.875  0.2098  0.1727  0.0901
 3767TIP3    H132936   4.283   0.880   7.885 -0.4544 -0.0980  2.2544
 3767TIP3    H232937   4.140   0.922   7.857 -0.0224  0.4234  0.6974
 3768TIP3   OH232938   2.435   0.155   0.469  0.0004  0.5510  0.6445
 3768TIP3    H132939   2.370   0.220   0.444 -0.8158  0.0214  1.3240
 3768TIP3    H232940   2.388   0.095   0.528  0.8576 -0.3617  0.4330
 3769TIP3   OH232941   4.116   2.627   8.500 -0.9916 -0.5538  0.3513
 3769TIP3    H132942   4.079   2.546   8.466  0.5605 -0.9633 -0.4471
 3769TIP3    H232943   4.158   2.602   8.582 -2.0272 -0.1857  1.0097
 3770TIP3   OH232944   3.834   0.161   1.537 -0.1351  0.1276  0.6494
 3770TIP3    H132945   3.897   0.098   1.501  0.3603 -0.5259  2.5106
 3770TIP3    H232946   3.790   0.197   1.461  2.6914  0.8343 -0.8087
 3771TIP3   OH232947   5.310   5.073   8.545 -0.4484  0.0617  0.5507
 3771TIP3    H132948   5.373   5.047   8.478  0.7384 -1.5864  2.2162
 3771TIP3    H232949   5.226   5.076   8.499  0.5555  0.7224 -1.3672
 3772TIP3   OH232950   0.998   5.788   0.036 -0.1276  0.4982  0.0582
 3772TIP3    H132951   0.986   5.693   0.035 -0.2193  0.5067 -1.0160
 3772TIP3    H232952   0.948   5.818   0.112 -0.4276 -0.2720  0.1709
 3773TIP3   OH232953   3.817   3.468   8.572  0.0298 -0.2513 -0.0318
 3773TIP3    H132954   3.723   3.477   8.555  0.2298 -0.8970 -1.6392
 3773TIP3    H232955   3.849   3.558   8.576 -0.7970  0.0143  1.6000
 3774TIP3   OH232956   0.964   5.515   2.174 -0.1276  0.1983  0.0205
 3774TIP3    H132957   0.912   5.592   2.152  0.4465  0.3494 -0.9096
 3774TIP3    H232958   1.048   5.529   2.128 -0.2773 -1.3107 -0.8024
 3775TIP3   OH232959   1.819   4.079   8.194 -0.0327  0.7127  0.5162
 3775TIP3    H132960   1.854   3.997   8.228  0.6897  1.0350  0.5735
 3775TIP3    H232961   1.891   4.116   8.143 -1.1514  0.1056 -1.6701
 3776TIP3   OH232962   1.516   3.616   1.536  0.4763  0.1090 -0.0037
 3776TIP3    H132963   1.576   3.678   1.494  1.3340 -0.1971  0.7505
 3776TIP3    H232964   1.450   3.672   1.577 -0.4347  0.4164 -1.7879
 3777TIP3   OH232965   4.791   2.279   8.378 -0.2278 -0.0262  0.1153
 3777TIP3    H132966   4.781   2.361   8.427 -1.2583  0.2874 -0.5923
 3777TIP3    H232967   4.706   2.237   8.385  0.2514 -0.9741  0.3371
 3778TIP3   OH232968   4.850   1.848   0.168  0.2344 -0.4298 -0.0422
 3778TIP3    H132969   4.760   1.868   0.142  0.1556 -0.9793 -0.2121
 3778TIP3    H232970   4.881   1.928   0.210 -0.0637  0.0449 -0.6952
 3779TIP3   OH232971   6.424   0.353   0.534  0.1503 -0.3448  0.6389
 3779TIP3    H132972   6.348   0.404   0.505  0.1521 -0.3449  0.6346
 3779TIP3    H232973   6.388   0.293   0.599  0.5800  1.4025  2.6053
 3780TIP3   OH232974   0.995   5.109   7.051  0.3487 -0.5055 -0.4659
 3780TIP3    H132975   1.041   5.038   7.005 -0.2826 -0.5143 -1.0984
 3780TIP3    H232976   0.980   5.074   7.139 -2.7938 -2.4980 -1.6407
 3781TIP3   OH232977   3.210   0.810   8.185 -0.1014 -0.7237 -0.0778
 3781TIP3    H132978   3.242   0.813   8.094  0.1781 -0.2641  0.0341
 3781TIP3    H232979   3.138   0.872   8.186  0.9819  0.5775  0.4253
 3782TIP3   OH232980   5.349   2.716   2.179 -0.3735  0.1363  0.2593
 3782TIP3    H132981   5.423   2.669   2.217 -0.2089  0.2516  0.0822
 3782TIP3    H232982   5.369   2.808   2.193  1.2319  0.3797 -2.8306
 3783TIP3   OH232983   3.725   1.741   6.785 -0.0083 -0.0531 -0.2540
 3783TIP3    H132984   3.784   1.798   6.835 -0.3305  0.4097 -0.3888
 3783TIP3    H232985   3.771   1.657   6.780  0.5997  0.2732 -0.2775
 3784TIP3   OH232986   2.831   3.952   3.054 -1.0755  0.0911 -0.4269
 3784TIP3    H132987   2.860   4.025   2.999 -2.0819  1.4908  0.8239
 3784TIP3    H232988   2.759   3.988   3.106 -0.9212 -1.4983  0.9702
 3785TIP3   OH232989   0.182   1.213   1.037  0.3985  0.0088  0.2747
 3785TIP3    H132990   0.273   1.228   1.010  0.0814  0.4389 -0.5843
 3785TIP3    H232991   0.161   1.287   1.093  0.0223  0.8740 -0.9688
 3786TIP3   OH232992   2.853   3.847   0.182  0.0466  0.0462 -0.2547
 3786TIP3    H132993   2.826   3.929   0.142  1.0231  0.7502  0.4898
 3786TIP3    H232994   2.804   3.780   0.135 -1.1580  1.0837 -0.5341
 3787TIP3   OH232995   6.332   6.372   0.263 -0.7278 -0.2021 -0.3667
 3787TIP3    H132996   6.379   6.289   0.261  0.3567  0.3881 -0.4897
 3787TIP3    H232997   6.326   6.394   0.356 -0.0120  0.1043 -0.3806
 3788TIP3   OH232998   1.008   2.950   2.150  0.3571 -0.7809 -0.0438
 3788TIP3    H132999   0.965   3.014   2.207  0.4352 -0.4988 -0.3035
 3788TIP3    H233000   0.995   2.866   2.195 -0.0855 -0.6403  0.1010
 3789TIP3   OH233001   0.908   1.004   7.270 -0.8063 -0.3821 -0.3596
 3789TIP3    H133002   0.964   0.937   7.232 -0.1001 -0.5890  0.9783
 3789TIP3    H233003   0.821   0.965   7.272 -0.9927 -0.1403 -2.2613
 3790TIP3   OH233004   4.250   2.990   8.783  0.1079  0.7857 -0.5455
 3790TIP3    H133005   4.203   2.932   8.723  1.4472 -0.7886 -0.1348
 3790TIP3    H233006   4.253   3.074   8.738  1.9951 -0.5769 -3.2383
 3791TIP3   OH233007   3.128   4.589   0.106 -0.0652  0.4759 -0.1674
 3791TIP3    H133008   3.173   4.641   0.040 -1.5971  1.5150 -0.4536
 3791TIP3    H233009   3.122   4.647   0.182  1.0354 -0.4500  0.6727
 3792TIP3   OH233010   4.395   3.850   8.386  0.5065 -0.3533  0.0077
 3792TIP3    H133011   4.448   3.791   8.332 -0.4371 -0.6030 -0.6577
 3792TIP3    H233012   4.445   3.858   8.468  1.3380 -0.9526 -0.4248
 3793TIP3   OH233013   1.766   2.029   7.852  0.2043 -0.6158 -0.6455
 3793TIP3    H133014   1.673   2.047   7.844  0.6609  2.4661 -0.4574
 3793TIP3    H233015   1.781   2.020   7.946  0.1287 -0.8095 -0.6528
 3794TIP3   OH233016   2.801   1.517   8.473 -0.3349  0.0643 -0.2707
 3794TIP3    H133017   2.863   1.589   8.484  1.3146 -0.6088 -3.7347
 3794TIP3    H233018   2.777   1.492   8.562  2.9905  1.5734  1.2188
 3795TIP3   OH233019   3.656   3.063   0.778  0.9727 -0.1974 -0.1172
 3795TIP3    H133020   3.628   2.993   0.720  2.2521  1.1275 -2.5124
 3795TIP3    H233021   3.579   3.118   0.790  0.2306 -1.4287  0.9672
 3796TIP3   OH233022   4.228   3.638   8.036 -0.2510 -0.1309 -0.4107
 3796TIP3    H133023   4.306   3.691   8.025  0.1708 -0.6174  0.1247
 3796TIP3    H233024   4.164   3.696   8.077 -0.1137  0.2263 -0.7073
 3797TIP3   OH233025   2.465   0.543   0.732 -0.1216 -0.2766  0.6910
 3797TIP3    H133026   2.526   0.596   0.681 -0.4796  0.6067  1.1642
 3797TIP3    H233027   2.419   0.605   0.788 -0.5905 -1.0794  1.2286
 3798TIP3   OH233028   3.822   1.681   8.209 -0.0650  0.2060  0.0869
 3798TIP3    H133029   3.825   1.614   8.142 -0.2571  0.0140  0.2709
 3798TIP3    H233030   3.739   1.668   8.254  1.1835 -1.4071  2.1349
 3799TIP3   OH233031   1.014   5.403   8.054 -0.0963  0.3752  0.8286
 3799TIP3    H133032   0.962   5.327   8.076 -1.3088  0.8021 -0.4044
 3799TIP3    H233033   0.965   5.477   8.090  0.3804  0.6796  0.8625
 3800TIP3   OH233034   0.828   1.093   8.036  0.5011 -0.6372 -0.1265
 3800TIP3    H133035   0.868   1.162   7.983 -0.7630 -0.0773 -0.3938
 3800TIP3    H233036   0.816   1.020   7.975 -1.8535  0.3476 -0.9389
 3801TIP3   OH233037   5.540   3.619   8.781  0.1554  0.4413  0.5265
 3801TIP3    H133038   5.589   3.693   8.817 -0.0060  1.4024 -1.0984
 3801TIP3    H233039   5.471   3.602   8.845  0.5734  1.2871  1.2290
 3802TIP3   OH233040   2.544   2.010   0.960  0.1861  0.5617  0.4419
 3802TIP3    H133041   2.519   2.057   1.040 -2.4410  0.3840 -0.1898
 3802TIP3    H233042   2.586   2.077   0.905  0.2959  1.1345  1.2109
 3803TIP3   OH233043   1.051   4.705   7.799  0.1343 -0.1619 -0.0874
 3803TIP3    H133044   1.133   4.747   7.824 -0.5030  0.8836  0.3434
 3803TIP3    H233045   0.997   4.776   7.764 -0.4215 -0.9126 -0.7939
 3804TIP3   OH233046   1.108   2.400   0.520  0.1485 -0.4756  0.2088
 3804TIP3    H133047   1.028   2.379   0.569  1.3490 -1.4612  1.8625
 3804TIP3    H233048   1.094   2.362   0.434 -1.2139 -0.5285  0.4290
 3805TIP3   OH233049   3.068   5.740   1.417  0.1661  0.0259  0.9861
 3805TIP3    H133050   3.006   5.807   1.390  0.2187  0.1861  1.2633
 3805TIP3    H233051   3.150   5.787   1.431  0.4219 -0.2198  0.3870
 3806TIP3   OH233052   1.805   6.178   2.672 -0.3642 -0.1483  1.1382
 3806TIP3    H133053   1.807   6.272   2.653  1.8554 -0.0786  1.4174
 3806TIP3    H233054   1.874   6.140   2.617 -2.2951 -1.9388 -0.2113
 3807TIP3   OH233055   3.147   5.191   0.911 -0.4397  0.3480  0.0963
 3807TIP3    H133056   3.150   5.124   0.979  0.8776 -0.0391 -0.3166
 3807TIP3    H233057   3.101   5.264   0.952 -1.3782 -0.5785  0.7483
 3808TIP3   OH233058   2.693   1.458   0.654 -0.2026 -0.6129  0.8174
 3808TIP3    H133059   2.681   1.366   0.677 -1.6388 -0.6221  0.1245
 3808TIP3    H233060   2.682   1.461   0.559 -2.0316  0.5086  1.0161
 3809TIP3   OH233061   3.278   1.104   1.023  0.3215  0.2084 -0.0087
 3809TIP3    H133062   3.187   1.102   1.051  0.6416  0.1199  1.1005
 3809TIP3    H233063   3.317   1.028   1.067  0.7543 -0.2098 -1.1001
 3810TIP3   OH233064   6.707   3.220   0.067  0.0797 -0.1837  0.3678
 3810TIP3    H133065   6.651   3.244   0.140  0.5586 -0.8211  0.9553
 3810TIP3    H233066   6.738   3.303   0.032 -1.2321  0.1791  0.0220
 3811TIP3   OH233067   3.257   0.622   1.305 -0.2470  0.2522  0.0599
 3811TIP3    H133068   3.233   0.540   1.263 -0.9171  1.0238 -1.1312
 3811TIP3    H233069   3.181   0.646   1.358 -0.5178  0.6594 -0.4985
 3812TIP3   OH233070   6.722   5.471   8.363 -0.0798  0.7033  0.1913
 3812TIP3    H133071   6.658   5.400   8.351 -0.1377  0.7040  0.4940
 3812TIP3    H233072   6.804   5.426   8.382 -0.4560  0.7386  2.0276
 3813TIP3   OH233073   0.907   2.306   8.151  0.0940  0.1252  0.1463
 3813TIP3    H133074   0.908   2.345   8.063 -0.6817  0.5109  0.3034
 3813TIP3    H233075   0.989   2.337   8.191 -0.7203  2.0510  0.4508
 3814TIP3   OH233076   3.025   6.396   1.396  0.1603 -0.0485 -0.1223
 3814TIP3    H133077   2.955   6.458   1.375 -0.4374 -1.1162 -1.4151
 3814TIP3    H233078   3.018   6.383   1.491 -1.9547 -0.7750 -0.3279
 3815TIP3   OH233079   5.944   4.548   0.182 -0.0740 -0.1252  0.5591
 3815TIP3    H133080   5.952   4.454   0.166 -1.8643 -0.1599 -0.4107
 3815TIP3    H233081   5.864   4.573   0.135 -0.5290  1.5739  2.1303
 3816TIP3   OH233082   5.644   0.226   1.373 -0.5422  0.1205  0.5371
 3816TIP3    H133083   5.666   0.137   1.401  0.3753  0.4451  0.8852
 3816TIP3    H233084   5.599   0.265   1.448  0.2548  0.3763  0.8997
 3817TIP3   OH233085   6.285   0.611   6.502  0.1093 -0.4154  0.1059
 3817TIP3    H133086   6.376   0.593   6.479 -0.4577 -0.1763 -2.6524
 3817TIP3    H233087   6.238   0.531   6.478 -0.5272 -0.2824  0.8579
 3818TIP3   OH233088   3.361   5.078   0.795 -0.5370  0.3797  0.3073
 3818TIP3    H133089   3.278   5.080   0.844 -0.6210  1.5901  0.1501
 3818TIP3    H233090   3.428   5.071   0.863 -0.7969 -2.7370  0.3542
 3819TIP3   OH233091   5.542   4.546   7.216  0.1342  0.1730 -0.3697
 3819TIP3    H133092   5.577   4.457   7.226  0.1008  0.0401 -1.3413
 3819TIP3    H233093   5.461   4.546   7.267  0.3933 -0.1977  0.0496
 3820TIP3   OH233094   0.755   3.550   0.469  0.5081  0.0114  0.8067
 3820TIP3    H133095   0.776   3.503   0.389  0.3501 -0.5226  1.0762
 3820TIP3    H233096   0.834   3.542   0.523  0.7158  0.6059  0.5964
 3821TIP3   OH233097   2.910   2.014   1.812  0.1344  0.2693  0.5361
 3821TIP3    H133098   2.888   2.069   1.887  0.5272 -0.1578  0.9730
 3821TIP3    H233099   2.841   1.949   1.808 -0.2132  0.6556  0.1520
 3822TIP3   OH233100   0.380   1.429   0.262 -0.2956  0.3614 -0.1742
 3822TIP3    H133101   0.332   1.511   0.275  0.0656  0.5382  0.0827
 3822TIP3    H233102   0.454   1.436   0.322  0.0962  0.1288 -0.6293
 3823TIP3   OH233103   3.515   0.022   8.456 -0.0425 -0.6926 -0.2125
 3823TIP3    H133104   3.468   0.022   8.539  0.4045 -0.0338  0.0469
 3823TIP3    H233105   3.504  -0.067   8.422 -0.6459 -0.8200  0.3105
 3824TIP3   OH233106   3.339   4.416   0.678  0.3477  0.2308 -0.0224
 3824TIP3    H133107   3.289   4.467   0.742  1.3483 -0.3486  1.2541
 3824TIP3    H233108   3.329   4.465   0.596 -0.6470  1.1948  0.6435
 3825TIP3   OH233109   5.847   3.723   0.226 -0.1300 -0.3388 -0.3278
 3825TIP3    H133110   5.829   3.816   0.219 -0.7237 -0.5425 -1.9533
 3825TIP3    H233111   5.896   3.701   0.147  1.9588 -1.0186  1.0609
 3826TIP3   OH233112   0.885   1.445   1.323  0.5574 -0.1850  0.1753
 3826TIP3    H133113   0.954   1.400   1.372  1.3824  0.5998 -0.2229
 3826TIP3    H233114   0.856   1.381   1.258 -0.6748 -1.2993  1.7442
 3827TIP3   OH233115   5.783   2.820   7.276 -0.2084  0.0379 -0.1325
 3827TIP3    H133116   5.722   2.755   7.240 -0.0454 -2.4188  3.5275
 3827TIP3    H233117   5.848   2.769   7.324  2.8480  2.7583 -0.9832
 3828TIP3   OH233118   4.686   2.457   7.852  0.1158  0.0965 -0.1240
 3828TIP3    H133119   4.771   2.490   7.882  0.0327  0.1014  0.1087
 3828TIP3    H233120   4.630   2.535   7.848  0.5172  0.3320 -1.6877
 3829TIP3   OH233121   2.664   3.861   1.828  0.2335 -0.1402  0.2523
 3829TIP3    H133122   2.692   3.938   1.778  0.4275  0.3344  1.0617
 3829TIP3    H233123   2.725   3.857   1.901  0.5318 -1.3755 -0.0535
 3830TIP3   OH233124   1.895   4.126   0.584  0.0693 -0.0382  0.6345
 3830TIP3    H133125   1.816   4.127   0.637 -0.1010  1.8407  0.4034
 3830TIP3    H233126   1.936   4.042   0.605 -1.2518 -0.4369  1.8235
 3831TIP3   OH233127   2.522   2.435   7.346  0.1662  0.1335  0.1558
 3831TIP3    H133128   2.615   2.442   7.370 -0.0612 -2.6456  2.5486
 3831TIP3    H233129   2.519   2.364   7.283 -0.3164  0.3400 -0.0570
 3832TIP3   OH233130   3.789   0.181   0.029 -0.3050  0.3839  0.1949
 3832TIP3    H133131   3.850   0.214  -0.037  0.2045  0.0503  0.4948
 3832TIP3    H233132   3.840   0.118   0.080 -0.3643  1.4170  1.5997
 3833TIP3   OH233133   0.477   1.657   8.252  0.4158 -0.1540  0.0070
 3833TIP3    H133134   0.562   1.689   8.283  1.0381 -0.9293 -0.8474
 3833TIP3    H233135   0.459   1.709   8.174 -0.1918  0.4046  0.4994
 3834TIP3   OH233136   4.171   1.759   1.403 -0.0853 -0.0360  0.1668
 3834TIP3    H133137   4.092   1.733   1.355  0.5306 -1.4896 -0.1225
 3834TIP3    H233138   4.139   1.806   1.480 -1.1670  0.6421 -0.6751
 3835TIP3   OH233139   3.080   2.526   0.929  0.1330  0.0174 -0.1663
 3835TIP3    H133140   3.059   2.599   0.989  1.1795  0.1080  0.1039
 3835TIP3    H233141   3.043   2.553   0.845  0.1427  0.6731  0.0310
 3836TIP3   OH233142   3.651   0.492   1.245  0.1953 -0.0521 -0.1711
 3836TIP3    H133143   3.624   0.417   1.299 -1.6139 -0.7722 -1.9766
 3836TIP3    H233144   3.603   0.566   1.282  1.9371  0.3024  1.5773
 3837TIP3   OH233145   3.190   5.298   2.875  0.1443  0.3277 -0.3758
 3837TIP3    H133146   3.181   5.275   2.783  0.8219  1.2080 -0.6774
 3837TIP3    H233147   3.259   5.364   2.877  0.9786 -0.5288  0.9059
 3838TIP3   OH233148   5.095   2.393   1.483  0.0043  0.3285  0.3381
 3838TIP3    H133149   5.159   2.427   1.546  1.7444  1.1415 -1.7382
 3838TIP3    H233150   5.058   2.472   1.443 -0.9504 -0.1766  0.2216
 3839TIP3   OH233151   0.038   1.907   1.634 -0.8909 -0.0274 -0.1006
 3839TIP3    H133152  -0.013   1.848   1.578  0.4607 -0.0805 -1.3350
 3839TIP3    H233153   0.053   1.984   1.580 -0.5821  0.4366  0.6383
 3840TIP3   OH233154   6.458   1.218   7.728  0.2358 -0.0144  0.1590
 3840TIP3    H133155   6.469   1.287   7.663  2.0487  0.2727  0.7168
 3840TIP3    H233156   6.467   1.136   7.679 -1.1487  0.1071 -0.3680
 3841TIP3   OH233157   5.082   6.215   8.173  0.0557 -0.4339  0.8638
 3841TIP3    H133158   5.087   6.236   8.266 -1.8146 -0.8379  1.0936
 3841TIP3    H233159   5.113   6.124   8.167 -0.4580 -0.6320  1.1953
 3842TIP3   OH233160   0.217   4.228   7.611  0.0920 -0.5663  0.2936
 3842TIP3    H133161   0.149   4.289   7.584 -0.2227 -0.8293  0.4875
 3842TIP3    H233162   0.224   4.240   7.706  0.6974 -0.1531  0.2064
 3843TIP3   OH233163   4.656   2.503   1.826  0.0181 -0.2724  0.4434
 3843TIP3    H133164   4.693   2.488   1.739 -2.1562 -1.4842 -0.3362
 3843TIP3    H233165   4.728   2.542   1.876  2.0583 -1.7079 -1.2010
 3844TIP3   OH233166   1.087   2.060   1.999 -0.1989  0.1499 -0.4961
 3844TIP3    H133167   1.047   1.985   2.043  0.4030 -0.9387 -1.7299
 3844TIP3    H233168   1.154   2.090   2.059 -1.6531  0.8893  0.8223
 3845TIP3   OH233169   2.049   3.795   7.956  0.6389 -0.0828 -0.0367
 3845TIP3    H133170   2.027   3.729   8.022 -0.4891 -1.5100 -1.7599
 3845TIP3    H233171   1.985   3.864   7.970  0.7589 -0.1042  0.6949
 3846TIP3   OH233172   6.531   5.681   8.339 -0.3113  0.0235  1.1666
 3846TIP3    H133173   6.547   5.637   8.255 -1.3615 -0.0008  0.9638
 3846TIP3    H233174   6.562   5.618   8.405  0.0602 -0.1675  0.8146
 3847TIP3   OH233175   0.960   0.725   7.146 -0.7731 -0.3756 -0.6106
 3847TIP3    H133176   1.023   0.795   7.130 -1.4573  0.2287 -0.7526
 3847TIP3    H233177   0.903   0.726   7.069 -1.4861 -0.3153 -0.1006
 3848TIP3   OH233178   0.953   1.283   2.273 -0.4337  0.5204  0.3191
 3848TIP3    H133179   0.981   1.197   2.304  1.0187  1.0945  0.7100
 3848TIP3    H233180   0.892   1.313   2.340  0.0647  0.3247  0.8758
 3849TIP3   OH233181   0.422   1.273   6.873 -0.0189 -0.6619 -0.2608
 3849TIP3    H133182   0.451   1.203   6.814  1.6723 -0.1966 -0.0311
 3849TIP3    H233183   0.448   1.242   6.960 -1.6422 -0.9095  0.1711
 3850TIP3   OH233184   4.156   5.535   7.126  0.1834 -0.0730 -0.2784
 3850TIP3    H133185   4.127   5.452   7.088 -1.0866  0.3474 -0.2656
 3850TIP3    H233186   4.193   5.583   7.052 -0.0237 -0.2324 -0.4883
 3851TIP3   OH233187   6.651   5.219   0.313 -0.0314  0.4514  0.0898
 3851TIP3    H133188   6.572   5.208   0.260 -0.9062  2.4376  0.9104
 3851TIP3    H233189   6.633   5.172   0.394  1.1772 -2.2975 -1.0790
 3852TIP3   OH233190   5.024   3.357   0.446  0.2824 -0.3442  0.4133
 3852TIP3    H133191   4.944   3.324   0.404 -0.8052  3.7199 -1.2683
 3852TIP3    H233192   5.095   3.330   0.388 -0.5759  0.3852 -1.0503
 3853TIP3   OH233193   6.638   0.052   0.829 -0.1078 -0.0989  0.6146
 3853TIP3    H133194   6.619   0.118   0.763 -2.8899 -0.4412  0.9520
 3853TIP3    H233195   6.654   0.103   0.909 -1.2997  0.2603  0.6578
 3854TIP3   OH233196   2.247   3.087   1.930 -0.3157 -0.9446 -0.0680
 3854TIP3    H133197   2.340   3.108   1.941 -0.8459  1.5965  0.1611
 3854TIP3    H233198   2.215   3.072   2.019 -0.4425 -0.2762  0.0006
 3855TIP3   OH233199   1.042   6.389   1.156  0.3066 -0.5745  0.0640
 3855TIP3    H133200   1.008   6.331   1.225  1.5528 -0.4396  0.8179
 3855TIP3    H233201   1.078   6.329   1.091 -1.6996 -0.7396 -0.9756
 3856TIP3   OH233202   3.385   0.015   2.231  1.1565 -0.1267  0.0954
 3856TIP3    H133203   3.371   0.047   2.320  2.0904  0.9229 -0.1017
 3856TIP3    H233204   3.480   0.011   2.222  1.0877  0.2071 -0.9804
 3857TIP3   OH233205   6.653   4.948   1.895 -1.1472 -0.2022 -1.6146
 3857TIP3    H133206   6.674   4.857   1.873  0.2592 -0.1702 -0.5828
 3857TIP3    H233207   6.664   4.996   1.813 -0.5962 -0.7760 -1.8887
 3858TIP3   OH233208   5.345   0.229   2.235 -0.1844 -0.3539 -0.0336
 3858TIP3    H133209   5.325   0.191   2.320 -0.4596  0.2241  0.1625
 3858TIP3    H233210   5.276   0.294   2.220  0.5261  0.3931 -0.1584
 3859TIP3   OH233211   5.010   1.324   8.383 -0.2867 -0.1122 -0.4156
 3859TIP3    H133212   4.996   1.375   8.463  3.0790  0.3040  0.0745
 3859TIP3    H233213   4.985   1.235   8.406 -0.9525  0.3062  0.5507
 3860TIP3   OH233214   0.831   1.290   0.468 -0.3978 -0.2339  0.1251
 3860TIP3    H133215   0.760   1.225   0.469 -0.2339 -0.4440 -1.0379
 3860TIP3    H233216   0.908   1.241   0.498 -0.3994 -0.4376 -0.1928
 3861TIP3   OH233217   0.316   3.951   8.023  0.3553  0.9050 -0.1693
 3861TIP3    H133218   0.272   3.875   7.986 -0.5449  1.2340  0.1998
 3861TIP3    H233219   0.406   3.946   7.990  0.5155 -0.7193  0.4533
 3862TIP3   OH233220   4.088   1.874   0.148 -0.4389 -0.2924 -0.5351
 3862TIP3    H133221   4.086   1.910   0.236 -0.9716  1.3845 -1.1994
 3862TIP3    H233222   4.020   1.808   0.147 -1.5022  0.7618 -0.1114
 3863TIP3   OH233223   3.323   6.260   7.770  0.6371 -0.3304  0.0134
 3863TIP3    H133224   3.236   6.291   7.795 -1.0218 -3.0384 -1.7558
 3863TIP3    H233225   3.337   6.294   7.681  0.8608 -0.7893 -0.1353
 3864TIP3   OH233226   0.213   1.940   2.112  0.2440  0.5001  0.0889
 3864TIP3    H133227   0.299   1.906   2.139  0.3486 -0.4850 -1.3429
 3864TIP3    H233228   0.222   2.035   2.118  2.0974  0.5160 -1.7672
 3865TIP3   OH233229   0.027   2.547   0.080 -0.3069  0.1332  0.1754
 3865TIP3    H133230   0.087   2.485   0.038 -2.4786 -1.9780 -0.0309
 3865TIP3    H233231   0.071   2.569   0.163  1.5418  0.0934 -0.7365
 3866TIP3   OH233232   1.676   3.306   8.850  0.0755  0.1633 -0.9620
 3866TIP3    H133233   1.632   3.240   8.903 -0.0150  0.4891 -0.6327
 3866TIP3    H233234   1.613   3.328   8.781  0.7572 -1.3925 -2.1651
 3867TIP3   OH233235   4.959   3.575   0.111 -0.1353  0.0116  0.5077
 3867TIP3    H133236   4.904   3.644   0.074 -0.2560 -0.3369  0.0191
 3867TIP3    H233237   5.018   3.620   0.172 -0.5361  0.4730  0.5585
 3868TIP3   OH233238   2.887   0.058   7.475 -0.4333 -0.0910 -0.2990
 3868TIP3    H133239   2.935   0.015   7.403  0.0935 -1.7440  0.9635
 3868TIP3    H233240   2.796   0.060   7.445 -0.4532 -2.0050 -0.5096
 3869TIP3   OH233241   5.824   1.385   7.233 -0.1219  0.1929 -0.2602
 3869TIP3    H133242   5.791   1.302   7.198 -0.7819 -0.1912  1.1547
 3869TIP3    H233243   5.812   1.448   7.162 -0.2627 -0.7730 -1.1199
 3870TIP3   OH233244   3.248   1.674   7.345 -0.0663 -0.0033  0.0807
 3870TIP3    H133245   3.291   1.754   7.316  0.1454  0.2192  0.9817
 3870TIP3    H233246   3.295   1.604   7.299  0.1820  0.3382 -0.1962
 3871TIP3   OH233247   6.683   4.123   0.581  0.3647 -0.0004 -0.5913
 3871TIP3    H133248   6.650   4.103   0.668 -0.7526  2.6352 -0.3201
 3871TIP3    H233249   6.609   4.105   0.523 -1.2259  4.1163 -0.1858
 3872TIP3   OH233250   5.977   6.528   7.135  0.1885 -0.4126 -0.5729
 3872TIP3    H133251   5.934   6.612   7.151 -2.7695 -1.7144 -0.9222
 3872TIP3    H233252   5.957   6.508   7.044  2.8814 -0.5094 -1.2234
 3873TIP3   OH233253   2.137   3.385   0.807  0.4328 -0.3635 -0.6890
 3873TIP3    H133254   2.162   3.402   0.717  0.4532 -0.7123 -0.7534
 3873TIP3    H233255   2.131   3.471   0.848  0.2028 -0.1927 -1.0827
 3874TIP3   OH233256   4.782   3.780   6.903 -0.0777 -0.1134 -0.0325
 3874TIP3    H133257   4.855   3.788   6.965 -0.4253 -2.5238  0.8057
 3874TIP3    H233258   4.705   3.768   6.959 -1.0595  1.6287 -0.9189
 3875TIP3   OH233259   5.640   6.340   0.171  0.0086 -0.3933 -0.3118
 3875TIP3    H133260   5.556   6.363   0.209 -0.0751  1.1796 -1.3478
 3875TIP3    H233261   5.642   6.387   0.087  1.6398 -0.9154 -0.5999
 3876TIP3   OH233262   3.159   6.232   8.454 -0.3838 -0.1274 -0.1574
 3876TIP3    H133263   3.224   6.244   8.384  1.3329 -2.8466  0.8256
 3876TIP3    H233264   3.089   6.180   8.414  0.2285 -1.0198 -0.0952
 3877TIP3   OH233265   5.053   5.005   8.422  0.3142 -0.5940  0.0663
 3877TIP3    H133266   5.038   5.039   8.334 -0.3851  0.4106  0.5523
 3877TIP3    H233267   5.004   5.064   8.480  2.9933  0.4913  1.4208
 3878TIP3   OH233268   3.656   4.502   6.803  0.2835 -0.8421 -0.0708
 3878TIP3    H133269   3.750   4.521   6.808  0.2625 -0.8863  0.7654
 3878TIP3    H233270   3.614   4.587   6.818  0.1895 -0.9107  0.0569
 3879TIP3   OH233271   4.682   6.334   0.117  0.4010 -0.3189  0.4886
 3879TIP3    H133272   4.746   6.297   0.177 -0.1047 -3.4642 -0.7720
 3879TIP3    H233273   4.598   6.319   0.160  0.1838 -0.6590 -0.0468
 3880TIP3   OH233274   0.607   6.361   0.594  0.0790  0.0103 -0.1290
 3880TIP3    H133275   0.636   6.452   0.598 -0.0403  0.0191  1.4341
 3880TIP3    H233276   0.673   6.317   0.541  1.0320  0.7046  0.4386
 3881TIP3   OH233277   2.425   1.263   8.850 -0.4520 -0.3910  0.1507
 3881TIP3    H133278   2.438   1.316   8.929  2.2379 -1.6643  0.7049
 3881TIP3    H233279   2.469   1.312   8.781  2.1139 -1.7581  0.6810
 3882TIP3   OH233280   4.618   6.615   7.782 -0.1137  0.1820 -0.0058
 3882TIP3    H133281   4.535   6.588   7.741 -0.1987  0.5091 -0.0472
 3882TIP3    H233282   4.593   6.649   7.868  0.0546 -0.4000  0.2804
 3883TIP3   OH233283   5.379   0.113   8.910  0.5015  0.4429 -0.0856
 3883TIP3    H133284   5.399   0.021   8.929  0.2173  0.7334  1.8207
 3883TIP3    H233285   5.461   0.149   8.876  0.7996 -0.3469 -0.2343
 3884TIP3   OH233286   2.144   0.029   0.749  0.2406  0.0280  0.3665
 3884TIP3    H133287   2.155  -0.024   0.828 -0.4118  0.7002  0.9252
 3884TIP3    H233288   2.205   0.102   0.761 -1.0340  1.0230  1.0619
 3885TIP3   OH233289   3.683   1.208   0.394  0.2678  0.3369  0.2106
 3885TIP3    H133290   3.602   1.164   0.417  0.9452 -0.0100  2.0520
 3885TIP3    H233291   3.685   1.205   0.298 -1.5653 -0.1975  0.1509
 3886TIP3   OH233292   4.728   6.378   6.616  0.1169  0.0090 -0.4832
 3886TIP3    H133293   4.820   6.404   6.624  0.1687 -0.5612  1.3086
 3886TIP3    H233294   4.691   6.398   6.702 -0.8681 -1.8272 -0.4304
 3887TIP3   OH233295   3.040   5.830   0.005 -0.0562 -0.6193 -0.0718
 3887TIP3    H133296   3.040   5.888   0.081 -0.7513 -0.6168 -0.0701
 3887TIP3    H233297   2.948   5.806  -0.007 -0.0040 -0.3510 -1.1146
 3888TIP3   OH233298   0.263   4.942   1.231  0.0400  0.0878  0.5418
 3888TIP3    H133299   0.176   4.965   1.264 -1.0259 -2.1571 -0.4938
 3888TIP3    H233300   0.323   4.974   1.298 -1.5215  2.0193  1.1152
 3889TIP3   OH233301   2.207   3.830   1.042 -0.1533 -0.5329  0.4559
 3889TIP3    H133302   2.234   3.830   1.134 -1.5725 -0.9397  0.8961
 3889TIP3    H233303   2.289   3.833   0.993  0.6797 -1.5643  1.7277
 3890TIP3   OH233304   3.793   2.644   7.828 -0.1907  0.0455  0.7197
 3890TIP3    H133305   3.751   2.609   7.750 -0.4526 -1.8935  1.6409
 3890TIP3    H233306   3.871   2.590   7.839  1.0558  1.7508  0.6004
 3891TIP3   OH233307   5.301   3.795   0.688  0.2212  0.1403 -0.1201
 3891TIP3    H133308   5.296   3.801   0.592 -0.9046  0.1546 -0.0740
 3891TIP3    H233309   5.339   3.708   0.704  0.3418  0.1050 -0.5771
 3892TIP3   OH233310   3.626   0.272   8.548 -0.4161  0.4296 -0.1170
 3892TIP3    H133311   3.565   0.283   8.622 -0.3739  0.4050 -0.0785
 3892TIP3    H233312   3.600   0.189   8.508  0.2458 -0.1019  0.5173
 3893TIP3   OH233313   3.419   6.698   7.874  0.3792  0.6788 -0.4399
 3893TIP3    H133314   3.348   6.676   7.935 -0.0747 -1.3837 -1.6069
 3893TIP3    H233315   3.452   6.613   7.845  1.0453  1.5860 -2.5189
 3894TIP3   OH233316   0.640   1.104   0.515  0.7548  0.7022  0.0385
 3894TIP3    H133317   0.665   1.038   0.450 -0.5484  0.5335 -0.3192
 3894TIP3    H233318   0.556   1.137   0.485 -0.0052  0.4362  1.7673
 3895TIP3   OH233319   4.199   2.033   1.096  0.3135  0.3635 -0.1167
 3895TIP3    H133320   4.219   1.959   1.040 -0.6134  0.9871 -1.3228
 3895TIP3    H233321   4.141   2.088   1.044 -0.6026  0.9749  1.4624
 3896TIP3   OH233322   3.553   1.191   1.580 -0.1432  0.2914  0.0317
 3896TIP3    H133323   3.531   1.159   1.492  0.9499 -1.4076  0.3296
 3896TIP3    H233324   3.545   1.286   1.574 -0.0588  0.2061 -1.9138
 3897TIP3   OH233325   4.413   6.344   0.240  0.5439  0.2120 -0.1048
 3897TIP3    H133326   4.319   6.335   0.226  0.0818 -0.2499  2.6664
 3897TIP3    H233327   4.434   6.432   0.208 -0.9597  0.5417 -0.2260
 3898TIP3   OH233328   0.411   6.748   2.264  1.2271  0.0751 -0.3802
 3898TIP3    H133329   0.384   6.796   2.186  1.8087  0.2089 -0.5075
 3898TIP3    H233330   0.497   6.712   2.242  1.0435 -0.5561 -0.0829
 3899TIP3   OH233331   3.987   3.720   7.096 -0.0671 -0.1109 -0.8608
 3899TIP3    H133332   3.909   3.774   7.102  0.4925  1.2018 -3.7583
 3899TIP3    H233333   3.974   3.651   7.161 -1.7465  2.3059  1.5796
 3900TIP3   OH233334   5.871   3.941   1.582 -0.0976  0.5090  0.5820
 3900TIP3    H133335   5.938   3.944   1.514 -3.0388  0.2450 -2.5951
 3900TIP3    H233336   5.911   3.890   1.653  2.2456 -1.8086 -2.1491
 3901TIP3   OH233337   4.536   6.456   6.831 -0.7044  0.3726  0.0746
 3901TIP3    H133338   4.463   6.425   6.777  0.1139 -3.7191  1.0095
 3901TIP3    H233339   4.500   6.463   6.919 -0.2387 -0.6846  0.3590
 3902TIP3   OH233340   4.519   1.969   0.354 -0.3719 -0.3180 -0.1522
 3902TIP3    H133341   4.523   1.885   0.400  0.0543 -0.8107 -1.0721
 3902TIP3    H233342   4.428   1.997   0.364 -0.4664 -0.7924  0.3355
 3903TIP3   OH233343   6.449   3.968   1.853  0.1995 -0.2781  0.1144
 3903TIP3    H133344   6.432   4.050   1.899 -0.6222 -1.1406  1.4431
 3903TIP3    H233345   6.539   3.945   1.876  0.8007  0.7463 -1.1177
 3904TIP3   OH233346   4.746   5.284   1.336  0.8406  0.5806  0.3639
 3904TIP3    H133347   4.708   5.354   1.283 -1.2289 -0.5497  0.2713
 3904TIP3    H233348   4.726   5.308   1.426 -2.1035 -0.9945  0.2469
 3905TIP3   OH233349   3.579   1.643   2.062  0.1059  0.6899 -0.2690
 3905TIP3    H133350   3.578   1.565   2.117 -2.5554 -0.2855 -1.5320
 3905TIP3    H233351   3.639   1.620   1.990 -0.9279 -0.3747 -0.8192
 3906TIP3   OH233352   2.280   1.050   8.673 -0.4848  0.3664 -0.3641
 3906TIP3    H133353   2.304   1.126   8.620 -1.1490  0.8294 -0.0035
 3906TIP3    H233354   2.258   1.086   8.758  0.5338 -0.3713  0.2282
 3907TIP3   OH233355   3.217   5.422   1.224  0.6801 -0.0901  0.0032
 3907TIP3    H133356   3.285   5.489   1.218  0.1266  0.6598  1.6512
 3907TIP3    H233357   3.162   5.437   1.147  1.6786  0.0449 -0.7057
 3908TIP3   OH233358   5.061   4.099   7.138 -0.8073  0.2948 -0.1710
 3908TIP3    H133359   5.019   4.126   7.057 -0.5050 -0.4273 -0.5759
 3908TIP3    H233360   5.146   4.065   7.111 -0.2623  1.0300  0.5594
 3909TIP3   OH233361   6.014   1.097   1.383 -0.7257 -0.6550  0.4442
 3909TIP3    H133362   6.042   1.126   1.470  1.1791  0.3204 -0.4218
 3909TIP3    H233363   5.965   1.171   1.348 -1.7956 -1.1829  0.7999
 3910TIP3   OH233364   2.625   6.484   8.006  0.1589  0.4655  0.4744
 3910TIP3    H133365   2.693   6.419   7.989 -0.4098 -0.9005  2.8243
 3910TIP3    H233366   2.544   6.441   7.980 -0.1652  0.3890  1.5282
 3911TIP3   OH233367   3.096   6.618   1.614  0.1403  0.5651 -0.0310
 3911TIP3    H133368   3.155   6.546   1.592 -0.7963 -1.2282  2.8433
 3911TIP3    H233369   3.150   6.678   1.665 -0.0050 -0.1787  1.0425
 3912TIP3   OH233370   4.229   4.675   2.181  0.2319 -0.4141 -0.1106
 3912TIP3    H133371   4.269   4.678   2.268 -0.4369 -1.2574  0.2425
 3912TIP3    H233372   4.149   4.624   2.193 -1.0873  1.3964 -0.7720
 3913TIP3   OH233373   1.356   2.425   2.064  1.0471  0.0695 -0.6120
 3913TIP3    H133374   1.369   2.332   2.043 -0.6615 -0.5950  1.0143
 3913TIP3    H233375   1.261   2.434   2.076  1.3530  1.6316  1.0061
 3914TIP3   OH233376   6.073   6.096   7.159 -0.2861 -0.1836 -0.1499
 3914TIP3    H133377   6.034   6.124   7.077  0.8078  1.0779 -0.2830
 3914TIP3    H233378   6.000   6.063   7.211 -1.8650  3.2773  0.1286
 3915TIP3   OH233379   4.960   1.051   7.843 -0.4295  0.0937 -0.2827
 3915TIP3    H133380   4.944   1.146   7.842 -2.0921 -0.1534 -1.6988
 3915TIP3    H233381   5.053   1.043   7.864 -0.5297  1.9695  1.1650
 3916TIP3   OH233382   0.459   5.299   2.086 -0.1346 -0.3217  0.2383
 3916TIP3    H133383   0.423   5.261   2.166 -2.8490  0.5303 -0.4647
 3916TIP3    H233384   0.541   5.251   2.071 -0.9250 -2.3970  2.0140
 3917TIP3   OH233385   1.197   0.131   6.651 -0.1077  0.0980 -0.2147
 3917TIP3    H133386   1.211   0.199   6.585  0.6468 -2.0218 -2.3995
 3917TIP3    H233387   1.284   0.094   6.666 -0.6480 -1.1484  0.0138
 3918TIP3   OH233388   1.245   2.137   7.232  0.6881 -0.2039  0.4187
 3918TIP3    H133389   1.262   2.094   7.148  3.0403  0.4420  0.4755
 3918TIP3    H233390   1.224   2.227   7.209 -1.6089 -0.6755  0.4363
 3919TIP3   OH233391   4.645   1.753   1.124  0.3911 -0.1097 -0.0546
 3919TIP3    H133392   4.666   1.661   1.139 -0.8416 -0.4864 -0.4997
 3919TIP3    H233393   4.586   1.777   1.195  0.9146  0.4266  0.2119
 3920TIP3   OH233394   2.731   0.103   8.924 -0.3654  0.0088 -0.0993
 3920TIP3    H133395   2.750   0.195   8.943  1.2069 -0.1151 -0.8467
 3920TIP3    H233396   2.749   0.094   8.831 -0.5749 -1.0382 -0.0482
 3921TIP3   OH233397   4.319   0.533   2.809  0.7271  0.0458  0.3584
 3921TIP3    H133398   4.399   0.482   2.819 -0.4648 -1.6485  2.2284
 3921TIP3    H233399   4.250   0.467   2.801 -0.5941  1.4377 -0.2062
 3922TIP3   OH233400   2.684   4.022   1.164  0.5920  0.0644 -0.1807
 3922TIP3    H133401   2.740   3.946   1.148 -0.3176 -0.8504  0.7398
 3922TIP3    H233402   2.649   4.045   1.078 -2.1802 -3.0727 -0.1229
 3923TIP3   OH233403   2.111   3.035   1.528  0.2689 -0.2043  0.0227
 3923TIP3    H133404   2.034   3.066   1.575  1.3283  1.2576  0.8951
 3923TIP3    H233405   2.146   3.113   1.485 -0.1217 -1.3034 -2.5034
 3924TIP3   OH233406   2.344   5.410   8.993  0.3448 -0.0610  0.4897
 3924TIP3    H133407   2.296   5.397   9.075  0.5130  0.2930  0.6469
 3924TIP3    H233408   2.275   5.413   8.926  0.2756 -1.3590  0.4822
 3925TIP3   OH233409   6.715   5.981   2.353 -0.0126 -0.1402  0.1972
 3925TIP3    H133410   6.707   5.959   2.260  0.5047 -1.7175  0.5015
 3925TIP3    H233411   6.780   5.919   2.387  0.2273  0.7871  1.4957
 3926TIP3   OH233412   4.013   3.926   7.508 -0.4032 -0.0080  0.1652
 3926TIP3    H133413   3.929   3.882   7.499 -1.1524  1.2309  0.9189
 3926TIP3    H233414   4.042   3.906   7.597 -0.7516  1.0048  0.5160
 3927TIP3   OH233415   3.339   2.375   0.804  0.4016  0.3287 -0.1766
 3927TIP3    H133416   3.323   2.469   0.802  0.4836  0.3647  0.5167
 3927TIP3    H233417   3.405   2.363   0.873  0.0784 -0.2818  0.0366
 3928TIP3   OH233418   0.662   5.023   7.444  0.0356  0.2101  0.5288
 3928TIP3    H133419   0.591   4.978   7.398  1.7906  0.0848 -2.3268
 3928TIP3    H233420   0.732   4.957   7.451  1.0953  1.2634  0.1587
 3929TIP3   OH233421   6.108   0.744   8.776 -0.1664 -0.0080 -0.1361
 3929TIP3    H133422   6.183   0.790   8.812 -1.0733  0.2712  1.4983
 3929TIP3    H233423   6.143   0.661   8.744  0.7859 -0.0031  0.8693
 3930TIP3   OH233424   3.768   0.582   2.090  0.0039  0.8267  0.1284
 3930TIP3    H133425   3.810   0.625   2.164 -2.1392 -0.3856  2.1815
 3930TIP3    H233426   3.840   0.553   2.035  1.7777  0.5743  2.4272
 3931TIP3   OH233427   4.572   4.686   8.677 -0.0606 -0.8377  0.0120
 3931TIP3    H133428   4.624   4.758   8.641 -0.6722  0.1271  1.0154
 3931TIP3    H233429   4.533   4.644   8.600 -0.2085  0.2991 -0.5483
 3932TIP3   OH233430   2.134   1.237   1.348  0.2009 -0.1126 -0.0572
 3932TIP3    H133431   2.226   1.252   1.327  1.1039 -1.5589  2.4883
 3932TIP3    H233432   2.102   1.181   1.277  0.7567  1.7018 -1.8383
 3933TIP3   OH233433   6.677   1.697   1.529  0.0672  0.6356 -0.3229
 3933TIP3    H133434   6.723   1.634   1.585  0.7050  1.7290  0.4174
 3933TIP3    H233435   6.696   1.668   1.440  2.3193  1.0931 -0.0467
 3934TIP3   OH233436   4.239   3.935   7.365 -0.1530 -0.2491  0.3330
 3934TIP3    H133437   4.242   3.842   7.343 -0.4644 -0.9898  3.0622
 3934TIP3    H233438   4.161   3.944   7.420  0.3851  1.4651  0.8658
 3935TIP3   OH233439   0.433   0.022   8.172 -0.0871  0.1208 -0.4009
 3935TIP3    H133440   0.393   0.109   8.173 -0.0622  0.2709  3.3113
 3935TIP3    H233441   0.524   0.037   8.198 -0.2384 -0.9848  0.9043
 3936TIP3   OH233442   0.056   5.912   7.546  0.4053 -0.0427  0.0353
 3936TIP3    H133443   0.093   5.957   7.622  0.6612 -0.6068  0.2501
 3936TIP3    H233444   0.127   5.912   7.482  0.6481 -0.7492  0.2920
 3937TIP3   OH233445   4.706   4.602   2.367 -0.0816 -0.2081 -0.1158
 3937TIP3    H133446   4.704   4.656   2.288 -0.8460 -1.8477 -1.2598
 3937TIP3    H233447   4.782   4.546   2.355  0.2000 -0.0070  0.6607
 3938TIP3   OH233448   2.943   5.910   8.142 -0.4637 -0.4968  0.4803
 3938TIP3    H133449   2.985   5.894   8.057 -2.8780 -0.8655 -0.7073
 3938TIP3    H233450   2.890   5.832   8.157 -1.4835  0.3644  1.4391
 3939TIP3   OH233451   3.998   4.268   0.463 -0.1058 -0.1439  0.3089
 3939TIP3    H133452   3.941   4.235   0.393 -0.8896 -2.6610  1.9794
 3939TIP3    H233453   4.083   4.226   0.446 -0.5993 -1.6702  1.4057
 3940TIP3   OH233454   6.118   5.609   0.304 -0.2107  0.0544  0.6449
 3940TIP3    H133455   6.052   5.542   0.320 -0.4728 -0.0601 -0.7649
 3940TIP3    H233456   6.108   5.671   0.376 -1.4404 -0.2843  0.7867
 3941TIP3   OH233457   6.243   4.366   8.029  0.5981  0.2917 -0.3533
 3941TIP3    H133458   6.204   4.310   8.097 -0.1489  1.0245 -0.1556
 3941TIP3    H233459   6.287   4.305   7.971  0.7621 -0.4046  0.4762
 3942TIP3   OH233460   0.842   0.831   8.356  0.2801  0.1195  0.0456
 3942TIP3    H133461   0.926   0.873   8.337 -0.1932 -0.2757 -3.9057
 3942TIP3    H233462   0.778   0.901   8.345 -0.1525 -0.5004 -1.9014
 3943TIP3   OH233463   6.271   1.536   7.939  0.0496  0.6745 -0.2929
 3943TIP3    H133464   6.358   1.508   7.909 -0.4093  0.9389 -1.9591
 3943TIP3    H233465   6.269   1.630   7.923  0.0705  1.0047  1.4130
 3944TIP3   OH233466   1.490   4.219   0.401 -0.1539 -0.0230 -0.8905
 3944TIP3    H133467   1.458   4.161   0.470  1.0601  1.9445  1.5134
 3944TIP3    H233468   1.577   4.185   0.380  1.2983  1.6892  1.7575
 3945TIP3   OH233469   0.005   5.792   6.925 -0.0989 -0.7258 -0.0126
 3945TIP3    H133470   0.021   5.833   7.010 -2.5746 -4.0300  2.3248
 3945TIP3    H233471   0.084   5.740   6.909  0.9068  0.8523 -0.4836
 3946TIP3   OH233472   0.178   2.908   8.131  0.4081  0.1440 -0.2493
 3946TIP3    H133473   0.234   2.962   8.187  0.1934  0.3242 -0.2093
 3946TIP3    H233474   0.127   2.970   8.080  1.4913 -0.0049 -1.5686
 3947TIP3   OH233475   5.432   0.227   7.978 -0.5722 -0.2161  0.5272
 3947TIP3    H133476   5.514   0.208   7.933 -0.1099 -0.0936  1.3002
 3947TIP3    H233477   5.389   0.142   7.987  0.5518 -0.6710  2.1689
 3948TIP3   OH233478   3.237   0.110   7.744 -0.8248  0.0483 -0.2831
 3948TIP3    H133479   3.147   0.079   7.734 -1.1068  0.2546  1.4044
 3948TIP3    H233480   3.284   0.036   7.782 -0.7525  0.5961  0.7081
 3949TIP3   OH233481   3.153   3.671   1.535 -0.0310  0.6511 -0.4125
 3949TIP3    H133482   3.197   3.625   1.607 -0.7711 -1.2421 -1.1045
 3949TIP3    H233483   3.216   3.669   1.463 -0.8128 -1.1378 -1.0787
 3950TIP3   OH233484   3.936   1.370   7.410  0.5108 -0.1876  0.2495
 3950TIP3    H133485   3.873   1.406   7.473  1.7051 -1.5031  2.3307
 3950TIP3    H233486   3.937   1.434   7.339 -1.0044  1.3487  1.4947
 3951TIP3   OH233487   1.299   2.161   0.171  0.2702 -0.1016  0.2729
 3951TIP3    H133488   1.394   2.152   0.178  0.3205  0.2754  0.0948
 3951TIP3    H233489   1.272   2.092   0.111  0.2896 -0.9488  1.1973
 3952TIP3   OH233490   4.775   3.421   0.888 -0.1645 -0.2509  0.2893
 3952TIP3    H133491   4.794   3.381   0.804  0.0926 -0.1960  0.3193
 3952TIP3    H233492   4.680   3.429   0.891 -0.1253  0.5346 -0.3568
 3953TIP3   OH233493   0.885   0.519   1.111  0.5873 -0.2810 -0.2701
 3953TIP3    H133494   0.813   0.573   1.079  0.5146 -0.0647  0.2490
 3953TIP3    H233495   0.901   0.550   1.200 -0.2885 -1.9279  0.5110
 3954TIP3   OH233496   3.319   3.994   8.696  0.6773  0.8676 -0.0471
 3954TIP3    H133497   3.261   4.067   8.718  0.7860  0.8940  0.1588
 3954TIP3    H233498   3.260   3.922   8.674  0.5576  0.7553  0.6218
 3955TIP3   OH233499   1.659   2.485   8.779 -0.4074 -0.1688 -0.0004
 3955TIP3    H133500   1.726   2.423   8.807 -0.4331 -0.2193 -0.0524
 3955TIP3    H233501   1.705   2.546   8.722  0.1188  1.1526  1.7485
 3956TIP3   OH233502   3.003   4.315   1.839 -0.3083 -0.3848  0.1178
 3956TIP3    H133503   2.984   4.401   1.802 -1.5715  0.0850  1.7484
 3956TIP3    H233504   3.057   4.332   1.915  1.9001 -1.3176 -1.1501
 3957TIP3   OH233505   5.789   1.304   0.496 -0.7605 -0.0502 -0.3450
 3957TIP3    H133506   5.767   1.221   0.453  2.9766  0.2247 -3.3701
 3957TIP3    H233507   5.843   1.278   0.571 -1.1956 -0.3704 -0.1378
 3958TIP3   OH233508   5.660   3.039   6.249 -0.5227  0.3041 -0.2817
 3958TIP3    H133509   5.728   3.005   6.308 -0.4338 -0.4220 -0.7944
 3958TIP3    H233510   5.582   2.989   6.271 -0.6609  0.4970 -0.3295
 3959TIP3   OH233511   2.386   5.623   8.340  0.7047 -0.5752 -0.3449
 3959TIP3    H133512   2.390   5.539   8.292 -0.5160 -1.0131  0.2771
 3959TIP3    H233513   2.417   5.602   8.428  3.4727  0.3469 -1.0126
 3960TIP3   OH233514   3.263   1.098   1.823 -0.6607 -0.2141  0.2184
 3960TIP3    H133515   3.305   1.012   1.833  1.5652  0.9728  1.8742
 3960TIP3    H233516   3.243   1.126   1.912  0.7577  1.9349 -0.0699
 3961TIP3   OH233517   0.956   0.230   8.528 -0.0680  0.1156 -0.0678
 3961TIP3    H133518   0.966   0.172   8.452 -0.3770  0.4839 -0.3976
 3961TIP3    H233519   0.891   0.186   8.583  0.1071 -0.1206 -0.0473
 3962TIP3   OH233520   0.805   2.967   8.305 -0.0049  0.1632  0.3944
 3962TIP3    H133521   0.869   3.036   8.326 -0.7740  1.5409 -1.4822
 3962TIP3    H233522   0.720   3.009   8.318 -0.5393 -1.0247  0.9079
 3963TIP3   OH233523   5.576   0.784   0.488  0.0262 -0.4164  0.3481
 3963TIP3    H133524   5.484   0.762   0.472  0.0687 -0.8362  0.6632
 3963TIP3    H233525   5.606   0.824   0.407 -0.9882  1.5626  0.8703
 3964TIP3   OH233526   4.151   3.822   6.471 -0.3355 -0.4596  0.3464
 3964TIP3    H133527   4.115   3.836   6.383  0.7668 -0.2648 -0.0912
 3964TIP3    H233528   4.081   3.849   6.530 -0.6772  0.5395 -0.4859
 3965TIP3   OH233529   2.113   1.823   8.533  0.0749  0.0046  0.2902
 3965TIP3    H133530   2.055   1.747   8.527  0.8655 -0.5238 -1.4944
 3965TIP3    H233531   2.169   1.816   8.456  0.6632  2.0166  0.4756
 3966TIP3   OH233532   1.879   6.770   0.687  0.4924 -0.4468  0.3590
 3966TIP3    H133533   1.968   6.787   0.719  0.0006 -1.3405  2.3443
 3966TIP3    H233534   1.891   6.708   0.615  1.4349 -1.5401  1.4046
 3967TIP3   OH233535   0.527   2.190   7.702 -0.8186  0.2314  0.4193
 3967TIP3    H133536   0.523   2.106   7.656 -0.0248  0.6556 -0.4558
 3967TIP3    H233537   0.617   2.221   7.688 -0.6722  0.5884  1.8901
 3968TIP3   OH233538   6.179   5.144   1.274 -0.2980  0.7153 -0.5748
 3968TIP3    H133539   6.163   5.096   1.193 -0.6213  0.4689 -0.3662
 3968TIP3    H233540   6.213   5.229   1.245  1.7793 -0.1574 -0.9349
 3969TIP3   OH233541   6.621   5.153   7.130 -0.2735 -0.0469  0.4751
 3969TIP3    H133542   6.640   5.109   7.047  0.6192  1.4328 -0.1345
 3969TIP3    H233543   6.602   5.081   7.191  3.4955 -1.5766  0.1647
 3970TIP3   OH233544   0.506   2.109   0.757 -0.2643  0.4024  0.2290
 3970TIP3    H133545   0.418   2.077   0.741 -0.6576  1.2864  0.5807
 3970TIP3    H233546   0.524   2.088   0.848 -0.2873  0.6233  0.2858
 3971TIP3   OH233547   2.043   6.431   0.223  0.7334  0.4117  0.3748
 3971TIP3    H133548   2.011   6.510   0.180 -0.1976 -0.5698 -0.8367
 3971TIP3    H233549   2.013   6.359   0.166  1.7946 -0.7967  1.2675
 3972TIP3   OH233550   1.398   6.148   7.074 -0.6534 -0.4570  0.3525
 3972TIP3    H133551   1.345   6.115   7.001 -1.6543  0.5119  0.6080
 3972TIP3    H233552   1.430   6.069   7.118 -2.5763 -1.1178  0.6674
 3973TIP3   OH233553   6.339   1.586   7.088 -0.0920  0.2588 -0.4269
 3973TIP3    H133554   6.299   1.673   7.098  0.5091  0.5747 -0.6609
 3973TIP3    H233555   6.352   1.577   6.994  0.2655  0.1158 -0.3673
 3974TIP3   OH233556   1.857   2.230   0.307  0.7923  0.1034 -0.2977
 3974TIP3    H133557   1.792   2.199   0.370  0.8394  0.2712 -0.1680
 3974TIP3    H233558   1.905   2.151   0.281 -0.2096 -0.2223 -1.2567
 3975TIP3   OH233559   0.381   3.542   7.418 -0.1581  0.2867 -0.5080
 3975TIP3    H133560   0.435   3.494   7.481  0.5864  1.0503 -0.5380
 3975TIP3    H233561   0.357   3.477   7.353 -0.8908 -0.5060  0.5200
 3976TIP3   OH233562   3.409   6.707   1.709 -0.2320  0.4068 -0.0953
 3976TIP3    H133563   3.406   6.679   1.800 -2.0899  0.1199 -0.2122
 3976TIP3    H233564   3.375   6.796   1.710 -0.3138  0.3818 -0.5145
 3977TIP3   OH233565   0.122   6.727   0.405 -0.1162  0.3374 -0.1826
 3977TIP3    H133566   0.123   6.632   0.411  0.7675  0.4096  1.1103
 3977TIP3    H233567   0.195   6.748   0.346  1.4228  0.2923  1.6103
 3978TIP3   OH233568   0.986   6.307   1.408  0.8541  0.3014 -0.2724
 3978TIP3    H133569   0.923   6.354   1.353  2.2208 -1.6119 -3.8354
 3978TIP3    H233570   0.937   6.232   1.441  0.5071  0.3769 -0.6083
 3979TIP3   OH233571   3.469   3.797   7.595  0.0530  0.7167 -0.0264
 3979TIP3    H133572   3.426   3.826   7.515 -1.3070  0.6579  0.6510
 3979TIP3    H233573   3.496   3.707   7.577 -1.3530  0.2750 -0.0233
 3980TIP3   OH233574   2.354   5.511   7.398  0.3265  0.5249 -0.0755
 3980TIP3    H133575   2.263   5.533   7.380  0.0371 -0.2910  0.3767
 3980TIP3    H233576   2.404   5.586   7.363 -0.3264 -0.0577 -2.4229
 3981TIP3   OH233577   1.043   1.562   8.340  0.0681 -0.3672  0.0599
 3981TIP3    H133578   1.010   1.616   8.412  0.6226  0.2937 -0.1755
 3981TIP3    H233579   1.003   1.599   8.262  2.2628  1.2656 -0.3910
 3982TIP3   OH233580   5.850   6.332   1.508 -0.1664 -0.3225  0.2896
 3982TIP3    H133581   5.833   6.279   1.586 -0.9983  0.0455  0.3663
 3982TIP3    H233582   5.786   6.302   1.444  0.0307 -0.1164 -0.0048
 3983TIP3   OH233583   6.409   2.659   1.523 -0.4197  0.3625  0.2703
 3983TIP3    H133584   6.352   2.707   1.462 -0.3280  0.7555  0.4985
 3983TIP3    H233585   6.348   2.607   1.576 -0.7021  1.9279  1.5445
 3984TIP3   OH233586   2.009   0.709   8.781  0.2479 -0.3393 -0.2375
 3984TIP3    H133587   2.003   0.780   8.716 -0.7827  0.6089  0.8488
 3984TIP3    H233588   1.945   0.732   8.848  1.8991 -0.8017  1.5996
 3985TIP3   OH233589   3.647   5.565   1.323  0.2885  0.3409 -0.8426
 3985TIP3    H133590   3.697   5.644   1.302 -0.4238  0.5379 -1.8411
 3985TIP3    H233591   3.676   5.500   1.259  0.1408  0.0929 -0.6580
 3986TIP3   OH233592   2.822   1.075   7.601 -0.5838 -1.0155 -0.5171
 3986TIP3    H133593   2.893   1.132   7.573  0.1640 -1.1092  1.0701
 3986TIP3    H233594   2.865   1.000   7.641 -1.4859 -0.3512  1.9218
 3987TIP3   OH233595   2.074   0.759   0.695  0.1482 -0.3216  0.5048
 3987TIP3    H133596   2.058   0.696   0.766  1.7848 -1.7501 -0.3132
 3987TIP3    H233597   1.993   0.810   0.690 -1.1107 -2.0824  1.4988
 3988TIP3   OH233598   6.410   3.281   0.983 -0.0438  0.1630 -0.4222
 3988TIP3    H133599   6.410   3.377   0.980  0.2065  0.1915  0.3927
 3988TIP3    H233600   6.330   3.256   0.937 -0.0646  0.7621 -0.7143
 3989TIP3   OH233601   0.765   4.487   7.655 -0.0190 -0.0968  0.5900
 3989TIP3    H133602   0.671   4.474   7.669 -0.1064 -0.3249 -0.1939
 3989TIP3    H233603   0.793   4.539   7.731 -0.3953 -1.6174  1.8257
 3990TIP3   OH233604   4.264   6.711   6.666  0.3409  0.1197  0.2846
 3990TIP3    H133605   4.198   6.776   6.640  0.7742  0.2519 -0.5376
 3990TIP3    H233606   4.219   6.627   6.661  0.7708 -0.0514 -2.5042
 3991TIP3   OH233607   0.325   0.679   0.496  0.0409 -0.3484  0.3847
 3991TIP3    H133608   0.309   0.773   0.487 -0.4022 -0.2801  1.6491
 3991TIP3    H233609   0.241   0.638   0.477  0.2915 -0.5112 -0.3891
 3992TIP3   OH233610   1.910   6.481   1.838 -0.3381  0.1509 -0.2226
 3992TIP3    H133611   1.919   6.533   1.918  1.7633 -0.9130  0.2966
 3992TIP3    H233612   1.951   6.535   1.770  0.2856 -0.0843 -0.0351
 3993TIP3   OH233613   4.728   5.249   8.092  0.6017  0.1253 -0.7506
 3993TIP3    H133614   4.647   5.239   8.043  0.1367 -3.0837  0.3964
 3993TIP3    H233615   4.759   5.337   8.070 -2.4536  0.9746 -2.2619
 3994TIP3   OH233616   4.920   0.457   1.649 -0.3584 -0.1472 -0.2370
 3994TIP3    H133617   4.920   0.412   1.565  0.6312  1.7517 -1.3102
 3994TIP3    H233618   4.852   0.523   1.642 -0.7649 -0.4356  0.7578
 3995TIP3   OH233619   4.341   0.778   8.712  0.3447  0.3108  0.5887
 3995TIP3    H133620   4.334   0.865   8.752  0.1510  0.0669  1.0897
 3995TIP3    H233621   4.382   0.724   8.779 -1.6907 -0.5758  1.1956
 3996TIP3   OH233622   2.287   2.040   0.393  0.0918  0.0032  0.6417
 3996TIP3    H133623   2.357   1.982   0.425 -0.3360 -1.0098 -0.2158
 3996TIP3    H233624   2.322   2.077   0.312 -1.0898 -2.1360 -0.9611
 3997TIP3   OH233625   1.136   2.701   7.320  0.3978  0.0567  0.5885
 3997TIP3    H133626   1.057   2.667   7.279  0.0634  1.5803 -0.1005
 3997TIP3    H233627   1.202   2.633   7.305 -0.7309 -1.2289  1.1605
 3998TIP3   OH233628   3.004   6.114   0.075  0.5111 -0.0967  0.2271
 3998TIP3    H133629   3.099   6.110   0.084  0.5918  0.3059 -0.3841
 3998TIP3    H233630   2.983   6.207   0.083  0.3383  0.0026 -1.1480
 3999TIP3   OH233631   5.197   6.062   7.042 -0.1013 -0.5510  0.3470
 3999TIP3    H133632   5.155   6.131   6.991  0.5937  0.7278  1.4397
 3999TIP3    H233633   5.203   5.987   6.982  0.7301  0.8977 -1.4618
 4000TIP3   OH233634   3.697   4.212   6.915 -0.4576  0.3820 -0.3129
 4000TIP3    H133635   3.754   4.167   6.853  0.6567 -1.2524  1.7839
 4000TIP3    H233636   3.733   4.300   6.921  1.0477 -0.2193 -0.0732
 4001TIP3   OH233637   0.496   2.293   1.555  0.2298  0.0124  0.2628
 4001TIP3    H133638   0.561   2.223   1.547  0.1333 -0.1340  0.7104
 4001TIP3    H233639   0.473   2.293   1.648 -1.3983 -0.8442 -0.0964
 4002TIP3   OH233640   1.716   2.747   0.675 -0.3728  0.2786  0.0659
 4002TIP3    H133641   1.640   2.779   0.723 -1.6985 -1.1483 -0.9955
 4002TIP3    H233642   1.682   2.720   0.590  1.6056  1.0481 -1.0412
 4003TIP3   OH233643   0.711   5.646   1.519  0.6408  0.2800 -0.1307
 4003TIP3    H133644   0.748   5.559   1.531 -0.8714 -0.5868 -1.3471
 4003TIP3    H233645   0.770   5.704   1.566  1.0808 -1.5195  1.6805
 4004TIP3   OH233646   1.552   0.379   8.252 -0.5972  0.5757 -0.2979
 4004TIP3    H133647   1.606   0.390   8.174  0.2702  1.2768  0.3838
 4004TIP3    H233648   1.543   0.284   8.262 -1.4114  0.4752 -1.6901
 4005TIP3   OH233649   2.855   2.635   1.383  0.3393 -1.0819  0.0019
 4005TIP3    H133650   2.847   2.574   1.310 -1.7535 -0.6874 -0.1754
 4005TIP3    H233651   2.773   2.684   1.382  2.4273  2.8028 -0.7383
 4006TIP3   OH233652   3.073   0.208   2.482  0.2998 -0.5682 -0.1682
 4006TIP3    H133653   3.058   0.176   2.393  1.8405 -0.9433 -0.3177
 4006TIP3    H233654   3.131   0.143   2.521  0.2018 -0.0383  0.8858
 4007TIP3   OH233655   3.135   4.804   0.272 -0.7307  0.0077  0.3816
 4007TIP3    H133656   3.098   4.870   0.331  0.3091  0.2760  0.7662
 4007TIP3    H233657   3.223   4.837   0.252 -0.6493 -0.6641 -0.3917
 4008TIP3   OH233658   1.612   2.634   7.757 -0.3540 -0.2445  0.1537
 4008TIP3    H133659   1.524   2.665   7.734 -0.9569 -1.1321  1.1966
 4008TIP3    H233660   1.633   2.679   7.839 -0.0771 -0.4920  0.2189
 4009TIP3   OH233661   4.980   1.104   8.564 -0.2306  0.1449 -0.2888
 4009TIP3    H133662   4.972   1.156   8.644 -0.2628  0.1105 -0.2697
 4009TIP3    H233663   5.043   1.035   8.586  1.2697  1.2641 -0.8778
 4010TIP3   OH233664   3.610   0.973   2.034 -0.0481 -0.6658  0.2246
 4010TIP3    H133665   3.701   0.967   2.006 -0.4608 -0.4077 -1.2587
 4010TIP3    H233666   3.585   1.063   2.014 -1.4080 -1.4701 -1.9902
 4011TIP3   OH233667   0.239   4.555   0.234 -0.3822 -0.2125 -0.2149
 4011TIP3    H133668   0.148   4.529   0.247 -0.3302  0.1651  1.0183
 4011TIP3    H233669   0.282   4.536   0.317  0.6053 -0.0995 -0.6779
 4012TIP3   OH233670   4.404   0.168   8.077  0.5325  0.0224 -0.4748
 4012TIP3    H133671   4.327   0.160   8.132  0.5142  0.1324 -0.4837
 4012TIP3    H233672   4.457   0.235   8.120 -0.2722  1.3722 -1.5079
 4013TIP3   OH233673   0.836   2.669   1.962 -0.1199  0.6030 -0.0636
 4013TIP3    H133674   0.810   2.749   1.915 -2.2999 -0.1803 -0.3166
 4013TIP3    H233675   0.753   2.624   1.979  0.5892  0.4375  3.8702
 4014TIP3   OH233676   2.977   3.957   7.241  1.0466  0.3406 -0.9586
 4014TIP3    H133677   2.942   3.904   7.170 -1.0438  0.3054  0.0306
 4014TIP3    H233678   2.926   4.039   7.237 -0.0369 -0.1606  1.2307
 4015TIP3   OH233679   4.268   0.806   1.459  0.3811 -0.4003  0.0339
 4015TIP3    H133680   4.213   0.884   1.465  1.0574  0.0631  0.3728
 4015TIP3    H233681   4.267   0.768   1.547  2.4309  0.9102  0.6919
 4016TIP3   OH233682   6.228   4.421   2.026 -0.2204 -0.0022 -0.6830
 4016TIP3    H133683   6.211   4.327   2.034 -2.0797  0.4450  1.2842
 4016TIP3    H233684   6.164   4.452   1.962  0.9558 -0.1513 -1.9931
 4017TIP3   OH233685   5.794   3.797   8.615 -0.0016 -0.0987 -0.1733
 4017TIP3    H133686   5.853   3.741   8.565 -0.2343 -1.3141  0.8683
 4017TIP3    H233687   5.797   3.761   8.704 -1.2351  0.6888  0.2038
 4018TIP3   OH233688   1.984   1.625   1.764 -0.1247  0.2271 -0.3622
 4018TIP3    H133689   1.980   1.532   1.786 -0.7827 -0.0935 -1.7412
 4018TIP3    H233690   2.065   1.656   1.805 -1.9253  0.1011  3.8674
 4019TIP3   OH233691   4.837   5.742   0.523 -0.1398 -0.2810 -0.3633
 4019TIP3    H133692   4.822   5.759   0.430 -1.7849  0.8748  0.0721
 4019TIP3    H233693   4.898   5.811   0.550  2.0901 -1.9038 -1.0054
 4020TIP3   OH233694   5.397   5.721   1.691  0.5009 -0.4964  0.0646
 4020TIP3    H133695   5.346   5.700   1.769 -0.4119 -1.6169 -0.8169
 4020TIP3    H233696   5.381   5.815   1.677 -0.0100 -0.4765  0.7351
 4021TIP3   OH233697   0.353   5.218   6.755  0.1780  0.3760  0.5163
 4021TIP3    H133698   0.449   5.218   6.747  0.1110  1.3333 -0.4317
 4021TIP3    H233699   0.322   5.185   6.671 -0.3323 -1.0867  1.2341
 4022TIP3   OH233700   5.110   1.001   2.076  0.2450  0.1167 -0.0612
 4022TIP3    H133701   5.142   0.999   2.166 -0.2882  3.4636  0.3186
 4022TIP3    H233702   5.172   1.056   2.029 -0.9971  0.7504 -1.0308
 4023TIP3   OH233703   1.505   4.951   1.010 -0.0937 -0.5149 -0.2349
 4023TIP3    H133704   1.529   4.993   1.092 -1.2763 -0.4744  0.1090
 4023TIP3    H233705   1.584   4.954   0.957  0.9054 -1.1627  1.1499
 4024TIP3   OH233706   3.161   6.758   8.912  0.5643 -0.2465  0.1946
 4024TIP3    H133707   3.230   6.760   8.978 -0.7483 -0.0729  1.6223
 4024TIP3    H233708   3.115   6.841   8.923  1.0001  0.3128 -1.7620
 4025TIP3   OH233709   0.237   3.651   2.643  0.2483  0.0005 -0.0026
 4025TIP3    H133710   0.324   3.618   2.621  0.9982  1.3457  0.8550
 4025TIP3    H233711   0.253   3.736   2.685 -1.4054 -0.3013  1.3237
 4026TIP3   OH233712   1.499   0.764   0.859 -0.0387 -0.1326 -0.0493
 4026TIP3    H133713   1.525   0.674   0.838 -2.1169 -0.3264 -2.3167
 4026TIP3    H233714   1.491   0.765   0.954 -0.8150 -2.6655  0.0018
 4027TIP3   OH233715   2.494   1.332   1.649 -0.1088  0.4606 -0.0561
 4027TIP3    H133716   2.578   1.370   1.622 -0.8328  3.3312  1.3264
 4027TIP3    H233717   2.511   1.291   1.733  0.0409  0.5601 -0.0380
 4028TIP3   OH233718   4.852   5.096   0.116 -0.3064 -0.5665  0.6962
 4028TIP3    H133719   4.837   5.110   0.023 -0.2022 -0.0431  0.7559
 4028TIP3    H233720   4.766   5.076   0.152 -0.6326  0.8366  0.7628
 4029TIP3   OH233721   6.366   5.289   8.177  0.2599 -0.2266 -0.4029
 4029TIP3    H133722   6.412   5.210   8.150 -1.8705 -2.1877  1.2992
 4029TIP3    H233723   6.297   5.300   8.112  2.1990  2.0422 -2.2882
 4030TIP3   OH233724   6.079   3.404   7.690 -0.2533  0.3196 -0.2321
 4030TIP3    H133725   6.142   3.332   7.685 -1.4977 -0.7556 -1.0129
 4030TIP3    H233726   6.111   3.459   7.762  1.3278 -0.4039 -0.3359
 4031TIP3   OH233727   3.222   5.195   7.379 -0.5888 -0.2552  0.1771
 4031TIP3    H133728   3.269   5.170   7.459 -0.5698  0.2071  0.3099
 4031TIP3    H233729   3.130   5.199   7.405 -0.4269  1.4759  0.5858
 4032TIP3   OH233730   0.492   1.057   6.727  0.5596 -0.1770  0.2313
 4032TIP3    H133731   0.537   1.056   6.642  0.3673  1.1726  0.1043
 4032TIP3    H233732   0.557   1.022   6.788  1.3068  0.4298 -0.1906
 4033TIP3   OH233733   5.213   3.919   7.487 -0.6114 -0.5495 -0.2970
 4033TIP3    H133734   5.271   3.848   7.462 -0.5145 -0.5067 -0.1956
 4033TIP3    H233735   5.162   3.883   7.560 -1.2048 -0.8278 -0.8361
 4034TIP3   OH233736   3.022   1.551   7.209  0.2130  0.1396 -0.3365
 4034TIP3    H133737   2.994   1.574   7.120 -1.3369 -0.8163 -0.1375
 4034TIP3    H233738   3.111   1.585   7.215  2.0141 -3.1944 -3.6821
 4035TIP3   OH233739   0.413   4.835   1.033 -0.0434 -0.5795  0.4226
 4035TIP3    H133740   0.356   4.874   1.099 -1.5102  0.8119 -1.5887
 4035TIP3    H233741   0.403   4.890   0.955 -0.3061 -3.5487 -1.8092
 4036TIP3   OH233742   0.839   6.322   0.410 -0.1241  0.0358 -0.0602
 4036TIP3    H133743   0.782   6.335   0.333 -1.6270  0.1402  1.0191
 4036TIP3    H233744   0.903   6.392   0.405 -1.0496  0.8698 -0.4935
 4037TIP3   OH233745   0.746   4.624   8.816  0.4418 -0.6378  0.7571
 4037TIP3    H133746   0.652   4.643   8.824  0.5944 -0.7387  3.4936
 4037TIP3    H233747   0.751   4.528   8.822  0.7200 -0.6619  0.2191
 4038TIP3   OH233748   5.099   2.794   2.075  0.0655 -0.5029 -0.1160
 4038TIP3    H133749   5.177   2.742   2.094  0.6078 -0.4032 -1.8164
 4038TIP3    H233750   5.109   2.873   2.128  0.5005 -1.0268  0.5945
 4039TIP3   OH233751   4.998   2.086   0.573  0.2827 -0.0571 -0.2095
 4039TIP3    H133752   5.006   2.116   0.663 -0.1188  0.0725 -0.2149
 4039TIP3    H233753   4.904   2.075   0.559  0.4180 -1.2193 -0.2433
 4040TIP3   OH233754   3.661   4.560   8.852 -0.6379  0.2616 -0.1799
 4040TIP3    H133755   3.690   4.469   8.854 -1.8049 -0.2315 -2.4676
 4040TIP3    H233756   3.741   4.611   8.864  0.1007 -1.0454  0.6526
 4041TIP3   OH233757   0.758   1.568   7.273 -0.3599 -0.3267  0.4219
 4041TIP3    H133758   0.723   1.532   7.192  1.0739 -1.1353  0.1328
 4041TIP3    H233759   0.793   1.492   7.320  0.7570  0.3926  0.7980
 4042TIP3   OH233760   6.023   3.710   7.591  0.1312  0.7284 -0.3311
 4042TIP3    H133761   6.115   3.692   7.611 -0.2738  0.1036  1.1158
 4042TIP3    H233762   6.010   3.673   7.504  1.2019  0.6724 -0.4835
 4043TIP3   OH233763   3.159   3.065   7.274 -0.2467  0.1460 -0.1920
 4043TIP3    H133764   3.086   3.041   7.216 -0.4477 -0.0661  0.1503
 4043TIP3    H233765   3.185   2.983   7.316  1.7805 -0.2689 -2.0824
 4044TIP3   OH233766   0.982   3.864   1.933 -0.2898 -0.2415  0.3464
 4044TIP3    H133767   1.005   3.823   2.016 -2.2578  0.8561  1.5162
 4044TIP3    H233768   0.889   3.846   1.923 -0.6239  1.6292 -0.4106
 4045TIP3   OH233769   0.501   2.876   8.479 -0.4308  0.4630  0.0798
 4045TIP3    H133770   0.424   2.859   8.534 -0.6709  2.6231  0.5202
 4045TIP3    H233771   0.525   2.790   8.444 -1.4546 -0.6861  2.0010
 4046TIP3   OH233772   1.717   6.261   7.887  0.0890 -0.0184 -0.2041
 4046TIP3    H133773   1.764   6.293   7.810 -1.0634  2.0192 -0.1339
 4046TIP3    H233774   1.651   6.202   7.852  0.9366 -0.7967 -0.5402
 4047TIP3   OH233775   4.174   0.532   8.992 -0.1195  0.1778 -0.2438
 4047TIP3    H133776   4.129   0.616   8.985 -0.8850 -0.1354  0.7261
 4047TIP3    H233777   4.223   0.538   9.074 -0.9229 -0.6598  0.3097
 4048TIP3   OH233778   5.468   0.292   7.388  0.1104 -0.0750 -0.2861
 4048TIP3    H133779   5.376   0.276   7.366  0.7802 -2.7366 -1.5515
 4048TIP3    H233780   5.471   0.281   7.483 -1.1198  1.7719  0.0244
 4049TIP3   OH233781   2.738   4.098   2.315  0.3982 -0.7513 -0.1585
 4049TIP3    H133782   2.759   4.097   2.409  3.3495  3.4294 -0.4606
 4049TIP3    H233783   2.657   4.149   2.310  2.5903  3.1660  0.1719
 4050TIP3   OH233784   4.877   1.847   2.717 -0.0914  0.3378 -0.5343
 4050TIP3    H133785   4.912   1.823   2.803  1.1032 -0.2716 -1.1728
 4050TIP3    H233786   4.813   1.778   2.697 -1.2126  1.0879  0.3351
 4051TIP3   OH233787   1.336   4.869   8.818  0.1207 -0.2554  0.1719
 4051TIP3    H133788   1.274   4.821   8.874  0.6378 -1.2494 -0.0777
 4051TIP3    H233789   1.422   4.847   8.853  0.3754  0.3175 -0.0914
 4052TIP3   OH233790   2.662   3.035   2.636  0.7507  0.4692 -0.3849
 4052TIP3    H133791   2.628   3.119   2.666 -0.2611  0.2215 -0.8164
 4052TIP3    H233792   2.698   2.995   2.716  2.0068  1.6283 -0.3140
 4053TIP3   OH233793   4.331   1.809   2.145  0.1025 -0.1144 -0.1953
 4053TIP3    H133794   4.314   1.796   2.239  0.9556 -1.4194 -0.1960
 4053TIP3    H233795   4.378   1.730   2.118 -3.7011 -1.8113 -2.6873
 4054TIP3   OH233796   1.156   3.045   8.333  0.5380  0.3949 -0.1678
 4054TIP3    H133797   1.178   3.080   8.419  3.1064  0.2536 -0.6691
 4054TIP3    H233798   1.161   3.120   8.274 -0.5884  0.3803 -0.2901
 4055TIP3   OH233799   5.156   1.833   0.843 -0.6676 -0.3475 -0.7436
 4055TIP3    H133800   5.215   1.893   0.887 -1.6982  1.1894 -1.3884
 4055TIP3    H233801   5.212   1.782   0.784  0.1090  0.5946 -0.8295
 4056TIP3   OH233802   4.055   5.902   7.511 -0.0272  0.2080  0.3878
 4056TIP3    H133803   4.104   5.844   7.451  0.0686  0.7984 -0.1131
 4056TIP3    H233804   4.097   5.987   7.501 -3.4390  1.8102 -3.0225
 4057TIP3   OH233805   5.688   4.869   0.109  0.0399 -0.1096 -0.7988
 4057TIP3    H133806   5.659   4.899   0.195  1.2376 -0.8607 -0.1125
 4057TIP3    H233807   5.606   4.850   0.062 -0.6233 -0.3960  0.4206
 4058TIP3   OH233808   0.916   6.086   2.332 -0.4268 -0.1210  0.3445
 4058TIP3    H133809   0.894   6.045   2.415  0.9051 -0.7051  0.4199
 4058TIP3    H233810   0.980   6.028   2.291  1.8127  1.9813  0.6045
 4059TIP3   OH233811   1.614   6.039   6.885 -0.0032 -0.1516 -0.3637
 4059TIP3    H133812   1.659   6.080   6.811 -0.7352 -0.5577 -1.0459
 4059TIP3    H233813   1.521   6.051   6.866 -0.3582  3.1724  2.3724
 4060TIP3   OH233814   4.304   6.736   2.061  0.8337  0.2458 -0.0933
 4060TIP3    H133815   4.346   6.801   2.004  1.3714 -0.7553 -0.8962
 4060TIP3    H233816   4.214   6.766   2.069  1.2302  1.4397  0.1046
 4061TIP3   OH233817   6.052   4.806   7.275 -0.2887  0.1116 -0.3204
 4061TIP3    H133818   5.980   4.865   7.251 -0.4161 -0.3193 -1.0203
 4061TIP3    H233819   6.096   4.851   7.346 -1.5014  0.1896  0.4160
 4062TIP3   OH233820   2.082   1.978   7.564  0.1637 -0.0637  0.4836
 4062TIP3    H133821   2.008   2.005   7.618 -0.3411  0.8781 -0.6418
 4062TIP3    H233822   2.159   1.994   7.620 -0.0672  3.8959 -0.0594
 4063TIP3   OH233823   5.648   2.844   8.657  0.0944 -0.6870  0.0685
 4063TIP3    H133824   5.564   2.853   8.612 -0.2419 -1.1619  0.5787
 4063TIP3    H233825   5.703   2.795   8.596  0.7022  1.3790 -1.1341
 4064TIP3   OH233826   3.001   6.641   8.279 -0.5130  0.4464 -0.3834
 4064TIP3    H133827   2.955   6.556   8.278  2.0177 -1.0254 -1.2117
 4064TIP3    H233828   3.092   6.619   8.300  0.1365  3.0482 -0.1237
 4065TIP3   OH233829   1.359   4.767   2.264 -0.6042 -0.0636 -0.2750
 4065TIP3    H133830   1.449   4.774   2.298  0.2826 -0.5242 -2.3492
 4065TIP3    H233831   1.326   4.685   2.300  0.5755 -0.9189 -1.0588
 4066TIP3   OH233832   3.191   1.865   0.149  0.2498  0.1583 -0.6921
 4066TIP3    H133833   3.168   1.940   0.095  0.3030  0.8217  0.1921
 4066TIP3    H233834   3.114   1.809   0.146 -0.4906  1.1228  0.1283
 4067TIP3   OH233835   6.042   5.505   7.035  0.2882  0.0546  0.0952
 4067TIP3    H133836   6.108   5.540   6.975 -0.3217  0.9552 -0.0586
 4067TIP3    H233837   5.970   5.478   6.978 -0.7740  1.9594  0.4615
 4068TIP3   OH233838   4.467   0.568   6.456  0.3638  0.2024  0.1438
 4068TIP3    H133839   4.479   0.515   6.535 -2.9501  0.7336  1.1251
 4068TIP3    H233840   4.472   0.505   6.384 -0.7885 -1.0420  1.1045
 4069TIP3   OH233841   5.594   5.309   7.481 -0.3402  0.3153  0.0033
 4069TIP3    H133842   5.566   5.290   7.392  0.6954 -0.4421 -0.1762
 4069TIP3    H233843   5.513   5.308   7.532 -0.9758  0.9706 -0.9424
 4070TIP3   OH233844   4.289   3.495   8.681 -0.3342  0.0183 -0.2169
 4070TIP3    H133845   4.376   3.481   8.643  0.1103 -0.0707  0.7852
 4070TIP3    H233846   4.267   3.585   8.657  1.3538  1.1109  1.9467
 4071TIP3   OH233847   3.171   1.283   8.550 -0.2564  0.2308  0.5741
 4071TIP3    H133848   3.118   1.351   8.592 -0.7803  0.4629 -0.4499
 4071TIP3    H233849   3.257   1.324   8.538 -0.4972  0.6348  0.1936
 4072TIP3   OH233850   6.663   1.521   8.093  0.5293 -0.2260 -0.3151
 4072TIP3    H133851   6.749   1.562   8.080  0.4930  0.2902  0.9559
 4072TIP3    H233852   6.682   1.439   8.140  0.1674  1.3408  2.8361
 4073TIP3   OH233853   6.693   6.633   7.565  0.4132 -0.0849 -0.2581
 4073TIP3    H133854   6.617   6.666   7.518  0.7792  2.1380  0.5832
 4073TIP3    H233855   6.697   6.540   7.544 -1.5291  0.1143 -1.6629
 4074TIP3   OH233856   1.491   5.913   0.791 -0.2470  0.0416  0.3448
 4074TIP3    H133857   1.518   5.821   0.800  2.7625  1.0371  4.7519
 4074TIP3    H233858   1.432   5.927   0.864 -0.4616  1.7070 -0.1256
 4075TIP3   OH233859   3.158   4.556   0.857 -0.4272 -0.3921 -0.1802
 4075TIP3    H133860   3.074   4.539   0.899  0.4315 -0.8816  1.4285
 4075TIP3    H233861   3.189   4.638   0.898  0.8231 -1.3370  0.8594
 4076TIP3   OH233862   5.582   2.359   8.686  0.0203 -0.3632  0.1119
 4076TIP3    H133863   5.508   2.316   8.643 -1.2260 -0.4048  2.1732
 4076TIP3    H233864   5.620   2.415   8.617 -0.5838 -1.9291 -1.5764
 4077TIP3   OH233865   5.041   6.308   8.948 -0.0554  0.1296 -0.3532
 4077TIP3    H133866   5.110   6.293   8.884 -1.4270  1.0081 -2.1127
 4077TIP3    H233867   4.960   6.301   8.899 -1.2774 -1.0866  1.6933
 4078TIP3   OH233868   0.434   5.136   6.485  0.4880 -0.2679 -0.0312
 4078TIP3    H133869   0.405   5.051   6.520 -0.0111 -0.2668 -0.4388
 4078TIP3    H233870   0.503   5.164   6.546  0.8230 -1.0735 -0.0253
 4079TIP3   OH233871   4.029   6.384   8.773  0.0844 -0.2482 -0.0268
 4079TIP3    H133872   3.937   6.400   8.793  0.1525 -1.1331  1.0815
 4079TIP3    H233873   4.028   6.352   8.682 -0.7310 -0.4663  0.0471
 4080TIP3   OH233874   3.425   1.850   8.989  0.1878 -0.0309 -0.6655
 4080TIP3    H133875   3.375   1.788   8.935 -1.2070 -0.9202  1.5160
 4080TIP3    H233876   3.360   1.889   9.047  1.6357  0.7842  0.4760
 4081TIP3   OH233877   3.442   0.734   6.547 -0.1583  0.3904 -0.0539
 4081TIP3    H133878   3.373   0.800   6.551 -0.8882 -0.4148  0.9401
 4081TIP3    H233879   3.436   0.700   6.457 -2.8589 -1.5039  0.7140
 4082TIP3   OH233880   5.694   1.042   2.072 -0.2750  0.5943  0.0579
 4082TIP3    H133881   5.746   1.036   1.992 -0.7310  1.4566 -0.3176
 4082TIP3    H233882   5.749   1.003   2.140 -0.3485 -1.2059 -0.8773
 4083TIP3   OH233883   1.268   0.404   8.087 -0.6925  0.1265  0.3022
 4083TIP3    H133884   1.299   0.466   8.153 -1.8235  0.1537  0.8289
 4083TIP3    H233885   1.208   0.454   8.032  0.8252  0.3094 -1.2729
 4084TIP3   OH233886   2.534   2.988   1.605  0.3777  0.5374 -0.3402
 4084TIP3    H133887   2.599   2.918   1.596  1.0210  0.7496  2.0611
 4084TIP3    H233888   2.491   2.971   1.689 -1.8653  1.1118 -1.2839
 4085TIP3   OH233889   2.043   4.448   7.232 -0.0459  0.3532  0.3181
 4085TIP3    H133890   1.956   4.442   7.193  0.1833 -0.7623 -0.0638
 4085TIP3    H233891   2.103   4.430   7.160  0.4529  0.1469  0.7780
 4086TIP3   OH233892   2.864   6.259   0.934  0.4496 -0.0895  0.2029
 4086TIP3    H133893   2.884   6.342   0.891 -1.5690  0.1679 -0.3675
 4086TIP3    H233894   2.902   6.193   0.876 -2.1692  0.2554 -2.1327
 4087TIP3   OH233895   5.102   4.105   1.327 -0.1364 -0.1414 -0.5146
 4087TIP3    H133896   5.104   4.197   1.298 -0.9487 -0.1503 -0.6192
 4087TIP3    H233897   5.084   4.110   1.420 -1.8939 -0.2166 -0.8101
 4088TIP3   OH233898   2.454   5.308   2.377  0.2863  0.1868 -0.2689
 4088TIP3    H133899   2.512   5.382   2.360 -0.1429  0.5538 -0.1639
 4088TIP3    H233900   2.386   5.343   2.435  0.2839 -0.3840  0.0845
 4089TIP3   OH233901   3.789   2.034   1.867  0.0449 -0.1729  0.3817
 4089TIP3    H133902   3.743   2.118   1.875  0.2218 -0.2108  2.1439
 4089TIP3    H233903   3.858   2.038   1.933  1.3384 -0.9247 -0.8816
 4090TIP3   OH233904   4.557   4.500   1.250  0.1139 -0.1593  0.2435
 4090TIP3    H133905   4.563   4.542   1.165 -0.8980 -1.6768 -0.6117
 4090TIP3    H233906   4.464   4.499   1.271  0.2784 -0.4626  1.0089
 4091TIP3   OH233907   0.858   0.298   2.509  1.1600  0.7875 -0.2484
 4091TIP3    H133908   0.771   0.313   2.546  1.8396 -0.8508  2.3062
 4091TIP3    H233909   0.841   0.260   2.422 -0.6705  0.5400  0.1787
 4092TIP3   OH233910   3.861   1.573   2.185  0.1887  0.0020 -0.2367
 4092TIP3    H133911   3.918   1.527   2.247 -0.2932 -1.9903 -1.1938
 4092TIP3    H233912   3.835   1.653   2.231  1.1785 -0.5955  1.4525
 4093TIP3   OH233913   5.282   4.516   7.834  0.3272  0.3772 -0.2330
 4093TIP3    H133914   5.358   4.479   7.879  0.3754  1.1166  0.3185
 4093TIP3    H233915   5.284   4.477   7.747  1.2666  0.2845 -0.1805
 4094TIP3   OH233916   2.387   2.408   8.569  0.0567 -0.2142 -0.3570
 4094TIP3    H133917   2.457   2.392   8.505  0.2824 -0.2408 -0.1093
 4094TIP3    H233918   2.418   2.483   8.620 -0.1247 -0.1882 -0.2841
 4095TIP3   OH233919   4.304   5.918   1.098 -0.4153  0.6920 -0.3040
 4095TIP3    H133920   4.360   5.845   1.122 -0.1927  1.0559  0.3239
 4095TIP3    H233921   4.356   5.996   1.121 -0.6793  1.0390 -0.8796
 4096TIP3   OH233922   5.675   3.952   7.608  0.4843 -0.0123 -0.3096
 4096TIP3    H133923   5.757   3.954   7.656  0.5419 -3.6490  0.0401
 4096TIP3    H233924   5.695   3.903   7.528 -1.5543 -2.6101  0.6050
 4097TIP3   OH233925   4.752   0.738   2.053 -0.3435 -0.4441  0.0226
 4097TIP3    H133926   4.829   0.760   2.000 -0.2260  0.9239  0.7138
 4097TIP3    H233927   4.679   0.776   2.004 -0.2044  1.0707  0.9310
 4098TIP3   OH233928   4.952   6.694   8.161  0.0435  0.5267  0.3388
 4098TIP3    H133929   5.018   6.704   8.229  0.3958  1.8659 -0.1581
 4098TIP3    H233930   4.874   6.735   8.198  0.0694  0.7368  0.1634
 4099TIP3   OH233931   1.051   4.052   0.325  0.5771 -0.7709  0.2374
 4099TIP3    H133932   1.074   3.968   0.365 -1.2415 -0.1935  2.7608
 4099TIP3    H233933   0.999   4.097   0.392 -2.8410  0.2939 -2.8160
 4100TIP3   OH233934   2.641   2.105   6.709 -0.7411 -0.1113 -0.3867
 4100TIP3    H133935   2.591   2.107   6.791 -0.7533 -0.6004 -0.3799
 4100TIP3    H233936   2.656   2.197   6.688 -3.0794  0.1293 -1.2657
 4101TIP3   OH233937   4.432   6.193   1.761  0.0893  0.1889 -0.4338
 4101TIP3    H133938   4.454   6.285   1.770  1.9471 -0.3330  0.8717
 4101TIP3    H233939   4.376   6.174   1.837  0.3164  0.0719 -0.2954
 4102TIP3   OH233940   4.101   1.348   1.415 -0.5142 -0.3469  0.6161
 4102TIP3    H133941   4.025   1.303   1.450 -1.1254  1.6683  2.0962
 4102TIP3    H233942   4.126   1.410   1.484  0.1788  1.6208 -1.2776
 4103TIP3   OH233943   3.307   2.378   1.454 -0.3916 -0.4510 -0.2672
 4103TIP3    H133944   3.359   2.328   1.392  1.3845 -0.1724  0.9319
 4103TIP3    H233945   3.314   2.330   1.536 -1.9836 -0.3417 -0.0311
 4104TIP3   OH233946   6.224   5.755   0.763  0.0141  0.5935  0.2555
 4104TIP3    H133947   6.216   5.790   0.852  0.6360  0.4518  0.3787
 4104TIP3    H233948   6.306   5.793   0.730  1.1548 -1.3369  0.7013
 4105TIP3   OH233949   0.286   3.735   8.794  0.4635  0.7305 -0.2598
 4105TIP3    H133950   0.229   3.708   8.866  2.1988 -0.4339  0.7441
 4105TIP3    H233951   0.265   3.827   8.780 -1.4535  0.4166  0.2269
 4106TIP3   OH233952   1.431   4.875   0.205 -0.5397 -0.0146  0.1079
 4106TIP3    H133953   1.343   4.847   0.180 -0.2145 -0.6868 -0.3021
 4106TIP3    H233954   1.437   4.965   0.173 -0.9322 -0.1080 -0.2450
 4107TIP3   OH233955   2.482   4.819   8.893 -0.0759  0.0616  0.0167
 4107TIP3    H133956   2.450   4.833   8.804 -0.1960 -0.3323 -0.0050
 4107TIP3    H233957   2.469   4.903   8.937  0.2576  0.3462 -0.4217
 4108TIP3   OH233958   2.012   6.294   7.406 -0.3706 -0.1386 -0.7181
 4108TIP3    H133959   2.055   6.235   7.468 -0.8175  0.8468  0.5795
 4108TIP3    H233960   1.962   6.354   7.461  1.5425  2.6854 -1.8379
 4109TIP3   OH233961   1.710   2.955   8.450 -0.2208  0.3222 -0.4358
 4109TIP3    H133962   1.695   2.870   8.410  1.7222  0.6538 -2.0016
 4109TIP3    H233963   1.622   2.994   8.456 -0.8487 -0.6397 -2.3720
 4110TIP3   OH233964   1.404   5.818   2.274 -0.1121 -0.7497 -0.3807
 4110TIP3    H133965   1.334   5.855   2.328 -0.6191  0.8002 -1.9910
 4110TIP3    H233966   1.374   5.730   2.254 -0.4703 -0.9304  0.8436
 4111TIP3   OH233967   1.535   6.489   1.514  0.4539 -0.5199  0.2942
 4111TIP3    H133968   1.497   6.527   1.435  0.2220  0.0222  0.6599
 4111TIP3    H233969   1.511   6.396   1.510  1.6427 -0.8067 -0.9718
 4112TIP3   OH233970   5.550   4.081   0.494  0.3860  0.4100 -0.2424
 4112TIP3    H133971   5.536   4.175   0.494  3.0083  0.8884  0.6936
 4112TIP3    H233972   5.606   4.065   0.418 -2.9454 -1.0587 -2.6386
 4113TIP3   OH233973   5.461   4.703   2.112 -0.0615 -0.1793 -0.4057
 4113TIP3    H133974   5.540   4.662   2.149 -1.6209 -1.3430  1.8553
 4113TIP3    H233975   5.438   4.647   2.038  0.3724 -0.7357 -0.1302
 4114TIP3   OH233976   5.775   1.929   7.794  0.4594 -0.8636 -0.1461
 4114TIP3    H133977   5.812   1.974   7.870  1.6708 -2.1923  0.0908
 4114TIP3    H233978   5.693   1.976   7.777  0.4944 -0.0888  1.5446
 4115TIP3   OH233979   5.817   6.056   0.890  0.2873 -0.5695  0.0735
 4115TIP3    H133980   5.761   6.095   0.823 -0.2468  0.9279  1.3159
 4115TIP3    H233981   5.831   5.966   0.861 -0.3157 -0.1080 -1.7736
 4116TIP3   OH233982   4.259   2.612   7.763 -0.4165 -0.4379 -0.2351
 4116TIP3    H133983   4.341   2.636   7.804 -0.8114 -1.3509  1.1445
 4116TIP3    H233984   4.266   2.518   7.748 -0.4679 -0.2150 -1.8913
 4117TIP3   OH233985   0.542   2.579   8.632  0.5875 -0.1575  0.2639
 4117TIP3    H133986   0.516   2.504   8.686 -0.9453  0.7112  0.8047
 4117TIP3    H233987   0.552   2.651   8.694 -0.5166  0.6933 -0.4822
 4118TIP3   OH233988   5.534   3.523   7.543 -0.2379  0.2073 -0.8354
 4118TIP3    H133989   5.541   3.428   7.536 -0.6505  0.2727 -2.6269
 4118TIP3    H233990   5.612   3.550   7.591 -1.1245 -1.1834  1.5705
 4119TIP3   OH233991   2.089   5.471   8.156  0.5118 -0.7072 -0.4887
 4119TIP3    H133992   2.075   5.564   8.172 -0.2652 -1.1313  1.5736
 4119TIP3    H233993   2.101   5.465   8.061 -0.9920  1.2831 -0.8774
 4120TIP3   OH233994   0.462   4.797   0.613  0.4812 -0.5883  0.4961
 4120TIP3    H133995   0.479   4.865   0.678  0.7864 -0.1245 -0.0571
 4120TIP3    H233996   0.368   4.799   0.600  0.5474  0.1273  0.0682
 4121TIP3   OH233997   4.908   2.798   1.116 -0.0534  0.2990  0.3414
 4121TIP3    H133998   4.817   2.803   1.144 -0.7213  2.7630 -1.8889
 4121TIP3    H233999   4.955   2.856   1.177 -0.0064 -0.5979  1.1918
 4122TIP3   OH234000   3.887   4.986   1.785  0.5848 -0.1173  0.5430
 4122TIP3    H134001   3.892   5.077   1.755 -1.8352  0.2023  0.9135
 4122TIP3    H234002   3.946   4.938   1.727 -0.3285  1.2333 -1.6065
 4123TIP3   OH234003   4.076   3.564   2.730  0.0344 -0.1698  0.0893
 4123TIP3    H134004   4.079   3.527   2.642  1.1120 -2.3968  0.9908
 4123TIP3    H234005   4.002   3.625   2.728 -0.3240 -0.5912 -2.1758
 4124TIP3   OH234006   3.177   6.585   0.620 -0.5897  0.0525  0.2270
 4124TIP3    H134007   3.131   6.529   0.682 -0.3781 -0.5588 -0.1606
 4124TIP3    H234008   3.168   6.673   0.656 -3.1758  0.1615 -0.4891
 4125TIP3   OH234009   5.446   2.923   8.479  0.0783  0.7731 -0.0066
 4125TIP3    H134010   5.351   2.915   8.485 -0.0224  1.1740 -0.8875
 4125TIP3    H234011   5.460   2.999   8.423  0.9008 -0.2311 -1.2157
 4126TIP3   OH234012   1.415   4.068   8.689 -0.5588  0.3497 -0.0175
 4126TIP3    H134013   1.496   4.097   8.732 -0.4337 -1.6994  1.2429
 4126TIP3    H234014   1.433   3.977   8.663 -1.8584  0.4317 -1.3637
 4127TIP3   OH234015   4.434   0.429   7.454 -0.4980  0.2560  0.3505
 4127TIP3    H134016   4.496   0.490   7.414 -1.5151  0.7253 -0.5395
 4127TIP3    H234017   4.460   0.427   7.546 -0.7117  2.4011  0.5200
 4128TIP3   OH234018   2.202   6.041   0.183 -0.3348  0.1692  0.0067
 4128TIP3    H134019   2.275   6.083   0.138  0.2525  1.0941  1.7292
 4128TIP3    H234020   2.187   5.960   0.135  0.3964  0.9901 -1.6761
 4129TIP3   OH234021   4.685   0.557   6.868  0.2244 -0.1627  0.2650
 4129TIP3    H134022   4.763   0.602   6.900  0.4165 -1.4380  1.6879
 4129TIP3    H234023   4.643   0.521   6.946  0.1977 -2.6088 -0.7611
 4130TIP3   OH234024   4.075   1.494   8.922  0.1691  0.2983  0.6671
 4130TIP3    H134025   4.131   1.429   8.880  1.0246 -0.0020  2.2151
 4130TIP3    H234026   4.098   1.576   8.878 -0.3722 -0.2757 -0.7706
 4131TIP3   OH234027   6.397   2.048   8.688  0.2653 -0.9167  0.6472
 4131TIP3    H134028   6.325   2.075   8.630  0.8061 -1.2495 -0.1892
 4131TIP3    H234029   6.475   2.090   8.651  0.7219 -1.6397  0.7802
 4132TIP3   OH234030   6.740   2.824   7.717  0.4955 -0.2282 -0.2840
 4132TIP3    H134031   6.707   2.913   7.721 -1.4120 -0.9219  1.5500
 4132TIP3    H234032   6.673   2.775   7.669  0.2440 -1.0937  0.8727
 4133TIP3   OH234033   5.493   0.109   6.774 -0.2759 -0.0531  0.1950
 4133TIP3    H134034   5.401   0.129   6.795 -0.0832  0.2224  0.8157
 4133TIP3    H234035   5.492   0.084   6.682 -0.7555  1.4458 -0.2391
 4134TIP3   OH234036   1.173   0.635   1.437 -0.2089 -0.1202  0.2010
 4134TIP3    H134037   1.157   0.550   1.477  0.8799 -1.5272 -2.0827
 4134TIP3    H234038   1.106   0.644   1.370 -1.1892  1.5473  1.3252
 4135TIP3   OH234039   5.370   2.932   0.224  0.2094  0.1661 -0.5620
 4135TIP3    H134040   5.374   2.994   0.151 -2.3554  1.7997  0.5473
 4135TIP3    H234041   5.383   2.985   0.302 -0.4371 -0.9553  0.3439
 4136TIP3   OH234042   6.149   3.469   7.333 -0.4646  0.8694 -0.4404
 4136TIP3    H134043   6.128   3.489   7.424  0.1568  2.7682 -0.6806
 4136TIP3    H234044   6.086   3.518   7.281 -1.6523 -1.2038 -1.0823
 4137TIP3   OH234045   1.444   3.755   0.643  0.3155 -0.0560 -0.6358
 4137TIP3    H134046   1.466   3.663   0.656 -1.1660 -0.3825 -0.2124
 4137TIP3    H234047   1.522   3.793   0.601  0.3562 -1.8721 -2.3865
 4138TIP3   OH234048   5.447   0.105   2.014 -0.4111 -0.5158 -0.0407
 4138TIP3    H134049   5.457   0.011   2.030 -0.0369 -0.7244 -1.3703
 4138TIP3    H234050   5.416   0.140   2.098  1.4966 -1.4786  1.1521
 4139TIP3   OH234051   0.518   4.963   0.216  0.4621  0.7532  0.3557
 4139TIP3    H134052   0.551   4.942   0.129 -1.3126 -0.4899 -0.0841
 4139TIP3    H234053   0.487   4.879   0.251 -0.4498  1.5120  1.4673
 4140TIP3   OH234054   3.524   2.348   2.121  0.0046 -0.8552 -0.3884
 4140TIP3    H134055   3.440   2.370   2.161  1.7671  0.2236  3.1144
 4140TIP3    H234056   3.537   2.256   2.141  0.8566 -0.3324  1.6935
 4141TIP3   OH234057   4.374   0.343   1.558 -0.5000 -0.4576 -0.0432
 4141TIP3    H134058   4.336   0.258   1.577  0.7348 -0.9090  0.4941
 4141TIP3    H234059   4.300   0.403   1.559 -1.5186 -1.6303 -1.2285
 4142TIP3   OH234060   5.033   1.154   7.062 -0.4689 -0.6560  0.1101
 4142TIP3    H134061   4.979   1.219   7.015 -1.7215 -1.7181  0.0135
 4142TIP3    H234062   5.011   1.071   7.020 -0.2226 -1.3829  1.3863
 4143TIP3   OH234063   1.969   0.480   8.643 -0.3483  0.6066  0.7124
 4143TIP3    H134064   2.058   0.476   8.606 -0.2893 -1.1493  0.9496
 4143TIP3    H234065   1.969   0.559   8.697  1.5381 -0.0812  1.8263
 4144TIP3   OH234066   2.361   2.768   2.998  0.0177 -0.5704  0.0022
 4144TIP3    H134067   2.417   2.691   2.990  0.3428 -0.4676  1.0671
 4144TIP3    H234068   2.277   2.742   2.962  0.1793 -1.3698  0.1976
 4145TIP3   OH234069   2.113   0.185   0.148  0.3376 -0.0194 -0.4168
 4145TIP3    H134070   2.181   0.228   0.096  0.7942  1.0226  0.9755
 4145TIP3    H234071   2.031   0.224   0.117  0.2443 -1.6072 -2.4248
 4146TIP3   OH234072   3.683   1.669   0.709  0.2248 -0.4738  0.0846
 4146TIP3    H134073   3.713   1.583   0.679  0.9796  0.1940 -1.1795
 4146TIP3    H234074   3.741   1.732   0.665 -2.7788  0.8889 -2.3125
 4147TIP3   OH234075   4.636   2.439   2.175  0.3063 -0.8540 -0.0753
 4147TIP3    H134076   4.550   2.482   2.175  0.6091 -0.1940 -1.4120
 4147TIP3    H234077   4.617   2.349   2.149  0.0626 -0.5261 -1.1187
 4148TIP3   OH234078   0.759   2.170   0.934  0.2385 -0.7419  0.1584
 4148TIP3    H134079   0.815   2.247   0.921  1.0432 -1.1075  1.3394
 4148TIP3    H234080   0.799   2.102   0.881 -1.3050 -0.0279 -2.0941
 4149TIP3   OH234081   6.012   4.980   0.889 -0.2807 -0.3633 -0.0278
 4149TIP3    H134082   6.091   5.006   0.936 -0.5926  0.9643 -0.1899
 4149TIP3    H234083   6.030   5.003   0.798 -1.3798  1.4207  0.1387
 4150TIP3   OH234084   0.794   3.249   0.754  0.8054  0.5133 -0.2291
 4150TIP3    H134085   0.736   3.175   0.766 -0.6252  1.8508  1.5945
 4150TIP3    H234086   0.841   3.230   0.673  0.1601 -2.1235 -0.0506
 4151TIP3   OH234087   3.550   6.541   1.537 -0.2030  0.3694 -0.0494
 4151TIP3    H134088   3.477   6.580   1.586 -0.4777  1.2729 -1.1366
 4151TIP3    H234089   3.586   6.476   1.597 -1.1108  0.7806  0.9961
 4152TIP3   OH234090   6.153   0.858   1.595  0.6437  0.1091  0.2397
 4152TIP3    H134091   6.210   0.782   1.610  0.7038 -0.2122 -1.4539
 4152TIP3    H234092   6.207   0.919   1.546 -0.2049  0.1459 -0.6739
 4153TIP3   OH234093   4.361   0.019   7.605  0.0740  0.1039  0.6098
 4153TIP3    H134094   4.368  -0.072   7.632 -2.9995 -0.3812  0.0980
 4153TIP3    H234095   4.306   0.060   7.672  1.5422  1.6624  0.9223
 4154TIP3   OH234096   6.202   1.586   1.632 -0.1108 -0.0477 -0.4883
 4154TIP3    H134097   6.161   1.590   1.718 -0.7744  3.3378 -0.8338
 4154TIP3    H234098   6.295   1.598   1.648 -0.3673  1.9063 -0.2504
 4155TIP3   OH234099   3.908   5.607   1.852  0.1099  0.0831 -0.4049
 4155TIP3    H134100   3.977   5.643   1.797  0.7043 -0.5493 -0.0906
 4155TIP3    H234101   3.829   5.609   1.798  0.0809  2.0104 -0.3380
 4156TIP3   OH234102   3.505   5.041   2.052 -0.4571  0.5154 -0.2691
 4156TIP3    H134103   3.463   5.031   1.966 -0.2931  1.9835 -0.5430
 4156TIP3    H234104   3.558   4.962   2.062  0.9468  1.1085 -2.3286
 4157TIP3   OH234105   2.040   1.315   8.578  0.1650  0.1281 -0.2701
 4157TIP3    H134106   1.995   1.373   8.516 -0.9563  0.0834  0.4591
 4157TIP3    H234107   2.076   1.375   8.644 -1.8287  0.0255  1.0204
 4158TIP3   OH234108   0.532   6.505   2.699 -0.0717  0.6219 -0.1487
 4158TIP3    H134109   0.465   6.441   2.677  0.2283 -0.1553  1.1033
 4158TIP3    H234110   0.485   6.576   2.742  0.0909 -1.0519  3.0783
 4159TIP3   OH234111   4.511   5.907   0.118  0.4449  0.2492  0.0289
 4159TIP3    H134112   4.529   5.964   0.193  0.5211  1.3049 -0.7676
 4159TIP3    H234113   4.451   5.841   0.152  0.2735  0.8664  0.9675
 4160TIP3   OH234114   6.361   4.167   0.174  0.1892 -0.5389  0.1155
 4160TIP3    H134115   6.437   4.206   0.132 -0.0393 -1.3995 -1.1495
 4160TIP3    H234116   6.288   4.185   0.114 -0.3244 -0.9958  0.5886
 4161TIP3   OH234117   6.638   3.248   1.122  0.0682 -0.5785  0.2292
 4161TIP3    H134118   6.701   3.315   1.095 -1.2127  0.3493 -0.5933
 4161TIP3    H234119   6.572   3.249   1.053 -0.6774 -1.7623  0.8986
 4162TIP3   OH234120   5.956   0.584   8.985  0.1660 -0.0712 -0.0624
 4162TIP3    H134121   5.962   0.611   9.076 -0.8894 -0.3212  0.0930
 4162TIP3    H234122   6.040   0.609   8.946  0.6297  0.0083  0.9808
 4163TIP3   OH234123   0.701   4.267   2.337  0.2442  0.7043  0.0873
 4163TIP3    H134124   0.735   4.330   2.401  1.9264  1.3487 -1.3444
 4163TIP3    H234125   0.779   4.224   2.302 -0.6864 -0.1354 -1.0302
 4164TIP3   OH234126   2.964   6.051   0.759 -0.1198 -0.0257 -0.2587
 4164TIP3    H134127   2.971   5.958   0.737  0.4543 -0.3527  1.1800
 4164TIP3    H234128   3.045   6.089   0.728  0.2509 -0.2873  0.3706
 4165TIP3   OH234129   1.658   4.164   1.720  0.0305  0.3871  0.4500
 4165TIP3    H134130   1.711   4.172   1.799 -0.2861  1.7049  0.5620
 4165TIP3    H234131   1.682   4.241   1.668  0.6111 -0.7269 -0.9800
 4166TIP3   OH234132   1.339   4.296   8.172 -0.0715  0.3464  0.3440
 4166TIP3    H134133   1.308   4.363   8.111 -2.1254  0.0545  0.9765
 4166TIP3    H234134   1.353   4.218   8.118 -2.6682 -0.1592  0.2397
 4167TIP3   OH234135   4.316   2.849   0.011 -0.2235  0.0826  0.0254
 4167TIP3    H134136   4.401   2.892   0.022 -0.5380  0.0833  4.4740
 4167TIP3    H234137   4.264   2.909  -0.042  1.1966  2.3688  1.0727
 4168TIP3   OH234138   6.440   2.757   7.885  0.2078 -0.1486  0.2699
 4168TIP3    H134139   6.466   2.753   7.793  0.7260  0.0812  0.3977
 4168TIP3    H234140   6.380   2.684   7.897 -0.8125  0.5141 -0.5377
 4169TIP3   OH234141   2.964   0.856   7.381  0.6242  0.6401 -0.1122
 4169TIP3    H134142   2.974   0.785   7.444 -0.9974  0.3567 -0.1457
 4169TIP3    H234143   3.046   0.906   7.389 -0.5524  2.3235  4.3294
 4170TIP3   OH234144   0.571   4.699   0.298 -0.3967 -0.1335  0.2941
 4170TIP3    H134145   0.520   4.645   0.358 -2.2826  0.0934 -0.9882
 4170TIP3    H234146   0.588   4.642   0.223  0.7754 -0.0200  0.4554
 4171TIP3   OH234147   0.289   3.244   0.757 -0.4063  0.0299  0.7290
 4171TIP3    H134148   0.205   3.260   0.713  1.3407  1.0053 -2.6073
 4171TIP3    H234149   0.307   3.325   0.804 -0.2299  0.8344 -0.6603
 4172TIP3   OH234150   3.320   2.884   1.280  0.0416  0.0506 -0.4298
 4172TIP3    H134151   3.327   2.978   1.268 -0.5412  0.5366  2.2695
 4172TIP3    H234152   3.239   2.871   1.330  0.7724 -1.7121  0.4157
 4173TIP3   OH234153   0.519   1.291   8.562  0.0381 -0.1053 -0.3374
 4173TIP3    H134154   0.472   1.373   8.577 -2.3783 -1.7000  1.4607
 4173TIP3    H234155   0.604   1.318   8.527 -1.7011  2.9985 -2.6139
 4174TIP3   OH234156   4.843   1.027   2.172  0.5398  0.0092 -0.0958
 4174TIP3    H134157   4.895   0.950   2.194  0.0482 -0.7400 -1.4978
 4174TIP3    H234158   4.891   1.069   2.100  0.4474  0.6566  0.2071
 4175TIP3   OH234159   5.153   4.091   2.410 -0.0613 -0.1255 -0.2930
 4175TIP3    H134160   5.063   4.097   2.378  0.1956  0.8101 -0.8727
 4175TIP3    H234161   5.177   3.999   2.398 -1.5147 -0.7803  1.4873
 4176TIP3   OH234162   0.173   6.396   8.697 -0.4357 -0.6453 -0.2224
 4176TIP3    H134163   0.205   6.307   8.684 -1.2965 -1.1745  0.9864
 4176TIP3    H234164   0.126   6.417   8.617  1.3148 -0.5580 -1.2609
 4177TIP3   OH234165   0.687   5.754   0.840 -0.7779 -0.8159 -0.1360
 4177TIP3    H134166   0.737   5.706   0.906 -1.3879 -1.7806 -0.3536
 4177TIP3    H234167   0.678   5.692   0.768  1.7728  0.8930 -2.1391
 4178TIP3   OH234168   2.867   4.693   0.494 -0.4561  0.0173  0.0531
 4178TIP3    H134169   2.909   4.704   0.409  2.2893  0.4681  1.3693
 4178TIP3    H234170   2.906   4.614   0.531 -0.4318  0.6572  1.5009
 4179TIP3   OH234171   2.588   3.102   7.785  0.1547 -0.1479  0.1653
 4179TIP3    H134172   2.547   3.016   7.774 -2.1575  0.7829  0.9682
 4179TIP3    H234173   2.635   3.095   7.868 -0.2843 -0.5495  0.3853
 4180TIP3   OH234174   2.939   3.749   1.802 -0.7721  0.0218  0.1878
 4180TIP3    H134175   2.905   3.700   1.877 -1.1371  0.6899  0.4616
 4180TIP3    H234176   2.940   3.685   1.731 -4.0219  0.2890 -0.2632
 4181TIP3   OH234177   4.377   6.016   8.923  0.1747 -0.1895 -1.0511
 4181TIP3    H134178   4.361   6.109   8.939  0.9591  0.1195 -1.9297
 4181TIP3    H234179   4.420   5.985   9.003 -0.6908  0.0334 -0.4889
 4182TIP3   OH234180   5.182   5.303   8.827  0.0431  0.0196  0.4216
 4182TIP3    H134181   5.247   5.291   8.759  0.3762 -2.5754  1.1055
 4182TIP3    H234182   5.168   5.216   8.863 -1.5691  0.9921  2.3587
 4183TIP3   OH234183   3.721   5.232   1.883 -0.2598  0.3943  0.6926
 4183TIP3    H134184   3.670   5.291   1.939  0.4395  0.1107  1.6699
 4183TIP3    H234185   3.667   5.153   1.875  0.4457 -0.3794  2.7044
 4184TIP3   OH234186   5.539   3.793   1.327 -0.1606 -0.2827 -0.3416
 4184TIP3    H134187   5.516   3.702   1.343  0.8055 -0.9140 -2.1857
 4184TIP3    H234188   5.460   3.833   1.292 -0.7312 -0.2683  0.9448
 4185TIP3   OH234189   0.806   4.183   1.294  0.0109  0.4281  0.0368
 4185TIP3    H134190   0.841   4.095   1.309 -0.1731  0.3564  0.0472
 4185TIP3    H234191   0.751   4.200   1.370  1.3211  1.2078  0.8596
 4186TIP3   OH234192   3.878   3.434   6.860  0.4486  0.1779  0.8678
 4186TIP3    H134193   3.946   3.369   6.881  1.3024  0.7523  0.0025
 4186TIP3    H234194   3.927   3.508   6.824 -0.6457  0.6396  0.2925
 4187TIP3   OH234195   6.068   5.608   2.853  0.0512 -0.5028 -0.5823
 4187TIP3    H134196   6.131   5.620   2.924  1.4219  0.2156 -1.8690
 4187TIP3    H234197   6.038   5.518   2.862  1.7809 -1.0821 -0.3179
 4188TIP3   OH234198   4.102   2.674   8.987  0.7190  0.0740 -0.2334
 4188TIP3    H134199   4.023   2.726   9.005  1.0499  0.5512 -0.1174
 4188TIP3    H234200   4.174   2.729   9.019  1.4517  1.2917 -3.5810
 4189TIP3   OH234201   2.743   5.793   7.354 -0.1295 -0.0768 -0.1600
 4189TIP3    H134202   2.672   5.842   7.396 -1.7462 -1.7361 -0.8375
 4189TIP3    H234203   2.751   5.831   7.267  0.4712  0.6973  0.2130
 4190TIP3   OH234204   6.710   4.051   8.426  0.3510 -0.1962 -0.7444
 4190TIP3    H134205   6.622   4.028   8.396  0.0282 -0.0769  0.0912
 4190TIP3    H234206   6.750   4.095   8.350 -0.6660  0.6658 -0.8027
 4191TIP3   OH234207   4.108   3.681   2.981  0.3861 -0.3344  0.0782
 4191TIP3    H134208   4.116   3.613   2.914  1.9285 -0.5124  0.4118
 4191TIP3    H234209   4.160   3.754   2.948  1.2155 -0.4476  1.1003
 4192TIP3   OH234210   1.196   0.758   1.150  0.7194  0.0872  0.5182
 4192TIP3    H134211   1.113   0.803   1.134  1.2321  0.1535 -2.7297
 4192TIP3    H234212   1.258   0.827   1.171  0.8534  0.6655 -1.5353
 4193TIP3   OH234213   4.737   4.752   0.566 -0.0982 -0.2736  0.0717
 4193TIP3    H134214   4.812   4.766   0.624  0.1594  0.6190 -0.4424
 4193TIP3    H234215   4.702   4.840   0.552  0.0256 -0.4306 -1.3546
 4194TIP3   OH234216   4.571   1.843   7.312  0.6069  0.5129  0.4161
 4194TIP3    H134217   4.643   1.899   7.283 -0.4008  1.5528 -0.1406
 4194TIP3    H234218   4.528   1.815   7.231  0.7296 -0.6012  0.7171
 4195TIP3   OH234219   2.551   1.176   1.859 -0.1177 -0.2923  0.2136
 4195TIP3    H134220   2.567   1.096   1.810  1.1928 -0.3594  0.7251
 4195TIP3    H234221   2.509   1.147   1.939 -1.1612 -0.2932 -0.3147
 4196TIP3   OH234222   0.777   5.121   8.365  0.1110 -0.5630  0.4882
 4196TIP3    H134223   0.721   5.090   8.437 -0.5783 -0.0405  0.1934
 4196TIP3    H234224   0.779   5.216   8.377  0.0331 -0.4814 -0.1558
 4197TIP3   OH234225   6.462   0.415   0.938 -0.1852  0.0993  0.2136
 4197TIP3    H134226   6.502   0.500   0.919 -0.0920 -0.4737 -2.5417
 4197TIP3    H234227   6.371   0.436   0.958  0.1441  0.9246  0.9429
 4198TIP3   OH234228   1.030   1.907   8.229  0.0648  0.2057 -0.4182
 4198TIP3    H134229   1.103   1.926   8.170 -0.6495  1.0510 -1.0444
 4198TIP3    H234230   0.963   1.971   8.207 -0.6624 -0.1905  0.5415
 4199TIP3   OH234231   3.702   6.709   7.756 -0.1802  0.4783  0.0045
 4199TIP3    H134232   3.653   6.640   7.800 -0.9269  0.4306 -0.8784
 4199TIP3    H234233   3.786   6.711   7.801 -0.2149 -0.8834  0.1715
 4200TIP3   OH234234   1.869   3.819   8.287 -1.0867  0.2844 -0.4619
 4200TIP3    H134235   1.853   3.776   8.371  0.7443  2.0290  0.8757
 4200TIP3    H234236   1.907   3.751   8.232  1.3137 -0.0125  1.4326
 4201TIP3   OH234237   2.982   4.444   0.606 -0.1386 -0.2892 -0.2922
 4201TIP3    H134238   2.948   4.365   0.565  0.5120 -0.0848 -1.2501
 4201TIP3    H234239   3.069   4.419   0.637  0.1985  0.1395 -0.8876
 4202TIP3   OH234240   4.396   6.521   7.629  0.0797 -0.1746 -0.4355
 4202TIP3    H134241   4.430   6.442   7.585  2.1387 -0.3126  1.2318
 4202TIP3    H234242   4.322   6.489   7.681 -1.4226 -0.2778 -2.4973
 4203TIP3   OH234243   2.177   3.640   2.069  0.2029  0.2879 -0.2919
 4203TIP3    H134244   2.142   3.574   2.008 -0.0485  0.1656 -0.0146
 4203TIP3    H234245   2.113   3.711   2.066 -0.7189 -0.4297  1.1119
 4204TIP3   OH234246   6.487   1.485   2.371  0.5382 -0.3622 -0.2001
 4204TIP3    H134247   6.397   1.513   2.353  1.0600  1.8331  0.2031
 4204TIP3    H234248   6.480   1.394   2.398 -1.7871  0.2005  1.3707
 4205TIP3   OH234249   3.897   6.224   8.429  0.7950  0.2513  0.1463
 4205TIP3    H134250   3.951   6.173   8.489  1.9202  0.7834 -0.3797
 4205TIP3    H234251   3.825   6.166   8.406 -0.2153  0.3220  2.6909
 4206TIP3   OH234252   6.396   6.574   7.852  0.5230  0.5049  0.2810
 4206TIP3    H134253   6.444   6.645   7.811 -1.4087  1.5864 -0.2282
 4206TIP3    H234254   6.349   6.615   7.925 -0.2302 -0.3396  0.2964
 4207TIP3   OH234255   0.875   2.875   0.452 -0.3931 -0.3216  0.6055
 4207TIP3    H134256   0.800   2.903   0.399 -0.5545  0.2746  1.1467
 4207TIP3    H234257   0.894   2.786   0.420  0.4761  0.5513 -1.5350
 4208TIP3   OH234258   3.894   2.223   1.365  0.6495  0.2591  0.1705
 4208TIP3    H134259   3.867   2.198   1.453  1.6558  0.9379  0.6992
 4208TIP3    H234260   3.908   2.140   1.319  0.5391 -0.1009  0.7853
 4209TIP3   OH234261   1.823   6.702   6.958  0.5188  0.3793  0.4650
 4209TIP3    H134262   1.829   6.657   6.874 -2.3596  0.3103  0.2103
 4209TIP3    H234263   1.765   6.777   6.941 -0.9983 -0.2433  2.5729
 4210TIP3   OH234264   4.793   5.747   0.206 -0.1065  0.3271  0.3904
 4210TIP3    H134265   4.734   5.754   0.131 -1.3877 -0.8306  1.2455
 4210TIP3    H234266   4.811   5.838   0.230 -2.2811  0.7559  0.6200
 4211TIP3   OH234267   0.705   5.146   2.938 -0.6719 -0.0886 -0.1928
 4211TIP3    H134268   0.772   5.111   2.880  1.6331  2.4294  0.6696
 4211TIP3    H234269   0.644   5.191   2.880 -0.2888 -0.4352 -0.8782
 4212TIP3   OH234270   1.575   4.639   8.759 -0.2318 -0.3182 -0.0936
 4212TIP3    H134271   1.541   4.672   8.676  0.5110  1.2654  0.1921
 4212TIP3    H234272   1.594   4.546   8.743  0.0945  0.0104 -1.7508
 4213TIP3   OH234273   3.582   4.480   7.050  0.5872 -0.2581 -0.5504
 4213TIP3    H134274   3.590   4.455   6.958  0.7749  1.9009 -1.1755
 4213TIP3    H234275   3.668   4.516   7.074  0.1131  0.5751 -0.0070
 4214TIP3   OH234276   6.217   6.682   0.218  0.7322 -0.4974  0.0336
 4214TIP3    H134277   6.197   6.604   0.270  1.0893 -1.5140 -1.2899
 4214TIP3    H234278   6.177   6.665   0.133 -0.2210  1.3176  0.0724
 4215TIP3   OH234279   4.171   1.000   2.171  0.5686  0.7217 -0.1130
 4215TIP3    H134280   4.155   0.958   2.255 -2.1393  2.5979  0.4722
 4215TIP3    H234281   4.249   1.055   2.186  0.8763  0.0717  0.7493
 4216TIP3   OH234282   6.576   1.855   8.623 -0.1043  0.4212 -0.1248
 4216TIP3    H134283   6.526   1.933   8.648 -1.6362 -0.6758  0.3924
 4216TIP3    H234284   6.509   1.788   8.605  1.1733 -1.0532  0.3890
 4217TIP3   OH234285   6.589   2.588   1.329 -0.2864 -0.4930 -0.6083
 4217TIP3    H134286   6.612   2.668   1.375  1.4505 -0.4527 -1.4381
 4217TIP3    H234287   6.532   2.540   1.389  0.2864  0.4466  0.7300
 4218TIP3   OH234288   0.647   4.370   8.821  0.0129  0.8461  0.2494
 4218TIP3    H134289   0.558   4.375   8.787  0.3591  0.6508 -0.6996
 4218TIP3    H234290   0.639   4.315   8.899 -1.0361  2.5050  1.3766
 4219TIP3   OH234291   1.622   2.635   0.439 -0.5923 -0.4406  0.3005
 4219TIP3    H134292   1.620   2.646   0.344  1.5134  0.7962  0.3270
 4219TIP3    H234293   1.684   2.563   0.453 -1.0927 -0.7921  0.7430
 4220TIP3   OH234294   6.022   0.064   8.749 -0.2142  0.4445 -0.0949
 4220TIP3    H134295   5.976   0.124   8.691  0.3324  0.7741 -0.1953
 4220TIP3    H234296   6.079   0.120   8.802  1.7988 -0.0968 -1.5437
 4221TIP3   OH234297   2.046   5.693   0.773  0.2008  0.5792 -0.1061
 4221TIP3    H134298   2.029   5.737   0.689  0.1661 -1.0466 -0.9792
 4221TIP3    H234299   2.085   5.609   0.749 -0.1920 -0.0980  1.4923
 4222TIP3   OH234300   1.879   1.489   7.884  0.4167 -0.2155  0.1928
 4222TIP3    H134301   1.910   1.535   7.805  3.3466 -0.3616  1.1505
 4222TIP3    H234302   1.808   1.433   7.852 -0.4051  1.7701 -1.7811
 4223TIP3   OH234303   1.819   3.977   0.997  0.4710 -0.0395  0.5841
 4223TIP3    H134304   1.803   3.953   0.905 -1.1741 -0.1525  0.8647
 4223TIP3    H234305   1.899   4.029   0.995  0.9924 -0.8395 -0.7840
 4224TIP3   OH234306   0.556   2.050   8.578  0.0546 -0.2898 -0.7588
 4224TIP3    H134307   0.608   1.969   8.583 -0.8380 -0.8145  0.9793
 4224TIP3    H234308   0.519   2.050   8.490  1.0558 -1.1417 -1.1948
 4225TIP3   OH234309   1.416   3.274   6.829  0.1998  0.0792  0.7838
 4225TIP3    H134310   1.443   3.209   6.895  1.5718 -1.3633 -1.0870
 4225TIP3    H234311   1.325   3.251   6.809  0.2826 -0.4786  1.0204
 4226TIP3   OH234312   4.201   0.354   1.991 -0.1757 -0.1023  0.3286
 4226TIP3    H134313   4.169   0.303   1.916 -1.0000  0.6029  0.1852
 4226TIP3    H234314   4.126   0.358   2.050 -0.8747  2.7161 -0.6023
 4227TIP3   OH234315   1.435   6.178   2.047 -0.0748  0.2846 -0.2034
 4227TIP3    H134316   1.469   6.262   2.015 -1.3894  1.5433  1.5329
 4227TIP3    H234317   1.434   6.187   2.142 -1.8907 -1.0414 -0.0512
 4228TIP3   OH234318   5.988   5.736   1.474 -0.0959 -0.3997  0.1710
 4228TIP3    H134319   5.898   5.703   1.472 -0.5769  0.7906  1.1004
 4228TIP3    H234320   6.006   5.751   1.567  0.6764  0.4034 -0.0988
 4229TIP3   OH234321   5.165   3.398   7.704 -0.5237 -0.1314 -0.1339
 4229TIP3    H134322   5.123   3.359   7.781 -0.8818  0.3560 -0.0725
 4229TIP3    H234323   5.259   3.387   7.719 -0.6203 -2.1773 -0.7722
 4230TIP3   OH234324   3.385   2.164   7.414 -0.3047 -1.7322 -0.3903
 4230TIP3    H134325   3.373   2.090   7.354 -1.4808 -1.4920 -0.4706
 4230TIP3    H234326   3.323   2.148   7.485  0.2970 -1.4378  0.2159
 4231TIP3   OH234327   4.069   2.137   7.879  0.2246 -0.0950  0.0533
 4231TIP3    H134328   4.029   2.147   7.965 -0.4576 -2.0388  0.0207
 4231TIP3    H234329   4.160   2.110   7.897  0.5728  1.0909  0.1364
 4232TIP3   OH234330   4.496   3.058   0.770 -0.3811 -0.1698  0.3993
 4232TIP3    H134331   4.535   3.003   0.838 -3.0578 -0.8237  1.5613
 4232TIP3    H234332   4.472   2.996   0.701 -1.0797 -0.1032  0.5729
 4233TIP3   OH234333   4.740   4.162   1.604  0.5758  0.3277 -0.1153
 4233TIP3    H134334   4.771   4.252   1.601  1.3878  0.0354 -1.7063
 4233TIP3    H234335   4.654   4.168   1.647  0.3410  1.9363 -0.7274
 4234TIP3   OH234336   2.628   4.014   0.403 -0.2536  0.1257  0.4871
 4234TIP3    H134337   2.623   4.102   0.366  0.7736 -0.0648 -0.1246
 4234TIP3    H234338   2.658   3.959   0.331 -2.4316 -1.0432  0.3912
 4235TIP3   OH234339   6.632   0.748   7.080  0.3218 -0.3321  0.2576
 4235TIP3    H134340   6.550   0.759   7.032  0.8996  2.1972 -0.3158
 4235TIP3    H234341   6.693   0.710   7.017  0.6390  1.5239 -0.6304
 4236TIP3   OH234342   3.147   2.766   0.444  0.2908  0.2781 -0.0972
 4236TIP3    H134343   3.187   2.740   0.527 -1.0055 -0.8447  0.2134
 4236TIP3    H234344   3.053   2.765   0.462  0.0400  1.0734 -1.2941
 4237TIP3   OH234345   1.068   2.453   2.748 -0.6195 -0.6267 -0.7077
 4237TIP3    H134346   1.161   2.438   2.733 -0.7829 -0.3862 -2.0199
 4237TIP3    H234347   1.030   2.458   2.661 -1.7532 -0.0040 -0.1934
 4238TIP3   OH234348   1.962   3.605   2.801  0.3966  0.1740  0.4198
 4238TIP3    H134349   1.956   3.525   2.853 -1.0831 -0.6770 -0.9563
 4238TIP3    H234350   2.023   3.660   2.849  2.4773 -2.2447  0.7883
 4239TIP3   OH234351   3.534   6.674   0.556 -0.1137 -0.0458  0.1172
 4239TIP3    H134352   3.489   6.685   0.472  0.9097 -2.1370 -0.7567
 4239TIP3    H234353   3.468   6.698   0.621 -1.9216 -1.2586 -1.1803
 4240TIP3   OH234354   5.826   4.731   6.558 -0.4649  0.1631  0.2382
 4240TIP3    H134355   5.808   4.663   6.622 -0.3506 -0.6660 -0.5897
 4240TIP3    H234356   5.741   4.752   6.519 -0.4819  0.4036  0.4033
 4241TIP3   OH234357   4.882   2.387   7.661 -0.4192  0.0165  0.0837
 4241TIP3    H134358   4.800   2.398   7.708 -0.9703  0.5677 -0.9727
 4241TIP3    H234359   4.876   2.448   7.587  0.8327 -0.1126 -0.1443
 4242TIP3   OH234360   5.597   6.702   7.400 -0.0243 -0.1714 -0.4242
 4242TIP3    H134361   5.605   6.616   7.359 -1.0099 -0.4316 -0.0891
 4242TIP3    H234362   5.669   6.704   7.464 -0.0980 -0.8134 -0.3121
 4243TIP3   OH234363   6.662   0.291   8.855 -0.2876  0.4922 -0.0853
 4243TIP3    H134364   6.702   0.373   8.883  1.9804 -0.3209 -0.7305
 4243TIP3    H234365   6.621   0.312   8.771  1.2581  0.7415 -0.8044
 4244TIP3   OH234366   6.208   2.326   8.174  0.8563 -0.2597 -0.4446
 4244TIP3    H134367   6.274   2.263   8.201  0.8536  0.5018  1.5322
 4244TIP3    H234368   6.250   2.412   8.185 -0.5032  0.2641  1.2787
 4245TIP3   OH234369   3.912   6.678   7.028  0.0871 -0.4119  0.1339
 4245TIP3    H134370   3.918   6.592   6.987 -0.6095 -0.3860 -0.0415
 4245TIP3    H234371   3.819   6.700   7.023  0.1343 -0.0213  0.9519
 4246TIP3   OH234372   6.361   3.911   1.186 -0.4031 -0.2434 -0.3738
 4246TIP3    H134373   6.445   3.876   1.154  0.5306  2.0928 -0.7058
 4246TIP3    H234374   6.375   3.923   1.280 -1.3485 -2.3056  0.0791
 4247TIP3   OH234375   4.140   6.483   0.613 -0.1854 -0.2200 -0.1543
 4247TIP3    H134376   4.220   6.459   0.566 -1.5770 -0.6618 -2.4700
 4247TIP3    H234377   4.113   6.566   0.574 -0.9730 -0.1972  0.4034
 4248TIP3   OH234378   4.188   3.364   0.992 -0.0467 -0.2028 -0.1992
 4248TIP3    H134379   4.102   3.394   0.962 -0.7776 -1.2564  0.7550
 4248TIP3    H234380   4.245   3.375   0.917 -1.2002 -0.2073 -1.1012
 4249TIP3   OH234381   5.806   1.533   1.515 -0.1285  0.2058  0.5353
 4249TIP3    H134382   5.753   1.598   1.562 -0.0253 -0.9669  2.3610
 4249TIP3    H234383   5.758   1.451   1.526  1.5230 -0.7001  1.4038
 4250TIP3   OH234384   3.020   2.227   7.760 -0.0703 -0.0475  0.7079
 4250TIP3    H134385   2.947   2.282   7.732  1.2588  1.7980  0.6864
 4250TIP3    H234386   3.082   2.230   7.686  0.2940 -1.1000  0.9545
 4251TIP3   OH234387   4.391   1.355   1.435 -0.1050 -0.4198 -0.0249
 4251TIP3    H134388   4.310   1.364   1.485  0.4997  1.1148  0.7379
 4251TIP3    H234389   4.457   1.330   1.499  0.0630 -1.5745 -0.6260
 4252TIP3   OH234390   1.373   6.282   0.269  0.1210  0.0546  0.2004
 4252TIP3    H134391   1.282   6.300   0.248 -0.0900  0.7028  1.5793
 4252TIP3    H234392   1.389   6.327   0.352  1.0799 -1.8404  1.1150
 4253TIP3   OH234393   1.627   6.045   8.183  0.1913 -0.1807  0.2176
 4253TIP3    H134394   1.557   6.053   8.247 -1.7521 -0.8780 -1.7190
 4253TIP3    H234395   1.679   6.125   8.195 -1.2070  0.6048  1.3985
 4254TIP3   OH234396   4.627   6.140   0.608  0.1709  0.3947  0.2023
 4254TIP3    H134397   4.635   6.233   0.629 -0.5657  0.7803 -1.0881
 4254TIP3    H234398   4.698   6.123   0.546 -0.2337  0.3365 -0.2546
 4255TIP3   OH234399   1.550   4.114   7.103  0.3657  0.6677 -0.0678
 4255TIP3    H134400   1.569   4.198   7.144 -1.6321  1.2811 -0.3145
 4255TIP3    H234401   1.455   4.105   7.109  0.5396 -1.6483  0.0729
 4256TIP3   OH234402   2.260   2.484   2.491  0.4883 -0.2064  0.0623
 4256TIP3    H134403   2.270   2.510   2.583 -1.3160 -1.3582  0.6320
 4256TIP3    H234404   2.349   2.491   2.455  1.1381  0.8533  1.7135
 4257TIP3   OH234405   3.577   0.512   7.635  0.5195 -0.4865 -0.2215
 4257TIP3    H134406   3.512   0.577   7.609 -1.4033 -1.3655  2.0371
 4257TIP3    H234407   3.660   0.558   7.630 -0.5610  1.5554 -0.5441
 4258TIP3   OH234408   3.751   6.057   7.451 -0.5418  0.0125  0.4385
 4258TIP3    H134409   3.750   6.013   7.536 -0.6324  0.0464  0.4547
 4258TIP3    H234410   3.661   6.087   7.438 -0.0809  1.9098  1.3241
 4259TIP3   OH234411   2.459   0.904   2.069  0.0855 -0.5524 -0.5086
 4259TIP3    H134412   2.367   0.880   2.070  0.0657 -0.4723  0.1195
 4259TIP3    H234413   2.476   0.938   2.157  1.0239 -1.8163 -0.1612
 4260TIP3   OH234414   2.419   0.776   1.542 -0.0014  0.3605  0.0246
 4260TIP3    H134415   2.341   0.785   1.488  0.7758 -0.0465 -1.2084
 4260TIP3    H234416   2.490   0.761   1.480  0.9178 -0.2311  1.1699
 4261TIP3   OH234417   0.644   0.996   8.402  0.5440 -0.3663  0.1852
 4261TIP3    H134418   0.690   1.043   8.472  1.6214  0.5103 -1.0733
 4261TIP3    H234419   0.623   1.063   8.338 -0.7475 -1.1000 -0.1993
 4262TIP3   OH234420   6.446   0.568   8.972  0.2545 -0.1956 -0.1220
 4262TIP3    H134421   6.389   0.514   8.919 -1.1961  3.6045 -2.8853
 4262TIP3    H234422   6.533   0.559   8.933 -0.3492  0.7742 -1.7720
 4263TIP3   OH234423   6.183   1.194   0.619 -0.3267 -0.3249 -0.2866
 4263TIP3    H134424   6.214   1.169   0.706  0.1741  0.2594 -0.2857
 4263TIP3    H234425   6.158   1.286   0.629 -1.8643 -0.7248 -0.3467
 4264TIP3   OH234426   3.243   2.335   6.900  0.7314  0.3312  0.2646
 4264TIP3    H134427   3.197   2.321   6.983  0.1583 -1.7364 -0.3265
 4264TIP3    H234428   3.334   2.311   6.919  1.2686  2.6732  0.9735
 4265TIP3   OH234429   0.670   1.734   7.478  0.8921 -0.4051  0.8138
 4265TIP3    H134430   0.685   1.743   7.384 -2.4011  1.9071  0.3293
 4265TIP3    H234431   0.641   1.643   7.489 -3.9155  0.5185 -1.5485
 4266TIP3   OH234432   6.535   0.924   8.410  0.8358 -0.0936  0.1449
 4266TIP3    H134433   6.609   0.978   8.438  1.2197  1.8763 -3.8979
 4266TIP3    H234434   6.464   0.949   8.469  2.4562  0.6460  1.8874
 4267TIP3   OH234435   4.977   5.014   0.962 -0.0540  0.1875 -0.2425
 4267TIP3    H134436   5.043   4.975   1.019  0.0189 -0.8801 -1.0356
 4267TIP3    H234437   4.981   5.108   0.981  1.3428  0.0815  0.0669
 4268TIP3   OH234438   1.441   1.240   8.952 -0.3055 -0.2546  0.0112
 4268TIP3    H134439   1.478   1.326   8.972  0.4469 -0.2988 -1.1009
 4268TIP3    H234440   1.507   1.178   8.984 -0.1610 -0.3786 -0.5289
 4269TIP3   OH234441   0.552   0.138   0.471  0.0080 -0.3711  0.1515
 4269TIP3    H134442   0.553   0.155   0.565 -1.0623  0.6502  0.0110
 4269TIP3    H234443   0.611   0.204   0.434  0.1160 -0.5084  0.0816
 4270TIP3   OH234444   1.289   6.229   8.761 -0.1220  0.4398  0.1359
 4270TIP3    H134445   1.362   6.255   8.817 -0.9145  0.0547  1.3959
 4270TIP3    H234446   1.260   6.145   8.796 -1.1721  0.5889 -0.3302
 4271TIP3   OH234447   5.311   5.438   7.460 -0.2240 -0.6481 -0.7177
 4271TIP3    H134448   5.323   5.520   7.411 -0.1460  0.5197  1.1244
 4271TIP3    H234449   5.366   5.449   7.537 -1.6693 -1.6344  0.5100
 4272TIP3   OH234450   5.185   2.571   7.631 -0.2848 -0.5011  0.5984
 4272TIP3    H134451   5.275   2.557   7.604  0.3811  2.2638  1.0371
 4272TIP3    H234452   5.135   2.501   7.590  2.1426 -2.5947  1.0111
 4273TIP3   OH234453   2.513   2.908   2.284 -0.3090  0.4268  0.5225
 4273TIP3    H134454   2.547   2.992   2.315  1.6942  0.0488 -0.4500
 4273TIP3    H234455   2.550   2.843   2.344 -1.1060  0.1597  0.7345
 4274TIP3   OH234456   2.175   2.164   0.602 -0.1150 -0.6694 -0.0522
 4274TIP3    H134457   2.212   2.103   0.538  1.2314  0.2390 -0.1797
 4274TIP3    H234458   2.185   2.119   0.686  1.5967 -0.3245 -0.0467
 4275TIP3   OH234459   0.077   3.925   0.552 -0.0128  0.4581  0.3491
 4275TIP3    H134460   0.035   4.008   0.574 -0.5531  0.1286  0.5804
 4275TIP3    H234461   0.076   3.923   0.456 -0.6221  0.4071  0.3545
 4276TIP3   OH234462   4.178   0.611   2.193  0.4594 -1.4077 -0.2187
 4276TIP3    H134463   4.168   0.652   2.279  1.4112  0.8151 -1.0790
 4276TIP3    H234464   4.119   0.536   2.194 -0.4025 -0.7618  1.9474
 4277TIP3   OH234465   0.004   4.475   0.793 -0.2735 -0.0398  0.4691
 4277TIP3    H134466  -0.056   4.458   0.865  0.8946 -1.1689  1.2418
 4277TIP3    H234467   0.080   4.517   0.834 -0.2301  0.7093 -0.3535
 4278TIP3   OH234468   4.268   2.490   7.121  0.7256 -0.1373  0.1099
 4278TIP3    H134469   4.320   2.568   7.137  0.6096 -0.1989  0.7912
 4278TIP3    H234470   4.332   2.418   7.121  0.7739 -0.0936 -0.0690
 4279TIP3   OH234471   5.131   2.071   7.888  0.3061  0.2376  0.3452
 4279TIP3    H134472   5.150   2.036   7.975  0.8319 -0.4713 -0.0422
 4279TIP3    H234473   5.139   2.166   7.898  0.3057  0.1653  1.0817
 4280TIP3   OH234474   4.108   2.474   7.351  0.3065 -0.0967 -0.1426
 4280TIP3    H134475   4.176   2.431   7.403 -0.0266 -0.1602  0.2400
 4280TIP3    H234476   4.148   2.486   7.265  1.2968  1.0689  0.4483
 4281TIP3   OH234477   3.793   5.755   7.579  0.0404 -0.1283 -0.0541
 4281TIP3    H134478   3.872   5.795   7.542  0.0668 -0.7139 -0.6381
 4281TIP3    H234479   3.790   5.668   7.541 -1.3679  0.1956 -0.7130
 4282TIP3   OH234480   0.340   3.031   8.768  0.2175 -0.1798 -0.4142
 4282TIP3    H134481   0.313   2.978   8.693 -0.6234  0.5387 -0.6309
 4282TIP3    H234482   0.406   3.091   8.733 -2.1938  2.1401 -1.3371
 4283TIP3   OH234483   1.671   5.685   8.630  0.6068  0.3593 -0.1866
 4283TIP3    H134484   1.644   5.741   8.703  1.2651  0.2606  0.1396
 4283TIP3    H234485   1.700   5.745   8.562  0.5395  0.4343 -0.1489
 4284TIP3   OH234486   0.393   5.890   8.566 -0.3746  0.0994 -0.4854
 4284TIP3    H134487   0.481   5.913   8.536 -1.4224  1.3198 -2.8792
 4284TIP3    H234488   0.404   5.807   8.612  2.1105  0.5810 -0.0693
 4285TIP3   OH234489   0.864   1.932   0.231  0.3870 -0.9460 -0.3257
 4285TIP3    H134490   0.882   2.026   0.237 -0.3747 -0.7386 -1.1251
 4285TIP3    H234491   0.800   1.924   0.160 -1.6246 -1.7878  1.4896
 4286TIP3   OH234492   3.772   1.080   1.667 -0.0397 -0.7478 -0.2850
 4286TIP3    H134493   3.760   0.990   1.696 -1.3390 -0.0361  1.6390
 4286TIP3    H234494   3.683   1.113   1.653  0.3988  0.2869 -0.7768
 4287TIP3   OH234495   3.786   3.242   7.298 -0.4972  0.3811  0.1305
 4287TIP3    H134496   3.734   3.246   7.217 -0.0034 -1.8661 -0.3648
 4287TIP3    H234497   3.876   3.252   7.268 -0.3938  0.7303  0.5564
 4288TIP3   OH234498   6.762   1.468   0.689 -0.4217 -0.0130 -0.1136
 4288TIP3    H134499   6.815   1.397   0.725  2.7220  0.9682 -2.3499
 4288TIP3    H234500   6.776   1.541   0.749 -1.3550 -0.4615  0.6650
 4289TIP3   OH234501   1.575   5.288   0.355 -0.5295 -0.1304 -0.0379
 4289TIP3    H134502   1.512   5.360   0.346 -2.2013 -1.5303 -0.0865
 4289TIP3    H234503   1.543   5.237   0.430  2.5129  0.9415  2.2057
 4290TIP3   OH234504   6.568   1.387   1.465 -0.0779 -0.0393  0.2207
 4290TIP3    H134505   6.482   1.352   1.442  0.4166 -0.3092 -1.3704
 4290TIP3    H234506   6.606   1.321   1.522  0.0804 -1.2080 -1.1776
 4291TIP3   OH234507   1.061   6.365   8.908  0.0179  0.4733 -0.4806
 4291TIP3    H134508   1.000   6.373   8.834 -0.6958  0.4308  0.1039
 4291TIP3    H234509   1.110   6.285   8.890  0.2105  0.7301 -1.1687
 4292TIP3   OH234510   4.737   1.476   7.378  0.3742  0.1958  0.7156
 4292TIP3    H134511   4.691   1.449   7.299  0.9918  0.4767  0.2500
 4292TIP3    H234512   4.674   1.531   7.424 -0.2448 -0.5470  0.7834
 4293TIP3   OH234513   3.606   5.415   0.242 -0.0141 -0.1087  0.4021
 4293TIP3    H134514   3.672   5.355   0.206  0.5855 -1.0432  2.8392
 4293TIP3    H234515   3.615   5.405   0.337 -2.5366  1.0367  0.8232
 4294TIP3   OH234516   6.702   3.874   8.639 -0.3475  0.5343  0.3213
 4294TIP3    H134517   6.683   3.782   8.624  1.2366  0.3155 -0.5612
 4294TIP3    H234518   6.669   3.918   8.561  1.2729  0.3406 -0.5146
 4295TIP3   OH234519   5.723   4.549   0.034  0.4659  0.0465  0.4544
 4295TIP3    H134520   5.649   4.564   0.093  1.1194  0.3147  1.2239
 4295TIP3    H234521   5.685   4.556  -0.054 -0.4306  0.1166  0.8333
 4296TIP3   OH234522   0.120   5.665   0.432 -0.2925 -0.3437  0.5458
 4296TIP3    H134523   0.164   5.617   0.362 -0.8495 -0.8897  0.5629
 4296TIP3    H234524   0.066   5.600   0.476 -1.1292  0.2992  0.5127
 4297TIP3   OH234525   1.437   5.844   8.054  0.0903 -0.8296 -0.1869
 4297TIP3    H134526   1.488   5.891   8.120  0.1519 -1.4663  0.2310
 4297TIP3    H234527   1.421   5.758   8.093  1.4302 -1.7777 -1.5951
 4298TIP3   OH234528   5.118   1.467   7.775 -0.1125 -0.1363  0.0268
 4298TIP3    H134529   5.048   1.468   7.710  1.0228  0.5099 -1.2297
 4298TIP3    H234530   5.081   1.417   7.849 -2.0268  0.5520 -0.4062
 4299TIP3   OH234531   0.645   6.136   2.291  0.5834 -0.5781 -0.1520
 4299TIP3    H134532   0.714   6.070   2.300  0.7000 -0.5079 -0.5358
 4299TIP3    H234533   0.691   6.217   2.268  0.2514 -0.8750 -1.9794
 4300TIP3   OH234534   1.173   1.544   1.739 -0.2036 -0.4416  0.3851
 4300TIP3    H134535   1.213   1.612   1.685 -0.0536 -1.3036 -0.6141
 4300TIP3    H234536   1.202   1.563   1.828  1.1601 -0.1452 -0.1081
 4301TIP3   OH234537   5.075   3.710   7.596  0.0243  0.5191  0.9014
 4301TIP3    H134538   5.007   3.658   7.553  0.1871  0.6448  0.4939
 4301TIP3    H234539   5.047   3.714   7.688 -0.0730 -0.1432  0.9043
 4302TIP3   OH234540   5.249   6.055   6.464 -0.1196 -0.2795  0.1969
 4302TIP3    H134541   5.225   6.033   6.374 -1.4778  0.8940  0.2433
 4302TIP3    H234542   5.186   6.007   6.518  1.3075 -1.7982  0.6301
 4303TIP3   OH234543   1.977   3.477   1.645  0.1603 -0.0864  0.2868
 4303TIP3    H134544   2.002   3.510   1.731  1.0947  0.7349 -0.2917
 4303TIP3    H234545   1.970   3.382   1.658 -2.1498  0.1920  1.8577
 4304TIP3   OH234546   0.204   2.635   2.272  0.2214  0.4543  0.2040
 4304TIP3    H134547   0.278   2.682   2.233 -1.2169  2.6814  0.0284
 4304TIP3    H234548   0.216   2.645   2.366  0.4481  0.3138  0.1909
 4305TIP3   OH234549   4.607   5.684   8.545  0.4774 -0.0815 -0.1439
 4305TIP3    H134550   4.685   5.734   8.520  0.6816 -0.5412 -0.4408
 4305TIP3    H234551   4.552   5.747   8.590  1.1883  0.1666  0.4016
 4306TIP3   OH234552   6.726   6.193   0.801  0.1666  0.4994 -0.4367
 4306TIP3    H134553   6.798   6.231   0.850  1.0186 -0.5224 -0.8617
 4306TIP3    H234554   6.726   6.240   0.717  3.2269 -2.2971 -2.2666
 4307TIP3   OH234555   5.652   6.364   8.726 -0.1356  0.3114 -0.2342
 4307TIP3    H134556   5.725   6.387   8.784  0.0367  1.5369 -0.8956
 4307TIP3    H234557   5.574   6.390   8.775 -0.0597  0.1314 -0.0171
 4308TIP3   OH234558   4.277   5.057   1.537  0.3309 -0.3213 -0.3196
 4308TIP3    H134559   4.341   4.989   1.559  0.6090  0.2637  0.7885
 4308TIP3    H234560   4.291   5.125   1.603 -0.4857  0.4549 -0.9140
 4309TIP3   OH234561   3.162   2.046   8.968 -0.7471  0.2660  0.1932
 4309TIP3    H134562   3.201   2.027   8.882 -1.4386 -0.1896 -0.0226
 4309TIP3    H234563   3.223   2.108   9.008  2.0373 -2.7652  1.1933
 4310TIP3   OH234564   3.102   0.841   8.630  0.0546 -0.2321  0.3319
 4310TIP3    H134565   3.128   0.777   8.696 -2.2846 -1.5266  0.1035
 4310TIP3    H234566   3.175   0.904   8.627  0.2595 -0.0882  4.1258
 4311TIP3   OH234567   0.174   3.690   0.226  0.6968 -0.0070 -0.5697
 4311TIP3    H134568   0.250   3.736   0.193 -0.7497  2.3024 -0.9412
 4311TIP3    H234569   0.209   3.620   0.280  3.0491  0.7367 -1.0411
 4312TIP3   OH234570   1.247   3.357   8.379  0.1786  0.1314  0.2024
 4312TIP3    H134571   1.333   3.322   8.355  1.1185  0.7185  2.4101
 4312TIP3    H234572   1.249   3.448   8.351 -0.6281 -0.3984 -1.7239
 4313TIP3   OH234573   0.221   4.362   7.265 -0.6293 -0.5368 -0.2360
 4313TIP3    H134574   0.151   4.310   7.304 -0.2758 -1.3907 -0.7034
 4313TIP3    H234575   0.176   4.436   7.224 -1.2568 -1.0291 -0.4516
 4314TIP3   OH234576   6.437   6.634   8.653 -0.5640 -0.0997 -0.3807
 4314TIP3    H134577   6.419   6.581   8.576  0.7931  2.0155 -2.2505
 4314TIP3    H234578   6.362   6.693   8.660 -0.8642 -0.5354  0.1789
 4315TIP3   OH234579   1.383   1.186   2.628  0.1804  0.1938  0.1060
 4315TIP3    H134580   1.412   1.108   2.674 -0.4329 -0.8686 -1.2441
 4315TIP3    H234581   1.315   1.155   2.569 -1.7457  2.1379  1.1644
 4316TIP3   OH234582   1.586   0.023   1.135  0.4579  0.2801 -0.1881
 4316TIP3    H134583   1.650  -0.014   1.073 -0.2541  0.3944 -1.0118
 4316TIP3    H234584   1.511   0.044   1.081 -0.6699 -0.7490  0.9163
 4317TIP3   OH234585   0.734   1.062   6.558 -0.3206 -0.2334 -0.0740
 4317TIP3    H134586   0.680   1.037   6.483 -2.2023  0.5876  0.9613
 4317TIP3    H234587   0.778   0.981   6.583 -0.7562 -0.8409 -1.1759
 4318TIP3   OH234588   0.927   0.388   7.893 -0.0771 -0.4789 -0.5350
 4318TIP3    H134589   0.960   0.471   7.928 -0.0629 -0.8512  0.3504
 4318TIP3    H234590   0.872   0.414   7.819 -2.1495  0.5410  1.2440
 4319TIP3   OH234591   4.224   6.396   7.789 -0.1621  0.0370 -0.2529
 4319TIP3    H134592   4.142   6.436   7.818 -0.0838 -0.1520  0.2367
 4319TIP3    H234593   4.260   6.355   7.868 -0.3545 -1.1985 -0.7852
 4320TIP3   OH234594   0.806   2.794   8.705 -0.4498 -0.2725  0.0838
 4320TIP3    H134595   0.718   2.771   8.735  0.4763 -2.5979  1.2452
 4320TIP3    H234596   0.806   2.773   8.612 -0.2515 -3.5230  0.6917
 4321TIP3   OH234597   6.235   2.800   0.833  0.2419 -0.1054 -0.3159
 4321TIP3    H134598   6.322   2.761   0.828  0.5284  0.6201 -1.6099
 4321TIP3    H234599   6.212   2.819   0.742 -1.4315 -0.6033 -0.0441
 4322TIP3   OH234600   5.688   2.239   1.611  0.3944  0.2007 -0.0875
 4322TIP3    H134601   5.663   2.330   1.629 -0.0424 -0.1320  1.0535
 4322TIP3    H234602   5.687   2.197   1.697  1.6800 -0.6204 -0.4467
 4323TIP3   OH234603   3.420   0.506   7.086  0.3591  0.3873  0.1657
 4323TIP3    H134604   3.410   0.489   7.179  1.2441  0.0749  0.2159
 4323TIP3    H234605   3.515   0.514   7.073  0.1793  1.9894 -0.4390
 4324TIP3   OH234606   4.055   0.096   6.853 -0.1961  0.2320 -0.3648
 4324TIP3    H134607   3.975   0.056   6.887  1.3232 -2.0124  0.7896
 4324TIP3    H234608   4.055   0.185   6.889 -1.4187 -0.2453  0.8633
 4325TIP3   OH234609   0.759   0.247   0.981 -0.9345 -0.2165 -0.1044
 4325TIP3    H134610   0.747   0.295   1.062 -0.9749 -1.6375  0.7712
 4325TIP3    H234611   0.830   0.186   1.000  0.4182  0.7479 -1.7789
 4326TIP3   OH234612   2.385   3.569   1.238 -0.1110 -0.6041 -0.4884
 4326TIP3    H134613   2.406   3.564   1.145  0.9299 -2.3033 -0.1980
 4326TIP3    H234614   2.355   3.481   1.261  0.6407 -0.4986  1.0072
 4327TIP3   OH234615   6.627   5.499   7.567  0.4210 -0.3049 -0.3775
 4327TIP3    H134616   6.656   5.459   7.485 -1.3691 -1.3170 -0.5584
 4327TIP3    H234617   6.706   5.541   7.602  1.8598 -2.0979 -1.2962
 4328TIP3   OH234618   0.974   5.800   1.939  0.4520 -0.7407  0.3275
 4328TIP3    H134619   0.937   5.796   2.027 -0.2166  1.8748  0.2496
 4328TIP3    H234620   1.046   5.737   1.940  0.2011 -1.0644  2.5969
 4329TIP3   OH234621   1.633   0.303   1.209 -0.4634  0.3729  0.2595
 4329TIP3    H134622   1.662   0.213   1.193 -1.7464  0.2782 -1.8585
 4329TIP3    H234623   1.546   0.293   1.247 -0.9153  0.6939 -0.6608
 4330TIP3   OH234624   5.496   4.158   8.196  0.2995  0.2560  0.0694
 4330TIP3    H134625   5.550   4.101   8.252 -0.7478  0.4729  1.3416
 4330TIP3    H234626   5.518   4.247   8.222  0.5789  0.4054 -0.6339
 4331TIP3   OH234627   5.479   3.795   8.223 -0.2214 -0.2394 -0.2236
 4331TIP3    H134628   5.448   3.724   8.166  0.4995 -0.6045 -0.1757
 4331TIP3    H234629   5.431   3.782   8.305  1.5768 -2.1590  0.6323
 4332TIP3   OH234630   4.810   5.537   7.176 -0.7791  0.4416  0.2518
 4332TIP3    H134631   4.820   5.491   7.260  1.1194 -0.9693 -0.6509
 4332TIP3    H234632   4.729   5.503   7.139 -0.5205 -0.5516  0.5745
 4333TIP3   OH234633   0.664   4.331   2.685 -0.0280  0.4922 -0.2109
 4333TIP3    H134634   0.581   4.328   2.637  0.2392 -0.2169 -0.6443
 4333TIP3    H234635   0.728   4.361   2.619  0.3238 -0.3894 -0.2775
 4334TIP3   OH234636   3.282   1.729   2.433  0.0790 -0.4159 -0.2850
 4334TIP3    H134637   3.285   1.669   2.358 -2.3963  0.3717 -1.1053
 4334TIP3    H234638   3.314   1.812   2.399 -2.0481  0.2304 -0.8520
 4335TIP3   OH234639   0.911   2.167   0.099 -0.1240  0.0902 -0.3057
 4335TIP3    H134640   0.978   2.110   0.064  0.2841  1.3003 -1.5764
 4335TIP3    H234641   0.869   2.205   0.022 -0.1988  1.6943  0.4816
 4336TIP3   OH234642   4.281   0.089   0.019 -0.1510  0.0734  0.3034
 4336TIP3    H134643   4.247   0.060   0.104 -0.0038  0.5448  0.5241
 4336TIP3    H234644   4.203   0.111  -0.032 -0.2045  0.5360  0.5850
 4337TIP3   OH234645   6.226   4.713   1.273  0.0478  0.4404  0.1257
 4337TIP3    H134646   6.217   4.628   1.317  1.3390  0.4390  0.4003
 4337TIP3    H234647   6.198   4.695   1.183 -1.4621  0.1724  0.6145
 4338TIP3   OH234648   5.717   6.708   2.579 -0.5717 -0.1398  0.2017
 4338TIP3    H134649   5.758   6.705   2.493  0.1267 -0.3512  0.5372
 4338TIP3    H234650   5.770   6.649   2.633 -2.1449 -1.5574  0.2902
 4339TIP3   OH234651   2.462   5.912   8.332 -0.2107 -0.1907 -0.0835
 4339TIP3    H134652   2.437   5.963   8.410  1.4893 -0.5345  0.7416
 4339TIP3    H234653   2.408   5.833   8.337 -1.2079  0.4803 -0.0935
 4340TIP3   OH234654   3.549   0.419   7.888 -0.1178 -0.0901  0.1066
 4340TIP3    H134655   3.540   0.324   7.876  0.7336 -0.3359  1.2243
 4340TIP3    H234656   3.575   0.451   7.802 -2.0725 -0.6076 -0.7282
 4341TIP3   OH234657   5.611   4.408   8.270 -0.4363 -0.1146 -0.2690
 4341TIP3    H134658   5.666   4.398   8.348 -0.7768  0.5186  0.0576
 4341TIP3    H234659   5.666   4.454   8.207  0.2370 -1.6151 -0.8379
 4342TIP3   OH234660   5.619   2.881   8.062  0.3006 -0.1189  0.1571
 4342TIP3    H134661   5.631   2.848   8.151  1.8362 -0.5712 -0.1821
 4342TIP3    H234662   5.701   2.925   8.042  0.2250 -0.5863 -1.2645
 4343TIP3   OH234663   0.397   1.621   1.268  0.0660  0.0398  0.5140
 4343TIP3    H134664   0.371   1.593   1.355 -1.1806  1.3725  0.5937
 4343TIP3    H234665   0.379   1.715   1.266  1.0527  0.2310 -0.8327
 4344TIP3   OH234666   1.612   3.907   6.787 -0.2786  0.3475 -0.4424
 4344TIP3    H134667   1.639   3.819   6.760  0.6345 -0.2800  2.1981
 4344TIP3    H234668   1.665   3.966   6.734  0.1510 -0.7177 -1.2408
 4345TIP3   OH234669   1.645   1.795   0.226  0.2918  0.0640 -0.2659
 4345TIP3    H134670   1.731   1.755   0.233 -0.5155 -2.7739 -3.7300
 4345TIP3    H234671   1.608   1.788   0.314  1.7352 -3.4206  0.2131
 4346TIP3   OH234672   2.337   0.241   8.153  0.5459 -0.1385  0.3673
 4346TIP3    H134673   2.335   0.274   8.064  2.7828 -0.6628  0.0807
 4346TIP3    H234674   2.374   0.312   8.205 -0.5992  0.1068  0.8784
 4347TIP3   OH234675   0.902   0.493   6.924 -0.6505  0.1688 -0.2714
 4347TIP3    H134676   0.819   0.450   6.899 -0.7296 -0.5200  1.0538
 4347TIP3    H234677   0.880   0.585   6.932 -0.8387  0.2740 -1.7194
 4348TIP3   OH234678   0.909   3.353   2.266 -0.2513 -0.2382 -0.8950
 4348TIP3    H134679   0.878   3.357   2.175 -2.0163  0.1733 -0.3278
 4348TIP3    H234680   0.874   3.432   2.306  1.7964  0.3669 -0.1941
 4349TIP3   OH234681   5.953   4.582   8.687 -0.0856  0.5616 -0.2792
 4349TIP3    H134682   5.988   4.671   8.680 -0.2200  0.7610  1.1632
 4349TIP3    H234683   5.999   4.533   8.619  1.3321  1.3350  0.0716
 4350TIP3   OH234684   0.349   5.817   0.517 -0.2089 -0.2182  0.3603
 4350TIP3    H134685   0.422   5.785   0.465 -0.0446  0.7657 -0.0379
 4350TIP3    H234686   0.274   5.765   0.489  0.4008 -1.5598  1.0998
 4351TIP3   OH234687   5.518   4.565   0.290 -0.0992  0.3798  0.7408
 4351TIP3    H134688   5.446   4.626   0.279 -1.1505 -0.2561  3.3627
 4351TIP3    H234689   5.487   4.484   0.249 -0.7083  0.2548  1.4261
 4352TIP3   OH234690   1.774   4.880   0.449 -0.0541 -0.1715 -0.2513
 4352TIP3    H134691   1.681   4.901   0.458  0.1428  1.0621 -0.8825
 4352TIP3    H234692   1.798   4.914   0.363  0.8909 -0.8629 -0.2817
 4353TIP3   OH234693   0.928   0.182   7.122 -0.0471 -0.2869 -0.4601
 4353TIP3    H134694   0.979   0.219   7.051 -0.6969  0.0510 -0.7598
 4353TIP3    H234695   0.974   0.208   7.202  0.8484 -0.9104 -0.7482
 4354TIP3   OH234696   4.967   4.739   7.796 -0.4657 -0.3086  0.4358
 4354TIP3    H134697   4.981   4.666   7.857 -0.5921 -0.7164 -0.0136
 4354TIP3    H234698   4.968   4.698   7.710 -0.8668  0.1797  0.1957
 4355TIP3   OH234699   3.262   6.385   1.644 -0.2593 -0.1684  0.0732
 4355TIP3    H134700   3.257   6.391   1.739 -0.7084  1.0892 -0.0058
 4355TIP3    H234701   3.310   6.304   1.627  1.3650  0.4633  1.3977
 4356TIP3   OH234702   3.847   1.690   0.214 -0.4987  0.2670  0.1800
 4356TIP3    H134703   3.898   1.610   0.203 -0.0640  0.3713  1.2634
 4356TIP3    H234704   3.768   1.662   0.261 -1.0257  0.2532 -0.6974
 4357TIP3   OH234705   4.048   3.147   0.641 -0.1847  0.3410 -0.0870
 4357TIP3    H134706   4.046   3.210   0.713  0.6589 -0.0396  0.2768
 4357TIP3    H234707   4.049   3.061   0.684  0.3864  0.1087 -0.5545
 4358TIP3   OH234708   1.206   5.426   8.260  0.1190  0.4341 -0.4802
 4358TIP3    H134709   1.203   5.522   8.264  0.1781  0.4055  0.4863
 4358TIP3    H234710   1.153   5.404   8.183 -0.3316  1.2185 -0.4081
 4359TIP3   OH234711   1.234   1.968   1.341 -0.0729  0.2574  0.4970
 4359TIP3    H134712   1.161   1.911   1.368 -0.2552 -0.4403 -1.3150
 4359TIP3    H234713   1.205   2.056   1.365 -1.9625  0.1051 -0.9911
 4360TIP3   OH234714   0.797   0.484   2.831  0.2518 -0.7451  0.8389
 4360TIP3    H134715   0.772   0.467   2.740 -1.1560 -0.6371  1.1766
 4360TIP3    H234716   0.741   0.557   2.857  3.3104  1.8743  0.6472
 4361TIP3   OH234717   6.092   6.056   7.607  0.2161 -0.2694 -0.1334
 4361TIP3    H134718   6.157   5.986   7.608 -0.6421 -1.0860 -0.0253
 4361TIP3    H234719   6.027   6.028   7.542 -0.1319  0.4399 -0.1101
 4362TIP3   OH234720   0.836   4.316   2.878 -0.0090  0.0077  0.2303
 4362TIP3    H134721   0.925   4.313   2.842 -0.3349  1.1527 -0.7139
 4362TIP3    H234722   0.780   4.333   2.803 -0.9686  0.0569  0.9346
 4363TIP3   OH234723   3.313   5.558   2.193  0.0496 -0.4884 -0.2592
 4363TIP3    H134724   3.221   5.583   2.177 -0.5335 -1.2977  1.5934
 4363TIP3    H234725   3.344   5.622   2.257  0.8933 -0.0287 -1.1163
 4364TIP3   OH234726   2.887   4.337   8.705 -0.1476  0.2853 -0.3482
 4364TIP3    H134727   2.918   4.422   8.734 -1.4247  0.9006 -0.7004
 4364TIP3    H234728   2.936   4.320   8.624  0.5923  0.3692  0.0755
 4365TIP3   OH234729   3.511   5.898   7.620  0.6451  0.0792 -0.0961
 4365TIP3    H134730   3.424   5.915   7.584  1.1294  2.2146 -0.3859
 4365TIP3    H234731   3.565   5.970   7.586  1.9493  0.1844  2.0492
 4366TIP3   OH234732   1.246   0.935   0.837 -0.6383  0.5524 -0.1748
 4366TIP3    H134733   1.155   0.904   0.840 -0.4774  0.0455 -0.3725
 4366TIP3    H234734   1.297   0.856   0.818  0.2938 -0.0405  3.9097
 4367TIP3   OH234735   2.791   4.355   2.101  0.2598  0.4396  0.2098
 4367TIP3    H134736   2.862   4.364   2.166 -0.0359 -0.3224  0.6501
 4367TIP3    H234737   2.717   4.320   2.151  0.1925 -0.6799 -0.6397
 4368TIP3   OH234738   0.570   3.399   7.551 -0.2052 -0.3984 -0.0656
 4368TIP3    H134739   0.646   3.420   7.605  0.0632 -0.4968 -0.4009
 4368TIP3    H234740   0.543   3.312   7.581 -0.9675  0.1497  0.9246
 4369TIP3   OH234741   4.844   6.624   0.419  0.5069  0.1956 -0.6019
 4369TIP3    H134742   4.920   6.608   0.475 -0.1783 -0.8290  0.0601
 4369TIP3    H234743   4.831   6.719   0.422 -0.5944  0.0538  2.4550
 4370TIP3   OH234744   1.497   0.004   1.428  0.2446  0.5787  0.0615
 4370TIP3    H134745   1.401   0.009   1.423  0.2226 -0.2768 -0.4976
 4370TIP3    H234746   1.526   0.016   1.338  0.6457  0.4571  0.1744
 4371TIP3   OH234747   6.163   3.043   6.799 -0.0628  0.8288 -0.0950
 4371TIP3    H134748   6.165   2.966   6.742  0.4706  0.6528  0.1532
 4371TIP3    H234749   6.214   3.109   6.751 -0.1202  0.8753 -0.0922
 4372TIP3   OH234750   5.778   3.358   6.953 -0.2814  0.1695  0.3323
 4372TIP3    H134751   5.727   3.291   6.907 -0.7318 -0.9853  2.4088
 4372TIP3    H234752   5.714   3.427   6.971 -0.2723  0.2993 -0.1140
 4373TIP3   OH234753   3.179   6.767   8.005  0.5372 -0.1558 -0.4473
 4373TIP3    H134754   3.112   6.818   8.051 -0.8922 -0.9522 -1.5705
 4373TIP3    H234755   3.254   6.825   7.999 -0.1362  0.8559  0.6275
 4374TIP3   OH234756   1.936   1.941   7.291 -0.8754 -0.6715  0.6380
 4374TIP3    H134757   1.998   1.953   7.363  3.3165  2.0355 -2.9061
 4374TIP3    H234758   1.871   2.010   7.304 -0.1939 -0.2298  1.8889
 4375TIP3   OH234759   4.970   5.556   0.225  0.0186  0.2940  0.0208
 4375TIP3    H134760   4.932   5.642   0.204  1.4120  0.8791 -0.2500
 4375TIP3    H234761   4.925   5.495   0.168 -0.9521  0.8599  0.1649
 4376TIP3   OH234762   3.823   5.439   8.632 -0.4575  0.0228 -0.0072
 4376TIP3    H134763   3.838   5.445   8.537  1.1323 -0.6703  0.1781
 4376TIP3    H234764   3.749   5.498   8.648  0.7609  2.0368 -1.3443
 4377TIP3   OH234765   1.049   5.932   8.593  0.1043 -0.0543  0.1049
 4377TIP3    H134766   1.037   5.921   8.688  0.0975 -1.3991 -0.0310
 4377TIP3    H234767   1.144   5.934   8.581  0.1419  1.9063  0.2868
 4378TIP3   OH234768   6.414   6.435   0.544  0.4263 -0.5424  0.4040
 4378TIP3    H134769   6.451   6.367   0.600  2.2864 -0.4099 -0.5939
 4378TIP3    H234770   6.469   6.512   0.560  1.5590 -0.7304 -2.1367
 4379TIP3   OH234771   3.722   2.032   2.625 -0.0393 -0.0490  0.4512
 4379TIP3    H134772   3.798   1.985   2.590 -1.5851 -2.1361 -0.3360
 4379TIP3    H234773   3.660   2.035   2.552 -1.3821  0.0070  1.5528
 4380TIP3   OH234774   1.672   4.038   1.483  0.4141 -0.0103 -0.0357
 4380TIP3    H134775   1.742   4.079   1.431  0.7431  0.1791  0.5419
 4380TIP3    H234776   1.669   4.090   1.564 -1.0928  0.6170 -0.4676
 4381TIP3   OH234777   1.003   4.301   7.155  0.4660 -0.2291  0.3927
 4381TIP3    H134778   1.093   4.320   7.179  1.0343 -0.3102 -1.4885
 4381TIP3    H234779   0.961   4.387   7.150 -0.1356 -0.2738  3.0753
 4382TIP3   OH234780   2.646   6.333   0.157  0.2526  0.5683 -0.1449
 4382TIP3    H134781   2.692   6.361   0.236  1.9387 -2.1742 -0.0287
 4382TIP3    H234782   2.563   6.382   0.159  0.6667  1.3443  2.7475
 4383TIP3   OH234783   1.743   1.141   1.079 -0.0972  0.3939  0.5410
 4383TIP3    H134784   1.669   1.093   1.042 -1.6595  0.6087  3.1736
 4383TIP3    H234785   1.790   1.174   1.002 -1.3037 -1.7737 -1.2836
 4384TIP3   OH234786   3.131   0.296   6.800 -0.3885  0.3775 -0.4473
 4384TIP3    H134787   3.179   0.253   6.730 -0.2182 -0.0647 -0.0654
 4384TIP3    H234788   3.190   0.293   6.875 -0.2274  1.6139 -0.5075
 4385TIP3   OH234789   2.106   2.749   2.869  0.1129  0.3024  0.4214
 4385TIP3    H134790   2.075   2.694   2.941  0.6177  0.7023  0.9479
 4385TIP3    H234791   2.026   2.786   2.832 -0.1138  0.6148  1.2029
 4386TIP3   OH234792   5.839   5.401   1.554 -0.8464  0.0121  0.2999
 4386TIP3    H134793   5.775   5.472   1.563 -0.1793  0.4759  1.8960
 4386TIP3    H234794   5.795   5.324   1.589 -1.2900 -0.1942 -0.6847
 4387TIP3   OH234795   6.372   6.689   8.945 -0.1698  0.2733 -0.2458
 4387TIP3    H134796   6.367   6.747   9.021 -1.5548 -0.8112  0.5440
 4387TIP3    H234797   6.438   6.729   8.889  1.8003  0.4922  2.0404
 4388TIP3   OH234798   2.542   6.271   8.683  0.4270  0.1478 -0.7827
 4388TIP3    H134799   2.614   6.247   8.625  0.3242 -0.2738 -0.7352
 4388TIP3    H234800   2.579   6.267   8.771  0.6771  1.1178 -0.8314
 4389TIP3   OH234801   4.786   2.629   2.300  0.0576  0.0382  0.2154
 4389TIP3    H134802   4.724   2.565   2.265 -1.7594  1.5379  0.5161
 4389TIP3    H234803   4.853   2.576   2.344 -1.2959 -1.6621  0.3451
 4390TIP3   OH234804   6.065   3.845   1.235 -0.0508  0.5950 -0.1284
 4390TIP3    H134805   6.124   3.917   1.256  0.1025  0.2562  0.6561
 4390TIP3    H234806   6.089   3.776   1.296  0.5296 -0.5306 -1.5622
 4391TIP3   OH234807   1.853   5.442   8.273  0.7461 -0.0344 -0.1406
 4391TIP3    H134808   1.821   5.530   8.258 -0.2638 -0.5641 -1.1742
 4391TIP3    H234809   1.935   5.437   8.223  0.1966 -0.0513 -1.0491
 4392TIP3   OH234810   0.150   2.665   7.515 -0.0526  0.1743  0.0905
 4392TIP3    H134811   0.065   2.653   7.556  0.2191 -1.0069  0.3362
 4392TIP3    H234812   0.171   2.580   7.477 -0.0642  1.0811 -2.1108
 4393TIP3   OH234813   1.547   2.278   0.393 -0.1522 -0.1409  0.0687
 4393TIP3    H134814   1.560   2.210   0.327 -0.5502 -1.2497  1.1156
 4393TIP3    H234815   1.531   2.358   0.342  1.6572 -0.5175 -1.1870
 4394TIP3   OH234816   5.008   2.707   1.840 -0.3868  0.5682 -0.0649
 4394TIP3    H134817   5.046   2.727   1.926  1.0248  0.5782 -0.6614
 4394TIP3    H234818   5.037   2.618   1.821  1.0980  1.2992 -1.4254
 4395TIP3   OH234819   1.368   1.514   7.200  0.4900 -0.7799 -0.1263
 4395TIP3    H134820   1.443   1.513   7.140 -0.3706 -0.3271 -1.2480
 4395TIP3    H234821   1.404   1.547   7.282  1.3632  0.2679 -0.8972
 4396TIP3   OH234822   5.482   0.127   1.632 -0.4082 -0.1688 -0.1772
 4396TIP3    H134823   5.426   0.131   1.710  1.2307  1.1878  0.9880
 4396TIP3    H234824   5.441   0.059   1.577 -1.6552 -1.1251  1.8120
 4397TIP3   OH234825   3.523   1.137   6.975  0.5114  0.0395 -0.5248
 4397TIP3    H134826   3.497   1.048   6.952 -0.2734  0.1515 -0.1028
 4397TIP3    H234827   3.567   1.128   7.060 -1.5813  0.2938  0.6703
 4398TIP3   OH234828   5.837   4.769   1.026 -0.7092  0.1076  0.5319
 4398TIP3    H134829   5.792   4.730   0.951  1.0031 -0.2483 -0.3495
 4398TIP3    H234830   5.872   4.852   0.993  0.7039 -0.4005  0.6772
 4399TIP3   OH234831   2.282   6.609   1.410  0.4648 -0.7347 -0.1043
 4399TIP3    H134832   2.299   6.655   1.492  2.3110  2.0241 -1.8503
 4399TIP3    H234833   2.349   6.540   1.406  1.2324 -0.0224  0.1556
 4400TIP3   OH234834   5.572   3.116   0.072 -0.2253  0.2248 -0.1208
 4400TIP3    H134835   5.630   3.123   0.148 -0.6789  2.1643  0.1034
 4400TIP3    H234836   5.578   3.025   0.045  0.2422 -0.4347  2.0351
 4401TIP3   OH234837   2.821   6.211   8.602 -0.1345  0.4222 -0.1159
 4401TIP3    H134838   2.840   6.135   8.657  2.8605 -0.0993 -1.6341
 4401TIP3    H234839   2.828   6.179   8.513 -0.2950  2.1618 -0.8069
 4402TIP3   OH234840   2.214   1.500   8.686 -0.4213  0.1104  0.0249
 4402TIP3    H134841   2.209   1.559   8.611 -0.7859 -2.1352 -1.8260
 4402TIP3    H234842   2.307   1.497   8.708 -0.4007  1.3693  0.2179
 4403TIP3   OH234843   5.182   5.466   8.281 -0.1079  0.1889  0.1384
 4403TIP3    H134844   5.239   5.390   8.268 -0.4332 -0.0474  0.0645
 4403TIP3    H234845   5.134   5.446   8.361 -0.2232  0.2971  0.0960
 4404TIP3   OH234846   2.832   5.213   0.516  0.0093  0.4232 -0.3949
 4404TIP3    H134847   2.829   5.275   0.589 -0.8936  1.2088 -1.0678
 4404TIP3    H234848   2.755   5.235   0.463  0.9965  0.3330 -1.9367
 4405TIP3   OH234849   3.528   6.451   7.499  0.3381  0.2499 -0.4194
 4405TIP3    H134850   3.586   6.492   7.435  0.0585  3.2858  1.0844
 4405TIP3    H234851   3.475   6.523   7.533 -1.3728 -1.6922  1.3216
 4406TIP3   OH234852   2.313   4.109   2.439  0.1636 -0.3936  0.0203
 4406TIP3    H134853   2.359   4.049   2.497  0.2847  0.6031  0.9856
 4406TIP3    H234854   2.241   4.143   2.493  0.8288  1.2606 -0.0721
 4407TIP3   OH234855   3.537   5.526   8.690  0.1477 -0.0301 -0.0148
 4407TIP3    H134856   3.445   5.506   8.709 -0.8682  2.8767 -1.2645
 4407TIP3    H234857   3.573   5.555   8.774  1.0050 -4.1877  1.2633
 4408TIP3   OH234858   5.749   6.645   8.061 -0.2894 -0.5678  0.3725
 4408TIP3    H134859   5.832   6.618   8.102 -0.7391 -1.6785  0.6006
 4408TIP3    H234860   5.751   6.603   7.975 -0.6038 -0.5726  0.3680
 4409TIP3   OH234861   4.356   2.704   1.245  0.3261 -0.0297 -0.2571
 4409TIP3    H134862   4.316   2.623   1.212 -1.4330  0.9174 -0.5492
 4409TIP3    H234863   4.371   2.687   1.338 -1.0178 -0.3291 -0.0791
 4410TIP3   OH234864   5.391   2.572   0.574 -0.0946  0.0198 -0.0020
 4410TIP3    H134865   5.326   2.501   0.576  0.0022 -0.1379 -1.3530
 4410TIP3    H234866   5.349   2.644   0.622 -1.8948  0.3984 -1.9612
 4411TIP3   OH234867   2.056   2.563   7.700  0.5209  0.0928 -0.6776
 4411TIP3    H134868   2.102   2.515   7.630 -2.0654 -0.9200 -1.8274
 4411TIP3    H234869   2.028   2.644   7.659 -2.5898 -1.2778 -1.5580
 4412TIP3   OH234870   4.674   6.438   8.873  0.1387 -0.2668 -0.1072
 4412TIP3    H134871   4.686   6.413   8.965 -1.0081  1.8616  0.6822
 4412TIP3    H234872   4.753   6.406   8.829  1.5962  0.2555  1.9754
 4413TIP3   OH234873   2.641   0.192   7.786  0.1583 -0.4244  0.2468
 4413TIP3    H134874   2.688   0.123   7.832  0.0168 -2.0548 -1.9302
 4413TIP3    H234875   2.554   0.192   7.826 -0.0372 -1.9706 -0.1036
 4414TIP3   OH234876   0.673   1.321   1.058 -0.2664 -0.7580 -0.0412
 4414TIP3    H134877   0.670   1.392   0.995 -2.7034 -1.4390 -0.8102
 4414TIP3    H234878   0.750   1.270   1.033  0.4829  0.5772 -0.5944
 4415TIP3   OH234879   1.271   5.350   0.421  0.4929 -0.3552 -0.0058
 4415TIP3    H134880   1.258   5.407   0.497 -2.3581 -1.4980  0.5130
 4415TIP3    H234881   1.191   5.297   0.418  2.3207 -3.2710 -1.3469
 4416TIP3   OH234882   6.637   1.974   1.830 -0.1931 -0.2867 -0.2956
 4416TIP3    H134883   6.716   1.946   1.783  1.9361  0.0639  2.7416
 4416TIP3    H234884   6.632   1.914   1.905 -1.6532  0.9791  0.6761
 4417TIP3   OH234885   6.132   6.519   9.003 -0.3424 -0.3696  0.6331
 4417TIP3    H134886   6.156   6.429   9.020  0.9299 -0.4132 -1.1217
 4417TIP3    H234887   6.213   6.561   8.973 -1.3182  0.8225 -0.4991
 4418TIP3   OH234888   0.667   2.845   0.048 -0.4278  0.3193 -0.1340
 4418TIP3    H134889   0.725   2.774   0.021  0.0539  0.3062  0.8830
 4418TIP3    H234890   0.679   2.851   0.143  0.5305  2.5907 -0.3068
 4419TIP3   OH234891   3.209   2.130   0.355  0.3932  0.7317 -0.0030
 4419TIP3    H134892   3.272   2.184   0.402  1.2914  0.9657 -1.4132
 4419TIP3    H234893   3.232   2.141   0.263 -0.0986 -1.1931 -0.4049
 4420TIP3   OH234894   6.065   4.156   2.030 -0.2614 -0.1024  0.1747
 4420TIP3    H134895   5.987   4.148   2.085 -1.0055 -1.8935 -1.0130
 4420TIP3    H234896   6.113   4.074   2.044  1.0768  0.6974  0.3888
 4421TIP3   OH234897   3.931   0.639   1.400  0.0281  0.0065 -0.2064
 4421TIP3    H134898   3.980   0.717   1.376  0.3120  0.0632  0.5151
 4421TIP3    H234899   3.903   0.601   1.317  0.3041  0.6087 -0.5800
 4422TIP3   OH234900   2.266   6.776   7.120  0.5273  0.0693 -0.3212
 4422TIP3    H134901   2.280   6.826   7.040  1.7489  0.9521  0.4137
 4422TIP3    H234902   2.339   6.714   7.123  0.7444  0.3445  0.3244
 4423TIP3   OH234903   1.451   2.667   2.162  0.0119  0.0198  0.3760
 4423TIP3    H134904   1.369   2.710   2.185 -0.0636 -1.4116  3.2378
 4423TIP3    H234905   1.425   2.579   2.134  0.5037  0.1155 -0.4386
 4424TIP3   OH234906   5.396   5.881   0.362  0.3803 -0.3756 -0.0723
 4424TIP3    H134907   5.457   5.939   0.408  1.3981 -2.0036  0.7376
 4424TIP3    H234908   5.450   5.810   0.329 -0.5894 -0.0758 -2.4711
 4425TIP3   OH234909   3.586   1.201   2.848 -0.2228  0.0484  0.5737
 4425TIP3    H134910   3.500   1.171   2.819 -0.5101  0.8954  0.5238
 4425TIP3    H234911   3.638   1.121   2.855 -1.0594 -0.4954  0.7745
 4426TIP3   OH234912   6.632   6.344   7.198  0.1767 -0.3587  0.5122
 4426TIP3    H134913   6.614   6.294   7.118  1.4161  0.0466 -0.0513
 4426TIP3    H234914   6.675   6.423   7.167  1.7014 -0.6962  1.6476
 4427TIP3   OH234915   3.948   3.070   2.140 -0.2361 -0.9404  0.3124
 4427TIP3    H134916   3.966   3.143   2.199  0.0426 -0.7888  0.0440
 4427TIP3    H234917   4.034   3.034   2.118 -0.3648 -1.3065  0.3837
 4428TIP3   OH234918   4.330   5.250   1.733  0.3227  0.0050 -0.1949
 4428TIP3    H134919   4.382   5.308   1.678 -0.0476  0.7773  0.2623
 4428TIP3    H234920   4.372   5.254   1.819 -0.0362  0.0265 -0.0201
 4429TIP3   OH234921   5.808   6.125   7.744  0.1438  0.3611 -0.3572
 4429TIP3    H134922   5.757   6.053   7.781  0.5171 -0.1619 -0.8425
 4429TIP3    H234923   5.761   6.148   7.663  0.0803  0.5999 -0.2536
 4430TIP3   OH234924   2.204   2.913   0.647 -0.0783 -0.6443  0.1407
 4430TIP3    H134925   2.202   2.922   0.743 -0.9582  0.6590  0.0202
 4430TIP3    H234926   2.113   2.922   0.620  0.2812  0.0227 -0.9054
 4431TIP3   OH234927   3.594   0.194   2.087 -0.2897 -0.3978  0.2209
 4431TIP3    H134928   3.584   0.099   2.076  0.7007 -0.4218 -0.5621
 4431TIP3    H234929   3.515   0.230   2.047  0.9840 -0.7424 -2.8780
 4432TIP3   OH234930   6.134   0.528   8.272 -0.3590  0.0270  0.8107
 4432TIP3    H134931   6.152   0.621   8.286 -2.0347  0.3844  0.7102
 4432TIP3    H234932   6.219   0.491   8.250  0.3461  1.5227  0.8831
 4433TIP3   OH234933   1.488   3.008   8.082 -0.3167  0.4072  0.4598
 4433TIP3    H134934   1.544   3.086   8.088  0.3535 -0.1157  1.1773
 4433TIP3    H234935   1.432   3.025   8.006  1.9046  0.2782 -1.3164
 4434TIP3   OH234936   2.495   2.206   1.636 -0.7410 -0.6201 -0.3899
 4434TIP3    H134937   2.586   2.178   1.647 -0.5511  0.2808  0.5099
 4434TIP3    H234938   2.501   2.280   1.576 -1.0691 -1.5178 -1.5577
 4435TIP3   OH234939   4.602   2.869   8.860 -0.4310 -0.0450  0.1537
 4435TIP3    H134940   4.630   2.803   8.924  0.4636  0.1439 -0.0323
 4435TIP3    H234941   4.682   2.895   8.815 -1.2309 -1.4558 -2.3048
 4436TIP3   OH234942   0.815   4.037   2.197 -0.0085  0.0027 -0.1213
 4436TIP3    H134943   0.869   4.088   2.137  0.5099  0.0383  0.3647
 4436TIP3    H234944   0.759   3.985   2.140  1.3259 -0.8989 -0.6781
 4437TIP3   OH234945   3.474   3.130   7.522  0.3146  0.5311 -0.4071
 4437TIP3    H134946   3.432   3.060   7.572  0.3504  0.5497 -0.3509
 4437TIP3    H234947   3.534   3.085   7.462  0.1304  0.4977 -0.5687
 4438TIP3   OH234948   0.683   2.901   1.602 -0.3572 -0.3062  0.4531
 4438TIP3    H134949   0.697   2.814   1.641  0.8931 -0.7870 -0.9757
 4438TIP3    H234950   0.771   2.939   1.596 -0.6425  0.2064 -0.8194
 4439TIP3   OH234951   0.915   3.912   1.337 -0.0593 -0.1684 -0.6512
 4439TIP3    H134952   0.964   3.842   1.295 -0.3624 -1.1077  0.4897
 4439TIP3    H234953   0.976   3.948   1.402 -0.3442 -0.3064 -0.3003
 4440TIP3   OH234954   4.058   1.381   8.051  0.6642  0.5127  0.2275
 4440TIP3    H134955   4.102   1.451   8.004  1.3822 -0.7428 -1.0175
 4440TIP3    H234956   4.112   1.304   8.037 -0.9092 -0.6539  0.2581
 4441TIP3   OH234957   3.941   5.134   8.530  0.7154 -0.0955  0.1974
 4441TIP3    H134958   3.979   5.221   8.540 -0.5013  0.3224  1.4945
 4441TIP3    H234959   4.016   5.076   8.517  1.7747  0.7565  2.1306
 4442TIP3   OH234960   2.202   5.081   0.036 -0.0431 -0.1148 -0.7137
 4442TIP3    H134961   2.108   5.087   0.018 -0.2655  0.2645  0.4833
 4442TIP3    H234962   2.212   4.996   0.079 -0.0789  0.4283  0.4088
 4443TIP3   OH234963   0.437   6.469   2.192 -0.7245 -0.2357 -0.2298
 4443TIP3    H134964   0.483   6.477   2.276  0.4384 -1.3750 -0.7307
 4443TIP3    H234965   0.503   6.490   2.126 -2.0584  2.4660 -0.8781
 4444TIP3   OH234966   1.883   1.101   0.130  0.1586  0.3995  0.3824
 4444TIP3    H134967   1.908   1.186   0.165 -0.0924  0.4667  0.4059
 4444TIP3    H234968   1.952   1.042   0.157 -0.2513  0.3614  1.3831
 4445TIP3   OH234969   3.048   3.768   7.417 -0.0102  0.1832  0.5298
 4445TIP3    H134970   3.023   3.833   7.350 -1.4251  0.1472  0.9962
 4445TIP3    H234971   2.968   3.753   7.467  0.2802 -1.9435  0.4316
 4446TIP3   OH234972   4.356   2.284   1.623 -0.5448 -0.1830 -0.4166
 4446TIP3    H134973   4.260   2.284   1.622 -0.5790 -0.4692  0.8276
 4446TIP3    H234974   4.379   2.196   1.655  0.1247 -0.0485 -0.5134
 4447TIP3   OH234975   6.161   3.447   1.109 -0.4903  0.2510 -0.4325
 4447TIP3    H134976   6.159   3.381   1.039  1.0630 -0.0209 -0.2402
 4447TIP3    H234977   6.187   3.528   1.065 -0.9328  0.4133 -0.4052
 4448TIP3   OH234978   5.740   1.157   0.975  0.0878  0.0923  0.1332
 4448TIP3    H134979   5.719   1.068   1.005 -2.5550  0.3960 -0.5429
 4448TIP3    H234980   5.701   1.214   1.042  1.8892  0.7941  0.6413
 4449TIP3   OH234981   1.438   4.444   0.092  0.3313 -0.0931 -0.1511
 4449TIP3    H134982   1.364   4.383   0.085  1.0170 -0.8450 -1.1510
 4449TIP3    H234983   1.494   4.422   0.017  2.7555 -1.1482  1.8217
 4450TIP3   OH234984   0.965   1.863   7.306 -0.7367  0.2259 -0.9036
 4450TIP3    H134985   0.946   1.847   7.213  2.0703  0.5731 -1.6248
 4450TIP3    H234986   0.977   1.958   7.311  1.8539 -0.0400 -0.8456
 4451TIP3   OH234987   3.902   4.757   8.281 -0.7572  0.2712  0.7081
 4451TIP3    H134988   3.852   4.714   8.351  1.3522 -0.7673  1.6761
 4451TIP3    H234989   3.993   4.752   8.311  0.1196  0.6557 -1.6891
 4452TIP3   OH234990   0.640   1.444   8.133 -0.2033  0.0172 -0.2322
 4452TIP3    H134991   0.688   1.451   8.050  0.7247 -2.2719  0.0383
 4452TIP3    H234992   0.564   1.500   8.121  0.9788  1.3899 -1.8311
 4453TIP3   OH234993   3.051   3.189   8.861 -0.2278 -0.5031 -0.0613
 4453TIP3    H134994   3.124   3.132   8.883 -0.6085 -1.2942 -0.8096
 4453TIP3    H234995   3.060   3.205   8.767 -1.2534 -0.9842 -0.2563
 4454TIP3   OH234996   0.884   6.654   8.306  0.6698 -0.1278 -0.1137
 4454TIP3    H134997   0.894   6.595   8.231  1.0680 -0.1821 -0.0162
 4454TIP3    H234998   0.817   6.612   8.360  1.6093 -0.9842  0.4227
 4455TIP3   OH234999   0.310   6.037   0.693 -0.4528 -0.4749  0.0454
 4455TIP3    H135000   0.376   6.039   0.763  0.1470  2.8050 -0.4875
 4455TIP3    H235001   0.344   5.974   0.630  0.9032 -0.6900  0.9429
 4456TIP3   OH235002   3.257   4.234   8.302 -0.5332 -0.8149  0.0138
 4456TIP3    H135003   3.289   4.316   8.264  0.9137 -1.0872  0.5855
 4456TIP3    H235004   3.279   4.167   8.237 -0.5979 -0.9058  0.0858
 4457TIP3   OH235005   5.786   0.061   1.871 -0.2614  0.3908  0.1995
 4457TIP3    H135006   5.784  -0.028   1.836  1.6301 -0.3702  1.8318
 4457TIP3    H235007   5.849   0.107   1.816  0.5902 -0.0008  0.8259
 4458TIP3   OH235008   6.665   0.009   0.251  0.1680 -0.1209 -0.0255
 4458TIP3    H135009   6.610  -0.069   0.251  0.4689 -0.4016 -2.0426
 4458TIP3    H235010   6.739  -0.014   0.308 -1.7301  0.3049  2.8000
 4459TIP3   OH235011   2.866   0.387   1.916  0.8559  0.2028 -0.4866
 4459TIP3    H135012   2.857   0.480   1.900 -0.3745 -0.2528 -2.7741
 4459TIP3    H235013   2.864   0.379   2.011  2.7799  2.6275 -0.1395
 4460TIP3   OH235014   0.161   6.175   0.374 -0.2500 -0.5765 -0.9441
 4460TIP3    H135015   0.181   6.250   0.318 -1.5286 -0.7715 -1.6982
 4460TIP3    H235016   0.193   6.200   0.461  0.7577  0.1808 -1.5155
 4461TIP3   OH235017   4.782   6.544   0.982  0.1062  0.9362 -0.0271
 4461TIP3    H135018   4.794   6.615   1.046  1.6329  0.9997 -0.3374
 4461TIP3    H235019   4.833   6.471   1.018  0.6010  0.8257 -0.9416
 4462TIP3   OH235020   6.776   6.179   1.759  0.0635  0.2145 -0.2027
 4462TIP3    H135021   6.766   6.169   1.664 -0.3374 -1.2971 -0.0280
 4462TIP3    H235022   6.790   6.090   1.791  0.2637  0.7124  1.1619
 4463TIP3   OH235023   3.327   3.519   1.741 -0.3904 -0.0721 -0.9642
 4463TIP3    H135024   3.297   3.481   1.823  2.0438 -0.0422  0.0195
 4463TIP3    H235025   3.328   3.445   1.679  0.1858 -0.6776 -0.2507
 4464TIP3   OH235026   5.503   2.171   8.348 -0.2914 -0.1623 -0.0009
 4464TIP3    H135027   5.561   2.097   8.361 -0.0889  0.1621  1.0023
 4464TIP3    H235028   5.537   2.215   8.270  1.4387  0.5915  1.1205
 4465TIP3   OH235029   5.510   0.177   0.952 -0.2282  0.6519  0.4864
 4465TIP3    H135030   5.576   0.227   0.999 -0.1618  3.2208 -2.0648
 4465TIP3    H235031   5.546   0.166   0.864 -3.3204  2.6915 -1.2160
 4466TIP3   OH235032   1.561   4.633   7.625  0.0990 -0.3556 -0.1362
 4466TIP3    H135033   1.561   4.685   7.705  1.3174  1.8003 -1.4497
 4466TIP3    H235034   1.644   4.584   7.629  0.1408 -0.2801 -0.0613
 4467TIP3   OH235035   2.218   0.339   1.537  0.5889  0.5059  0.3469
 4467TIP3    H135036   2.297   0.286   1.539  0.4897  0.3023 -0.6195
 4467TIP3    H235037   2.159   0.296   1.599  0.9534  0.2072  0.4929
 4468TIP3   OH235038   4.118   2.824   7.861  0.1568  0.4340  0.1918
 4468TIP3    H135039   4.065   2.854   7.787 -0.6059 -1.4502 -0.0834
 4468TIP3    H235040   4.156   2.741   7.831  0.4029 -0.0047  1.6548
 4469TIP3   OH235041   0.860   2.688   2.248  0.3096 -0.3807  0.2932
 4469TIP3    H135042   0.877   2.656   2.160  2.6006  1.0714  0.1103
 4469TIP3    H235043   0.771   2.723   2.245  0.5803  0.2304 -1.6539
 4470TIP3   OH235044   2.243   2.673   7.232 -0.1707 -0.2222 -0.1300
 4470TIP3    H135045   2.325   2.645   7.190  1.1566  2.2884  0.5894
 4470TIP3    H235046   2.199   2.724   7.164  0.2298  0.7714  0.3408
 4471TIP3   OH235047   2.439   2.651   8.708  0.2060 -0.2536  0.7052
 4471TIP3    H135048   2.532   2.663   8.728  0.4155 -0.5593 -0.0384
 4471TIP3    H235049   2.416   2.727   8.655  0.7048 -1.4070 -1.2685
 4472TIP3   OH235050   0.184   0.359   0.678  0.4650 -0.2488 -0.0655
 4472TIP3    H135051   0.148   0.281   0.720 -0.1805  0.3753  0.5842
 4472TIP3    H235052   0.205   0.418   0.751  1.1331  0.1015 -0.5365
 4473TIP3   OH235053   4.948   3.322   1.667 -0.7298  0.1454 -0.3186
 4473TIP3    H135054   4.956   3.413   1.639 -1.1000  0.0479 -0.7633
 4473TIP3    H235055   4.858   3.316   1.700  0.1703  0.6836  2.5074
 4474TIP3   OH235056   0.388   3.723   7.617 -0.1270 -0.4211  0.5621
 4474TIP3    H135057   0.355   3.677   7.540 -1.8290 -0.8592  1.5086
 4474TIP3    H235058   0.329   3.797   7.629  1.3355  0.8458  0.2951
 4475TIP3   OH235059   1.193   3.619   0.647 -0.5220 -0.0805  1.0378
 4475TIP3    H135060   1.137   3.665   0.709  0.1714 -1.3627  2.6815
 4475TIP3    H235061   1.282   3.641   0.673 -0.1932  0.7755 -0.6502
 4476TIP3   OH235062   3.188   0.732   2.058  0.8777 -0.0156  0.3073
 4476TIP3    H135063   3.238   0.813   2.064  0.5399  0.1684  0.6498
 4476TIP3    H235064   3.111   0.746   2.113  0.3275 -0.2085 -0.3863
 4477TIP3   OH235065   6.417   5.217   7.619  0.1199  0.5513 -0.4976
 4477TIP3    H135066   6.444   5.305   7.590 -1.7154  1.5826  0.7230
 4477TIP3    H235067   6.427   5.220   7.714  1.1584 -1.0011 -0.5341
 4478TIP3   OH235068   2.940   4.440   2.320 -0.3712  0.0659  0.0222
 4478TIP3    H135069   2.901   4.527   2.325 -0.5665  0.0346 -0.8545
 4478TIP3    H235070   3.033   4.455   2.334 -0.5165  0.2967  0.7995
 4479TIP3   OH235071   0.044   3.473   7.302 -0.2485 -0.3695  0.0134
 4479TIP3    H135072   0.128   3.427   7.300 -0.8506 -1.5067 -1.0978
 4479TIP3    H235073   0.007   3.457   7.215 -1.2563  0.8027  0.2085
 4480TIP3   OH235074   6.235   5.071   0.996  0.1656 -0.2900 -0.0723
 4480TIP3    H135075   6.308   5.129   0.973  0.9710 -0.8885  0.8622
 4480TIP3    H235076   6.276   4.985   1.006 -1.3340 -1.6341 -3.7314
 4481TIP3   OH235077   1.522   0.666   7.564  0.5194  0.3952 -0.0543
 4481TIP3    H135078   1.523   0.693   7.472  0.0143  1.2066  0.1724
 4481TIP3    H235079   1.474   0.583   7.564  0.8534  0.1963 -0.5670
 4482TIP3   OH235080   3.196   4.330   7.856 -0.1621 -0.0565  0.0984
 4482TIP3    H135081   3.219   4.376   7.775 -1.3767  0.5505  0.0715
 4482TIP3    H235082   3.186   4.238   7.830  1.3147 -0.1908 -0.0456
 4483TIP3   OH235083   1.943   0.858   0.981 -0.2141 -0.4468  0.3495
 4483TIP3    H135084   1.850   0.879   0.976 -0.1508  0.6065  2.4204
 4483TIP3    H235085   1.946   0.763   0.992 -0.9612 -0.6280 -0.8849
 4484TIP3   OH235086   2.771   2.183   1.624 -0.3894  0.2731  0.4962
 4484TIP3    H135087   2.809   2.271   1.622 -1.4075  0.7954  2.0060
 4484TIP3    H235088   2.840   2.128   1.663 -0.2553  0.6822  0.8420
 4485TIP3   OH235089   2.881   0.623   8.173 -0.1425  0.2406 -0.0066
 4485TIP3    H135090   2.917   0.628   8.261  0.4126 -1.5332 -0.0890
 4485TIP3    H235091   2.787   0.611   8.185 -0.4087  2.2821  0.2629
 4486TIP3   OH235092   0.065   0.377   1.155  0.0116  0.4760 -0.4166
 4486TIP3    H135093   0.158   0.381   1.179  0.4847 -1.8202 -1.5554
 4486TIP3    H235094   0.020   0.420   1.228  1.9735  2.3628 -0.1928
 4487TIP3   OH235095   6.282   2.860   8.640  0.2220  0.6240  0.6943
 4487TIP3    H135096   6.243   2.921   8.577 -2.0117  0.7220  2.0699
 4487TIP3    H235097   6.284   2.776   8.594 -0.5459  0.8862  0.1632
 4488TIP3   OH235098   2.934   5.079   1.728 -0.4568 -0.2741  0.2244
 4488TIP3    H135099   2.925   5.167   1.693  0.7405  0.2252  1.0843
 4488TIP3    H235100   2.885   5.023   1.668  1.7189  0.4819 -2.4275
 4489TIP3   OH235101   0.454   0.960   8.646  0.1311 -0.0537  0.3117
 4489TIP3    H135102   0.532   1.012   8.666  0.5476 -0.7985  0.7073
 4489TIP3    H235103   0.427   0.988   8.559  0.5023  0.6287  0.4160
 4490TIP3   OH235104   2.277   5.285   0.320 -0.4403 -0.4380  0.1390
 4490TIP3    H135105   2.286   5.379   0.335  3.1421 -0.5771 -0.3363
 4490TIP3    H235106   2.224   5.279   0.240 -1.4829  1.0709  0.6579
 4491TIP3   OH235107   4.809   5.712   1.764 -0.1266  0.0490  0.7462
 4491TIP3    H135108   4.766   5.751   1.841  0.7559 -0.7645  1.6866
 4491TIP3    H235109   4.872   5.650   1.801  0.5410 -0.1377 -0.6440
 4492TIP3   OH235110   5.868   3.260   7.378 -0.2234 -0.4757  0.1886
 4492TIP3    H135111   5.796   3.214   7.335  0.8358  0.3273 -2.6515
 4492TIP3    H235112   5.877   3.341   7.329  2.3328 -0.3559  0.7236
 4493TIP3   OH235113   3.676   2.607   2.074 -0.6978  0.4857 -0.1874
 4493TIP3    H135114   3.690   2.514   2.094  1.9270  1.2860  2.5217
 4493TIP3    H235115   3.715   2.619   1.988  0.5339 -0.6321  0.1784
 4494TIP3   OH235116   1.561   0.567   2.043  0.0800 -0.4418 -0.4646
 4494TIP3    H135117   1.533   0.485   2.084  0.3877  1.1759  3.4025
 4494TIP3    H235118   1.481   0.620   2.039  0.6269  0.5944  1.2800
 4495TIP3   OH235119   4.167   6.148   0.504 -0.4689 -0.0306 -0.5685
 4495TIP3    H135120   4.225   6.222   0.519 -2.5765  1.4512  1.0041
 4495TIP3    H235121   4.199   6.079   0.562  0.7293  0.0865 -1.0657
 4496TIP3   OH235122   1.009   1.061   8.264 -0.1208 -0.6934  0.0115
 4496TIP3    H135123   0.952   1.069   8.187  0.2044  0.2747 -0.1359
 4496TIP3    H235124   1.075   1.128   8.252 -0.5175  0.0105  1.5410
 4497TIP3   OH235125   5.205   5.974   8.183 -0.0179  0.4808  0.7758
 4497TIP3    H135126   5.242   5.896   8.143  1.1720  0.0472  2.5892
 4497TIP3    H235127   5.259   5.990   8.261 -1.4679  1.9384  1.5732
 4498TIP3   OH235128   5.867   4.342   8.909 -0.2372  0.0554 -0.0640
 4498TIP3    H135129   5.891   4.409   8.844  2.7847  0.9644  1.8078
 4498TIP3    H235130   5.825   4.391   8.980 -0.4205 -0.4473  0.1814
 4499TIP3   OH235131   3.946   0.644   8.499 -0.2725  0.0124 -0.4865
 4499TIP3    H135132   3.906   0.581   8.440  1.2729 -0.9317 -0.5945
 4499TIP3    H235133   4.039   0.621   8.499  0.3511  2.2899 -0.5081
 4500TIP3   OH235134   2.369   3.200   0.826 -0.2674 -0.8283  0.1359
 4500TIP3    H135135   2.286   3.243   0.805  0.6396  0.4688 -1.0043
 4500TIP3    H235136   2.435   3.270   0.820  0.7186 -1.3630  2.9305
 4501TIP3   OH235137   3.679   3.304   7.540  0.3505  0.0245 -0.6859
 4501TIP3    H135138   3.600   3.252   7.536  0.6229 -0.3269 -1.6506
 4501TIP3    H235139   3.715   3.302   7.452  1.8991 -0.5563 -0.0883
 4502TIP3   OH235140   5.336   5.693   7.080 -0.3779 -0.0908  0.1592
 4502TIP3    H135141   5.250   5.679   7.042 -0.1068 -1.4927  0.0314
 4502TIP3    H235142   5.340   5.634   7.155  0.5949 -0.2836 -0.0268
 4503TIP3   OH235143   5.319   3.157   0.581  0.5017 -0.0881  0.0122
 4503TIP3    H135144   5.379   3.087   0.555  0.5865  0.2782 -0.8207
 4503TIP3    H235145   5.307   3.209   0.501 -2.8778 -1.5300 -0.6154
 4504TIP3   OH235146   1.425   0.531   6.594  0.4576 -0.0053  0.0398
 4504TIP3    H135147   1.520   0.526   6.584  0.5396  1.4513 -0.1259
 4504TIP3    H235148   1.406   0.625   6.597 -0.9833 -0.2740  0.0531
 4505TIP3   OH235149   6.248   3.273   8.272 -0.2687  0.1917  0.0074
 4505TIP3    H135150   6.193   3.211   8.224 -0.0341 -0.8013  0.9846
 4505TIP3    H235151   6.189   3.315   8.335 -0.3837  0.8286 -0.5139
 4506TIP3   OH235152   2.210   5.764   7.587  0.0833 -0.7383 -0.0046
 4506TIP3    H135153   2.233   5.683   7.541  3.4133 -0.2030  0.4482
 4506TIP3    H235154   2.227   5.744   7.679 -0.0924  0.1337  0.2210
 4507TIP3   OH235155   0.236   5.862   1.157 -0.1951  0.3491  0.3236
 4507TIP3    H135156   0.326   5.838   1.133 -0.1891 -0.2604  0.9330
 4507TIP3    H235157   0.182   5.792   1.123 -0.5273  1.0124 -0.5705
 4508TIP3   OH235158   5.795   1.824   0.313 -0.0736  0.1619 -0.1244
 4508TIP3    H135159   5.702   1.833   0.333  0.0717  0.4468  0.4316
 4508TIP3    H235160   5.827   1.760   0.377  0.1743  0.2747 -0.1358
 4509TIP3   OH235161   5.206   0.995   1.688  0.1495  0.3979 -0.3897
 4509TIP3    H135162   5.239   1.025   1.604  1.1434  1.1771  0.2531
 4509TIP3    H235163   5.130   0.942   1.667  1.5241 -1.0860 -1.9199
 4510TIP3   OH235164   0.569   2.759   0.852 -0.2728 -0.5758 -0.6044
 4510TIP3    H135165   0.504   2.775   0.785  1.2896  1.1757 -1.7914
 4510TIP3    H235166   0.653   2.761   0.806  0.8019 -0.2567  1.2455
 4511TIP3   OH235167   4.883   5.663   8.237  0.1308 -0.5104  0.4306
 4511TIP3    H135168   4.894   5.584   8.290  0.3420 -0.0398  1.1125
 4511TIP3    H235169   4.808   5.708   8.276  0.8614  0.3041  0.9441
 4512TIP3   OH235170   4.534   3.103   1.230  0.8820  0.0004  0.6976
 4512TIP3    H135171   4.503   3.104   1.321  0.3419  0.2231  0.5170
 4512TIP3    H235172   4.486   3.174   1.188 -0.9769 -1.7946 -0.4457
 4513TIP3   OH235173   5.207   6.530   2.270 -0.0154  0.7064 -0.0416
 4513TIP3    H135174   5.193   6.443   2.234 -0.4939  0.3019  1.0669
 4513TIP3    H235175   5.300   6.530   2.295 -0.3853 -0.0997  1.4524
 4514TIP3   OH235176   6.134   2.433   7.774  0.0003 -0.0205 -0.1482
 4514TIP3    H135177   6.112   2.505   7.715  1.7311  0.4483 -0.2679
 4514TIP3    H235178   6.101   2.355   7.730 -0.1296  0.4833 -0.9741
 4515TIP3   OH235179   0.643   6.057   0.193  0.5132  0.9183 -0.2429
 4515TIP3    H135180   0.703   6.096   0.130  0.9928  2.8627  1.3034
 4515TIP3    H235181   0.556   6.089   0.168  0.0560 -1.6280 -2.2804
 4516TIP3   OH235182   3.189   4.365   6.948  0.3444  0.0168 -0.4179
 4516TIP3    H135183   3.127   4.384   7.018 -1.5972  0.3989 -2.1333
 4516TIP3    H235184   3.211   4.450   6.911  1.2112 -0.1903 -0.4089
 4517TIP3   OH235185   3.937   1.386   8.482  0.0301 -0.6375 -0.2621
 4517TIP3    H135186   3.917   1.295   8.462 -0.1427 -1.2983  2.4261
 4517TIP3    H235187   4.031   1.394   8.464  0.1410 -1.5006 -0.1349
 4518TIP3   OH235188   0.798   3.658   2.184 -0.5932  0.0878 -1.0345
 4518TIP3    H135189   0.893   3.655   2.170 -0.2425  0.4323  0.9033
 4518TIP3    H235190   0.787   3.713   2.261 -2.3472 -0.2858 -0.9686
 4519TIP3   OH235191   2.727   1.619   2.931  0.2031  0.4888 -0.4508
 4519TIP3    H135192   2.813   1.628   2.891  0.1074 -2.2045 -1.4197
 4519TIP3    H235193   2.673   1.577   2.864 -1.6231  1.2154  0.4856
 4520TIP3   OH235194   3.351   0.042   0.390  0.6720  0.1182  0.8709
 4520TIP3    H135195   3.332   0.062   0.481  0.2932 -0.3940  0.9038
 4520TIP3    H235196   3.342   0.126   0.345 -1.4571 -0.0358  0.9208
 4521TIP3   OH235197   3.945   3.762   2.513  0.3068  0.1170  0.1971
 4521TIP3    H135198   3.862   3.809   2.520 -0.5812 -1.4974  1.1787
 4521TIP3    H235199   3.921   3.673   2.488  1.6492 -0.5854  1.2106
 4522TIP3   OH235200   0.693   1.019   0.769  0.0889  0.4359 -0.4825
 4522TIP3    H135201   0.695   1.085   0.700 -1.0292  0.1122 -0.8538
 4522TIP3    H235202   0.675   0.937   0.722  2.0760 -0.2583 -0.1029
 4523TIP3   OH235203   6.609   5.348   8.771  0.2624  0.2932  0.6254
 4523TIP3    H135204   6.673   5.419   8.781 -0.6785  1.0419  1.6191
 4523TIP3    H235205   6.550   5.359   8.846 -1.3671 -0.0115 -0.5665
 4524TIP3   OH235206   0.886   4.133   0.532  0.7370 -0.1361 -0.2662
 4524TIP3    H135207   0.792   4.128   0.517  0.8803 -1.6389 -0.8096
 4524TIP3    H235208   0.896   4.192   0.607 -0.7242 -1.0041  0.6551
 4525TIP3   OH235209   0.986   2.597   1.120  0.0219 -0.0440 -0.5957
 4525TIP3    H135210   0.993   2.689   1.096  1.0485  0.3965  1.1679
 4525TIP3    H235211   1.055   2.554   1.070 -0.6183  0.0708 -1.6113
 4526TIP3   OH235212   6.203   0.000   7.945 -0.9374  0.4090  0.3734
 4526TIP3    H135213   6.151  -0.031   7.871 -0.7254  0.1676  0.3265
 4526TIP3    H235214   6.142   0.053   7.996 -0.5693  2.3971 -1.1088
 4527TIP3   OH235215   6.769   1.876   2.289  0.9130 -0.2810 -0.4290
 4527TIP3    H135216   6.676   1.898   2.288  0.3048 -2.5788 -1.8492
 4527TIP3    H235217   6.814   1.958   2.269 -0.8781  0.5810 -1.1114
 4528TIP3   OH235218   6.165   3.641   8.561 -0.1514  0.9007 -0.9679
 4528TIP3    H135219   6.073   3.662   8.570  0.0931  1.0643  3.6614
 4528TIP3    H235220   6.170   3.547   8.582  0.6586  0.7012 -1.9893
 4529TIP3   OH235221   2.349   4.489   8.084  0.4650  0.6586 -0.1249
 4529TIP3    H135222   2.287   4.492   8.011  0.1462  2.3749  0.1833
 4529TIP3    H235223   2.370   4.581   8.102  0.9715  0.2452  1.5940
 4530TIP3   OH235224   5.817   0.384   7.652  0.3208  0.2353  0.3535
 4530TIP3    H135225   5.807   0.479   7.647  0.0199  0.2309  0.7697
 4530TIP3    H235226   5.744   0.350   7.600 -0.3920  0.2264  1.3281
 4531TIP3   OH235227   5.809   4.346   8.427 -0.2454  0.2796  0.0253
 4531TIP3    H135228   5.837   4.254   8.429 -0.0292  0.3266 -0.5019
 4531TIP3    H235229   5.890   4.396   8.439 -0.3414  0.4017  0.1662
 4532TIP3   OH235230   1.829   2.455   0.497  0.2983  0.1370  0.4272
 4532TIP3    H135231   1.872   2.401   0.430 -1.2843 -0.5264 -0.1062
 4532TIP3    H235232   1.868   2.426   0.580  0.6871 -0.6412 -0.0183
 4533TIP3   OH235233   3.717   6.729   2.738  0.1299 -0.1209 -0.2857
 4533TIP3    H135234   3.667   6.748   2.658  0.9951 -1.2422 -1.1284
 4533TIP3    H235235   3.761   6.812   2.758 -0.8374  0.4402 -0.4127
 4534TIP3   OH235236   0.228   5.585   0.988  0.3920 -0.0390 -0.4882
 4534TIP3    H135237   0.199   5.544   1.070  0.9031  0.0640 -0.2506
 4534TIP3    H235238   0.204   5.521   0.920  1.6683 -1.0037 -0.0755
 4535TIP3   OH235239   5.495   2.551   8.901  0.6033 -0.2579 -0.1173
 4535TIP3    H135240   5.566   2.511   8.849  2.7732  2.5852  0.3948
 4535TIP3    H235241   5.429   2.575   8.836 -0.3959 -3.6508 -0.5261
 4536TIP3   OH235242   0.767   3.700   0.820  0.0446  0.1016  0.5821
 4536TIP3    H135243   0.683   3.727   0.783 -0.5948 -0.8197  1.3103
 4536TIP3    H235244   0.827   3.772   0.799 -1.1209  1.1739  0.7839
 4537TIP3   OH235245   3.850   4.687   2.065 -0.2795  0.2898  0.0264
 4537TIP3    H135246   3.857   4.637   1.984  0.9013  1.7728 -0.8420
 4537TIP3    H235247   3.904   4.639   2.127  0.4590  0.2286 -0.6487
 4538TIP3   OH235248   0.648   1.468   7.015  0.2792  0.2586 -0.3670
 4538TIP3    H135249   0.606   1.383   7.004 -1.1115  0.6793  1.3816
 4538TIP3    H235250   0.627   1.515   6.934  1.2565 -1.0952 -1.4499
 4539TIP3   OH235251   2.390   6.610   6.685 -0.1164 -0.5687  0.1915
 4539TIP3    H135252   2.321   6.582   6.747 -0.5771  0.9344  0.3935
 4539TIP3    H235253   2.375   6.556   6.607 -2.1494  0.3704 -0.1239
 4540TIP3   OH235254   4.538   0.119   7.052 -0.0013  0.0142  0.3257
 4540TIP3    H135255   4.459   0.163   7.020  0.9828  0.1657 -2.1548
 4540TIP3    H235256   4.555   0.052   6.986  0.8589 -1.3344  1.8664
 4541TIP3   OH235257   5.415   1.286   7.695  0.6495 -0.1913 -0.2457
 4541TIP3    H135258   5.449   1.375   7.708 -1.4629  0.5778  0.3034
 4541TIP3    H235259   5.490   1.229   7.714  1.7572  1.4274  0.4703
 4542TIP3   OH235260   2.742   1.755   3.172  0.1778  0.6274  0.0074
 4542TIP3    H135261   2.836   1.757   3.151  0.1107  1.0443 -0.2604
 4542TIP3    H235262   2.707   1.689   3.112  0.2841  0.5433  0.0366
 4543TIP3   OH235263   2.463   1.873   1.541 -0.5323 -0.4212 -0.6620
 4543TIP3    H135264   2.393   1.937   1.559  0.2784  0.6111 -1.0772
 4543TIP3    H235265   2.481   1.834   1.627  1.3051  2.3875  0.3893
 4544TIP3   OH235266   3.943   4.697   7.954  0.3855 -0.2035  0.1367
 4544TIP3    H135267   4.025   4.713   7.999 -0.3219 -1.0318  1.7963
 4544TIP3    H235268   3.877   4.694   8.023 -1.0304  0.2773 -1.1263
 4545TIP3   OH235269   5.189   1.126   8.874  0.0768  0.5882 -0.2512
 4545TIP3    H135270   5.210   1.204   8.925 -1.8232 -0.3571  2.1694
 4545TIP3    H235271   5.098   1.139   8.847 -0.2905 -0.7858  0.2522
 4546TIP3   OH235272   4.866   0.602   7.988  0.6432  0.3050 -0.5730
 4546TIP3    H135273   4.887   0.633   7.900 -1.5581 -0.8269 -1.5725
 4546TIP3    H235274   4.948   0.612   8.037  1.8771  1.1642 -2.6728
 4547TIP3   OH235275   6.271   3.462   1.366 -0.0832 -0.0590 -0.1331
 4547TIP3    H135276   6.264   3.452   1.272 -0.1958 -0.6463 -0.0662
 4547TIP3    H235277   6.249   3.553   1.383  0.8089  0.2809 -0.7611
 4548TIP3   OH235278   1.219   3.306   7.856 -0.1891 -0.3717  0.4718
 4548TIP3    H135279   1.162   3.231   7.840 -1.0614 -0.0024  1.7039
 4548TIP3    H235280   1.249   3.333   7.769 -1.1191 -1.1733 -0.1135
 4549TIP3   OH235281   3.665   0.868   8.906 -0.1640 -0.6331  0.3050
 4549TIP3    H135282   3.616   0.820   8.839 -1.6890  3.1902 -1.5923
 4549TIP3    H235283   3.601   0.882   8.976 -0.8890  1.5069 -0.7131
 4550TIP3   OH235284   0.331   2.169   1.180  0.3697 -0.4078  0.3905
 4550TIP3    H135285   0.277   2.230   1.129  1.8039 -1.3986 -2.5250
 4550TIP3    H235286   0.398   2.140   1.118  1.1338 -3.1490  2.3691
 4551TIP3   OH235287   3.130   2.068   0.991  0.1566 -0.1216  0.6378
 4551TIP3    H135288   3.116   1.974   1.003  0.8542 -0.2094  0.7874
 4551TIP3    H235289   3.190   2.074   0.917  0.2445  0.1978  0.7327
 4552TIP3   OH235290   0.981   0.726   8.855  0.2978 -0.1635 -0.0673
 4552TIP3    H135291   0.898   0.678   8.853  0.5459 -0.6001 -2.3441
 4552TIP3    H235292   1.012   0.725   8.765  3.1298 -0.5689  0.8101
 4553TIP3   OH235293   6.323   2.598   8.179 -0.1310  0.3864 -0.1438
 4553TIP3    H135294   6.303   2.589   8.086 -0.7490  1.9753 -0.2040
 4553TIP3    H235295   6.400   2.654   8.182  1.6642 -1.9781  0.2529
 4554TIP3   OH235296   4.832   5.367   7.761 -0.1451  0.0149 -0.5572
 4554TIP3    H135297   4.807   5.444   7.812  0.1026  0.2005 -0.7130
 4554TIP3    H235298   4.917   5.389   7.723  0.1847 -0.5486 -0.1642
 4555TIP3   OH235299   5.803   5.317   6.998 -0.3910  0.3906 -0.3514
 4555TIP3    H135300   5.762   5.243   7.042 -0.5286  0.8101  0.2491
 4555TIP3    H235301   5.889   5.286   6.973  1.0093  1.0390  3.0768
 4556TIP3   OH235302   2.894   5.611   7.888  0.0498  0.0346  0.2630
 4556TIP3    H135303   2.850   5.642   7.968 -1.9059  0.3539 -0.8800
 4556TIP3    H235304   2.986   5.633   7.902 -0.5509  2.0118  1.5482
 4557TIP3   OH235305   5.051   4.965   0.237  0.3444 -0.0834 -0.2608
 4557TIP3    H135306   4.992   5.023   0.188 -0.1351  1.5071  2.0222
 4557TIP3    H235307   5.138   4.988   0.206 -0.0157 -1.1086 -2.2872
 4558TIP3   OH235308   4.449   3.505   7.291 -0.1369  0.2010  0.1308
 4558TIP3    H135309   4.417   3.466   7.372  2.0356  0.9773  1.4249
 4558TIP3    H235310   4.370   3.539   7.248 -1.3030 -0.0255  2.0160
 4559TIP3   OH235311   4.764   1.090   7.320 -0.4078 -0.3398 -0.6277
 4559TIP3    H135312   4.714   1.009   7.329 -0.8221 -0.2699 -2.1234
 4559TIP3    H235313   4.725   1.135   7.245 -0.4233  1.4337  0.3742
 4560TIP3   OH235314   4.466   1.930   6.775 -0.5188 -0.0047 -0.2114
 4560TIP3    H135315   4.544   1.896   6.818 -1.0094 -0.1430  0.5959
 4560TIP3    H235316   4.480   2.024   6.771 -0.5130  0.0189  0.3469
 4561TIP3   OH235317   6.741   0.469   7.488 -0.1283  0.5896  0.0075
 4561TIP3    H135318   6.675   0.527   7.526 -1.0033  1.1050 -2.1614
 4561TIP3    H235319   6.739   0.488   7.395  0.7083 -1.8337 -0.5700
 4562TIP3   OH235320   2.985   2.137   2.321 -0.1623  0.0978  0.4576
 4562TIP3    H135321   2.928   2.063   2.340  2.6935 -2.0412  1.4342
 4562TIP3    H235322   2.984   2.144   2.225 -1.6990 -0.1250  0.4346
 4563TIP3   OH235323   4.919   4.119   6.888  0.4562  0.6104  0.3379
 4563TIP3    H135324   5.014   4.117   6.877  0.6723  1.7174  1.6721
 4563TIP3    H235325   4.898   4.211   6.902 -0.9961  0.5573 -1.1219
 4564TIP3   OH235326   2.774   0.189   6.616  0.1133 -0.3344  0.5626
 4564TIP3    H135327   2.840   0.140   6.665  0.2375 -1.3135 -0.5536
 4564TIP3    H235328   2.699   0.130   6.611 -0.5636  0.4577  1.1137
 4565TIP3   OH235329   6.363   5.372   6.784  0.0760 -0.2240  0.1559
 4565TIP3    H135330   6.318   5.328   6.713  0.5728 -0.7959  0.1860
 4565TIP3    H235331   6.318   5.456   6.793  0.6683  0.3183 -1.5282
 4566TIP3   OH235332   2.298   2.069   8.241 -0.2355  0.4597 -0.6319
 4566TIP3    H135333   2.304   2.107   8.154  0.0868  0.7068 -0.5057
 4566TIP3    H235334   2.378   2.099   8.285 -0.1185 -0.1236 -0.4371
 4567TIP3   OH235335   3.617   2.807   8.752  0.7149 -0.1326 -0.0095
 4567TIP3    H135336   3.663   2.753   8.688  0.2872 -0.5287  0.0133
 4567TIP3    H235337   3.656   2.894   8.743  0.2107 -0.0273 -1.2590
 4568TIP3   OH235338   5.483   6.519   2.353  0.5114 -0.1110 -0.2114
 4568TIP3    H135339   5.566   6.539   2.309  1.0547 -1.5204  0.1161
 4568TIP3    H235340   5.501   6.440   2.404 -0.8757 -0.0996  0.3527
 4569TIP3   OH235341   4.122   3.283   6.699  0.1742 -0.4152 -0.3057
 4569TIP3    H135342   4.104   3.189   6.693  4.0316 -1.3340  0.2624
 4569TIP3    H235343   4.123   3.313   6.608  0.4201 -1.2729 -0.5950
 4570TIP3   OH235344   4.389   2.391   0.001  0.5120 -0.0850  0.0080
 4570TIP3    H135345   4.379   2.472   0.050  2.3144  0.2932 -0.1847
 4570TIP3    H235346   4.482   2.387  -0.021  0.0268 -0.9854 -2.1126
 4571TIP3   OH235347   0.027   2.051   8.012  0.0017 -0.7461 -1.0086
 4571TIP3    H135348   0.075   2.042   8.095  0.1350 -0.6261 -1.0727
 4571TIP3    H235349  -0.010   2.139   8.016  0.1815 -0.6639 -1.1689
 4572TIP3   OH235350   2.582   5.505   2.093 -0.1031  0.3051  0.1084
 4572TIP3    H135351   2.626   5.421   2.075 -0.5795 -0.1589  1.0132
 4572TIP3    H235352   2.598   5.520   2.186 -1.0933  0.5896  0.2359
 4573TIP3   OH235353   4.535   4.168   0.286  0.1903 -0.0040 -0.2323
 4573TIP3    H135354   4.477   4.178   0.211 -1.1640 -1.8108  0.5142
 4573TIP3    H235355   4.623   4.181   0.249 -0.4306 -0.8097 -2.1205
 4574TIP3   OH235356   2.540   0.911   8.235 -0.3554  0.4430 -0.0613
 4574TIP3    H135357   2.513   0.960   8.312  0.2036 -0.0134  0.4399
 4574TIP3    H235358   2.636   0.914   8.238 -0.3298  0.0311 -0.4790
 4575TIP3   OH235359   5.294   3.525   0.794 -0.1911 -0.3193 -0.2030
 4575TIP3    H135360   5.210   3.566   0.819 -1.2726 -2.0200 -0.8740
 4575TIP3    H235361   5.349   3.536   0.871 -0.6235  1.7966 -0.1154
 4576TIP3   OH235362   0.452   3.087   1.178  0.0727 -0.0994 -0.3964
 4576TIP3    H135363   0.397   3.010   1.161  1.4012 -0.9541 -0.9114
 4576TIP3    H235364   0.538   3.064   1.144  0.4796  1.6744 -0.6685
 4577TIP3   OH235365   2.170   3.382   7.912 -0.4125  0.0181  0.0397
 4577TIP3    H135366   2.112   3.407   7.841 -1.8046  0.3962  1.2654
 4577TIP3    H235367   2.240   3.333   7.870 -1.6374 -0.4827 -1.4892
 4578TIP3   OH235368   6.613   3.425   0.593 -0.1390  0.0438 -0.2258
 4578TIP3    H135369   6.527   3.446   0.631 -0.0267  1.1146 -0.5294
 4578TIP3    H235370   6.663   3.506   0.599  0.2562 -0.0525 -1.6549
 4579TIP3   OH235371   0.919   3.007   1.581 -0.4371 -0.3300  0.3778
 4579TIP3    H135372   0.991   2.977   1.637 -0.7662 -0.1432  0.9085
 4579TIP3    H235373   0.959   3.076   1.528 -0.5849  0.9072  1.7903
 4580TIP3   OH235374   4.373   6.672   1.070 -0.1286 -0.1002 -0.5020
 4580TIP3    H135375   4.453   6.723   1.056 -0.2958  0.4675  0.5205
 4580TIP3    H235376   4.330   6.670   0.985  1.3549 -1.0966 -1.2791
 4581TIP3   OH235377   6.279   3.642   1.852 -0.1628  0.0412  0.4585
 4581TIP3    H135378   6.231   3.561   1.836 -0.7521  0.7952 -1.9289
 4581TIP3    H235379   6.227   3.688   1.918 -1.1637 -0.4075 -0.0016
 4582TIP3   OH235380   5.151   6.507   0.969 -0.1880 -0.2289 -0.1599
 4582TIP3    H135381   5.152   6.416   1.000  0.0780 -0.5131 -0.9640
 4582TIP3    H235382   5.240   6.539   0.987  0.2634 -0.6915 -1.4193
 4583TIP3   OH235383   2.345   1.822   0.884 -0.5227  0.2923 -0.2295
 4583TIP3    H135384   2.411   1.891   0.893  0.7853 -1.0313  0.9448
 4583TIP3    H235385   2.393   1.749   0.845 -1.9526  0.1151 -1.7717
 4584TIP3   OH235386   4.212   3.056   1.960  0.3730  0.1406 -0.3945
 4584TIP3    H135387   4.228   3.030   1.869 -2.6681 -0.3860 -0.8887
 4584TIP3    H235388   4.256   2.988   2.012 -1.4473 -2.1229 -1.6080
 4585TIP3   OH235389   3.581   6.701   8.992 -0.2472 -0.5139  0.0721
 4585TIP3    H135390   3.649   6.709   8.926  2.3160 -0.3758  2.5648
 4585TIP3    H235391   3.540   6.787   8.995  0.0846 -0.3167 -0.7775
 4586TIP3   OH235392   2.922   0.629   7.539  0.2077  0.0439  0.0900
 4586TIP3    H135393   2.979   0.562   7.501  2.1141  0.6531  1.7238
 4586TIP3    H235394   2.848   0.579   7.574  1.2333 -1.1540  0.6482
 4587TIP3   OH235395   4.556   0.483   0.916 -0.1374  0.6914 -0.4113
 4587TIP3    H135396   4.472   0.520   0.941 -0.2654  0.3650 -0.3523
 4587TIP3    H235397   4.535   0.416   0.851 -0.0935 -0.4999  0.7502
 4588TIP3   OH235398   1.798   3.966   8.825 -0.0207  0.3280 -0.4003
 4588TIP3    H135399   1.855   4.020   8.879  0.0938  0.1882 -0.3818
 4588TIP3    H235400   1.793   4.013   8.741  0.5597  0.0637 -0.5892
 4589TIP3   OH235401   4.274   1.125   0.052  0.4686 -0.2913  0.1870
 4589TIP3    H135402   4.304   1.034   0.046  1.4047 -0.0005  0.4010
 4589TIP3    H235403   4.324   1.162   0.124 -1.6364 -0.2667  1.7540
 4590TIP3   OH235404   4.013   4.540   2.240  0.0399  0.0929 -0.3787
 4590TIP3    H135405   3.990   4.449   2.222  1.4935 -0.3733  0.0499
 4590TIP3    H235406   3.984   4.555   2.330 -0.4961  0.1719 -0.5579
 4591TIP3   OH235407   3.894   0.956   2.075 -0.1319 -0.6671  0.0745
 4591TIP3    H135408   3.855   0.930   2.159 -0.4685  1.4581  0.6356
 4591TIP3    H235409   3.986   0.975   2.097  0.0809 -1.2361 -0.3000
 4592TIP3   OH235410   5.351   1.361   0.692  0.0842 -0.4522 -0.5510
 4592TIP3    H135411   5.284   1.419   0.728  0.6760 -0.7142  1.0490
 4592TIP3    H235412   5.335   1.276   0.734  0.4288 -0.9453 -1.3882
 4593TIP3   OH235413   1.592   1.897   8.230 -0.1811 -0.3615  0.5767
 4593TIP3    H135414   1.648   1.826   8.263 -0.6219 -2.1892 -2.1824
 4593TIP3    H235415   1.653   1.963   8.197  0.4345 -1.6161 -0.9511
 4594TIP3   OH235416   2.249   2.781   1.522 -0.6506 -0.4949  0.3562
 4594TIP3    H135417   2.187   2.851   1.503  0.1828  0.0029 -0.6136
 4594TIP3    H235418   2.285   2.803   1.607  0.4915  0.9468 -0.4574
 4595TIP3   OH235419   2.468   5.035   8.104  0.4421 -0.7426  0.1410
 4595TIP3    H135420   2.486   5.046   8.010  3.0320 -0.6707  0.5727
 4595TIP3    H235421   2.385   4.988   8.107 -1.1730  1.6760 -2.1260
 4596TIP3   OH235422   0.056   2.724   8.882  0.7174 -0.3145  0.0175
 4596TIP3    H135423   0.034   2.675   8.802  1.2063 -0.4457 -0.0428
 4596TIP3    H235424   0.062   2.657   8.950  3.8966 -0.7646 -0.5470
 4597TIP3   OH235425   1.616   4.967   8.326  0.0343 -0.4624 -0.0487
 4597TIP3    H135426   1.648   5.048   8.364  2.0360 -0.8660 -0.7870
 4597TIP3    H235427   1.639   4.900   8.391  2.7046 -1.0383 -1.4838
 4598TIP3   OH235428   6.690   4.169   2.167  0.2700  0.1816 -0.3539
 4598TIP3    H135429   6.711   4.237   2.232 -0.6914 -0.4064  0.6056
 4598TIP3    H235430   6.726   4.088   2.204  0.2903 -0.0568 -0.8816
 4599TIP3   OH235431   3.973   5.781   1.057 -0.0617 -0.1291  0.5359
 4599TIP3    H135432   3.953   5.688   1.070  1.4335 -0.8227 -1.5952
 4599TIP3    H235433   4.015   5.808   1.139  0.0569 -1.5016  0.9474
 4600TIP3   OH235434   6.185   1.465   0.273 -0.1980  0.2019 -0.5499
 4600TIP3    H135435   6.256   1.401   0.268  0.0137  0.5055 -1.7457
 4600TIP3    H235436   6.227   1.550   0.258 -0.5291  0.6020  0.6776
 4601TIP3   OH235437   5.850   5.321   8.819  0.0606  0.2485  0.0895
 4601TIP3    H135438   5.916   5.356   8.759 -0.1416  0.3655 -0.0685
 4601TIP3    H235439   5.897   5.258   8.873  0.0894 -0.4134 -0.6932
 4602TIP3   OH235440   5.968   0.431   8.057  0.1939 -0.3965 -0.1976
 4602TIP3    H135441   6.049   0.479   8.071 -0.5441  1.6406 -2.3803
 4602TIP3    H235442   5.899   0.489   8.089 -0.5075 -3.1061  4.1534
 4603TIP3   OH235443   5.082   4.776   7.454  0.0771  0.4524 -0.6451
 4603TIP3    H135444   5.033   4.714   7.508  2.5724 -1.9618 -0.9098
 4603TIP3    H235445   5.044   4.861   7.475 -1.9452 -0.8701  1.6039
 4604TIP3   OH235446   4.910   0.420   1.376  0.6513  0.2869  0.1711
 4604TIP3    H135447   4.869   0.506   1.371  0.6094  0.2852  0.4765
 4604TIP3    H235448   4.979   0.422   1.310  0.9211  0.7026  0.4632
 4605TIP3   OH235449   1.836   0.621   7.785  0.0873 -0.1835 -0.5962
 4605TIP3    H135450   1.830   0.715   7.768  2.1139  0.1935  0.4902
 4605TIP3    H235451   1.745   0.592   7.791 -0.6514  2.1700  1.3455
 4606TIP3   OH235452   1.842   5.598   0.921 -0.1115  0.6657  0.4640
 4606TIP3    H135453   1.905   5.622   0.854  0.5836 -0.9714  0.4676
 4606TIP3    H235454   1.856   5.660   0.992  0.0600  1.5923 -0.3676
 4607TIP3   OH235455   0.073   6.299   2.063 -0.9138  0.3311 -0.0849
 4607TIP3    H135456   0.077   6.371   2.001 -0.5941  1.4214  1.1561
 4607TIP3    H235457   0.016   6.330   2.133 -0.4901 -0.4704  0.6451
 4608TIP3   OH235458   0.551   4.566   0.931  0.0063 -0.1363 -0.5447
 4608TIP3    H135459   0.573   4.512   1.007 -0.9148 -1.4331 -1.1541
 4608TIP3    H235460   0.557   4.656   0.963  0.1278 -0.6327  0.9208
 4609TIP3   OH235461   4.868   0.466   0.223  0.3447 -0.5198 -0.0169
 4609TIP3    H135462   4.878   0.562   0.218  0.3167 -0.5731 -2.0449
 4609TIP3    H235463   4.908   0.442   0.306  0.3723  1.2550  0.5234
 4610TIP3   OH235464   6.121   1.564   1.892 -0.3097  0.9914  0.0361
 4610TIP3    H135465   6.141   1.607   1.975 -1.1546  0.0876  0.7315
 4610TIP3    H235466   6.082   1.480   1.917 -0.4786  0.6534 -1.2792
 4611TIP3   OH235467   3.851   4.228   7.468 -0.0319  0.6607  0.8028
 4611TIP3    H135468   3.769   4.275   7.483 -1.1250 -0.5667 -0.9943
 4611TIP3    H235469   3.904   4.247   7.546 -0.8280  3.8802  0.7089
 4612TIP3   OH235470   1.749   2.248   7.491 -0.5439  0.4158 -0.6392
 4612TIP3    H135471   1.721   2.188   7.421 -0.4509  0.2312 -0.5202
 4612TIP3    H235472   1.679   2.243   7.556  0.4048 -1.1903  0.3592
 4613TIP3   OH235473   4.881   1.301   7.825  0.3603 -0.2081 -0.2874
 4613TIP3    H135474   4.827   1.364   7.873  1.1673  0.6320 -0.4446
 4613TIP3    H235475   4.824   1.269   7.755 -0.9726 -1.7683  1.4133
 4614TIP3   OH235476   0.841   3.985   8.226  0.4907 -0.6051 -0.2753
 4614TIP3    H135477   0.904   3.913   8.221  1.2294  0.0443 -0.4415
 4614TIP3    H235478   0.895   4.064   8.233 -0.3111 -0.0922  0.3057
 4615TIP3   OH235479   6.755   0.578   8.908 -0.1347  0.2329 -0.1857
 4615TIP3    H135480   6.735   0.627   8.987  0.7008 -0.6505  0.6085
 4615TIP3    H235481   6.823   0.629   8.864  0.9814 -0.3467  0.8122
 4616TIP3   OH235482   4.611   1.954   0.104  0.0455  0.2828 -0.4233
 4616TIP3    H135483   4.594   1.956   0.198  1.7606 -2.4183  0.0717
 4616TIP3    H235484   4.528   1.928   0.064 -0.2333 -0.3386  0.5404
 4617TIP3   OH235485   5.388   2.655   8.664 -0.2542  0.4842 -0.2753
 4617TIP3    H135486   5.294   2.670   8.671 -0.0999  1.0577  0.7747
 4617TIP3    H235487   5.399   2.604   8.584 -1.3672  1.1759 -0.8777
 4618TIP3   OH235488   6.651   5.856   1.547 -0.1077  0.2128 -0.1747
 4618TIP3    H135489   6.740   5.844   1.514 -0.6453 -1.8041 -1.1350
 4618TIP3    H235490   6.613   5.923   1.490 -0.3189 -1.6548 -2.4385
 4619TIP3   OH235491   3.074   2.832   6.704 -0.1634 -0.5360 -0.3231
 4619TIP3    H135492   3.101   2.753   6.751  1.5559  0.1885  0.0080
 4619TIP3    H235493   2.980   2.837   6.717  0.0765 -0.9777  2.1696
 4620TIP3   OH235494   5.956   3.418   1.294 -0.2127 -1.1538  0.4402
 4620TIP3    H135495   6.002   3.408   1.211  2.2653 -0.9923  1.7254
 4620TIP3    H235496   5.923   3.508   1.292 -0.3208 -1.1995 -0.4146
 4621TIP3   OH235497   5.477   4.428   7.999  0.1349 -0.0440  0.0769
 4621TIP3    H135498   5.497   4.335   8.002  0.5034  0.0159 -0.3058
 4621TIP3    H235499   5.552   4.470   8.042  0.8010  0.1746 -1.2309
 4622TIP3   OH235500   5.102   2.295   8.392 -0.8463 -0.0995  0.4352
 4622TIP3    H135501   5.082   2.380   8.431 -1.1851  0.3829 -0.7404
 4622TIP3    H235502   5.029   2.279   8.332  0.7645  0.2997 -1.7628
 4623TIP3   OH235503   2.057   5.900   8.512 -0.1291 -0.4420 -0.2027
 4623TIP3    H135504   2.151   5.895   8.531 -0.1503  0.5445  0.2567
 4623TIP3    H235505   2.034   5.813   8.480  1.5730  0.1187 -3.3092
 4624TIP3   OH235506   5.218   2.015   1.670  0.0430  0.2078  0.2060
 4624TIP3    H135507   5.206   1.924   1.646  1.1751  0.4374 -1.3871
 4624TIP3    H235508   5.130   2.053   1.666 -0.5431 -0.9137  1.5263
 4625TIP3   OH235509   1.938   1.171   7.420  0.2279  0.3481  0.3338
 4625TIP3    H135510   1.861   1.160   7.364  1.3461 -0.4380 -1.1351
 4625TIP3    H235511   1.965   1.262   7.408  1.0770 -0.0701 -1.3474
 4626TIP3   OH235512   6.476   1.927   1.466  0.2677  0.1187  0.1374
 4626TIP3    H135513   6.541   1.857   1.471 -2.0322 -2.1740  0.0142
 4626TIP3    H235514   6.483   1.959   1.375 -0.8025 -2.2777 -0.8691
 4627TIP3   OH235515   5.512   3.807   1.948  0.2530  0.0269 -0.4824
 4627TIP3    H135516   5.470   3.831   1.866 -0.0253  0.5316 -0.1981
 4627TIP3    H235517   5.444   3.821   2.015  0.4423 -0.4689 -0.1757
 4628TIP3   OH235518   2.625   4.268   0.590 -0.3275  0.0613  0.7667
 4628TIP3    H135519   2.645   4.362   0.596  1.1958 -0.1683 -0.0769
 4628TIP3    H235520   2.612   4.253   0.496 -0.1083 -0.6478  0.8460
 4629TIP3   OH235521   2.898   1.486   8.103  1.2236 -0.5680  0.1921
 4629TIP3    H135522   2.859   1.426   8.166  2.8669  0.1640  2.0157
 4629TIP3    H235523   2.847   1.566   8.111  2.3404  0.0288  1.7742
 4630TIP3   OH235524   6.016   5.142   1.741  0.1895  0.2159  0.1011
 4630TIP3    H135525   6.104   5.123   1.773  0.9686 -1.0688 -2.5712
 4630TIP3    H235526   6.029   5.206   1.671 -1.2846  1.6853  1.0826
 4631TIP3   OH235527   5.117   4.338   8.837  0.0771 -0.2258  0.7346
 4631TIP3    H135528   5.144   4.430   8.844  1.6375 -0.7024  1.5835
 4631TIP3    H235529   5.124   4.318   8.743 -0.4106  0.5607  0.5296
 4632TIP3   OH235530   0.115   0.999   1.222  0.0135 -0.2254 -0.1444
 4632TIP3    H135531   0.123   1.069   1.157 -0.2492 -0.6197 -0.6124
 4632TIP3    H235532   0.129   1.042   1.306 -1.4006  0.6398 -0.3177
 4633TIP3   OH235533   1.949   2.564   1.243 -0.2727 -0.0750 -0.4489
 4633TIP3    H135534   1.946   2.660   1.246 -0.6241 -0.1112  0.9631
 4633TIP3    H235535   2.010   2.545   1.171  0.0232  1.2060 -0.5712
 4634TIP3   OH235536   3.148   5.276   8.165 -0.1275  0.5192 -0.4976
 4634TIP3    H135537   3.185   5.260   8.079  0.8855  0.2266 -0.0292
 4634TIP3    H235538   3.107   5.193   8.190  0.6279  0.2183 -0.2143
 4635TIP3   OH235539   5.318   5.509   1.165 -0.3811  0.2092 -0.1597
 4635TIP3    H135540   5.236   5.481   1.206 -0.2625  0.1477  0.0364
 4635TIP3    H235541   5.292   5.544   1.080 -0.5793 -0.1155 -0.2362
 4636TIP3   OH235542   1.174   2.863   8.134 -0.2067  0.4093 -0.3210
 4636TIP3    H135543   1.164   2.914   8.214 -0.4705  0.0482 -0.1212
 4636TIP3    H235544   1.196   2.928   8.067 -2.3618  1.0583 -0.4672
 4637TIP3   OH235545   3.883   6.493   1.316  0.1208  0.0806 -0.3320
 4637TIP3    H135546   3.965   6.448   1.298 -0.2592 -0.9766  0.5083
 4637TIP3    H235547   3.885   6.509   1.410 -0.5095  0.3290 -0.3591
 4638TIP3   OH235548   1.530   1.685   1.109 -0.1613 -0.1580 -0.9437
 4638TIP3    H135549   1.510   1.778   1.109 -0.2066 -0.0265  2.4687
 4638TIP3    H235550   1.625   1.681   1.103 -0.0376  0.2533  0.3532
 4639TIP3   OH235551   3.112   0.209   2.205  0.0902  0.1382 -0.2910
 4639TIP3    H135552   3.026   0.191   2.166 -0.6756  0.6628  1.0784
 4639TIP3    H235553   3.128   0.301   2.184 -0.7208  0.6754  1.2623
 4640TIP3   OH235554   0.242   4.091   7.361  0.0514  0.0842 -0.5584
 4640TIP3    H135555   0.233   4.161   7.425 -1.8813 -0.7368  0.1328
 4640TIP3    H235556   0.330   4.102   7.325  0.1335  2.2638  0.2077
 4641TIP3   OH235557   5.371   1.234   0.452 -0.1164  0.2761 -0.2149
 4641TIP3    H135558   5.295   1.271   0.497 -1.4438  0.6086 -2.5685
 4641TIP3    H235559   5.446   1.265   0.502 -1.3622  2.8812  0.1875
 4642TIP3   OH235560   2.195   5.429   2.483  0.2477  0.0078 -0.7645
 4642TIP3    H135561   2.141   5.357   2.449 -0.1593  0.7770 -1.7757
 4642TIP3    H235562   2.138   5.473   2.547 -0.2351  0.6387 -1.6142
 4643TIP3   OH235563   3.002   4.100   7.772  0.5277  0.2451 -0.5572
 4643TIP3    H135564   2.976   4.127   7.860  0.8013 -0.4544 -0.2535
 4643TIP3    H235565   2.919   4.080   7.728  0.3777  0.7997 -0.5277
 4644TIP3   OH235566   4.715   6.113   1.510 -0.3921 -0.7019 -0.6180
 4644TIP3    H135567   4.642   6.175   1.506  0.7554  0.6755 -0.7744
 4644TIP3    H235568   4.735   6.105   1.604  2.4494  2.9187 -0.6733
 4645TIP3   OH235569   2.282   0.527   8.106  0.0599  0.2948  0.0827
 4645TIP3    H135570   2.226   0.473   8.162  1.4819  0.2836  1.5354
 4645TIP3    H235571   2.274   0.615   8.141  2.0061  0.0678  1.2403
 4646TIP3   OH235572   3.438   5.820   2.761  0.1797 -0.0254  0.6446
 4646TIP3    H135573   3.522   5.845   2.723 -1.5678  1.8599 -2.4451
 4646TIP3    H235574   3.436   5.863   2.846  2.5141 -0.6102  1.0450
 4647TIP3   OH235575   1.813   6.093   0.479 -0.2703 -0.5362  0.2236
 4647TIP3    H135576   1.810   6.094   0.575  2.0348  2.9730  0.4641
 4647TIP3    H235577   1.905   6.074   0.458 -0.2066  1.0210 -1.1137
 4648TIP3   OH235578   1.301   4.409   8.642 -0.1035 -0.9847  0.1274
 4648TIP3    H135579   1.347   4.433   8.723 -0.7892 -0.4375  0.3706
 4648TIP3    H235580   1.228   4.354   8.672  0.3055 -1.7296 -0.2372
 4649TIP3   OH235581   0.375   1.019   2.443 -0.3857 -0.2961  0.0387
 4649TIP3    H135582   0.336   1.053   2.524 -2.3679 -0.7155 -0.6856
 4649TIP3    H235583   0.352   1.083   2.377 -0.2166 -0.7890 -0.5029
 4650TIP3   OH235584   2.407   3.755   8.293 -0.4201  0.5046  0.7852
 4650TIP3    H135585   2.316   3.768   8.320 -1.0961  0.0186 -1.0752
 4650TIP3    H235586   2.423   3.662   8.306 -0.5947  0.3603  0.0134
 4651TIP3   OH235587   5.310   1.503   8.539  1.3576  0.2618  0.8562
 4651TIP3    H135588   5.266   1.483   8.456  0.6360  0.2936  1.2220
 4651TIP3    H235589   5.305   1.598   8.547  1.1892  0.2379  1.0564
 4652TIP3   OH235590   3.078   2.771   1.118 -0.1160  0.7107  0.0935
 4652TIP3    H135591   3.038   2.833   1.179 -1.5627 -0.6503  0.5705
 4652TIP3    H235592   3.125   2.709   1.174 -1.6554 -0.6916 -0.0993
 4653TIP3   OH235593   1.986   5.093   1.594  1.3438  0.1512  0.0809
 4653TIP3    H135594   1.918   5.154   1.566 -1.3479 -1.8801  1.6601
 4653TIP3    H235595   2.063   5.147   1.611 -0.3608  2.8140 -0.2209
 4654TIP3   OH235596   4.877   1.348   6.958  0.4388 -0.1024 -1.3538
 4654TIP3    H135597   4.916   1.313   6.878  2.8338  0.9702 -0.7194
 4654TIP3    H235598   4.782   1.345   6.940  0.6486 -3.2542 -2.7711
 4655TIP3   OH235599   4.971   4.863   6.590  0.4446 -1.0095 -0.0546
 4655TIP3    H135600   4.972   4.767   6.598 -0.7781 -0.9569  1.2863
 4655TIP3    H235601   5.061   4.889   6.609  0.9774 -1.9174 -1.2043
 4656TIP3   OH235602   1.019   3.364   6.957 -0.1837  0.1238 -0.5135
 4656TIP3    H135603   1.051   3.427   6.892  0.4487 -0.2049 -0.5336
 4656TIP3    H235604   0.967   3.301   6.906 -1.3029  0.9408 -0.4086
 4657TIP3   OH235605   2.038   2.556   3.062 -0.1575 -0.9374 -0.2091
 4657TIP3    H135606   2.104   2.551   3.132  0.2448 -1.0784 -0.5953
 4657TIP3    H235607   1.958   2.523   3.103 -0.2616  0.2401  0.5767
 4658TIP3   OH235608   3.243   1.329   6.693 -0.1653  0.0139  0.0888
 4658TIP3    H135609   3.237   1.235   6.709 -0.1861 -0.0815 -0.4493
 4658TIP3    H235610   3.152   1.360   6.701 -0.4270 -0.3015 -1.3942
 4659TIP3   OH235611   1.304   6.237   8.494  0.7341  0.0785 -0.0664
 4659TIP3    H135612   1.275   6.205   8.579 -1.0284 -0.1607 -0.7341
 4659TIP3    H235613   1.385   6.286   8.513 -0.5967  1.6273  2.0118
 4660TIP3   OH235614   5.157   5.532   0.652 -0.7424 -0.1699 -0.6968
 4660TIP3    H135615   5.222   5.521   0.721 -0.8716 -0.0262 -0.5501
 4660TIP3    H235616   5.166   5.623   0.624 -2.0976  0.4006  0.5851
 4661TIP3   OH235617   4.433   2.557   0.757  0.4536  0.2136  0.1339
 4661TIP3    H135618   4.385   2.639   0.771 -0.8854 -0.8066  1.9827
 4661TIP3    H235619   4.522   2.577   0.786  0.0794  0.9495  0.8299
 4662TIP3   OH235620   2.521   4.929   2.126  0.3256  0.1576  0.1284
 4662TIP3    H135621   2.535   4.952   2.034 -0.0942 -0.2066 -0.0286
 4662TIP3    H235622   2.437   4.883   2.127  1.0116 -1.1237  0.4651
 4663TIP3   OH235623   0.962   0.782   0.574 -0.7157  0.1948 -0.0706
 4663TIP3    H135624   1.007   0.719   0.518  0.0518  1.3778 -0.8228
 4663TIP3    H235625   0.936   0.852   0.514 -1.2567  0.7572  0.8082
 4664TIP3   OH235626   0.847   5.374   2.406 -0.4253  0.2955  0.1892
 4664TIP3    H135627   0.901   5.431   2.461 -0.2634  0.1607  0.1701
 4664TIP3    H235628   0.883   5.386   2.318 -1.4384  1.4318 -0.1023
 4665TIP3   OH235629   3.257   0.894   1.592  0.2215  0.3541 -0.1644
 4665TIP3    H135630   3.336   0.876   1.643  0.6742  1.2813 -0.5245
 4665TIP3    H235631   3.213   0.964   1.641 -0.8708 -0.8077  0.5485
 4666TIP3   OH235632   4.998   2.754   7.529 -0.1832  0.5813 -0.1272
 4666TIP3    H135633   5.060   2.685   7.552  1.2398  1.4917 -1.0483
 4666TIP3    H235634   4.929   2.709   7.481 -0.0381 -0.4033  0.5532
 4667TIP3   OH235635   2.453   3.857   0.896  0.2070  0.0125  0.1024
 4667TIP3    H135636   2.498   3.807   0.828 -0.1627 -0.4220  0.1727
 4667TIP3    H235637   2.434   3.941   0.855  0.1721 -0.1716 -0.2623
 4668TIP3   OH235638   3.766   0.014   0.557 -0.6630  0.1886  0.2160
 4668TIP3    H135639   3.798   0.006   0.646 -1.9501  2.0827  0.9106
 4668TIP3    H235640   3.675  -0.017   0.560 -1.2154  1.6973 -0.0541
 4669TIP3   OH235641   1.769   2.518   7.287  0.4273 -0.7163  0.4417
 4669TIP3    H135642   1.735   2.557   7.207  1.1777 -0.5901  0.1695
 4669TIP3    H235643   1.717   2.439   7.300  0.6193 -1.0008 -0.4521
 4670TIP3   OH235644   5.321   4.209   2.582  0.2391 -0.4686  0.4277
 4670TIP3    H135645   5.312   4.193   2.676 -1.3365  0.8577  0.5577
 4670TIP3    H235646   5.248   4.161   2.543 -0.3892  0.7074  0.1234
 4671TIP3   OH235647   5.853   4.452   1.684 -0.0309  0.8523 -0.0435
 4671TIP3    H135648   5.830   4.531   1.635 -1.4121  0.4453 -0.1078
 4671TIP3    H235649   5.806   4.382   1.640  1.0719 -0.0063  0.0942
 4672TIP3   OH235650   2.266   1.442   7.325 -0.9975  0.5812 -0.5676
 4672TIP3    H135651   2.295   1.464   7.237 -0.5956  0.2755 -0.5132
 4672TIP3    H235652   2.227   1.355   7.317  3.2128 -1.6433  0.3393
 4673TIP3   OH235653   6.558   2.245   0.498  0.3981  0.1841  0.6261
 4673TIP3    H135654   6.468   2.278   0.501  0.1720 -0.0581 -1.6567
 4673TIP3    H235655   6.600   2.299   0.430  1.0292 -1.8107 -0.6432
 4674TIP3   OH235656   6.093   5.480   8.631 -0.2639 -0.3446 -0.6060
 4674TIP3    H135657   6.161   5.544   8.611 -1.1323  0.2535 -1.8001
 4674TIP3    H235658   6.059   5.454   8.546 -0.5647 -1.7058 -0.0859
 4675TIP3   OH235659   2.942   2.359   0.345 -0.1819  0.0506 -0.6113
 4675TIP3    H135660   3.019   2.416   0.341  1.8258 -2.5596 -1.5669
 4675TIP3    H235661   2.920   2.343   0.254 -3.5639  2.6742 -0.4608
 4676TIP3   OH235662   6.578   4.270   8.590  0.1866 -0.2413  0.1346
 4676TIP3    H135663   6.639   4.200   8.567  0.8541  0.7087 -1.1304
 4676TIP3    H235664   6.597   4.340   8.527 -0.6153  0.9912  1.2166
 4677TIP3   OH235665   6.748   5.859   0.501 -0.1347 -0.7862  0.2937
 4677TIP3    H135666   6.826   5.808   0.481 -1.5285 -3.1413  0.3356
 4677TIP3    H235667   6.764   5.895   0.588  0.5953 -1.9089  0.6455
 4678TIP3   OH235668   2.647   0.523   8.698 -0.1601  0.7203  0.0536
 4678TIP3    H135669   2.638   0.575   8.618 -0.6794  0.1893 -0.2381
 4678TIP3    H235670   2.681   0.585   8.763  0.4529  1.1133 -0.6252
 4679TIP3   OH235671   1.784   1.965   7.580 -0.2180  0.5626 -0.4685
 4679TIP3    H135672   1.798   1.986   7.672 -2.3142 -0.2543  0.1094
 4679TIP3    H235673   1.716   2.027   7.551  0.2239  0.6382 -1.3926
 4680TIP3   OH235674   3.732   4.245   1.454  0.2481  0.4084 -0.2080
 4680TIP3    H135675   3.823   4.261   1.429  0.9497 -1.3944  1.0513
 4680TIP3    H235676   3.706   4.169   1.403  0.2023 -0.4706  1.0989
 4681TIP3   OH235677   3.434   3.479   6.433  0.5441 -0.2082  0.0216
 4681TIP3    H135678   3.480   3.539   6.492  0.6162 -0.1736 -0.0685
 4681TIP3    H235679   3.504   3.433   6.387  0.4953  0.2710 -0.5505
 4682TIP3   OH235680   5.655   6.240   1.361  0.1079  0.1355 -0.2879
 4682TIP3    H135681   5.634   6.147   1.371 -0.8479  0.3606 -0.1818
 4682TIP3    H235682   5.644   6.257   1.267 -1.8285  0.6341  0.0034
 4683TIP3   OH235683   2.564   6.328   2.615 -0.9944 -0.1388 -0.3457
 4683TIP3    H135684   2.558   6.421   2.596  0.9755  0.8075  2.7770
 4683TIP3    H235685   2.495   6.313   2.680 -0.8653 -0.7035 -0.3361
 4684TIP3   OH235686   2.984   4.810   0.887 -0.1971  0.3105 -0.1430
 4684TIP3    H135687   2.962   4.797   0.795  1.2552  1.1527 -0.6403
 4684TIP3    H235688   2.946   4.734   0.931 -1.3815  0.1585 -1.3371
 4685TIP3   OH235689   5.234   4.363   6.911 -0.2702  0.1704  0.4182
 4685TIP3    H135690   5.141   4.377   6.928 -0.1431  1.1057  0.3718
 4685TIP3    H235691   5.238   4.276   6.870 -1.3453  0.9046 -1.3599
 4686TIP3   OH235692   2.970   5.989   6.165  0.0664  0.5242 -0.0495
 4686TIP3    H135693   3.064   5.998   6.180 -0.0459 -0.7560  1.7664
 4686TIP3    H235694   2.955   5.895   6.156 -1.0030  0.7294 -0.6166
 4687TIP3   OH235695   5.031   3.054   8.014  0.6924  0.2882  0.2364
 4687TIP3    H135696   4.952   3.051   8.068  0.5011 -2.2735 -0.0604
 4687TIP3    H235697   5.014   2.991   7.944  2.5808  0.4708 -0.4291
 4688TIP3   OH235698   3.399   6.304   2.007  0.2045  0.7857 -0.2120
 4688TIP3    H135699   3.330   6.297   2.074 -0.3542 -1.5061 -0.9187
 4688TIP3    H235700   3.479   6.317   2.057 -0.3635  0.3467  0.8547
 4689TIP3   OH235701   4.228   2.956   1.407  0.5564 -0.4780  0.2385
 4689TIP3    H135702   4.278   2.876   1.420  0.7373 -0.3066  0.5965
 4689TIP3    H235703   4.293   3.020   1.377  0.3108 -0.6218 -0.6532
 4690TIP3   OH235704   4.701   5.765   8.868 -0.4416  0.0778 -0.2712
 4690TIP3    H135705   4.782   5.815   8.874 -0.4535  0.3202 -1.8819
 4690TIP3    H235706   4.650   5.808   8.801 -2.1889  0.2615  1.0932
 4691TIP3   OH235707   1.700   5.940   6.617  0.0836  0.3742 -0.6843
 4691TIP3    H135708   1.606   5.924   6.608 -0.2959  2.9941 -2.2876
 4691TIP3    H235709   1.730   5.871   6.677 -2.2414 -2.4997 -2.5476
 4692TIP3   OH235710   0.698   6.245   7.322 -0.3785  0.2851 -0.1867
 4692TIP3    H135711   0.711   6.303   7.247  1.0623  0.2387  0.0050
 4692TIP3    H235712   0.764   6.177   7.312 -0.6412 -0.1244  0.7500
 4693TIP3   OH235713   5.808   3.085   8.067  0.1127  0.7030 -0.5803
 4693TIP3    H135714   5.825   3.178   8.084  1.6574  0.1529  1.3048
 4693TIP3    H235715   5.861   3.064   7.991  0.9757  1.0596 -0.0907
 4694TIP3   OH235716   1.179   4.185   1.138 -0.2443 -0.3893 -0.1870
 4694TIP3    H135717   1.207   4.261   1.087 -0.0721 -0.1351  0.2901
 4694TIP3    H235718   1.145   4.221   1.219 -0.0857 -0.8263  0.0748
 4695TIP3   OH235719   6.432   4.361   7.633 -0.0593  0.4429 -0.4410
 4695TIP3    H135720   6.466   4.313   7.557  0.3379  0.8549 -0.5269
 4695TIP3    H235721   6.363   4.417   7.597 -3.5328 -2.9793  0.2155
 4696TIP3   OH235722   4.960   1.077   0.858 -0.3291 -0.6605 -0.4916
 4696TIP3    H135723   4.870   1.108   0.870  0.2884  0.8689  0.3822
 4696TIP3    H235724   4.951   0.982   0.845 -2.0708 -0.5059 -0.6376
 4697TIP3   OH235725   5.349   1.474   6.780  0.3275  0.0363 -0.1259
 4697TIP3    H135726   5.279   1.526   6.820 -0.7931 -1.6733  0.2606
 4697TIP3    H235727   5.430   1.511   6.816 -0.4913  0.6409  1.1893
 4698TIP3   OH235728   5.558   5.322   8.419 -0.0293 -0.3516  0.0890
 4698TIP3    H135729   5.596   5.239   8.448  0.7283 -0.3331 -0.7840
 4698TIP3    H235730   5.481   5.296   8.367 -0.5487 -0.4436  0.8984
 4699TIP3   OH235731   1.064   1.430   2.039  0.1032  0.1948  0.5431
 4699TIP3    H135732   1.050   1.393   2.126  1.0340  0.0356  0.6392
 4699TIP3    H235733   1.038   1.522   2.047  1.1433  0.4422  1.2831
 4700TIP3   OH235734   5.502   5.448   8.680 -0.2778  0.3175 -0.1499
 4700TIP3    H135735   5.540   5.388   8.744  0.2244  0.6903 -0.0966
 4700TIP3    H235736   5.532   5.414   8.595  0.4859  0.8270 -0.0865
 4701TIP3   OH235737   3.856   5.469   0.582 -0.1479 -0.1642 -0.4079
 4701TIP3    H135738   3.780   5.413   0.567  0.1859 -0.8168  0.2817
 4701TIP3    H235739   3.841   5.507   0.669  0.3108 -0.2969 -0.2700
 4702TIP3   OH235740   6.362   5.618   1.798  0.4822 -0.0623 -0.4934
 4702TIP3    H135741   6.338   5.526   1.792  0.5973 -0.0490 -1.1900
 4702TIP3    H235742   6.445   5.625   1.752  0.6961  0.3115 -0.0613
 4703TIP3   OH235743   2.349   6.149   7.208 -0.0427 -0.5582  0.1299
 4703TIP3    H135744   2.411   6.078   7.192  0.0644 -0.4934  0.2557
 4703TIP3    H235745   2.363   6.210   7.136 -0.7419 -1.0819 -0.4670
 4704TIP3   OH235746   1.733   1.996   1.869 -0.3427 -0.0229 -0.0463
 4704TIP3    H135747   1.643   1.985   1.899 -0.2795 -0.6720 -0.0837
 4704TIP3    H235748   1.743   1.934   1.797 -0.1653  0.7643 -0.7157
 4705TIP3   OH235749   3.520   6.140   1.562  0.2841 -0.7097  0.0165
 4705TIP3    H135750   3.471   6.079   1.507 -1.7716  0.4082  0.4664
 4705TIP3    H235751   3.522   6.100   1.648 -2.1848  0.2867  0.6340
 4706TIP3   OH235752   3.621   6.715   2.150 -0.0985  0.2671 -0.3295
 4706TIP3    H135753   3.602   6.628   2.185 -1.5883  0.8498  0.4600
 4706TIP3    H235754   3.715   6.717   2.138 -0.0706 -1.5291 -0.5825
 4707TIP3   OH235755   1.238   1.902   0.548 -0.4722 -0.4970 -0.9632
 4707TIP3    H135756   1.242   1.849   0.467  1.6058  1.0428 -1.9692
 4707TIP3    H235757   1.253   1.992   0.518  0.0552  0.1525  1.1075
 4708TIP3   OH235758   3.418   1.118   0.454  0.0224 -0.0054 -0.2726
 4708TIP3    H135759   3.332   1.076   0.450 -0.1938  0.2995  0.8107
 4708TIP3    H235760   3.401   1.209   0.430 -0.0207  0.1347  0.2847
 4709TIP3   OH235761   6.635   0.455   0.383 -0.1217 -0.1534  0.3897
 4709TIP3    H135762   6.665   0.405   0.308  0.2616  2.1511 -1.0860
 4709TIP3    H235763   6.558   0.407   0.415  1.6535 -3.0120  0.6893
 4710TIP3   OH235764   2.075   6.626   1.712 -0.4141 -0.1562 -0.1386
 4710TIP3    H135765   2.128   6.689   1.761 -0.0419 -1.2382  0.8926
 4710TIP3    H235766   2.134   6.553   1.693 -1.3905 -1.2091  0.6757
 4711TIP3   OH235767   0.120   3.847   9.006 -0.0616 -0.1655  0.0647
 4711TIP3    H135768   0.111   3.795   9.086  0.5967 -0.0628  0.2088
 4711TIP3    H235769   0.034   3.886   8.993 -0.0677  0.1290  0.9345
 4712TIP3   OH235770   6.015   6.722   1.268  0.5661 -0.7839  0.1422
 4712TIP3    H135771   6.046   6.712   1.177  1.4878  0.7312  0.2634
 4712TIP3    H235772   6.076   6.783   1.307 -0.9965  0.1371  1.2351
 4713TIP3   OH235773   3.370   6.035   0.588 -0.0531  0.1033 -0.5165
 4713TIP3    H135774   3.331   5.965   0.535 -0.4211 -0.8805  0.9816
 4713TIP3    H235775   3.461   6.040   0.559 -0.6413  0.7288 -2.3519
 4714TIP3   OH235776   5.485   3.646   0.987 -0.0901  0.1478 -0.2382
 4714TIP3    H135777   5.568   3.609   1.016  0.2988 -0.6615 -2.1611
 4714TIP3    H235778   5.492   3.740   1.005 -0.0680 -0.3195  2.4604
 4715TIP3   OH235779   1.651   3.498   8.469 -0.7491 -0.4067 -0.1430
 4715TIP3    H135780   1.723   3.436   8.482 -0.2264  0.5793  2.3263
 4715TIP3    H235781   1.578   3.460   8.518 -1.4261 -0.6192 -1.3024
 4716TIP3   OH235782   5.467   4.588   6.909 -0.1128 -0.1834  0.4346
 4716TIP3    H135783   5.481   4.594   7.004  1.0025  0.0943  0.2593
 4716TIP3    H235784   5.425   4.503   6.897 -1.6911  0.4181  1.3213
 4717TIP3   OH235785   6.375   5.639   2.264  0.4161 -0.4188  0.4155
 4717TIP3    H135786   6.350   5.546   2.269 -1.5783  0.1088  1.3915
 4717TIP3    H235787   6.445   5.649   2.327 -1.1594 -0.7858  2.3120
 4718TIP3   OH235788   1.797   0.561   8.451 -0.2671 -0.2889  0.7517
 4718TIP3    H135789   1.778   0.653   8.432 -0.2800 -0.5043 -0.3349
 4718TIP3    H235790   1.864   0.564   8.519  1.8667  0.5928 -1.2523
 4719TIP3   OH235791   6.325   0.294   7.371  0.2234  0.3235 -0.2233
 4719TIP3    H135792   6.239   0.264   7.342 -1.4450  2.8928  1.5948
 4719TIP3    H235793   6.365   0.331   7.292 -0.7984  0.0687 -0.8817
 4720TIP3   OH235794   2.345   2.920   0.422  0.3862  0.0156  0.2961
 4720TIP3    H135795   2.416   2.855   0.423  0.8956  0.3711 -2.9235
 4720TIP3    H235796   2.283   2.887   0.486  0.8955 -3.3948 -0.7274
 4721TIP3   OH235797   1.844   2.793   7.781  0.1668  0.3239 -0.1625
 4721TIP3    H135798   1.842   2.770   7.688  0.3711  0.7313 -0.2708
 4721TIP3    H235799   1.753   2.805   7.805  0.1525  0.8694 -0.4792
 4722TIP3   OH235800   5.055   0.890   2.563  0.1860 -0.2011 -0.2639
 4722TIP3    H135801   5.094   0.978   2.557  1.8156 -0.6554  2.2028
 4722TIP3    H235802   5.103   0.847   2.634 -2.2748 -2.2217  0.3279
 4723TIP3   OH235803   4.558   4.552   8.902  0.1730 -0.5444 -0.2933
 4723TIP3    H135804   4.641   4.548   8.950  0.1415 -1.2341 -0.2921
 4723TIP3    H235805   4.581   4.597   8.820  1.4298 -3.9781 -2.0058
 4724TIP3   OH235806   5.633   3.116   8.391 -0.3376  0.4377  0.1034
 4724TIP3    H135807   5.593   3.183   8.446  0.4363  1.7510 -0.8787
 4724TIP3    H235808   5.620   3.147   8.301  1.1472 -0.0715 -0.3176
 4725TIP3   OH235809   2.287   1.349   8.177  0.4439  0.5900 -0.0630
 4725TIP3    H135810   2.366   1.369   8.128  0.8752 -0.5495  0.1428
 4725TIP3    H235811   2.318   1.322   8.264 -0.1535 -0.0012 -0.0223
 4726TIP3   OH235812   2.324   2.145   7.947  0.6448  0.0672 -0.4227
 4726TIP3    H135813   2.228   2.149   7.942  0.3673 -2.6443  0.5600
 4726TIP3    H235814   2.352   2.118   7.860  0.3588 -0.4676 -0.3548
 4727TIP3   OH235815   3.347   1.577   2.956  0.3199  0.1539  0.0898
 4727TIP3    H135816   3.364   1.661   2.999 -1.4832  1.1767 -1.0660
 4727TIP3    H235817   3.323   1.600   2.866 -1.2692 -1.5078  0.0239
 4728TIP3   OH235818   2.532   4.592   7.844 -0.2770 -0.5188  0.0353
 4728TIP3    H135819   2.562   4.617   7.931  2.3208 -0.2766 -0.8415
 4728TIP3    H235820   2.597   4.630   7.784 -2.1387 -0.4182 -2.0486
 4729TIP3   OH235821   3.875   1.188   1.398 -0.0143  0.8691  0.0776
 4729TIP3    H135822   3.798   1.132   1.406 -0.1590  1.2540  1.7425
 4729TIP3    H235823   3.884   1.203   1.304 -0.5609 -1.1150 -0.3468
 4730TIP3   OH235824   6.336   3.917   8.802 -0.0888  0.4180  0.0964
 4730TIP3    H135825   6.367   3.854   8.737  0.8069 -0.4177  1.3066
 4730TIP3    H235826   6.258   3.877   8.840  0.0489  0.3788  0.3396
 4731TIP3   OH235827   4.852   6.256   1.907 -0.1735  0.3594 -0.4927
 4731TIP3    H135828   4.815   6.201   1.976  1.2146  0.2609  0.2057
 4731TIP3    H235829   4.859   6.198   1.831 -0.5719  0.1255 -0.3523
 4732TIP3   OH235830   5.519   6.144   1.021  0.2103  0.0723 -0.7763
 4732TIP3    H135831   5.527   6.117   1.113 -0.9518  1.4707 -0.2280
 4732TIP3    H235832   5.594   6.201   1.006  0.4792 -0.2697 -0.7373
 4733TIP3   OH235833   0.690   3.702   0.157  0.3923  0.0187  0.2065
 4733TIP3    H135834   0.785   3.716   0.147  0.9382 -1.9788  1.8925
 4733TIP3    H235835   0.650   3.770   0.102  2.7841 -0.6207 -2.6145
 4734TIP3   OH235836   1.916   2.185   8.432 -0.1951  0.6807 -0.2220
 4734TIP3    H135837   1.996   2.238   8.429  0.5310 -0.4096 -0.7054
 4734TIP3    H235838   1.937   2.108   8.379 -1.4367  0.1879 -0.0183
 4735TIP3   OH235839   3.707   1.249   7.571 -0.0320  0.1136  0.8818
 4735TIP3    H135840   3.766   1.174   7.571  1.5616  1.3082 -0.4052
 4735TIP3    H235841   3.678   1.256   7.662  2.4806 -0.0360  1.7669
 4736TIP3   OH235842   1.878   3.215   1.715 -0.7430  0.0159  0.6387
 4736TIP3    H135843   1.853   3.274   1.787  0.4059 -0.2787  1.2928
 4736TIP3    H235844   1.930   3.147   1.757  0.7458  0.3417 -0.6091
 4737TIP3   OH235845   1.294   4.580   0.387 -0.4171 -0.5804 -0.3725
 4737TIP3    H135846   1.220   4.520   0.377 -0.6278 -0.2603 -0.7993
 4737TIP3    H235847   1.281   4.645   0.318  0.7821 -1.0655 -1.0985
 4738TIP3   OH235848   0.770   1.907   8.013 -0.2444 -0.3118  0.5066
 4738TIP3    H135849   0.824   1.971   7.966  0.4116  0.1240  1.7834
 4738TIP3    H235850   0.753   1.949   8.098 -3.6741  0.1093 -0.2590
 4739TIP3   OH235851   4.430   4.153   1.361  0.4198  0.3120  0.5750
 4739TIP3    H135852   4.483   4.187   1.433  1.9224 -2.2012  0.7787
 4739TIP3    H235853   4.491   4.148   1.287  0.0129 -0.9181  0.2950
 4740TIP3   OH235854   5.997   1.277   2.304  0.4720  0.0812  0.4215
 4740TIP3    H135855   5.930   1.260   2.370 -0.9964 -0.3079 -1.1049
 4740TIP3    H235856   5.948   1.297   2.224  2.1322  3.3660  0.0589
 4741TIP3   OH235857   3.474   4.113   1.988  0.0927 -0.6017 -0.0305
 4741TIP3    H135858   3.534   4.073   2.051  2.7238  2.2212 -0.5196
 4741TIP3    H235859   3.487   4.207   1.998 -0.8204  0.0221 -3.3894
 4742TIP3   OH235860   6.744   2.147   2.215 -0.1538  0.5552 -0.0893
 4742TIP3    H135861   6.761   2.241   2.215 -0.7021  0.7104 -1.9485
 4742TIP3    H235862   6.675   2.135   2.280  2.5953  0.7828  3.1364
 4743TIP3   OH235863   4.669   6.142   7.447 -0.2132 -0.5030 -0.2938
 4743TIP3    H135864   4.688   6.051   7.467  0.9079 -0.1199  0.5474
 4743TIP3    H235865   4.751   6.175   7.410 -0.5569  0.1918 -0.4466
 4744TIP3   OH235866   0.800   5.591   8.129  0.2157 -0.0918 -0.1992
 4744TIP3    H135867   0.794   5.687   8.121 -1.5577 -0.2049 -0.5873
 4744TIP3    H235868   0.714   5.564   8.160  0.9677 -1.5059  0.7678
 4745TIP3   OH235869   3.597   3.209   1.276  0.1601 -0.2377 -0.7166
 4745TIP3    H135870   3.556   3.269   1.338 -0.9495  0.2942 -1.9237
 4745TIP3    H235871   3.651   3.151   1.330 -2.5290 -1.2899  1.0393
 4746TIP3   OH235872   3.936   2.032   2.094  0.0781 -0.4956  0.1370
 4746TIP3    H135873   3.969   1.962   2.152  0.4222 -1.7729 -1.5233
 4746TIP3    H235874   4.003   2.100   2.099  0.4018 -0.8459  0.7862
 4747TIP3   OH235875   3.802   6.113   0.645  0.4452  0.0089  1.0095
 4747TIP3    H135876   3.827   6.021   0.644  0.4206  0.0026  0.9813
 4747TIP3    H235877   3.727   6.119   0.587  2.5714  0.6736 -1.8849
 4748TIP3   OH235878   3.150   5.752   2.886  0.2692  0.0497 -0.4120
 4748TIP3    H135879   3.137   5.839   2.848 -1.1930 -0.8698 -2.1494
 4748TIP3    H235880   3.074   5.739   2.943  0.8775  0.1724  0.4576
 4749TIP3   OH235881   0.156   1.386   0.454 -0.9687 -0.0208 -0.0008
 4749TIP3    H135882   0.085   1.450   0.444 -0.3889  0.6928  0.3999
 4749TIP3    H235883   0.144   1.350   0.542 -1.3374 -0.5333 -0.2518
 4750TIP3   OH235884   1.255   4.796   7.966  0.2034 -0.1505 -0.5062
 4750TIP3    H135885   1.299   4.851   8.031  0.5352  1.1651 -1.7846
 4750TIP3    H235886   1.223   4.721   8.016 -0.8781  1.4962  1.4713
 4751TIP3   OH235887   1.206   1.222   1.916 -0.0291 -0.0484  0.0254
 4751TIP3    H135888   1.155   1.293   1.956  1.0778 -0.8186  3.0771
 4751TIP3    H235889   1.164   1.142   1.947  0.9884 -0.7125 -0.2500
 4752TIP3   OH235890   6.209   6.577   7.314 -0.5421  0.6463  0.8209
 4752TIP3    H135891   6.122   6.568   7.275 -0.3438  1.8189  0.0578
 4752TIP3    H235892   6.246   6.654   7.271  1.3059 -0.4547  0.3216
 4753TIP3   OH235893   3.341   6.078   0.258 -0.1103  0.2276  0.3683
 4753TIP3    H135894   3.282   6.020   0.306  0.3010  0.5926  1.3326
 4753TIP3    H235895   3.294   6.161   0.254 -0.1502  0.1931  0.1177
 4754TIP3   OH235896   0.238   1.321   0.734 -0.3939  0.1382  0.1318
 4754TIP3    H135897   0.251   1.231   0.703 -0.7962  0.7692 -2.0789
 4754TIP3    H235898   0.234   1.313   0.829  0.4392 -2.0638  0.0515
 4755TIP3   OH235899   2.690   5.797   7.975  0.2779  0.0543 -0.3580
 4755TIP3    H135900   2.694   5.782   8.070  0.3365  1.3689 -0.1327
 4755TIP3    H235901   2.671   5.891   7.967  2.1734  0.3602 -1.6569
 4756TIP3   OH235902   0.242   4.186   1.859 -0.1423 -0.3892  0.0967
 4756TIP3    H135903   0.206   4.214   1.775 -0.7999  0.0747  0.5188
 4756TIP3    H235904   0.168   4.146   1.905  0.1095 -0.2887  0.6034
 4757TIP3   OH235905   1.426   5.657   8.255 -0.3231  0.1163  0.4679
 4757TIP3    H135906   1.450   5.582   8.310  0.6175  0.4799  0.5909
 4757TIP3    H235907   1.341   5.686   8.289 -0.0283 -0.0264  1.3718
 4758TIP3   OH235908   4.702   6.453   7.559  0.0950 -0.6370 -0.3060
 4758TIP3    H135909   4.632   6.392   7.537 -1.4959  1.1801 -0.5819
 4758TIP3    H235910   4.668   6.504   7.633  0.9521  0.5427 -0.6740
 4759TIP3   OH235911   2.391   4.024   0.156 -0.6468  0.0910  0.2710
 4759TIP3    H135912   2.308   3.985   0.127 -0.8633  0.2659  0.6451
 4759TIP3    H235913   2.424   4.069   0.079 -0.8539 -0.0624  0.0897
 4760TIP3   OH235914   3.370   1.381   0.480  0.3022 -0.3752 -0.1022
 4760TIP3    H135915   3.304   1.371   0.549 -0.0263 -0.1546 -0.3782
 4760TIP3    H235916   3.431   1.446   0.515 -0.1715  0.1537 -0.2441
 4761TIP3   OH235917   4.302   2.777   0.810 -0.3727 -0.4353 -0.2394
 4761TIP3    H135918   4.278   2.823   0.730 -2.4043  0.5754  0.8743
 4761TIP3    H235919   4.273   2.836   0.880 -1.2025 -2.5135  1.2469
 4762TIP3   OH235920   6.295   1.996   8.947  0.0886 -0.2287 -0.0175
 4762TIP3    H135921   6.332   2.029   8.866  2.3482  1.2694  1.4992
 4762TIP3    H235922   6.212   1.955   8.922  0.4902  0.5998 -2.9549
 4763TIP3   OH235923   6.445   6.180   1.569  0.3075  0.2813  0.7981
 4763TIP3    H135924   6.481   6.209   1.653  0.2354  1.8064  0.3321
 4763TIP3    H235925   6.499   6.225   1.504  0.6323 -1.2033 -0.0128
 4764TIP3   OH235926   2.367   3.805   1.346 -0.5307  0.3012 -0.4522
 4764TIP3    H135927   2.365   3.715   1.316  1.0709  0.4492 -1.0862
 4764TIP3    H235928   2.452   3.839   1.317 -0.1140  1.3202  1.7279
 4765TIP3   OH235929   3.953   2.279   0.456 -0.0646 -0.4470 -0.6658
 4765TIP3    H135930   3.959   2.360   0.507  0.2676  1.5107 -3.5520
 4765TIP3    H235931   4.043   2.259   0.432 -0.2145 -1.3309 -0.5340
 4766TIP3   OH235932   3.323   3.269   7.296  0.1723 -0.3424 -0.3052
 4766TIP3    H135933   3.388   3.229   7.352  1.0707 -0.3765 -1.3344
 4766TIP3    H235934   3.249   3.208   7.297  0.6428 -0.9160 -0.0911
 4767TIP3   OH235935   2.432   0.461   2.985 -0.0987  0.6470  0.5498
 4767TIP3    H135936   2.435   0.532   2.922  0.3390 -0.6520 -0.9528
 4767TIP3    H235937   2.523   0.438   3.001 -0.2387 -0.1627  0.2859
 4768TIP3   OH235938   5.103   6.759   2.233  0.1593  0.1804  0.5210
 4768TIP3    H135939   5.124   6.668   2.250 -0.2843  0.3258  2.0244
 4768TIP3    H235940   5.134   6.806   2.311 -2.5308  0.8570  1.2885
 4769TIP3   OH235941   0.051   2.829   0.733 -0.3689  0.2973  0.2750
 4769TIP3    H135942   0.115   2.897   0.755  0.3329  0.1158 -1.1452
 4769TIP3    H235943   0.092   2.779   0.663 -0.7761 -1.7576  1.4327
 4770TIP3   OH235944   0.674   5.360   1.421 -0.3085 -0.0234  0.3613
 4770TIP3    H135945   0.744   5.295   1.429 -1.1068 -1.0519 -0.5157
 4770TIP3    H235946   0.631   5.360   1.506  0.3380  0.1236  0.6929
 4771TIP3   OH235947   5.616   5.862   2.240 -0.0236  0.6038 -0.0083
 4771TIP3    H135948   5.558   5.817   2.302 -0.9008 -0.5195 -1.5702
 4771TIP3    H235949   5.643   5.941   2.287 -0.8171 -0.0724  1.7163
 4772TIP3   OH235950   1.804   0.002   2.397  0.3455 -0.1282  0.2157
 4772TIP3    H135951   1.755   0.076   2.430 -0.0409 -0.7563  1.0868
 4772TIP3    H235952   1.739  -0.055   2.357  0.3880 -0.8448  1.1495
 4773TIP3   OH235953   2.374   6.061   6.705 -0.2642 -0.2009 -0.1455
 4773TIP3    H135954   2.459   6.019   6.692 -0.8000 -2.3963  2.5031
 4773TIP3    H235955   2.319   5.992   6.742 -2.6432  1.6795  0.0354
 4774TIP3   OH235956   0.981   6.448   1.864  0.3270 -0.2450 -0.0720
 4774TIP3    H135957   0.936   6.520   1.908 -2.2768 -1.4965 -0.4729
 4774TIP3    H235958   1.074   6.465   1.879 -0.1892  2.8102  0.3908
 4775TIP3   OH235959   1.894   2.803   1.657 -0.3988  0.4584 -0.7468
 4775TIP3    H135960   1.816   2.747   1.653  0.6902 -1.1694 -0.3547
 4775TIP3    H235961   1.968   2.741   1.660  0.9296  1.9433 -1.3320
 4776TIP3   OH235962   4.970   4.104   7.627  0.4077  0.5160 -0.0709
 4776TIP3    H135963   4.937   4.188   7.661  0.1369  0.7358 -0.8532
 4776TIP3    H235964   4.985   4.120   7.534  0.7085 -0.2019 -0.1506
 4777TIP3   OH235965   3.112   2.043   1.616 -0.8047 -0.6930 -0.2952
 4777TIP3    H135966   3.044   2.020   1.680 -1.1571 -1.3842 -0.9047
 4777TIP3    H235967   3.171   1.968   1.615 -0.9469 -0.8081 -0.9604
 4778TIP3   OH235968   3.057   0.158   8.228 -0.4298  0.7961 -0.2432
 4778TIP3    H135969   3.029   0.093   8.292 -1.4817 -0.6290 -2.0489
 4778TIP3    H235970   3.132   0.201   8.268 -1.0092 -0.0678  1.8833
 4779TIP3   OH235971   0.435   4.258   0.395 -0.2492  0.2406 -0.2732
 4779TIP3    H135972   0.392   4.297   0.471  1.3849  1.1723  0.2207
 4779TIP3    H235973   0.517   4.222   0.430 -1.9729 -4.6032 -0.4884
 4780TIP3   OH235974   0.463   5.214   1.328  0.1232 -0.2739  0.1815
 4780TIP3    H135975   0.550   5.248   1.351 -0.4813  1.6496 -0.1966
 4780TIP3    H235976   0.451   5.138   1.385  2.5995 -1.4430 -0.7284
 4781TIP3   OH235977   4.797   6.093   1.243 -0.2061  0.1250  0.2705
 4781TIP3    H135978   4.854   6.016   1.245  0.8512  0.8821 -0.0821
 4781TIP3    H235979   4.762   6.099   1.332  0.1868 -0.4016  0.4667
 4782TIP3   OH235980   5.314   5.639   1.942 -0.0743  0.0901 -0.1941
 4782TIP3    H135981   5.307   5.727   1.980  1.0561  0.0819  0.0467
 4782TIP3    H235982   5.253   5.587   1.994  0.0449  0.5000  0.3752
 4783TIP3   OH235983   5.796   5.144   0.624  0.1712  0.4459 -0.0282
 4783TIP3    H135984   5.816   5.050   0.618 -1.7570 -0.0429  0.6642
 4783TIP3    H235985   5.882   5.185   0.631  1.1688 -1.0915 -2.0562
 4784TIP3   OH235986   4.813   1.403   1.975  0.0770  0.1572  0.2310
 4784TIP3    H135987   4.873   1.477   1.974  0.6255 -0.2728  0.4231
 4784TIP3    H235988   4.847   1.344   1.907  0.0558 -0.2301  0.5536
 4785TIP3   OH235989   2.032   6.487   8.565  0.0685 -0.0510 -0.0767
 4785TIP3    H135990   2.074   6.402   8.572  0.5458  0.2389  0.6803
 4785TIP3    H235991   2.102   6.548   8.541 -0.2093  0.1816 -0.3167
 4786TIP3   OH235992   1.482   0.214   8.886 -0.3755  0.5631  0.4743
 4786TIP3    H135993   1.528   0.162   8.820 -1.1939 -0.0149  0.3486
 4786TIP3    H235994   1.445   0.150   8.946 -0.8139  1.0317  0.7068
 4787TIP3   OH235995   6.258   4.886   0.086 -0.0057 -0.7501 -0.9416
 4787TIP3    H135996   6.170   4.850   0.079 -0.9056  0.9281  0.7886
 4787TIP3    H235997   6.303   4.829   0.149 -0.4625 -0.5787 -0.4532
 4788TIP3   OH235998   0.132   3.046   0.478 -0.1858 -0.0356  0.6754
 4788TIP3    H135999   0.136   2.967   0.424  0.8050 -0.2116  0.9899
 4788TIP3    H236000   0.069   3.024   0.548 -1.0142 -0.0184 -0.0513
 4789TIP3   OH236001   4.554   0.456   7.697 -0.4580  0.3392 -0.2725
 4789TIP3    H136002   4.505   0.500   7.766 -2.2059  0.7864 -1.6928
 4789TIP3    H236003   4.580   0.372   7.735 -0.6072  0.9236  1.1735
 4790TIP3   OH236004   2.663   6.003   2.112 -0.2177 -0.2599  0.1555
 4790TIP3    H136005   2.731   6.070   2.103 -0.4209  0.2784  2.2346
 4790TIP3    H236006   2.616   6.006   2.028  1.1079  0.6983 -0.5874
 4791TIP3   OH236007   2.283   3.612   0.125 -0.0575  0.1933  0.4094
 4791TIP3    H136008   2.218   3.674   0.091 -0.8948  0.0583  1.7029
 4791TIP3    H236009   2.366   3.639   0.084 -0.5138  1.7921  0.4634
 4792TIP3   OH236010   2.479   3.877   7.493  0.5688  0.2089 -0.2100
 4792TIP3    H136011   2.522   3.792   7.492  0.7754  0.3029  0.4618
 4792TIP3    H236012   2.542   3.936   7.535 -0.2441  0.3257  0.8902
 4793TIP3   OH236013   5.822   2.358   7.605 -0.0301 -0.2171  0.0885
 4793TIP3    H136014   5.763   2.289   7.576 -1.5447  0.5086  1.2591
 4793TIP3    H236015   5.782   2.439   7.573  0.7769  0.2329  0.1957
 4794TIP3   OH236016   2.692   2.367   2.312  0.1156 -0.0410 -0.0456
 4794TIP3    H136017   2.665   2.287   2.267  0.1574  0.6258 -1.2905
 4794TIP3    H236018   2.785   2.375   2.291  0.3667 -0.2094  0.9505
 4795TIP3   OH236019   1.531   6.191   1.652  0.1708 -0.0354  0.4799
 4795TIP3    H136020   1.444   6.153   1.650 -0.1359  0.6815 -1.2821
 4795TIP3    H236021   1.522   6.269   1.707 -0.6360  0.7790 -0.7755
 4796TIP3   OH236022   1.012   2.538   2.470 -0.6173 -0.2201  0.2363
 4796TIP3    H136023   0.934   2.491   2.500 -0.9621 -0.1359 -0.5051
 4796TIP3    H236024   0.981   2.592   2.397  0.5320 -1.7784 -1.4870
 4797TIP3   OH236025   5.785   3.438   8.371  0.3979 -0.6471  0.7089
 4797TIP3    H136026   5.699   3.397   8.379  0.3905 -0.4278  2.0123
 4797TIP3    H236027   5.828   3.391   8.300 -2.0040  1.4069 -2.3825
 4798TIP3   OH236028   1.096   5.331   7.572  0.7065 -0.3450  0.1123
 4798TIP3    H136029   1.074   5.246   7.533  1.2710 -0.2342 -0.4648
 4798TIP3    H236030   1.104   5.313   7.665  1.3238 -1.0422 -0.0640
 4799TIP3   OH236031   0.923   6.097   7.246  0.2563  0.2900 -0.0200
 4799TIP3    H136032   0.953   6.016   7.205 -0.2572 -0.4210  0.9682
 4799TIP3    H236033   0.968   6.166   7.197  1.0783 -0.6026 -0.5703
 4800TIP3   OH236034   4.858   1.659   2.148 -0.3729  0.0847 -0.7800
 4800TIP3    H136035   4.922   1.687   2.082  0.2685 -1.0260 -0.6535
 4800TIP3    H236036   4.908   1.603   2.207 -0.8714  1.2455  0.8161
 4801TIP3   OH236037   6.086   1.227   6.522  0.2022 -0.1541  0.2885
 4801TIP3    H136038   6.062   1.145   6.479  1.2052 -0.1115 -0.3865
 4801TIP3    H236039   6.015   1.243   6.584 -0.9895 -0.5287 -0.9224
 4802TIP3   OH236040   6.644   4.565   2.090 -0.6769 -0.2857 -0.1240
 4802TIP3    H136041   6.676   4.641   2.140 -0.6204  0.3841 -1.1327
 4802TIP3    H236042   6.564   4.597   2.047  0.7665  0.1150 -2.7194
 4803TIP3   OH236043   3.061   4.738   2.093  0.1643  0.3022  0.0889
 4803TIP3    H136044   3.064   4.804   2.023  1.0176 -1.5297 -1.7225
 4803TIP3    H236045   2.986   4.763   2.147 -1.0560  1.3525 -1.9650
 4804TIP3   OH236046   1.833   2.715   2.220 -0.2924  0.2353  0.1714
 4804TIP3    H136047   1.815   2.759   2.137 -0.8893 -0.5495 -0.1159
 4804TIP3    H236048   1.816   2.783   2.286 -0.6321  0.6150 -0.2947
 4805TIP3   OH236049   2.726   3.355   0.558 -0.4316 -0.3214  0.1741
 4805TIP3    H136050   2.747   3.429   0.501 -0.0713 -0.4178  0.1814
 4805TIP3    H236051   2.799   3.350   0.620  0.0981 -1.3611 -0.5100
 4806TIP3   OH236052   1.575   5.789   0.073 -0.0685 -0.3123  0.0258
 4806TIP3    H136053   1.483   5.764   0.075 -0.0185 -0.5895 -0.8960
 4806TIP3    H236054   1.604   5.778   0.164 -1.5511  2.1945  0.9093
 4807TIP3   OH236055   5.753   6.139   8.134  0.3234 -0.1339 -0.1888
 4807TIP3    H136056   5.730   6.047   8.124 -0.6926  0.1169 -0.2813
 4807TIP3    H236057   5.677   6.179   8.176  1.0247  0.5373  0.4729
 4808TIP3   OH236058   5.723   4.632   8.162  0.6217 -0.4380  0.1459
 4808TIP3    H136059   5.785   4.644   8.091 -0.9435  1.5022 -0.9947
 4808TIP3    H236060   5.733   4.710   8.216 -0.7879 -0.0792 -0.0679
 4809TIP3   OH236061   0.102   3.269   1.514 -0.2560 -0.1229  0.1172
 4809TIP3    H136062   0.058   3.255   1.598  1.2191 -1.5804  0.7105
 4809TIP3    H236063   0.091   3.187   1.467  1.0193 -0.2031 -0.0774
 4810TIP3   OH236064   1.889   6.765   8.637  0.0145 -0.3516  0.0242
 4810TIP3    H136065   1.894   6.680   8.592  0.4312  0.4962 -1.6008
 4810TIP3    H236066   1.963   6.814   8.604  0.4148  0.3012  1.7833
 4811TIP3   OH236067   0.535   5.617   0.356 -0.1067 -0.5535 -0.4989
 4811TIP3    H136068   0.621   5.625   0.315 -0.5712  0.1846 -1.3435
 4811TIP3    H236069   0.554   5.591   0.446  1.0701  0.8256 -0.3144
 4812TIP3   OH236070   0.091   1.727   2.022  0.0683  0.2552 -0.0003
 4812TIP3    H136071  -0.003   1.743   2.013  0.5718  2.7354 -1.6113
 4812TIP3    H236072   0.124   1.803   2.069  1.6672  0.8852 -2.0224
 4813TIP3   OH236073   4.545   0.503   2.145 -0.0835  0.0108  0.0056
 4813TIP3    H136074   4.545   0.583   2.197 -2.2881  0.2514 -0.2792
 4813TIP3    H236075   4.570   0.434   2.207  3.3292  0.9782 -0.0636
 4814TIP3   OH236076   3.963   5.398   0.350  0.2695 -0.0715  0.0716
 4814TIP3    H136077   3.927   5.428   0.434  3.1146 -0.2813  1.5047
 4814TIP3    H236078   3.953   5.303   0.353 -0.9130  0.0134 -0.5289
 4815TIP3   OH236079   5.005   1.767   8.127  0.1010 -0.0001 -0.8100
 4815TIP3    H136080   4.961   1.777   8.043 -0.8222  1.5317 -0.1874
 4815TIP3    H236081   5.090   1.810   8.115  0.2836 -0.4583 -1.1762
 4816TIP3   OH236082   6.355   6.170   8.481  0.6215 -0.0460 -0.2232
 4816TIP3    H136083   6.277   6.164   8.537  1.1584  0.0696  0.5647
 4816TIP3    H236084   6.352   6.091   8.427 -0.9835  0.8328 -1.4886
 4817TIP3   OH236085   6.572   3.794   0.830 -0.7472 -0.2885 -0.2920
 4817TIP3    H136086   6.598   3.882   0.856 -0.1048 -0.9008  1.2887
 4817TIP3    H236087   6.649   3.759   0.784 -1.1892  0.1318 -1.3812
 4818TIP3   OH236088   1.984   4.423   7.722  0.7135 -0.2794  0.1342
 4818TIP3    H136089   2.058   4.377   7.761  0.8565 -1.3220 -1.2979
 4818TIP3    H236090   2.013   4.444   7.633 -0.3583  0.1483 -0.1347
 4819TIP3   OH236091   0.685   4.247   8.157  0.1779  0.2587 -0.0070
 4819TIP3    H136092   0.700   4.218   8.067  0.6428  0.3637  0.0374
 4819TIP3    H236093   0.768   4.233   8.201 -0.9255 -3.0846  1.3368
 4820TIP3   OH236094   2.866   4.741   1.186 -0.0651  0.0496  0.2490
 4820TIP3    H136095   2.790   4.753   1.129 -0.0634  2.8051  0.6955
 4820TIP3    H236096   2.833   4.757   1.275  0.6503 -0.6409  0.6550
 4821TIP3   OH236097   1.315   0.525   0.112 -0.5498  0.2050  0.0838
 4821TIP3    H136098   1.363   0.526   0.029 -0.1076  1.8766  0.3288
 4821TIP3    H236099   1.225   0.545   0.088 -0.6172 -0.2789 -0.0842
 4822TIP3   OH236100   1.891   3.513   7.849 -0.4035 -0.1593  0.5145
 4822TIP3    H136101   1.890   3.467   7.765  0.3187  0.0965  0.3588
 4822TIP3    H236102   1.841   3.592   7.834  0.0212  0.0560  0.2204
 4823TIP3   OH236103   4.799   4.854   1.853  0.6094 -0.1448 -0.2105
 4823TIP3    H136104   4.707   4.880   1.842  0.5283  0.0858  0.8834
 4823TIP3    H236105   4.849   4.930   1.824  0.3899  0.8356  1.7713
 4824TIP3   OH236106   5.751   5.625   1.392  0.5545 -0.0054  0.1430
 4824TIP3    H136107   5.669   5.619   1.344 -0.3335  0.5844  1.5411
 4824TIP3    H236108   5.810   5.565   1.345 -1.0995 -1.6139  0.0003
 4825TIP3   OH236109   3.813   0.037   0.261 -0.1903 -0.3090  0.4256
 4825TIP3    H136110   3.801   0.014   0.353 -0.8352  2.4047  1.1294
 4825TIP3    H236111   3.724   0.052   0.228  0.0412  4.3538  1.1472
 4826TIP3   OH236112   2.205   0.951   1.715 -0.3996  0.1571  0.0573
 4826TIP3    H136113   2.130   0.998   1.679 -0.8138  0.3878  1.1913
 4826TIP3    H236114   2.272   0.958   1.647 -1.3396  0.0882 -0.9064
 4827TIP3   OH236115   4.107   0.198   8.160 -0.4184 -0.4518 -0.1742
 4827TIP3    H136116   4.025   0.208   8.113 -0.4327  0.1565 -0.0258
 4827TIP3    H236117   4.089   0.132   8.227 -0.6249 -0.7302 -0.5059
 4828TIP3   OH236118   0.607   6.129   1.973  0.1348 -0.2812  0.0540
 4828TIP3    H136119   0.615   6.049   2.024  0.5810 -1.1115 -1.2796
 4828TIP3    H236120   0.513   6.137   1.956  0.3086 -1.9415 -1.9543
 4829TIP3   OH236121   5.512   0.437   1.580 -0.2280  0.4980 -0.2306
 4829TIP3    H136122   5.479   0.517   1.621  1.2529  1.4524 -0.8142
 4829TIP3    H236123   5.454   0.368   1.612 -0.4775  1.5234  1.7006
 4830TIP3   OH236124   6.754   3.345   2.524  0.5602 -0.0465 -0.0635
 4830TIP3    H136125   6.790   3.353   2.612 -0.9654  0.2801  0.5646
 4830TIP3    H236126   6.683   3.281   2.533 -0.2783  0.7393 -0.8170
 4831TIP3   OH236127   0.368   1.564   7.773  0.5592 -0.3304  0.6701
 4831TIP3    H136128   0.328   1.482   7.803  0.5516 -1.2654 -1.6545
 4831TIP3    H236129   0.300   1.630   7.785 -1.0271 -1.5017 -1.2995
 4832TIP3   OH236130   5.623   6.533   0.476 -0.2194 -0.3685 -0.0233
 4832TIP3    H136131   5.646   6.566   0.563 -0.3803 -0.3210  0.0006
 4832TIP3    H236132   5.698   6.557   0.421  0.1440 -0.9086  0.2273
 4833TIP3   OH236133   1.830   1.634   8.561 -0.0097  0.1998  0.1321
 4833TIP3    H136134   1.846   1.718   8.604 -2.2661  1.1189 -0.6802
 4833TIP3    H236135   1.839   1.570   8.631 -1.2962  1.4360  1.5036
 4834TIP3   OH236136   2.852   2.739   7.592 -0.7267  0.0509  0.3026
 4834TIP3    H136137   2.924   2.746   7.655 -0.1349 -3.0062  0.1214
 4834TIP3    H236138   2.861   2.816   7.537  1.9541  0.1816  0.7808
 4835TIP3   OH236139   4.912   4.124   1.111  0.3215 -0.0189 -0.4148
 4835TIP3    H136140   4.962   4.107   1.191  0.9562  2.7163 -0.1207
 4835TIP3    H236141   4.823   4.140   1.141  0.6581  1.5008 -0.1200
 4836TIP3   OH236142   0.976   3.045   0.122 -0.7930  0.0368 -0.5560
 4836TIP3    H136143   0.914   3.095   0.069 -0.3929  0.6493 -0.4613
 4836TIP3    H236144   0.986   2.962   0.077 -0.5696  0.4926 -1.3594
 4837TIP3   OH236145   2.379   6.495   8.334  0.2294  0.0922  0.6752
 4837TIP3    H136146   2.298   6.474   8.287  2.0665 -0.5748 -2.4513
 4837TIP3    H236147   2.421   6.410   8.349  1.5464  0.5821 -0.1016
 4838TIP3   OH236148   6.469   5.340   8.533  0.2890 -0.0763  0.2680
 4838TIP3    H136149   6.529   5.289   8.478  0.0449 -0.3108  0.2203
 4838TIP3    H236150   6.512   5.342   8.619  1.1889  1.1805 -0.1794
 4839TIP3   OH236151   3.568   5.268   1.191 -0.0594  0.1852 -0.1452
 4839TIP3    H136152   3.521   5.201   1.140 -0.9320  1.4160 -1.0234
 4839TIP3    H236153   3.626   5.218   1.248  0.4954 -1.2911 -1.8902
 4840TIP3   OH236154   2.522   3.245   6.998 -0.2248 -0.1132  0.2912
 4840TIP3    H136155   2.576   3.166   7.004  0.6302  0.4458  0.1200
 4840TIP3    H236156   2.432   3.214   7.011  0.0718 -1.1493 -0.0481
 4841TIP3   OH236157   5.008   5.491   1.166 -0.5747  0.5116  0.7409
 4841TIP3    H136158   4.988   5.417   1.110  0.0254  0.7375  0.2193
 4841TIP3    H236159   4.944   5.558   1.142  0.5166  1.1074 -0.6756
 4842TIP3   OH236160   6.161   5.237   0.074  0.1621 -0.3628  0.5960
 4842TIP3    H136161   6.132   5.318   0.032 -0.1717  1.0342  3.2402
 4842TIP3    H236162   6.083   5.181   0.075  0.3103 -0.6222 -0.9852
 4843TIP3   OH236163   3.102   5.245   1.527 -0.6811 -0.4004  0.2945
 4843TIP3    H136164   3.090   5.221   1.435 -0.7260  2.2218 -0.4443
 4843TIP3    H236165   3.173   5.188   1.557  0.8551  0.1591 -2.0029
 4844TIP3   OH236166   5.464   0.648   0.228  0.1103 -0.2689 -0.4469
 4844TIP3    H136167   5.547   0.694   0.237  0.5545 -1.0087 -0.6208
 4844TIP3    H236168   5.486   0.556   0.242 -0.8873 -0.3588  0.6426
 4845TIP3   OH236169   0.905   4.555   8.492 -0.3435 -0.1446  0.0317
 4845TIP3    H136170   0.906   4.462   8.518 -1.3019  0.2567  1.6310
 4845TIP3    H236171   0.928   4.602   8.572 -1.7298  1.0865 -0.2605
 4846TIP3   OH236172   0.413   4.892   7.384 -0.2692 -0.3883 -0.4451
 4846TIP3    H136173   0.405   4.878   7.290  1.0821  2.6941 -1.1364
 4846TIP3    H236174   0.331   4.935   7.409  0.5193  1.4537 -0.8763
 4847TIP3   OH236175   2.576   1.611   8.301  0.0691  0.6203 -0.2373
 4847TIP3    H136176   2.544   1.535   8.252 -0.5717  0.2909  0.6805
 4847TIP3    H236177   2.654   1.579   8.346  2.2382  1.6068 -3.0301
 4848TIP3   OH236178   2.282   5.720   0.897  0.2748 -0.4675 -0.4136
 4848TIP3    H136179   2.197   5.720   0.853  1.4529 -2.3294 -2.9747
 4848TIP3    H236180   2.271   5.664   0.973 -1.1740  0.6880  0.2732
 4849TIP3   OH236181   2.020   0.986   7.102  0.2913 -0.0557  0.4255
 4849TIP3    H136182   2.098   0.940   7.069  0.7738  1.0117  0.0457
 4849TIP3    H236183   1.974   0.920   7.154  0.7747 -1.0783 -0.4041
 4850TIP3   OH236184   0.015   2.019   1.132  0.9119 -0.0947 -0.1581
 4850TIP3    H136185   0.032   2.095   1.075 -0.8249  0.1298 -0.4071
 4850TIP3    H236186   0.009   1.945   1.072  3.3385 -0.6196  0.1421
 4851TIP3   OH236187   1.913   4.481   0.573  0.3661 -0.1264 -0.1710
 4851TIP3    H136188   1.982   4.511   0.632 -0.2514 -0.7783  0.9306
 4851TIP3    H236189   1.932   4.388   0.560  0.5761  0.0472 -1.1267
 4852TIP3   OH236190   0.468   3.602   0.472 -0.4455  0.2740 -0.0463
 4852TIP3    H136191   0.552   3.595   0.517 -0.4688 -0.8183 -0.1338
 4852TIP3    H236192   0.443   3.694   0.481  0.3091  0.4113  0.7847
 4853TIP3   OH236193   1.849   3.709   8.553  0.4251  0.2610 -0.1236
 4853TIP3    H136194   1.787   3.642   8.526  0.8213  0.4031 -1.4234
 4853TIP3    H236195   1.896   3.669   8.626  0.1344 -0.5862 -0.3874
 4854TIP3   OH236196   5.643   3.989   8.359 -0.1249  0.1305 -1.1214
 4854TIP3    H136197   5.603   3.902   8.348  1.2122 -0.4678 -1.4211
 4854TIP3    H236198   5.697   3.980   8.437  0.4131  0.5435 -1.4416
 4855TIP3   OH236199   3.771   0.121   8.310  0.8424 -0.1591  0.7757
 4855TIP3    H136200   3.776   0.050   8.245 -0.3037  0.1529  0.3339
 4855TIP3    H236201   3.684   0.112   8.349  1.1276  0.3079  1.5313
 4856TIP3   OH236202   3.569   2.580   8.927 -0.3978 -0.1054  0.2867
 4856TIP3    H136203   3.573   2.666   8.885  0.1034 -0.7652 -1.0707
 4856TIP3    H236204   3.497   2.587   8.990 -0.6243  1.1665 -0.0879
 4857TIP3   OH236205   3.689   5.834   0.737 -0.1675  0.2864 -0.1106
 4857TIP3    H136206   3.694   5.762   0.801 -0.5901  1.2588  1.0496
 4857TIP3    H236207   3.663   5.910   0.788  1.1208  1.4802 -1.1702
 4858TIP3   OH236208   2.954   1.815   7.408 -0.3953 -0.1281  0.1168
 4858TIP3    H136209   3.030   1.767   7.375 -0.8484  0.5078 -2.0780
 4858TIP3    H236210   2.929   1.769   7.487  0.8524 -1.8063 -0.4012
 4859TIP3   OH236211   6.507   2.766   8.764  0.4180  0.4632  0.1623
 4859TIP3    H136212   6.443   2.802   8.703  0.0265  0.8806  0.8093
 4859TIP3    H236213   6.571   2.721   8.708 -0.5062 -0.0721 -0.4863
 4860TIP3   OH236214   4.797   5.937   0.976  0.2375 -0.2199  0.2073
 4860TIP3    H136215   4.887   5.945   0.944 -0.2839 -0.1198 -1.3515
 4860TIP3    H236216   4.797   5.983   1.059  1.8317 -1.0148  0.6896
 4861TIP3   OH236217   3.243   4.638   0.510  0.2747 -0.1465  0.0967
 4861TIP3    H136218   3.238   4.680   0.424  0.0575 -1.4229 -0.5509
 4861TIP3    H236219   3.248   4.710   0.572  0.4350  0.8096 -0.9881
 4862TIP3   OH236220   5.871   5.672   8.099  0.3296  0.5629 -1.1166
 4862TIP3    H136221   5.957   5.631   8.098 -0.3575 -0.9950 -0.2289
 4862TIP3    H236222   5.810   5.599   8.110 -0.8764  1.9157  2.5362
 4863TIP3   OH236223   6.533   3.374   7.742  0.1767  0.5216  0.7415
 4863TIP3    H136224   6.601   3.414   7.687  0.6887  0.6626  1.4585
 4863TIP3    H236225   6.492   3.448   7.786  0.7622  0.3199  1.6618
 4864TIP3   OH236226   1.872   2.447   6.727  0.0574 -0.6217  0.1745
 4864TIP3    H136227   1.781   2.424   6.712 -1.1844  1.9791  2.6202
 4864TIP3    H236228   1.899   2.493   6.648 -1.6693  0.7923  0.3384
 4865TIP3   OH236229   2.487   0.065   8.426 -0.3930  0.5850 -0.3408
 4865TIP3    H136230   2.551   0.034   8.362  1.3854 -0.0164  1.6158
 4865TIP3    H236231   2.438   0.133   8.380  1.6083  1.0060 -1.9693
 4866TIP3   OH236232   2.329   0.690   0.908 -0.0422  0.1349 -0.3257
 4866TIP3    H136233   2.238   0.664   0.914  0.2321 -1.3728 -2.0202
 4866TIP3    H236234   2.329   0.784   0.928 -2.0208  0.2745 -0.8265
 4867TIP3   OH236235   6.582   1.392   8.753 -0.4975 -0.1952  0.0075
 4867TIP3    H136236   6.496   1.432   8.767 -0.6428 -0.7443  0.7460
 4867TIP3    H236237   6.564   1.299   8.738  0.0347 -0.5602  1.4432
 4868TIP3   OH236238   0.154   3.818   1.063  0.1303 -0.3100 -0.5001
 4868TIP3    H136239   0.162   3.780   1.150 -1.3522 -1.2777 -0.7484
 4868TIP3    H236240   0.163   3.744   1.003  4.0776  0.7032 -1.4120
 4869TIP3   OH236241   0.007   5.400   1.487  0.0218 -0.4174  0.2486
 4869TIP3    H136242  -0.020   5.376   1.576 -0.3369 -0.4904  0.1248
 4869TIP3    H236243   0.032   5.492   1.493 -0.3285 -0.3280  0.3566
 4870TIP3   OH236244   5.270   4.605   7.324 -0.1871 -0.1486  1.0840
 4870TIP3    H136245   5.206   4.666   7.361  0.4904  0.4865  1.2302
 4870TIP3    H236246   5.217   4.545   7.271 -0.7981  1.0440  0.2958
 4871TIP3   OH236247   4.419   1.115   1.922  0.0768  0.3836  0.2525
 4871TIP3    H136248   4.444   1.024   1.906  1.0528  0.8289 -0.9967
 4871TIP3    H236249   4.489   1.166   1.880 -0.5193  1.7087  0.8155
 4872TIP3   OH236250   0.671   6.222   1.232 -0.5247  0.2957 -0.0256
 4872TIP3    H136251   0.632   6.308   1.215  1.0120  0.8664 -0.8232
 4872TIP3    H236252   0.690   6.187   1.146 -1.1345 -0.8755  0.2955
 4873TIP3   OH236253   6.476   2.371   1.187 -0.6522 -0.4094 -0.3190
 4873TIP3    H136254   6.441   2.439   1.130  0.7119  0.2325 -0.4206
 4873TIP3    H236255   6.536   2.416   1.245 -1.0969 -1.2547  0.8479
 4874TIP3   OH236256   2.838   1.040   2.261  0.1232 -0.4583 -0.1472
 4874TIP3    H136257   2.794   1.107   2.209 -0.3830 -0.4265  0.3068
 4874TIP3    H236258   2.811   0.957   2.222  1.1295 -0.4075 -1.0099
 4875TIP3   OH236259   3.654   3.697   0.529 -0.3042 -0.3558  0.2314
 4875TIP3    H136260   3.697   3.764   0.582 -0.4635 -0.4263  0.4494
 4875TIP3    H236261   3.721   3.631   0.515 -0.2063 -0.2479  0.1872
 4876TIP3   OH236262   2.400   4.513   8.951  0.3603 -0.1408 -0.2270
 4876TIP3    H136263   2.464   4.451   8.917  0.6135  0.0375 -0.0756
 4876TIP3    H236264   2.443   4.555   9.025 -0.7397 -1.6803  1.3788
 4877TIP3   OH236265   2.925   3.775   7.987 -0.2388  0.2867  0.0588
 4877TIP3    H136266   2.905   3.868   7.975 -2.4975  0.0164  1.2705
 4877TIP3    H236267   2.897   3.734   7.905 -1.8601  0.3474  0.5493
 4878TIP3   OH236268   0.104   0.485   7.834  0.0116 -0.2192 -0.9365
 4878TIP3    H136269   0.097   0.410   7.775  0.9049  0.1528 -1.5365
 4878TIP3    H236270   0.194   0.483   7.865 -0.5383 -0.5946  0.6899
 4879TIP3   OH236271   4.944   1.697   7.625 -0.2304  0.6629 -0.0226
 4879TIP3    H136272   4.937   1.611   7.584  0.2989  1.9354 -2.9926
 4879TIP3    H236273   4.856   1.734   7.618 -0.1940  0.8011  0.2368
 4880TIP3   OH236274   1.836   1.108   8.564 -0.1143  0.3659  0.8208
 4880TIP3    H136275   1.898   1.180   8.553  0.5865 -0.2197  0.8891
 4880TIP3    H236276   1.841   1.087   8.657 -0.1701  0.0969  0.7637
 4881TIP3   OH236277   3.541   1.913   8.280 -0.6772 -0.1739 -0.1433
 4881TIP3    H136278   3.520   1.991   8.331  1.2494 -0.2003  0.7725
 4881TIP3    H236279   3.551   1.843   8.344  1.3355 -0.3099 -0.5380
 4882TIP3   OH236280   1.105   3.341   1.350 -0.6671  0.5946  0.0183
 4882TIP3    H136281   1.187   3.388   1.335 -1.2819  1.0197 -2.4303
 4882TIP3    H236282   1.050   3.402   1.399  0.5703  0.1472  2.0602
 4883TIP3   OH236283   5.990   4.044   7.957  0.4500  0.4698  0.2340
 4883TIP3    H136284   5.909   4.051   8.007  0.3337  0.4952  0.0447
 4883TIP3    H236285   6.046   3.986   8.010  0.3370  0.5124  0.4000
 4884TIP3   OH236286   5.436   3.785   0.438 -0.3686  0.1922 -0.0946
 4884TIP3    H136287   5.475   3.728   0.371  0.7464  0.8501 -0.0247
 4884TIP3    H236288   5.360   3.825   0.395  2.0107  2.9675 -2.1031
 4885TIP3   OH236289   4.465   2.110   0.953 -0.0146  0.4443  0.4790
 4885TIP3    H136290   4.463   2.141   1.043 -2.6460 -0.5324  0.8292
 4885TIP3    H236291   4.414   2.174   0.904  1.2575  0.8809 -0.3521
 4886TIP3   OH236292   2.555   1.006   0.893  0.1159  0.1871  0.5133
 4886TIP3    H136293   2.569   1.013   0.799 -0.7976  0.7919  0.4039
 4886TIP3    H236294   2.459   1.005   0.902  0.1889 -1.0200  1.3525
 4887TIP3   OH236295   0.637   4.144   0.020 -0.3568 -0.3918 -0.1076
 4887TIP3    H136296   0.728   4.120   0.001  0.3956  0.4119  2.1041
 4887TIP3    H236297   0.590   4.061   0.018  0.4834 -0.8672 -0.9698
 4888TIP3   OH236298   0.237   5.331   6.491 -0.6892  0.2622 -0.1777
 4888TIP3    H136299   0.300   5.259   6.494 -0.4505  0.4103 -1.1220
 4888TIP3    H236300   0.154   5.288   6.471 -0.7120  0.1589  0.1395
 4889TIP3   OH236301   5.034   3.914   0.631  0.7233 -0.3409  0.4978
 4889TIP3    H136302   5.108   3.854   0.639  1.4038  0.6023  1.5979
 4889TIP3    H236303   5.024   3.952   0.718  0.1032  0.9028 -0.0886
 4890TIP3   OH236304   3.849   2.944   0.959  0.2703  0.5566  0.8105
 4890TIP3    H136305   3.796   2.998   0.901  0.6682 -0.4052 -0.4985
 4890TIP3    H236306   3.927   2.996   0.975 -1.0393  2.0314  2.8415
 4891TIP3   OH236307   0.308   2.004   7.232 -0.3717  0.0808  0.5454
 4891TIP3    H136308   0.330   1.948   7.306  0.7058  0.6297  0.6538
 4891TIP3    H236309   0.301   2.092   7.269 -0.7702  0.2152  0.1589
 4892TIP3   OH236310   3.594   3.825   2.342  0.1155  0.2710 -0.3076
 4892TIP3    H136311   3.501   3.801   2.341 -0.1188  1.1101  0.1757
 4892TIP3    H236312   3.640   3.743   2.358 -0.6448  0.0768  1.0478
 4893TIP3   OH236313   1.656   4.300   1.235 -0.1074 -0.2741  0.0150
 4893TIP3    H136314   1.659   4.296   1.139  0.3242 -1.2331  0.0591
 4893TIP3    H236315   1.635   4.391   1.254  0.9444  0.2046 -0.9705
 4894TIP3   OH236316   6.011   2.304   2.265 -0.0346  0.2309  0.4036
 4894TIP3    H136317   5.931   2.357   2.258  0.5012  1.1750  1.1268
 4894TIP3    H236318   6.035   2.309   2.358 -0.8081 -2.5887  0.8266
 4895TIP3   OH236319   4.797   3.605   0.365  0.0817  0.3398  0.0395
 4895TIP3    H136320   4.893   3.603   0.363  0.0672  0.0342 -0.7870
 4895TIP3    H236321   4.776   3.673   0.430  0.8240 -1.0579  1.8123
 4896TIP3   OH236322   0.828   1.843   1.813 -0.1694 -0.3152  0.5144
 4896TIP3    H136323   0.779   1.807   1.739  0.2638  0.6103 -0.2390
 4896TIP3    H236324   0.909   1.876   1.775  0.4455 -0.5900  1.5403
 4897TIP3   OH236325   3.851   4.847   2.417 -0.0497  0.1438 -0.5018
 4897TIP3    H136326   3.917   4.856   2.485  0.7040 -0.9385 -1.0658
 4897TIP3    H236327   3.810   4.933   2.412  0.6012  0.5399  0.5690
 4898TIP3   OH236328   0.740   1.684   8.276 -0.0572  0.0507  0.1402
 4898TIP3    H136329   0.742   1.627   8.199  0.2214 -0.5501  0.5815
 4898TIP3    H236330   0.817   1.740   8.266 -0.7158  0.8434 -0.6491
 4899TIP3   OH236331   1.931   5.493   1.911 -0.1805  0.8040 -0.4889
 4899TIP3    H136332   1.961   5.446   1.833 -0.3716 -1.2638  0.6037
 4899TIP3    H236333   1.963   5.440   1.984 -0.9946  2.0547  0.8198
 4900TIP3   OH236334   6.472   2.338   2.180 -0.1827  0.3542  0.4783
 4900TIP3    H136335   6.403   2.388   2.225 -1.0620  1.3483 -1.7681
 4900TIP3    H236336   6.513   2.403   2.122  1.5176 -0.6278  0.5428
 4901TIP3   OH236337   6.100   4.472   7.805 -0.7031  0.0054 -0.0811
 4901TIP3    H136338   6.024   4.417   7.787 -1.2387  0.4491  0.7649
 4901TIP3    H236339   6.140   4.433   7.883 -0.9026  0.6163  0.3336
 4902TIP3   OH236340   4.046   2.926   0.281  0.0306 -0.4145  0.0405
 4902TIP3    H136341   4.038   3.013   0.320 -0.7475 -0.9203  1.0566
 4902TIP3    H236342   3.977   2.922   0.214  1.2824  0.4063 -1.3645
 4903TIP3   OH236343   1.728   0.285   0.443 -0.0087 -0.7093 -0.4690
 4903TIP3    H136344   1.663   0.275   0.513  1.3740 -0.5751  0.8859
 4903TIP3    H236345   1.699   0.363   0.395  0.2453  0.5969  1.3860
 4904TIP3   OH236346   4.948   2.191   7.400 -0.1412 -0.2396  0.1952
 4904TIP3    H136347   5.038   2.162   7.419 -0.7581 -3.0629 -0.6831
 4904TIP3    H236348   4.953   2.230   7.313  0.4010  0.7323  0.6401
 4905TIP3   OH236349   0.108   6.082   1.221 -0.4388  0.0786  0.3591
 4905TIP3    H136350   0.152   6.009   1.176 -0.8972 -0.0011  0.0268
 4905TIP3    H236351   0.017   6.078   1.188 -0.4900  0.7307  0.4222
 4906TIP3   OH236352   2.317   1.263   0.557  0.1121 -0.2011 -0.0544
 4906TIP3    H136353   2.309   1.338   0.616 -0.1425  0.5400 -0.9912
 4906TIP3    H236354   2.394   1.283   0.503  0.4923 -0.9857  0.1877
 4907TIP3   OH236355   1.477   0.887   0.206  0.3566 -0.2666 -0.4143
 4907TIP3    H136356   1.446   0.853   0.122  1.0292  4.3016 -2.8073
 4907TIP3    H236357   1.400   0.931   0.243  0.7401  0.0492  0.0107
 4908TIP3   OH236358   5.746   5.726   7.100  0.0652  0.6462 -0.3784
 4908TIP3    H136359   5.804   5.802   7.090 -0.8490  1.4493  0.2295
 4908TIP3    H236360   5.733   5.719   7.195  0.0182 -0.1884 -0.4389
 4909TIP3   OH236361   0.472   4.335   0.768 -0.2213 -0.3582  0.6435
 4909TIP3    H136362   0.395   4.364   0.718  1.0828  0.5038 -0.9349
 4909TIP3    H236363   0.509   4.416   0.802  1.3956 -0.4740 -0.7379
 4910TIP3   OH236364   1.154   0.131   0.172  0.2698 -0.0532  0.6500
 4910TIP3    H136365   1.085   0.171   0.118  0.6503  1.3372  1.1586
 4910TIP3    H236366   1.141   0.168   0.259  1.4673  0.0132  0.8197
 4911TIP3   OH236367   6.177   4.784   8.771 -0.1342  0.7968  0.4899
 4911TIP3    H136368   6.133   4.812   8.692 -0.5401  1.8816  1.0824
 4911TIP3    H236369   6.271   4.792   8.751 -0.2077 -0.0033 -0.2338
 4912TIP3   OH236370   1.246   2.582   8.962 -0.2915  0.2244 -0.0976
 4912TIP3    H136371   1.257   2.547   9.051  0.8654  1.9948  0.5309
 4912TIP3    H236372   1.279   2.514   8.905  1.1800 -0.0433  1.0070
 4913TIP3   OH236373   5.106   3.843   1.589  0.6748 -0.4316 -0.4063
 4913TIP3    H136374   5.153   3.818   1.510  0.7591  0.8612 -0.7969
 4913TIP3    H236375   5.068   3.928   1.568 -1.6105 -1.2955  0.0035
 4914TIP3   OH236376   2.841   0.402   0.019 -0.6181  0.7538  0.3727
 4914TIP3    H136377   2.910   0.354  -0.027 -1.2582 -0.0749  0.2530
 4914TIP3    H236378   2.870   0.406   0.110 -0.5030  0.2332  0.3604
 4915TIP3   OH236379   6.590   1.095   7.304  0.1739 -0.2239  0.0501
 4915TIP3    H136380   6.560   1.006   7.284  0.1968 -0.2690  0.2136
 4915TIP3    H236381   6.561   1.147   7.229  0.2624 -0.3911 -0.1029
 4916TIP3   OH236382   3.329   4.763   0.950 -0.1361  0.5358 -0.6679
 4916TIP3    H136383   3.375   4.699   1.004 -0.0612  0.8292 -0.3809
 4916TIP3    H236384   3.370   4.754   0.863 -0.4140 -0.0920 -0.7382
 4917TIP3   OH236385   5.645   2.157   7.529  0.1868 -0.0414  0.3172
 4917TIP3    H136386   5.634   2.174   7.435  1.4815 -1.5557 -0.1556
 4917TIP3    H236387   5.570   2.200   7.570  1.3465  3.6051 -1.0181
 4918TIP3   OH236388   3.164   0.708   8.856  0.1661  0.7099  0.1264
 4918TIP3    H136389   3.187   0.621   8.888 -1.5917 -0.5306 -1.7589
 4918TIP3    H236390   3.154   0.761   8.935 -0.1688 -1.1678  1.3991
 4919TIP3   OH236391   4.525   6.554   2.042  0.1927 -0.1936 -0.0533
 4919TIP3    H136392   4.512   6.462   2.018 -0.0894 -0.0983 -0.2719
 4919TIP3    H236393   4.440   6.581   2.078 -0.0466  0.2751 -0.9551
 4920TIP3   OH236394   1.057   5.598   1.560 -0.9081 -0.4676  0.0363
 4920TIP3    H136395   1.033   5.590   1.468  1.6491 -2.9069 -0.5630
 4920TIP3    H236396   1.094   5.686   1.569 -2.1829  0.1981 -0.9537
 4921TIP3   OH236397   0.741   4.365   7.304  0.2870 -0.4278  0.4806
 4921TIP3    H136398   0.763   4.296   7.242  0.2522  0.6280 -0.7597
 4921TIP3    H236399   0.649   4.385   7.287 -0.2522 -1.3187  2.1203
 4922TIP3   OH236400   6.028   5.430   2.221  0.3465 -0.0192 -0.0203
 4922TIP3    H136401   6.114   5.392   2.237  0.1171 -0.6309 -0.1932
 4922TIP3    H236402   5.985   5.367   2.163 -1.6028 -1.7289  2.9873
 4923TIP3   OH236403   6.021   5.252   7.329  0.0721 -0.4999 -0.0577
 4923TIP3    H136404   5.961   5.182   7.302  0.0894 -0.9142  0.9258
 4923TIP3    H236405   6.105   5.228   7.290 -0.1020 -0.5993 -0.3805
 4924TIP3   OH236406   1.895   0.829   0.001  0.4497 -0.0910 -0.7217
 4924TIP3    H136407   1.981   0.847   0.037 -0.5804  0.6112  1.5891
 4924TIP3    H236408   1.836   0.829   0.077 -1.9411  1.6598 -2.3941
 4925TIP3   OH236409   5.305   4.527   2.609 -0.0188  0.1292 -0.0841
 4925TIP3    H136410   5.350   4.608   2.633 -0.7227  0.3456  0.5293
 4925TIP3    H236411   5.245   4.553   2.539 -1.4061  0.4863  1.2035
 4926TIP3   OH236412   6.474   1.038   8.150 -0.4740  0.1334 -0.5210
 4926TIP3    H136413   6.455   0.985   8.228 -0.0006 -2.0292 -1.7865
 4926TIP3    H236414   6.496   1.124   8.185 -1.6320 -0.3692  1.6406
 4927TIP3   OH236415   3.002   1.574   0.710 -0.6400 -0.0556 -0.2433
 4927TIP3    H136416   2.969   1.487   0.735 -0.2692 -0.3766 -0.8452
 4927TIP3    H236417   2.969   1.587   0.621  0.0399  0.0347 -0.4878
 4928TIP3   OH236418   4.859   4.606   0.967 -0.0765 -0.2902  0.1603
 4928TIP3    H136419   4.871   4.651   1.050  1.0866 -1.6084  0.7469
 4928TIP3    H236420   4.930   4.542   0.964  1.0273  0.9112 -2.6712
 4929TIP3   OH236421   2.788   0.111   7.158  0.4384 -0.2722  1.0674
 4929TIP3    H136422   2.805   0.199   7.123 -1.2512  0.5801  2.2444
 4929TIP3    H236423   2.737   0.127   7.237 -1.8491 -2.3964  0.1341
 4930TIP3   OH236424   5.920   0.969   8.239 -0.4893  0.0466  0.2854
 4930TIP3    H136425   5.880   1.048   8.275  0.3889  1.2742 -1.2975
 4930TIP3    H236426   5.974   1.001   8.167 -0.4302 -2.0573 -0.6631
 4931TIP3   OH236427   5.218   2.579   8.927  0.2659 -0.3280 -0.2399
 4931TIP3    H136428   5.296   2.541   8.967  1.8257  0.8539 -1.9675
 4931TIP3    H236429   5.161   2.505   8.909  2.0162 -1.5375 -1.0618
 4932TIP3   OH236430   1.434   5.020   7.398  0.0668  0.2178  0.0127
 4932TIP3    H136431   1.387   5.103   7.401 -0.9710 -0.3478  0.1595
 4932TIP3    H236432   1.376   4.959   7.444  0.0664 -0.9345 -1.4422
 4933TIP3   OH236433   4.524   0.077   0.279 -0.7176 -0.1641  0.2791
 4933TIP3    H136434   4.612   0.113   0.291 -0.2852 -1.1358  0.1189
 4933TIP3    H236435   4.479   0.140   0.222  0.3361 -0.3542 -0.8048
 4934TIP3   OH236436   6.143   0.514   1.370 -0.2171  0.3343 -0.8078
 4934TIP3    H136437   6.180   0.553   1.450  0.0869  0.3135 -0.9382
 4934TIP3    H236438   6.051   0.498   1.392 -0.5522  1.8079 -0.9839
 4935TIP3   OH236439   1.048   4.344   1.293  0.2072  0.3786 -0.0054
 4935TIP3    H136440   1.070   4.378   1.380  0.6361  1.7975 -0.6279
 4935TIP3    H236441   0.956   4.320   1.299  0.0154  1.2109  0.6399
 4936TIP3   OH236442   4.369   4.496   6.370 -0.4775  0.3114  0.3530
 4936TIP3    H136443   4.445   4.541   6.333 -0.2224  0.6428  1.2433
 4936TIP3    H236444   4.313   4.567   6.403 -1.1188  0.0659 -0.1791
 4937TIP3   OH236445   6.284   3.210   8.653  0.1962  0.0317  0.5036
 4937TIP3    H136446   6.238   3.247   8.729 -0.5372 -1.1999  0.6849
 4937TIP3    H236447   6.240   3.250   8.577  0.2323  0.4567  0.7018
 4938TIP3   OH236448   0.728   5.873   8.049 -0.8289  0.2981 -0.3563
 4938TIP3    H136449   0.730   5.953   8.101  0.4933  0.2014 -0.2281
 4938TIP3    H236450   0.674   5.895   7.973  0.5169  1.7436 -0.9613
 4939TIP3   OH236451   5.988   5.932   7.944  0.4553  0.1223 -0.0277
 4939TIP3    H136452   6.040   5.854   7.963 -0.1178 -0.3505 -0.3933
 4939TIP3    H236453   5.907   5.919   7.993  1.4146  1.7928  2.2362
 4940TIP3   OH236454   1.252   2.385   2.434  0.1179  0.3263  0.2950
 4940TIP3    H136455   1.163   2.420   2.441 -0.5529 -1.2104  0.0048
 4940TIP3    H236456   1.272   2.354   2.522  0.4489  0.8378  0.4030
 4941TIP3   OH236457   6.045   3.467   0.393  0.2049 -0.1886 -0.1463
 4941TIP3    H136458   6.079   3.382   0.366  1.4756  0.2967 -0.1662
 4941TIP3    H236459   6.121   3.512   0.431 -0.9190  0.1404  1.8420
 4942TIP3   OH236460   0.998   5.226   7.818 -0.7946  0.4056  0.4607
 4942TIP3    H136461   0.904   5.234   7.830 -0.8807  2.0376 -0.9450
 4942TIP3    H236462   1.036   5.258   7.900 -1.4611  0.9362  0.5672
 4943TIP3   OH236463   3.320   6.706   6.864  0.1270  0.8596 -0.1239
 4943TIP3    H136464   3.346   6.720   6.773 -0.8710  2.0149 -0.2416
 4943TIP3    H236465   3.232   6.670   6.859  0.1012  0.8406  0.3967
 4944TIP3   OH236466   6.457   6.012   1.311  0.0075  0.0502 -0.2093
 4944TIP3    H136467   6.418   6.062   1.383  0.7889  0.7045 -0.2295
 4944TIP3    H236468   6.382   5.986   1.256 -0.8169 -1.9949  1.7386
 4945TIP3   OH236469   1.576   3.229   7.747 -0.3512 -0.1910 -0.6207
 4945TIP3    H136470   1.668   3.208   7.729 -0.2460  0.2950 -0.6679
 4945TIP3    H236471   1.527   3.179   7.682  0.0040  1.2480 -2.0579
 4946TIP3   OH236472   4.691   6.577   8.254 -0.1282 -0.2437 -0.3688
 4946TIP3    H136473   4.643   6.547   8.177  0.6433  3.7665 -2.6972
 4946TIP3    H236474   4.779   6.598   8.221  0.1489  1.9227  1.4639
 4947TIP3   OH236475   4.663   4.025   8.822 -0.0333 -0.0610 -0.5779
 4947TIP3    H136476   4.717   3.953   8.790  0.2271  0.3128 -0.9908
 4947TIP3    H236477   4.723   4.098   8.833  0.0610 -0.4250  1.6941
 4948TIP3   OH236478   5.098   5.958   8.742  0.2000  0.3241 -0.1447
 4948TIP3    H136479   5.176   5.905   8.729 -0.5719 -0.4957 -1.7820
 4948TIP3    H236480   5.058   5.923   8.822  0.6387 -0.3891 -0.2285
 4949TIP3   OH236481   6.630   3.058   0.713  0.1205 -0.4350  0.0294
 4949TIP3    H136482   6.623   3.011   0.796  0.6495 -2.7762 -1.1774
 4949TIP3    H236483   6.539   3.071   0.685 -0.1015  1.1697  1.3332
 4950TIP3   OH236484   6.540   6.277   8.312  0.1443  0.1541  0.0757
 4950TIP3    H136485   6.478   6.217   8.352  0.5541 -2.2618 -2.6122
 4950TIP3    H236486   6.504   6.295   8.225  2.6925 -0.6421 -1.2504
 4951TIP3   OH236487   0.998   2.327   0.906 -0.3316 -0.3087  0.1478
 4951TIP3    H136488   1.033   2.250   0.950 -0.8100 -1.5553 -1.5359
 4951TIP3    H236489   1.076   2.379   0.884 -0.0450  0.0332  1.8096
 4952TIP3   OH236490   2.880   5.653   7.562  1.0284 -0.2992 -0.5429
 4952TIP3    H136491   2.808   5.596   7.590 -0.0029  1.7756  1.3881
 4952TIP3    H236492   2.858   5.676   7.472  0.2785 -1.1626 -0.5964
 4953TIP3   OH236493   5.972   3.070   1.264  0.3426 -0.0294 -0.3315
 4953TIP3    H136494   5.917   3.095   1.191 -0.4471  0.1526  0.3144
 4953TIP3    H236495   6.050   3.031   1.224 -1.0881 -2.0840 -1.2498
 4954TIP3   OH236496   3.211   1.280   2.369 -0.0186 -0.2330 -0.3603
 4954TIP3    H136497   3.234   1.370   2.349 -0.1557  0.1055  0.9295
 4954TIP3    H236498   3.115   1.278   2.365 -0.0288 -0.2505 -0.1598
 4955TIP3   OH236499   4.200   6.478   1.369  0.1107 -0.2484  0.3042
 4955TIP3    H136500   4.293   6.496   1.358  0.0513 -0.4378 -0.5549
 4955TIP3    H236501   4.165   6.475   1.280 -0.9304  0.9187  0.6340
 4956TIP3   OH236502   0.873   3.073   7.798 -0.4569  0.4928  0.1883
 4956TIP3    H136503   0.827   3.031   7.725  0.4405  0.0708 -0.1622
 4956TIP3    H236504   0.886   3.003   7.862  1.6439 -0.0191 -0.6876
 4957TIP3   OH236505   5.243   6.743   0.681  0.1044 -0.0209  0.2016
 4957TIP3    H136506   5.243   6.656   0.641  0.7882  0.5480 -1.0921
 4957TIP3    H236507   5.175   6.791   0.633  2.0207  1.1626 -1.5111
 4958TIP3   OH236508   2.087   6.373   1.284  0.5024  0.3100  0.5059
 4958TIP3    H136509   2.015   6.435   1.296  0.8381  0.5919  1.1041
 4958TIP3    H236510   2.109   6.379   1.192 -0.1192  0.3595  0.3557
 4959TIP3   OH236511   5.928   0.005   7.851 -0.2106 -0.3874  0.2953
 4959TIP3    H136512   5.954   0.052   7.771 -1.3210 -0.3066 -0.0372
 4959TIP3    H236513   5.900  -0.081   7.820 -0.6755 -0.3460  0.6007
 4960TIP3   OH236514   5.719   0.788   0.247  0.3757  0.1255  0.0729
 4960TIP3    H136515   5.699   0.868   0.198  0.1096  1.0378  1.6262
 4960TIP3    H236516   5.794   0.750   0.201 -1.2179 -0.2809 -2.3795
 4961TIP3   OH236517   2.123   2.900   6.970  0.5157 -0.2903 -0.0940
 4961TIP3    H136518   2.156   2.866   6.887  0.3785  0.9409 -0.6788
 4961TIP3    H236519   2.060   2.834   7.000  0.4693 -0.6863 -1.0309
 4962TIP3   OH236520   0.211   1.612   0.022 -0.2948 -0.1496  0.4839
 4962TIP3    H136521   0.249   1.635   0.107  2.3349  1.5609 -1.0342
 4962TIP3    H236522   0.258   1.533  -0.004 -1.2144 -0.7656  0.6539
 4963TIP3   OH236523   0.550   0.471   0.083  0.6442  0.0278 -0.0346
 4963TIP3    H136524   0.480   0.534   0.065  2.0491  1.4815 -0.7018
 4963TIP3    H236525   0.626   0.526   0.102  1.4184 -1.5127  1.5121
 4964TIP3   OH236526   2.926   6.299   7.213  0.3274 -0.1232  0.2745
 4964TIP3    H136527   2.929   6.386   7.175  0.4563  0.0712  0.7237
 4964TIP3    H236528   3.010   6.259   7.190  0.3964 -0.0148  0.3405
 4965TIP3   OH236529   5.437   6.391   1.551  0.4795 -0.3434  0.0323
 4965TIP3    H136530   5.357   6.370   1.600  1.2434  0.1473  1.5284
 4965TIP3    H236531   5.442   6.322   1.485 -1.5881  0.0468 -0.6345
 4966TIP3   OH236532   2.222   1.729   7.982 -0.0066 -0.3307  0.4830
 4966TIP3    H136533   2.177   1.763   7.905  1.0077 -0.6399 -0.2556
 4966TIP3    H236534   2.278   1.659   7.949 -0.0161 -0.8855  1.5945
 4967TIP3   OH236535   4.464   5.906   8.689 -0.0078 -0.4349 -0.2158
 4967TIP3    H136536   4.438   5.960   8.763  1.9781 -0.3432  0.4531
 4967TIP3    H236537   4.382   5.890   8.642 -0.8960  1.7344  0.4821
 4968TIP3   OH236538   5.162   4.873   7.930  0.2277 -0.5049 -0.5810
 4968TIP3    H136539   5.233   4.809   7.915 -0.6514 -1.5951 -0.2416
 4968TIP3    H236540   5.092   4.845   7.871  0.4998  1.2988 -1.8115
 4969TIP3   OH236541   4.923   1.140   1.793  0.0201 -0.8831  0.4542
 4969TIP3    H136542   4.853   1.077   1.774 -0.6040 -0.4216  1.1512
 4969TIP3    H236543   5.002   1.087   1.801 -0.6719 -1.7464  2.1113
 4970TIP3   OH236544   3.822   3.737   8.729  0.4881  0.6527  0.0564
 4970TIP3    H136545   3.863   3.771   8.649  1.8891 -2.3993 -0.6969
 4970TIP3    H236546   3.886   3.752   8.798  0.4818  0.8012  0.0295
 4971TIP3   OH236547   2.210   2.722   0.104  0.2142 -0.5686 -0.3006
 4971TIP3    H136548   2.297   2.761   0.096 -0.1332  0.1061 -0.9002
 4971TIP3    H236549   2.200   2.667   0.026  0.8141 -2.1182  0.6842
 4972TIP3   OH236550   3.754   3.455   1.368  0.6124  0.3303 -0.1086
 4972TIP3    H136551   3.715   3.412   1.443 -0.0041 -0.2067 -0.7223
 4972TIP3    H236552   3.805   3.528   1.405 -0.4443  0.6541  0.7536
 4973TIP3   OH236553   3.754   0.407   0.528  0.0409 -0.3015 -0.0865
 4973TIP3    H136554   3.718   0.495   0.528 -0.2938 -0.4332  0.2111
 4973TIP3    H236555   3.707   0.362   0.599 -0.2454 -0.9047 -0.6414
 4974TIP3   OH236556   0.586   0.010   0.936 -0.2478 -0.1578  0.1696
 4974TIP3    H136557   0.654  -0.030   0.991  0.4668  0.7829 -0.0088
 4974TIP3    H236558   0.617   0.099   0.920 -2.0654  0.6839  1.0223
 4975TIP3   OH236559   0.791   0.614   0.166 -0.5287  0.3201  0.1384
 4975TIP3    H136560   0.879   0.580   0.152 -0.1790  1.3608 -0.2848
 4975TIP3    H236561   0.794   0.703   0.131 -1.9842  0.0838 -0.6597
 4976TIP3   OH236562   5.225   5.400   1.691  0.0420  0.0760  0.3521
 4976TIP3    H136563   5.243   5.325   1.748 -2.7612 -0.6488  0.4530
 4976TIP3    H236564   5.262   5.374   1.606  2.7883  0.4593  1.3274
 4977TIP3   OH236565   4.542   0.071   0.543  0.2314 -0.1932 -0.1412
 4977TIP3    H136566   4.637   0.077   0.540  0.5564 -3.2121  0.9860
 4977TIP3    H236567   4.516   0.068   0.450  1.0310  1.7510 -0.4960
 4978TIP3   OH236568   3.225   1.806   8.509 -0.0779  0.1855  0.0582
 4978TIP3    H136569   3.243   1.829   8.418 -1.1587  4.0908  0.6570
 4978TIP3    H236570   3.310   1.812   8.552  0.1877 -0.2156 -0.3884
 4979TIP3   OH236571   6.177   1.802   8.122 -0.4841  0.4321 -0.2344
 4979TIP3    H136572   6.243   1.809   8.190  0.5327 -1.4015 -0.9491
 4979TIP3    H236573   6.094   1.821   8.167  0.3382  1.1797  1.0379
 4980TIP3   OH236574   2.910   4.223   6.955 -0.2538  0.0003  0.2681
 4980TIP3    H136575   2.865   4.208   7.038 -0.4782  1.0936  0.3628
 4980TIP3    H236576   2.980   4.159   6.953 -1.9198 -1.9286  0.0261
 4981TIP3   OH236577   0.473   3.573   7.894  0.1997  0.2478  0.1536
 4981TIP3    H136578   0.486   3.511   7.822  0.0178 -0.7839  0.9790
 4981TIP3    H236579   0.422   3.645   7.856  0.4560 -0.0915 -0.8359
 4982TIP3   OH236580   4.272   6.722   6.996  0.3336 -0.0769 -0.6086
 4982TIP3    H136581   4.286   6.816   7.009 -1.3867  0.1870 -0.4105
 4982TIP3    H236582   4.234   6.715   6.909  0.3667 -0.5870 -0.5853
 4983TIP3   OH236583   3.340   5.769   8.271 -0.1553 -0.2576  0.0894
 4983TIP3    H136584   3.278   5.705   8.237 -0.1044 -0.2237 -0.0662
 4983TIP3    H236585   3.409   5.716   8.310  0.0554 -0.3034 -0.3384
 4984TIP3   OH236586   3.371   2.219   0.034 -0.1594  0.2237 -0.1728
 4984TIP3    H136587   3.428   2.211  -0.043  1.6601  1.0440  1.0268
 4984TIP3    H236588   3.417   2.172   0.103 -0.5624  1.5638  1.0448
 4985TIP3   OH236589   1.899   1.111   6.479 -0.0246 -0.0311 -0.4090
 4985TIP3    H136590   1.829   1.105   6.544 -0.4127  1.7272 -0.6123
 4985TIP3    H236591   1.930   1.201   6.486  0.1020  0.1364 -2.4688
 4986TIP3   OH236592   5.752   4.025   8.061 -0.0092 -0.0444 -0.0484
 4986TIP3    H136593   5.675   4.064   8.021 -0.0571  1.5557  1.4921
 4986TIP3    H236594   5.723   3.998   8.148  1.4866  2.0911  1.2151
 4987TIP3   OH236595   2.338   6.261   1.275 -0.2606 -0.3486  0.4876
 4987TIP3    H136596   2.248   6.285   1.299 -0.1800  0.3148  0.1518
 4987TIP3    H236597   2.392   6.321   1.325 -0.0391 -0.0681 -0.0796
 4988TIP3   OH236598   4.564   0.068   1.012  0.0194  0.3420 -0.0910
 4988TIP3    H136599   4.561   0.120   0.931 -0.7215  0.1331 -0.2003
 4988TIP3    H236600   4.646   0.096   1.054 -0.0609  1.1537 -0.4437
 4989TIP3   OH236601   1.011   3.769   1.050  0.1896 -0.4468  0.7900
 4989TIP3    H136602   0.968   3.686   1.031  0.2146  0.0368 -1.6403
 4989TIP3    H236603   0.951   3.836   1.017  0.6273  0.4794  1.7915
 4990TIP3   OH236604   0.893   2.653   0.037 -0.1647  0.1664  0.1936
 4990TIP3    H136605   0.986   2.671   0.054 -0.0969 -0.9041  1.1025
 4990TIP3    H236606   0.893   2.601  -0.043 -0.1803  2.0039 -1.0585
 4991TIP3   OH236607   4.256   1.992   8.048 -0.5010  0.4459 -0.8646
 4991TIP3    H136608   4.313   2.055   8.093  0.4272  0.0392 -1.4421
 4991TIP3    H236609   4.195   1.963   8.116  0.6189  0.1452  0.0480
 4992TIP3   OH236610   4.896   2.744   0.614  0.0763 -0.2349 -0.2283
 4992TIP3    H136611   4.825   2.680   0.624  0.2493 -0.3287  0.4755
 4992TIP3    H236612   4.905   2.782   0.701 -1.3867  2.2196 -1.0646
 4993TIP3   OH236613   2.978   1.935   8.290  0.0352  0.0232  0.4488
 4993TIP3    H136614   3.041   1.870   8.259  0.7535  1.2822 -0.9063
 4993TIP3    H236615   3.029   1.994   8.345  0.1244  1.1002 -0.7238
 4994TIP3   OH236616   6.704   0.976   7.747  0.5298  0.3875 -0.1642
 4994TIP3    H136617   6.746   0.896   7.714 -0.2158 -0.7889  1.5510
 4994TIP3    H236618   6.707   0.966   7.842 -2.3269  0.8877  0.0728
 4995TIP3   OH236619   1.787   5.320   1.039  0.1041  0.5190 -0.1514
 4995TIP3    H136620   1.700   5.358   1.056 -0.6911  0.1175 -2.9184
 4995TIP3    H236621   1.845   5.395   1.030 -0.4857  0.9040 -0.8214
 4996TIP3   OH236622   2.624   3.578   8.603 -0.0971  0.3806  0.4444
 4996TIP3    H136623   2.663   3.665   8.590  3.7233 -1.3858 -1.5511
 4996TIP3    H236624   2.673   3.541   8.676 -2.5048  0.1859  2.0816
 4997TIP3   OH236625   6.296   2.637   8.486 -0.6041 -0.2586 -0.7904
 4997TIP3    H136626   6.245   2.564   8.520 -1.6938  0.4086 -0.9475
 4997TIP3    H236627   6.277   2.639   8.393  0.8863 -0.8978 -1.1467
 4998TIP3   OH236628   0.925   1.224   1.043 -0.5462 -0.1101 -0.4207
 4998TIP3    H136629   0.955   1.315   1.035 -1.9991  0.5884  1.4121
 4998TIP3    H236630   0.971   1.178   0.973  4.8115  0.8102  1.9084
 4999TIP3   OH236631   2.207   4.694   7.352  0.4818 -0.3356  0.0557
 4999TIP3    H136632   2.169   4.739   7.277  1.9971  0.0083 -0.5551
 4999TIP3    H236633   2.133   4.672   7.408 -0.6685 -0.5243 -1.4935
 5000TIP3   OH236634   1.028   2.394   8.782  0.1156 -0.4894 -0.4283
 5000TIP3    H136635   0.981   2.335   8.840  1.8032 -1.2668  0.2334
 5000TIP3    H236636   1.103   2.343   8.750  1.3390  1.0961 -0.2636
 5001TIP3   OH236637   1.172   5.527   8.883 -0.0595 -0.0396 -0.7596
 5001TIP3    H136638   1.170   5.447   8.831 -1.2697  0.1200 -0.9894
 5001TIP3    H236639   1.096   5.520   8.940  0.3686  0.5152 -0.1190
 5002TIP3   OH236640   6.256   5.850   1.734 -0.1279  0.3249  0.1855
 5002TIP3    H136641   6.232   5.838   1.642 -1.8159  2.4423  0.2664
 5002TIP3    H236642   6.307   5.772   1.756  1.2827  0.2383 -2.8359
 5003TIP3   OH236643   2.777   6.460   2.000  0.4829  0.7674 -0.1064
 5003TIP3    H136644   2.683   6.469   2.010  0.1100 -1.3973 -1.0419
 5003TIP3    H236645   2.801   6.527   1.936 -0.8172  0.0362 -1.4389
 5004TIP3   OH236646   5.182   0.415   6.768  0.4455 -0.3068 -0.0508
 5004TIP3    H136647   5.236   0.343   6.799 -0.2793 -0.5084  0.7669
 5004TIP3    H236648   5.151   0.387   6.682 -0.4754 -1.3288  0.5987
 5005TIP3   OH236649   2.916   3.303   1.489  0.0402 -0.0591  0.0302
 5005TIP3    H136650   2.835   3.265   1.524 -0.5438  1.2968  0.2230
 5005TIP3    H236651   2.887   3.360   1.418  0.7296  1.0424  0.5959
 5006TIP3   OH236652   0.137   2.141   0.526  0.0676  0.2088 -0.3405
 5006TIP3    H136653   0.103   2.066   0.477  0.7017 -0.7431  0.6483
 5006TIP3    H236654   0.191   2.103   0.595 -0.8969  1.5026  1.2111
 5007TIP3   OH236655   5.287   5.713   2.414 -0.3615  0.3168  0.7780
 5007TIP3    H136656   5.374   5.677   2.399  0.2940  1.4996  1.5165
 5007TIP3    H236657   5.227   5.648   2.379  0.8601  0.8422 -2.7310
 5008TIP3   OH236658   0.171   5.548   7.576 -0.2298 -0.0887  0.1081
 5008TIP3    H136659   0.264   5.571   7.577  0.2330 -1.8263 -0.2763
 5008TIP3    H236660   0.134   5.596   7.502  0.0119  1.7463  1.1088
 5009TIP3   OH236661   6.582   6.093   7.382  0.0912  0.3296  0.4190
 5009TIP3    H136662   6.556   6.033   7.452 -1.4768 -0.0880 -0.4818
 5009TIP3    H236663   6.499   6.121   7.343  0.9261  0.2562 -1.5073
 5010TIP3   OH236664   1.674   2.285   1.718  0.2384  0.2874 -0.1217
 5010TIP3    H136665   1.674   2.197   1.756 -0.0090  0.4638  0.2909
 5010TIP3    H236666   1.657   2.343   1.792  2.4242  0.8587  0.0158
 5011TIP3   OH236667   5.418   6.424   8.888 -0.9154  0.3382  0.2301
 5011TIP3    H136668   5.381   6.340   8.860 -0.2653  0.4091 -0.8840
 5011TIP3    H236669   5.342   6.475   8.917 -1.6575  0.2696 -1.4642
 5012TIP3   OH236670   2.666   1.321   2.509  0.0983 -0.1038 -0.2183
 5012TIP3    H136671   2.617   1.350   2.586  0.5489  0.9083 -0.2969
 5012TIP3    H236672   2.609   1.257   2.467 -0.4129 -0.2119  0.6276
 5013TIP3   OH236673   0.752   0.500   1.951 -0.1555  0.5769  0.1735
 5013TIP3    H136674   0.847   0.492   1.943 -0.3352 -0.3721 -1.4001
 5013TIP3    H236675   0.725   0.420   1.996 -0.4083 -0.2868 -1.4520
 5014TIP3   OH236676   3.570   2.033   0.692 -0.2153  0.1310 -0.6383
 5014TIP3    H136677   3.566   2.052   0.786 -3.1208 -0.9717 -0.4287
 5014TIP3    H236678   3.623   2.104   0.655  1.3138  0.3933  1.8373
 5015TIP3   OH236679   5.071   4.735   8.397  0.2538 -0.1878 -0.4067
 5015TIP3    H136680   5.027   4.725   8.312  0.8450  1.0381 -0.8850
 5015TIP3    H236681   5.076   4.830   8.410  0.7951 -0.3513  0.6732
 5016TIP3   OH236682   4.807   4.409   1.565  0.5407  0.1784  0.2951
 5016TIP3    H136683   4.880   4.466   1.542  0.9190  0.0460  1.1050
 5016TIP3    H236684   4.744   4.467   1.608 -0.2126  0.4478 -1.1389
 5017TIP3   OH236685   2.817   6.211   8.010  0.0180 -0.4227  0.4315
 5017TIP3    H136686   2.734   6.169   7.993  0.7942 -1.3369 -1.3201
 5017TIP3    H236687   2.883   6.145   7.990  1.1931  0.4280  1.3035
 5018TIP3   OH236688   3.134   5.102   8.485  0.4834  0.5604 -0.0152
 5018TIP3    H136689   3.154   5.070   8.573  0.1652  0.3911 -0.0032
 5018TIP3    H236690   3.145   5.197   8.491  1.0770  0.4893  0.0439
 5019TIP3   OH236691   2.768   5.562   0.975  0.3363  0.0281 -0.1089
 5019TIP3    H136692   2.749   5.538   1.066 -3.4807  1.3916 -0.3409
 5019TIP3    H236693   2.700   5.626   0.953  2.7496  1.8210 -3.1431
 5020TIP3   OH236694   4.349   2.202   0.354  0.0964  0.3933 -0.0932
 5020TIP3    H136695   4.332   2.277   0.411 -2.1881 -1.3069  1.6584
 5020TIP3    H236696   4.277   2.202   0.291  1.3622  0.9311 -1.6209
 5021TIP3   OH236697   2.806   2.021   1.122 -0.8300 -0.4316  0.2035
 5021TIP3    H136698   2.811   1.928   1.101  0.1259 -0.9177  2.3910
 5021TIP3    H236699   2.724   2.031   1.170 -0.5952 -0.2754  0.5746
 5022TIP3   OH236700   6.259   5.735   2.533 -0.6810 -0.1329  0.0179
 5022TIP3    H136701   6.341   5.773   2.500 -0.6773  0.2849  0.4945
 5022TIP3    H236702   6.238   5.788   2.610 -1.3207 -0.3387 -0.0145
 5023TIP3   OH236703   3.822   0.831   0.918  0.3923  0.2768  0.7119
 5023TIP3    H136704   3.899   0.849   0.865 -0.7186  0.6918 -0.8408
 5023TIP3    H236705   3.754   0.887   0.881 -1.1554 -1.4723  0.7661
 5024TIP3   OH236706   1.778   0.927   8.183  0.4629 -0.2505  0.6491
 5024TIP3    H136707   1.774   0.842   8.139 -1.3311  0.2804 -0.2828
 5024TIP3    H236708   1.792   0.905   8.275  2.1015 -1.4564  0.1643
 5025TIP3   OH236709   1.238   0.304   0.921  0.1238  0.1486  0.3483
 5025TIP3    H136710   1.259   0.318   0.828 -0.2332 -0.1100  0.2279
 5025TIP3    H236711   1.197   0.386   0.949  0.4078  0.2989  0.3311
 5026TIP3   OH236712   5.697   2.207   7.252 -0.1571 -0.2224 -0.5594
 5026TIP3    H136713   5.758   2.256   7.197  0.4647 -0.0688  0.2503
 5026TIP3    H236714   5.747   2.131   7.282 -0.8843 -0.9747 -1.2050
 5027TIP3   OH236715   2.842   3.453   1.281  0.0223  0.2655  0.2796
 5027TIP3    H136716   2.788   3.532   1.282 -1.0996 -0.4769  0.1272
 5027TIP3    H236717   2.896   3.463   1.202  0.3419  1.1604  0.5948
 5028TIP3   OH236718   2.056   4.275   8.607 -0.4845 -0.7838 -0.2467
 5028TIP3    H136719   1.965   4.306   8.615 -1.0868 -2.0712 -1.5630
 5028TIP3    H236720   2.052   4.208   8.538  1.3837 -1.2328  0.0366
 5029TIP3   OH236721   5.753   2.706   8.452  0.1641  0.0626  0.1437
 5029TIP3    H136722   5.684   2.718   8.387 -0.8198 -0.4270  1.0659
 5029TIP3    H236723   5.768   2.611   8.454  0.6582  0.1366  0.1774
 5030TIP3   OH236724   3.569   5.970   7.158 -0.3168 -0.3874  0.2159
 5030TIP3    H136725   3.513   5.945   7.232  0.0283 -0.5984  0.4077
 5030TIP3    H236726   3.607   5.887   7.128  1.2270 -0.0614  1.1664
 5031TIP3   OH236727   1.449   4.156   1.386 -0.6062 -0.4817 -0.3521
 5031TIP3    H136728   1.523   4.112   1.427  0.6938  2.2831  0.5550
 5031TIP3    H236729   1.481   4.184   1.301 -1.4469 -1.3121 -0.9662
 5032TIP3   OH236730   2.797   1.408   1.084  0.9935  0.0888  0.6120
 5032TIP3    H136731   2.799   1.370   1.172 -0.4444 -0.7845  0.3016
 5032TIP3    H236732   2.760   1.495   1.097 -0.1158 -0.3926  0.7799
 5033TIP3   OH236733   5.897   5.155   1.386 -0.0368  0.8790 -0.4085
 5033TIP3    H136734   5.944   5.127   1.307 -1.3884  0.3537 -1.0646
 5033TIP3    H236735   5.958   5.211   1.432  1.5310 -0.4172 -0.8094
 5034TIP3   OH236736   1.578   4.645   0.214  0.3713  0.1535  0.2132
 5034TIP3    H136737   1.524   4.722   0.193  0.3756  0.1985  0.3649
 5034TIP3    H236738   1.528   4.571   0.181  0.1836  0.1900  0.4100
 5035TIP3   OH236739   1.585   4.255   8.282  0.1882 -0.0883 -0.2724
 5035TIP3    H136740   1.636   4.198   8.224  1.0737 -0.9261  1.2714
 5035TIP3    H236741   1.500   4.263   8.238  0.3644 -1.8063 -1.0311
 5036TIP3   OH236742   2.406   6.334   1.942  0.5413  0.2565  0.2182
 5036TIP3    H136743   2.440   6.278   2.012  2.7774 -0.4117 -1.2924
 5036TIP3    H236744   2.433   6.423   1.967 -0.7560  0.3613  1.3392
 5037TIP3   OH236745   0.295   5.352   8.084 -0.2560 -0.2450  0.2881
 5037TIP3    H136746   0.304   5.348   7.988  0.1045  3.3220  0.0353
 5037TIP3    H236747   0.205   5.381   8.098 -0.9879 -2.7576  1.2121
 5038TIP3   OH236748   0.428   2.805   1.584 -0.1480  0.2183  0.2010
 5038TIP3    H136749   0.443   2.818   1.678  0.4881 -2.3359  0.5501
 5038TIP3    H236750   0.512   2.822   1.543 -0.1228  0.2252  0.2552
 5039TIP3   OH236751   2.329   3.875   2.571 -0.6579 -0.1731 -0.9246
 5039TIP3    H136752   2.250   3.822   2.581  0.1000 -1.1199  0.5274
 5039TIP3    H236753   2.383   3.826   2.509 -1.4645  0.8213 -2.4435
 5040TIP3   OH236754   5.417   1.541   8.903 -0.2496  0.2864  0.4947
 5040TIP3    H136755   5.349   1.602   8.874  0.2180  0.4646 -0.2471
 5040TIP3    H236756   5.369   1.471   8.948 -0.9732  0.1583 -0.4362
 5041TIP3   OH236757   3.464   6.133   8.520 -0.2169 -0.0592 -0.0558
 5041TIP3    H136758   3.377   6.094   8.515 -0.3787  0.2412  0.3249
 5041TIP3    H236759   3.523   6.059   8.538 -0.5713 -0.0881  1.0888
 5042TIP3   OH236760   0.322   3.946   2.129  0.4203 -0.2164  0.0739
 5042TIP3    H136761   0.355   3.954   2.039 -0.8408 -2.2251 -0.6271
 5042TIP3    H236762   0.249   3.886   2.122 -1.3844  1.5836  2.0712
 5043TIP3   OH236763   2.107   0.052   6.721 -0.2201 -0.3915 -0.3076
 5043TIP3    H136764   2.018   0.078   6.700  0.6363  1.5864 -1.7621
 5043TIP3    H236765   2.098  -0.038   6.755 -2.6199 -0.6654 -1.4473
 5044TIP3   OH236766   3.687   3.063   8.738  0.0444  0.2656 -0.3439
 5044TIP3    H136767   3.753   3.116   8.692 -1.5207  0.2734 -2.8217
 5044TIP3    H236768   3.638   3.127   8.790 -0.5429  1.0000 -1.7261
 5045TIP3   OH236769   2.433   6.697   2.214 -0.3499  0.1124  0.2373
 5045TIP3    H136770   2.355   6.751   2.224 -0.4893 -0.1329  0.5046
 5045TIP3    H236771   2.506   6.756   2.230 -0.4462  0.5320 -0.8174
 5046TIP3   OH236772   3.329   5.182   0.550  0.0243 -0.6282  0.7402
 5046TIP3    H136773   3.243   5.225   0.550 -0.3143 -1.2902  0.4922
 5046TIP3    H236774   3.332   5.135   0.634  0.4696  0.0266  1.0935
 5047TIP3   OH236775   5.048   5.997   1.488 -0.0187 -1.1999 -0.0529
 5047TIP3    H136776   5.005   5.961   1.411 -0.5712 -0.3930 -0.1330
 5047TIP3    H236777   5.043   5.927   1.554 -2.4242 -0.7539  0.2984
 5048TIP3   OH236778   4.716   4.171   8.177  0.1422  0.4186 -0.1059
 5048TIP3    H136779   4.626   4.147   8.155  0.3245 -1.0473  0.6461
 5048TIP3    H236780   4.741   4.110   8.246  1.5195  1.1972  0.1202
 5049TIP3   OH236781   3.382   5.472   2.608 -0.6573 -0.3394  0.1400
 5049TIP3    H136782   3.474   5.446   2.601 -0.4985 -0.5672  2.4671
 5049TIP3    H236783   3.339   5.425   2.536  0.9552 -0.5027 -0.7815
 5050TIP3   OH236784   1.827   2.434   3.190 -0.5175  0.5126 -0.4746
 5050TIP3    H136785   1.754   2.495   3.181 -0.1068  1.1626  0.3847
 5050TIP3    H236786   1.812   2.367   3.124 -3.0617 -0.5934  1.0849
 5051TIP3   OH236787   5.948   5.996   0.595  0.5719 -0.3717  0.2431
 5051TIP3    H136788   5.882   6.066   0.595  0.9829  0.0402 -0.8554
 5051TIP3    H236789   6.028   6.039   0.626  1.0653 -0.0790 -1.3302
 5052TIP3   OH236790   2.784   0.583   2.499 -0.2134 -0.1970 -0.2142
 5052TIP3    H136791   2.727   0.649   2.460  0.4666  0.2102 -0.5348
 5052TIP3    H236792   2.724   0.519   2.537 -0.9090 -0.4275 -1.6212
 5053TIP3   OH236793   3.718   4.526   0.629 -0.5085  0.2647  0.3834
 5053TIP3    H136794   3.789   4.474   0.667 -0.0441  0.7659  0.2229
 5053TIP3    H236795   3.736   4.615   0.659 -1.1504  0.3775  0.4515
 5054TIP3   OH236796   2.621   5.090   2.347 -0.3061  0.1950 -0.5141
 5054TIP3    H136797   2.617   5.013   2.291 -0.5146  1.0246 -1.6764
 5054TIP3    H236798   2.575   5.158   2.298 -1.8996  0.5568  1.3543
 5055TIP3   OH236799   6.202   0.475   0.429  0.1569  0.1735  0.0473
 5055TIP3    H136800   6.214   0.528   0.349  1.9952 -2.2581 -1.4220
 5055TIP3    H236801   6.116   0.434   0.417  0.9897 -1.2423 -1.4337
 5056TIP3   OH236802   2.747   0.931   1.999  0.5009  0.2277 -0.3402
 5056TIP3    H136803   2.656   0.961   1.994  0.3600 -0.0841  0.2827
 5056TIP3    H236804   2.789   0.969   1.922 -0.4118 -0.5359 -1.2318
 5057TIP3   OH236805   5.969   6.018   1.402 -0.4682 -0.0207 -0.6938
 5057TIP3    H136806   5.938   6.037   1.314  0.0730 -1.2781 -1.1837
 5057TIP3    H236807   5.961   5.923   1.411 -0.4325  0.0729  0.5860
 5058TIP3   OH236808   1.665   6.442   7.589 -0.1183  0.2085  0.2227
 5058TIP3    H136809   1.640   6.384   7.518 -3.0493  0.4579  0.9340
 5058TIP3    H236810   1.719   6.509   7.548  1.6361 -1.7811 -0.9710
 5059TIP3   OH236811   3.782   2.141   7.203  0.1084 -0.0496  0.1084
 5059TIP3    H136812   3.871   2.167   7.181  0.8342 -1.6441  0.9853
 5059TIP3    H236813   3.739   2.127   7.119 -0.2295  3.3669 -0.4343
 5060TIP3   OH236814   0.013   0.998   0.944  0.6947 -0.3688 -0.3775
 5060TIP3    H136815   0.064   1.066   0.988  0.3798 -0.4719  0.1579
 5060TIP3    H236816   0.026   1.014   0.850  1.1704  0.0070 -0.2493
 5061TIP3   OH236817   5.180   6.532   1.472  0.3397  0.0203  0.7073
 5061TIP3    H136818   5.124   6.527   1.549  0.6148 -0.2119  0.8916
 5061TIP3    H236819   5.161   6.452   1.423  1.0879 -0.4423  1.1652
 5062TIP3   OH236820   5.595   4.446   7.639  0.0805 -0.2691  0.4604
 5062TIP3    H136821   5.647   4.377   7.597  0.2536 -0.4163  0.9049
 5062TIP3    H236822   5.539   4.399   7.701 -1.2236 -0.1967 -0.6373
 5063TIP3   OH236823   0.322   0.285   8.684 -0.5592 -0.3326 -0.3473
 5063TIP3    H136824   0.258   0.299   8.753  0.2548  2.1866  0.0113
 5063TIP3    H236825   0.271   0.251   8.611 -2.3846  1.5904 -0.0821
 5064TIP3   OH236826   3.589   0.686   1.031  0.6853 -0.1127 -0.4680
 5064TIP3    H136827   3.673   0.710   0.992  0.4560 -0.4432 -1.1967
 5064TIP3    H236828   3.602   0.596   1.061  0.7384  0.0046 -0.1354
 5065TIP3   OH236829   5.845   3.970   1.150 -0.2501  0.2970 -0.0262
 5065TIP3    H136830   5.892   3.908   1.206 -0.0500  0.4440 -0.0291
 5065TIP3    H236831   5.911   4.000   1.087 -0.6656 -0.4418 -0.8259
 5066TIP3   OH236832   4.676   4.870   7.661 -0.2912 -0.3955  0.4059
 5066TIP3    H136833   4.707   4.953   7.696 -0.9084 -0.8575  2.1463
 5066TIP3    H236834   4.744   4.807   7.683 -0.1183 -0.4799 -0.3440
 5067TIP3   OH236835   2.730   4.663   6.719 -0.3144 -0.6484 -0.0250
 5067TIP3    H136836   2.791   4.608   6.768 -1.4856  0.1174  2.4669
 5067TIP3    H236837   2.648   4.615   6.721 -0.9894  0.4713  0.9597
 5068TIP3   OH236838   2.274   4.885   1.647 -0.1365 -0.6409 -0.1800
 5068TIP3    H136839   2.286   4.966   1.697 -0.3975 -0.6822 -0.0496
 5068TIP3    H236840   2.202   4.903   1.587 -0.4330 -0.8894  0.0957
 5069TIP3   OH236841   0.088   0.982   1.931 -0.3502 -0.1121  0.6088
 5069TIP3    H136842   0.129   0.898   1.912 -0.8735 -0.5891  1.5170
 5069TIP3    H236843   0.094   0.991   2.026  0.5285  1.3234  0.4507
 5070TIP3   OH236844   6.443   5.947   8.325  0.3054  0.3423 -0.0774
 5070TIP3    H136845   6.518   5.986   8.280  1.0064 -0.1862  0.6288
 5070TIP3    H236846   6.471   5.859   8.348 -0.9819 -0.3209 -0.9236
 5071TIP3   OH236847   0.641   0.449   7.300  0.0482 -0.0949  0.1132
 5071TIP3    H136848   0.732   0.474   7.318  0.5149 -0.0131 -2.0609
 5071TIP3    H236849   0.648   0.361   7.262 -0.8309 -0.2934  0.3980
 5072TIP3   OH236850   4.649   2.172   2.091 -0.3806 -0.1590 -0.6182
 5072TIP3    H136851   4.730   2.224   2.097 -1.2016  1.1569 -0.5271
 5072TIP3    H236852   4.673   2.096   2.039  1.2562 -0.4654  0.5185
 5073TIP3   OH236853   0.528   2.833   7.509  0.2479  0.0335  0.1438
 5073TIP3    H136854   0.536   2.739   7.496 -1.3555 -0.3163  1.4150
 5073TIP3    H236855   0.444   2.845   7.552 -0.2638  2.1992 -1.2973
 5074TIP3   OH236856   6.286   3.889   0.272  0.3154  1.1255 -0.1580
 5074TIP3    H136857   6.318   3.869   0.360  0.7843  0.1240 -0.5421
 5074TIP3    H236858   6.289   3.985   0.267 -0.7887  1.2837  1.2943
 5075TIP3   OH236859   3.869   4.466   1.171  0.8101  0.1565 -0.0386
 5075TIP3    H136860   3.820   4.421   1.103 -0.4795  0.1622  0.8612
 5075TIP3    H236861   3.857   4.559   1.151  0.3679  0.1597  0.2306
 5076TIP3   OH236862   4.389   5.162   7.264 -0.1830 -0.2741 -0.2391
 5076TIP3    H136863   4.303   5.129   7.292 -0.1108 -1.6459 -1.5039
 5076TIP3    H236864   4.397   5.247   7.306 -2.2713 -0.0205 -0.2695
 5077TIP3   OH236865   3.243   1.285   7.324  0.0442  0.1576 -0.0969
 5077TIP3    H136866   3.331   1.319   7.337  0.4175 -1.5390  2.9880
 5077TIP3    H236867   3.251   1.223   7.251  1.5327 -0.2387  0.3723
 5078TIP3   OH236868   2.186   3.586   1.440 -0.3428 -0.0776 -0.6084
 5078TIP3    H136869   2.217   3.676   1.427 -1.6896 -0.0367 -4.9939
 5078TIP3    H236870   2.095   3.597   1.470 -0.1207 -0.0332  0.0680
 5079TIP3   OH236871   3.652   0.856   7.572 -0.3530 -0.4760  0.3043
 5079TIP3    H136872   3.647   0.881   7.480  3.0924 -1.4238 -0.3043
 5079TIP3    H236873   3.565   0.875   7.607 -0.4587  4.6914 -1.8705
 5080TIP3   OH236874   2.121   3.034   7.729  0.5395 -0.1048  0.1819
 5080TIP3    H136875   2.139   2.983   7.650  1.9877  0.7048 -0.0367
 5080TIP3    H236876   2.161   3.119   7.713  0.7099  0.1313  1.7179
 5081TIP3   OH236877   0.306   1.899   1.246 -0.0222 -0.3345  0.0031
 5081TIP3    H136878   0.325   1.983   1.206 -0.7786  0.2227  0.7646
 5081TIP3    H236879   0.342   1.906   1.335 -0.6683 -0.5575  0.2878
 5082TIP3   OH236880   1.337   1.678   8.280  0.2197 -0.1180  0.3447
 5082TIP3    H136881   1.378   1.651   8.362  0.6460 -0.7341 -0.0652
 5082TIP3    H236882   1.245   1.694   8.303  0.7872  1.9953  1.4239
 5083TIP3   OH236883   1.449   3.001   8.392  0.4621 -0.0204  0.2619
 5083TIP3    H136884   1.376   3.003   8.454 -0.5330  1.3152 -0.8731
 5083TIP3    H236885   1.431   2.926   8.335 -0.0525  0.2963 -0.0063
 5084TIP3   OH236886   2.012   5.775   0.173  0.0270 -0.0388  0.0006
 5084TIP3    H136887   2.048   5.709   0.113  1.2034  0.6912 -0.1318
 5084TIP3    H236888   1.948   5.823   0.121  0.2077 -0.1627 -0.3403
 5085TIP3   OH236889   3.321   1.301   6.950  0.5631 -0.2520 -0.3807
 5085TIP3    H136890   3.390   1.235   6.954  1.5482  0.7487 -0.4487
 5085TIP3    H236891   3.307   1.315   6.857  0.5880 -0.1301 -0.3662
 5086TIP3   OH236892   2.122   5.632   7.255  0.0950 -0.0351  0.6878
 5086TIP3    H136893   2.171   5.672   7.183  0.0273  2.6411  1.9784
 5086TIP3    H236894   2.057   5.577   7.212  0.4699  0.9632 -1.2941
 5087TIP3   OH236895   2.217   4.688   8.826 -0.5353 -0.1901 -0.3336
 5087TIP3    H136896   2.210   4.725   8.914 -0.3575 -1.2729  0.1463
 5087TIP3    H236897   2.300   4.640   8.827 -0.4067 -0.0078 -1.1805
 5088TIP3   OH236898   4.545   0.315   8.246  0.0122 -0.1302 -0.5189
 5088TIP3    H136899   4.633   0.350   8.260 -0.6547  1.0553  1.0582
 5088TIP3    H236900   4.490   0.362   8.310 -1.5451 -1.7225 -0.6121
 5089TIP3   OH236901   4.167   1.540   7.854 -0.3187  0.2605  0.3522
 5089TIP3    H136902   4.148   1.492   7.774  0.4868 -2.1152  1.4969
 5089TIP3    H236903   4.222   1.613   7.826  1.7661 -1.7281 -1.0409
 5090TIP3   OH236904   1.137   1.816   0.789  0.4489 -0.2598  0.1898
 5090TIP3    H136905   1.190   1.840   0.713  1.3738  0.1334  0.9365
 5090TIP3    H236906   1.198   1.770   0.847 -0.1524 -0.2194  0.8603
 5091TIP3   OH236907   1.792   5.217   0.195  0.6007  0.0454  0.0673
 5091TIP3    H136908   1.728   5.246   0.260  1.0041  1.1417 -0.0067
 5091TIP3    H236909   1.807   5.124   0.216  0.3055  0.2349  1.1741
 5092TIP3   OH236910   0.926   3.499   1.082  0.3857 -0.6752 -0.3117
 5092TIP3    H136911   0.896   3.409   1.067  0.9070 -1.0951  0.9585
 5092TIP3    H236912   0.874   3.529   1.156 -2.2419  1.3657 -2.7849
 5093TIP3   OH236913   0.798   4.970   1.463  0.0808  0.4521  0.1137
 5093TIP3    H136914   0.742   4.894   1.447 -0.2576  1.0602 -1.9581
 5093TIP3    H236915   0.844   4.950   1.544  0.6598 -2.3887 -0.7891
 5094TIP3   OH236916   2.199   4.948   0.712 -0.0851 -0.0675  0.1470
 5094TIP3    H136917   2.148   4.890   0.656  1.0770  0.1103 -1.1379
 5094TIP3    H236918   2.227   5.019   0.654 -0.7349  1.3354  1.4799
 5095TIP3   OH236919   6.191   2.812   0.576  0.0807  0.1221  0.0292
 5095TIP3    H136920   6.096   2.802   0.583  0.3520 -2.2330  1.4343
 5095TIP3    H236921   6.220   2.731   0.534  1.5894  0.0773  1.0903
 5096TIP3   OH236922   2.589   1.577   1.241  0.0153 -0.0614  0.1705
 5096TIP3    H136923   2.501   1.556   1.272  0.0977  1.2693  1.3863
 5096TIP3    H236924   2.631   1.620   1.315  0.8101  1.6686 -1.2073
 5097TIP3   OH236925   5.806   4.589   1.437 -0.3650  0.3400 -0.2682
 5097TIP3    H136926   5.715   4.561   1.426 -0.8058  1.9124 -0.9677
 5097TIP3    H236927   5.799   4.674   1.481  0.9725 -1.2381  3.3746
 5098TIP3   OH236928   4.670   1.018   8.902 -0.1848 -0.0260  0.1317
 5098TIP3    H136929   4.747   1.066   8.931 -0.3347  1.7321 -2.1309
 5098TIP3    H236930   4.615   1.012   8.980  2.0391 -1.0250  1.7054
 5099TIP3   OH236931   1.767   1.803   1.686  0.3428  0.2725 -0.1531
 5099TIP3    H136932   1.680   1.770   1.711 -0.1763  0.9437 -1.0242
 5099TIP3    H236933   1.827   1.734   1.715 -0.5146 -0.4027  0.0880
 5100TIP3   OH236934   4.208   0.505   8.652  0.6903  0.6690 -0.0687
 5100TIP3    H136935   4.218   0.599   8.669  0.7534  0.5451  0.6349
 5100TIP3    H236936   4.139   0.477   8.713  1.4076  0.0645  0.4906
 5101TIP3   OH236937   3.542   6.454   7.764  0.2725  0.1993  0.1452
 5101TIP3    H136938   3.484   6.383   7.792  1.3998 -1.2461 -1.0314
 5101TIP3    H236939   3.536   6.455   7.669  0.9864  1.0512  0.0941
 5102TIP3   OH236940   5.556   5.685   8.837  0.3057  0.4744  0.1255
 5102TIP3    H136941   5.610   5.649   8.907  0.6079 -0.8409 -0.7433
 5102TIP3    H236942   5.529   5.609   8.786 -0.9291  1.2867 -0.4812
 5103TIP3   OH236943   4.382   1.550   8.038  0.6545 -0.2589 -0.3024
 5103TIP3    H136944   4.298   1.583   8.004  0.2155 -0.9377  0.1189
 5103TIP3    H236945   4.445   1.573   7.970  0.1416  0.3215 -0.5957
 5104TIP3   OH236946   0.470   2.024   8.317 -1.6003  0.2929  0.1246
 5104TIP3    H136947   0.494   2.048   8.227 -0.8973 -1.0819 -0.0750
 5104TIP3    H236948   0.399   1.961   8.307 -1.7470  0.3858  0.5513
 5105TIP3   OH236949   1.770   0.430   1.427  0.4628  0.0618  0.0096
 5105TIP3    H136950   1.729   0.388   1.351 -0.8677  2.9576 -1.0337
 5105TIP3    H236951   1.752   0.371   1.500 -0.6164 -1.5094 -1.4623
 5106TIP3   OH236952   0.616   4.477   8.334  0.6672 -0.2689  0.2109
 5106TIP3    H136953   0.589   4.389   8.360  0.4529 -0.2723 -0.0140
 5106TIP3    H236954   0.603   4.531   8.412  2.1027 -0.6977  0.7909
 5107TIP3   OH236955   2.336   6.431   8.627  0.1194  0.5926 -0.6949
 5107TIP3    H136956   2.416   6.379   8.624 -0.2665  0.0193 -2.6505
 5107TIP3    H236957   2.352   6.504   8.569 -1.6797 -1.0620 -3.5213
 5108TIP3   OH236958   2.148   1.786   2.141 -0.1137  0.7908 -0.8867
 5108TIP3    H136959   2.154   1.870   2.096  1.4996  1.8690  1.1622
 5108TIP3    H236960   2.059   1.783   2.174 -0.8241  0.7046 -2.6959
 5109TIP3   OH236961   0.044   1.874   7.416  0.3626  0.1998  0.1951
 5109TIP3    H136962   0.105   1.948   7.415 -0.5530  0.9984 -1.9774
 5109TIP3    H236963  -0.004   1.882   7.334 -2.5503 -0.5069  1.7202
 5110TIP3   OH236964   4.507   3.717   2.595  0.2637 -0.0490  0.1296
 5110TIP3    H136965   4.554   3.645   2.636  1.8219  1.1843  0.6098
 5110TIP3    H236966   4.570   3.756   2.534 -0.3458  1.2194  0.2615
 5111TIP3   OH236967   0.923   3.450   1.986  0.1687  0.4197  0.2158
 5111TIP3    H136968   0.948   3.457   1.894  0.8327  1.6413  0.4709
 5111TIP3    H236969   0.977   3.515   2.031 -0.0200 -0.2801  1.4982
 5112TIP3   OH236970   4.846   5.423   7.424 -0.1813  0.0242 -0.5222
 5112TIP3    H136971   4.799   5.492   7.470 -1.6441 -0.1464 -1.6925
 5112TIP3    H236972   4.931   5.418   7.468 -1.0459  0.7189  1.3053
 5113TIP3   OH236973   2.018   2.203   2.152  0.0177 -0.3326 -0.6105
 5113TIP3    H136974   2.068   2.152   2.087  0.0462  0.0897 -0.9224
 5113TIP3    H236975   2.030   2.294   2.125  1.7116  0.0383  1.1308
 5114TIP3   OH236976   6.030   2.121   6.983 -0.3262  0.5144  0.6594
 5114TIP3    H136977   6.109   2.075   6.953  0.4057  1.0163  1.7852
 5114TIP3    H236978   5.977   2.053   7.025 -0.6752  0.1117 -0.3746
 5115TIP3   OH236979   6.528   0.360   1.458 -0.4772  0.1779  0.1312
 5115TIP3    H136980   6.585   0.304   1.405  0.9418  0.5900  1.1778
 5115TIP3    H236981   6.495   0.425   1.396 -1.6024 -1.3414 -0.9592
 5116TIP3   OH236982   1.363   0.341   1.299 -0.2446 -0.1384  0.1362
 5116TIP3    H136983   1.271   0.352   1.274 -0.0993 -0.7169 -0.6889
 5116TIP3    H236984   1.398   0.430   1.297 -0.4015 -0.0811 -1.1444
 5117TIP3   OH236985   0.003   0.340   2.677  0.1203  0.4331  0.1039
 5117TIP3    H136986   0.020   0.434   2.684  2.6090  0.0663 -0.0811
 5117TIP3    H236987   0.090   0.300   2.672 -0.8175 -2.0353  1.7970
 5118TIP3   OH236988   1.169   5.720   8.316  0.2159  0.6285 -0.4641
 5118TIP3    H136989   1.116   5.757   8.246  2.2677  1.1805 -1.8229
 5118TIP3    H236990   1.115   5.729   8.395 -2.1027  0.1256 -1.8974
 5119TIP3   OH236991   0.872   5.088   2.442  0.8607 -0.3532  0.6465
 5119TIP3    H136992   0.784   5.070   2.411  1.2683 -0.5492 -0.4499
 5119TIP3    H236993   0.883   5.183   2.430  1.6972 -0.6711 -1.8151
 5120TIP3   OH236994   0.993   0.940   1.827  0.2068  0.0576  0.6414
 5120TIP3    H136995   1.035   0.886   1.894  1.7512 -0.0185 -0.3313
 5120TIP3    H236996   0.934   0.880   1.781  1.5006 -0.7192 -0.0755
 5121TIP3   OH236997   2.315   5.112   2.080 -0.3964  0.2639 -0.2544
 5121TIP3    H136998   2.397   5.066   2.098  0.4846  1.3960 -1.1946
 5121TIP3    H236999   2.254   5.080   2.146  1.1711  0.3589  1.2929
 5122TIP3   OH237000   1.069   6.108   0.318  0.1903 -0.1664  0.1222
 5122TIP3    H137001   1.118   6.059   0.384  0.7142  0.5242  0.2604
 5122TIP3    H237002   1.018   6.172   0.368  0.1647 -0.0052 -0.1050
 5123TIP3   OH237003   5.904   4.008   0.779 -0.2974 -0.8606  0.0079
 5123TIP3    H137004   5.895   4.034   0.688 -0.1321  1.6062  0.6406
 5123TIP3    H237005   5.824   4.039   0.821  0.4432 -0.2766  1.0374
 5124TIP3   OH237006   5.930   4.543   0.576  0.3498 -0.1806 -0.3460
 5124TIP3    H137007   5.851   4.552   0.631 -0.0949 -1.3916 -0.7585
 5124TIP3    H237008   5.996   4.596   0.621 -0.8534  1.3955 -0.3304
 5125TIP3   OH237009   5.105   3.425   8.595  0.7569 -0.7471  0.0444
 5125TIP3    H137010   5.045   3.358   8.562 -0.7946  1.4546 -1.9437
 5125TIP3    H237011   5.063   3.458   8.675  0.2377 -0.4805 -0.3320
 5126TIP3   OH237012   5.332   5.025   0.167 -0.2996 -0.2382  0.0877
 5126TIP3    H137013   5.274   5.091   0.130 -0.4224  0.0480  0.7718
 5126TIP3    H237014   5.348   5.055   0.257  0.0632 -0.8644  0.2370
 5127TIP3   OH237015   4.516   1.256   0.120 -0.4007  0.0556  0.1002
 5127TIP3    H137016   4.465   1.337   0.119 -0.5543  0.0258  1.9646
 5127TIP3    H237017   4.605   1.283   0.099 -1.0260  0.1567 -2.8974
 5128TIP3   OH237018   0.588   4.201   8.439 -0.0417 -0.6378 -0.4193
 5128TIP3    H137019   0.505   4.196   8.487  0.1622  1.1018  0.1873
 5128TIP3    H237020   0.568   4.164   8.353 -1.9877  1.3647 -0.9413
 5129TIP3   OH237021   2.188   0.602   8.973 -0.4186 -0.2684  0.3515
 5129TIP3    H137022   2.247   0.675   8.990 -1.1735  0.2503  0.7785
 5129TIP3    H237023   2.134   0.631   8.899 -0.7349 -0.3798  0.5347
 5130TIP3   OH237024   4.195   1.508   0.674  0.1227  0.0370 -0.1099
 5130TIP3    H137025   4.185   1.514   0.579  0.3162  1.3525 -0.0614
 5130TIP3    H237026   4.268   1.447   0.686 -0.4662 -0.8231 -0.7675
 5131TIP3   OH237027   1.133   3.192   8.801 -0.1308  0.6773  0.1219
 5131TIP3    H137028   1.087   3.110   8.819  0.9096  0.3947  1.6524
 5131TIP3    H237029   1.105   3.216   8.712 -1.4014 -0.6760  0.1165
 5132TIP3   OH237030   3.439   2.930   8.489 -0.0572  0.4491 -0.5721
 5132TIP3    H137031   3.517   2.898   8.442  0.2867  0.9046 -0.3112
 5132TIP3    H237032   3.366   2.893   8.440  0.3259 -1.5903  0.2879
 5133TIP3   OH237033   1.675   0.594   0.060 -0.1122  0.1352  0.6870
 5133TIP3    H137034   1.749   0.534   0.062  0.3740  0.5767 -1.7072
 5133TIP3    H237035   1.613   0.554  -0.001 -1.1892  0.5334  1.4853
 5134TIP3   OH237036   0.619   5.334   8.997 -0.1596  0.3450 -0.3557
 5134TIP3    H137037   0.536   5.299   9.028  0.2496 -0.1178  0.2400
 5134TIP3    H237038   0.619   5.314   8.903  0.4651 -2.1649  0.1104
 5135TIP3   OH237039   3.479   4.181   8.849  0.1520 -0.6171 -0.3418
 5135TIP3    H137040   3.456   4.122   8.778 -1.1013  0.0864 -0.5568
 5135TIP3    H237041   3.429   4.149   8.924  1.6481 -1.4968  0.3105
 5136TIP3   OH237042   4.884   1.280   0.587  0.6312 -0.5920  0.7441
 5136TIP3    H137043   4.819   1.285   0.656 -1.3791 -0.2583 -1.0520
 5136TIP3    H237044   4.926   1.366   0.586  0.2849 -0.4166  1.1953
 5137TIP3   OH237045   1.777   6.551   0.975  0.2045 -0.0926  0.4344
 5137TIP3    H137046   1.721   6.570   0.900  0.6159  1.2921  0.4416
 5137TIP3    H237047   1.850   6.501   0.939  0.0100 -0.0992  0.0504
 5138TIP3   OH237048   6.599   0.639   7.905 -0.4541  0.2348  0.4936
 5138TIP3    H137049   6.537   0.653   7.834  0.6839  2.9410 -0.0669
 5138TIP3    H237050   6.624   0.727   7.934  0.8331 -0.7642  2.7406
 5139TIP3   OH237051   5.190   3.821   8.314 -0.5100 -0.0647  0.3016
 5139TIP3    H137052   5.224   3.779   8.235  0.6838  1.5956 -0.1243
 5139TIP3    H237053   5.168   3.749   8.372  0.3770 -1.2866 -0.8221
 5140TIP3   OH237054   1.204   1.216   8.786  0.1924  0.3944  0.2774
 5140TIP3    H137055   1.291   1.217   8.826 -0.0129 -0.7352  0.7876
 5140TIP3    H237056   1.200   1.297   8.735  1.5217  0.4850  0.2851
 5141TIP3   OH237057   3.778   3.561   7.362 -0.1764 -0.3544  0.1410
 5141TIP3    H137058   3.734   3.536   7.281  0.8846 -0.1075 -0.5307
 5141TIP3    H237059   3.872   3.554   7.342  0.1053 -0.4842  1.4090
 5142TIP3   OH237060   1.776   0.255   1.656 -0.3447 -0.3756 -0.0943
 5142TIP3    H137061   1.744   0.324   1.714 -0.1028 -0.8312  0.5871
 5142TIP3    H237062   1.778   0.177   1.710  1.2282 -0.5186 -0.3138
 5143TIP3   OH237063   2.818   1.567   2.518  0.0182  0.1187 -0.4444
 5143TIP3    H137064   2.734   1.613   2.520 -0.0700 -0.0614  0.8725
 5143TIP3    H237065   2.797   1.478   2.489 -0.1723  0.2096 -0.5837
 5144TIP3   OH237066   5.047   2.998   1.229  0.2519  0.6045 -0.1462
 5144TIP3    H137067   4.985   3.066   1.203 -0.9199 -0.6924 -0.9213
 5144TIP3    H237068   5.082   3.028   1.313 -2.1281  0.9774  0.7969
 5145TIP3   OH237069   5.016   1.665   1.912 -0.3021  0.5208 -0.1797
 5145TIP3    H137070   5.110   1.676   1.901 -0.3750  0.5407 -0.8717
 5145TIP3    H237071   4.984   1.645   1.824 -0.7630 -0.9228  0.2832
 5146TIP3   OH237072   6.296   5.413   1.196 -0.5816 -0.1260  0.2199
 5146TIP3    H137073   6.344   5.460   1.128  0.1185  0.0911  0.8536
 5146TIP3    H237074   6.356   5.410   1.270 -1.5374  0.1291  1.0269
 5147TIP3   OH237075   3.452   0.251   8.299  0.4136  0.0358 -0.0602
 5147TIP3    H137076   3.397   0.186   8.342 -1.4773 -0.0359 -2.4024
 5147TIP3    H237077   3.424   0.250   8.208  1.3509  3.0824 -0.4955
 5148TIP3   OH237078   0.261   2.293   1.420 -0.1098  0.2100 -0.2605
 5148TIP3    H137079   0.290   2.278   1.330  1.5778  0.1016  0.2643
 5148TIP3    H237080   0.342   2.300   1.470 -1.0112  0.9283  1.1542
 5149TIP3   OH237081   5.625   3.992   0.793  0.1562  0.0598 -0.0361
 5149TIP3    H137082   5.605   4.085   0.787  0.1062  0.0040 -0.7333
 5149TIP3    H237083   5.602   3.969   0.883 -0.8854  0.4701 -0.1807
 5150TIP3   OH237084   0.023   2.347   6.829  0.3898  0.0984  0.0566
 5150TIP3    H137085   0.041   2.390   6.745  0.4126  0.6438  0.3386
 5150TIP3    H237086  -0.006   2.417   6.887 -1.5034 -0.5464 -0.0222
 5151TIP3   OH237087   5.072   6.194   0.604 -0.4235  0.1720  0.0421
 5151TIP3    H137088   5.067   6.225   0.694 -1.4010 -1.5484  0.6160
 5151TIP3    H237089   5.051   6.101   0.608  1.9296 -0.5403 -1.6705
 5152TIP3   OH237090   2.582   3.139   2.405  0.3709 -0.1570 -0.4259
 5152TIP3    H137091   2.642   3.099   2.467  0.6552 -2.3120 -2.0019
 5152TIP3    H237092   2.536   3.206   2.456  0.8618 -1.5564  1.9852
 5153TIP3   OH237093   5.720   4.758   7.163  0.1240 -0.2427  0.1311
 5153TIP3    H137094   5.655   4.688   7.174 -0.2504 -0.6473 -3.4642
 5153TIP3    H237095   5.671   4.838   7.180 -0.1245 -0.7164  1.7630
 5154TIP3   OH237096   4.980   3.077   1.986 -0.4543  0.2277 -0.1437
 5154TIP3    H137097   5.055   3.060   2.044 -0.5545  0.7081  0.1357
 5154TIP3    H237098   4.928   2.997   1.989 -0.8570  0.5105  1.0486
 5155TIP3   OH237099   6.359   5.481   0.248 -0.3063 -0.3191  0.3151
 5155TIP3    H137100   6.391   5.571   0.239  0.5005 -0.5945  0.2946
 5155TIP3    H237101   6.267   5.491   0.272 -0.7686  0.4853 -1.6321
 5156TIP3   OH237102   6.559   6.690   1.389 -0.2810 -0.2223 -0.3692
 5156TIP3    H137103   6.471   6.724   1.403  0.1633  0.2810  1.3710
 5156TIP3    H237104   6.576   6.634   1.464  1.4932  1.0358  0.2410
 5157TIP3   OH237105   1.312   2.997   2.266  0.8746  0.9714  0.5546
 5157TIP3    H137106   1.327   3.048   2.345  0.1109 -0.0699  1.3939
 5157TIP3    H237107   1.249   2.930   2.292  1.7866 -0.3600 -0.5356
 5158TIP3   OH237108   2.148   6.299   2.084  0.4051  0.6345 -0.0140
 5158TIP3    H137109   2.131   6.341   1.999  0.4395  2.7378  0.9607
 5158TIP3    H237110   2.241   6.278   2.082  0.4830  0.9986 -0.3683
 5159TIP3   OH237111   2.684   0.729   1.092 -0.1780 -0.5828 -0.1169
 5159TIP3    H137112   2.712   0.711   1.003 -1.6644 -1.5685 -0.4208
 5159TIP3    H237113   2.622   0.802   1.084  0.0260 -0.3786  0.1600
 5160TIP3   OH237114   4.958   3.891   7.354 -0.0766 -0.0151 -0.2875
 5160TIP3    H137115   4.918   3.879   7.440 -2.4273  0.9336 -1.1533
 5160TIP3    H237116   5.047   3.918   7.372 -0.5376  0.2348  1.8532
 5161TIP3   OH237117   2.086   3.000   2.129 -0.7679  0.1610  0.0801
 5161TIP3    H137118   2.001   3.018   2.090 -0.8562  0.5137  0.4278
 5161TIP3    H237119   2.088   2.905   2.139 -2.6945  0.3264  3.4893
 5162TIP3   OH237120   4.837   1.315   0.861  0.3172 -0.4374 -0.7000
 5162TIP3    H137121   4.885   1.391   0.892 -0.0834  0.6653 -2.6285
 5162TIP3    H237122   4.904   1.248   0.847  0.8751  0.0509 -0.4000
 5163TIP3   OH237123   0.990   2.823   7.526  0.6297  0.0872 -0.8706
 5163TIP3    H137124   1.022   2.764   7.458  1.4832 -1.1940  0.5764
 5163TIP3    H237125   1.008   2.777   7.608  0.1824  1.8350  0.2630
 5164TIP3   OH237126   6.491   5.766   2.032  0.5739  0.0297 -0.4163
 5164TIP3    H137127   6.434   5.739   1.960 -1.0984  1.5202  0.2789
 5164TIP3    H237128   6.446   5.736   2.111  1.3239  0.2463  0.1038
 5165TIP3   OH237129   6.036   6.013   8.732 -0.1969 -0.3204  0.3767
 5165TIP3    H137130   6.078   5.960   8.664  2.6996  0.8947  1.0802
 5165TIP3    H237131   6.015   5.951   8.802  2.5837 -0.7319  0.9434
 5166TIP3   OH237132   4.959   5.864   1.194  0.4020  0.7230  0.4895
 5166TIP3    H137133   5.020   5.883   1.123 -0.2913 -0.6943 -0.5476
 5166TIP3    H237134   4.917   5.782   1.167 -1.3839  1.2434  1.5406
 5167TIP3   OH237135   1.102   1.661   1.440 -0.3606 -0.2386 -0.2652
 5167TIP3    H137136   1.050   1.585   1.467 -0.7956  0.0448 -0.2870
 5167TIP3    H237137   1.166   1.627   1.378 -1.2794 -0.4073 -1.1390
 5168TIP3   OH237138   6.636   2.935   0.327 -0.3963  0.0985 -0.3570
 5168TIP3    H137139   6.700   2.937   0.256  1.3284 -0.0063  1.1360
 5168TIP3    H237140   6.616   3.027   0.345  1.3702  0.2792  0.8900
 5169TIP3   OH237141   1.339   5.380   0.974  0.3481  0.0100  0.1691
 5169TIP3    H137142   1.427   5.400   1.004  1.1072 -0.0470 -1.8677
 5169TIP3    H237143   1.296   5.465   0.965  1.0205  0.2398 -1.1183
 5170TIP3   OH237144   3.719   1.893   0.104 -0.1288 -0.3522 -0.1765
 5170TIP3    H137145   3.742   1.958   0.170  2.3408 -1.5381  0.2720
 5170TIP3    H237146   3.779   1.820   0.120 -1.7335 -2.1112 -1.6242
 5171TIP3   OH237147   3.023   0.414   7.382  0.1579  0.2616  0.2226
 5171TIP3    H137148   3.109   0.380   7.406 -0.7935 -0.8336  2.3350
 5171TIP3    H237149   2.984   0.345   7.327  0.5088  0.6427 -0.5163
 5172TIP3   OH237150   4.790   2.092   7.618 -0.2189  0.2239  0.5621
 5172TIP3    H137151   4.863   2.129   7.568 -0.7647  0.4739 -0.0668
 5172TIP3    H237152   4.812   2.111   7.709 -0.5325  2.2583  0.2723
 5173TIP3   OH237153   2.144   3.728   8.462 -0.0426  0.2088 -0.2849
 5173TIP3    H137154   2.051   3.711   8.475  0.0090  0.3173  0.2417
 5173TIP3    H237155   2.188   3.649   8.494  0.0698  0.3353 -0.1251
 5174TIP3   OH237156   5.187   2.892   0.512 -0.1256  0.0183 -0.0261
 5174TIP3    H137157   5.236   2.857   0.586  1.3057 -0.4929 -1.1653
 5174TIP3    H237158   5.099   2.909   0.547 -0.5241 -3.4023  0.9833
 5175TIP3   OH237159   4.223   5.351   0.983  0.0708 -0.1512  0.2892
 5175TIP3    H137160   4.287   5.280   0.985 -0.2184 -0.5466 -1.6496
 5175TIP3    H237161   4.226   5.383   0.893 -1.1496  1.0385  0.6336
 5176TIP3   OH237162   2.388   6.372   7.044 -0.1334 -0.0567  0.2916
 5176TIP3    H137163   2.420   6.462   7.036  0.5959 -0.4997 -2.6011
 5176TIP3    H237164   2.394   6.336   6.956 -1.5260 -2.6032  1.1419
 5177TIP3   OH237165   1.152   4.098   8.548 -0.2181 -0.4415  0.0136
 5177TIP3    H137166   1.245   4.086   8.566  0.2382 -0.7982 -2.2224
 5177TIP3    H237167   1.149   4.165   8.480 -1.6177 -0.2790  0.1954
 5178TIP3   OH237168   5.117   3.043   0.749  0.0352 -0.0124 -0.0573
 5178TIP3    H137169   5.035   3.054   0.701 -0.2960 -1.2450  0.1941
 5178TIP3    H237170   5.178   3.102   0.706 -1.2949  1.9100  0.5333
 5179TIP3   OH237171   0.334   3.129   8.252  0.0331 -0.2602  0.2900
 5179TIP3    H137172   0.423   3.095   8.254 -0.2748 -1.0915  0.3816
 5179TIP3    H237173   0.339   3.213   8.297  0.7507 -0.3472  0.3792
 5180TIP3   OH237174   1.663   6.412   6.801 -0.4197  0.2957  0.3756
 5180TIP3    H137175   1.746   6.446   6.766 -0.1214  0.6484  1.3750
 5180TIP3    H237176   1.669   6.318   6.789  0.8518  0.1435  1.8623
 5181TIP3   OH237177   1.477   5.259   1.405 -0.2631 -0.2139  0.1828
 5181TIP3    H137178   1.438   5.321   1.344  0.8283  0.7479  0.4276
 5181TIP3    H237179   1.534   5.204   1.352 -1.1178 -0.9360 -0.0107
 5182TIP3   OH237180   6.446   5.875   1.018  0.3341 -0.3508 -0.2079
 5182TIP3    H137181   6.373   5.834   1.064 -0.5515  2.2668  0.9410
 5182TIP3    H237182   6.410   5.900   0.933  0.1637  0.0504 -0.0226
 5183TIP3   OH237183   3.432   0.307   8.746  0.5361  0.2111  0.3171
 5183TIP3    H137184   3.354   0.330   8.695  0.6215 -0.2304 -0.0203
 5183TIP3    H237185   3.488   0.384   8.740  1.6754 -0.7127 -2.4297
 5184TIP3   OH237186   6.671   1.546   7.569  0.3417  0.4149  0.4610
 5184TIP3    H137187   6.724   1.613   7.611  0.1735 -0.2349  1.7533
 5184TIP3    H237188   6.673   1.472   7.629  1.0905 -1.0231 -1.2262
 5185TIP3   OH237189   5.332   6.752   1.467 -0.1508  0.2000  0.1073
 5185TIP3    H137190   5.246   6.791   1.452 -0.6465  0.0268  2.1659
 5185TIP3    H237191   5.315   6.659   1.477  0.6414 -0.2128 -1.8136
 5186TIP3   OH237192   2.541   6.424   7.575 -0.2987 -0.8507 -0.0019
 5186TIP3    H137193   2.451   6.434   7.605 -0.7511  0.7027 -1.6583
 5186TIP3    H237194   2.547   6.482   7.499  1.9236 -1.4129 -0.3252
 5187TIP3   OH237195   4.141   4.628   1.665  0.2184  0.0244  0.6286
 5187TIP3    H137196   4.212   4.670   1.616 -1.8127  1.7535 -1.0335
 5187TIP3    H237197   4.130   4.683   1.742 -0.5537  0.9276 -0.1026
 5188TIP3   OH237198   1.233   5.614   0.867 -0.1018 -0.1581 -0.0160
 5188TIP3    H137199   1.181   5.681   0.911 -1.5491 -1.0713 -0.2780
 5188TIP3    H237200   1.319   5.654   0.857 -1.2664  2.2406 -1.3971
 5189TIP3   OH237201   3.149   3.471   6.488 -0.7004 -0.5149  0.4388
 5189TIP3    H137202   3.239   3.482   6.459 -1.5281  1.4138 -1.8322
 5189TIP3    H237203   3.120   3.388   6.450  0.1267 -1.2149  1.3099
 5190TIP3   OH237204   1.284   1.171   8.470 -0.0798  0.0378 -0.6206
 5190TIP3    H137205   1.341   1.247   8.484 -0.6750  0.1318  1.6425
 5190TIP3    H237206   1.206   1.189   8.522 -0.5450 -1.7885 -0.6063
 5191TIP3   OH237207   6.076   5.772   0.519  0.8475 -0.7274  0.0726
 5191TIP3    H137208   6.113   5.761   0.607  2.1131  0.4892 -0.2666
 5191TIP3    H237209   6.024   5.852   0.525  1.8240 -0.0281 -0.5315
 5192TIP3   OH237210   1.534   4.432   6.694  0.4979 -0.6076 -0.2502
 5192TIP3    H137211   1.596   4.501   6.717 -0.9902  0.4581  0.7532
 5192TIP3    H237212   1.575   4.352   6.726  1.0650  0.1444  0.9745
 5193TIP3   OH237213   3.788   2.384   8.411 -0.1823  0.0167  0.6446
 5193TIP3    H137214   3.768   2.292   8.425 -1.1532  0.2361  0.7759
 5193TIP3    H237215   3.713   2.418   8.364  0.6216  0.5252 -0.2999
 5194TIP3   OH237216   4.326   2.926   7.976  0.6125 -0.2454  0.0934
 5194TIP3    H137217   4.383   2.882   7.913  1.3630  2.0952 -0.9899
 5194TIP3    H237218   4.239   2.890   7.960  0.9708 -0.4231 -1.6286
 5195TIP3   OH237219   4.349   4.862   8.015  1.0514 -0.1481  0.2810
 5195TIP3    H137220   4.386   4.852   8.103 -0.3115 -2.8571  0.6674
 5195TIP3    H237221   4.293   4.939   8.021  1.0349 -0.2410  1.7697
 5196TIP3   OH237222   2.678   0.104   8.167 -0.1382 -0.8113  0.3482
 5196TIP3    H137223   2.606   0.042   8.171 -0.3775 -0.5355  0.3140
 5196TIP3    H237224   2.726   0.079   8.088 -0.3962 -0.7725  0.1800
 5197TIP3   OH237225   0.986   0.705   2.037 -0.0105  0.2055  0.1699
 5197TIP3    H137226   0.994   0.613   2.061  1.1368  0.5286  1.1282
 5197TIP3    H237227   0.920   0.740   2.097 -2.4503 -0.5152 -1.9169
 5198TIP3   OH237228   3.260   5.963   8.447  0.1249  0.5320  0.4332
 5198TIP3    H137229   3.284   5.896   8.383  0.2504  1.7908 -0.8996
 5198TIP3    H237230   3.175   5.996   8.416  0.3548  1.4094  0.6887
 5199TIP3   OH237231   4.150   2.186   0.191 -0.1687 -0.2701  0.1743
 5199TIP3    H137232   4.057   2.178   0.168 -0.0547  1.6647 -1.2511
 5199TIP3    H237233   4.196   2.169   0.109  0.5740  1.3005  0.2395
 5200TIP3   OH237234   2.947   4.489   1.075 -0.8020 -0.1890 -0.0770
 5200TIP3    H137235   2.917   4.420   1.134  0.3860 -0.8795 -0.2348
 5200TIP3    H237236   2.904   4.568   1.107  0.4415 -0.3657  2.2730
 5201TIP3   OH237237   4.439   4.154   8.173 -0.3342  0.3300 -0.6385
 5201TIP3    H137238   4.402   4.066   8.161  0.4096 -0.1029  0.1350
 5201TIP3    H237239   4.394   4.207   8.107 -2.1729 -0.1956  0.1161
 5202TIP3   OH237240   2.159   4.412   0.065  0.9111 -0.1593 -0.5069
 5202TIP3    H137241   2.086   4.389   0.007  0.3702  0.1830  0.0272
 5202TIP3    H237242   2.216   4.466   0.010 -0.7384  2.1225 -0.1305
 5203TIP3   OH237243   4.538   1.662   7.830 -0.1607 -0.1359  0.2943
 5203TIP3    H137244   4.478   1.737   7.837 -0.1723  0.0476 -1.4262
 5203TIP3    H237245   4.616   1.698   7.788  0.4023 -0.8027  0.7412
 5204TIP3   OH237246   3.292   4.081   8.041  0.0586  0.1578 -0.1094
 5204TIP3    H137247   3.288   4.054   7.949  0.3163  1.7661 -0.6290
 5204TIP3    H237248   3.369   4.137   8.046  0.0385  0.1005  1.0946
 5205TIP3   OH237249   5.520   2.514   1.739  0.4503  0.1491  0.1181
 5205TIP3    H137250   5.588   2.456   1.772  1.3119  0.8478 -0.3984
 5205TIP3    H237251   5.463   2.530   1.814  1.3229  0.2227  0.7729
 5206TIP3   OH237252   2.123   0.276   6.916  0.0778 -0.2369 -0.0084
 5206TIP3    H137253   2.041   0.268   6.867 -0.2854  1.2897  0.2795
 5206TIP3    H237254   2.161   0.358   6.885  1.2160 -0.6314  0.2916
 5207TIP3   OH237255   2.388   3.047   1.345 -0.1513 -0.2500 -0.8745
 5207TIP3    H137256   2.411   2.973   1.288 -2.1196 -1.0153 -0.7593
 5207TIP3    H237257   2.420   3.021   1.431 -1.4640 -1.3298 -0.6898
 5208TIP3   OH237258   0.207   5.222   1.069 -0.3026  1.1015  0.1026
 5208TIP3    H137259   0.223   5.194   1.158 -1.7137  0.3785  0.1479
 5208TIP3    H237260   0.295   5.235   1.032  0.3799 -1.3209  0.7152
 5209TIP3   OH237261   3.714   2.328   1.181 -0.1106  0.3223 -0.1757
 5209TIP3    H137262   3.657   2.312   1.255  0.6487  0.7801  0.5287
 5209TIP3    H237263   3.788   2.269   1.194  0.8216  1.5597  0.3465
 5210TIP3   OH237264   5.647   5.286   1.746 -0.1039  0.2749  0.1257
 5210TIP3    H137265   5.588   5.296   1.821  0.0079  1.0575  0.1139
 5210TIP3    H237266   5.638   5.367   1.698  0.4676  0.1151 -0.2575
 5211TIP3   OH237267   6.028   1.691   7.867 -0.2052 -0.3282  0.0018
 5211TIP3    H137268   6.082   1.635   7.811 -0.5752 -1.5583  0.8334
 5211TIP3    H237269   6.088   1.724   7.933  0.0186  0.3095 -0.5043
 5212TIP3   OH237270   4.453   6.310   7.459 -0.6074  0.2794  0.0059
 5212TIP3    H137271   4.522   6.244   7.458  0.0516  0.9610  0.4099
 5212TIP3    H237272   4.372   6.259   7.469 -0.1408 -0.4917 -0.0725
 5213TIP3   OH237273   1.005   0.294   0.358  0.0306 -0.8518  0.0910
 5213TIP3    H137274   0.923   0.265   0.318  0.7232 -0.6567 -1.5723
 5213TIP3    H237275   0.999   0.266   0.449 -1.2660 -2.1426 -0.3528
 5214TIP3   OH237276   2.208   1.780   8.266  0.5479 -0.2975 -0.0658
 5214TIP3    H137277   2.185   1.747   8.180  2.1378 -0.2293 -0.5373
 5214TIP3    H237278   2.262   1.857   8.249 -0.1505  0.4566  1.0054
 5215TIP3   OH237279   0.762   3.007   0.910 -0.0110 -0.1175  0.6981
 5215TIP3    H137280   0.766   2.934   0.848 -2.5160 -0.2812  0.6298
 5215TIP3    H237281   0.672   3.040   0.903 -0.1273  0.4461  3.5746
 5216TIP3   OH237282   1.469   0.440   0.989  0.5405  0.7587 -0.4535
 5216TIP3    H137283   1.532   0.420   1.058  0.1118  1.1354  0.0561
 5216TIP3    H237284   1.394   0.383   1.006  0.9620 -0.1028 -1.3963
 5217TIP3   OH237285   6.761   5.985   0.269  0.0220 -0.0849 -0.0271
 5217TIP3    H137286   6.830   6.046   0.294 -1.9928  2.2194  0.2658
 5217TIP3    H237287   6.749   5.929   0.345  0.3594  0.6852  0.6079
 5218TIP3   OH237288   0.280   5.672   8.395 -0.3605  0.5203  0.0885
 5218TIP3    H137289   0.209   5.662   8.458 -0.6454  1.8031 -0.0017
 5218TIP3    H237290   0.314   5.760   8.411 -0.7671  1.0744 -1.8670
 5219TIP3   OH237291   2.069   2.383   8.978  0.4676  0.2785 -0.1696
 5219TIP3    H137292   2.137   2.443   9.009  0.4909  1.1889 -1.8693
 5219TIP3    H237293   2.036   2.424   8.898 -1.5351 -0.5385  0.1805
 5220TIP3   OH237294   2.183   3.799   1.771 -0.1843 -0.0899 -0.1968
 5220TIP3    H137295   2.139   3.877   1.806 -1.0040 -0.0621 -1.2456
 5220TIP3    H237296   2.178   3.809   1.676  0.9867 -0.7235 -0.3443
 5221TIP3   OH237297   0.803   5.525   0.984 -0.1641 -0.0205  0.3797
 5221TIP3    H137298   0.797   5.434   0.955  0.0402 -0.2782  1.1205
 5221TIP3    H237299   0.750   5.528   1.063 -0.9045  0.7224 -0.1298
 5222TIP3   OH237300   5.335   3.584   1.351 -0.0483  0.0044  0.3646
 5222TIP3    H137301   5.331   3.568   1.446  0.9220 -0.0803  0.4071
 5222TIP3    H237302   5.248   3.560   1.319 -0.1036 -0.8674  1.1059
 5223TIP3   OH237303   3.028   2.221   1.414  0.2230 -0.4175 -0.3549
 5223TIP3    H137304   2.944   2.197   1.376 -0.2035  0.3017  0.1176
 5223TIP3    H237305   3.055   2.143   1.463  0.3025 -0.9925 -1.2901
 5224TIP3   OH237306   4.503   4.732   1.900 -0.3800  0.1547 -0.0141
 5224TIP3    H137307   4.411   4.706   1.910 -0.7614  1.5273  0.2422
 5224TIP3    H237308   4.503   4.826   1.917  0.6489  0.7212 -2.6681
 5225TIP3   OH237309   1.242   5.145   1.088 -0.3052 -0.1541  0.0695
 5225TIP3    H137310   1.298   5.069   1.074 -0.8068 -0.4490 -0.3349
 5225TIP3    H237311   1.276   5.212   1.029  0.7057  0.2549  1.0636
 5226TIP3   OH237312   1.060   4.333   7.902 -0.2251  0.0060 -0.2154
 5226TIP3    H137313   1.062   4.405   7.965  1.1514  1.1265 -1.5042
 5226TIP3    H237314   1.118   4.360   7.832  0.1933 -2.2953 -0.8290
 5227TIP3   OH237315   2.946   0.091   1.842 -0.3600  0.7335 -0.2368
 5227TIP3    H137316   2.912   0.138   1.919 -1.3025  1.6383 -1.1764
 5227TIP3    H237317   2.911   0.003   1.851 -0.2352  0.7559  0.5211
 5228TIP3   OH237318   6.250   4.027   1.516 -0.4512  0.4965 -0.1326
 5228TIP3    H137319   6.202   4.100   1.475  0.8997  1.9515  0.7567
 5228TIP3    H237320   6.342   4.048   1.502  0.0205  0.0780  1.9450
 5229TIP3   OH237321   5.083   0.891   8.272  0.1614 -0.0055  0.2000
 5229TIP3    H137322   5.082   0.832   8.197  0.2288  0.9212 -0.5470
 5229TIP3    H237323   5.092   0.834   8.348  3.0599 -0.8504 -0.6547
 5230TIP3   OH237324   4.422   2.733   1.508 -0.8308  0.5932  0.0605
 5230TIP3    H137325   4.401   2.661   1.567 -1.7326  0.1874 -0.7431
 5230TIP3    H237326   4.480   2.790   1.560 -0.1032 -0.6897  0.7087
 5231TIP3   OH237327   4.042   5.722   0.611 -0.3101 -0.6903 -0.1298
 5231TIP3    H137328   4.004   5.635   0.597 -1.0929 -0.4832  0.6551
 5231TIP3    H237329   3.973   5.783   0.587 -0.2573 -0.3045  0.6706
 5232TIP3   OH237330   3.335   2.841   8.736 -0.4106 -0.2119 -0.2035
 5232TIP3    H137331   3.355   2.908   8.670  1.1559  0.7276  1.1305
 5232TIP3    H237332   3.421   2.810   8.764 -0.9769 -0.0074  1.9292
 5233TIP3   OH237333   0.994   2.953   8.838  0.3476 -0.6259  0.2277
 5233TIP3    H137334   1.041   2.904   8.905  1.5905 -1.2651 -1.0609
 5233TIP3    H237335   0.934   2.889   8.799  0.2823 -0.5051  0.1300
 5234TIP3   OH237336   5.913   2.054   7.312 -0.3811 -0.4393 -0.2742
 5234TIP3    H137337   5.987   2.110   7.287  0.7757 -1.2618  1.1663
 5234TIP3    H237338   5.919   2.048   7.407 -0.3147 -3.1735 -0.3959
 5235TIP3   OH237339   6.029   1.705   0.150 -0.7367  0.5182 -0.4366
 5235TIP3    H137340   5.967   1.632   0.157  0.5646 -0.4989  1.2569
 5235TIP3    H237341   5.983   1.779   0.190 -1.1417 -0.0250  0.1282
 5236TIP3   OH237342   0.669   1.183   7.003 -0.0872  0.2810  0.4656
 5236TIP3    H137343   0.665   1.108   6.944 -1.1825  0.1911  0.6347
 5236TIP3    H237344   0.758   1.181   7.038 -0.3584 -1.4762  1.1559
 5237TIP3   OH237345   2.387   0.133   1.931  0.0306 -0.0487  0.1902
 5237TIP3    H137346   2.399   0.225   1.906  1.4706  0.0242  1.0072
 5237TIP3    H237347   2.474   0.106   1.963 -0.7043 -1.2913  1.2199
 5238TIP3   OH237348   3.132   1.511   8.679 -0.4617 -0.0265 -0.4328
 5238TIP3    H137349   3.221   1.544   8.695 -0.3999  0.0359 -0.9088
 5238TIP3    H237350   3.104   1.476   8.764 -0.1182  0.2786 -0.1904
 5239TIP3   OH237351   1.707   3.968   7.960  0.5030 -0.4862  0.1005
 5239TIP3    H137352   1.725   4.000   8.048 -0.9877 -0.4930  0.4356
 5239TIP3    H237353   1.760   4.023   7.902  0.1692  0.6713  0.8710
 5240TIP3   OH237354   2.942   1.620   2.751 -0.3228 -0.0085 -0.3376
 5240TIP3    H137355   3.034   1.593   2.750 -0.3723 -0.2004  0.2482
 5240TIP3    H237356   2.908   1.586   2.668 -0.2804 -1.4351  0.1994
 5241TIP3   OH237357   5.657   5.955   0.479  0.3209 -0.4313  0.0718
 5241TIP3    H137358   5.599   6.011   0.530 -0.4546 -0.3901 -0.8211
 5241TIP3    H237359   5.717   5.917   0.543 -0.6286 -0.3876  1.0104
 5242TIP3   OH237360   0.887   3.167   0.508 -0.0201  0.2950 -0.2989
 5242TIP3    H137361   0.966   3.201   0.468 -0.7278  1.9539 -0.3742
 5242TIP3    H237362   0.883   3.076   0.480 -1.3591  1.6450 -5.5855
 5243TIP3   OH237363   2.348   4.812   7.658 -0.2744  0.6415  0.1216
 5243TIP3    H137364   2.380   4.743   7.600 -1.5066 -0.0209  0.2141
 5243TIP3    H237365   2.266   4.779   7.693 -0.6017  1.9177  0.6248
 5244TIP3   OH237366   1.466   0.256   0.567 -0.1578 -0.0359 -0.4141
 5244TIP3    H137367   1.402   0.297   0.626 -1.8547 -1.4267 -1.2061
 5244TIP3    H237368   1.431   0.272   0.479  1.5333  0.6811 -1.0089
 5245TIP3   OH237369   5.525   5.636   0.281 -0.2470 -0.0990  0.3366
 5245TIP3    H137370   5.608   5.677   0.256 -0.7176  1.0856  0.6008
 5245TIP3    H237371   5.547   5.581   0.356  0.2106  0.6551  0.7680
 5246TIP3   OH237372   3.367   4.485   7.698 -0.1899  0.0759 -0.6056
 5246TIP3    H137373   3.336   4.571   7.670  0.7599  0.3346 -0.8891
 5246TIP3    H237374   3.351   4.428   7.623  4.3424  1.2043 -2.7941
 5247TIP3   OH237375   1.788   3.068   1.239  0.0344 -0.5469  0.2657
 5247TIP3    H137376   1.772   3.111   1.155  2.3535  0.1881  0.1439
 5247TIP3    H237377   1.726   3.110   1.299 -0.3181  0.3048 -0.6579
 5248TIP3   OH237378   6.031   6.265   2.006  0.3499  0.6071 -0.2050
 5248TIP3    H137379   5.977   6.208   2.060 -1.6245  2.4128 -0.1246
 5248TIP3    H237380   6.049   6.214   1.927 -0.3047 -0.5569  0.3773
 5249TIP3   OH237381   3.196   6.546   6.505 -0.1259  0.1048  0.2272
 5249TIP3    H137382   3.172   6.494   6.428 -0.0470  1.4342 -0.7348
 5249TIP3    H237383   3.121   6.537   6.564 -0.1134 -1.0668  0.0985
 5250TIP3   OH237384   6.657   5.536   2.081  0.4690 -0.2083  0.0790
 5250TIP3    H137385   6.609   5.610   2.044  0.5984  0.7474  1.7189
 5250TIP3    H237386   6.618   5.523   2.167  1.1972 -1.3330  0.2620
 5251TIP3   OH237387   5.348   6.123   1.427  0.0895 -0.3100 -0.2905
 5251TIP3    H137388   5.267   6.169   1.406  0.5598  0.4770 -0.4005
 5251TIP3    H237389   5.332   6.033   1.398 -0.9252 -0.2843  0.1577
 5252TIP3   OH237390   6.606   0.698   2.355  0.3431 -0.3002  0.4589
 5252TIP3    H137391   6.699   0.720   2.364  0.2452 -0.3332  1.6566
 5252TIP3    H237392   6.573   0.760   2.290  1.1716 -0.2161  0.1066
 5253TIP3   OH237393   0.828   4.461   0.400  0.0071 -0.1421  0.0732
 5253TIP3    H137394   0.751   4.441   0.346 -1.0330  1.1789  0.9792
 5253TIP3    H237395   0.793   4.468   0.489  2.1463 -5.4731  1.6826
 5254TIP3   OH237396   6.015   6.352   7.647 -0.0407  0.6121  0.6128
 5254TIP3    H137397   5.986   6.435   7.685 -2.0364  0.9937 -1.5488
 5254TIP3    H237398   6.094   6.375   7.599  0.2102  0.9473  1.1678
 5255TIP3   OH237399   5.575   1.790   1.402 -0.3038 -0.4334 -1.0172
 5255TIP3    H137400   5.607   1.880   1.406  2.5607 -1.2685 -2.3642
 5255TIP3    H237401   5.581   1.757   1.492  1.3685 -0.0946 -0.9821
 5256TIP3   OH237402   2.812   1.934   2.394  0.2014 -0.4135 -0.0668
 5256TIP3    H137403   2.887   1.893   2.437  0.4158 -0.7466 -0.7447
 5256TIP3    H237404   2.736   1.905   2.446  0.5773  0.3809  0.9534
 5257TIP3   OH237405   3.770   0.594   1.623 -0.0004 -0.5066  0.7171
 5257TIP3    H137406   3.840   0.583   1.559 -0.9532 -0.9478 -0.2619
 5257TIP3    H237407   3.804   0.553   1.703 -0.8917 -5.0450 -0.9729
 5258TIP3   OH237408   2.133   4.698   7.792  0.6642 -0.2620  0.1266
 5258TIP3    H137409   2.182   4.624   7.757  1.2214 -0.1378  0.6190
 5258TIP3    H237410   2.107   4.671   7.880  1.0592  0.2043  0.3923
 5259TIP3   OH237411   5.796   0.981   1.208 -0.0944 -0.0471 -0.1222
 5259TIP3    H137412   5.800   0.959   1.301  0.1215 -1.4376 -0.4442
 5259TIP3    H237413   5.740   0.914   1.169 -1.9042  1.6899 -0.6848
 5260TIP3   OH237414   1.329   4.572   2.463  0.0361 -0.0823  0.2256
 5260TIP3    H137415   1.370   4.516   2.529  0.9712  1.1478  0.7266
 5260TIP3    H237416   1.237   4.545   2.463  0.4347 -1.5308  0.5093
 5261TIP3   OH237417   2.060   6.760   7.317 -0.3385  0.6605  0.2581
 5261TIP3    H137418   2.121   6.770   7.244  0.2745 -0.4913  0.5961
 5261TIP3    H237419   2.115   6.762   7.395 -1.0237  2.2290  0.7372
 5262TIP3   OH237420   5.252   2.135   7.414 -0.0600  0.9977  0.3373
 5262TIP3    H137421   5.252   2.043   7.388  0.0282  1.0912  0.0020
 5262TIP3    H237422   5.344   2.161   7.409  0.1154  0.7364  1.7626
 5263TIP3   OH237423   3.895   1.149   1.032  0.2514  0.4258  0.1461
 5263TIP3    H137424   3.941   1.068   1.052  0.6465  0.8168  0.8880
 5263TIP3    H237425   3.960   1.218   1.046 -0.1073  0.8793 -0.3691
 5264TIP3   OH237426   3.653   6.695   1.350  0.6578  0.4193 -0.4293
 5264TIP3    H137427   3.614   6.654   1.427  1.4652  0.5303  0.0503
 5264TIP3    H237428   3.741   6.720   1.378  0.1113  2.7884 -0.5962
 5265TIP3   OH237429   5.523   2.890   0.641  0.5215 -0.5797 -0.1701
 5265TIP3    H137430   5.481   2.968   0.605  0.1985 -0.7489 -0.1599
 5265TIP3    H237431   5.451   2.829   0.658  0.7335 -0.7381  0.1733
 5266TIP3   OH237432   5.083   0.711   8.477  0.5912  0.4621 -0.3351
 5266TIP3    H137433   5.099   0.620   8.452  0.7450  0.1804  0.7295
 5266TIP3    H237434   5.102   0.714   8.571 -1.6143  1.0576  0.1518
 5267TIP3   OH237435   6.125   0.538   7.435  0.0239 -0.0218 -0.1201
 5267TIP3    H137436   6.103   0.629   7.415  1.1602  0.1343 -0.7140
 5267TIP3    H237437   6.131   0.536   7.530 -0.9461  0.2899 -0.0364
 5268TIP3   OH237438   5.780   2.703   1.246  0.2956 -0.7182  0.1573
 5268TIP3    H137439   5.872   2.702   1.221  0.2723  0.7090 -0.0991
 5268TIP3    H237440   5.782   2.706   1.342  0.5052 -1.0968  0.1656
 5269TIP3   OH237441   0.948   2.619   0.408  0.4422  0.1500 -0.0863
 5269TIP3    H137442   0.967   2.555   0.477 -0.5039 -0.0544 -0.0006
 5269TIP3    H237443   0.894   2.570   0.345 -2.0477  1.3343  0.9669
 5270TIP3   OH237444   4.704   1.472   7.970 -0.5277  0.4092 -0.7981
 5270TIP3    H137445   4.656   1.552   7.948  0.1472  0.9429 -0.3913
 5270TIP3    H237446   4.727   1.483   8.063  0.0241 -0.0159 -0.8798
 5271TIP3   OH237447   6.479   3.810   8.113 -0.5554 -0.1970 -0.4907
 5271TIP3    H137448   6.388   3.838   8.113 -0.0045  1.8333  1.0203
 5271TIP3    H237449   6.491   3.767   8.197  0.1767  0.7062 -0.1183
 5272TIP3   OH237450   0.827   1.137   7.657  0.6907 -0.2014 -0.5267
 5272TIP3    H137451   0.850   1.198   7.726 -0.2746 -1.3223  0.8484
 5272TIP3    H237452   0.731   1.144   7.650  0.5626 -1.5250 -0.3422
 5273TIP3   OH237453   3.277   4.172   7.579 -0.3983 -0.4692 -0.4365
 5273TIP3    H137454   3.290   4.105   7.512  0.4755  0.4566 -1.2218
 5273TIP3    H237455   3.255   4.251   7.529 -0.2866  0.1023  0.4127
 5274TIP3   OH237456   5.950   6.085   1.143  0.4511  0.1793 -0.0146
 5274TIP3    H137457   5.904   6.101   1.060  1.2586  2.0098 -0.1549
 5274TIP3    H237458   6.042   6.076   1.117  0.5448 -0.6004  0.5611
 5275TIP3   OH237459   3.945   0.891   7.876 -0.4946  0.1844 -0.3199
 5275TIP3    H137460   3.862   0.847   7.892 -1.2093  1.4423 -0.4928
 5275TIP3    H237461   3.921   0.974   7.835  0.9564 -0.3488 -2.4233
 5276TIP3   OH237462   5.326   5.659   6.409 -0.6521 -0.1085 -0.4456
 5276TIP3    H137463   5.291   5.572   6.431  2.0595 -0.8902  1.3392
 5276TIP3    H237464   5.309   5.712   6.487  0.8292 -0.1325 -0.0725
 5277TIP3   OH237465   6.515   4.640   0.762 -0.0340 -0.0509 -0.3355
 5277TIP3    H137466   6.479   4.590   0.836  1.5293  0.0899  0.5618
 5277TIP3    H237467   6.574   4.578   0.718  0.2196  0.3354 -0.5407
 5278TIP3   OH237468   4.312   4.656   7.815  0.1649 -0.1817  0.1990
 5278TIP3    H137469   4.382   4.637   7.752  0.1169 -0.8168  0.3311
 5278TIP3    H237470   4.344   4.732   7.863  0.9737 -0.7239  0.5462
 5279TIP3   OH237471   0.858   1.948   8.740  0.8181 -0.6572  0.0600
 5279TIP3    H137472   0.791   1.901   8.690  1.5410  0.0354 -1.6297
 5279TIP3    H237473   0.856   2.037   8.704  2.8397 -0.6988 -0.2448
 5280TIP3   OH237474   1.828   4.759   1.545  0.1727 -0.0741  0.2220
 5280TIP3    H137475   1.832   4.843   1.590 -1.9508 -0.5529  1.4516
 5280TIP3    H237476   1.919   4.729   1.540  0.7436  1.3127  1.6676
 5281TIP3   OH237477   1.323   3.823   7.741 -0.6057 -0.7025 -0.2396
 5281TIP3    H137478   1.253   3.767   7.777 -1.5577  0.0182 -0.9192
 5281TIP3    H237479   1.300   3.911   7.770  1.0463 -0.6622  1.0667
 5282TIP3   OH237480   5.920   5.130   0.041 -0.1593  0.5489 -0.0592
 5282TIP3    H137481   5.895   5.041   0.016 -1.0580  0.9279 -0.5717
 5282TIP3    H237482   5.859   5.154   0.111  0.7242  0.4107  0.7728
 5283TIP3   OH237483   2.508   5.351   1.278  0.4424 -0.0701  0.4150
 5283TIP3    H137484   2.477   5.409   1.347 -0.1799 -1.2152  1.1261
 5283TIP3    H237485   2.487   5.263   1.309  0.1739 -0.6165 -1.2150
 5284TIP3   OH237486   4.485   0.834   8.012 -0.3692  0.6451  0.0716
 5284TIP3    H137487   4.569   0.800   8.043 -0.6507  1.3229  1.6534
 5284TIP3    H237488   4.507   0.914   7.965 -0.1476  0.8703  0.5618
 5285TIP3   OH237489   6.427   5.329   0.010 -0.3017 -0.1359 -0.3659
 5285TIP3    H137490   6.417   5.395   0.079 -0.0513 -0.1312 -0.3338
 5285TIP3    H237491   6.359   5.264   0.029  0.2439 -0.5077  0.3105
 5286TIP3   OH237492   1.733   6.609   1.287 -0.1118  0.5412 -0.0783
 5286TIP3    H137493   1.734   6.700   1.260 -0.0099  0.0427 -1.8904
 5286TIP3    H237494   1.790   6.606   1.364  0.1162  1.9414 -0.1695
 5287TIP3   OH237495   0.232   4.876   8.279 -0.0400  0.2286 -0.5226
 5287TIP3    H137496   0.298   4.922   8.332 -1.8776  2.1255  0.2437
 5287TIP3    H237497   0.256   4.784   8.288  2.1392  0.7900  0.2187
 5288TIP3   OH237498   4.628   6.725   6.842 -0.3058  0.5687  0.6030
 5288TIP3    H137499   4.617   6.630   6.837  1.5142  0.3592  0.0369
 5288TIP3    H237500   4.597   6.758   6.758  1.1243  0.2320 -0.0720
 5289TIP3   OH237501   5.760   5.160   0.254 -0.1139 -0.5170  0.1662
 5289TIP3    H137502   5.789   5.231   0.311 -1.4826 -0.2821  0.6005
 5289TIP3    H237503   5.704   5.106   0.309 -0.2706 -1.1069 -0.5558
 5290TIP3   OH237504   0.068   4.277   6.685  0.1442 -0.4335  0.0303
 5290TIP3    H137505   0.066   4.312   6.595  1.1368 -1.7997 -0.5592
 5290TIP3    H237506  -0.023   4.278   6.713 -0.2763 -0.6300 -1.2688
 5291TIP3   OH237507   4.980   5.281   1.590 -0.0905 -0.3175 -0.0942
 5291TIP3    H137508   5.004   5.322   1.507  0.2146  1.3794  0.7721
 5291TIP3    H237509   5.041   5.319   1.654 -1.8256  0.2940  1.2885
 5292TIP3   OH237510   0.479   4.040   8.233 -0.2498  0.2886 -0.0012
 5292TIP3    H137511   0.563   4.049   8.186  0.9497 -1.5400  1.6384
 5292TIP3    H237512   0.413   4.068   8.170  1.5012  0.6894 -1.7520
 5293TIP3   OH237513   0.969   4.079   7.363 -0.0229 -0.3904 -0.2657
 5293TIP3    H137514   0.985   4.157   7.310  0.1244 -0.3241 -0.1254
 5293TIP3    H237515   0.954   4.113   7.452 -0.8565 -0.4581 -0.3744
 5294TIP3   OH237516   0.917   4.720   0.004  0.5968 -0.0094 -0.0900
 5294TIP3    H137517   0.882   4.741   0.090  0.7730  0.3843 -0.1135
 5294TIP3    H237518   0.840   4.712  -0.053  0.5512  1.1584 -0.2135
 5295TIP3   OH237519   1.872   4.558   8.463 -0.1850 -0.2635  0.1591
 5295TIP3    H137520   1.936   4.579   8.395  0.4491 -0.1274  0.7775
 5295TIP3    H237521   1.926   4.530   8.538 -0.8806 -0.8886  0.4423
 5296TIP3   OH237522   0.375   3.841   1.667  0.9917  0.1026  0.2951
 5296TIP3    H137523   0.284   3.870   1.659  1.2636  1.4910  1.7637
 5296TIP3    H237524   0.404   3.830   1.576 -0.2542  0.9141 -0.2326
 5297TIP3   OH237525   0.203   0.384   1.583  0.5338  0.1402  0.3074
 5297TIP3    H137526   0.115   0.423   1.586  0.3658 -0.2865  1.9600
 5297TIP3    H237527   0.250   0.427   1.654  1.1778 -0.7551  0.4319
 5298TIP3   OH237528   6.206   1.495   1.246 -0.3185  0.4152 -0.3925
 5298TIP3    H137529   6.158   1.557   1.302 -0.4951 -0.5862  0.5976
 5298TIP3    H237530   6.298   1.517   1.260 -0.4118  1.2661 -1.0261
 5299TIP3   OH237531   4.540   3.619   0.515  0.9179 -0.2895 -0.1531
 5299TIP3    H137532   4.536   3.690   0.579  3.7983 -0.9098  0.8837
 5299TIP3    H237533   4.544   3.540   0.567 -1.1428 -1.2102 -1.2739
 5300TIP3   OH237534   2.934   4.069   8.428  0.4013  0.2577  0.3915
 5300TIP3    H137535   2.968   4.153   8.457 -1.3090  1.2277 -0.2623
 5300TIP3    H237536   2.932   4.075   8.332 -0.0165 -0.4091  0.3458
 5301TIP3   OH237537   2.713   4.668   8.841  0.1063 -0.4648 -0.5537
 5301TIP3    H137538   2.777   4.737   8.860  0.5066 -1.3795  1.7438
 5301TIP3    H237539   2.629   4.713   8.842  0.2950 -0.0131  1.5887
 5302TIP3   OH237540   2.650   4.530   1.332 -0.4742 -0.2660  0.1180
 5302TIP3    H137541   2.693   4.600   1.381  0.6641 -0.8807  0.0257
 5302TIP3    H237542   2.700   4.451   1.353 -0.8500 -0.7989 -0.9025
 5303TIP3   OH237543   2.782   3.817   7.589 -0.0454 -0.0438 -0.0158
 5303TIP3    H137544   2.831   3.770   7.656 -0.4634 -1.5176 -0.7023
 5303TIP3    H237545   2.766   3.903   7.627 -1.3282 -1.1990  2.2759
 5304TIP3   OH237546   6.258   2.804   1.353  0.0690 -0.1132 -0.6637
 5304TIP3    H137547   6.259   2.895   1.324 -2.5765  0.7365  1.5372
 5304TIP3    H237548   6.170   2.791   1.388  1.4324 -2.4767  2.2941
 5305TIP3   OH237549   4.023   0.770   0.110  0.1944 -0.1208  0.1242
 5305TIP3    H137550   4.007   0.722   0.192 -1.8232  2.7850  1.5874
 5305TIP3    H237551   4.113   0.801   0.119  0.1545 -0.2291  1.0423
 5306TIP3   OH237552   3.947   2.583   6.834  0.1228  0.2400  0.3086
 5306TIP3    H137553   4.004   2.599   6.909  0.4934 -0.0499  0.0889
 5306TIP3    H237554   3.909   2.497   6.850  0.7142 -0.1146 -0.1579
 5307TIP3   OH237555   4.805   1.116   0.112 -0.0944 -0.5195 -0.1051
 5307TIP3    H137556   4.878   1.062   0.144 -0.4243 -1.2275 -0.5247
 5307TIP3    H237557   4.787   1.176   0.184  1.0899 -0.1396 -0.1060
 5308TIP3   OH237558   3.388   6.751   7.264  0.2220 -0.1325  0.8327
 5308TIP3    H137559   3.362   6.714   7.348 -0.4327  0.3939  0.8685
 5308TIP3    H237560   3.359   6.842   7.267  3.5605  1.0744  1.5724
 5309TIP3   OH237561   3.465   2.513   8.535  0.5116 -0.0576  0.1180
 5309TIP3    H137562   3.393   2.463   8.497  0.0472 -0.5535  1.5910
 5309TIP3    H237563   3.510   2.552   8.460  0.1322 -1.6609 -0.9800
 5310TIP3   OH237564   0.063   0.330   7.109  0.0671 -0.0847  1.1480
 5310TIP3    H137565   0.019   0.411   7.135 -0.1768  0.9571 -2.0609
 5310TIP3    H237566   0.055   0.328   7.014 -0.2665 -4.1263  1.0919
 5311TIP3   OH237567   4.437   1.008   7.352 -0.4801  0.4491  0.4419
 5311TIP3    H137568   4.457   1.078   7.290  1.2278 -0.2125  0.1923
 5311TIP3    H237569   4.423   1.052   7.436  1.0239  1.0950  0.3846
 5312TIP3   OH237570   2.641   2.761   0.732 -0.2989 -0.1678  1.0082
 5312TIP3    H137571   2.681   2.737   0.815  0.8214  0.1917  0.5920
 5312TIP3    H237572   2.604   2.848   0.747  0.1263  0.0046  1.0561
 5313TIP3   OH237573   3.412   5.783   0.958  0.1434 -0.1860 -0.3225
 5313TIP3    H137574   3.358   5.754   1.031 -0.3856 -0.7557 -0.9220
 5313TIP3    H237575   3.502   5.775   0.989  0.0177 -2.1036 -0.2965
 5314TIP3   OH237576   0.306   2.860   7.653 -0.3312  0.3192 -0.1512
 5314TIP3    H137577   0.265   2.945   7.668  1.0529  1.1909 -1.0718
 5314TIP3    H237578   0.237   2.807   7.614 -0.7884  1.5436 -1.0861
 5315TIP3   OH237579   2.896   1.064   1.830  0.1571  0.0118  0.1917
 5315TIP3    H137580   2.909   1.112   1.912  1.3503 -2.1040  1.3237
 5315TIP3    H237581   2.924   1.125   1.762  3.3593  0.4041  1.6812
 5316TIP3   OH237582   3.085   1.352   8.943  0.4125 -0.3954  0.0653
 5316TIP3    H137583   3.085   1.348   9.039  0.3659  1.0021  0.1528
 5316TIP3    H237584   3.008   1.301   8.917 -0.8246  0.9390  0.9065
 5317TIP3   OH237585   1.965   0.018   1.128  1.0010 -0.1427  0.1285
 5317TIP3    H137586   1.983  -0.060   1.076  1.0903  0.5358 -0.8722
 5317TIP3    H237587   2.049   0.040   1.168  1.1315 -0.1592 -0.1381
 5318TIP3   OH237588   0.935   3.936   7.776  0.4316  0.1816 -0.2169
 5318TIP3    H137589   0.968   3.931   7.686  0.2536  0.6478 -0.3103
 5318TIP3    H237590   0.859   3.878   7.777  0.9265 -0.4801 -0.1417
 5319TIP3   OH237591   1.349   0.069   1.014 -0.5377 -0.3325  0.8100
 5319TIP3    H137592   1.322   0.149   0.969 -0.9815 -1.1016 -0.3390
 5319TIP3    H237593   1.268   0.025   1.037 -0.3004 -1.2808 -0.1115
 5320TIP3   OH237594   0.527   0.646   1.128 -0.4530 -0.5741 -0.2773
 5320TIP3    H137595   0.494   0.735   1.119 -1.8059 -0.9476  0.5092
 5320TIP3    H237596   0.587   0.634   1.055 -1.0722  0.6291 -1.0098
 5321TIP3   OH237597   2.502   5.940   1.597  0.0922 -0.5566  0.3419
 5321TIP3    H137598   2.532   6.029   1.616 -1.9265 -0.0040  1.1239
 5321TIP3    H237599   2.478   5.904   1.683 -1.2419 -1.0277 -0.2049
 5322TIP3   OH237600   5.233   3.876   1.828 -0.0050  0.5778  0.1000
 5322TIP3    H137601   5.180   3.914   1.898 -0.2776 -1.0802  0.8207
 5322TIP3    H237602   5.170   3.856   1.758 -0.2089 -0.5090  0.5787
 5323TIP3   OH237603   4.231   6.644   7.963  0.8052  0.3541 -0.0276
 5323TIP3    H137604   4.152   6.601   7.995  0.7928  1.1445  1.1017
 5323TIP3    H237605   4.300   6.615   8.023  1.2951 -0.0229 -0.7648
 5324TIP3   OH237606   2.744   2.353   7.211  0.0991  0.0139  0.2469
 5324TIP3    H137607   2.758   2.366   7.117  0.8072  1.6123  0.5459
 5324TIP3    H237608   2.759   2.439   7.250 -0.4195 -0.5656  1.8124
 5325TIP3   OH237609   3.132   5.676   8.611 -0.3014 -0.7418 -0.4652
 5325TIP3    H137610   3.153   5.769   8.613 -0.0913 -0.7983  0.3927
 5325TIP3    H237611   3.088   5.659   8.694  2.2349 -1.9852  0.7393
 5326TIP3   OH237612   0.649   0.894   7.322 -0.3548  0.0867 -0.2073
 5326TIP3    H137613   0.635   0.873   7.415  1.8713 -1.6443 -0.1539
 5326TIP3    H237614   0.614   0.818   7.275  2.9231 -1.5177 -0.3673
 5327TIP3   OH237615   1.612   1.255   8.474 -0.7806  0.2026  0.2544
 5327TIP3    H137616   1.654   1.180   8.516 -1.1525 -0.9026 -1.2640
 5327TIP3    H237617   1.674   1.282   8.406 -0.9355  0.8790  0.3755
 5328TIP3   OH237618   6.722   4.290   7.893  0.4330  0.1428  0.2352
 5328TIP3    H137619   6.645   4.254   7.937  0.2495  1.5249  1.1094
 5328TIP3    H237620   6.745   4.224   7.828 -1.3639 -0.4126  0.0894
 5329TIP3   OH237621   0.968   6.425   6.593 -0.3331  0.1345 -0.6154
 5329TIP3    H137622   0.932   6.514   6.589 -2.0386 -0.4595  0.4414
 5329TIP3    H237623   1.014   6.421   6.677  0.9255  0.4028 -1.2665
 5330TIP3   OH237624   5.804   3.794   2.342  0.0643 -0.6462 -0.4201
 5330TIP3    H137625   5.864   3.792   2.268 -0.4702 -0.7487 -0.8600
 5330TIP3    H237626   5.860   3.786   2.419  0.9666  2.4098 -0.6017
 5331TIP3   OH237627   1.080   3.572   0.318 -0.9147  0.3728 -0.4231
 5331TIP3    H137628   1.101   3.632   0.389  1.2633 -2.1517  1.2688
 5331TIP3    H237629   1.030   3.502   0.359  0.3250 -1.1127 -1.3262
 5332TIP3   OH237630   4.274   5.897   0.611 -0.4996 -0.4567 -0.0645
 5332TIP3    H137631   4.318   5.848   0.541 -1.3270  0.2173 -1.0916
 5332TIP3    H237632   4.196   5.845   0.632 -0.5276 -0.3979 -0.0221
 5333TIP3   OH237633   4.821   2.332   1.645 -0.6257  0.7474  0.6041
 5333TIP3    H137634   4.815   2.238   1.664  2.5869  0.2186 -0.2969
 5333TIP3    H237635   4.872   2.368   1.718  2.4990  0.7072 -1.3466
 5334TIP3   OH237636   5.158   6.754   1.943 -0.1975 -0.4464 -0.3043
 5334TIP3    H137637   5.154   6.732   2.036 -0.9031  0.6026 -0.0713
 5334TIP3    H237638   5.140   6.672   1.898 -0.6152 -0.7993  0.4967
 5335TIP3   OH237639   6.458   1.566   1.274 -0.0819  0.4929  0.2415
 5335TIP3    H137640   6.504   1.525   1.347 -0.4260 -0.9176 -0.3137
 5335TIP3    H237641   6.514   1.549   1.198 -0.6078  0.3931 -0.1250
 5336TIP3   OH237642   5.326   0.240   0.764  0.3561 -0.0172  0.2649
 5336TIP3    H137643   5.371   0.214   0.845 -0.3819  0.7460  0.9357
 5336TIP3    H237644   5.272   0.164   0.742 -0.6281  0.3404  1.3675
 5337TIP3   OH237645   4.158   4.004   8.978 -0.2106  0.3004 -0.0254
 5337TIP3    H137646   4.207   4.063   9.036  0.0433 -0.1923  0.2665
 5337TIP3    H237647   4.220   3.982   8.908  0.0889 -0.5720  0.5125
 5338TIP3   OH237648   4.808   5.241   8.839  0.6677 -0.0832  0.0812
 5338TIP3    H137649   4.718   5.210   8.826 -0.2189  2.0260  0.7677
 5338TIP3    H237650   4.807   5.331   8.809  1.1370  1.7392  4.7180
 5339TIP3   OH237651   3.965   1.985   1.249 -0.3425  0.3362  0.8396
 5339TIP3    H137652   4.043   2.024   1.210 -0.5724 -0.3013 -0.3112
 5339TIP3    H237653   3.968   1.893   1.222  0.2428 -0.5230  3.5708
 5340TIP3   OH237654   3.555   0.153   7.860 -0.4808 -0.4793 -0.1877
 5340TIP3    H137655   3.520   0.065   7.842  1.1961 -1.3038  0.4051
 5340TIP3    H237656   3.642   0.153   7.821 -0.8882  1.3747 -1.2376
 5341TIP3   OH237657   3.350   3.672   2.303  0.5878  0.2261 -0.5340
 5341TIP3    H137658   3.257   3.694   2.302  0.0694 -1.8249 -0.7473
 5341TIP3    H237659   3.354   3.582   2.334  2.2516 -0.7333 -3.1478
 5342TIP3   OH237660   3.462   3.815   6.713  0.5246  0.5047  0.0537
 5342TIP3    H137661   3.536   3.769   6.675  0.0765  0.2954 -0.5768
 5342TIP3    H237662   3.458   3.898   6.667  0.9765  0.9492  0.7898
 5343TIP3   OH237663   3.012   4.579   8.794 -0.1591 -0.1171  0.4452
 5343TIP3    H137664   3.015   4.671   8.819  1.1858 -0.0804  0.2153
 5343TIP3    H237665   3.103   4.550   8.799  0.2080 -0.2541 -3.9169
 5344TIP3   OH237666   0.901   5.148   8.118 -0.1254  0.6803  0.2149
 5344TIP3    H137667   0.867   5.139   8.207  0.1471  3.4739  0.6785
 5344TIP3    H237668   0.823   5.152   8.063 -0.2966 -1.0406  0.2716
 5345TIP3   OH237669   6.080   3.339   8.465 -0.1495 -0.1080  0.2087
 5345TIP3    H137670   6.026   3.308   8.537  0.4308  2.0988  1.6742
 5345TIP3    H237671   6.058   3.431   8.456  0.9888  0.0485 -1.3660
 5346TIP3   OH237672   4.255   5.836   8.546  0.1638  0.2383  0.3884
 5346TIP3    H137673   4.165   5.823   8.575 -0.0483 -0.1240 -0.4210
 5346TIP3    H237674   4.247   5.866   8.455  0.8531  0.2596  0.3324
 5347TIP3   OH237675   5.344   4.364   0.632  0.3383  0.0457 -0.7350
 5347TIP3    H137676   5.311   4.454   0.623  2.4014  0.8379 -1.0248
 5347TIP3    H237677   5.329   4.325   0.546 -1.8838 -0.4164 -0.1914
 5348TIP3   OH237678   2.884   0.687   2.005 -0.0141 -0.5915 -0.5174
 5348TIP3    H137679   2.826   0.761   2.021 -0.4311 -0.7037 -1.4737
 5348TIP3    H237680   2.939   0.715   1.932 -0.0315 -1.1478 -0.7471
 5349TIP3   OH237681   5.414   0.794   8.194 -0.9954  0.6096  0.6171
 5349TIP3    H137682   5.404   0.758   8.283 -2.9200 -0.5241 -0.0032
 5349TIP3    H237683   5.396   0.720   8.136  0.9128  1.1557 -0.7772
 5350TIP3   OH237684   4.981   5.633   2.670  0.4663 -0.1681 -0.1811
 5350TIP3    H137685   5.074   5.620   2.687  0.7111 -1.3378 -2.1600
 5350TIP3    H237686   4.944   5.544   2.669 -0.2274  0.1106 -1.6942
 5351TIP3   OH237687   6.424   5.183   1.492 -0.0497  0.7826 -0.1549
 5351TIP3    H137688   6.429   5.110   1.431 -0.0007  0.8222 -0.1981
 5351TIP3    H237689   6.442   5.260   1.439  2.0196  0.6610  0.2627
 5352TIP3   OH237690   5.774   1.060   7.321  0.2934 -0.1523 -0.1226
 5352TIP3    H137691   5.729   1.104   7.249  0.7656  0.6821  0.0743
 5352TIP3    H237692   5.851   1.020   7.280  0.3102 -0.0794 -0.1624
 5353TIP3   OH237693   5.080   3.689   2.480 -0.3701  0.0945  0.1786
 5353TIP3    H137694   5.168   3.721   2.502  0.1733 -0.4332 -1.1173
 5353TIP3    H237695   5.095   3.623   2.412 -1.6696 -0.9972  0.9135
 5354TIP3   OH237696   4.240   6.264   7.217 -0.2830 -0.1137 -0.0923
 5354TIP3    H137697   4.283   6.215   7.147  0.2518  0.6265 -0.2923
 5354TIP3    H237698   4.227   6.351   7.181 -0.8245  0.0241  0.4165
 5355TIP3   OH237699   1.946   5.105   7.504  0.0104  0.3086  0.3319
 5355TIP3    H137700   2.038   5.127   7.493  0.2333 -0.9897 -0.7427
 5355TIP3    H237701   1.938   5.016   7.468 -1.0840 -0.8357  3.0719
 5356TIP3   OH237702   0.063   0.531   8.146  0.0965 -0.7869 -0.0370
 5356TIP3    H137703   0.146   0.572   8.120 -1.0164  0.4551 -1.9362
 5356TIP3    H237704   0.017   0.599   8.195 -0.4271 -0.9179 -0.3404
 5357TIP3   OH237705   1.156   5.595   1.987  0.3916 -0.2745 -0.1507
 5357TIP3    H137706   1.188   5.591   2.077  2.3269  0.8801 -0.7416
 5357TIP3    H237707   1.229   5.565   1.933 -0.7044 -0.8731 -1.3639
 5358TIP3   OH237708   2.145   4.789   0.071 -0.7206  0.0185  0.0024
 5358TIP3    H137709   2.067   4.746   0.036 -0.1119 -0.2977 -1.0318
 5358TIP3    H237710   2.149   4.762   0.162 -0.8125 -1.4782 -0.4044
 5359TIP3   OH237711   2.808   0.867   1.344 -0.3810 -0.0133  0.1179
 5359TIP3    H137712   2.890   0.825   1.370  0.5285  2.0375  0.7443
 5359TIP3    H237713   2.788   0.830   1.258  2.0865  0.5751 -0.7931
 5360TIP3   OH237714   6.661   1.620   1.115  0.1074  0.1608  0.0238
 5360TIP3    H137715   6.709   1.659   1.188 -0.7056  1.7373 -0.2329
 5360TIP3    H237716   6.596   1.686   1.092  0.7842  0.0202 -2.5814
 5361TIP3   OH237717   1.024   0.226   7.362 -0.5156 -0.4883 -0.6334
 5361TIP3    H137718   1.074   0.305   7.378 -1.4192  0.1084 -0.6762
 5361TIP3    H237719   1.051   0.165   7.430  1.3940 -0.7408 -1.5691
 5362TIP3   OH237720   4.305   3.334   6.913 -0.0542  0.4196 -0.4698
 5362TIP3    H137721   4.380   3.274   6.912  1.2228  1.9120  0.1074
 5362TIP3    H237722   4.258   3.317   6.832 -1.0688 -2.9085  0.6772
 5363TIP3   OH237723   2.636   3.675   0.748 -0.0055 -0.2025  0.2394
 5363TIP3    H137724   2.686   3.743   0.703 -1.2713  0.0900 -0.7627
 5363TIP3    H237725   2.702   3.627   0.798  1.0452  1.1479  0.2066
 5364TIP3   OH237726   2.235   6.035   2.071 -0.2293  0.0216 -0.1771
 5364TIP3    H137727   2.188   5.952   2.062  0.7309 -0.9412  2.6176
 5364TIP3    H237728   2.170   6.096   2.105 -0.4729 -0.1148 -0.3939
 5365TIP3   OH237729   2.255   1.427   1.967 -0.5856  0.1247  0.2405
 5365TIP3    H137730   2.265   1.346   1.917  0.5015  0.3807  0.0235
 5365TIP3    H237731   2.162   1.430   1.989 -0.3902 -2.0381  1.6753
 5366TIP3   OH237732   6.463   1.819   2.279  0.3490  0.1458  0.6683
 5366TIP3    H137733   6.379   1.844   2.240  0.6677 -0.9504 -0.8407
 5366TIP3    H237734   6.443   1.803   2.371 -1.6510 -2.2632 -0.0640
 5367TIP3   OH237735   6.737   1.070   0.315 -0.2927 -0.3605  0.2276
 5367TIP3    H137736   6.667   1.027   0.266 -1.2100  0.3579  0.8671
 5367TIP3    H237737   6.723   1.041   0.406  0.4462 -0.4685  0.3133
 5368TIP3   OH237738   5.439   4.976   0.658  0.3735 -0.1266 -0.2461
 5368TIP3    H137739   5.445   5.032   0.736 -1.4392  0.2636 -0.3391
 5368TIP3    H237740   5.428   4.888   0.693  0.4777 -0.0684 -0.0660
 5369TIP3   OH237741   3.461   0.612   0.787  0.1897  0.0049 -0.5119
 5369TIP3    H137742   3.370   0.639   0.776  0.0062 -0.0528  0.6849
 5369TIP3    H237743   3.496   0.672   0.852  0.2886 -1.4563  0.8489
 5370TIP3   OH237744   6.762   2.330   8.016 -0.5108 -0.6966  0.0878
 5370TIP3    H137745   6.756   2.363   7.926 -0.5595 -2.8067 -0.7414
 5370TIP3    H237746   6.851   2.350   8.043  0.4475 -2.4322 -1.5007
 5371TIP3   OH237747   2.064   3.372   1.895 -0.1454  0.2814 -0.4188
 5371TIP3    H137748   2.126   3.308   1.860 -0.6697 -0.4193 -0.0835
 5371TIP3    H237749   2.027   3.330   1.973  0.1264  1.3351  0.3013
 5372TIP3   OH237750   0.663   0.057   0.176 -0.2176 -0.5473 -0.2901
 5372TIP3    H137751   0.683   0.150   0.165 -2.9813  0.1155 -0.5040
 5372TIP3    H237752   0.668   0.043   0.271  0.6548 -0.3162 -0.2924
 5373TIP3   OH237753   3.428   3.774   8.875 -0.0249  0.1362 -0.1768
 5373TIP3    H137754   3.383   3.786   8.959 -0.6092  1.1118 -0.6177
 5373TIP3    H237755   3.368   3.808   8.810  1.3449  1.5321 -0.7752
 5374TIP3   OH237756   1.129   0.660   2.370  0.7377 -0.1402  0.4017
 5374TIP3    H137757   1.176   0.586   2.331  0.4673 -0.5323  0.8128
 5374TIP3    H237758   1.069   0.621   2.433 -0.1518  0.3546 -0.1111
 5375TIP3   OH237759   2.697   0.026   6.892  0.7103 -0.3063  0.2852
 5375TIP3    H137760   2.778   0.043   6.844  1.5113  0.3814  1.7961
 5375TIP3    H237761   2.711   0.066   6.978 -1.3353  0.0514  0.5177
 5376TIP3   OH237762   1.488   3.159   7.489  0.6785 -0.5716  0.2004
 5376TIP3    H137763   1.479   3.180   7.396 -2.2024 -0.0665  0.4945
 5376TIP3    H237764   1.475   3.064   7.493 -0.4187 -0.4427  0.1474
 5377TIP3   OH237765   4.200   3.646   7.325  0.4760  0.0988  0.4104
 5377TIP3    H137766   4.133   3.595   7.279 -0.2593  0.9386  0.5101
 5377TIP3    H237767   4.184   3.630   7.418 -0.3421  1.1827  0.4791
 5378TIP3   OH237768   0.405   2.033   6.983 -0.0694 -0.3206  0.0861
 5378TIP3    H137769   0.338   2.029   6.915  0.1506  1.1919 -0.2701
 5378TIP3    H237770   0.360   2.008   7.063 -0.5913 -1.1228 -0.4408
 5379TIP3   OH237771   3.190   0.663   7.871 -0.1240  0.1631 -0.3026
 5379TIP3    H137772   3.108   0.711   7.882 -0.4123 -0.1898 -0.8639
 5379TIP3    H237773   3.163   0.572   7.861  0.4774 -0.3396  2.0592
 5380TIP3   OH237774   4.797   0.651   1.274 -0.2823  0.3983  0.2299
 5380TIP3    H137775   4.753   0.696   1.346 -0.2720  2.2315 -0.8345
 5380TIP3    H237776   4.747   0.676   1.196  0.3760 -0.6000 -0.5411
 5381TIP3   OH237777   5.484   5.016   8.325 -0.8190 -0.3388 -0.1475
 5381TIP3    H137778   5.560   5.030   8.267 -1.6751  1.5816 -0.9078
 5381TIP3    H237779   5.428   4.955   8.277 -0.4293 -0.6173 -0.2511
 5382TIP3   OH237780   3.597   0.593   8.241  0.2776  0.0576 -0.0705
 5382TIP3    H137781   3.539   0.610   8.166 -0.2181 -1.4084 -0.0570
 5382TIP3    H237782   3.591   0.673   8.294 -0.1302  0.7343 -1.0973
 5383TIP3   OH237783   3.841   6.347   2.489 -0.5399 -0.4005  0.0218
 5383TIP3    H137784   3.807   6.258   2.479 -0.6007 -0.2854 -0.9266
 5383TIP3    H237785   3.893   6.361   2.410 -2.0829  1.0895 -0.7785
 5384TIP3   OH237786   6.442   6.540   1.079 -0.1086  0.0646 -0.2565
 5384TIP3    H137787   6.415   6.516   1.168 -0.3125  1.4795  0.0977
 5384TIP3    H237788   6.534   6.564   1.088 -0.0762  0.0174 -0.4673
 5385TIP3   OH237789   4.999   1.737   8.608 -0.2498 -0.5681  0.4984
 5385TIP3    H137790   4.996   1.766   8.517  1.1938  0.8038  0.8360
 5385TIP3    H237791   4.923   1.777   8.649 -0.8675 -1.1338 -0.0857
 5386TIP3   OH237792   5.199   0.496   0.157  0.1622  0.7476 -0.2164
 5386TIP3    H137793   5.196   0.490   0.061 -1.1964 -0.4914 -0.1397
 5386TIP3    H237794   5.108   0.504   0.183  0.4777  0.5136  1.0079
 5387TIP3   OH237795   2.620   4.754   8.057 -0.3524  0.0836  0.2618
 5387TIP3    H137796   2.624   4.779   8.149  0.9165  0.6124  0.0735
 5387TIP3    H237797   2.610   4.837   8.010 -0.4144 -0.1335 -0.1156
 5388TIP3   OH237798   2.799   3.245   7.616  0.2333  0.3836 -0.1384
 5388TIP3    H137799   2.744   3.286   7.549  0.7490 -0.4217 -1.0768
 5388TIP3    H237800   2.738   3.195   7.670  0.0716 -1.0438 -1.5652
 5389TIP3   OH237801   5.462   6.127   0.586  0.1526  0.0901 -0.0074
 5389TIP3    H137802   5.419   6.212   0.577  1.7436  1.0603  1.1341
 5389TIP3    H237803   5.421   6.088   0.663  0.7582  0.6830  0.6267
 5390TIP3   OH237804   4.499   5.451   8.371 -0.3155  0.4920  0.2251
 5390TIP3    H137805   4.545   5.503   8.436  2.8469 -0.3330 -1.1431
 5390TIP3    H237806   4.482   5.511   8.299 -0.5669  0.5917  0.3667
 5391TIP3   OH237807   0.952   6.092   0.070 -0.0177  0.1464 -0.3975
 5391TIP3    H137808   0.923   6.183   0.072  0.3453  0.2654 -0.3295
 5391TIP3    H237809   0.974   6.072   0.161  0.1802  0.0868 -0.4575
 5392TIP3   OH237810   0.115   3.235   8.513  0.4579  0.9975 -0.3644
 5392TIP3    H137811   0.022   3.259   8.513  0.3847  0.9615  2.2170
 5392TIP3    H237812   0.115   3.139   8.514  0.4535  0.9978  1.3427
 5393TIP3   OH237813   4.758   0.101   8.271  0.4110  0.2861  0.6826
 5393TIP3    H137814   4.734   0.176   8.217  0.4732  0.2379  0.5880
 5393TIP3    H237815   4.706   0.110   8.351 -1.0412 -0.6291 -0.1297
 5394TIP3   OH237816   0.157   3.428   0.336 -0.3473  0.3961 -0.3115
 5394TIP3    H137817   0.230   3.385   0.292 -0.0306  0.5023  0.1090
 5394TIP3    H237818   0.090   3.360   0.344  0.3690 -0.2020  0.8742
 5395TIP3   OH237819   3.496   3.886   6.966 -0.5169 -0.2991 -0.2733
 5395TIP3    H137820   3.463   3.874   6.877 -1.7094 -0.1458  0.1250
 5395TIP3    H237821   3.517   3.797   6.996 -0.1638 -0.3571 -0.6790
 5396TIP3   OH237822   4.078   3.730   0.478  0.4107  0.1306 -0.4137
 5396TIP3    H137823   4.012   3.671   0.442 -1.4144  1.9542 -0.2600
 5396TIP3    H237824   4.133   3.675   0.533 -0.5371 -1.5882 -1.1203
 5397TIP3   OH237825   4.145   5.498   8.860  0.8148  0.5587  0.1302
 5397TIP3    H137826   4.164   5.591   8.873  2.7302  0.1199  0.8877
 5397TIP3    H237827   4.149   5.460   8.948  2.2668 -0.5846 -0.3893
 5398TIP3   OH237828   1.811   1.782   1.097  0.3097 -0.0428  1.0276
 5398TIP3    H137829   1.885   1.838   1.076  1.2464 -1.3577  0.6968
 5398TIP3    H237830   1.834   1.741   1.181 -0.2145 -0.1850  1.1090
 5399TIP3   OH237831   4.285   3.197   0.537  1.0665 -0.0449  0.7042
 5399TIP3    H137832   4.196   3.169   0.561  1.4037 -0.1306  1.9348
 5399TIP3    H237833   4.320   3.123   0.488  0.7107 -0.3151  0.8485
 5400TIP3   OH237834   2.006   5.761   1.094 -0.4539  0.6822  0.3147
 5400TIP3    H137835   2.094   5.724   1.097 -0.4448  0.7095  0.4100
 5400TIP3    H237836   2.020   5.855   1.082 -0.5152  0.4574 -1.7126
 5401TIP3   OH237837   5.598   4.275   0.731 -0.0080 -0.4908 -0.5632
 5401TIP3    H137838   5.526   4.334   0.710 -0.1265 -0.7997 -1.0396
 5401TIP3    H237839   5.660   4.286   0.660  0.8618  0.4621  0.3131
 5402TIP3   OH237840   4.253   1.198   2.647  0.0784 -0.2293 -0.2609
 5402TIP3    H137841   4.246   1.106   2.624  1.8086 -0.5546  0.3661
 5402TIP3    H237842   4.276   1.198   2.740 -0.5300  0.8609 -0.0876
 5403TIP3   OH237843   3.209   2.734   0.708  0.4875 -0.1149  0.0502
 5403TIP3    H137844   3.178   2.791   0.779 -0.4533  1.4941 -1.5831
 5403TIP3    H237845   3.152   2.657   0.712  0.9964 -0.4546  1.5356
 5404TIP3   OH237846   1.772   5.567   0.424 -0.2375 -0.3747 -0.0191
 5404TIP3    H137847   1.699   5.523   0.468 -1.1717 -0.4672 -1.5652
 5404TIP3    H237848   1.730   5.632   0.368  0.8887 -0.2778 -0.7776
 5405TIP3   OH237849   6.304   1.725   0.381 -0.1262  0.0136  0.1065
 5405TIP3    H137850   6.373   1.790   0.365 -0.5383  0.7316  1.1143
 5405TIP3    H237851   6.223   1.774   0.371 -0.4315 -0.1091  1.6746
 5406TIP3   OH237852   2.505   4.621   0.739  0.6768  0.0057  0.5798
 5406TIP3    H137853   2.476   4.587   0.654 -1.3951  2.4790  0.1511
 5406TIP3    H237854   2.600   4.622   0.733  0.7538 -3.1682 -0.2666
 5407TIP3   OH237855   3.536   1.028   8.381  0.1087 -0.5738 -0.3262
 5407TIP3    H137856   3.473   1.095   8.355  1.2353  0.0685 -1.5082
 5407TIP3    H237857   3.553   1.045   8.473 -0.4638  0.0490 -0.3293
 5408TIP3   OH237858   4.707   5.248   7.282 -0.1998 -0.4498 -0.1890
 5408TIP3    H137859   4.772   5.302   7.327 -0.7756  0.4224 -0.3801
 5408TIP3    H237860   4.653   5.212   7.353 -1.0804  0.8897 -0.1262
 5409TIP3   OH237861   1.336   1.121   0.522 -0.1245 -0.2901 -0.0979
 5409TIP3    H137862   1.389   1.041   0.521  0.5101 -0.0246  2.8951
 5409TIP3    H237863   1.359   1.165   0.440  3.0478 -1.0038  0.2446
 5410TIP3   OH237864   4.846   1.608   7.062 -0.1889  0.4990 -0.2145
 5410TIP3    H137865   4.867   1.514   7.059 -0.6581  0.4179 -1.7013
 5410TIP3    H237866   4.870   1.635   7.151  0.9422 -0.7997 -0.0927
 5411TIP3   OH237867   0.162   6.081   7.760 -0.0056  0.6967 -0.5156
 5411TIP3    H137868   0.190   6.157   7.810 -0.9649  0.8763 -0.2199
 5411TIP3    H237869   0.243   6.039   7.731  0.5439  1.1022  0.4067
 5412TIP3   OH237870   2.515   5.077   8.915 -0.5430  0.1394 -0.2770
 5412TIP3    H137871   2.479   5.096   9.001  0.2381 -0.6082  0.2292
 5412TIP3    H237872   2.609   5.090   8.924 -0.6193  1.9611 -1.5557
 5413TIP3   OH237873   3.364   2.410   7.300  0.0611  0.2921  0.0428
 5413TIP3    H137874   3.299   2.398   7.231  0.1555  1.1775 -0.2095
 5413TIP3    H237875   3.381   2.321   7.332 -2.6124  0.1725  1.3815
 5414TIP3   OH237876   4.624   2.793   2.460 -0.4274  0.0723  0.4958
 5414TIP3    H137877   4.672   2.787   2.542 -0.9839 -0.4178  0.7900
 5414TIP3    H237878   4.668   2.731   2.402 -1.1744 -0.9774  1.0131
 5415TIP3   OH237879   2.860   6.757   0.563  0.2148  0.1804 -0.6001
 5415TIP3    H137880   2.880   6.844   0.599 -0.4264 -0.0901  0.4706
 5415TIP3    H237881   2.786   6.772   0.504  0.1473  0.3722 -0.4693
 5416TIP3   OH237882   3.553   1.559   7.667  0.7765  0.1515  0.4458
 5416TIP3    H137883   3.552   1.638   7.614  1.5880  0.5626  1.0124
 5416TIP3    H237884   3.553   1.487   7.603  2.5400  0.6411 -0.1619
 5417TIP3   OH237885   2.084   1.927   7.053  0.1853  0.3548 -0.0395
 5417TIP3    H137886   2.024   1.921   7.128 -0.1209  0.6086 -0.2633
 5417TIP3    H237887   2.120   1.838   7.044  1.6509  0.7247  1.5758
 5418TIP3   OH237888   5.362   1.688   0.633 -0.9706  0.1776 -0.3546
 5418TIP3    H137889   5.340   1.627   0.704 -1.1635  0.2839 -0.3217
 5418TIP3    H237890   5.376   1.632   0.557  0.8282 -0.0838  0.1192
 5419TIP3   OH237891   2.411   6.214   0.566  0.0389  0.6657  0.0516
 5419TIP3    H137892   2.347   6.253   0.506  1.0767  2.2504 -0.0946
 5419TIP3    H237893   2.387   6.251   0.652 -0.2090 -0.0025  0.2741
 5420TIP3   OH237894   6.655   4.746   2.303  0.3059  0.0520 -0.4170
 5420TIP3    H137895   6.685   4.694   2.377  0.0157  0.8603  0.2878
 5420TIP3    H237896   6.622   4.827   2.342 -0.0834  0.3932 -1.4098
 5421TIP3   OH237897   2.961   5.860   7.157 -0.2193 -0.4217 -0.2784
 5421TIP3    H137898   2.921   5.932   7.109 -1.9239  0.1287  1.7892
 5421TIP3    H237899   2.961   5.787   7.096 -0.2970  0.7932 -1.7827
 5422TIP3   OH237900   2.545   6.269   6.796  0.2972  0.0682  0.1585
 5422TIP3    H137901   2.584   6.286   6.711 -1.9511  0.7968 -0.8133
 5422TIP3    H237902   2.477   6.204   6.779 -1.3597  1.4974  1.0055
 5423TIP3   OH237903   2.043   2.119   9.004  0.1406 -0.0817  0.2524
 5423TIP3    H137904   2.047   2.213   8.985 -2.0503  0.1931  0.8388
 5423TIP3    H237905   2.055   2.077   8.919  0.8964  0.7217 -0.0538
 5424TIP3   OH237906   1.217   1.336   1.207  0.3508 -0.4871  0.0379
 5424TIP3    H137907   1.215   1.429   1.226 -2.7324 -0.4794  0.1921
 5424TIP3    H237908   1.199   1.330   1.113  2.2847 -0.9224 -0.3451
 5425TIP3   OH237909   6.629   0.272   7.850  0.1279  0.6771  0.1787
 5425TIP3    H137910   6.623   0.177   7.857  1.6496  0.5560  0.0890
 5425TIP3    H237911   6.583   0.293   7.768  1.2794 -0.1793 -0.7156
 5426TIP3   OH237912   6.396   6.331   8.886 -0.7903  0.3443 -0.5349
 5426TIP3    H137913   6.348   6.288   8.957 -1.0233 -0.2726 -1.0576
 5426TIP3    H237914   6.484   6.294   8.891 -0.6204  0.7949 -0.1532
 5427TIP3   OH237915   1.133   5.025   8.274  0.2710 -0.1284 -0.1221
 5427TIP3    H137916   1.080   4.976   8.337  1.0664 -1.9144 -0.7862
 5427TIP3    H237917   1.071   5.050   8.205 -0.3215  0.6384  0.6542
 5428TIP3   OH237918   4.826   0.871   2.733  0.1310  0.0424  0.4183
 5428TIP3    H137919   4.763   0.821   2.681 -1.1868  2.9287 -0.9506
 5428TIP3    H237920   4.903   0.877   2.676  0.0628  0.0940  0.3306
 5429TIP3   OH237921   0.906   5.215   1.486  0.2040 -0.2683 -0.1808
 5429TIP3    H137922   0.990   5.219   1.441 -0.1171 -0.8548 -0.8605
 5429TIP3    H237923   0.886   5.121   1.491 -1.4858 -0.0896 -2.1446
 5430TIP3   OH237924   4.794   3.193   1.192 -0.1647 -0.0664 -0.0278
 5430TIP3    H137925   4.774   3.286   1.205 -0.3249 -0.1077  0.0368
 5430TIP3    H237926   4.708   3.150   1.196 -0.1585 -0.1481 -0.6682
 5431TIP3   OH237927   3.795   3.202   0.605 -0.0023  0.4990  0.2598
 5431TIP3    H137928   3.888   3.178   0.602 -0.1738 -0.5840  2.0399
 5431TIP3    H237929   3.758   3.144   0.671 -2.3329 -0.3080 -1.6050
 5432TIP3   OH237930   6.209   5.266   2.550 -1.0356 -0.1072  0.0314
 5432TIP3    H137931   6.116   5.269   2.524 -0.6744 -0.8707 -1.4827
 5432TIP3    H237932   6.214   5.192   2.610 -1.6533  0.8582  1.3227
 5433TIP3   OH237933   1.249   2.917   1.332  0.0724  0.0799 -0.1786
 5433TIP3    H137934   1.269   3.004   1.366 -0.1460  0.5318 -1.1557
 5433TIP3    H237935   1.330   2.887   1.292  0.2618 -0.3494  0.5050
 5434TIP3   OH237936   6.710   6.374   7.496  0.2311 -0.3420  0.4522
 5434TIP3    H137937   6.690   6.335   7.581 -1.0944 -0.4457  0.1155
 5434TIP3    H237938   6.671   6.315   7.433  0.6490  0.0719 -0.2002
 5435TIP3   OH237939   2.258   6.171   7.464 -0.8624  0.5287 -0.0937
 5435TIP3    H137940   2.306   6.227   7.403 -0.0339 -0.1215 -0.0498
 5435TIP3    H237941   2.227   6.098   7.410 -0.3293  0.0729  0.2134
 5436TIP3   OH237942   3.435   6.335   0.841 -0.3199 -0.1260 -0.4512
 5436TIP3    H137943   3.457   6.243   0.826  1.7552  0.1766  0.4175
 5436TIP3    H237944   3.501   6.384   0.793 -1.6315  0.9598 -1.2231
 5437TIP3   OH237945   2.789   1.294   8.309  0.2170 -0.1891  0.3209
 5437TIP3    H137946   2.788   1.381   8.349  1.5074  0.5246 -1.0886
 5437TIP3    H237947   2.806   1.234   8.381 -1.7911  0.5838  1.5059
 5438TIP3   OH237948   3.855   3.749   7.869  0.5380 -0.2908  0.2686
 5438TIP3    H137949   3.919   3.783   7.807 -1.0531  0.8075 -0.8371
 5438TIP3    H237950   3.816   3.827   7.908  0.3896 -0.9541  1.5169
 5439TIP3   OH237951   1.291   6.328   0.842 -0.3533  0.5523 -0.2956
 5439TIP3    H137952   1.368   6.316   0.786 -0.3916  0.6089 -0.3605
 5439TIP3    H237953   1.313   6.402   0.898 -0.9963  1.6541 -1.4290
 5440TIP3   OH237954   1.760   5.290   1.749  0.9301 -0.0307 -0.1351
 5440TIP3    H137955   1.782   5.383   1.756  1.1377 -0.2048  2.1412
 5440TIP3    H237956   1.721   5.281   1.662 -0.2595  2.4228  0.0701
 5441TIP3   OH237957   4.662   6.468   0.537  0.7912 -0.0687 -0.1080
 5441TIP3    H137958   4.725   6.510   0.478  0.8232 -0.9722 -0.7194
 5441TIP3    H237959   4.658   6.528   0.612  3.5912 -0.7459  0.6873
 5442TIP3   OH237960   5.000   2.659   0.359  0.1950 -0.6194 -0.0110
 5442TIP3    H137961   4.952   2.672   0.441  0.4647 -2.1302  0.4096
 5442TIP3    H237962   4.958   2.583   0.318 -0.2817  0.4280 -1.5574
 5443TIP3   OH237963   5.071   0.731   1.991 -0.0385 -0.1756 -0.6390
 5443TIP3    H137964   5.134   0.717   2.062 -1.7713 -2.3329  0.6080
 5443TIP3    H237965   5.058   0.826   1.989  1.2086  0.0645  0.9109
 5444TIP3   OH237966   3.743   1.965   7.451 -0.7655 -0.2364 -0.6202
 5444TIP3    H137967   3.693   2.035   7.495  1.1047  0.3132  0.7597
 5444TIP3    H237968   3.780   2.008   7.374  1.4386  0.7709  0.8955
 5445TIP3   OH237969   3.775   5.282   7.724 -0.1536  0.0854  0.2543
 5445TIP3    H137970   3.788   5.265   7.631 -0.2033  0.1215  0.2405
 5445TIP3    H237971   3.848   5.339   7.748  0.5712 -0.9196  0.5212
 5446TIP3   OH237972   4.596   0.878   6.857  0.2546  0.6732  0.0532
 5446TIP3    H137973   4.558   0.822   6.925  0.9438 -0.1059 -0.1801
 5446TIP3    H237974   4.648   0.942   6.905  0.7256  0.1372  0.2780
 5447TIP3   OH237975   2.665   5.218   1.052  0.8710 -0.1039 -0.6621
 5447TIP3    H137976   2.600   5.232   1.121  0.6749  0.3344 -0.9268
 5447TIP3    H237977   2.646   5.287   0.987  1.0158 -0.5432 -1.1785
 5448TIP3   OH237978   5.230   4.598   0.538  0.4194 -0.2080 -0.4444
 5448TIP3    H137979   5.138   4.573   0.532  0.2306  0.6009 -1.2424
 5448TIP3    H237980   5.249   4.641   0.454  1.8092 -1.2585 -0.7200
 5449TIP3   OH237981   4.297   6.305   6.783 -0.0324 -0.0997 -0.5502
 5449TIP3    H137982   4.320   6.241   6.850  0.0466 -0.5028 -0.9628
 5449TIP3    H237983   4.210   6.335   6.807  0.6135  0.9414  0.6428
 5450TIP3   OH237984   5.120   5.244   6.828 -0.3841  0.2458 -0.1198
 5450TIP3    H137985   5.204   5.288   6.839 -0.3987  0.3268 -0.3332
 5450TIP3    H237986   5.094   5.220   6.917 -0.8349  1.5390  0.1144
 5451TIP3   OH237987   0.509   4.595   7.790  0.3647 -0.1593  0.3653
 5451TIP3    H137988   0.486   4.528   7.725  2.7426  1.5792 -2.5522
 5451TIP3    H237989   0.474   4.676   7.754 -0.3853  0.5864  2.6075
 5452TIP3   OH237990   6.472   1.106   8.823 -0.3023 -0.2024 -0.2206
 5452TIP3    H137991   6.456   1.162   8.899  0.5077 -1.8926  1.2822
 5452TIP3    H237992   6.452   1.018   8.854 -0.2871 -0.9040 -2.1008
 5453TIP3   OH237993   4.883   3.018   8.773 -0.2595 -0.0739 -0.0291
 5453TIP3    H137994   4.925   2.933   8.757  0.1980  0.2578 -0.6395
 5453TIP3    H237995   4.927   3.052   8.852  0.9220  0.4441 -0.8833
 5454TIP3   OH237996   5.745   6.469   2.261 -0.8056 -0.4087 -0.8198
 5454TIP3    H137997   5.815   6.504   2.206 -0.8306  2.8230  0.9191
 5454TIP3    H237998   5.790   6.427   2.334 -0.5504  1.3373  0.1021
 5455TIP3   OH237999   3.191   4.126   7.278 -0.9857 -0.3142 -0.0411
 5455TIP3    H138000   3.135   4.052   7.255 -0.4945 -0.9253  0.6795
 5455TIP3    H238001   3.130   4.194   7.308 -1.3508 -0.9278  0.6304
 5456TIP3   OH238002   0.480   1.909   1.844 -0.5786 -0.0050  0.0925
 5456TIP3    H138003   0.430   1.834   1.813 -1.3257 -0.1481  1.5371
 5456TIP3    H238004   0.425   1.985   1.823 -0.4896  0.0153 -0.0708
 5457TIP3   OH238005   5.209   6.451   8.041 -0.0399 -0.3482 -0.1383
 5457TIP3    H138006   5.163   6.376   8.077 -0.1467 -1.3462 -2.1974
 5457TIP3    H238007   5.153   6.482   7.970  0.5845  0.9355 -0.0985
 5458TIP3   OH238008   5.588   2.667   7.222  0.5679 -0.3165  0.2862
 5458TIP3    H138009   5.590   2.571   7.229  0.1288 -0.2881  0.9305
 5458TIP3    H238010   5.515   2.693   7.279  0.0294  0.3351 -0.6834
 5459TIP3   OH238011   4.408   5.374   0.163 -0.4019  0.1200 -0.0708
 5459TIP3    H138012   4.400   5.357   0.069  0.0156  0.5480 -0.1877
 5459TIP3    H238013   4.317   5.372   0.195 -0.5826  0.3403 -0.5508
 5460TIP3   OH238014   3.002   1.077   8.439  1.1817 -0.0080 -0.7848
 5460TIP3    H138015   3.010   1.034   8.524 -1.7325  0.2176 -0.2909
 5460TIP3    H238016   3.084   1.124   8.428  2.0936 -0.9644  1.3626
 5461TIP3   OH238017   2.611   4.420   8.776 -0.2162 -0.2534 -0.5014
 5461TIP3    H138018   2.643   4.505   8.809  0.4547 -1.2356  1.5456
 5461TIP3    H238019   2.689   4.377   8.742  0.5075 -1.9107  2.8385
 5462TIP3   OH238020   2.922   4.581   2.645  0.1804 -0.4700 -0.0835
 5462TIP3    H138021   2.862   4.517   2.606 -0.4073 -0.0304  0.0733
 5462TIP3    H238022   2.927   4.651   2.580  1.1613 -0.8559 -0.4465
 5463TIP3   OH238023   5.037   2.745   0.874 -0.5506  0.7821  0.1935
 5463TIP3    H138024   5.030   2.837   0.850 -0.8272  0.7361  0.0959
 5463TIP3    H238025   5.006   2.742   0.965 -1.0345  0.7091  0.0319
 5464TIP3   OH238026   4.881   3.836   1.122  0.4405  0.0300  0.2280
 5464TIP3    H138027   4.835   3.802   1.199 -0.6964 -0.3185 -0.5765
 5464TIP3    H238028   4.847   3.925   1.112 -1.9896 -1.0088 -1.7674
 5465TIP3   OH238029   5.599   3.589   2.215  0.1324  0.1418  0.0701
 5465TIP3    H138030   5.651   3.634   2.149  0.4800 -1.7680 -1.0264
 5465TIP3    H238031   5.662   3.540   2.267 -0.3180  0.1624  0.6536
 5466TIP3   OH238032   5.229   1.094   7.836  0.4251  0.0004 -0.5404
 5466TIP3    H138033   5.261   1.173   7.792  1.7673 -0.5341 -0.5813
 5466TIP3    H238034   5.309   1.049   7.865 -0.3455 -0.9482  0.1684
 5467TIP3   OH238035   2.773   6.186   2.712  0.1377  0.0251  0.8151
 5467TIP3    H138036   2.736   6.129   2.780  0.1520 -0.7991  0.1408
 5467TIP3    H238037   2.702   6.247   2.692  0.7965  1.6640  3.0297
 5468TIP3   OH238038   0.448   6.205   0.073 -0.4170 -0.5943  0.6121
 5468TIP3    H138039   0.489   6.282   0.034 -0.2997 -1.1571 -0.3950
 5468TIP3    H238040   0.387   6.240   0.138 -0.7637  0.3697 -0.2132
 5469TIP3   OH238041   4.405   5.219   0.442  0.8385  0.0265 -0.0905
 5469TIP3    H138042   4.343   5.291   0.430 -0.9906 -1.6109 -0.8699
 5469TIP3    H238043   4.382   5.182   0.527  0.4527 -0.8343 -0.5606
 5470TIP3   OH238044   5.027   5.046   8.819 -0.0194  0.9597 -0.2191
 5470TIP3    H138045   4.961   5.104   8.781 -0.7503  1.8294  2.2275
 5470TIP3    H238046   4.976   4.977   8.862  0.7713  0.0451 -0.7180
 5471TIP3   OH238047   2.195   3.893   6.945  0.0538  0.3127  0.1185
 5471TIP3    H138048   2.108   3.865   6.917  0.0085 -0.4006  0.9440
 5471TIP3    H238049   2.189   3.989   6.948  0.1873  0.5054 -2.6381
 5472TIP3   OH238050   5.100   2.931   1.714  0.5102 -0.0958 -0.6568
 5472TIP3    H138051   5.029   2.950   1.653 -0.4109  1.9421  0.9203
 5472TIP3    H238052   5.077   2.846   1.752 -0.9581  0.3578 -0.4437
 5473TIP3   OH238053   4.172   3.605   0.695 -0.5332 -0.3505  0.2232
 5473TIP3    H138054   4.203   3.535   0.753  2.3426 -1.8869 -2.7918
 5473TIP3    H238055   4.232   3.678   0.712 -2.1416  0.6793  1.7929
 5474TIP3   OH238056   4.433   0.818   0.632 -0.5595  0.7369  0.5827
 5474TIP3    H138057   4.464   0.727   0.631 -2.6742 -0.0373  1.1135
 5474TIP3    H238058   4.462   0.853   0.717  0.8286  0.8160  0.1086
 5475TIP3   OH238059   5.291   3.569   8.397  0.1241 -0.4650 -0.4822
 5475TIP3    H138060   5.229   3.516   8.446 -0.4860 -2.9017 -3.5397
 5475TIP3    H238061   5.331   3.508   8.335  2.7767  1.8143 -1.2523
 5476TIP3   OH238062   5.135   6.325   8.418 -0.0194  0.1970  0.3450
 5476TIP3    H138063   5.068   6.263   8.446  0.6061  0.0035  1.4574
 5476TIP3    H238064   5.121   6.402   8.472 -1.3187  1.4000 -1.5995
 5477TIP3   OH238065   4.733   4.284   1.243 -0.1824 -0.4310  0.2889
 5477TIP3    H138066   4.757   4.323   1.327  1.0660 -0.5708  0.0084
 5477TIP3    H238067   4.660   4.338   1.212 -0.1742  0.0705  1.1113
 5478TIP3   OH238068   1.796   6.367   1.505 -0.1800 -0.1356 -0.1525
 5478TIP3    H138069   1.859   6.438   1.519  0.7198 -0.2394 -2.9729
 5478TIP3    H238070   1.710   6.409   1.512  0.3097  1.7713 -3.3874
 5479TIP3   OH238071   2.097   3.277   8.159 -0.3347  0.4226 -0.2085
 5479TIP3    H138072   2.123   3.311   8.073 -0.6855 -0.4984 -0.6919
 5479TIP3    H238073   2.009   3.243   8.146 -0.4829  0.4733  0.5830
 5480TIP3   OH238074   5.154   5.079   2.609 -0.3677 -0.0358  0.4306
 5480TIP3    H138075   5.205   5.090   2.689 -0.1632 -2.2904  0.6729
 5480TIP3    H238076   5.140   4.984   2.602 -3.4518  0.3648 -0.2898
 5481TIP3   OH238077   1.915   4.376   8.864  0.2263 -0.1337  0.0678
 5481TIP3    H138078   1.866   4.349   8.787 -0.3270  2.3611 -0.5417
 5481TIP3    H238079   1.888   4.314   8.932 -1.6923 -0.5066 -0.9536
 5482TIP3   OH238080   2.516   4.491   6.753 -0.0809 -0.7149 -0.3395
 5482TIP3    H138081   2.470   4.413   6.785  0.0544 -0.1978  1.1784
 5482TIP3    H238082   2.475   4.510   6.668 -1.6486 -1.1271  0.2944
 5483TIP3   OH238083   2.964   6.775   7.724  0.5932 -0.2095 -0.0312
 5483TIP3    H138084   2.946   6.828   7.646  1.6823  0.7963  0.3580
 5483TIP3    H238085   3.002   6.694   7.690  1.7206  0.5091 -0.5466
 5484TIP3   OH238086   2.800   2.517   7.437 -0.6703  0.1348  0.0248
 5484TIP3    H138087   2.824   2.597   7.483 -2.2860  0.5285  0.2165
 5484TIP3    H238088   2.814   2.447   7.501 -2.1390  0.5988  0.8987
 5485TIP3   OH238089   5.870   2.310   7.075 -0.0826  0.1631  0.0396
 5485TIP3    H138090   5.940   2.375   7.089 -0.4904  0.2861  1.7464
 5485TIP3    H238091   5.911   2.242   7.022  1.4013  0.1668  1.1164
 5486TIP3   OH238092   2.182   0.075   8.304  0.0657  0.2059  0.2051
 5486TIP3    H138093   2.108   0.049   8.248  0.0720 -1.3541  0.8630
 5486TIP3    H238094   2.230   0.139   8.252 -1.0234  0.2637 -0.7701
 5487TIP3   OH238095   5.432   6.604   0.860  0.0617  0.0967 -0.2382
 5487TIP3    H138096   5.374   6.651   0.800 -1.0429 -1.1070 -0.1352
 5487TIP3    H238097   5.428   6.655   0.941  0.4476  0.9244 -0.7179
 5488TIP3   OH238098   4.069   5.754   7.733 -0.0062  0.2047 -0.1964
 5488TIP3    H138099   4.008   5.789   7.798 -1.2696  0.3784 -1.4202
 5488TIP3    H238100   4.060   5.813   7.658  0.3898 -0.7542 -1.0211
 5489TIP3   OH238101   5.958   1.290   0.233 -0.1434 -0.4831 -0.4834
 5489TIP3    H138102   5.887   1.354   0.229  0.1158 -0.1554 -0.0585
 5489TIP3    H238103   6.037   1.344   0.240  0.1756 -0.8305 -1.2774
 5490TIP3   OH238104   2.042   4.019   8.434 -0.3787 -0.1099 -0.5303
 5490TIP3    H138105   2.096   3.945   8.463 -2.5539 -1.3014  0.7817
 5490TIP3    H238106   2.067   4.033   8.343  0.4811 -2.1199 -0.6503
 5491TIP3   OH238107   3.427   0.775   8.357 -0.3061  0.6658 -0.5988
 5491TIP3    H138108   3.360   0.786   8.290  0.2064  1.1685 -1.0441
 5491TIP3    H238109   3.447   0.865   8.386  0.2483  0.5327 -0.5514
 5492TIP3   OH238110   1.419   5.483   7.211 -0.3797 -0.3657  0.4713
 5492TIP3    H138111   1.332   5.453   7.184  0.4621 -2.7438  0.2498
 5492TIP3    H238112   1.412   5.579   7.211 -2.8581 -0.4921  0.0477
 5493TIP3   OH238113   1.876   1.575   7.634 -0.0025  0.0394 -0.2499
 5493TIP3    H138114   1.803   1.622   7.594  1.9774  1.2991 -2.6491
 5493TIP3    H238115   1.923   1.535   7.560 -0.1555 -3.7686  1.4715
 5494TIP3   OH238116   1.445   3.070   0.195 -0.3381 -0.5117 -0.2891
 5494TIP3    H138117   1.447   3.066   0.290  0.1444  0.3907 -0.2484
 5494TIP3    H238118   1.385   3.143   0.176  0.6819  0.2649 -0.6305
 5495TIP3   OH238119   2.453   0.198   1.565 -0.7550  0.3022  0.6835
 5495TIP3    H138120   2.529   0.199   1.508  1.1737 -0.2200  3.0891
 5495TIP3    H238121   2.483   0.239   1.646 -2.2108 -2.2429  2.6432
 5496TIP3   OH238122   3.038   3.347   7.766 -0.4251  0.1135 -0.3463
 5496TIP3    H138123   2.958   3.311   7.727 -0.3354 -0.0558 -0.3742
 5496TIP3    H238124   3.067   3.414   7.703  0.7875 -1.4780 -1.5799
 5497TIP3   OH238125   2.292   5.225   0.814 -0.2332 -0.2730 -0.1153
 5497TIP3    H138126   2.225   5.174   0.859  0.5645 -1.3092 -0.0770
 5497TIP3    H238127   2.342   5.161   0.763  0.3615  0.5605 -0.6120
 5498TIP3   OH238128   2.721   5.283   7.656 -0.1020 -0.1261 -0.3912
 5498TIP3    H138129   2.657   5.253   7.592 -0.2613 -0.9916  0.1455
 5498TIP3    H238130   2.714   5.378   7.654 -0.2583 -0.1448 -1.4870
 5499TIP3   OH238131   2.749   3.181   8.760  0.7135 -0.3891  0.2979
 5499TIP3    H138132   2.735   3.164   8.853 -1.2004 -1.4132 -0.1056
 5499TIP3    H238133   2.662   3.205   8.727  1.5327  0.8722 -1.0603
 5500TIP3   OH238134   0.492   5.194   1.046  0.1134  0.3856  0.0590
 5500TIP3    H138135   0.575   5.149   1.030  0.5542  0.8762  0.8952
 5500TIP3    H238136   0.496   5.218   1.139 -1.5885 -0.8522  0.4933
 5501TIP3   OH238137   2.139   4.198   2.244  0.5723  0.5699  0.7005
 5501TIP3    H138138   2.078   4.255   2.291  0.7891 -0.7314  2.6843
 5501TIP3    H238139   2.189   4.154   2.313  2.8553  0.5978 -0.8214
 5502TIP3   OH238140   1.915   2.437   1.944  0.3590 -0.1625  0.3696
 5502TIP3    H138141   1.821   2.446   1.930  0.2891  0.1553  0.9811
 5502TIP3    H238142   1.937   2.350   1.912  0.0110  0.0754 -0.5505
 5503TIP3   OH238143   0.378   1.952   1.520  0.0304 -0.0314  0.0349
 5503TIP3    H138144   0.333   1.977   1.601 -1.3297 -0.8454 -0.4239
 5503TIP3    H238145   0.436   2.025   1.501  1.6120 -0.5041  2.5764
 5504TIP3   OH238146   2.171   5.967   1.040 -0.3743  0.1932 -0.0151
 5504TIP3    H138147   2.171   6.063   1.042 -3.2614  0.2746  2.1099
 5504TIP3    H238148   2.258   5.944   1.007  0.6210  3.5019 -0.0821
 5505TIP3   OH238149   1.728   4.098   0.376  0.0292  0.5374 -0.3033
 5505TIP3    H138150   1.810   4.092   0.427  0.8847  0.1392 -1.6654
 5505TIP3    H238151   1.723   4.014   0.330 -1.0952  0.6174 -0.3485
 5506TIP3   OH238152   4.465   1.821   1.835 -0.2296  0.0935 -0.0250
 5506TIP3    H138153   4.482   1.832   1.928 -0.7522 -0.2589  0.1114
 5506TIP3    H238154   4.536   1.764   1.805 -1.4642 -1.9159  0.6805
 5507TIP3   OH238155   5.413   2.123   8.620 -0.3231 -0.0550 -0.4641
 5507TIP3    H138156   5.322   2.109   8.645 -1.0000  1.1060 -2.0794
 5507TIP3    H238157   5.427   2.064   8.546  0.6026 -1.0417  0.4740
 5508TIP3   OH238158   5.526   1.301   8.661 -0.0368 -0.4479  0.1958
 5508TIP3    H138159   5.445   1.339   8.626  1.1479  0.7078 -1.4053
 5508TIP3    H238160   5.511   1.296   8.756 -1.0304  2.1596  0.2396
 5509TIP3   OH238161   3.037   4.113   8.165  0.4094 -0.1458  0.5897
 5509TIP3    H138162   3.090   4.179   8.210  0.4376 -0.7588  1.4891
 5509TIP3    H238163   3.100   4.059   8.118  0.5558 -0.5568  1.2385
 5510TIP3   OH238164   4.776   1.918   8.552 -0.2732  0.2937  0.0472
 5510TIP3    H138165   4.786   1.870   8.469 -1.7075  0.7709 -0.4313
 5510TIP3    H238166   4.687   1.954   8.548  0.3664  2.0423  0.9032
 5511TIP3   OH238167   4.680   5.252   0.425  0.0516  0.1238 -0.7554
 5511TIP3    H138168   4.689   5.340   0.389 -0.1293 -0.0216 -1.1594
 5511TIP3    H238169   4.587   5.232   0.416  0.4788 -1.1161 -3.0525
 5512TIP3   OH238170   4.381   4.112   0.510  0.3811 -0.1584  0.6150
 5512TIP3    H138171   4.356   4.199   0.542 -0.0046 -0.2659  0.6095
 5512TIP3    H238172   4.445   4.130   0.441  1.7340  0.0426  1.8946
 5513TIP3   OH238173   4.242   2.050   2.059 -0.0238 -0.1947  0.4662
 5513TIP3    H138174   4.261   1.971   2.110 -0.7555 -0.5304  0.2264
 5513TIP3    H238175   4.327   2.074   2.021  0.0370 -1.3999 -0.2054
 5514TIP3   OH238176   0.150   2.288   0.033  0.7132  0.2613  0.0407
 5514TIP3    H138177   0.229   2.256   0.077  1.0902 -0.1705 -0.9293
 5514TIP3    H238178   0.100   2.208   0.013  0.6229  0.4404 -0.4562
 5515TIP3   OH238179   6.103   0.352   7.767  0.1694 -0.2155  0.3293
 5515TIP3    H138180   6.101   0.291   7.694 -0.1396  1.3661 -1.0515
 5515TIP3    H238181   6.011   0.363   7.792  0.0962  0.6180 -0.2682
 5516TIP3   OH238182   0.167   0.074   0.661 -0.5302  1.0170 -0.2334
 5516TIP3    H138183   0.133   0.044   0.576  0.6639  0.1818 -0.4409
 5516TIP3    H238184   0.164  -0.004   0.717  1.8626  0.6234 -0.5388
 5517TIP3   OH238185   1.917   3.622   1.909 -0.2337 -0.4093 -0.3101
 5517TIP3    H138186   1.837   3.604   1.860  0.6396  0.3966 -2.1454
 5517TIP3    H238187   1.895   3.699   1.962 -0.9074 -0.6877 -0.1742
 5518TIP3   OH238188   3.853   1.948   0.819  0.4826 -0.1612  0.2751
 5518TIP3    H138189   3.892   1.866   0.789  0.0994 -1.1480  2.3101
 5518TIP3    H238190   3.780   1.962   0.759 -1.3599 -3.0125  1.5797
 5519TIP3   OH238191   6.356   3.537   8.855  0.3723  0.2229  0.1735
 5519TIP3    H138192   6.292   3.468   8.871  2.3717 -1.5796  0.7146
 5519TIP3    H238193   6.407   3.543   8.936  1.3614  1.0925 -0.4827
 5520TIP3   OH238194   5.099   2.022   0.053  0.3128  0.0812 -0.3970
 5520TIP3    H138195   5.024   2.068   0.014  0.4814  0.8033  0.1047
 5520TIP3    H238196   5.070   2.000   0.141 -0.2154 -1.9174 -1.0215
 5521TIP3   OH238197   1.316   1.868   0.054  0.6285  0.1911 -0.4895
 5521TIP3    H138198   1.402   1.841   0.024  0.5642 -0.9171  0.2525
 5521TIP3    H238199   1.257   1.843  -0.017  0.7697 -0.2181 -0.4657
 5522TIP3   OH238200   2.789   1.921   8.610  0.2152  0.0331  0.4210
 5522TIP3    H138201   2.835   1.997   8.645  0.8098 -1.1304  2.3039
 5522TIP3    H238202   2.857   1.854   8.600 -0.5740 -0.8025  0.4526
 5523TIP3   OH238203   1.116   5.421   8.575 -0.0382  0.3783  0.2839
 5523TIP3    H138204   1.194   5.415   8.519  0.7114  0.6176  1.2840
 5523TIP3    H238205   1.100   5.331   8.603  1.1118  0.5795  1.6997
 5524TIP3   OH238206   0.293   6.019   1.658 -0.1701 -0.5607 -0.2363
 5524TIP3    H138207   0.286   5.950   1.724 -0.2895 -1.3601 -1.0700
 5524TIP3    H238208   0.315   6.098   1.708 -0.5867 -1.0781  0.7930
 5525TIP3   OH238209   6.532   3.354   8.276  0.5123  0.0303  0.4139
 5525TIP3    H138210   6.452   3.320   8.316 -0.9152  1.5482 -0.9813
 5525TIP3    H238211   6.525   3.330   8.183  1.5450  0.4024  0.2222
 5526TIP3   OH238212   1.330   1.598   8.843 -0.0476  0.3699 -0.0175
 5526TIP3    H138213   1.261   1.623   8.782  0.1147 -1.3934 -0.9830
 5526TIP3    H238214   1.411   1.617   8.796  0.1420  1.2120  0.6095
 5527TIP3   OH238215   6.174   6.574   0.475 -0.2404  0.4317  0.5970
 5527TIP3    H138216   6.181   6.666   0.449 -0.2670 -0.1907 -1.8409
 5527TIP3    H238217   6.259   6.554   0.514  0.2871  1.1482 -0.1367
 5528TIP3   OH238218   2.606   4.271   0.319  0.0756 -0.3037  0.3396
 5528TIP3    H138219   2.515   4.287   0.293 -0.2703 -1.1691  1.0106
 5528TIP3    H238220   2.657   4.335   0.267 -0.9792  0.8034  0.6250
 5529TIP3   OH238221   3.957   3.952   0.297  0.6285  0.2432  0.5172
 5529TIP3    H138222   3.866   3.978   0.282  0.2024 -0.6955  1.3853
 5529TIP3    H238223   3.954   3.892   0.371  1.7496 -1.1009 -0.4571
 5530TIP3   OH238224   0.108   6.694   8.039 -0.0816  0.2198  0.3575
 5530TIP3    H138225   0.069   6.724   7.957  0.7505  0.7791  0.1506
 5530TIP3    H238226   0.046   6.629   8.073 -0.4716  0.0450 -0.6608
 5531TIP3   OH238227   5.023   4.326   1.749  0.2523 -0.5988  0.5749
 5531TIP3    H138228   4.986   4.383   1.817 -1.3871 -1.0630  0.1016
 5531TIP3    H238229   5.041   4.384   1.676 -2.1550 -0.7379 -0.2010
 5532TIP3   OH238230   1.804   5.798   1.551  0.3804  0.5066 -0.3682
 5532TIP3    H138231   1.861   5.726   1.525  0.0763  0.9944 -2.5149
 5532TIP3    H238232   1.777   5.776   1.641 -1.1698 -3.0355 -1.5162
 5533TIP3   OH238233   4.509   3.568   6.914  0.1828 -0.4110  0.6133
 5533TIP3    H138234   4.424   3.528   6.932  0.3472 -1.2305 -0.3605
 5533TIP3    H238235   4.570   3.524   6.973  0.1723 -0.8452  0.3061
 5534TIP3   OH238236   1.146   6.148   0.606 -0.2690  0.1724  0.0314
 5534TIP3    H138237   1.206   6.212   0.567  0.9507 -0.6414  0.5017
 5534TIP3    H238238   1.199   6.069   0.617 -1.3542 -0.4851  0.7710
 5535TIP3   OH238239   5.992   2.708   7.666 -0.2098  0.5951 -0.1077
 5535TIP3    H138240   5.983   2.707   7.571  0.9354  0.6845 -0.2311
 5535TIP3    H238241   5.985   2.800   7.690  0.3900  0.6750 -0.2136
 5536TIP3   OH238242   3.082   2.318   0.713 -0.8986  0.1814  0.2951
 5536TIP3    H138243   3.038   2.247   0.667 -1.6822 -0.7620  2.3820
 5536TIP3    H238244   3.046   2.398   0.674 -1.2350 -0.5412 -0.9453
 5537TIP3   OH238245   2.003   4.451   2.345  0.6099  0.1988 -0.2747
 5537TIP3    H138246   1.908   4.457   2.330  0.5487  0.6196  0.2499
 5537TIP3    H238247   2.026   4.536   2.383  0.9990 -0.3307  0.6889
 5538TIP3   OH238248   5.750   4.211   1.572 -0.0643  0.0104 -0.5383
 5538TIP3    H138249   5.706   4.215   1.487  2.4827 -1.3205 -2.0374
 5538TIP3    H238250   5.807   4.135   1.566  1.2094  0.6732  1.8810
 5539TIP3   OH238251   4.457   1.068   8.737 -0.2145  0.4071 -0.5675
 5539TIP3    H138252   4.532   1.044   8.791 -0.7576 -0.5151 -0.2086
 5539TIP3    H238253   4.469   1.020   8.655  0.6389  1.8483 -1.3285
 5540TIP3   OH238254   1.730   3.765   1.355  0.2045  0.4174 -0.6023
 5540TIP3    H138255   1.817   3.772   1.317 -0.1535  0.4868 -1.4447
 5540TIP3    H238256   1.721   3.842   1.411  1.2909 -0.4449  0.8079
 5541TIP3   OH238257   2.248   2.219   0.152 -0.3331  0.4152 -0.3884
 5541TIP3    H138258   2.182   2.187   0.090 -0.0579  0.6718 -0.8223
 5541TIP3    H238259   2.313   2.264   0.097  0.2422  0.1019  0.0200
 5542TIP3   OH238260   6.080   6.229   8.590 -0.6340  0.0778  0.0525
 5542TIP3    H138261   6.038   6.223   8.505 -0.5931  0.0111  0.0372
 5542TIP3    H238262   6.059   6.147   8.634 -1.6910  0.6120  0.5857
 5543TIP3   OH238263   3.790   2.403   8.736  0.1656  0.3781 -0.1958
 5543TIP3    H138264   3.712   2.366   8.696  0.3076  1.1429 -1.2284
 5543TIP3    H238265   3.757   2.456   8.808 -0.1888 -0.0806 -0.0150
 5544TIP3   OH238266   3.117   1.292   0.647 -0.5397 -0.1484  0.6298
 5544TIP3    H138267   3.031   1.280   0.687 -1.5535  2.3941 -0.5460
 5544TIP3    H238268   3.179   1.288   0.720 -1.9315  0.5773  1.8981
 5545TIP3   OH238269   3.723   6.453   7.964  0.1236  0.1670 -0.0108
 5545TIP3    H138270   3.746   6.368   8.002  0.8030  0.5224  0.3804
 5545TIP3    H238271   3.718   6.436   7.870 -2.2113 -0.8732  0.2315
 5546TIP3   OH238272   4.859   6.190   2.366  0.7590 -0.1420 -0.1383
 5546TIP3    H138273   4.865   6.261   2.302  0.9437  0.4628  0.5398
 5546TIP3    H238274   4.922   6.214   2.434  1.8206 -1.6358 -0.5455
 5547TIP3   OH238275   5.301   3.232   0.892 -0.2228 -0.5728 -0.3790
 5547TIP3    H138276   5.242   3.159   0.874 -0.5945 -0.0719 -1.2349
 5547TIP3    H238277   5.243   3.305   0.914  0.1704 -0.8000  1.6122
 5548TIP3   OH238278   1.820   2.756   8.148 -0.4709  0.3607 -0.6388
 5548TIP3    H138279   1.872   2.679   8.126 -0.0186  0.2469  0.7662
 5548TIP3    H238280   1.884   2.827   8.153 -0.4839  0.3118  0.6184
 5549TIP3   OH238281   5.843   2.499   8.215  0.2884 -0.1217 -0.4718
 5549TIP3    H138282   5.885   2.574   8.173  0.4780 -0.1801 -0.3864
 5549TIP3    H238283   5.885   2.423   8.176 -1.4278 -0.2536 -2.1888
 5550TIP3   OH238284   0.303   0.527   7.153  0.2875  0.3063  0.0885
 5550TIP3    H138285   0.291   0.502   7.244  0.7311 -1.0222 -0.1946
 5550TIP3    H238286   0.296   0.445   7.104  0.1671  0.9736 -1.0655
 5551TIP3   OH238287   5.295   4.282   0.297 -0.0080  0.0549 -0.1009
 5551TIP3    H138288   5.201   4.293   0.307  0.2920  3.3838  0.2294
 5551TIP3    H238289   5.316   4.321   0.212  1.1910  0.4759  0.3585
 5552TIP3   OH238290   3.572   4.100   0.551  0.6188  0.6000  0.2419
 5552TIP3    H138291   3.557   4.121   0.644 -1.3566 -1.1579  0.4174
 5552TIP3    H238292   3.485   4.104   0.512  1.2955  0.3937 -1.3450
 5553TIP3   OH238293   5.113   4.417   7.204  0.1747  0.2257  0.1910
 5553TIP3    H138294   5.033   4.399   7.155  0.2412  0.8470 -0.1568
 5553TIP3    H238295   5.182   4.374   7.155  0.0323 -0.4987  0.6108
 5554TIP3   OH238296   6.628   6.525   1.610 -0.0003  0.1828 -0.0430
 5554TIP3    H138297   6.591   6.455   1.665  2.1180 -1.6407 -0.8085
 5554TIP3    H238298   6.601   6.606   1.653 -1.1686 -1.1199  1.8133
 5555TIP3   OH238299   5.881   6.526   0.338 -0.7748  0.2027  0.0347
 5555TIP3    H138300   5.832   6.459   0.290 -0.4597  0.3892 -0.5594
 5555TIP3    H238301   5.955   6.478   0.377  0.5431  0.4931 -1.9705
 5556TIP3   OH238302   1.798   5.316   1.439 -0.7709 -0.1440  0.4858
 5556TIP3    H138303   1.855   5.378   1.486 -0.0724  0.3326 -0.9438
 5556TIP3    H238304   1.724   5.369   1.410 -0.3326 -0.0395 -0.4581
 5557TIP3   OH238305   3.205   1.890   7.884 -0.1407  0.3967 -0.3625
 5557TIP3    H138306   3.195   1.795   7.887  0.7040  0.2446 -1.5528
 5557TIP3    H238307   3.299   1.904   7.896 -0.4755  1.2169  1.7090
 5558TIP3   OH238308   3.298   5.050   8.961 -0.3524  0.0936  0.5021
 5558TIP3    H138309   3.303   4.961   8.927 -0.3882  0.2972 -0.0438
 5558TIP3    H238310   3.389   5.082   8.958 -0.2077 -0.2072  1.4747
 5559TIP3   OH238311   5.696   0.436   7.269 -1.1302 -0.4398 -0.0716
 5559TIP3    H138312   5.721   0.377   7.198 -3.2635  0.7231 -1.9329
 5559TIP3    H238313   5.616   0.397   7.304 -0.1857 -0.9148  1.6710
 5560TIP3   OH238314   0.740   4.825   8.371 -0.2054  0.4735 -0.4903
 5560TIP3    H138315   0.805   4.896   8.374 -0.0245  0.3150 -0.6046
 5560TIP3    H238316   0.792   4.746   8.355 -0.2296  0.0633  1.3103
 5561TIP3   OH238317   0.186   2.624   0.290  0.2765 -0.6070  0.1513
 5561TIP3    H138318   0.202   2.562   0.361  3.7521 -1.4717 -1.2215
 5561TIP3    H238319   0.266   2.623   0.238 -1.3490  1.5101 -2.6689
 5562TIP3   OH238320   1.652   6.002   1.457 -0.5745  0.5433  0.2012
 5562TIP3    H138321   1.622   6.051   1.533  0.1786 -0.6803  1.3377
 5562TIP3    H238322   1.715   5.938   1.493 -1.2106 -0.9775 -1.2432
 5563TIP3   OH238323   2.596   0.915   0.629  0.4859  0.2770  0.1171
 5563TIP3    H138324   2.520   0.899   0.573  0.6677 -0.0141 -0.0470
 5563TIP3    H238325   2.618   0.830   0.667  0.9181  0.2909 -0.0835
 5564TIP3   OH238326   5.883   1.928   0.077 -0.0339 -0.4731 -0.1730
 5564TIP3    H138327   5.824   1.895   0.009  0.1430  0.9579 -1.0576
 5564TIP3    H238328   5.842   1.900   0.159 -1.0091 -1.0092 -0.8186
 5565TIP3   OH238329   2.615   1.067   8.704  0.2149 -0.2420  0.3255
 5565TIP3    H138330   2.605   1.068   8.799  0.6511 -2.2136  0.4271
 5565TIP3    H238331   2.696   1.018   8.688  1.5486  2.1755 -1.0111
 5566TIP3   OH238332   2.994   4.339   7.420  0.5142  0.3226  0.3334
 5566TIP3    H138333   2.916   4.314   7.372  0.7537 -0.3775  0.2956
 5566TIP3    H238334   2.965   4.351   7.510  0.4023 -0.1498  0.3609
 5567TIP3   OH238335   2.773   2.791   2.189 -0.2384 -0.0130  0.5313
 5567TIP3    H138336   2.732   2.760   2.108  0.8873 -0.7355  0.2273
 5567TIP3    H238337   2.792   2.711   2.238 -1.2387  0.4309  1.7028
 5568TIP3   OH238338   2.584   4.296   7.902 -0.9355  0.2307 -0.2386
 5568TIP3    H138339   2.615   4.344   7.825  0.3076 -0.8094 -0.4045
 5568TIP3    H238340   2.588   4.360   7.974  0.6923  0.3937 -0.4526
 5569TIP3   OH238341   3.859   0.294   0.888 -0.0999  0.1652 -0.3778
 5569TIP3    H138342   3.923   0.227   0.914  0.6343  0.9869 -0.0167
 5569TIP3    H238343   3.779   0.270   0.934  0.8925  1.0342  1.9593
 5570TIP3   OH238344   2.765   1.713   1.406 -1.2632  0.2867 -0.0340
 5570TIP3    H138345   2.773   1.804   1.376  1.9527  0.7064  1.6788
 5570TIP3    H238346   2.761   1.720   1.501  2.2713 -1.3441  0.3812
 5571TIP3   OH238347   5.368   2.634   1.000  0.4893 -0.1335 -0.0878
 5571TIP3    H138348   5.362   2.698   1.071  0.2684 -0.7577  0.4675
 5571TIP3    H238349   5.285   2.586   1.003  0.9267 -0.9098 -0.0343
 5572TIP3   OH238350   0.694   1.721   7.829 -0.1988  0.3406  0.2970
 5572TIP3    H138351   0.739   1.768   7.898  1.0833  0.4552 -0.5910
 5572TIP3    H238352   0.661   1.789   7.770 -0.6512  0.2172  0.4024
 5573TIP3   OH238353   4.858   5.417   0.032  0.3369 -0.5383 -0.6978
 5573TIP3    H138354   4.863   5.331  -0.009 -1.2962 -0.1365 -1.7903
 5573TIP3    H238355   4.822   5.474  -0.035  2.1606  1.2193 -0.2792
 5574TIP3   OH238356   5.259   0.190   1.804  0.0733  0.0014 -0.1194
 5574TIP3    H138357   5.184   0.131   1.797 -0.9577  1.2002  0.4788
 5574TIP3    H238358   5.310   0.156   1.877  1.1743 -1.9092 -1.6629
 5575TIP3   OH238359   5.729   0.807   8.102 -0.0358 -0.7307 -0.2120
 5575TIP3    H138360   5.741   0.728   8.155 -2.4504 -0.4114  0.9490
 5575TIP3    H238361   5.788   0.871   8.141  0.7312 -1.4572 -0.1280
 5576TIP3   OH238362   6.375   2.969   7.686 -0.4103  0.2324  0.2958
 5576TIP3    H138363   6.403   2.934   7.771 -1.2686  1.2733  1.0406
 5576TIP3    H238364   6.426   2.920   7.622 -0.0872 -0.9087  1.3873
 5577TIP3   OH238365   4.124   3.015   6.777 -0.2771 -0.6089 -0.0487
 5577TIP3    H138366   4.092   2.934   6.738  2.4366 -2.3264  0.9678
 5577TIP3    H238367   4.214   3.022   6.745  1.0271 -0.4359  3.2914
 5578TIP3   OH238368   1.009   1.061   8.696  0.4699 -0.2168  0.2079
 5578TIP3    H138369   1.038   1.031   8.610  1.1295  0.3101  0.2400
 5578TIP3    H238370   1.083   1.111   8.730 -0.0226  0.1053  0.8176
 5579TIP3   OH238371   0.816   5.516   0.685  0.0621  0.1886  0.2743
 5579TIP3    H138372   0.809   5.450   0.616  0.4914 -0.2144  0.6114
 5579TIP3    H238373   0.876   5.478   0.749  0.1286  0.8065  0.5879
 5580TIP3   OH238374   1.332   1.847   1.638  0.5147  0.3835  0.2439
 5580TIP3    H138375   1.410   1.793   1.647  0.2310  0.2062  1.9803
 5580TIP3    H238376   1.294   1.820   1.554  0.7696 -1.6128  0.7136
 5581TIP3   OH238377   4.519   5.566   7.745  0.2836 -0.2355  0.2257
 5581TIP3    H138378   4.504   5.489   7.691  1.2420  1.3695 -2.5656
 5581TIP3    H238379   4.448   5.626   7.722  0.4768  0.3306  1.0604
 5582TIP3   OH238380   0.431   0.306   1.847 -0.6502  0.1606 -0.2789
 5582TIP3    H138381   0.466   0.249   1.916 -0.3349  0.5109 -0.1435
 5582TIP3    H238382   0.488   0.289   1.772 -1.6523 -1.0258 -0.8101
 5583TIP3   OH238383   2.728   4.707   2.895 -0.4098 -0.3156  0.1715
 5583TIP3    H138384   2.737   4.656   2.976  0.6465 -0.9217 -0.3043
 5583TIP3    H238385   2.783   4.660   2.831 -0.0746  0.9689 -0.5094
 5584TIP3   OH238386   0.579   2.370   0.065  0.4971 -0.0534 -0.3883
 5584TIP3    H138387   0.508   2.318   0.102  0.0919  0.9957  0.3838
 5584TIP3    H238388   0.621   2.313   0.000 -0.2414 -1.1305  0.0622
 5585TIP3   OH238389   5.968   3.938   7.698  0.5283  0.6131  0.0065
 5585TIP3    H138390   5.963   3.843   7.705  1.2323  0.5486 -0.2166
 5585TIP3    H238391   5.982   3.967   7.788  3.0157  0.2796 -0.1963
 5586TIP3   OH238392   0.119   3.475   8.717  0.1481 -0.2958 -0.2248
 5586TIP3    H138393   0.033   3.463   8.758 -0.3404  0.3826 -1.0318
 5586TIP3    H238394   0.117   3.418   8.641  0.6958 -0.8198  0.1413
 5587TIP3   OH238395   6.330   3.274   0.202  0.4433 -0.2686 -0.2999
 5587TIP3    H138396   6.256   3.249   0.258  0.3976  2.3956  0.9774
 5587TIP3    H238397   6.325   3.213   0.128 -1.0295 -2.2764  1.3308
 5588TIP3   OH238398   5.049   3.624   0.908 -0.0068 -0.3783 -0.5915
 5588TIP3    H138399   4.972   3.609   0.963 -0.0613  1.5828 -0.0476
 5588TIP3    H238400   5.019   3.605   0.819 -0.9813 -0.0955 -0.3340
 5589TIP3   OH238401   2.838   0.181   1.612 -0.4472  0.9834  0.4598
 5589TIP3    H138402   2.894   0.140   1.677 -0.1451  1.2670  0.3821
 5589TIP3    H238403   2.757   0.202   1.659 -0.4656  0.6308  0.5871
 5590TIP3   OH238404   1.040   5.895   8.127 -0.3541 -0.2833 -0.0781
 5590TIP3    H138405   1.083   5.971   8.086 -2.4232 -0.5280 -3.0370
 5590TIP3    H238406   0.981   5.933   8.192 -1.0804  0.6706 -1.2496
 5591TIP3   OH238407   0.502   4.364   7.592 -0.8183 -0.1900  0.5402
 5591TIP3    H138408   0.563   4.305   7.546 -0.1152 -1.1432  2.5731
 5591TIP3    H238409   0.425   4.310   7.608 -0.5378 -0.3071  1.5852
 5592TIP3   OH238410   2.671   2.261   8.052  0.1604  0.0720 -0.0512
 5592TIP3    H138411   2.682   2.178   8.099 -0.0780  1.1738  2.0898
 5592TIP3    H238412   2.588   2.251   8.005 -0.2595 -0.6417  0.8059
 5593TIP3   OH238413   5.274   5.497   8.544 -0.2464  0.3335  0.0585
 5593TIP3    H138414   5.306   5.482   8.455  2.1465 -0.4306  0.9809
 5593TIP3    H238415   5.349   5.477   8.601 -1.5461  1.2647  2.2354
 5594TIP3   OH238416   5.669   3.036   7.455 -0.1974 -0.2841  0.3911
 5594TIP3    H138417   5.663   2.952   7.411  0.0416 -0.6249  0.9937
 5594TIP3    H238418   5.673   3.101   7.384  0.6682 -0.8522 -0.0905
 5595TIP3   OH238419   2.581   1.693   2.437 -0.3335  0.6423 -0.5591
 5595TIP3    H138420   2.499   1.704   2.389 -0.6950 -0.0934 -0.1328
 5595TIP3    H238421   2.567   1.739   2.520 -0.1477  0.9004 -0.6703
 5596TIP3   OH238422   3.877   1.995   8.842 -0.1721 -0.6670  0.3557
 5596TIP3    H138423   3.915   2.042   8.917 -1.0592  0.0183  0.3979
 5596TIP3    H238424   3.952   1.954   8.799  0.4636 -0.3111  1.0959
 5597TIP3   OH238425   0.046   5.641   8.964  0.4544  0.2029  0.1515
 5597TIP3    H138426   0.028   5.555   9.001 -0.5571  0.8282  1.1886
 5597TIP3    H238427   0.033   5.630   8.869 -2.0861 -0.2583  0.4827
 5598TIP3   OH238428   4.657   5.287   7.011 -0.1605 -0.1529 -0.3222
 5598TIP3    H138429   4.670   5.285   7.105  0.3155  0.8269 -0.3547
 5598TIP3    H238430   4.571   5.327   6.998  1.2178  3.0446 -0.3598
 5599TIP3   OH238431   3.478   3.896   0.378  0.2166  0.3772  0.1631
 5599TIP3    H138432   3.494   3.825   0.440  0.4124  0.9334  0.7603
 5599TIP3    H238433   3.560   3.905   0.330  0.4442  0.6786  0.5945
 5600TIP3   OH238434   5.306   3.866   2.544  0.5596  0.1287  0.0303
 5600TIP3    H138435   5.318   3.944   2.598  1.0882  1.1633 -1.5072
 5600TIP3    H238436   5.390   3.855   2.499  0.8218 -1.9059  0.8925
 5601TIP3   OH238437   4.326   2.744   7.502  0.2690 -0.1868 -0.2070
 5601TIP3    H138438   4.267   2.705   7.567  1.2430 -0.5073  0.5009
 5601TIP3    H238439   4.387   2.796   7.553  1.5736 -1.1077 -0.7828
 5602TIP3   OH238440   3.772   4.300   0.932 -0.4590 -0.7131  0.7022
 5602TIP3    H138441   3.805   4.315   0.843  0.3894  0.4684  1.2040
 5602TIP3    H238442   3.801   4.211   0.953 -2.6740 -1.9455 -1.0466
 5603TIP3   OH238443   5.124   0.161   7.911  0.1173  0.1547 -0.0703
 5603TIP3    H138444   5.190   0.093   7.923 -0.4624 -0.7213 -1.4799
 5603TIP3    H238445   5.085   0.141   7.825 -0.6021  1.8168 -0.1649
 5604TIP3   OH238446   5.301   4.844   8.734 -0.6957 -0.3194 -0.0762
 5604TIP3    H138447   5.294   4.931   8.697 -0.3815 -0.2227  0.0817
 5604TIP3    H238448   5.306   4.786   8.658 -0.0653 -0.1236 -0.1947
 5605TIP3   OH238449   2.339   4.506   7.698  0.0441 -0.2538  0.2311
 5605TIP3    H138450   2.399   4.478   7.630 -0.3209  0.2856 -0.3179
 5605TIP3    H238451   2.391   4.564   7.754 -0.3039  1.3821 -1.0541
 5606TIP3   OH238452   5.695   2.445   8.429  0.4681 -0.2766  0.5053
 5606TIP3    H138453   5.620   2.490   8.390  0.4907 -1.5148 -1.0622
 5606TIP3    H238454   5.751   2.424   8.355  0.0179 -3.6992  0.9988
 5607TIP3   OH238455   1.524   1.291   0.660  0.0082 -1.3629 -0.0343
 5607TIP3    H138456   1.467   1.217   0.637 -0.3677 -1.0890  0.0198
 5607TIP3    H238457   1.519   1.297   0.755 -0.6078 -0.7525 -0.1002
 5608TIP3   OH238458   5.398   5.428   2.253 -0.1849  0.5980 -0.1585
 5608TIP3    H138459   5.452   5.472   2.318 -0.6868  0.3314  0.4506
 5608TIP3    H238460   5.313   5.470   2.259 -0.4480  0.0716 -0.1103
 5609TIP3   OH238461   6.222   2.049   0.607  0.0884 -0.4858 -0.0271
 5609TIP3    H138462   6.156   1.981   0.591  0.7148 -1.1889  0.3385
 5609TIP3    H238463   6.294   2.027   0.548  0.8259 -0.9049  0.9815
 5610TIP3   OH238464   2.476   1.887   0.544 -0.0305 -0.2338 -0.2630
 5610TIP3    H138465   2.535   1.820   0.509  0.1498  0.1753 -0.7607
 5610TIP3    H238466   2.524   1.925   0.618 -0.6983 -1.5771  0.9097
 5611TIP3   OH238467   1.000   3.288   7.331  0.1393 -0.4228 -0.2865
 5611TIP3    H138468   1.010   3.383   7.326  1.9476 -0.5731 -0.1297
 5611TIP3    H238469   1.059   3.254   7.264 -0.1347 -1.4477 -0.0173
 5612TIP3   OH238470   2.302   2.655   7.871 -0.6289  0.1875  0.0760
 5612TIP3    H138471   2.301   2.654   7.775  2.5145 -0.9217 -0.0595
 5612TIP3    H238472   2.273   2.568   7.896  0.9561 -0.3919 -0.0161
 5613TIP3   OH238473   1.168   2.252   8.255 -0.5764 -0.1850 -0.3758
 5613TIP3    H138474   1.180   2.179   8.193 -0.4422 -0.9700  0.5485
 5613TIP3    H238475   1.256   2.283   8.273 -0.6644  0.5617 -1.1573
 5614TIP3   OH238476   1.393   6.164   8.022 -0.2079 -0.8294  0.0340
 5614TIP3    H138477   1.452   6.117   7.964  0.3070  0.7313 -0.7624
 5614TIP3    H238478   1.404   6.122   8.107  1.7737 -0.8259 -0.1848
 5615TIP3   OH238479   6.505   1.336   7.479 -0.1780 -0.4813 -0.2714
 5615TIP3    H138480   6.485   1.373   7.393 -0.2746 -1.2660 -0.6038
 5615TIP3    H238481   6.572   1.270   7.461  0.5536  0.0606  0.4101
 5616TIP3   OH238482   3.844   1.237   1.905 -0.5034  0.9619  0.1165
 5616TIP3    H138483   3.926   1.190   1.895 -0.6000  0.7021  0.5359
 5616TIP3    H238484   3.777   1.177   1.872 -0.9168 -0.2040  2.8114
 5617TIP3   OH238485   0.166   1.966   0.201 -0.0532 -0.2918 -0.5290
 5617TIP3    H138486   0.139   1.945   0.111 -1.1674  1.7077 -0.7216
 5617TIP3    H238487   0.084   1.966   0.250  0.5220 -1.1279  0.4618
 5618TIP3   OH238488   3.654   0.311   0.255  0.6511  0.1696  0.5307
 5618TIP3    H138489   3.706   0.253   0.199 -0.7051 -1.4794  0.8962
 5618TIP3    H238490   3.716   0.377   0.286  2.1579 -0.8231 -0.2665
 5619TIP3   OH238491   4.796   3.692   8.406 -0.3530  0.3831 -0.3135
 5619TIP3    H138492   4.793   3.648   8.491  2.0963  0.7367  0.0317
 5619TIP3    H238493   4.736   3.642   8.351  0.1372 -1.6070  0.8606
 5620TIP3   OH238494   2.249   1.707   1.874  0.0270  0.0334 -0.4860
 5620TIP3    H138495   2.230   1.761   1.952  0.3829  0.2029 -0.5165
 5620TIP3    H238496   2.274   1.622   1.910 -3.3510 -1.1018 -0.4572
 5621TIP3   OH238497   3.535   0.791   1.646  0.0139 -0.1296 -0.2030
 5621TIP3    H138498   3.612   0.733   1.646  1.2177  1.3841  1.0235
 5621TIP3    H238499   3.501   0.786   1.556  1.3926 -1.0312 -0.7092
 5622TIP3   OH238500   4.727   3.369   2.117  0.5508  0.6401 -1.5256
 5622TIP3    H138501   4.721   3.321   2.200 -0.8509  0.5461 -1.6540
 5622TIP3    H238502   4.740   3.460   2.143 -0.7034  0.7362 -1.1473
 5623TIP3   OH238503   0.138   1.383   8.708 -0.3595  0.1319  0.0432
 5623TIP3    H138504   0.187   1.368   8.789  0.4866  0.7772 -0.3318
 5623TIP3    H238505   0.077   1.309   8.703  1.4012 -1.3848 -0.0880
 5624TIP3   OH238506   2.026   1.560   8.082  0.2515 -0.5477  0.0231
 5624TIP3    H138507   1.973   1.558   8.003 -0.4841  1.2517  0.4082
 5624TIP3    H238508   2.115   1.574   8.051  0.2153 -1.5042 -0.5415
 5625TIP3   OH238509   4.938   2.497   8.899 -0.3319  0.1675  0.8149
 5625TIP3    H138510   4.887   2.530   8.973  0.8176 -0.3895  1.8907
 5625TIP3    H238511   5.005   2.564   8.883 -0.8661  0.5188 -0.0730
 5626TIP3   OH238512   0.224   4.658   7.916 -0.3062  0.4978 -0.3263
 5626TIP3    H138513   0.158   4.635   7.982 -0.3191  1.7704  0.1383
 5626TIP3    H238514   0.304   4.675   7.967  0.5098 -1.3402 -0.9038
 5627TIP3   OH238515   4.937   1.849   7.879  0.5343  0.1849 -0.5130
 5627TIP3    H138516   4.986   1.930   7.872 -0.6443  0.9298 -0.4477
 5627TIP3    H238517   4.937   1.813   7.790  0.3052  0.7176 -0.7308
 5628TIP3   OH238518   0.832   5.741   0.517 -0.3890  0.6028  0.3872
 5628TIP3    H138519   0.829   5.655   0.559 -0.1681 -0.1645 -1.1099
 5628TIP3    H238520   0.888   5.793   0.575  1.5305 -1.0013  0.0877
 5629TIP3   OH238521   4.834   2.176   7.911  0.5050  0.1675 -0.0523
 5629TIP3    H138522   4.892   2.246   7.880  0.8722  0.1490  0.5971
 5629TIP3    H238523   4.858   2.163   8.002 -1.7140  1.4046  0.7916
 5630TIP3   OH238524   1.649   5.318   7.249 -0.1177  0.5054  0.2073
 5630TIP3    H138525   1.612   5.230   7.245  0.1472  0.3346  1.1771
 5630TIP3    H238526   1.573   5.376   7.241 -0.4368  0.1750  0.7795
 5631TIP3   OH238527   1.421   1.551   0.368  0.3231  0.0078 -0.1250
 5631TIP3    H138528   1.496   1.508   0.409  0.0994 -0.3722 -0.1163
 5631TIP3    H238529   1.348   1.535   0.427  0.2059  0.2722 -0.1949
 5632TIP3   OH238530   4.077   3.862   8.131  0.2773  0.0488  0.7216
 5632TIP3    H138531   4.005   3.894   8.075  1.6732  0.6862 -0.7848
 5632TIP3    H238532   4.033   3.831   8.210 -1.6108  0.9199  0.0837
 5633TIP3   OH238533   3.624   2.344   1.609 -0.0560 -0.3867  0.0255
 5633TIP3    H138534   3.542   2.345   1.657 -0.3498  2.1719 -0.3806
 5633TIP3    H238535   3.689   2.316   1.673 -0.8871 -0.0002  1.0584
 5634TIP3   OH238536   5.549   4.299   1.342  0.2217  0.2272  0.2202
 5634TIP3    H138537   5.562   4.205   1.334  1.3542  0.3750  0.2334
 5634TIP3    H238538   5.575   4.334   1.257  1.9718  0.7412  0.9417
 5635TIP3   OH238539   3.321   1.534   2.253 -0.3100  0.0409  0.0058
 5635TIP3    H138540   3.273   1.535   2.170 -0.9086  0.2582  0.3535
 5635TIP3    H238541   3.412   1.551   2.228 -0.1899 -1.5755 -0.7981
 5636TIP3   OH238542   1.861   6.424   8.355  0.0883  0.2200  0.0344
 5636TIP3    H138543   1.926   6.460   8.415  0.6066 -0.1767 -0.2841
 5636TIP3    H238544   1.900   6.343   8.323  0.7625  1.3979 -2.4237
 5637TIP3   OH238545   1.948   3.601   8.864  0.2856 -0.6798  0.0224
 5637TIP3    H138546   1.926   3.515   8.901  0.3049 -0.2530  1.0690
 5637TIP3    H238547   1.877   3.658   8.893 -0.5556 -0.6377 -1.9593
 5638TIP3   OH238548   2.889   4.770   8.203 -0.2176 -0.1806 -0.2623
 5638TIP3    H138549   2.825   4.840   8.213 -0.2611 -0.2491 -0.0452
 5638TIP3    H238550   2.971   4.808   8.234 -0.5052 -0.6301  1.1324
 5639TIP3   OH238551   2.866   3.592   8.957  0.1097  0.3734 -0.0813
 5639TIP3    H138552   2.859   3.539   8.877 -1.2336  0.1009  0.1951
 5639TIP3    H238553   2.903   3.675   8.927 -1.7507  0.8446 -1.3017
 5640TIP3   OH238554   4.366   0.840   7.625 -0.4809 -0.1512 -0.2993
 5640TIP3    H138555   4.375   0.934   7.641 -1.3453 -0.1372  0.1750
 5640TIP3    H238556   4.343   0.803   7.711  3.2089 -1.3110  0.3557
 5641TIP3   OH238557   1.052   1.992   8.922 -0.3419 -0.2509 -0.0214
 5641TIP3    H138558   0.992   1.973   8.850 -0.1265  1.5815 -0.7394
 5641TIP3    H238559   1.046   1.916   8.979 -2.5631 -0.5845 -0.6005
 5642TIP3   OH238560   3.517   5.219   7.038  0.2510 -0.0342  0.8398
 5642TIP3    H138561   3.604   5.252   7.014  0.8138 -0.7620  1.7474
 5642TIP3    H238562   3.461   5.239   6.964  0.9699  1.3375  0.6437
 5643TIP3   OH238563   0.794   6.091   1.469 -0.6882 -0.0328 -0.6154
 5643TIP3    H138564   0.746   6.140   1.401  0.4477  0.5296 -1.0408
 5643TIP3    H238565   0.728   6.071   1.535 -2.2606 -2.1087 -2.6260
 5644TIP3   OH238566   0.571   1.130   8.857  0.7880 -0.2935 -0.8448
 5644TIP3    H138567   0.638   1.108   8.922 -0.9649 -2.8947  0.2466
 5644TIP3    H238568   0.512   1.189   8.902 -0.7946 -2.6120  0.3115
 5645TIP3   OH238569   4.756   3.476   7.010  0.2215 -0.4558 -0.3596
 5645TIP3    H138570   4.772   3.385   7.035 -1.3118 -0.4079  0.9439
 5645TIP3    H238571   4.758   3.475   6.915 -4.4877 -2.9355 -0.7429
 5646TIP3   OH238572   0.610   2.865   8.092 -0.2788 -0.6857 -0.6205
 5646TIP3    H138573   0.539   2.854   8.030 -2.5784  0.0175  1.7044
 5646TIP3    H238574   0.595   2.952   8.131  0.9641 -1.1217  0.9676
 5647TIP3   OH238575   1.359   2.055   0.907  0.1714  0.3341 -0.3774
 5647TIP3    H138576   1.411   2.135   0.903 -1.2778  1.2985 -0.7130
 5647TIP3    H238577   1.381   2.008   0.826  1.4009  0.1342  0.0617
 5648TIP3   OH238578   1.284   3.371   0.150  0.3262 -0.1892 -0.3883
 5648TIP3    H138579   1.231   3.424   0.211 -1.3100 -1.7199 -0.4172
 5648TIP3    H238580   1.350   3.331   0.206 -0.0842 -0.2161  0.0877
 5649TIP3   OH238581   1.707   4.360   7.885  0.4651 -0.4556 -0.1039
 5649TIP3    H138582   1.748   4.274   7.873 -2.0459 -1.3178 -4.3418
 5649TIP3    H238583   1.760   4.420   7.833 -1.0464 -0.7427 -2.0894
 5650TIP3   OH238584   0.858   5.134   8.692 -0.0291  0.0395  0.1360
 5650TIP3    H138585   0.930   5.134   8.755  0.3034 -0.3894 -0.2335
 5650TIP3    H238586   0.851   5.042   8.664 -1.2081 -0.0630  0.7158
 5651TIP3   OH238587   3.695   2.213   8.139 -0.2102  0.6020  0.3892
 5651TIP3    H138588   3.705   2.118   8.130 -1.5039  0.6045 -2.4245
 5651TIP3    H238589   3.774   2.249   8.099  0.8563  0.8003  2.5292
 5652TIP3   OH238590   2.962   5.414   2.986  0.4321  0.0060 -0.1453
 5652TIP3    H138591   2.887   5.374   2.942 -1.5482  0.9842  2.1032
 5652TIP3    H238592   3.036   5.356   2.965 -1.6330 -3.0612  0.3147
 5653TIP3   OH238593   4.462   0.355   1.291  0.4408 -0.3103 -0.4670
 5653TIP3    H138594   4.448   0.308   1.373 -0.5044 -1.2909 -1.1525
 5653TIP3    H238595   4.441   0.446   1.311 -2.1054 -0.8830 -0.1486
 5654TIP3   OH238596   2.644   0.111   7.368 -0.0894 -0.1052 -0.6590
 5654TIP3    H138597   2.598   0.033   7.398 -1.1719  0.6625 -0.2576
 5654TIP3    H238598   2.596   0.184   7.406  1.0986  0.7623 -0.7475
 5655TIP3   OH238599   0.505   3.134   8.542 -0.2236  0.2989  0.3776
 5655TIP3    H138600   0.589   3.147   8.586  0.6324  1.8367 -1.5885
 5655TIP3    H238601   0.504   3.041   8.520  1.3103  0.3784 -0.1680
 5656TIP3   OH238602   1.470   2.469   1.387 -0.6906 -0.2456 -0.0609
 5656TIP3    H138603   1.396   2.528   1.402 -0.6436 -0.0119 -0.7062
 5656TIP3    H238604   1.538   2.500   1.446 -1.0562 -0.3731  0.4355
 5657TIP3   OH238605   4.356   2.026   7.037  0.3023 -0.4170 -0.1012
 5657TIP3    H138606   4.431   2.037   6.977 -0.6382  0.9655 -1.0883
 5657TIP3    H238607   4.364   2.099   7.098 -1.7731  1.5153 -1.9821
 5658TIP3   OH238608   3.803   3.712   6.462 -0.0857 -1.2053 -0.0903
 5658TIP3    H138609   3.839   3.783   6.516 -0.2768 -1.5099  0.4389
 5658TIP3    H238610   3.866   3.704   6.390  1.0415 -1.8557  0.9252
 5659TIP3   OH238611   0.468   2.816   1.104 -0.1604 -0.1752  0.0883
 5659TIP3    H138612   0.532   2.828   1.175 -1.0773 -0.1471  0.9351
 5659TIP3    H238613   0.521   2.800   1.026  0.9276  1.1691  0.5046
 5660TIP3   OH238614   4.534   4.643   1.016 -0.5786 -0.5574  0.3108
 5660TIP3    H138615   4.582   4.620   0.936 -0.8960 -2.0882  0.5329
 5660TIP3    H238616   4.560   4.734   1.034 -0.5281 -0.1743 -1.5335
 5661TIP3   OH238617   6.750   4.612   2.530  0.5565 -0.4779 -0.1698
 5661TIP3    H138618   6.757   4.653   2.616 -1.3538 -3.1697  1.4366
 5661TIP3    H238619   6.833   4.564   2.519  1.4726  1.1553 -0.6288
 5662TIP3   OH238620   2.424   4.854   1.184 -0.4458 -0.2944 -0.2257
 5662TIP3    H138621   2.364   4.859   1.109 -1.2671  2.4804  0.5228
 5662TIP3    H238622   2.406   4.769   1.223 -1.2775 -1.0451 -2.1020
 5663TIP3   OH238623   1.291   0.602   7.186  0.1015 -0.6810 -0.5486
 5663TIP3    H138624   1.306   0.680   7.133  3.1468 -1.3931 -0.8994
 5663TIP3    H238625   1.226   0.552   7.137 -3.0203  2.0998  0.3499
 5664TIP3   OH238626   5.757   5.868   0.216 -0.6893  0.4259  0.8803
 5664TIP3    H138627   5.713   5.897   0.296  0.3498  0.6216  1.3963
 5664TIP3    H238628   5.771   5.949   0.166 -0.1778  0.4755  1.0994
 5665TIP3   OH238629   4.542   5.295   7.666 -0.1468 -0.0508 -0.0982
 5665TIP3    H138630   4.633   5.307   7.693  0.1372  0.2712 -1.1431
 5665TIP3    H238631   4.546   5.232   7.593 -0.9213 -1.1612  0.7822
 5666TIP3   OH238632   2.108   3.196   8.957  0.3539  0.4593  0.1715
 5666TIP3    H138633   2.159   3.206   9.037  0.9084 -1.0888  0.0522
 5666TIP3    H238634   2.123   3.105   8.930 -1.7869  0.1830 -0.3318
 5667TIP3   OH238635   0.521   2.311   6.744 -0.1895 -0.4133 -0.6465
 5667TIP3    H138636   0.512   2.251   6.670  0.2219 -1.2814 -0.0111
 5667TIP3    H238637   0.579   2.380   6.712 -1.3393  0.1323 -1.6645
 5668TIP3   OH238638   4.539   1.659   0.359  0.2958 -0.1016  0.0062
 5668TIP3    H138639   4.517   1.571   0.388 -0.9162  1.0002  2.8696
 5668TIP3    H238640   4.602   1.691   0.424 -0.1348  1.5094 -0.3068
 5669TIP3   OH238641   1.283   3.050   8.610 -0.5115  0.2091 -0.0672
 5669TIP3    H138642   1.360   3.047   8.666  1.0624  2.4069 -1.9362
 5669TIP3    H238643   1.215   3.005   8.661  2.4215 -3.7598  0.8187
 5670TIP3   OH238644   6.529   3.088   8.572  0.3735  0.5368  0.5506
 5670TIP3    H138645   6.511   3.006   8.526  0.6062  1.2702 -0.9178
 5670TIP3    H238646   6.463   3.093   8.641 -1.0745  0.1934 -0.7649
 5671TIP3   OH238647   5.736   6.110   1.799  0.1980 -0.2130 -0.2643
 5671TIP3    H138648   5.723   6.059   1.879 -2.4245 -0.1768 -0.6050
 5671TIP3    H238649   5.825   6.088   1.771  1.1750 -0.2859  2.5810
 5672TIP3   OH238650   4.268   0.540   0.967  0.3300  0.7293 -0.5906
 5672TIP3    H138651   4.208   0.549   0.893 -1.5382  1.7234  0.9226
 5672TIP3    H238652   4.226   0.590   1.037  3.1224  1.7283  0.5066
 5673TIP3   OH238653   3.890   6.524   2.725  0.1557  0.0277  0.0644
 5673TIP3    H138654   3.864   6.465   2.654 -1.2601  0.2595  0.3650
 5673TIP3    H238655   3.834   6.601   2.715 -0.4167 -0.1284  1.7081
 5674TIP3   OH238656   6.041   0.135   8.127  0.0344 -0.0889  0.0468
 5674TIP3    H138657   5.975   0.068   8.144  0.3504 -0.3278  0.3366
 5674TIP3    H238658   5.991   0.216   8.117 -0.4021 -0.4565 -0.8645
 5675TIP3   OH238659   3.356   4.271   2.431  0.2318  0.3997  0.5215
 5675TIP3    H138660   3.448   4.276   2.459  0.0897 -0.7922  1.2999
 5675TIP3    H238661   3.325   4.187   2.466 -1.5331  1.3604  1.4445
 5676TIP3   OH238662   1.158   3.255   1.617 -0.3507 -0.6146 -0.3379
 5676TIP3    H138663   1.182   3.259   1.524  1.9790  0.7407  0.2300
 5676TIP3    H238664   1.191   3.171   1.647  0.0030 -0.5279 -0.4786
 5677TIP3   OH238665   2.839   1.719   7.624 -0.5846 -0.7719 -0.1047
 5677TIP3    H138666   2.755   1.673   7.617 -1.3812  0.5251  0.3776
 5677TIP3    H238667   2.815   1.806   7.656  0.9125 -0.2094 -0.4346
 5678TIP3   OH238668   5.671   4.567   8.692 -0.0539  0.8169 -0.3989
 5678TIP3    H138669   5.656   4.649   8.645  1.4134  0.6496 -1.1983
 5678TIP3    H238670   5.766   4.555   8.690  0.0888  0.7277  2.5218
 5679TIP3   OH238671   1.732   2.417   1.162 -0.2577 -0.0678 -0.1044
 5679TIP3    H138672   1.784   2.488   1.200 -1.6940  0.9482  0.0808
 5679TIP3    H238673   1.795   2.365   1.113  1.1676  0.2173  1.3343
 5680TIP3   OH238674   0.620   6.038   8.904  0.0905 -0.1600  0.4175
 5680TIP3    H138675   0.540   6.050   8.957 -1.4594 -1.0820 -1.5673
 5680TIP3    H238676   0.647   6.126   8.881 -0.1129  0.1823  1.4133
 5681TIP3   OH238677   5.873   4.103   8.533 -0.2175 -1.0079  0.5060
 5681TIP3    H138678   5.967   4.087   8.522  0.8010  2.7932  2.0620
 5681TIP3    H238679   5.855   4.076   8.624  0.1727  1.0090  1.2269
 5682TIP3   OH238680   4.994   0.769   7.811 -0.7431  0.0791  0.8818
 5682TIP3    H138681   4.953   0.851   7.785 -1.6413 -1.0806 -1.6997
 5682TIP3    H238682   5.088   0.783   7.796 -1.1332 -0.2999 -2.8768
 5683TIP3   OH238683   5.219   0.489   0.758  0.1593 -0.6480 -0.2525
 5683TIP3    H138684   5.265   0.405   0.752  0.5235 -0.3623 -2.3858
 5683TIP3    H238685   5.201   0.513   0.667  1.5495  2.3775  0.1354
 5684TIP3   OH238686   4.145   4.234   6.557 -0.5118  0.0174 -0.4792
 5684TIP3    H138687   4.102   4.210   6.475 -1.6826  0.1315  0.0692
 5684TIP3    H238688   4.102   4.180   6.623  1.2146 -0.9124 -0.0737
 5685TIP3   OH238689   2.803   2.366   6.932 -0.1638 -0.6545  0.3972
 5685TIP3    H138690   2.718   2.383   6.893 -0.3552 -1.5932  0.3871
 5685TIP3    H238691   2.866   2.381   6.861 -0.4866 -2.0561 -0.2133
 5686TIP3   OH238692   5.835   4.380   0.916 -0.0850  0.2527  0.8811
 5686TIP3    H138693   5.810   4.454   0.861  0.9074  1.0407  1.4410
 5686TIP3    H238694   5.753   4.348   0.953 -0.8459 -0.5874 -1.3565
 5687TIP3   OH238695   2.441   3.592   0.979 -0.1885 -0.4058  0.1319
 5687TIP3    H138696   2.462   3.544   0.898  0.8893 -0.7732  0.6115
 5687TIP3    H238697   2.470   3.681   0.962  0.5849 -0.6159  0.3133
 5688TIP3   OH238698   2.963   2.972   1.636  0.0684  0.3233  0.2322
 5688TIP3    H138699   3.021   2.951   1.563 -1.0334  0.1054 -0.6100
 5688TIP3    H238700   2.983   2.906   1.703  2.1210  1.4012  0.7642
 5689TIP3   OH238701   1.265   1.418   8.232  0.2657 -0.0053 -0.1482
 5689TIP3    H138702   1.199   1.451   8.293 -0.3389 -1.9903  0.3400
 5689TIP3    H238703   1.323   1.492   8.217 -0.7054  1.0953  1.2901
 5690TIP3   OH238704   0.145   0.971   2.193  0.2167 -0.2101  0.2946
 5690TIP3    H138705   0.092   0.992   2.271  0.6506 -0.8522  0.7798
 5690TIP3    H238706   0.212   1.039   2.191  0.2595 -0.2410  0.5429
 5691TIP3   OH238707   3.144   2.078   2.056  0.2962  0.2959  0.5206
 5691TIP3    H138708   3.212   2.075   2.124 -0.2295  0.4919  1.0683
 5691TIP3    H238709   3.152   1.995   2.010  1.3911  0.6275  0.0998
 5692TIP3   OH238710   4.519   2.587   7.349 -0.1130 -0.0791 -0.4436
 5692TIP3    H138711   4.455   2.644   7.391 -0.9712 -0.5828 -1.0342
 5692TIP3    H238712   4.513   2.608   7.256  0.5981 -0.1304 -0.5116
 5693TIP3   OH238713   6.211   3.724   1.462 -0.2336 -0.2273  0.1680
 5693TIP3    H138714   6.266   3.802   1.467  0.7881 -0.8760 -0.5004
 5693TIP3    H238715   6.180   3.710   1.552  0.6402  0.1903  0.5416
 5694TIP3   OH238716   0.636   2.973   0.308 -0.1229 -0.4495  0.3488
 5694TIP3    H138717   0.665   3.049   0.256 -0.2216 -1.1644 -0.7703
 5694TIP3    H238718   0.542   2.987   0.320 -0.3124 -0.8244 -0.6148
 5695TIP3   OH238719   3.437   2.048   1.893 -0.5770  0.1471  0.0906
 5695TIP3    H138720   3.379   1.981   1.930  1.1041 -0.4809  1.7767
 5695TIP3    H238721   3.503   2.063   1.961  1.4854  0.5029 -1.8500
 5696TIP3   OH238722   6.682   1.066   0.665  0.1798 -0.6275  0.2173
 5696TIP3    H138723   6.650   0.981   0.635  0.7167 -0.6261 -0.3765
 5696TIP3    H238724   6.603   1.121   0.669 -0.3609 -1.4386  1.7004
 5697TIP3   OH238725   0.641   6.040   0.487 -0.2192  0.2398  0.2752
 5697TIP3    H138726   0.619   5.993   0.406 -0.3840 -1.5986  1.3210
 5697TIP3    H238727   0.700   6.110   0.460 -0.2179 -0.3818 -1.4172
 5698TIP3   OH238728   0.392   5.074   8.414  0.1799  0.1951 -0.1843
 5698TIP3    H138729   0.443   5.068   8.495 -2.1912  1.3266  1.5355
 5698TIP3    H238730   0.349   5.159   8.419 -2.8183 -1.1315 -0.7814
 5699TIP3   OH238731   4.516   4.177   7.279  0.1217 -0.5835 -0.4471
 5699TIP3    H138732   4.564   4.236   7.337  0.1632  0.3477 -1.3840
 5699TIP3    H238733   4.580   4.153   7.212  0.0839 -1.6636 -0.1055
 5700TIP3   OH238734   0.160   5.630   1.552  0.3850 -0.0980  0.3830
 5700TIP3    H138735   0.246   5.600   1.520 -0.7439 -1.7475 -1.3542
 5700TIP3    H238736   0.154   5.721   1.522  1.4595 -0.0084  0.4046
 5701TIP3   OH238737   0.332   0.330   0.441 -0.1027 -0.3646  0.2627
 5701TIP3    H138738   0.275   0.332   0.518 -2.3450 -1.8132 -1.2393
 5701TIP3    H238739   0.359   0.239   0.434  1.7434  0.1389  0.4162
 5702TIP3   OH238740   2.500   2.017   1.845  0.4402  0.0049  0.7706
 5702TIP3    H138741   2.411   2.019   1.879 -0.2258 -0.4859 -0.8413
 5702TIP3    H238742   2.500   2.080   1.772  1.1329 -0.6878  0.1450
 5703TIP3   OH238743   2.720   4.418   0.082 -0.2489  0.5890  0.1280
 5703TIP3    H138744   2.738   4.436  -0.011 -1.5372 -0.6286 -0.4030
 5703TIP3    H238745   2.798   4.450   0.128  1.8062 -1.4730 -1.6511
 5704TIP3   OH238746   0.374   0.355   0.984 -0.1307  0.1491  0.1293
 5704TIP3    H138747   0.434   0.427   0.962  0.5504 -0.8239 -1.3620
 5704TIP3    H238748   0.358   0.365   1.078  2.2932  0.5265  0.5874
 5705TIP3   OH238749   3.278   3.032   1.941 -0.2835  0.3150  0.1206
 5705TIP3    H138750   3.221   3.088   1.888 -1.0474  1.1264  1.7056
 5705TIP3    H238751   3.358   3.083   1.952  0.4735 -0.4837 -1.4362
 5706TIP3   OH238752   5.259   6.708   8.716  0.2969 -0.2792  0.0958
 5706TIP3    H138753   5.324   6.776   8.704 -0.1070  0.0037 -0.5356
 5706TIP3    H238754   5.292   6.634   8.666  0.5823 -0.4491  0.5290
 5707TIP3   OH238755   0.242   2.375   8.051 -0.3528  0.2704 -0.1715
 5707TIP3    H138756   0.300   2.340   7.983 -0.7770 -1.7317  0.4090
 5707TIP3    H238757   0.267   2.467   8.059  0.0496  0.4374 -2.6403
 5708TIP3   OH238758   5.770   5.534   8.949  0.1400 -0.4598  0.1211
 5708TIP3    H138759   5.727   5.467   9.002  1.2433 -1.3392 -0.0610
 5708TIP3    H238760   5.840   5.487   8.903 -0.5239  0.3365 -1.8303
 5709TIP3   OH238761   0.873   0.969   0.002 -1.1121 -0.0538  0.0378
 5709TIP3    H138762   0.967   0.991   0.002 -1.1797  0.2354  0.0955
 5709TIP3    H238763   0.863   0.908  -0.071 -0.7621 -0.5860  0.4245
 5710TIP3   OH238764   2.885   5.145   8.712 -0.1329 -0.5105 -0.4225
 5710TIP3    H138765   2.974   5.171   8.735 -0.3706 -1.8529  2.5413
 5710TIP3    H238766   2.852   5.216   8.657  2.2160  0.8047 -0.2359
 5711TIP3   OH238767   6.619   4.515   7.767 -0.1103  0.2776 -0.6520
 5711TIP3    H138768   6.676   4.446   7.800 -1.6038 -0.0454  1.4148
 5711TIP3    H238769   6.556   4.469   7.711  1.3996  0.6003 -2.7199
 5712TIP3   OH238770   4.934   0.731   0.214 -0.1153 -0.1902 -0.3568
 5712TIP3    H138771   4.874   0.756   0.144 -0.1847  1.7740  0.3519
 5712TIP3    H238772   5.013   0.781   0.198  1.2970 -2.4854 -1.0646
 5713TIP3   OH238773   1.427   5.723   7.745  0.0107 -0.0180  0.5026
 5713TIP3    H138774   1.385   5.727   7.831  0.1623 -0.4867  0.6037
 5713TIP3    H238775   1.371   5.664   7.694 -1.7917  2.5244 -0.7081
 5714TIP3   OH238776   6.053   4.780   8.510  0.3916  0.2145  1.0833
 5714TIP3    H138777   6.100   4.863   8.504  0.6604 -0.0318 -0.5474
 5714TIP3    H238778   5.976   4.790   8.455  1.1644 -1.0650 -0.3077
 5715TIP3   OH238779   0.065   5.503   8.121 -0.8677 -0.3189  0.0859
 5715TIP3    H138780   0.037   5.586   8.084  0.5918  0.0979 -0.1080
 5715TIP3    H238781   0.014   5.494   8.202 -1.0898  0.7132  0.0643
 5716TIP3   OH238782   3.510   0.951   1.123 -0.4050  0.7693 -0.1330
 5716TIP3    H138783   3.558   0.917   1.049  2.1262  1.7478  0.9455
 5716TIP3    H238784   3.442   0.886   1.140  0.7400 -0.8726 -1.5213
 5717TIP3   OH238785   5.856   6.229   7.478 -0.3847  0.1141  0.2157
 5717TIP3    H138786   5.872   6.137   7.458 -0.3205  0.0662  0.4776
 5717TIP3    H238787   5.938   6.259   7.517 -0.1090  0.5128 -0.6562
 5718TIP3   OH238788   3.203   2.773   7.038  0.1692 -0.0158 -0.0823
 5718TIP3    H138789   3.120   2.793   7.081  0.6312 -0.7839  1.2041
 5718TIP3    H238790   3.179   2.717   6.964 -0.5513  0.6829 -0.3931
 5719TIP3   OH238791   3.417   5.526   2.920 -0.7531  0.2824 -0.2499
 5719TIP3    H138792   3.496   5.547   2.871 -1.3998  3.4586 -0.1802
 5719TIP3    H238793   3.448   5.485   3.000  0.7046 -0.0035 -0.9424
 5720TIP3   OH238794   4.770   5.273   1.776 -0.3840 -0.1639 -0.5514
 5720TIP3    H138795   4.810   5.252   1.692  0.0092 -1.3279 -0.0971
 5720TIP3    H238796   4.843   5.303   1.831 -0.5244 -0.0713 -0.4110
 5721TIP3   OH238797   2.729   5.471   8.788 -0.5831  0.1912 -0.4847
 5721TIP3    H138798   2.679   5.421   8.724  0.0228  0.6473 -1.3413
 5721TIP3    H238799   2.819   5.470   8.754 -0.4939  1.5745 -0.3760
 5722TIP3   OH238800   2.186   1.149   1.896 -0.2544  0.2352 -0.1751
 5722TIP3    H138801   2.227   1.082   1.842  1.9798  0.8150  0.6976
 5722TIP3    H238802   2.197   1.118   1.986 -0.8754  0.8933  0.1408
 5723TIP3   OH238803   5.262   4.887   1.913 -0.2733 -0.1826  0.2691
 5723TIP3    H138804   5.252   4.980   1.933 -0.6668 -0.1072 -0.2640
 5723TIP3    H238805   5.329   4.856   1.975  1.9158  1.0540 -1.3182
 5724TIP3   OH238806   2.212   1.941   1.301 -0.2438  0.5939 -0.4791
 5724TIP3    H138807   2.259   1.865   1.334 -1.1260 -1.0206 -2.7044
 5724TIP3    H238808   2.188   1.990   1.380  0.0259 -1.5986  1.0722
 5725TIP3   OH238809   0.016   3.286   0.742  0.5841 -0.3072 -0.5411
 5725TIP3    H138810  -0.011   3.195   0.751  0.2384 -0.0876  0.8154
 5725TIP3    H238811  -0.051   3.324   0.685  1.2475 -1.0861 -1.9048
 5726TIP3   OH238812   2.225   2.956   0.917  0.3580  0.2241 -0.2810
 5726TIP3    H138813   2.280   3.029   0.892  0.3632  0.4910  0.4856
 5726TIP3    H238814   2.234   2.950   1.012 -0.8937  0.2472 -0.1461
 5727TIP3   OH238815   3.965   2.243   7.648  0.3999 -0.1747  0.1100
 5727TIP3    H138816   3.972   2.213   7.558 -0.8181 -1.0945  0.2934
 5727TIP3    H238817   3.993   2.168   7.701  0.2223  0.0374  0.5123
 5728TIP3   OH238818   2.501   3.098   0.294 -0.2316  0.0949 -0.1041
 5728TIP3    H138819   2.452   3.041   0.353  0.7788  0.1040  0.7753
 5728TIP3    H238820   2.453   3.095   0.212 -2.4150  1.0620  1.0483
 5729TIP3   OH238821   5.789   0.739   8.622  0.1501 -0.1154  0.1689
 5729TIP3    H138822   5.746   0.801   8.682 -0.3269 -0.3116  0.0352
 5729TIP3    H238823   5.866   0.786   8.590  1.0633 -0.4059  1.7969
 5730TIP3   OH238824   1.546   4.753   7.876 -0.3605 -0.2088 -0.0722
 5730TIP3    H138825   1.492   4.732   7.952 -0.8171  0.3071 -0.2426
 5730TIP3    H238826   1.580   4.841   7.896 -1.3819  0.4061 -0.9462
 5731TIP3   OH238827   2.774   1.672   1.709 -0.4098  0.0095  0.3560
 5731TIP3    H138828   2.864   1.704   1.704  0.0445 -0.9061  1.8978
 5731TIP3    H238829   2.742   1.704   1.794 -1.2702 -0.3172  0.1641
 5732TIP3   OH238830   0.012   2.378   8.734 -0.1041 -0.6287  0.4510
 5732TIP3    H138831  -0.036   2.408   8.811 -0.2827 -1.6315  0.7442
 5732TIP3    H238832  -0.054   2.371   8.665 -0.1632 -0.8468  0.5277
 5733TIP3   OH238833   1.973   3.205   0.479 -0.2770  0.7330  0.0392
 5733TIP3    H138834   1.953   3.135   0.417  0.9891  0.1987  0.2107
 5733TIP3    H238835   2.068   3.204   0.487 -0.4141  0.5447  2.2722
 5734TIP3   OH238836   1.581   4.124   0.689  0.3358 -0.1362 -0.1916
 5734TIP3    H138837   1.506   4.094   0.739  0.3855 -0.0254 -0.0487
 5734TIP3    H238838   1.570   4.219   0.684  0.5262 -0.1062 -0.0673
 5735TIP3   OH238839   6.105   4.294   1.780  0.8616 -0.3957  0.3375
 5735TIP3    H138840   6.108   4.273   1.874 -0.6886  0.0929  0.5192
 5735TIP3    H238841   6.042   4.365   1.773 -0.6248 -1.7805 -1.3053
 5736TIP3   OH238842   0.360   0.287   8.163  0.3181  0.1613 -0.0280
 5736TIP3    H138843   0.270   0.256   8.174  0.6161 -0.3686  0.9500
 5736TIP3    H238844   0.373   0.348   8.235  0.8548 -0.0189  0.0268
 5737TIP3   OH238845   0.611   6.006   0.758 -0.1503 -0.5771  0.1839
 5737TIP3    H138846   0.625   6.007   0.663  0.7668 -0.4081  0.3082
 5737TIP3    H238847   0.629   5.915   0.784 -0.7910 -0.7157  0.1434
 5738TIP3   OH238848   2.716   5.628   8.514  0.2332  0.0059 -0.2447
 5738TIP3    H138849   2.784   5.561   8.522 -1.0576 -1.4112 -0.7731
 5738TIP3    H238850   2.690   5.624   8.422  0.1914  1.3262 -0.3090
 5739TIP3   OH238851   0.137   1.875   6.800  0.1624  0.4644  0.2818
 5739TIP3    H138852   0.044   1.859   6.817 -0.0515 -0.0409 -1.2080
 5739TIP3    H238853   0.140   1.967   6.771  0.1612  0.5618  0.5938
 5740TIP3   OH238854   2.887   5.412   8.530 -0.2207  0.2135  0.1191
 5740TIP3    H138855   2.880   5.379   8.441 -0.3120 -0.4252  0.3619
 5740TIP3    H238856   2.980   5.407   8.552 -0.0684  1.1783 -0.2384
 5741TIP3   OH238857   2.980   2.774   1.839 -0.2867  0.0604 -0.3119
 5741TIP3    H138858   2.936   2.693   1.813 -0.6985  0.1077  0.2337
 5741TIP3    H238859   3.073   2.750   1.847 -0.4739 -0.4722  0.3022
 5742TIP3   OH238860   6.052   5.812   0.138 -0.0455  0.6190 -0.6273
 5742TIP3    H138861   6.058   5.729   0.185 -1.1656  0.3127 -1.0047
 5742TIP3    H238862   6.000   5.868   0.194  0.5837  1.0316 -0.4421
 5743TIP3   OH238863   2.399   4.370   1.212 -0.1172 -0.0140  0.2357
 5743TIP3    H138864   2.340   4.339   1.143  2.7704  0.0443 -2.4765
 5743TIP3    H238865   2.482   4.385   1.167  1.9613  0.0925  3.7739
 5744TIP3   OH238866   4.102   2.310   1.940 -0.1502 -0.3636  0.2138
 5744TIP3    H138867   4.062   2.363   2.009  1.9612  0.8745  0.5471
 5744TIP3    H238868   4.145   2.239   1.987 -0.2497 -0.5594  0.0113
 5745TIP3   OH238869   2.223   1.178   7.310 -0.0150 -1.0201 -0.2545
 5745TIP3    H138870   2.142   1.126   7.306  0.9318 -2.6454  0.5687
 5745TIP3    H238871   2.292   1.116   7.288  0.9680  0.5658 -1.9079
 5746TIP3   OH238872   1.452   3.316   0.353 -0.8181 -0.3878  0.5673
 5746TIP3    H138873   1.399   3.304   0.431 -0.0989  0.1504  1.1528
 5746TIP3    H238874   1.540   3.288   0.378 -0.4605  0.3118  0.1332
 5747TIP3   OH238875   2.142   4.082   7.639 -0.4962 -0.5120 -0.0835
 5747TIP3    H138876   2.192   4.117   7.713  0.4053  1.0195 -1.3763
 5747TIP3    H238877   2.202   4.086   7.565 -1.3804 -2.0362 -0.9357
 5748TIP3   OH238878   0.528   6.302   8.057 -0.1333 -0.3213 -0.0455
 5748TIP3    H138879   0.451   6.296   8.002  0.0952 -1.7132 -0.2436
 5748TIP3    H238880   0.509   6.374   8.117 -0.8297  0.5117 -1.2284
 5749TIP3   OH238881   2.512   6.709   8.669 -0.3046 -0.8485  0.1397
 5749TIP3    H138882   2.498   6.763   8.592  0.0670  0.4063  0.9225
 5749TIP3    H238883   2.598   6.736   8.701 -1.7273  0.9920  2.7853
 5750TIP3   OH238884   5.867   3.028   8.503 -0.1942  0.7460  0.0752
 5750TIP3    H138885   5.799   3.065   8.447  0.9530  0.2946 -1.6938
 5750TIP3    H238886   5.834   2.941   8.527  0.3904 -0.1289 -2.0922
 5751TIP3   OH238887   5.701   0.641   1.902  0.5017 -0.4923 -0.1031
 5751TIP3    H138888   5.616   0.632   1.859  0.3966 -0.8159  0.1735
 5751TIP3    H238889   5.731   0.728   1.877 -0.2056 -0.1159  0.3266
 5752TIP3   OH238890   4.480   1.106   3.138  0.0933 -0.0999  0.9202
 5752TIP3    H138891   4.495   1.029   3.082  0.8431 -1.2342  2.6198
 5752TIP3    H238892   4.566   1.131   3.169 -0.0866  1.7712  0.0246
 5753TIP3   OH238893   3.410   2.645   0.468  0.5569 -0.4669 -0.1755
 5753TIP3    H138894   3.345   2.630   0.400  0.6385  0.3778 -0.4504
 5753TIP3    H238895   3.415   2.561   0.515 -1.4966 -0.2497  0.5335
 5754TIP3   OH238896   5.437   6.198   8.098  0.1694  0.3516 -0.2168
 5754TIP3    H138897   5.436   6.167   8.007  0.8547  1.1507 -0.4997
 5754TIP3    H238898   5.349   6.234   8.111 -0.2543 -0.6254 -0.2470
 5755TIP3   OH238899   3.297   3.944   7.785  0.0739  0.5446  0.1027
 5755TIP3    H138900   3.206   3.957   7.758  0.2725  2.3148  0.1609
 5755TIP3    H238901   3.344   3.925   7.703 -0.4119 -1.0042  0.1482
 5756TIP3   OH238902   3.263   5.062   7.683 -0.6235 -0.0787 -0.3298
 5756TIP3    H138903   3.304   5.001   7.744 -2.0798 -0.5446  0.2330
 5756TIP3    H238904   3.323   5.136   7.678  1.2188 -1.5582 -1.0617
 5757TIP3   OH238905   4.561   3.845   7.188  0.1599 -0.8295 -0.5632
 5757TIP3    H138906   4.614   3.773   7.222  2.3971  0.0657 -1.9520
 5757TIP3    H238907   4.510   3.875   7.263  0.9060 -2.3559  0.6019
 5758TIP3   OH238908   4.557   0.911   0.843 -0.5111  0.3354  0.2254
 5758TIP3    H138909   4.608   0.950   0.773  0.8879  0.0198  1.0272
 5758TIP3    H238910   4.604   0.936   0.923 -2.2139  0.9204  1.0826
 5759TIP3   OH238911   0.449   0.677   7.750 -0.5384 -0.3594 -0.3497
 5759TIP3    H138912   0.416   0.599   7.795  0.1236 -0.4893 -0.0694
 5759TIP3    H238913   0.385   0.694   7.682  0.0433 -2.0188 -1.3790
 5760TIP3   OH238914   0.257   2.843   8.579  0.2488 -0.4211 -0.0078
 5760TIP3    H138915   0.218   2.864   8.494  3.1036 -1.6134 -1.7680
 5760TIP3    H238916   0.252   2.747   8.584 -0.2461 -0.3367  1.3966
 5761TIP3   OH238917   1.055   5.322   0.781  0.3572 -0.3721  0.5142
 5761TIP3    H138918   1.127   5.386   0.780 -0.6080  0.7357  0.1081
 5761TIP3    H238919   1.073   5.265   0.705  0.3882  0.3787 -0.0538
 5762TIP3   OH238920   4.979   1.694   8.994 -0.8378 -0.2056 -0.1777
 5762TIP3    H138921   5.056   1.741   8.964 -1.3469 -0.1046 -1.3791
 5762TIP3    H238922   4.931   1.758   9.047 -1.0722  0.3683 -1.0529
 5763TIP3   OH238923   4.027   4.842   0.692 -0.7803  0.4166  0.4256
 5763TIP3    H138924   4.109   4.809   0.654 -0.6311 -1.6238  2.2816
 5763TIP3    H238925   4.027   4.935   0.671  0.0776 -0.1974 -2.9574
 5764TIP3   OH238926   1.217   4.142   7.062  0.4505 -0.1649 -0.1010
 5764TIP3    H138927   1.248   4.133   6.972  1.3166 -0.2149  0.1864
 5764TIP3    H238928   1.126   4.113   7.060  0.6290 -0.6996 -0.8518
 5765TIP3   OH238929   0.894   3.603   8.849  0.4064  0.2651 -0.0936
 5765TIP3    H138930   0.930   3.645   8.927 -0.4636  1.9902 -0.5689
 5765TIP3    H238931   0.895   3.509   8.870  3.1229  0.3841  0.7026
 5766TIP3   OH238932   3.816   0.550   0.207  0.3424  0.1577 -0.3945
 5766TIP3    H138933   3.879   0.516   0.270 -0.1377 -1.4500 -0.7168
 5766TIP3    H238934   3.870   0.587   0.137  0.8877  0.5528  0.2201
 5767TIP3   OH238935   3.265   2.481   8.725 -0.0798  0.0406  0.6808
 5767TIP3    H138936   3.248   2.569   8.690 -0.5391 -0.0518  0.6654
 5767TIP3    H238937   3.359   2.480   8.741  0.2960 -0.1499 -1.2454
 5768TIP3   OH238938   4.992   6.238   7.631  0.2332 -0.2753 -0.0904
 5768TIP3    H138939   4.915   6.291   7.650 -0.4318 -0.7521 -1.2784
 5768TIP3    H238940   5.038   6.229   7.714 -0.4966  0.8086  0.4392
 5769TIP3   OH238941   3.535   6.490   0.148  0.0368  0.2212  0.2829
 5769TIP3    H138942   3.441   6.471   0.150  0.4274 -2.3194 -0.7206
 5769TIP3    H238943   3.545   6.553   0.077 -0.9142  0.5318  0.4120
 5770TIP3   OH238944   0.493   3.162   7.196 -0.5000  0.0519 -0.2211
 5770TIP3    H138945   0.570   3.179   7.250 -0.1926  4.3240 -1.5726
 5770TIP3    H238946   0.525   3.108   7.124  0.6555 -0.2409  0.4976
 5771TIP3   OH238947   1.166   0.904   7.906 -0.0785 -0.3406 -0.1207
 5771TIP3    H138948   1.125   0.847   7.840  2.6123 -0.8181 -1.4974
 5771TIP3    H238949   1.151   0.993   7.873 -1.1299 -0.4005  0.1366
 5772TIP3   OH238950   0.249   2.686   2.560  1.1702  0.9840 -0.3510
 5772TIP3    H138951   0.187   2.653   2.625  0.0355  0.2944 -1.7293
 5772TIP3    H238952   0.335   2.671   2.599  0.5561 -0.2189  0.6068
 5773TIP3   OH238953   3.640   2.180   8.933 -0.0688 -0.4881 -0.2512
 5773TIP3    H138954   3.733   2.159   8.925  0.1689 -0.4103  1.8759
 5773TIP3    H238955   3.614   2.204   8.844  2.1690  0.4322 -0.7413
 5774TIP3   OH238956   5.898   4.886   0.599  0.4044  0.4779 -0.2756
 5774TIP3    H138957   5.896   4.866   0.506  0.5296 -1.3985  0.0869
 5774TIP3    H238958   5.992   4.888   0.621  0.3736  0.8614 -0.1713
 5775TIP3   OH238959   1.445   1.090   1.030  0.2304  0.5270  0.1492
 5775TIP3    H138960   1.451   1.043   1.113  0.7765  0.9049  0.3265
 5775TIP3    H238961   1.370   1.050   0.985 -0.1088  0.3725  0.8504
 5776TIP3   OH238962   5.134   4.659   0.109  0.4946  0.1892  0.0524
 5776TIP3    H138963   5.049   4.699   0.128  1.1733  1.4045  0.6933
 5776TIP3    H238964   5.168   4.708   0.035  0.6284 -0.3247 -0.2319
 5777TIP3   OH238965   5.936   6.716   2.416  0.1839 -0.2775  0.2512
 5777TIP3    H138966   5.985   6.633   2.412  2.0560  0.7509  0.7194
 5777TIP3    H238967   5.947   6.754   2.329 -0.7232 -0.5246  0.0190
 5778TIP3   OH238968   0.768   2.449   8.488  0.0743 -0.2841  0.0598
 5778TIP3    H138969   0.696   2.469   8.547 -0.4948 -0.8287 -0.4277
 5778TIP3    H238970   0.790   2.532   8.447  0.8861  0.2183  1.4692
 5779TIP3   OH238971   4.870   1.106   8.202 -0.4925 -0.2600 -0.4335
 5779TIP3    H138972   4.900   1.032   8.254  0.0074 -1.5436 -2.4356
 5779TIP3    H238973   4.937   1.117   8.134 -1.5465  0.7251 -1.3714
 5780TIP3   OH238974   3.527   1.257   1.891 -0.4333 -0.0557 -0.6548
 5780TIP3    H138975   3.528   1.343   1.849 -0.8988  0.1591 -0.2296
 5780TIP3    H238976   3.479   1.201   1.829  1.1606 -0.3902 -1.6422
 5781TIP3   OH238977   3.041   0.547   1.604 -0.1582  0.2308  0.1657
 5781TIP3    H138978   2.948   0.566   1.591 -0.7824 -0.9467  2.4173
 5781TIP3    H238979   3.064   0.590   1.686  0.8840 -0.7441  0.4173
 5782TIP3   OH238980   6.606   4.392   1.882 -0.5732  0.2156  0.2371
 5782TIP3    H138981   6.617   4.469   1.938 -2.0006  1.4243 -1.0572
 5782TIP3    H238982   6.528   4.348   1.916 -0.2424 -0.2107  0.4566
 5783TIP3   OH238983   4.190   3.548   7.000 -0.1415 -0.0971 -0.0641
 5783TIP3    H138984   4.144   3.570   6.919  1.6563 -0.1812 -1.1846
 5783TIP3    H238985   4.239   3.468   6.978  2.5208  1.3488  0.1546
 5784TIP3   OH238986   1.834   0.323   7.808 -0.0226  0.0114 -0.0504
 5784TIP3    H138987   1.820   0.417   7.798 -0.7186 -0.2327 -1.4935
 5784TIP3    H238988   1.775   0.297   7.879 -1.5779  0.2679 -1.2138
 5785TIP3   OH238989   3.459   3.319   0.114  0.5380 -0.0979  0.1813
 5785TIP3    H138990   3.378   3.344   0.070 -0.2077  1.6561  2.3392
 5785TIP3    H238991   3.483   3.396   0.166  3.1172 -0.8974  0.3126
 5786TIP3   OH238992   0.369   3.444   0.935 -0.1425  1.0276  0.2677
 5786TIP3    H138993   0.383   3.398   1.017 -1.8327 -0.7517 -0.3724
 5786TIP3    H238994   0.456   3.447   0.894  0.4377  0.5897  1.4214
 5787TIP3   OH238995   2.223   6.646   0.953  0.2958  0.2577 -0.5540
 5787TIP3    H138996   2.227   6.697   1.034 -0.8206  2.1233 -1.5959
 5787TIP3    H238997   2.312   6.648   0.919  0.0090  2.9424 -1.3378
 5788TIP3   OH238998   4.414   2.623   0.149  0.3266  0.0413 -0.1448
 5788TIP3    H138999   4.507   2.640   0.159  0.1752 -0.0696  2.0764
 5788TIP3    H239000   4.378   2.704   0.114  0.9566  1.0060  1.3195
 5789TIP3   OH239001   6.355   5.146   0.692 -0.3799  0.4059 -0.3479
 5789TIP3    H139002   6.401   5.202   0.629  0.1329  0.0285 -0.3188
 5789TIP3    H239003   6.414   5.144   0.768 -0.7637  0.4629 -0.0454
 5790TIP3   OH239004   0.793   2.666   6.837  0.2207  0.4437 -0.0298
 5790TIP3    H139005   0.849   2.745   6.840 -0.5614  0.9815  1.1330
 5790TIP3    H239006   0.839   2.603   6.892  0.3832  0.4091 -0.2050
 5791TIP3   OH239007   0.820   0.534   8.508  0.1150  0.3140 -0.3082
 5791TIP3    H139008   0.873   0.554   8.431  0.6115 -0.2710 -0.1216
 5791TIP3    H239009   0.780   0.449   8.489 -0.3765  0.5212 -0.2400
 5792TIP3   OH239010   6.708   2.366   1.058 -0.7081  0.0957 -0.8952
 5792TIP3    H139011   6.758   2.390   1.135  1.7676 -0.9101 -2.0689
 5792TIP3    H239012   6.619   2.350   1.090  0.5935 -2.0290  2.0620
 5793TIP3   OH239013   3.394   3.337   7.832  0.1132 -0.4812  0.1422
 5793TIP3    H139014   3.321   3.277   7.816 -0.6224 -0.0435  1.6931
 5793TIP3    H239015   3.456   3.286   7.883 -0.0787 -0.2394  0.6296
 5794TIP3   OH239016   0.676   5.041   2.103  0.0612  0.5556  0.0064
 5794TIP3    H139017   0.684   5.039   2.198 -1.0546  0.6207  0.1201
 5794TIP3    H239018   0.730   5.115   2.076 -0.9231  1.5976  0.7665
 5795TIP3   OH239019   0.404   1.145   7.897 -0.0199 -0.4814 -0.2386
 5795TIP3    H139020   0.330   1.176   7.845 -0.1378 -0.1642  0.1162
 5795TIP3    H239021   0.402   1.198   7.976  0.9389 -0.0540 -0.4813
 5796TIP3   OH239022   5.371   6.377   0.253 -0.2753  0.0801 -0.3783
 5796TIP3    H139023   5.300   6.400   0.193 -0.6452 -1.5540 -0.6210
 5796TIP3    H239024   5.327   6.330   0.324  0.4077  0.2221  0.1414
 5797TIP3   OH239025   2.944   3.316   1.043 -0.6814  0.5147 -0.0320
 5797TIP3    H139026   3.034   3.348   1.038 -0.6743  0.3547 -1.0571
 5797TIP3    H239027   2.951   3.221   1.031 -1.2002  0.7748 -3.0083
 5798TIP3   OH239028   2.282   1.545   8.412 -0.2570  0.1855 -0.0587
 5798TIP3    H139029   2.239   1.583   8.336  0.3055  0.1908 -0.3754
 5798TIP3    H239030   2.371   1.581   8.411  0.1616 -0.8106 -0.1398
 5799TIP3   OH239031   3.820   1.829   0.547  0.2753  0.1038  0.0664
 5799TIP3    H139032   3.798   1.828   0.454  0.0079 -1.3347  0.1292
 5799TIP3    H239033   3.913   1.853   0.549  0.6452 -1.1994 -0.6689
 5800TIP3   OH239034   3.323   1.246   2.097 -0.4070  0.3969 -0.1424
 5800TIP3    H139035   3.406   1.246   2.050 -0.9542  0.6698 -1.1407
 5800TIP3    H239036   3.341   1.294   2.178  0.5855 -0.2028  0.0037
 5801TIP3   OH239037   1.506   1.594   8.513  0.4000  0.1799 -0.5230
 5801TIP3    H139038   1.576   1.562   8.457  0.0161  0.2571 -1.0539
 5801TIP3    H239039   1.548   1.609   8.598  0.8850 -0.3614 -0.6664
 5802TIP3   OH239040   3.267   5.864   7.163  0.0133  0.3151 -0.3231
 5802TIP3    H139041   3.270   5.886   7.070  0.3541 -0.4189 -0.4928
 5802TIP3    H239042   3.175   5.844   7.180  0.2373 -1.4546 -0.9749
 5803TIP3   OH239043   4.205   3.145   8.096  0.6069 -0.4718 -0.4957
 5803TIP3    H139044   4.220   3.207   8.024 -0.2315 -0.6106 -0.8054
 5803TIP3    H239045   4.250   3.065   8.069  0.4907 -0.4490 -0.7662
 5804TIP3   OH239046   2.198   4.965   8.321 -0.0332 -0.2925 -0.4714
 5804TIP3    H139047   2.161   5.050   8.295  0.5563  0.6198  1.4915
 5804TIP3    H239048   2.126   4.921   8.367 -0.6136 -1.2736 -2.2447
 5805TIP3   OH239049   4.182   6.206   7.591 -0.3511 -0.3345  0.3431
 5805TIP3    H139050   4.127   6.260   7.536  1.6733  0.7551 -0.7434
 5805TIP3    H239051   4.199   6.259   7.669  1.7550  0.7805 -0.7880
 5806TIP3   OH239052   2.240   6.415   1.725 -0.3790  0.0135 -0.5720
 5806TIP3    H139053   2.280   6.382   1.805  0.4141  2.5428  0.1621
 5806TIP3    H239054   2.258   6.347   1.659  1.1501 -0.9846  0.8069
 5807TIP3   OH239055   3.330   6.019   7.877 -0.6382  0.0970  0.3593
 5807TIP3    H139056   3.419   5.997   7.852 -0.2409 -0.5146  2.1227
 5807TIP3    H239057   3.318   6.109   7.847 -0.8550 -0.9987 -3.3513
 5808TIP3   OH239058   2.037   4.137   1.152 -0.0345 -0.1501 -0.3963
 5808TIP3    H139059   2.109   4.141   1.215  0.8570  1.8004 -1.4333
 5808TIP3    H239060   2.077   4.158   1.068 -1.7014  0.3703 -1.1096
 5809TIP3   OH239061   5.308   0.702   7.869 -0.6499  0.6953  0.1590
 5809TIP3    H139062   5.400   0.729   7.868 -0.3387  0.0507 -3.6913
 5809TIP3    H239063   5.311   0.607   7.867 -1.3594  0.6741 -0.1721
 5810TIP3   OH239064   3.530   6.583   1.001  0.5454  0.0833  0.3219
 5810TIP3    H139065   3.455   6.642   0.995  1.9139  1.7702 -1.5515
 5810TIP3    H239066   3.499   6.501   0.961 -0.4463  0.5682  0.0665
 5811TIP3   OH239067   4.887   4.492   1.928  0.3911  0.1928  0.3296
 5811TIP3    H139068   4.812   4.475   1.871  1.3384  1.7431 -1.4898
 5811TIP3    H239069   4.854   4.553   1.993 -0.4214 -0.7151  0.7952
 5812TIP3   OH239070   4.226   0.993   1.027 -0.4884 -0.1676  0.0649
 5812TIP3    H139071   4.179   0.916   1.060  0.2730 -0.7718 -0.2352
 5812TIP3    H239072   4.278   1.023   1.102  1.1142 -1.4422 -0.4810
 5813TIP3   OH239073   3.412   3.340   8.238 -0.2009 -0.7372  0.2055
 5813TIP3    H139074   3.423   3.255   8.196 -2.3022 -0.8883 -0.1781
 5813TIP3    H239075   3.365   3.393   8.174 -0.8937 -0.0320  1.2540
 5814TIP3   OH239076   0.727   1.074   0.247 -0.3010 -0.5715  0.2286
 5814TIP3    H139077   0.751   1.018   0.173  3.1012  1.0060 -0.0279
 5814TIP3    H239078   0.696   1.155   0.207  0.1028 -0.2706  0.5114
 5815TIP3   OH239079   4.590   6.737   8.908  0.2635 -0.1497 -0.0623
 5815TIP3    H139080   4.638   6.656   8.925  3.0236  1.1434 -1.1426
 5815TIP3    H239081   4.512   6.731   8.964  0.2991 -3.5471 -0.1980
 5816TIP3   OH239082   3.622   4.819   1.885 -0.4287  0.0650 -0.3872
 5816TIP3    H139083   3.713   4.843   1.868 -0.1899  0.1966  0.9830
 5816TIP3    H239084   3.616   4.811   1.980 -1.7383 -0.4128 -0.4845
 5817TIP3   OH239085   6.042   6.619   1.843  0.3064 -0.4382 -0.2273
 5817TIP3    H139086   6.024   6.668   1.763 -1.5386  0.7041  0.8302
 5817TIP3    H239087   6.131   6.584   1.830  0.7987  1.2900 -1.9632
 5818TIP3   OH239088   4.995   2.444   6.780 -0.1501  0.3606  0.3218
 5818TIP3    H139089   4.971   2.351   6.780  0.1714  0.2723 -0.6633
 5818TIP3    H239090   4.953   2.479   6.859 -1.4415 -0.3215 -0.0381
 5819TIP3   OH239091   4.986   5.071   1.309 -0.1243  0.3086 -0.2573
 5819TIP3    H139092   5.068   5.116   1.331 -1.1761  1.4805  1.4689
 5819TIP3    H239093   4.925   5.141   1.287 -0.7255 -0.5426 -1.4441
 5820TIP3   OH239094   5.414   1.040   8.509 -0.0304  0.0447 -0.4182
 5820TIP3    H139095   5.472   1.015   8.437 -0.6989 -0.2664 -0.8663
 5820TIP3    H239096   5.345   1.092   8.467  0.0957  0.6836  0.1530
 5821TIP3   OH239097   1.994   1.984   8.249  0.3987  0.4890 -0.6368
 5821TIP3    H139098   2.084   1.970   8.278 -0.1382  0.5445  1.2038
 5821TIP3    H239099   1.954   1.897   8.253 -0.3768  0.8898  1.4319
 5822TIP3   OH239100   0.133   5.388   0.808 -0.7617  0.3734 -0.3070
 5822TIP3    H139101   0.091   5.313   0.765  0.1243 -0.5786  0.4211
 5822TIP3    H239102   0.226   5.369   0.801 -0.5753  0.6382  1.2329
 5823TIP3   OH239103   0.665   6.447   2.034 -0.2080 -0.5442 -0.2336
 5823TIP3    H139104   0.676   6.352   2.030  2.9069 -0.2327 -3.0711
 5823TIP3    H239105   0.657   6.475   1.943 -0.1500  2.0096  0.4640
 5824TIP3   OH239106   3.475   2.211   7.077  0.4908  0.4537  0.3938
 5824TIP3    H139107   3.443   2.182   7.162 -0.9211  1.2070  0.1429
 5824TIP3    H239108   3.508   2.131   7.036 -2.8408 -0.8541 -0.0805
 5825TIP3   OH239109   5.219   1.768   1.521  0.1492 -0.0825  0.0456
 5825TIP3    H139110   5.177   1.815   1.449 -0.2417 -0.0711  0.2836
 5825TIP3    H239111   5.300   1.733   1.482  0.3121  0.5545 -0.2041
 5826TIP3   OH239112   0.766   6.472   1.351  0.0887 -0.1310  1.1776
 5826TIP3    H139113   0.686   6.453   1.401 -0.6848 -0.7394 -0.2280
 5826TIP3    H239114   0.740   6.542   1.290  1.0084  0.5971  1.5937
 5827TIP3   OH239115   5.432   1.758   1.150 -0.4743  0.0036 -0.0444
 5827TIP3    H139116   5.352   1.807   1.168 -0.1547  0.9943 -1.2159
 5827TIP3    H239117   5.474   1.749   1.235 -1.6495 -0.2437  0.5395
 5828TIP3   OH239118   5.149   1.531   0.773 -0.1866  0.4138  0.0914
 5828TIP3    H139119   5.097   1.535   0.853 -0.1531  1.8872  0.0631
 5828TIP3    H239120   5.084   1.529   0.703 -0.2974  2.8034  0.0298
 5829TIP3   OH239121   0.896   5.995   7.654  0.0124  0.0135 -0.7825
 5829TIP3    H139122   0.905   5.932   7.725 -1.2692 -1.8291 -2.1704
 5829TIP3    H239123   0.874   5.943   7.577  3.9486  1.5574 -3.2955
 5830TIP3   OH239124   1.141   1.017   2.071  0.3380 -0.2214  0.0813
 5830TIP3    H139125   1.064   0.989   2.120  0.3927 -0.1550  0.2076
 5830TIP3    H239126   1.210   1.023   2.137 -0.2214  2.5042  0.5488
 5831TIP3   OH239127   4.175   4.670   8.097  0.6315  1.0569  0.5866
 5831TIP3    H139128   4.167   4.696   8.189  0.3207  1.0249  0.5671
 5831TIP3    H239129   4.244   4.728   8.063  2.4917 -0.5311  1.4361
 5832TIP3   OH239130   0.751   2.675   7.870 -0.3490 -0.1998  0.0969
 5832TIP3    H139131   0.779   2.628   7.948 -0.1453 -0.9046 -0.3907
 5832TIP3    H239132   0.731   2.764   7.901  0.7054 -0.1767  0.7639
 5833TIP3   OH239133   3.244   3.633   0.361 -0.4341 -0.0833 -0.8251
 5833TIP3    H139134   3.317   3.574   0.339 -0.0379  0.1036 -0.0494
 5833TIP3    H239135   3.265   3.664   0.449 -1.5987 -0.2390 -0.4855
 5834TIP3   OH239136   1.857   1.359   0.269  0.4035 -0.2429 -0.0364
 5834TIP3    H139137   1.943   1.369   0.309  0.8884 -0.5386 -0.9712
 5834TIP3    H239138   1.795   1.380   0.339  1.2352  2.5144  0.0024
 5835TIP3   OH239139   4.028   5.107   0.616  0.0442 -0.4768 -0.2153
 5835TIP3    H139140   3.982   5.115   0.533  0.1333  0.0872 -0.2147
 5835TIP3    H239141   3.965   5.137   0.682  0.4560  0.4673 -0.2319
 5836TIP3   OH239142   0.403   4.277   2.056  0.1515 -0.0128 -0.1600
 5836TIP3    H139143   0.373   4.316   1.974 -1.4317 -0.9171 -0.0537
 5836TIP3    H239144   0.356   4.194   2.062  1.8992 -1.0008  0.6031
 5837TIP3   OH239145   3.064   5.489   2.696 -0.0498  0.3260  0.1223
 5837TIP3    H139146   3.049   5.438   2.617  0.7678  1.2623 -0.6608
 5837TIP3    H239147   2.997   5.458   2.758 -0.8553 -0.2392 -1.0032
 5838TIP3   OH239148   5.114   6.654   7.360 -0.2349  0.6754 -0.1295
 5838TIP3    H139149   5.089   6.564   7.380  1.9815  0.1128  0.4060
 5838TIP3    H239150   5.159   6.649   7.276  0.5247  1.1501  0.2334
 5839TIP3   OH239151   0.717   6.693   0.721 -0.3122 -0.8142  0.4421
 5839TIP3    H139152   0.632   6.697   0.765 -1.3491 -0.9734 -1.4152
 5839TIP3    H239153   0.768   6.630   0.772 -0.5061  0.8590  2.8211
 5840TIP3   OH239154   6.338   0.291   2.595 -0.1497  0.7146  0.0891
 5840TIP3    H139155   6.247   0.296   2.566  0.0248  0.3057 -0.5665
 5840TIP3    H239156   6.383   0.363   2.550  0.3057 -0.4536 -1.4302
 5841TIP3   OH239157   1.368   2.504   0.597  0.8486  0.4709  0.2025
 5841TIP3    H139158   1.282   2.481   0.561  1.2284  0.0817 -0.4693
 5841TIP3    H239159   1.388   2.590   0.560  0.3185  1.0154  1.1413
 5842TIP3   OH239160   6.222   2.486   2.076  0.0133  0.2734  0.0321
 5842TIP3    H139161   6.277   2.475   2.153 -1.3376  0.3701  1.0580
 5842TIP3    H239162   6.199   2.579   2.076  0.5067  0.4121 -0.8712
 5843TIP3   OH239163   5.980   2.368   8.787  0.0770 -0.0905  0.5971
 5843TIP3    H139164   5.976   2.311   8.864 -0.4040  0.9559  1.3772
 5843TIP3    H239165   5.975   2.457   8.823  1.1538  0.4734 -0.5554
 5844TIP3   OH239166   3.779   2.720   7.214 -0.1080  0.0198 -0.0176
 5844TIP3    H139167   3.686   2.712   7.194 -0.2152  2.1881 -0.6309
 5844TIP3    H239168   3.816   2.634   7.191 -1.5415 -0.0848 -2.2003
 5845TIP3   OH239169   5.486   4.983   2.092 -0.2614  0.1053  0.3526
 5845TIP3    H139170   5.564   5.008   2.042  0.1164 -1.2308  0.2477
 5845TIP3    H239171   5.481   4.888   2.084 -2.3867  0.2121 -0.3487
 5846TIP3   OH239172   4.307   4.973   0.917  0.1482  0.1955  0.5846
 5846TIP3    H139173   4.374   5.020   0.968  1.3216 -1.1989  0.4143
 5846TIP3    H239174   4.265   4.915   0.981  0.4996 -0.3638  0.3252
 5847TIP3   OH239175   4.262   4.606   1.005  0.7366  0.8894  0.0267
 5847TIP3    H139176   4.240   4.582   1.095 -1.0022 -0.5141 -0.7110
 5847TIP3    H239177   4.357   4.606   1.003  0.8152  0.9960  1.8646
 5848TIP3   OH239178   1.648   5.557   7.848 -0.2001 -0.3200 -0.9569
 5848TIP3    H139179   1.586   5.488   7.823 -1.7169  0.8891 -0.6506
 5848TIP3    H239180   1.611   5.637   7.810  0.6926  0.5786  0.0171
 5849TIP3   OH239181   6.713   4.634   8.009  0.1574 -0.2168 -0.3244
 5849TIP3    H139182   6.668   4.600   7.932 -0.0799 -0.2350 -0.1762
 5849TIP3    H239183   6.746   4.556   8.054  0.6729 -0.1850 -0.6364
 5850TIP3   OH239184   1.852   4.171   1.337 -0.3400  0.0370  0.1073
 5850TIP3    H139185   1.787   4.221   1.287 -0.5844 -0.6147 -0.2327
 5850TIP3    H239186   1.923   4.156   1.275 -0.6484 -0.7843 -0.0588
 5851TIP3   OH239187   5.551   0.839   1.643  0.2434  0.0943 -0.2536
 5851TIP3    H139188   5.528   0.856   1.551  0.8550 -0.7061 -0.5675
 5851TIP3    H239189   5.519   0.916   1.690 -1.0722  0.0246 -0.9747
 5852TIP3   OH239190   0.128   4.883   1.499 -0.0804 -1.1557 -0.4587
 5852TIP3    H139191   0.092   4.797   1.477 -0.0137 -1.1151 -0.7248
 5852TIP3    H239192   0.051   4.940   1.503 -0.0873 -1.1494 -0.6560
 5853TIP3   OH239193   3.258   0.890   1.212  0.3591  0.0492  0.0535
 5853TIP3    H139194   3.256   0.799   1.244  0.0643 -0.1841 -0.6011
 5853TIP3    H239195   3.248   0.943   1.291 -0.3111 -0.5128  0.3626
 5854TIP3   OH239196   1.159   1.689   8.647  0.3074 -0.0441  0.5756
 5854TIP3    H139197   1.155   1.768   8.594 -0.2573  0.0723  0.7848
 5854TIP3    H239198   1.068   1.663   8.659  0.2587  0.9754  3.0158
 5855TIP3   OH239199   3.947   1.764   7.533 -0.5324  0.2048 -0.0443
 5855TIP3    H139200   3.885   1.821   7.486  0.5023  0.5744 -1.0120
 5855TIP3    H239201   3.922   1.773   7.625 -1.9755  0.2638 -0.4159
 5856TIP3   OH239202   3.826   3.076   8.161  0.1708 -0.1594  0.3295
 5856TIP3    H139203   3.780   3.019   8.222 -0.1494 -0.8050 -0.5010
 5856TIP3    H239204   3.804   3.165   8.189  1.4789 -0.3910  2.2506
 5857TIP3   OH239205   3.577   3.066   1.927 -0.1030 -0.2762 -0.3455
 5857TIP3    H139206   3.630   2.989   1.950 -1.2104 -1.1828 -0.7461
 5857TIP3    H239207   3.586   3.073   1.832 -2.4991 -1.8740 -0.7786
 5858TIP3   OH239208   1.299   2.876   7.083 -0.3537 -0.0047  0.1081
 5858TIP3    H139209   1.317   2.782   7.085  0.4444  0.1443  0.3707
 5858TIP3    H239210   1.204   2.882   7.085 -0.4186 -0.7930  2.2191
 5859TIP3   OH239211   1.411   6.732   8.947  0.7267  0.5762 -0.1249
 5859TIP3    H139212   1.318   6.711   8.941  0.6801  0.2258  1.4785
 5859TIP3    H239213   1.453   6.679   8.879  0.0875 -1.4654  1.0066
 5860TIP3   OH239214   4.705   3.204   0.695 -0.0598 -0.2951  0.4161
 5860TIP3    H139215   4.627   3.149   0.704 -2.0990  2.2349 -0.5547
 5860TIP3    H239216   4.703   3.234   0.605  0.7989  1.5395  0.9545
 5861TIP3   OH239217   3.537   3.368   0.686 -0.3278 -0.0250 -0.5988
 5861TIP3    H139218   3.549   3.383   0.592  1.6681  0.0860 -0.3643
 5861TIP3    H239219   3.624   3.343   0.718 -0.2608  2.7045  1.7267
 5862TIP3   OH239220   3.700   3.966   7.915  0.5419  0.5755 -0.7638
 5862TIP3    H139221   3.672   4.015   7.992 -0.4782 -2.6786  1.0927
 5862TIP3    H239222   3.625   3.968   7.856  0.8556  1.9341 -1.1707
 5863TIP3   OH239223   6.627   0.317   0.149 -0.0491 -0.0768  0.2504
 5863TIP3    H139224   6.713   0.276   0.140  0.5404  1.2185 -0.3287
 5863TIP3    H239225   6.619   0.372   0.071 -0.8355  0.8239  0.9424
 5864TIP3   OH239226   3.472   6.388   8.655 -0.1626  0.3525 -0.0130
 5864TIP3    H139227   3.380   6.403   8.632  0.1264  0.0085 -1.4870
 5864TIP3    H239228   3.485   6.294   8.640  0.2336  0.2295  0.9989
 5865TIP3   OH239229   5.331   5.998   1.685  0.0365 -0.9670  0.2361
 5865TIP3    H139230   5.365   6.036   1.603  1.2748  0.3710  1.3028
 5865TIP3    H239231   5.237   5.991   1.671  0.0976  0.1856 -0.9584
 5866TIP3   OH239232   3.274   5.597   0.239 -0.4628  0.6836  0.2978
 5866TIP3    H139233   3.279   5.666   0.172 -1.6065  1.0704  0.5824
 5866TIP3    H239234   3.295   5.517   0.192  0.1134  1.1204 -0.2145
 5867TIP3   OH239235   4.125   1.601   1.874  0.1296  0.0980 -0.6812
 5867TIP3    H139236   4.125   1.696   1.880 -0.1798 -0.0024  2.0270
 5867TIP3    H239237   4.032   1.576   1.873  0.2035 -0.2020 -1.6338
 5868TIP3   OH239238   2.159   0.725   7.006  0.5045 -0.2418 -0.6492
 5868TIP3    H139239   2.149   0.782   6.930 -0.9539  0.2308 -0.1390
 5868TIP3    H239240   2.072   0.722   7.046  0.4759 -2.9553 -0.7269
 5869TIP3   OH239241   0.634   2.413   8.190  0.7312  0.3234 -0.2434
 5869TIP3    H139242   0.691   2.353   8.238 -0.1503 -0.3447  0.0068
 5869TIP3    H239243   0.614   2.367   8.109 -1.1074 -0.4044  0.5625
 5870TIP3   OH239244   3.790   6.044   9.001 -0.2800  0.1497  0.5165
 5870TIP3    H139245   3.886   6.043   9.010 -0.4606 -0.5998  3.6083
 5870TIP3    H239246   3.767   6.137   8.997  0.5784  0.3256 -1.3176
 5871TIP3   OH239247   4.258   0.366   0.455  0.2632 -0.0251 -0.2283
 5871TIP3    H139248   4.323   0.353   0.524 -0.7842 -2.7491  0.3704
 5871TIP3    H239249   4.181   0.318   0.485 -0.7213 -0.1059 -2.6640
 5872TIP3   OH239250   1.229   2.494   0.855 -0.7980  0.4351  0.5212
 5872TIP3    H139251   1.294   2.511   0.786 -0.0441 -0.6298  0.9352
 5872TIP3    H239252   1.267   2.535   0.933 -0.5380 -0.3297  0.8004
 5873TIP3   OH239253   6.145   1.167   1.897  0.6537  0.4294 -0.2181
 5873TIP3    H139254   6.198   1.210   1.830  0.2022 -1.7209 -2.0832
 5873TIP3    H239255   6.060   1.210   1.893  1.2681  1.7552  0.5380
 5874TIP3   OH239256   1.033   6.308   2.141  0.8580  0.2922  0.5067
 5874TIP3    H139257   0.997   6.222   2.165  0.3679  0.8914  2.0169
 5874TIP3    H239258   1.040   6.305   2.046 -1.0634 -0.6915  0.3459
 5875TIP3   OH239259   0.154   4.539   7.657  0.2626  0.4866 -0.4821
 5875TIP3    H139260   0.177   4.583   7.739  0.7182 -1.3883  0.4439
 5875TIP3    H239261   0.219   4.570   7.594  0.1338  1.6658 -0.0607
 5876TIP3   OH239262   6.671   2.011   7.623 -0.1251 -0.0267  0.5429
 5876TIP3    H139263   6.695   1.927   7.584  1.4713  0.0980  1.1501
 5876TIP3    H239264   6.581   1.999   7.654 -1.2246 -0.3441 -2.4530
 5877TIP3   OH239265   0.905   1.451   0.272  0.1247  0.2600 -0.1518
 5877TIP3    H139266   0.906   1.546   0.284  0.9089  0.0743  1.5291
 5877TIP3    H239267   0.872   1.416   0.355  0.5021 -0.9557 -0.4948
 5878TIP3   OH239268   2.240   6.777   1.197 -0.6784  0.2983 -1.0555
 5878TIP3    H139269   2.300   6.851   1.200 -1.8433  1.2425  0.7798
 5878TIP3    H239270   2.261   6.725   1.274 -1.1261 -0.2672 -1.3054
 5879TIP3   OH239271   6.356   1.015   7.909  0.5085 -0.1061  0.2014
 5879TIP3    H139272   6.338   1.104   7.878  1.3626  0.6157  1.7069
 5879TIP3    H239273   6.385   1.026   7.999  0.7289 -1.9146  0.3828
 5880TIP3   OH239274   0.379   1.104   8.433  0.9082  0.0126  0.1540
 5880TIP3    H139275   0.440   1.040   8.394  1.2106  0.0648  0.5360
 5880TIP3    H239276   0.436   1.166   8.478  0.6115  0.5333 -0.1863
 5881TIP3   OH239277   2.517   0.726   0.405 -0.1428  0.8913  0.1163
 5881TIP3    H139278   2.434   0.685   0.428 -0.5692  1.7510  0.1832
 5881TIP3    H239279   2.498   0.773   0.324  0.4029  0.7210 -0.1100
 5882TIP3   OH239280   5.896   0.158   0.678  0.1662  0.5448  0.2811
 5882TIP3    H139281   5.916   0.245   0.644 -0.2075  1.6585  2.7013
 5882TIP3    H239282   5.899   0.101   0.601  0.1035  2.7248 -1.4391
 5883TIP3   OH239283   1.978   3.327   1.148 -0.3187 -0.6002 -0.3240
 5883TIP3    H139284   2.018   3.360   1.067 -0.6812 -0.6939 -0.5427
 5883TIP3    H239285   1.885   3.344   1.137 -0.4042 -0.8905 -0.0521
 5884TIP3   OH239286   5.519   0.481   6.791  0.4975  0.2918 -0.2951
 5884TIP3    H139287   5.510   0.555   6.731  1.1180  0.2052 -0.5031
 5884TIP3    H239288   5.434   0.475   6.834  0.4855  1.2452 -0.1476
 5885TIP3   OH239289   3.179   4.330   2.711  0.9566 -0.3667  1.0390
 5885TIP3    H139290   3.257   4.282   2.739  2.4314 -0.0774 -2.0361
 5885TIP3    H239291   3.115   4.262   2.691  1.2109 -0.7439  1.4825
 5886TIP3   OH239292   1.652   3.081   8.997 -0.5843 -0.0800  0.3530
 5886TIP3    H139293   1.610   3.082   9.083  0.7228 -1.1925  1.0274
 5886TIP3    H239294   1.727   3.023   9.006 -1.1204 -1.2560 -1.8871
 5887TIP3   OH239295   2.423   2.289   0.651  0.1949  0.6110  0.1526
 5887TIP3    H139296   2.329   2.277   0.643  0.2227 -0.4271  1.1232
 5887TIP3    H239297   2.434   2.379   0.682 -0.5285  0.4607  0.8739
 5888TIP3   OH239298   5.704   4.602   0.775 -0.2697 -0.1892  0.2682
 5888TIP3    H139299   5.625   4.589   0.827 -0.4711 -0.0241  0.0090
 5888TIP3    H239300   5.673   4.644   0.694  0.1506  0.4167  0.4096
 5889TIP3   OH239301   5.894   4.071   0.523 -0.0587  0.3447  0.3913
 5889TIP3    H139302   5.936   4.157   0.518  0.0103  0.2583 -1.1665
 5889TIP3    H239303   5.823   4.075   0.459 -0.7053 -0.4236  1.0408
 5890TIP3   OH239304   0.993   1.489   1.060 -0.0710  0.0326 -0.5657
 5890TIP3    H139305   0.915   1.531   1.097  0.2250 -0.2010  0.3305
 5890TIP3    H239306   0.999   1.526   0.972 -1.1384  0.1272 -0.6178
 5891TIP3   OH239307   4.215   0.005   0.269  0.3029  0.4027 -0.5517
 5891TIP3    H139308   4.242   0.075   0.327  0.0245  0.5266 -0.5727
 5891TIP3    H239309   4.156  -0.049   0.322  1.1862 -0.3058 -0.2578
 5892TIP3   OH239310   2.504   1.646   2.742  0.0438  0.1850 -0.7731
 5892TIP3    H139311   2.429   1.596   2.709  0.0042  0.1849 -0.6817
 5892TIP3    H239312   2.471   1.691   2.819  0.0797  0.3557 -0.8586
 5893TIP3   OH239313   1.066   5.148   0.552 -0.1495 -0.4500  0.5936
 5893TIP3    H139314   1.097   5.113   0.469 -2.5555 -1.3038 -0.0279
 5893TIP3    H239315   1.065   5.072   0.611 -1.5184 -0.5723  0.4326
 5894TIP3   OH239316   4.947   3.974   0.284  0.4529  0.4417 -0.5595
 5894TIP3    H139317   5.028   3.959   0.236  0.3386 -2.2151 -0.0489
 5894TIP3    H239318   4.944   3.903   0.348 -1.0084  1.9940  1.1997
 5895TIP3   OH239319   2.737   4.688   7.704  0.1054 -0.4758  0.1322
 5895TIP3    H139320   2.777   4.770   7.734  0.7936 -1.7787  3.1543
 5895TIP3    H239321   2.811   4.630   7.688 -0.4116 -0.8806 -0.8927
 5896TIP3   OH239322   1.475   4.817   1.310  0.3138 -0.0409 -0.1043
 5896TIP3    H139323   1.414   4.888   1.333 -1.5066 -1.4206 -0.4124
 5896TIP3    H239324   1.457   4.749   1.376  2.0843 -0.2184  0.2383
 5897TIP3   OH239325   4.090   5.378   1.636  0.3780  0.4513  0.2675
 5897TIP3    H139326   4.069   5.461   1.678 -1.6907 -0.3433  0.9460
 5897TIP3    H239327   4.164   5.343   1.687 -0.2312  0.8253  1.4293
 5898TIP3   OH239328   1.944   1.981   2.318 -0.0293  0.1046 -0.0338
 5898TIP3    H139329   2.007   1.996   2.388  1.0612 -0.6341 -0.8325
 5898TIP3    H239330   1.966   2.046   2.252  2.0438 -2.1606 -1.7159
 5899TIP3   OH239331   2.343   4.302   0.224  0.3504 -0.3631  0.0818
 5899TIP3    H139332   2.269   4.345   0.181 -1.3945 -0.9599  2.2765
 5899TIP3    H239333   2.319   4.209   0.224  1.0418 -0.5528  0.9163
 5900TIP3   OH239334   3.341   6.599   1.295  0.4956 -0.1082  0.0258
 5900TIP3    H139335   3.391   6.628   1.370 -0.9235 -0.0176  0.9782
 5900TIP3    H239336   3.321   6.507   1.313  0.9671 -0.3629 -0.7088
 5901TIP3   OH239337   3.363   1.438   1.240 -0.1792 -0.3336  0.0255
 5901TIP3    H139338   3.388   1.477   1.156  0.0483 -1.1570 -0.2978
 5901TIP3    H239339   3.271   1.414   1.228 -0.8116  1.5116  0.7716
 5902TIP3   OH239340   1.571   1.811   8.991 -0.1633 -0.0784 -0.0564
 5902TIP3    H139341   1.619   1.886   8.956 -3.6968  2.7295  0.5967
 5902TIP3    H239342   1.605   1.801   9.080  0.7609  0.3261 -0.3446
 5903TIP3   OH239343   5.845   2.238   8.571  0.0453 -0.1035  0.1078
 5903TIP3    H139344   5.894   2.293   8.633 -1.0446  0.3356  0.6089
 5903TIP3    H239345   5.778   2.296   8.536 -0.0513 -0.6619 -0.6498
 5904TIP3   OH239346   5.221   5.829   0.067  0.2931 -0.2026  0.8389
 5904TIP3    H139347   5.302   5.871   0.094  0.3431 -0.5145  1.1763
 5904TIP3    H239348   5.237   5.735   0.077 -0.3765 -0.2408  1.6903
 5905TIP3   OH239349   0.267   3.945   2.715 -0.2897 -0.1081 -0.1632
 5905TIP3    H139350   0.201   3.953   2.783 -0.7484 -0.1407 -0.5971
 5905TIP3    H239351   0.336   4.007   2.740 -0.7337  0.3170  0.0081
 5906TIP3   OH239352   6.556   1.532   7.853 -0.5650 -0.1763  0.0105
 5906TIP3    H139353   6.610   1.455   7.836 -1.9427 -1.3343  0.6332
 5906TIP3    H239354   6.569   1.550   7.946  0.4392  0.9278 -0.3195
 5907TIP3   OH239355   5.572   6.653   8.970  0.7972 -0.0483  0.0784
 5907TIP3    H139356   5.656   6.662   8.925  0.3381 -0.2951 -0.8469
 5907TIP3    H239357   5.530   6.579   8.928  0.6633 -0.7761  1.4425
 5908TIP3   OH239358   0.771   0.405   0.541  0.0512  0.5817  0.4231
 5908TIP3    H139359   0.832   0.402   0.615  1.1507  0.5460 -0.4652
 5908TIP3    H239360   0.729   0.490   0.548 -0.3457  0.3152  1.4666
 5909TIP3   OH239361   3.417   0.870   1.855  0.0635 -0.6308 -0.0501
 5909TIP3    H139362   3.455   0.797   1.807 -0.2485 -0.3076 -0.8029
 5909TIP3    H239363   3.479   0.887   1.926  2.0752  0.7352 -1.9724
 5910TIP3   OH239364   3.958   6.132   2.778 -0.3496  0.4440 -0.0503
 5910TIP3    H139365   3.943   6.118   2.685 -0.2785 -0.5706  0.0827
 5910TIP3    H239366   3.996   6.220   2.783 -0.2313  0.4549 -0.9853
 5911TIP3   OH239367   1.914   1.389   2.277  0.1820  0.1168 -0.3212
 5911TIP3    H139368   1.856   1.397   2.201 -0.3137  0.1106  0.0498
 5911TIP3    H239369   1.854   1.374   2.351  0.3679  3.3232  0.6314
 5912TIP3   OH239370   3.987   0.291   0.490 -0.2381 -0.2802 -0.3364
 5912TIP3    H139371   3.913   0.340   0.527  0.0601  0.6503 -0.9562
 5912TIP3    H239372   3.947   0.211   0.455 -1.0950  0.5522 -1.3433
 5913TIP3   OH239373   1.952   1.555   1.225 -0.3517 -0.4393  0.1754
 5913TIP3    H139374   2.035   1.531   1.184 -0.0709  0.7750  0.0032
 5913TIP3    H239375   1.890   1.489   1.193  0.8869 -2.4798  1.7632
 5914TIP3   OH239376   3.190   1.112   3.022 -0.2463 -0.2139  0.9223
 5914TIP3    H139377   3.206   1.204   3.045  0.4377 -0.6627  2.3728
 5914TIP3    H239378   3.223   1.103   2.933 -1.5477  1.2550  0.2477
 5915TIP3   OH239379   6.504   3.582   8.602  0.7597  0.0418  0.3126
 5915TIP3    H139380   6.439   3.575   8.672  1.3658  1.0675  1.0107
 5915TIP3    H239381   6.558   3.503   8.611  1.4875  0.6655  1.7089
 5916TIP3   OH239382   5.750   0.570   1.424 -0.0271  0.5181  0.2584
 5916TIP3    H139383   5.820   0.581   1.489 -0.5420 -2.2873  1.4151
 5916TIP3    H239384   5.675   0.540   1.475 -0.5726 -1.3864 -1.5452
 5917TIP3   OH239385   4.058   2.382   1.673 -0.1312 -0.4900 -0.8189
 5917TIP3    H139386   4.004   2.311   1.638 -0.5756 -0.5201 -0.0882
 5917TIP3    H239387   4.076   2.356   1.763 -2.1395  1.3456  0.2056
 5918TIP3   OH239388   5.690   6.326   8.355 -0.0991  0.3312 -0.7829
 5918TIP3    H139389   5.701   6.420   8.372  2.2233  0.4759 -2.5061
 5918TIP3    H239390   5.665   6.289   8.440 -1.8355  2.5697 -0.2274
 5919TIP3   OH239391   3.248   0.447   8.941  0.0185  0.1665  0.3050
 5919TIP3    H139392   3.299   0.528   8.949  0.5821 -0.1277 -0.1330
 5919TIP3    H239393   3.315   0.378   8.936 -0.4653 -0.3924  1.3071
 5920TIP3   OH239394   0.830   3.936   0.972 -0.8527 -0.2287 -0.3775
 5920TIP3    H139395   0.799   4.026   0.983  1.4157  0.3882  1.8537
 5920TIP3    H239396   0.770   3.883   1.026  1.7461  0.9967  4.2425
 5921TIP3   OH239397   4.863   5.115   1.969 -0.1834 -0.1166  0.2038
 5921TIP3    H139398   4.790   5.115   1.907  0.6657  1.2389 -0.8485
 5921TIP3    H239399   4.941   5.111   1.914  0.5715 -0.1310  1.2512
 5922TIP3   OH239400   1.616   1.085   8.022  0.0240  0.1324 -0.1631
 5922TIP3    H139401   1.559   1.116   8.092  0.8200  1.6210 -0.1325
 5922TIP3    H239402   1.678   1.026   8.065 -1.3436 -1.4148 -0.1778
 5923TIP3   OH239403   6.194   1.401   2.133  0.2455 -0.0715  0.3416
 5923TIP3    H139404   6.154   1.488   2.146 -1.5498 -0.9287  0.8838
 5923TIP3    H239405   6.120   1.340   2.137  1.1303 -1.4718 -2.4544
 5924TIP3   OH239406   5.672   5.931   8.315 -0.2186  0.4353 -0.3301
 5924TIP3    H139407   5.657   5.987   8.391 -1.2198 -1.2994  0.8012
 5924TIP3    H239408   5.750   5.880   8.337  0.2553  0.8275 -1.0476
 5925TIP3   OH239409   3.701   4.867   0.049  0.6590 -0.5634 -0.7506
 5925TIP3    H139410   3.697   4.786   0.100  1.2168  1.6508  3.3030
 5925TIP3    H239411   3.793   4.875   0.025  0.4481 -1.4936 -1.9283
 5926TIP3   OH239412   1.490   5.089   7.110  0.0145 -0.1643 -0.1872
 5926TIP3    H139413   1.512   5.011   7.059 -0.4262 -0.9187  0.7569
 5926TIP3    H239414   1.419   5.061   7.168 -1.4106  1.4070 -1.0740
 5927TIP3   OH239415   0.304   2.862   1.336 -0.0176  0.1898 -0.0036
 5927TIP3    H139416   0.338   2.817   1.414  0.1427  0.2312 -0.0498
 5927TIP3    H239417   0.308   2.796   1.267  1.4918  0.6699 -0.3978
 5928TIP3   OH239418   1.671   2.081   7.259  0.1078  0.8508  0.0424
 5928TIP3    H139419   1.608   2.008   7.259  1.6158 -0.5259 -0.8569
 5928TIP3    H239420   1.617   2.159   7.250 -1.4387 -0.3538 -2.2374
 5929TIP3   OH239421   5.963   3.330   0.696  0.2616  0.3517 -0.1906
 5929TIP3    H139422   5.948   3.331   0.601 -2.2896  1.2713  0.1464
 5929TIP3    H239423   6.025   3.401   0.712 -0.7855  1.4758 -0.9928
 5930TIP3   OH239424   3.606   3.345   1.564  0.6220 -0.1833  0.8767
 5930TIP3    H139425   3.640   3.261   1.595  0.3234 -1.4145 -1.8465
 5930TIP3    H239426   3.513   3.328   1.546  0.0628  1.3235  2.1016
 5931TIP3   OH239427   2.384   2.659   7.613 -0.2109  0.0884 -0.0696
 5931TIP3    H139428   2.416   2.730   7.557  0.9566 -0.6921 -0.4171
 5931TIP3    H239429   2.334   2.603   7.554  1.7711 -1.2238 -0.5957
 5932TIP3   OH239430   5.420   5.524   0.826  0.4784  0.0206  0.1428
 5932TIP3    H139431   5.503   5.477   0.828  0.6105  0.2190 -0.4201
 5932TIP3    H239432   5.442   5.614   0.851  0.8463  0.6397 -2.1920
 5933TIP3   OH239433   1.957   5.106   2.116  0.0039 -0.2610 -0.4430
 5933TIP3    H139434   2.024   5.049   2.155 -1.9921 -3.0722 -0.7944
 5933TIP3    H239435   1.885   5.105   2.179 -0.2419  1.7006 -0.6331
 5934TIP3   OH239436   0.266   6.597   2.447  0.4104  0.1795 -0.1707
 5934TIP3    H139437   0.174   6.600   2.420  0.5518  1.0818 -0.6104
 5934TIP3    H239438   0.314   6.635   2.373  1.2300 -1.0385 -0.2912
 5935TIP3   OH239439   0.919   6.251   8.077  0.5395 -0.2128 -0.0926
 5935TIP3    H139440   0.985   6.209   8.023 -0.4516  1.0177 -2.3882
 5935TIP3    H239441   0.840   6.199   8.062  0.2464  0.1574  0.1529
 5936TIP3   OH239442   0.107   0.038   1.151 -0.5268 -0.8591 -0.2034
 5936TIP3    H139443   0.196   0.040   1.117  0.4241 -2.3848  1.9647
 5936TIP3    H239444   0.058   0.100   1.096  2.0127  0.5567 -1.0064
 5937TIP3   OH239445   2.438   4.875   7.317 -0.1278 -0.4363  0.0144
 5937TIP3    H139446   2.526   4.880   7.280 -0.2930  0.8172 -0.2594
 5937TIP3    H239447   2.429   4.785   7.346  0.3989 -1.1992 -2.0533
 5938TIP3   OH239448   4.608   0.946   2.919  0.0171  0.3128  0.6564
 5938TIP3    H139449   4.525   0.923   2.878 -0.1438  0.0508  1.1189
 5938TIP3    H239450   4.674   0.899   2.868 -0.1296  0.4189  0.3681
 5939TIP3   OH239451   3.032   6.342   2.615 -0.2557 -0.0375 -0.4069
 5939TIP3    H139452   2.952   6.291   2.627  0.5559 -1.6846 -1.5898
 5939TIP3    H239453   3.096   6.279   2.580  2.3965  0.5194  2.8755
 5940TIP3   OH239454   1.625   0.661   0.551 -0.6521  0.0886 -0.5728
 5940TIP3    H139455   1.628   0.610   0.470 -0.1494 -2.0098  0.7014
 5940TIP3    H239456   1.647   0.599   0.620  0.5686  2.1721  1.0461
 5941TIP3   OH239457   0.667   2.496   6.659 -0.0273 -0.5257  0.3448
 5941TIP3    H139458   0.692   2.568   6.717 -2.8770 -0.2841  1.4567
 5941TIP3    H239459   0.675   2.533   6.571 -1.7347  1.3758  0.9005
 5942TIP3   OH239460   6.596   0.010   8.057 -0.0574  0.3967  0.0030
 5942TIP3    H139461   6.618   0.008   7.964 -0.1961  1.4744 -0.0710
 5942TIP3    H239462   6.631  -0.071   8.092  1.5827  0.7972 -0.6448
 5943TIP3   OH239463   3.975   6.757   1.412 -0.2523  0.2990  0.3370
 5943TIP3    H139464   4.057   6.771   1.365 -0.5364 -1.4312 -0.7745
 5943TIP3    H239465   3.988   6.675   1.459 -0.9953  0.5405  0.9811
 5944TIP3   OH239466   2.536   0.045   6.654 -0.3633 -0.1597  0.1931
 5944TIP3    H139467   2.483  -0.034   6.656 -1.2699  0.4163  3.1267
 5944TIP3    H239468   2.548   0.069   6.745  2.7328  1.2696 -0.4557
 5945TIP3   OH239469   2.858   4.954   2.311 -0.0077  0.3748 -0.1694
 5945TIP3    H139470   2.783   4.997   2.351  0.4255  1.8883 -0.8705
 5945TIP3    H239471   2.929   5.019   2.317  0.6562 -0.1998 -1.3737
 5946TIP3   OH239472   0.509   2.021   8.839 -0.6027  0.0147 -0.4843
 5946TIP3    H139473   0.415   2.036   8.844 -0.4447  1.0485 -0.2906
 5946TIP3    H239474   0.530   2.031   8.746 -0.2092  3.2297 -0.1693
 5947TIP3   OH239475   1.783   0.327   2.179 -0.4089 -0.3674 -0.5471
 5947TIP3    H139476   1.839   0.351   2.253  1.4880 -0.5820 -1.8547
 5947TIP3    H239477   1.694   0.341   2.211  0.2880 -1.3423  2.0944
 5948TIP3   OH239478   6.554   4.772   7.697  0.1355 -0.2920 -0.0567
 5948TIP3    H139479   6.531   4.769   7.604  0.8323 -0.7274 -0.2332
 5948TIP3    H239480   6.569   4.680   7.720 -0.3279 -0.2162  0.5700
 5949TIP3   OH239481   4.070   0.245   1.709 -0.0095 -0.2663  0.3493
 5949TIP3    H139482   4.065   0.174   1.645  1.2207 -2.0830  2.1231
 5949TIP3    H239483   4.020   0.212   1.784 -0.0021  1.0685  0.9639
 5950TIP3   OH239484   1.573   3.382   2.244  0.1882 -0.7501  0.1768
 5950TIP3    H139485   1.566   3.351   2.334 -0.4942 -0.3234  0.2800
 5950TIP3    H239486   1.665   3.404   2.233 -0.1574  1.8667  1.6872
 5951TIP3   OH239487   0.480   4.145   7.248  0.3808 -0.3654 -0.3530
 5951TIP3    H139488   0.461   4.238   7.262 -0.4220 -0.4822 -0.6151
 5951TIP3    H239489   0.538   4.145   7.172  1.7426  0.0195  0.6588
 5952TIP3   OH239490   2.831   2.507   1.647 -0.0209  0.0297  0.4063
 5952TIP3    H139491   2.919   2.482   1.674 -0.0086 -1.4550 -0.8873
 5952TIP3    H239492   2.840   2.532   1.555 -0.6898  1.5083  0.7003
 5953TIP3   OH239493   2.735   2.966   1.124 -0.7933 -0.5651  0.1386
 5953TIP3    H139494   2.711   3.026   1.053 -0.1153  2.0586  1.9508
 5953TIP3    H239495   2.662   2.970   1.185  0.2983  0.4190  1.4402
 5954TIP3   OH239496   0.339   3.419   1.447  0.3215 -0.7467  0.4777
 5954TIP3    H139497   0.359   3.449   1.535 -1.3774 -0.6239  0.8497
 5954TIP3    H239498   0.265   3.359   1.458 -1.2232  0.7728 -1.0187
 5955TIP3   OH239499   5.197   2.284   2.008  0.2709  0.4683  0.4334
 5955TIP3    H139500   5.153   2.251   2.087  1.5702  0.5810  1.2419
 5955TIP3    H239501   5.272   2.226   1.996  1.2623  1.6918  0.5108
 5956TIP3   OH239502   2.180   0.253   7.434  0.3539  0.6926  0.4281
 5956TIP3    H139503   2.120   0.296   7.494  0.1195  1.1475 -0.1189
 5956TIP3    H239504   2.266   0.263   7.475  0.3156  1.7720  0.2712
 5957TIP3   OH239505   3.995   4.388   8.355  0.2288  0.1201 -0.3213
 5957TIP3    H139506   3.905   4.382   8.388  1.0393 -2.0369  1.7693
 5957TIP3    H239507   3.990   4.354   8.266 -0.8768 -1.1139  0.1772
 5958TIP3   OH239508   4.094   3.488   7.576  0.1122  0.1877 -0.1500
 5958TIP3    H139509   4.077   3.492   7.671  0.5021  0.3334 -0.0840
 5958TIP3    H239510   4.028   3.427   7.543  0.0849 -0.0029  0.2427
 5959TIP3   OH239511   6.438   0.177   1.222  0.4401  0.0056 -0.6319
 5959TIP3    H139512   6.425   0.263   1.182 -1.2319 -0.2264 -0.6504
 5959TIP3    H239513   6.515   0.142   1.177  0.6475  1.1365 -1.2187
 5960TIP3   OH239514   5.967   4.248   0.148 -0.3035 -0.0940  0.1772
 5960TIP3    H139515   5.912   4.178   0.184  0.5555 -0.4057  0.9202
 5960TIP3    H239516   5.964   4.236   0.054 -1.3347 -0.2355  0.2190
 5961TIP3   OH239517   4.626   5.461   1.167 -0.2360  0.4331 -0.0077
 5961TIP3    H139518   4.549   5.516   1.153  0.0924  0.6079 -1.3554
 5961TIP3    H239519   4.606   5.380   1.120 -0.0114  0.0814  0.4962
 5962TIP3   OH239520   1.267   4.861   8.552  0.2604 -0.0691  0.3676
 5962TIP3    H139521   1.284   4.868   8.646  0.4031  1.8394  0.2348
 5962TIP3    H239522   1.318   4.785   8.524  2.8988  1.2224  1.2871
 5963TIP3   OH239523   5.488   1.960   8.055 -0.2154 -0.6793  0.2616
 5963TIP3    H139524   5.572   1.934   8.093  0.2862 -0.7142 -0.8439
 5963TIP3    H239525   5.511   2.019   7.984 -1.2556  1.3708  1.5293
 5964TIP3   OH239526   3.877   1.110   8.431  0.3797 -0.1519  0.2905
 5964TIP3    H139527   3.830   1.041   8.476 -1.1152 -0.2377 -1.2898
 5964TIP3    H239528   3.948   1.065   8.385 -1.4166 -0.9388 -1.8751
 5965TIP3   OH239529   3.190   2.542   7.883  0.1719  0.0945  0.2331
 5965TIP3    H139530   3.270   2.490   7.887 -0.1838 -0.3898  1.9852
 5965TIP3    H239531   3.180   2.565   7.791  2.4769  0.4196  0.0235
 5966TIP3   OH239532   3.795   0.283   7.676 -0.2987 -0.3726 -0.6462
 5966TIP3    H139533   3.889   0.284   7.694 -0.3817  3.4962  0.4770
 5966TIP3    H239534   3.787   0.329   7.592 -1.2654  0.3699 -0.1541
 5967TIP3   OH239535   5.578   6.143   8.527  0.6062  0.6210 -0.5187
 5967TIP3    H139536   5.489   6.152   8.561  0.7919  2.1151 -0.3687
 5967TIP3    H239537   5.619   6.078   8.584 -0.8362 -1.3345 -1.5893
 5968TIP3   OH239538   1.436   4.801   1.755 -0.5072 -0.5628 -0.1413
 5968TIP3    H139539   1.522   4.829   1.787 -0.7062 -0.5410  0.3866
 5968TIP3    H239540   1.374   4.858   1.801 -0.7721 -0.0788 -1.0696
 5969TIP3   OH239541   1.959   3.572   7.551  0.0017  0.5584  0.3504
 5969TIP3    H139542   1.921   3.590   7.465  1.0873  1.2745 -0.0087
 5969TIP3    H239543   1.984   3.659   7.585  0.3862  0.2066  0.9983
 5970TIP3   OH239544   0.387   6.226   1.414 -0.3937  0.3793 -0.7660
 5970TIP3    H139545   0.414   6.216   1.323 -0.1339 -0.4252 -0.6061
 5970TIP3    H239546   0.296   6.196   1.416 -0.4403  0.5184 -0.7823
 5971TIP3   OH239547   2.040   1.363   1.791 -0.2634  0.5699  0.5292
 5971TIP3    H139548   2.069   1.278   1.824 -1.1584  0.3831  0.8439
 5971TIP3    H239549   1.998   1.343   1.707 -0.4644  0.7044  0.5978
 5972TIP3   OH239550   3.019   1.776   2.482 -0.0594 -0.2473 -0.1931
 5972TIP3    H139551   3.112   1.759   2.494  0.1068  0.8624  0.2237
 5972TIP3    H239552   2.976   1.695   2.508  0.7738 -0.6902 -0.1585
 5973TIP3   OH239553   5.961   6.613   8.597  0.3312 -0.2307 -0.1683
 5973TIP3    H139554   6.032   6.550   8.613 -0.0714 -0.5288  0.4969
 5973TIP3    H239555   5.981   6.687   8.655  0.6622  0.1559 -0.7577
 5974TIP3   OH239556   3.309   5.765   0.022 -0.1676 -0.5209 -0.1958
 5974TIP3    H139557   3.358   5.847   0.019 -0.8765 -0.0969 -2.2108
 5974TIP3    H239558   3.221   5.789  -0.008 -1.6101 -1.3029  2.9930
 5975TIP3   OH239559   6.275   0.769   8.536  0.2509  0.1792  0.0867
 5975TIP3    H139560   6.220   0.760   8.458 -0.5682  2.5933  0.3219
 5975TIP3    H239561   6.276   0.862   8.555  1.1570 -0.2424  2.4842
 5976TIP3   OH239562   5.480   0.582   0.771 -0.0749 -0.6871 -0.1274
 5976TIP3    H139563   5.419   0.529   0.720  1.4964 -3.1251  0.3225
 5976TIP3    H239564   5.427   0.623   0.839 -1.5938 -0.4738 -1.3952
 5977TIP3   OH239565   1.171   3.610   7.850  0.2781  0.3269 -0.3036
 5977TIP3    H139566   1.233   3.536   7.851  1.1395  0.9760 -1.5903
 5977TIP3    H239567   1.115   3.596   7.925  2.2916 -0.0642  1.2145
 5978TIP3   OH239568   0.126   1.094   1.509  0.4939 -0.4260 -0.1756
 5978TIP3    H139569   0.210   1.053   1.528  1.5363  1.5725 -0.1971
 5978TIP3    H239570   0.061   1.035   1.546  1.9458 -1.5923  0.6002
 5979TIP3   OH239571   4.087   4.211   1.822  0.0482  0.4026 -0.1458
 5979TIP3    H139572   4.041   4.211   1.738 -1.9989  0.6912  0.8851
 5979TIP3    H239573   4.143   4.133   1.819 -1.8856 -1.0548 -0.8448
 5980TIP3   OH239574   2.345   4.730   8.266 -0.1335 -0.3254  0.2099
 5980TIP3    H139575   2.434   4.756   8.289 -0.9020  1.9221  0.9076
 5980TIP3    H239576   2.291   4.807   8.285 -2.2664 -1.6487 -0.0718
 5981TIP3   OH239577   6.470   0.700   0.357 -0.1884  0.8743 -0.0607
 5981TIP3    H139578   6.532   0.629   0.373 -1.6406 -0.7518 -1.1902
 5981TIP3    H239579   6.423   0.709   0.440 -0.9457 -0.5211 -0.3053
 5982TIP3   OH239580   4.399   3.351   1.776 -0.5720  0.1842  0.3436
 5982TIP3    H139581   4.466   3.312   1.719  1.2371  0.0633  2.4062
 5982TIP3    H239582   4.316   3.324   1.737  0.5743 -0.9072 -1.5178
 5983TIP3   OH239583   2.592   6.030   7.921 -0.2599  0.2824 -0.1045
 5983TIP3    H139584   2.528   6.056   7.986  2.0404  1.9703  1.6557
 5983TIP3    H239585   2.560   6.069   7.839 -0.5743  2.7303  1.0923
 5984TIP3   OH239586   6.066   3.159   0.068 -0.3334 -0.2144 -0.1550
 5984TIP3    H139587   5.984   3.168   0.020 -1.1428 -1.7927  0.8614
 5984TIP3    H239588   6.103   3.077   0.037 -0.3447 -0.7226  1.1317
 5985TIP3   OH239589   6.720   1.259   8.237 -0.1951  0.8398  0.5754
 5985TIP3    H139590   6.643   1.244   8.292 -0.9524 -0.0973 -0.6984
 5985TIP3    H239591   6.779   1.187   8.258 -0.0622  1.0272  0.8562
 5986TIP3   OH239592   5.090   1.389   2.583 -0.2200  0.3400  0.2176
 5986TIP3    H139593   5.182   1.412   2.571  0.1070 -0.2080  1.5528
 5986TIP3    H239594   5.047   1.422   2.504  1.0536  0.9276 -0.2582
 5987TIP3   OH239595   0.398   3.542   1.684  0.1026  0.1064 -0.0454
 5987TIP3    H139596   0.493   3.533   1.690  0.1200  1.1160  1.8672
 5987TIP3    H239597   0.383   3.637   1.689 -1.0584 -0.1090  0.9158
 5988TIP3   OH239598   1.729   1.335   2.459 -0.0385  0.2162 -0.1340
 5988TIP3    H139599   1.699   1.363   2.545 -0.3469  3.8861 -1.2717
 5988TIP3    H239600   1.656   1.282   2.425 -0.3012 -0.4881  1.4436
 5989TIP3   OH239601   2.220   0.363   2.140 -0.0185  0.1508 -0.5875
 5989TIP3    H139602   2.173   0.421   2.200  1.3903 -0.2464  0.9722
 5989TIP3    H239603   2.261   0.422   2.077 -0.2951  0.7042 -0.2589
 5990TIP3   OH239604   6.714   4.362   1.026  0.2840  0.7160  0.5999
 5990TIP3    H139605   6.731   4.269   1.045 -0.0397  0.6996  0.8164
 5990TIP3    H239606   6.790   4.408   1.062  0.1794  0.5866  0.9901
 5991TIP3   OH239607   4.758   1.348   1.655  0.1689 -0.0638 -0.0640
 5991TIP3    H139608   4.780   1.267   1.703 -0.1634 -0.1365 -0.0301
 5991TIP3    H239609   4.818   1.349   1.581  0.9205  0.2195  0.5400
 5992TIP3   OH239610   5.513   2.078   1.423  0.6441  0.0555  0.0404
 5992TIP3    H139611   5.505   2.144   1.492  1.1184  0.0961  0.0600
 5992TIP3    H239612   5.593   2.102   1.376  0.4899 -0.1505 -0.3357
 5993TIP3   OH239613   2.854   4.967   2.764 -0.0994 -0.3465  0.0764
 5993TIP3    H139614   2.943   4.989   2.790  0.3191  0.6034 -2.0158
 5993TIP3    H239615   2.845   4.874   2.788  2.2398 -1.1069 -1.5757
 5994TIP3   OH239616   3.512   3.022   1.653  0.1183 -0.4251 -0.2495
 5994TIP3    H139617   3.442   3.075   1.616 -0.7713 -0.7368  0.9174
 5994TIP3    H239618   3.569   3.002   1.579 -0.8463  0.1183 -1.1600
 5995TIP3   OH239619   3.531   5.239   7.305 -0.0792 -0.0061  0.3740
 5995TIP3    H139620   3.532   5.253   7.211  1.4258  1.5642  0.5707
 5995TIP3    H239621   3.470   5.306   7.339 -0.9428 -0.8374  0.5042
 5996TIP3   OH239622   3.706   0.779   0.350 -0.3594 -0.2486 -0.3118
 5996TIP3    H139623   3.782   0.837   0.350  0.7578 -1.6437 -0.2316
 5996TIP3    H239624   3.729   0.710   0.287 -1.7264 -0.4938 -0.5712
 5997TIP3   OH239625   0.563   0.569   0.513  0.2825  0.4228 -0.6976
 5997TIP3    H139626   0.517   0.489   0.490  0.0159  0.2860  0.2879
 5997TIP3    H239627   0.499   0.639   0.497  0.0490  0.3156 -0.2513
 5998TIP3   OH239628   4.402   0.573   1.922  0.2961  0.0516  0.0341
 5998TIP3    H139629   4.321   0.521   1.926 -0.0064  0.2784 -2.1532
 5998TIP3    H239630   4.443   0.558   2.007 -1.5739 -0.8248  0.8602
 5999TIP3   OH239631   5.878   0.008   7.147 -0.0893  0.0905  0.1661
 5999TIP3    H139632   5.926   0.066   7.088  0.9370 -0.6435  0.2728
 5999TIP3    H239633   5.826   0.067   7.201  0.0997  0.8488 -0.4585
 6000TIP3   OH239634   4.890   5.460   0.559 -0.0007  0.4036  0.1245
 6000TIP3    H139635   4.980   5.469   0.589 -0.1167  0.3087  0.5111
 6000TIP3    H239636   4.882   5.524   0.488  0.4087  0.3122 -0.0087
 6001TIP3   OH239637   2.957   4.866   7.401 -0.7069  0.0752 -0.1824
 6001TIP3    H139638   3.003   4.782   7.389 -1.1624 -0.2370  0.2197
 6001TIP3    H239639   2.864   4.844   7.392 -0.8358  0.5193  0.0269
 6002TIP3   OH239640   3.854   1.200   8.813  0.3133 -0.1328 -0.5669
 6002TIP3    H139641   3.883   1.121   8.859  1.8762  0.4184 -0.5552
 6002TIP3    H239642   3.816   1.255   8.882  1.0731 -0.0368 -0.2190
 6003TIP3   OH239643   4.188   4.269   8.711 -0.0231 -0.3238 -0.3422
 6003TIP3    H139644   4.283   4.271   8.709  0.0878  0.2870  2.0258
 6003TIP3    H239645   4.163   4.221   8.633  2.2527 -1.2912 -0.5473
 6004TIP3   OH239646   4.482   4.287   8.808  0.1357 -0.3101 -0.0631
 6004TIP3    H139647   4.494   4.369   8.856  1.1093 -0.4126 -0.1169
 6004TIP3    H239648   4.565   4.239   8.820 -0.2995 -1.1477 -0.2929
 6005TIP3   OH239649   6.289   5.546   7.178  0.3626 -0.0227  0.2763
 6005TIP3    H139650   6.297   5.603   7.101 -0.3891  0.9476  0.8895
 6005TIP3    H239651   6.197   5.521   7.180  0.4248 -0.2288  0.7259
 6006TIP3   OH239652   2.972   2.592   0.684 -0.8235 -0.1437 -0.2224
 6006TIP3    H139653   2.933   2.679   0.682 -3.0637 -1.0579  0.4550
 6006TIP3    H239654   2.900   2.533   0.659  0.2363 -1.9001  0.6565
 6007TIP3   OH239655   0.488   0.217   0.722 -0.6027  0.0516  0.4034
 6007TIP3    H139656   0.535   0.250   0.799 -0.1700  1.9075 -0.5852
 6007TIP3    H239657   0.396   0.234   0.742 -0.5547 -0.1324  0.7952
 6008TIP3   OH239658   4.719   6.488   7.176 -0.5429 -0.0700  0.0189
 6008TIP3    H139659   4.640   6.522   7.133  0.8927  0.6915 -2.1782
 6008TIP3    H239660   4.739   6.554   7.243 -1.8151 -0.3439  0.7003
 6009TIP3   OH239661   1.009   3.612   8.056  0.1164 -0.2757  0.5303
 6009TIP3    H139662   0.916   3.608   8.036 -0.0703  0.4410  1.1943
 6009TIP3    H239663   1.023   3.702   8.088  0.8124 -0.7113  1.4999
 6010TIP3   OH239664   4.224   6.138   1.362  0.0132  0.3810  0.3077
 6010TIP3    H139665   4.314   6.121   1.333  0.3660  0.9005  1.0586
 6010TIP3    H239666   4.184   6.184   1.289  0.5736  0.7551  0.2278
 6011TIP3   OH239667   4.419   2.341   7.422  0.5373 -0.0978 -0.3370
 6011TIP3    H139668   4.445   2.432   7.408  1.0291 -0.5143 -2.4157
 6011TIP3    H239669   4.462   2.317   7.505 -0.7777  1.9330  1.0199
 6012TIP3   OH239670   0.413   2.850   0.619  0.1608  0.2413  0.6271
 6012TIP3    H139671   0.421   2.931   0.568  2.0300  1.0481  2.0641
 6012TIP3    H239672   0.446   2.781   0.562  1.8388  1.0631  0.5558
 6013TIP3   OH239673   0.389   5.228   0.160  0.3124 -0.6998 -0.2420
 6013TIP3    H139674   0.419   5.143   0.194 -0.8020 -0.0126  2.7484
 6013TIP3    H239675   0.294   5.225   0.168  0.2804  0.9453  0.2723
 6014TIP3   OH239676   5.077   0.064   0.487 -0.4627 -0.0927  0.1246
 6014TIP3    H139677   5.083   0.156   0.461  2.1491 -0.3803 -0.5733
 6014TIP3    H239678   5.078   0.015   0.404 -1.1400 -0.7826  0.5108
 6015TIP3   OH239679   5.527   1.499   0.243 -0.1143 -0.3203 -0.7073
 6015TIP3    H139680   5.548   1.590   0.222  2.3695 -0.6000  0.1532
 6015TIP3    H239681   5.502   1.460   0.160 -1.3032  1.1497 -1.0784
 6016TIP3   OH239682   4.323   2.361   7.731  0.1302  0.3486  0.2970
 6016TIP3    H139683   4.258   2.290   7.724  2.0833 -1.4170 -1.5724
 6016TIP3    H239684   4.399   2.319   7.770  0.8972  1.7775  0.3889
 6017TIP3   OH239685   3.284   4.336   1.756  0.0719  0.4102 -0.7312
 6017TIP3    H139686   3.362   4.287   1.780  0.9597  0.0643 -3.8781
 6017TIP3    H239687   3.216   4.268   1.744  0.3301  0.2835 -1.5726
 6018TIP3   OH239688   0.881   5.422   7.396 -0.1927  0.2590 -0.3413
 6018TIP3    H139689   0.962   5.400   7.442 -2.3429 -0.5523  3.5347
 6018TIP3    H239690   0.860   5.511   7.426 -2.4023 -0.8377  1.6582
 6019TIP3   OH239691   4.428   6.278   2.051  0.2168  0.2059 -0.1224
 6019TIP3    H139692   4.360   6.311   2.110  1.0706  0.3231  0.8254
 6019TIP3    H239693   4.495   6.243   2.110  0.5676 -0.7306 -1.0614
 6020TIP3   OH239694   1.183   5.993   7.728 -0.1699  0.4871  0.1645
 6020TIP3    H139695   1.093   5.988   7.695 -0.3903  0.8911  0.6874
 6020TIP3    H239696   1.236   5.952   7.660 -0.7808  0.0149 -0.0347
 6021TIP3   OH239697   1.221   0.498   8.840  0.4100 -0.0705 -0.1222
 6021TIP3    H139698   1.161   0.426   8.857  0.0773  0.1711 -0.2575
 6021TIP3    H239699   1.190   0.536   8.757 -1.9420  2.7111  1.8046
 6022TIP3   OH239700   0.729   3.971   1.556  0.0887 -0.2927 -0.0677
 6022TIP3    H139701   0.752   3.937   1.469 -0.5014 -2.7709  0.6728
 6022TIP3    H239702   0.743   3.898   1.615 -1.3622  0.7543  1.6725
 6023TIP3   OH239703   5.553   0.371   8.191  0.0238  0.0211 -0.1786
 6023TIP3    H139704   5.590   0.311   8.255 -1.1312  0.4470  0.9210
 6023TIP3    H239705   5.526   0.314   8.119 -0.5582 -0.7252  0.6110
 6024TIP3   OH239706   5.311   6.752   7.942 -0.4367 -0.2045  0.1204
 6024TIP3    H139707   5.320   6.723   8.033 -0.0643 -1.0684 -0.1834
 6024TIP3    H239708   5.382   6.708   7.896 -0.2412  0.7249 -0.4813
 6025TIP3   OH239709   1.709   1.185   1.485 -0.5390  0.4045 -0.6227
 6025TIP3    H139710   1.625   1.227   1.468 -1.1201 -0.3515  0.3183
 6025TIP3    H239711   1.771   1.258   1.494 -1.2320  0.9974 -0.6000
 6026TIP3   OH239712   3.475   4.288   8.087  0.1803  0.4798  0.7489
 6026TIP3    H139713   3.523   4.247   8.015 -2.3362 -0.6262 -0.3933
 6026TIP3    H239714   3.453   4.375   8.054  0.8088  0.7554  1.0329
 6027TIP3   OH239715   3.673   1.263   0.957  0.2544  0.0261 -0.3445
 6027TIP3    H139716   3.624   1.183   0.939 -0.0326  0.3006 -0.7977
 6027TIP3    H239717   3.758   1.232   0.988  1.0360 -0.4942 -2.8194
 6028TIP3   OH239718   1.416   3.744   8.633 -0.5311  0.1492 -0.5189
 6028TIP3    H139719   1.330   3.752   8.593 -0.4292  2.9116 -0.3880
 6028TIP3    H239720   1.465   3.687   8.573 -2.3685 -1.3514 -0.6606
 6029TIP3   OH239721   3.430   3.756   7.931 -0.1872 -0.1616  1.0392
 6029TIP3    H139722   3.363   3.771   7.998 -1.6489 -0.6501 -0.2574
 6029TIP3    H239723   3.386   3.775   7.848  0.2384 -3.6332 -0.1522
 6030TIP3   OH239724   6.490   0.932   0.204  0.0725 -0.4578 -0.2898
 6030TIP3    H139725   6.493   0.895   0.292  0.1227  0.8090  0.2730
 6030TIP3    H239726   6.405   0.976   0.199  1.2929  2.2243  0.3641
 6031TIP3   OH239727   5.077   5.623   8.058  0.5559  0.0049  0.5834
 6031TIP3    H139728   5.003   5.660   8.107 -0.4221  0.0846 -0.8778
 6031TIP3    H239729   5.122   5.567   8.121 -1.3491 -0.8480  1.2648
 6032TIP3   OH239730   1.299   1.304   2.274  0.5967 -0.6706  0.1335
 6032TIP3    H139731   1.222   1.248   2.265 -0.1372  0.4837 -1.2977
 6032TIP3    H239732   1.272   1.373   2.334  0.6258 -0.4486 -0.1083
 6033TIP3   OH239733   5.739   5.884   8.651  0.1595  0.5149 -0.2928
 6033TIP3    H139734   5.685   5.858   8.726  1.2305  0.8923  0.6401
 6033TIP3    H239735   5.824   5.845   8.668  0.2519  0.0728 -1.6579
 6034TIP3   OH239736   2.713   2.804   1.612 -0.6646  0.3600 -0.6629
 6034TIP3    H139737   2.799   2.844   1.624 -1.0328  0.7110  1.0397
 6034TIP3    H239738   2.725   2.714   1.643 -0.0704 -0.6838 -3.6362
 6035TIP3   OH239739   1.260   1.607   1.240  0.1528 -0.3770  0.0167
 6035TIP3    H139740   1.230   1.645   1.157 -0.5772  0.0405  0.4641
 6035TIP3    H239741   1.355   1.619   1.239 -0.1047  2.3105  0.5277
 6036TIP3   OH239742   4.771   4.176   0.141  0.2189  0.1047 -0.1747
 6036TIP3    H139743   4.784   4.205   0.051 -0.2046 -1.9361 -0.9583
 6036TIP3    H239744   4.845   4.117   0.158 -0.8803 -1.2947 -0.0333
 6037TIP3   OH239745   5.771   4.925   1.474 -0.5154 -0.1809  0.1894
 6037TIP3    H139746   5.729   4.888   1.396  0.8215 -1.5086  0.0546
 6037TIP3    H239747   5.800   5.012   1.446  0.0146 -0.6677 -0.8312
 6038TIP3   OH239748   0.518   4.460   2.217  0.4348  0.2607  0.3204
 6038TIP3    H139749   0.455   4.400   2.175  0.4151  0.5087 -0.0137
 6038TIP3    H239750   0.598   4.408   2.227 -0.5133 -0.8385  2.9756
 6039TIP3   OH239751   5.366   0.731   8.682 -0.2760 -0.2314 -0.2329
 6039TIP3    H139752   5.447   0.753   8.636  0.9800 -1.8177  1.0714
 6039TIP3    H239753   5.393   0.725   8.774 -2.0615 -0.0155  0.3314
 6040TIP3   OH239754   2.236   6.775   8.773 -0.2054 -0.1361 -0.2164
 6040TIP3    H139755   2.229   6.727   8.691 -1.3300  2.6475 -1.8936
 6040TIP3    H239756   2.204   6.863   8.752  1.2960  1.2556  2.7232
 6041TIP3   OH239757   2.119   4.069   0.874  0.0005 -0.5650 -0.3050
 6041TIP3    H139758   2.117   4.044   0.781 -0.8768  0.4555 -0.5714
 6041TIP3    H239759   2.154   3.991   0.918  2.9640 -0.1755 -1.7440
 6042TIP3   OH239760   1.077   1.719   9.002 -0.1918  0.3704 -0.7181
 6042TIP3    H139761   1.070   1.733   9.097 -1.1908  0.4245 -0.7919
 6042TIP3    H239762   1.115   1.632   8.994  0.2657  0.5222 -0.2669
 6043TIP3   OH239763   6.489   1.741   8.984  0.1076  0.1138 -0.4705
 6043TIP3    H139764   6.566   1.775   8.939  1.0870  0.1793  1.1664
 6043TIP3    H239765   6.431   1.816   8.992  1.5980  1.1732  1.7389
 6044TIP3   OH239766   1.817   0.573   1.002  0.0512  0.1506 -0.2169
 6044TIP3    H139767   1.785   0.640   1.063 -2.6470 -0.6046 -0.6500
 6044TIP3    H239768   1.837   0.497   1.057  0.1406  0.3174 -0.0194
 6045TIP3   OH239769   2.644   4.545   0.470  0.1923  0.5673  0.2950
 6045TIP3    H139770   2.593   4.576   0.395  0.4183  1.6613  0.5799
 6045TIP3    H239771   2.715   4.609   0.479  0.8546 -0.2074  0.7205
 6046TIP3   OH239772   1.269   4.275   1.590  0.2619 -0.6629  0.1013
 6046TIP3    H139773   1.328   4.244   1.522  0.7366 -0.7094  0.5289
 6046TIP3    H239774   1.244   4.363   1.561 -3.0451 -2.1830 -2.3938
 6047TIP3   OH239775   6.778   3.524   6.714  0.3116  0.2704  0.1784
 6047TIP3    H139776   6.731   3.589   6.766 -0.0991  0.1884 -0.0822
 6047TIP3    H239777   6.753   3.440   6.754  1.3326  0.2991  0.9093
 6048TIP3   OH239778   3.674   6.539   1.840 -0.4927  0.5310  0.1555
 6048TIP3    H139779   3.690   6.632   1.826  2.1282  0.3137  1.0712
 6048TIP3    H239780   3.587   6.534   1.879 -0.9129  2.5241 -0.4550
 6049TIP3   OH239781   5.632   2.912   2.300  0.4602 -0.1612  0.2370
 6049TIP3    H139782   5.616   2.820   2.281  3.2845 -0.5316 -0.7759
 6049TIP3    H239783   5.561   2.959   2.255  1.4052 -1.6188 -3.0249
 6050TIP3   OH239784   2.126   5.343   7.510 -0.1561 -0.5580 -0.1658
 6050TIP3    H139785   2.205   5.396   7.497  0.3080 -0.6796  1.8621
 6050TIP3    H239786   2.069   5.398   7.565 -0.7929 -1.1223 -0.2466
 6051TIP3   OH239787   0.090   3.348   8.198  0.1416 -0.2898  0.6653
 6051TIP3    H139788   0.129   3.292   8.265  0.9493  1.0474  1.3707
 6051TIP3    H239789   0.144   3.427   8.200 -1.0898  0.5914 -0.1293
 6052TIP3   OH239790   0.402   0.447   8.389 -0.4994  0.0246 -0.0267
 6052TIP3    H139791   0.486   0.403   8.396 -1.2401 -1.5973 -0.7633
 6052TIP3    H239792   0.351   0.413   8.463 -0.8483  0.1898 -0.1897
 6053TIP3   OH239793   6.228   3.695   1.020  0.2978 -0.3461  0.1375
 6053TIP3    H139794   6.175   3.738   0.954 -0.0446 -1.7283 -0.5364
 6053TIP3    H239795   6.248   3.763   1.084 -2.8130  0.1037  0.7835
 6054TIP3   OH239796   1.434   5.523   2.683  0.6893  0.0501  0.4501
 6054TIP3    H139797   1.389   5.441   2.704  0.3560  0.0258 -0.3171
 6054TIP3    H239798   1.446   5.521   2.588  1.2400  0.6074  0.4965
 6055TIP3   OH239799   1.876   5.973   7.978  0.0137 -0.3263 -0.1490
 6055TIP3    H139800   1.799   5.996   8.031  1.1056  0.2147  1.2691
 6055TIP3    H239801   1.853   5.889   7.939 -1.7878  0.3970 -0.7745
 6056TIP3   OH239802   5.706   6.023   2.036  0.0660 -0.1090 -0.6083
 6056TIP3    H139803   5.774   6.052   2.096 -1.4961  2.1515  0.1998
 6056TIP3    H239804   5.661   5.952   2.084  1.1298 -0.8586 -0.6955
 6057TIP3   OH239805   2.417   4.464   1.632 -0.2416 -0.2423  0.7488
 6057TIP3    H139806   2.359   4.455   1.556 -0.6610  0.1257  1.0126
 6057TIP3    H239807   2.491   4.406   1.614  0.4350  0.9899 -0.6603
 6058TIP3   OH239808   3.542   1.438   8.795 -0.5783 -0.8109  0.1615
 6058TIP3    H139809   3.566   1.426   8.887 -0.5959  1.4861  0.5161
 6058TIP3    H239810   3.624   1.459   8.751 -0.8463  0.0531  0.0504
 6059TIP3   OH239811   4.245   0.296   0.775 -0.2548  0.0343 -0.0491
 6059TIP3    H139812   4.185   0.359   0.736 -0.0830  0.4210  0.3002
 6059TIP3    H239813   4.233   0.307   0.870  0.3967  0.1551  0.0274
 6060TIP3   OH239814   4.593   0.371   0.321  0.0798  0.3682  0.4605
 6060TIP3    H139815   4.657   0.326   0.266 -0.8916 -0.2795 -0.1631
 6060TIP3    H239816   4.545   0.428   0.261 -1.9781 -1.4164  0.2629
 6061TIP3   OH239817   0.490   2.087   8.056 -0.5911  0.1797 -0.3875
 6061TIP3    H139818   0.441   2.066   7.977 -0.7602  2.2804 -0.9021
 6061TIP3    H239819   0.547   2.160   8.031 -1.8766  2.0867  1.7686
 6062TIP3   OH239820   4.675   3.508   1.759  0.1489  0.1014  0.1911
 6062TIP3    H139821   4.725   3.565   1.817 -0.6395  1.6933 -0.6272
 6062TIP3    H239822   4.597   3.486   1.810 -2.2742  4.2890 -1.2397
 6063TIP3   OH239823   5.729   6.192   0.609 -0.3746  0.0599 -0.1591
 6063TIP3    H139824   5.751   6.277   0.571  0.6452  0.6987  1.7645
 6063TIP3    H239825   5.639   6.175   0.579 -0.5125  1.6933 -0.7621
 6064TIP3   OH239826   4.563   2.909   1.669  0.5149 -0.1964  0.6542
 6064TIP3    H139827   4.634   2.914   1.733 -0.0625 -0.3236  1.3216
 6064TIP3    H239828   4.489   2.953   1.712 -0.5921 -2.3354  1.0452
 6065TIP3   OH239829   3.781   6.225   1.919 -0.3915 -0.0263 -0.1813
 6065TIP3    H139830   3.865   6.262   1.892  0.0001 -0.3120  0.6148
 6065TIP3    H239831   3.752   6.282   1.990 -0.0388 -0.9164  0.6946
 6066TIP3   OH239832   1.324   4.980   7.739 -0.0490 -0.1848 -0.0788
 6066TIP3    H139833   1.339   4.937   7.824  0.4085  0.4435  0.1701
 6066TIP3    H239834   1.230   4.992   7.734  0.0506  1.3670  1.1570
 6067TIP3   OH239835   4.527   1.251   7.940  0.5944  0.7331  0.4630
 6067TIP3    H139836   4.534   1.211   8.027 -1.8845  1.1831  0.9168
 6067TIP3    H239837   4.581   1.330   7.946  0.1755  0.9431  1.7064
 6068TIP3   OH239838   0.668   4.133   7.029 -0.2193 -0.1121  0.0350
 6068TIP3    H139839   0.625   4.067   6.973 -2.4845  0.6488  0.7414
 6068TIP3    H239840   0.724   4.182   6.969 -1.1535 -0.4921 -1.2115
 6069TIP3   OH239841   3.925   0.422   8.927 -0.5468  0.6134  0.0714
 6069TIP3    H139842   4.008   0.411   8.974 -0.7057  0.9418  0.4317
 6069TIP3    H239843   3.938   0.500   8.874 -1.1205  1.5281  1.2297
 6070TIP3   OH239844   1.155   6.687   8.332 -0.1482 -0.3167 -0.5320
 6070TIP3    H139845   1.176   6.781   8.323  0.0088 -0.1681  1.1007
 6070TIP3    H239846   1.076   6.675   8.278 -0.9617  1.0581  0.2862
 6071TIP3   OH239847   4.088   3.114   0.921 -0.1936  0.4009  0.1456
 6071TIP3    H139848   4.113   3.193   0.970 -0.6948  0.6672 -0.0158
 6071TIP3    H239849   4.151   3.048   0.948  0.1309  0.8139  0.4139
 6072TIP3   OH239850   4.405   1.124   7.679  0.6940 -0.3282  0.3493
 6072TIP3    H139851   4.401   1.208   7.635 -2.6108  0.1022  1.1803
 6072TIP3    H239852   4.463   1.139   7.754 -0.1182  1.3509  0.6892
 6073TIP3   OH239853   6.489   3.662   1.664  0.6822  0.1384  0.1978
 6073TIP3    H139854   6.404   3.691   1.698  1.1744  0.3849  1.2573
 6073TIP3    H239855   6.528   3.612   1.736  2.3429  1.8439  0.5547
 6074TIP3   OH239856   3.666   2.836   0.293 -0.5135 -0.5234 -0.5578
 6074TIP3    H139857   3.581   2.874   0.270 -0.1546  0.0738 -0.9119
 6074TIP3    H239858   3.662   2.826   0.388 -0.2783  1.2535 -0.3283
 6075TIP3   OH239859   0.067   5.048   8.533 -0.1435 -0.4873 -0.1963
 6075TIP3    H139860   0.125   5.123   8.517 -0.5367  0.0018  0.6312
 6075TIP3    H239861  -0.015   5.071   8.490 -0.3548 -0.3222  0.2971
 6076TIP3   OH239862   4.303   0.253   1.043 -0.2551 -0.4930  0.3221
 6076TIP3    H139863   4.383   0.217   1.081  0.8223  1.8479  0.3978
 6076TIP3    H239864   4.311   0.347   1.054 -3.3170 -0.1829  0.9014
 6077TIP3   OH239865   6.267   4.981   8.535  0.3228  0.1258 -0.1055
 6077TIP3    H139866   6.279   5.073   8.511  0.0522  0.8458  2.2511
 6077TIP3    H239867   6.293   4.977   8.627  0.3829 -2.1904 -0.1747
 6078TIP3   OH239868   3.540   4.523   0.411 -0.5673 -0.0785  0.4441
 6078TIP3    H139869   3.586   4.533   0.495 -0.8662  1.2687  0.4747
 6078TIP3    H239870   3.452   4.558   0.428 -0.6015  0.2890 -0.4553
 6079TIP3   OH239871   4.494   4.686   7.631  0.1949 -0.4142 -0.5504
 6079TIP3    H139872   4.551   4.763   7.627 -1.9082  1.3068  0.1957
 6079TIP3    H239873   4.497   4.649   7.543  3.1273 -0.9876 -0.2978
 6080TIP3   OH239874   3.198   0.118   1.762  0.1024  0.7198 -0.1582
 6080TIP3    H139875   3.175   0.147   1.674 -1.3379  0.0195 -0.0460
 6080TIP3    H239876   3.114   0.100   1.804  0.8101 -2.1016  0.2511
 6081TIP3   OH239877   4.868   3.816   0.014 -0.0964  0.2838  0.0704
 6081TIP3    H139878   4.937   3.876  -0.014 -0.1460  0.1257 -0.4053
 6081TIP3    H239879   4.789   3.871   0.015 -1.1652 -0.6006 -4.9323
 6082TIP3   OH239880   1.972   3.020   8.364 -0.0234 -0.3041 -0.1097
 6082TIP3    H139881   1.898   2.987   8.415  0.3812  1.8803  2.0483
 6082TIP3    H239882   1.932   3.063   8.288 -0.7792 -1.2521 -0.2755
 6083TIP3   OH239883   1.011   2.097   2.316 -0.5344  0.2289 -0.4058
 6083TIP3    H139884   1.102   2.127   2.311  0.1302 -1.0965  2.1051
 6083TIP3    H239885   1.000   2.041   2.239  0.7216  0.5192 -0.8194
 6084TIP3   OH239886   6.244   0.163   0.287 -0.4783 -0.4450  0.7509
 6084TIP3    H139887   6.155   0.196   0.281 -0.2669 -0.0617 -0.3619
 6084TIP3    H239888   6.235   0.068   0.283 -0.8673 -0.4249  1.1256
 6085TIP3   OH239889   4.834   4.723   0.211 -0.0951  0.2614 -0.2937
 6085TIP3    H139890   4.777   4.799   0.221 -0.9395 -0.4091  0.0488
 6085TIP3    H239891   4.787   4.651   0.252  1.2070 -0.2225  0.4355
 6086TIP3   OH239892   4.433   2.425   2.376  0.0822 -0.0044 -0.1492
 6086TIP3    H139893   4.384   2.462   2.303 -1.5528  1.2181  1.4488
 6086TIP3    H239894   4.375   2.437   2.452  2.2265  0.0516  1.5924
 6087TIP3   OH239895   3.366   3.191   1.474  0.3156  0.0132  0.2236
 6087TIP3    H139896   3.286   3.214   1.521  0.5326 -0.7479  0.9866
 6087TIP3    H239897   3.340   3.192   1.382 -0.6074 -0.3336  0.4658
 6088TIP3   OH239898   2.120   5.778   0.427  0.0571 -0.2823  0.1468
 6088TIP3    H139899   2.212   5.801   0.417  0.1637 -0.5250  0.6046
 6088TIP3    H239900   2.090   5.760   0.337  0.7724 -1.4578  0.1318
 6089TIP3   OH239901   1.770   5.847   8.411 -0.3054  0.4216 -0.2093
 6089TIP3    H139902   1.697   5.908   8.410 -0.0518  0.8462  2.0971
 6089TIP3    H239903   1.840   5.893   8.458  0.7150 -0.7593 -0.4956
 6090TIP3   OH239904   4.316   1.169   0.343 -0.4278  0.3741 -0.1758
 6090TIP3    H139905   4.334   1.076   0.333 -0.0994  0.4511 -0.3154
 6090TIP3    H239906   4.241   1.173   0.403  1.2229  0.1295  2.0089
 6091TIP3   OH239907   3.401   2.382   7.856 -0.4909 -0.2077 -0.6010
 6091TIP3    H139908   3.391   2.294   7.820 -1.6551 -0.0870 -0.6097
 6091TIP3    H239909   3.443   2.432   7.786 -0.5819 -0.5555 -0.9048
 6092TIP3   OH239910   6.176   5.426   0.862  0.1440 -0.2521 -0.2453
 6092TIP3    H139911   6.267   5.402   0.849  0.6105  1.5521 -0.6355
 6092TIP3    H239912   6.172   5.519   0.838 -1.7079 -0.1816  0.1618
 6093TIP3   OH239913   1.104   6.691   6.977  0.6867  0.3452  0.2572
 6093TIP3    H139914   1.175   6.755   6.973  1.0403  0.0382  1.2270
 6093TIP3    H239915   1.082   6.686   7.070 -0.2117  0.0070  0.0317
 6094TIP3   OH239916   1.610   0.762   8.852 -0.3197  0.2144 -0.0894
 6094TIP3    H139917   1.654   0.727   8.929 -1.1808 -0.5663  0.0722
 6094TIP3    H239918   1.525   0.791   8.885 -0.4090  0.5641 -0.6183
 6095TIP3   OH239919   1.925   1.759   0.254 -0.0606 -0.9345 -0.3172
 6095TIP3    H139920   2.010   1.717   0.236  0.1267 -0.2289 -1.1665
 6095TIP3    H239921   1.944   1.852   0.251 -0.2744 -0.7291  2.4745
 6096TIP3   OH239922   6.764   3.998   0.298  0.2301 -0.6021 -0.0535
 6096TIP3    H139923   6.729   3.943   0.228 -2.8026  0.6257  0.3211
 6096TIP3    H239924   6.819   4.062   0.253 -1.4219 -0.0167 -1.3508
 6097TIP3   OH239925   4.825   0.968   0.461 -0.4198  0.4359 -0.2695
 6097TIP3    H139926   4.841   0.874   0.454 -2.7693  0.1344 -3.6002
 6097TIP3    H239927   4.906   1.008   0.428 -0.2786 -0.5054 -1.1260
 6098TIP3   OH239928   4.709   3.813   1.933 -0.1434 -0.1073 -0.0473
 6098TIP3    H139929   4.771   3.749   1.900  0.2966 -0.1421  0.8039
 6098TIP3    H239930   4.716   3.806   2.029 -1.3233  0.0115  0.0709
 6099TIP3   OH239931   6.248   5.356   6.523 -0.1827 -0.7549 -0.0769
 6099TIP3    H139932   6.252   5.281   6.463  1.6142  0.4161 -1.5174
 6099TIP3    H239933   6.254   5.432   6.466  1.0432  0.4402  1.5700
 6100TIP3   OH239934   6.459   0.073   0.485  0.1258  0.1026  0.7067
 6100TIP3    H139935   6.488   0.060   0.395  3.1008 -0.0996  1.5813
 6100TIP3    H239936   6.417   0.159   0.486 -1.1773 -0.4548 -1.0692
 6101TIP3   OH239937   2.269   4.156   7.378  0.5585 -0.2880 -0.2689
 6101TIP3    H139938   2.320   4.189   7.452 -1.9508  1.2073  0.9174
 6101TIP3    H239939   2.282   4.220   7.309  1.1996 -0.5467 -0.3946
 6102TIP3   OH239940   6.481   1.264   0.413  0.0231 -0.2652 -0.7686
 6102TIP3    H139941   6.434   1.256   0.330  0.1567 -2.4819 -0.6995
 6102TIP3    H239942   6.480   1.175   0.449  0.4586  0.5342  1.3471
 6103TIP3   OH239943   3.896   2.379   8.034  0.1271 -0.0144  0.4314
 6103TIP3    H139944   3.875   2.464   8.071  1.3694 -0.5874  2.6361
 6103TIP3    H239945   3.953   2.398   7.960 -1.0169  1.1114 -0.2002
 6104TIP3   OH239946   4.480   2.555   6.550 -0.3085 -0.2098  0.2752
 6104TIP3    H139947   4.434   2.492   6.494 -0.0273  0.6906 -1.0412
 6104TIP3    H239948   4.487   2.634   6.495  2.4530 -0.1822  0.5192
 6105TIP3   OH239949   6.390   0.676   7.369 -0.0569 -0.0765  0.3804
 6105TIP3    H139950   6.335   0.598   7.373 -0.9208  0.5285  0.3851
 6105TIP3    H239951   6.347   0.733   7.306  1.3636 -0.1958 -0.7451
 6106TIP3   OH239952   3.592   5.279   7.927  0.1680 -0.5677  0.2884
 6106TIP3    H139953   3.537   5.357   7.937 -1.8718 -1.9506  0.3307
 6106TIP3    H239954   3.657   5.304   7.861 -2.4718  0.1483 -2.2028
 6107TIP3   OH239955   2.103   2.537   1.548  0.0501  0.6703  0.4807
 6107TIP3    H139956   2.162   2.602   1.512  0.6295 -0.3447 -0.4783
 6107TIP3    H239957   2.090   2.563   1.639  1.4619  1.2734  0.5301
 6108TIP3   OH239958   5.887   3.464   8.962 -0.7670  0.5707  0.3202
 6108TIP3    H139959   5.903   3.549   8.921 -0.8237 -0.3393 -1.6778
 6108TIP3    H239960   5.834   3.416   8.899 -1.9009 -0.5058  1.9942
 6109TIP3   OH239961   0.087   3.030   1.359  0.8766 -0.2042 -0.0650
 6109TIP3    H139962   0.170   2.982   1.357  0.7501 -0.4549  0.4768
 6109TIP3    H239963   0.027   2.978   1.306  1.1163  0.0785 -0.6178
 6110TIP3   OH239964   2.302   5.184   8.765  0.2209  0.1007 -0.1885
 6110TIP3    H139965   2.220   5.167   8.812  0.3171  0.1728  0.0100
 6110TIP3    H239966   2.369   5.147   8.822  0.3512  0.3064 -0.2095
 6111TIP3   OH239967   3.126   1.012   2.102  0.0500 -0.1959  0.0960
 6111TIP3    H139968   3.057   1.077   2.087  0.2210  0.4687  1.9048
 6111TIP3    H239969   3.201   1.063   2.132  0.6269 -1.1134  0.2516
 6112TIP3   OH239970   1.041   3.255   8.539 -0.0625  0.1884 -0.1029
 6112TIP3    H139971   1.123   3.271   8.493  0.5375 -2.9161 -0.3805
 6112TIP3    H239972   0.973   3.285   8.479  0.8189  1.7445 -0.3686
 6113TIP3   OH239973   6.013   0.250   0.173  0.3892 -0.5425  0.3479
 6113TIP3    H139974   5.928   0.207   0.159 -0.3324  1.3084 -1.4756
 6113TIP3    H239975   5.991   0.332   0.216  1.3223 -0.2329  0.2534
 6114TIP3   OH239976   3.758   6.651   0.801  0.4870 -0.4110 -0.4284
 6114TIP3    H139977   3.689   6.649   0.867  1.4155  0.0122  0.5882
 6114TIP3    H239978   3.753   6.566   0.759 -0.1483 -0.6782  0.1607
 6115TIP3   OH239979   0.468   2.284   0.432  0.1070  0.6233  0.0273
 6115TIP3    H139980   0.517   2.225   0.490  0.6767  1.5276  0.4886
 6115TIP3    H239981   0.530   2.354   0.411 -0.9766  1.8129  0.6464
 6116TIP3   OH239982   1.755   0.843   0.296  0.2613 -0.3475  0.0521
 6116TIP3    H139983   1.796   0.758   0.312 -0.6010 -0.5807  1.1635
 6116TIP3    H239984   1.665   0.821   0.272  0.0153  0.2488  0.4088
 6117TIP3   OH239985   2.805   4.947   7.752  0.0325  0.4277 -0.0721
 6117TIP3    H139986   2.862   4.962   7.828 -0.7342 -0.8245  0.7808
 6117TIP3    H239987   2.849   4.993   7.680  0.3233  2.4228  1.2885
 6118TIP3   OH239988   6.077   1.348   8.241  0.4450  0.2120  0.1698
 6118TIP3    H139989   6.153   1.395   8.209  1.4660 -0.5605  1.3664
 6118TIP3    H239990   6.094   1.256   8.219  0.0406 -0.0168  0.7686
 6119TIP3   OH239991   0.967   2.393   7.473 -0.5116 -0.1561 -0.0369
 6119TIP3    H139992   0.961   2.463   7.538  2.3711 -1.6353  2.0612
 6119TIP3    H239993   0.990   2.438   7.392 -0.3544  1.4504  0.8565
 6120TIP3   OH239994   3.250   3.387   8.955 -0.1531 -0.4058 -0.1299
 6120TIP3    H139995   3.175   3.327   8.957  0.3840 -1.1146 -0.7581
 6120TIP3    H239996   3.250   3.422   8.866 -0.0407 -0.0189  0.0230
 6121TIP3   OH239997   2.580   3.198   7.449  0.3651  0.2254  0.2574
 6121TIP3    H139998   2.587   3.114   7.494  0.7526  0.1483  0.0594
 6121TIP3    H239999   2.623   3.184   7.365 -0.7970  0.2160 -0.3616
 6122TIP3   OH240000   5.904   5.020   7.164 -0.5207  0.1330  0.3188
 6122TIP3    H140001   5.821   5.055   7.133 -0.9197 -0.7776  0.3338
 6122TIP3    H240002   5.970   5.075   7.123 -1.1407  1.5691  1.1718
 6123TIP3   OH240003   6.331   6.377   7.480 -0.4809 -0.4292  0.4062
 6123TIP3    H140004   6.313   6.297   7.431 -0.2847  0.0652 -0.4757
 6123TIP3    H240005   6.296   6.447   7.426  0.0527  0.1501  0.7998
 6124TIP3   OH240006   3.171   5.677   7.599  0.1131 -0.1941  0.0246
 6124TIP3    H140007   3.191   5.615   7.669 -0.7794 -0.6284 -0.0948
 6124TIP3    H240008   3.076   5.684   7.599  0.1337  0.2428 -0.7713
 6125TIP3   OH240009   5.710   0.487   0.917  0.0299 -0.3283  0.4743
 6125TIP3    H140010   5.617   0.498   0.899  0.3458  1.8040 -0.0833
 6125TIP3    H240011   5.714   0.466   1.011 -1.0718 -2.4617  0.1228
 6126TIP3   OH240012   2.200   5.758   7.875 -0.7908 -0.1429 -0.2243
 6126TIP3    H140013   2.198   5.829   7.939 -1.0506  0.3255 -0.7484
 6126TIP3    H240014   2.145   5.690   7.914 -2.1743  0.7182 -0.6022
 6127TIP3   OH240015   0.062   0.716   2.078 -0.0767  0.6695  0.4394
 6127TIP3    H140016   0.094   0.792   2.127  2.6290  0.4264 -0.7770
 6127TIP3    H240017   0.106   0.722   1.994 -0.9934 -1.4490 -0.2522
 6128TIP3   OH240018   2.385   5.687   1.895  0.8160 -0.0367  0.2414
 6128TIP3    H140019   2.475   5.713   1.874  1.0324 -0.6945  0.3514
 6128TIP3    H240020   2.393   5.598   1.928  0.3042  0.4458  1.7248
 6129TIP3   OH240021   2.664   2.189   8.980  0.2874  0.2985  0.3050
 6129TIP3    H140022   2.678   2.094   8.984 -2.0703 -0.0829  1.0076
 6129TIP3    H240023   2.695   2.214   8.893  1.3346 -1.0276  0.2548
 6130TIP3   OH240024   3.540   4.361   2.052 -0.4270  0.3318 -0.2527
 6130TIP3    H140025   3.547   4.369   2.147 -0.6252  1.1815 -0.3079
 6130TIP3    H240026   3.631   4.361   2.021 -0.3843  1.5142 -0.1711
 6131TIP3   OH240027   1.095   3.857   8.217  0.7086  0.6052  0.1272
 6131TIP3    H140028   1.127   3.922   8.154 -1.3748  1.7257  0.1280
 6131TIP3    H240029   1.174   3.826   8.262  2.3364 -0.4489 -3.1366
 6132TIP3   OH240030   1.894   4.294   0.894 -0.2724  0.0211  0.3230
 6132TIP3    H140031   1.948   4.234   0.843 -1.9254  0.0559 -1.5633
 6132TIP3    H240032   1.921   4.382   0.866 -2.1978  0.0386 -1.7585
 6133TIP3   OH240033   0.290   5.048   7.152  0.0042 -0.3316 -0.3533
 6133TIP3    H140034   0.361   5.037   7.089  0.9672  1.8469  0.2483
 6133TIP3    H240035   0.241   4.965   7.148  0.8240 -0.7942 -2.9107
 6134TIP3   OH240036   3.396   4.309   0.287 -0.2199 -0.1219 -0.1247
 6134TIP3    H140037   3.446   4.346   0.360  1.2202 -0.4334 -0.9198
 6134TIP3    H240038   3.344   4.239   0.327  0.1884  0.0223  0.6819
 6135TIP3   OH240039   4.274   4.454   1.225 -0.9508  0.5414 -0.7671
 6135TIP3    H140040   4.269   4.358   1.230  0.1016  0.5325  1.2491
 6135TIP3    H240041   4.211   4.484   1.290  1.4616  1.0540  1.5016
 6136TIP3   OH240042   1.630   3.120   1.917 -0.4653  0.3655 -0.3431
 6136TIP3    H140043   1.679   3.202   1.920 -1.0902  0.7276  0.6648
 6136TIP3    H240044   1.656   3.074   1.997 -0.4858 -0.2033 -0.6590
 6137TIP3   OH240045   2.687   5.068   1.561  0.1628 -0.4240 -0.3786
 6137TIP3    H140046   2.684   5.158   1.593 -0.9478 -0.6794  0.2943
 6137TIP3    H240047   2.701   5.077   1.467 -1.2741  0.5120 -0.5345
 6138TIP3   OH240048   1.335   5.674   8.698 -0.0412  0.3507  0.5514
 6138TIP3    H140049   1.266   5.613   8.727  0.1631  0.9176  2.3561
 6138TIP3    H240050   1.416   5.634   8.730  0.0051  2.0653  2.8606
 6139TIP3   OH240051   5.020   3.988   0.894  0.6499  0.2248 -0.1588
 6139TIP3    H140052   4.967   4.035   0.959 -1.0814 -0.1752 -1.2074
 6139TIP3    H240053   5.050   3.910   0.940 -0.4285  0.0229  0.2439
 6140TIP3   OH240054   1.924   5.581   8.733 -0.0425  0.1881 -0.1979
 6140TIP3    H140055   1.984   5.589   8.659 -0.1762  0.6750 -0.2573
 6140TIP3    H240056   1.845   5.627   8.704 -0.0532  0.4799  0.2921
 6141TIP3   OH240057   6.775   4.420   2.306  0.3337  0.0794 -0.2645
 6141TIP3    H140058   6.847   4.473   2.340  2.3454 -1.0633 -2.4564
 6141TIP3    H240059   6.717   4.407   2.381  1.4255  2.5938  1.1289
 6142TIP3   OH240060   2.131   5.355   1.638 -0.3796  0.1698 -0.0548
 6142TIP3    H140061   2.221   5.372   1.609 -0.7061  2.0239 -0.1277
 6142TIP3    H240062   2.141   5.318   1.726  0.5176 -2.7976 -1.2643
 6143TIP3   OH240063   0.778   4.423   1.959  0.0251  0.8682 -0.2249
 6143TIP3    H140064   0.847   4.401   2.021 -0.2043  0.8405  0.0212
 6143TIP3    H240065   0.732   4.341   1.943 -0.6299  1.0959  0.4461
 6144TIP3   OH240066   5.005   4.475   7.900  0.1935  0.1256  0.4944
 6144TIP3    H140067   5.100   4.476   7.894  0.1879  0.1388  0.3958
 6144TIP3    H240068   4.979   4.391   7.863  0.1339  0.3870 -0.0828
 6145TIP3   OH240069   5.756   2.727   2.041  0.2376 -0.6146 -0.2407
 6145TIP3    H140070   5.832   2.699   2.092  1.8448 -2.1984 -3.2280
 6145TIP3    H240071   5.685   2.670   2.070  1.3000 -1.9898 -0.2457
 6146TIP3   OH240072   4.390   3.824   8.881 -0.1418 -0.2866  0.1127
 6146TIP3    H140073   4.407   3.828   8.787  1.6016 -1.1477  0.3327
 6146TIP3    H240074   4.462   3.771   8.915 -1.3086 -0.8564  1.8045
 6147TIP3   OH240075   2.429   5.136   1.400 -0.2341  0.7950 -0.3128
 6147TIP3    H140076   2.357   5.075   1.384 -0.0636  0.6942 -0.7020
 6147TIP3    H240077   2.458   5.117   1.489 -1.5090  1.6747  0.3326
 6148TIP3   OH240078   1.221   4.476   7.739 -0.0397  0.2879 -0.3752
 6148TIP3    H140079   1.292   4.462   7.802 -1.6878  0.4038  1.5939
 6148TIP3    H240080   1.183   4.559   7.764 -0.7749  0.3250 -1.5417
 6149TIP3   OH240081   5.091   0.654   8.128 -0.7176 -1.0918 -0.5373
 6149TIP3    H140082   5.132   0.646   8.042 -1.7702 -0.3970 -1.1229
 6149TIP3    H240083   5.127   0.581   8.179  2.9633  0.6794 -0.2852
 6150TIP3   OH240084   4.408   2.541   1.719  0.0439  0.1003  0.2326
 6150TIP3    H140085   4.399   2.452   1.683 -2.0588  0.3619  0.0119
 6150TIP3    H240086   4.484   2.535   1.778 -0.0094 -1.8152  0.1741
 6151TIP3   OH240087   6.564   2.112   2.390 -0.3303 -0.5348  0.2775
 6151TIP3    H140088   6.517   2.190   2.357 -1.3245 -1.3909 -0.3992
 6151TIP3    H240089   6.498   2.063   2.439  0.0997 -1.3047  0.1007
 6152TIP3   OH240090   1.873   3.319   8.449 -0.4807 -0.2507 -0.1044
 6152TIP3    H140091   1.919   3.265   8.512  0.1488 -0.2893 -0.5957
 6152TIP3    H240092   1.927   3.318   8.371 -0.7818  0.5601 -0.3388
 6153TIP3   OH240093   4.061   0.081   8.892 -0.7682 -0.6238  0.2627
 6153TIP3    H140094   3.984   0.111   8.844 -0.9062 -0.0510  0.8289
 6153TIP3    H240095   4.049  -0.013   8.900 -2.3021 -0.3410  1.8426
 6154TIP3   OH240096   5.253   2.059   8.374 -0.0660  0.7555  0.7459
 6154TIP3    H140097   5.340   2.094   8.354 -0.0021 -0.2267 -0.9554
 6154TIP3    H240098   5.196   2.135   8.378  0.2664  1.2338 -1.7122
 6155TIP3   OH240099   3.331   1.191   8.888  0.1601 -0.2621 -0.4549
 6155TIP3    H140100   3.380   1.220   8.965  0.4254  1.2390 -1.1369
 6155TIP3    H240101   3.241   1.220   8.904 -0.4224 -2.4556  0.5134
 6156TIP3   OH240102   4.648   5.201   8.347  0.0962  0.3858  0.1273
 6156TIP3    H140103   4.689   5.189   8.262  0.7962  0.7647  0.3963
 6156TIP3    H240104   4.589   5.275   8.336  0.4523  0.6602  0.0621
 6157TIP3   OH240105   3.588   0.220   1.362  0.0642  0.4212  0.2152
 6157TIP3    H140106   3.516   0.283   1.372 -1.4259 -0.3866 -3.5700
 6157TIP3    H240107   3.560   0.143   1.411 -0.8245  0.7592  0.2655
 6158TIP3   OH240108   6.580   6.249   8.651  0.1857  0.7904  0.2565
 6158TIP3    H140109   6.487   6.236   8.633  0.0377  0.6999  1.0418
 6158TIP3    H240110   6.597   6.197   8.730  0.5466  1.9857  1.0044
 6159TIP3   OH240111   2.776   3.317   7.233 -0.1658  0.0025 -0.5482
 6159TIP3    H140112   2.870   3.323   7.217  0.0560  1.0080  0.9964
 6159TIP3    H240113   2.742   3.404   7.213 -0.4418  0.2253  0.8147
 6160TIP3   OH240114   4.143   1.218   6.744 -1.1001 -0.5504 -0.1914
 6160TIP3    H140115   4.086   1.269   6.687 -0.2630  0.3960 -0.2032
 6160TIP3    H240116   4.224   1.206   6.692  0.5339  2.1745  1.5187
 6161TIP3   OH240117   6.226   5.876   7.131  0.0225  0.1988  0.1470
 6161TIP3    H140118   6.193   5.865   7.042 -0.4367 -0.5303  0.3882
 6161TIP3    H240119   6.196   5.962   7.158 -0.9080 -0.0736  0.0228
 6162TIP3   OH240120   0.773   3.698   7.756 -0.2895  0.7451  0.1793
 6162TIP3    H140121   0.772   3.605   7.730  4.1645  0.4328  0.4205
 6162TIP3    H240122   0.745   3.697   7.847  0.4435 -0.4991  0.4150
 6163TIP3   OH240123   5.335   5.596   0.077  0.2008 -0.3019  0.3488
 6163TIP3    H140124   5.411   5.610   0.135 -0.8480 -0.8640  1.9185
 6163TIP3    H240125   5.356   5.516   0.029  2.3534  1.6525 -2.2622
 6164TIP3   OH240126   2.076   0.534   0.869  0.3556  0.3080 -0.0050
 6164TIP3    H140127   2.111   0.484   0.796 -0.0969  1.3885 -0.9987
 6164TIP3    H240128   2.022   0.472   0.918  0.8899 -0.4977 -0.4210
 6165TIP3   OH240129   6.554   2.553   0.594  0.1769 -0.0707  0.2764
 6165TIP3    H140130   6.611   2.548   0.671  0.7922  0.3694 -0.1333
 6165TIP3    H240131   6.607   2.601   0.529 -0.5786  0.1368 -0.1923
 6166TIP3   OH240132   5.757   4.651   1.905 -0.0950 -0.0389  0.1418
 6166TIP3    H140133   5.724   4.651   1.815  0.7172 -1.6076 -0.1915
 6166TIP3    H240134   5.835   4.707   1.901  1.1781 -1.7822 -0.6717
 6167TIP3   OH240135   3.776   2.415   2.240 -0.2129  0.3440 -0.7597
 6167TIP3    H140136   3.721   2.403   2.318  3.1764 -1.3570  1.6021
 6167TIP3    H240137   3.799   2.326   2.213  2.6110  0.9306 -0.5997
 6168TIP3   OH240138   1.604   4.543   8.300  0.3839 -0.5377 -0.3259
 6168TIP3    H140139   1.680   4.578   8.346  0.8559 -2.0727  0.1128
 6168TIP3    H240140   1.621   4.449   8.293 -1.4285 -0.9090 -0.2979
 6169TIP3   OH240141   4.511   0.064   8.677  0.0450  0.1395  0.1636
 6169TIP3    H140142   4.533   0.021   8.760 -2.7323 -0.1287  0.8620
 6169TIP3    H240143   4.538   0.001   8.610  2.2767  0.3398  0.8034
 6170TIP3   OH240144   0.068   1.716   0.788  0.0641 -0.4937  0.0589
 6170TIP3    H140145   0.148   1.762   0.810 -0.4552  1.1435 -1.2534
 6170TIP3    H240146  -0.001   1.763   0.836 -0.3591 -0.4824 -0.5429
 6171TIP3   OH240147   6.249   6.131   7.907  0.2280 -0.3713  0.1030
 6171TIP3    H140148   6.304   6.190   7.856  0.2476  0.7337  1.3452
 6171TIP3    H240149   6.308   6.060   7.934  0.9166  0.4768  0.8876
 6172TIP3   OH240150   3.821   6.749   7.522 -0.5111 -0.8744  0.2833
 6172TIP3    H140151   3.750   6.739   7.459  0.4896 -1.5600 -0.7553
 6172TIP3    H240152   3.782   6.723   7.606 -2.3475  1.6166  0.3359
 6173TIP3   OH240153   4.872   5.789   8.509  0.0411  0.3627  0.6442
 6173TIP3    H140154   4.907   5.862   8.559 -0.4078  1.5506 -0.7272
 6173TIP3    H240155   4.930   5.716   8.530  1.9837  1.7072  0.1732
 6174TIP3   OH240156   6.561   1.225   7.051 -0.0020  0.2906  0.0406
 6174TIP3    H140157   6.653   1.232   7.027  0.1242  0.7792  0.6658
 6174TIP3    H240158   6.525   1.161   6.988  0.9650 -0.6261  0.3839
 6175TIP3   OH240159   3.358   6.450   0.457  0.3373  0.0281  0.0312
 6175TIP3    H140160   3.264   6.454   0.477 -0.2843 -0.2817 -2.4340
 6175TIP3    H240161   3.399   6.509   0.520 -1.7436  1.5715  0.0269
 6176TIP3   OH240162   5.852   0.919   2.286 -0.3792  0.1679  0.4869
 6176TIP3    H140163   5.929   0.874   2.320 -0.0114 -0.4605 -1.0874
 6176TIP3    H240164   5.779   0.864   2.312 -0.1180 -0.2220  0.4113
 6177TIP3   OH240165   3.187   5.921   0.421 -0.3159 -0.3024  0.4544
 6177TIP3    H140166   3.170   5.860   0.492 -1.9534 -0.4672 -0.0230
 6177TIP3    H240167   3.100   5.946   0.390  0.2921  2.1818  0.5444
 6178TIP3   OH240168   5.083   3.301   7.930 -0.0976 -0.1085 -0.7582
 6178TIP3    H140169   5.039   3.349   8.000  2.3160  0.6758  0.3494
 6178TIP3    H240170   5.071   3.208   7.953 -0.4044  0.1096 -0.0095
 6179TIP3   OH240171   6.540   5.447   7.018  0.6478  0.0341 -0.3380
 6179TIP3    H140172   6.492   5.459   6.936  1.0235  1.2276 -0.4089
 6179TIP3    H240173   6.491   5.379   7.065  0.4009 -0.6292 -1.5184
 6180TIP3   OH240174   5.905   6.288   7.969  0.0052 -0.0335 -0.3214
 6180TIP3    H140175   5.840   6.333   7.916 -0.0125  0.1438 -0.1460
 6180TIP3    H240176   5.854   6.234   8.029  0.0282 -0.6797 -0.8679
 6181TIP3   OH240177   2.446   2.888   7.066  0.2153  0.5000 -0.4093
 6181TIP3    H140178   2.507   2.938   7.011  1.0551  0.1312  0.1621
 6181TIP3    H240179   2.476   2.798   7.058  0.3988  0.4490  0.6956
 6182TIP3   OH240180   2.373   3.438   1.560 -0.1186  0.1954  0.3463
 6182TIP3    H140181   2.405   3.385   1.487 -1.1235 -0.7751  0.5839
 6182TIP3    H240182   2.307   3.495   1.521 -0.4461 -0.1177  0.4387
 6183TIP3   OH240183   6.164   2.373   1.108 -0.1155  0.1248 -0.4323
 6183TIP3    H140184   6.229   2.302   1.109  0.2011  0.3825 -1.2667
 6183TIP3    H240185   6.080   2.329   1.097  0.0288 -0.1597 -0.3953
 6184TIP3   OH240186   4.921   5.851   2.541  0.3311 -0.1975  0.3968
 6184TIP3    H140187   4.854   5.824   2.605  0.5647 -0.2980  0.5987
 6184TIP3    H240188   4.994   5.792   2.556  1.0100  0.8007  1.1225
 6185TIP3   OH240189   6.359   4.575   2.553 -0.0608 -0.1075 -0.0333
 6185TIP3    H140190   6.381   4.668   2.553  2.1966 -0.5757  0.0253
 6185TIP3    H240191   6.325   4.559   2.641  1.8815  0.2212  0.8297
 6186TIP3   OH240192   2.026   6.676   0.439  0.3331 -0.6510  0.3680
 6186TIP3    H140193   2.097   6.616   0.415  1.7970  1.1644 -0.0504
 6186TIP3    H240194   2.069   6.743   0.493 -0.7069  1.3582 -1.1789
 6187TIP3   OH240195   6.558   3.976   2.650  0.0239  0.5792  0.2761
 6187TIP3    H140196   6.629   4.017   2.601 -0.2003  0.3372 -0.2490
 6187TIP3    H240197   6.578   3.883   2.650 -0.1121  0.5486  0.4239
 6188TIP3   OH240198   4.844   3.109   1.478  0.2875 -0.7079 -0.0245
 6188TIP3    H140199   4.849   3.154   1.394  2.1325 -1.9504 -0.6274
 6188TIP3    H240200   4.912   3.151   1.532  0.7461 -1.5082  0.0292
 6189TIP3   OH240201   1.455   1.949   7.184 -0.1625 -0.1455 -0.6170
 6189TIP3    H140202   1.388   2.015   7.203  0.3084 -0.2010  1.4320
 6189TIP3    H240203   1.408   1.865   7.192  0.7702 -0.4728  4.9434
 6190TIP3   OH240204   5.407   6.688   2.561 -0.2225 -0.5219  0.1613
 6190TIP3    H140205   5.404   6.635   2.482 -1.0397 -2.9311  1.7168
 6190TIP3    H240206   5.498   6.681   2.591  0.0854  0.3841 -0.5028
 6191TIP3   OH240207   2.389   2.034   2.257 -0.2874 -0.4159  0.2358
 6191TIP3    H140208   2.332   2.006   2.329 -2.8743  1.7519 -0.8085
 6191TIP3    H240209   2.332   2.031   2.180  1.4775  0.4381 -1.1560
 6192TIP3   OH240210   4.630   4.729   1.414 -0.4537  0.8211  0.3736
 6192TIP3    H140211   4.711   4.721   1.465 -0.9506  0.8906  1.2025
 6192TIP3    H240212   4.614   4.642   1.380  0.3637  0.9738 -0.4173
 6193TIP3   OH240213   3.485   5.728   2.386  0.0335  0.1720  0.1395
 6193TIP3    H140214   3.532   5.810   2.397 -1.0013  0.9833 -1.2509
 6193TIP3    H240215   3.453   5.706   2.474  1.3981  0.5467  0.7597
 6194TIP3   OH240216   2.149   4.821   8.561 -0.0262 -0.3843  0.0122
 6194TIP3    H140217   2.137   4.814   8.656  0.3079 -1.0380  0.0111
 6194TIP3    H240218   2.149   4.731   8.530  0.1384 -0.1850 -0.5755
 6195TIP3   OH240219   1.556   4.591   1.575 -0.1588 -0.7373  0.1840
 6195TIP3    H140220   1.480   4.632   1.615 -1.9649 -2.3850 -1.3896
 6195TIP3    H240221   1.627   4.654   1.589 -1.4137  0.2036  2.9691
 6196TIP3   OH240222   5.216   1.167   0.844  0.2503  0.0778  0.5602
 6196TIP3    H140223   5.254   1.086   0.811  1.7281  1.3530 -1.1615
 6196TIP3    H240224   5.122   1.151   0.847  0.2744 -0.9917 -2.0166
 6197TIP3   OH240225   5.669   2.862   0.240 -0.0276 -0.2878 -0.4403
 6197TIP3    H140226   5.584   2.900   0.261  0.6884 -0.4025  3.3305
 6197TIP3    H240227   5.649   2.776   0.203 -1.5061  0.5536 -1.7063
 6198TIP3   OH240228   0.140   0.198   1.870 -0.1531 -0.8781  0.1371
 6198TIP3    H140229   0.230   0.209   1.837  0.1286 -0.5948  0.9838
 6198TIP3    H240230   0.123   0.104   1.858 -0.2822 -0.7004 -1.3346
 6199TIP3   OH240231   4.162   1.909   0.838  0.0246 -0.2192  0.0449
 6199TIP3    H140232   4.148   1.999   0.811  0.7144  0.5016  1.8979
 6199TIP3    H240233   4.089   1.860   0.800 -1.0732  1.3564  0.0655
 6200TIP3   OH240234   3.814   1.973   8.214  0.3919 -0.2772 -0.6326
 6200TIP3    H140235   3.732   1.974   8.264  1.6746  0.4301  1.6149
 6200TIP3    H240236   3.829   1.880   8.194  0.2520 -0.7133  1.1241
 6201TIP3   OH240237   2.446   0.202   1.118 -0.0595 -0.2044  0.4191
 6201TIP3    H140238   2.369   0.250   1.088 -0.9134 -1.2210  0.9044
 6201TIP3    H240239   2.482   0.163   1.039 -1.6097 -1.9003  0.4803
 6202TIP3   OH240240   2.598   5.311   1.890  0.5298  0.4850 -0.8522
 6202TIP3    H140241   2.610   5.217   1.881  0.7723  0.5222 -0.9153
 6202TIP3    H240242   2.686   5.348   1.886  0.5579  0.6092  0.4169
 6203TIP3   OH240243   2.914   4.650   7.970  0.1756 -0.3197  0.3076
 6203TIP3    H140244   2.910   4.729   7.916 -0.1921 -1.1593 -0.9315
 6203TIP3    H240245   2.927   4.683   8.059 -1.1033  1.1868 -0.0166
 6204TIP3   OH240246   0.683   0.191   7.028  0.0303  0.4892 -0.3570
 6204TIP3    H140247   0.667   0.275   6.986 -0.4484  0.8209  0.4700
 6204TIP3    H240248   0.770   0.199   7.066 -0.1909  0.7623  0.0884
 6205TIP3   OH240249   2.581   1.644   0.437  0.2100  0.4109  0.5281
 6205TIP3    H140250   2.672   1.665   0.419 -0.3193  1.4027 -1.2858
 6205TIP3    H240251   2.568   1.557   0.399  0.0477  0.9116 -0.6023
 6206TIP3   OH240252   6.265   2.384   0.160  0.1070 -0.2356 -0.1101
 6206TIP3    H140253   6.308   2.459   0.202 -0.1572 -0.8608  1.3210
 6206TIP3    H240254   6.210   2.346   0.228 -1.9875 -0.0596 -1.6204
 6207TIP3   OH240255   2.906   5.600   8.180 -0.3589 -0.0337  0.3620
 6207TIP3    H140256   3.001   5.600   8.185 -0.2170  2.1867 -1.0459
 6207TIP3    H240257   2.880   5.510   8.200  2.2260 -1.5970 -2.6605
 6208TIP3   OH240258   5.688   1.187   7.659 -0.1134 -0.2287 -0.5261
 6208TIP3    H140259   5.720   1.199   7.749 -1.4428 -1.3647  0.1391
 6208TIP3    H240260   5.762   1.149   7.612  1.1590  1.9297 -0.3895
 6209TIP3   OH240261   4.848   0.030   1.136 -0.3768 -0.3823 -0.3844
 6209TIP3    H140262   4.907  -0.018   1.193 -1.4029  0.5845  1.5903
 6209TIP3    H240263   4.798   0.087   1.194 -2.0899  0.0694 -2.1503
 6210TIP3   OH240264   0.903   0.122   7.809 -0.2523  0.5284 -1.0188
 6210TIP3    H140265   0.811   0.111   7.785 -0.0192 -0.3468 -1.5642
 6210TIP3    H240266   0.909   0.212   7.841 -1.8138 -0.1620  1.4157
 6211TIP3   OH240267   0.130   0.774   7.740 -0.1493  0.3753  0.0619
 6211TIP3    H140268   0.133   0.781   7.836  0.7640  1.7514 -0.0424
 6211TIP3    H240269   0.119   0.680   7.724  1.7567 -0.1638  1.4890
 6212TIP3   OH240270   1.823   0.865   0.626 -0.0240 -0.2154  0.4349
 6212TIP3    H140271   1.775   0.785   0.602  0.3376 -0.3555  0.1701
 6212TIP3    H240272   1.782   0.894   0.708  0.8289 -1.5289  1.3742
 6213TIP3   OH240273   2.649   2.014   1.410  0.0324  0.1894 -0.2095
 6213TIP3    H140274   2.578   1.965   1.452  0.4498 -1.0067 -0.8659
 6213TIP3    H240275   2.688   2.064   1.482 -1.4583  0.9058  0.1644
 6214TIP3   OH240276   2.491   0.357   6.962 -0.2428 -0.0779 -0.4426
 6214TIP3    H140277   2.462   0.267   6.955  0.0534 -0.2110  0.0091
 6214TIP3    H240278   2.415   0.409   6.937 -0.2877 -0.4601 -1.0953
 6215TIP3   OH240279   6.029   4.594   7.445 -0.0951 -0.3273  0.2247
 6215TIP3    H140280   6.068   4.650   7.377 -0.1001 -0.1106  0.3985
 6215TIP3    H240281   5.946   4.636   7.466  0.5893  0.4746  1.4508
 6216TIP3   OH240282   0.483   4.304   1.247 -0.5771  0.1999 -0.1669
 6216TIP3    H140283   0.503   4.248   1.322 -1.2392 -0.1315 -0.2335
 6216TIP3    H240284   0.565   4.352   1.231  1.4824 -3.6677 -2.6618
 6217TIP3   OH240285   4.543   0.409   6.676  0.1105  0.0039 -0.1807
 6217TIP3    H140286   4.537   0.316   6.700 -2.6375  0.3288  0.7424
 6217TIP3    H240287   4.609   0.445   6.735  1.5245 -1.3941 -0.8365
 6218TIP3   OH240288   2.000   4.555   0.824  0.2630 -0.5430 -0.1111
 6218TIP3    H140289   2.086   4.560   0.866  0.9409 -1.1633 -1.3915
 6218TIP3    H240290   1.949   4.623   0.868  1.0342 -0.9210  1.4638
 6219TIP3   OH240291   3.659   3.683   0.940  0.2117 -0.5471 -0.0343
 6219TIP3    H140292   3.623   3.762   0.901 -2.1204 -0.1192  2.6798
 6219TIP3    H240293   3.751   3.682   0.911 -0.0198  2.3917 -1.2371
 6220TIP3   OH240294   1.900   1.140   0.588  0.3832 -0.2601 -0.1481
 6220TIP3    H140295   1.822   1.164   0.539  0.6202 -0.9574 -0.8844
 6220TIP3    H240296   1.895   1.045   0.598  1.0547 -0.2911 -0.0530
 6221TIP3   OH240297   4.530   0.535   0.593 -0.2002  0.1373  0.6336
 6221TIP3    H140298   4.551   0.524   0.500  1.2477  4.4996  0.2056
 6221TIP3    H240299   4.604   0.495   0.638 -0.5219 -1.3131 -0.0429
 6222TIP3   OH240300   3.941   0.970   0.375  0.0516  0.2026  0.0184
 6222TIP3    H140301   3.942   1.021   0.295 -1.1771 -0.8949 -0.7371
 6222TIP3    H240302   4.034   0.954   0.395  0.3585  0.0833 -1.4448
 6223TIP3   OH240303   6.468   1.677   1.701  0.2889  0.0241 -0.1063
 6223TIP3    H140304   6.492   1.593   1.739  0.5284 -0.3430 -1.0208
 6223TIP3    H240305   6.539   1.695   1.639  1.6578  2.1801  1.9095
 6224TIP3   OH240306   1.824   3.102   7.732 -0.2402  0.3743  0.6630
 6224TIP3    H140307   1.888   3.048   7.779 -1.0070 -0.5288  0.6877
 6224TIP3    H240308   1.877   3.167   7.686  0.7748 -0.8838  0.0014
 6225TIP3   OH240309   5.852   0.460   0.682 -0.0505 -0.2528  0.5581
 6225TIP3    H140310   5.805   0.471   0.765 -0.4546  2.6011  0.0427
 6225TIP3    H240311   5.783   0.453   0.616  0.2173  0.7923  0.1441
 6226TIP3   OH240312   3.491   1.910   0.458 -0.2116  0.3237  0.5365
 6226TIP3    H140313   3.455   1.827   0.489  0.5664  0.0201  0.6675
 6226TIP3    H240314   3.539   1.945   0.533  1.1513 -0.1065 -0.0974
 6227TIP3   OH240315   5.755   5.869   1.097 -0.6602 -0.3363 -0.0595
 6227TIP3    H140316   5.737   5.944   1.040  0.8422 -0.2771 -0.5024
 6227TIP3    H240317   5.720   5.895   1.182  1.5791  1.7569  0.3367
 6228TIP3   OH240318   3.361   4.869   1.876 -0.4613 -0.3525  0.2423
 6228TIP3    H140319   3.373   4.786   1.924 -1.9592 -1.3199 -0.9776
 6228TIP3    H240320   3.431   4.868   1.811  0.0471 -0.2374  0.7773
 6229TIP3   OH240321   5.100   0.128   1.446 -0.2348  0.1401 -0.3598
 6229TIP3    H140322   5.104   0.215   1.486 -2.0811  0.3417 -0.5113
 6229TIP3    H240323   5.078   0.145   1.354 -4.1925 -0.4384  0.2711
 6230TIP3   OH240324   6.306   1.727   8.506 -0.2040 -0.1653  0.0564
 6230TIP3    H140325   6.218   1.763   8.511 -0.4122 -0.4866 -0.8923
 6230TIP3    H240326   6.300   1.643   8.552 -0.7394 -0.7654 -1.0503
 6231TIP3   OH240327   3.819   2.936   1.958 -0.9006 -0.5022 -0.2248
 6231TIP3    H140328   3.872   2.859   1.977  0.5336  0.2065 -1.1393
 6231TIP3    H240329   3.850   3.003   2.019 -0.0118  0.2054 -1.4129
 6232TIP3   OH240330   4.135   2.454   2.393 -0.2005 -0.0094  0.2915
 6232TIP3    H140331   4.150   2.360   2.386 -2.4090 -0.3438 -1.0180
 6232TIP3    H240332   4.064   2.462   2.456  0.5307  0.8644  1.0230
 6233TIP3   OH240333   2.271   3.909   8.095 -0.0535 -0.6575  0.0524
 6233TIP3    H140334   2.209   3.862   8.041  1.7262 -2.4752 -0.5205
 6233TIP3    H240335   2.312   3.842   8.149  1.7721  0.3821  0.0391
 6234TIP3   OH240336   1.167   0.783   8.166 -0.5297 -0.2439  0.2532
 6234TIP3    H140337   1.161   0.837   8.087 -1.1744 -0.9902 -0.2258
 6234TIP3    H240338   1.213   0.838   8.230 -1.0137  0.8000 -0.2727
 6235TIP3   OH240339   3.050   5.571   8.916 -0.3724 -0.3189 -0.0958
 6235TIP3    H140340   3.070   5.659   8.949  1.0652 -0.9161  0.7050
 6235TIP3    H240341   3.052   5.515   8.993 -1.3156 -1.0744 -0.5950
 6236TIP3   OH240342   1.167   2.176   7.500  0.3114 -0.5151 -0.1037
 6236TIP3    H140343   1.204   2.181   7.412  0.4530 -1.0245 -0.0788
 6236TIP3    H240344   1.174   2.265   7.535  0.9580 -0.4811 -0.3196
 6237TIP3   OH240345   2.481   6.629   6.982 -0.6405 -0.3499  0.2685
 6237TIP3    H140346   2.484   6.615   6.887 -1.6562 -1.3120  0.3669
 6237TIP3    H240347   2.552   6.691   6.998 -0.5783 -0.0068 -1.1442
 6238TIP3   OH240348   2.275   3.639   7.285 -0.1112 -0.5404 -0.5677
 6238TIP3    H140349   2.257   3.702   7.355 -0.8179 -2.0779  0.7035
 6238TIP3    H240350   2.189   3.608   7.259 -0.1056  1.7727 -3.9756
 6239TIP3   OH240351   0.100   5.160   1.427 -0.0571 -0.0772  0.7169
 6239TIP3    H140352   0.067   5.247   1.448  2.4548  1.0305  0.4359
 6239TIP3    H240353   0.161   5.139   1.498  0.8167 -0.7479 -0.1981
 6240TIP3   OH240354   1.549   6.021   7.842 -0.0775 -0.5251 -0.4907
 6240TIP3    H140355   1.609   5.978   7.781  2.3031 -1.1740  2.1071
 6240TIP3    H240356   1.501   5.949   7.883 -1.6530 -0.0938 -1.4989
 6241TIP3   OH240357   1.743   0.836   7.638 -0.1687  0.0951 -0.2803
 6241TIP3    H140358   1.666   0.790   7.602 -1.1512 -0.3671  2.1914
 6241TIP3    H240359   1.713   0.925   7.653  0.6560  0.6591 -1.7749
 6242TIP3   OH240360   0.621   3.694   8.820  0.0864 -0.2837  0.1098
 6242TIP3    H140361   0.601   3.608   8.783 -1.9588 -0.7648  2.1017
 6242TIP3    H240362   0.717   3.696   8.826  0.2020 -2.1146 -0.6501
 6243TIP3   OH240363   1.490   4.665   0.834  0.2398 -0.1445  0.2378
 6243TIP3    H140364   1.570   4.684   0.785 -1.3095 -0.0661 -2.4508
 6243TIP3    H240365   1.461   4.580   0.801 -1.0796  0.0989  0.7212
 6244TIP3   OH240366   5.770   4.412   8.005  0.1985 -0.6702  0.3013
 6244TIP3    H140367   5.843   4.423   8.065 -0.0698 -0.3675  0.5730
 6244TIP3    H240368   5.803   4.353   7.938  0.2083 -1.7503  1.2308
 6245TIP3   OH240369   3.007   0.484   7.832  0.6218  0.7881 -0.1814
 6245TIP3    H140370   2.975   0.442   7.911  0.6652  0.2581 -0.4431
 6245TIP3    H240371   2.944   0.459   7.764  0.4409  1.4468 -0.2634
 6246TIP3   OH240372   5.286   1.656   7.688 -0.7572 -0.2657 -0.3853
 6246TIP3    H140373   5.368   1.609   7.705 -0.0659  1.5120  1.7072
 6246TIP3    H240374   5.219   1.604   7.733 -0.1723  0.0903  0.9583
 6247TIP3   OH240375   1.489   0.309   1.804  0.0344 -0.0143 -0.9543
 6247TIP3    H140376   1.503   0.265   1.721  2.9345  2.4726 -1.9593
 6247TIP3    H240377   1.572   0.352   1.823 -0.7740  0.2372  2.8478
 6248TIP3   OH240378   2.324   2.853   8.528  0.0607  0.0656 -0.3241
 6248TIP3    H140379   2.374   2.841   8.447  2.7880 -0.4153  1.3244
 6248TIP3    H240380   2.310   2.948   8.534 -1.2939  0.0283 -1.8918
 6249TIP3   OH240381   3.417   3.441   8.682  0.0505  0.0002  0.6458
 6249TIP3    H140382   3.426   3.346   8.685 -0.7866 -0.1203 -0.0170
 6249TIP3    H240383   3.491   3.474   8.732  0.9089 -0.9732  0.0766
 6250TIP3   OH240384   1.047   4.980   7.699 -0.3212  0.0619 -0.1851
 6250TIP3    H140385   0.991   5.049   7.734 -1.1807 -0.7130  0.0065
 6250TIP3    H240386   1.060   5.004   7.607 -0.1645  0.7534  0.0119
 6251TIP3   OH240387   4.122   1.200   0.530 -0.2573  0.4319  0.1431
 6251TIP3    H140388   4.134   1.294   0.546  0.7833  0.2601  0.4307
 6251TIP3    H240389   4.150   1.158   0.611  2.0720 -0.2783 -0.9372
 6252TIP3   OH240390   5.666   5.688   7.622 -0.2741  0.0211  0.2046
 6252TIP3    H140391   5.757   5.681   7.652 -0.0051  1.1832 -0.2918
 6252TIP3    H240392   5.670   5.662   7.530 -0.8142 -1.9088  0.6796
 6253TIP3   OH240393   1.076   1.978   1.756  0.7249  0.6180  0.3367
 6253TIP3    H140394   1.085   2.018   1.842  3.5106  0.4240  0.2411
 6253TIP3    H240395   1.162   1.989   1.715 -0.2343 -0.1065 -2.0708
 6254TIP3   OH240396   5.353   2.035   0.252  0.3579  0.4422 -0.2648
 6254TIP3    H140397   5.343   2.040   0.157 -0.6938  0.4501 -0.1744
 6254TIP3    H240398   5.278   1.982   0.281  2.1704 -1.9525  0.3235
 6255TIP3   OH240399   2.430   4.351   1.915  0.3646  0.0855 -0.1882
 6255TIP3    H140400   2.494   4.281   1.896 -1.4580 -1.8048  0.2742
 6255TIP3    H240401   2.401   4.380   1.829  1.8122  0.9906 -0.4092
 6256TIP3   OH240402   1.439   5.256   0.725  0.1275 -0.1823 -0.0546
 6256TIP3    H140403   1.430   5.167   0.761 -2.5492 -0.2473 -0.7142
 6256TIP3    H240404   1.384   5.310   0.782 -0.4772  0.5369 -1.2958
 6257TIP3   OH240405   5.136   2.286   7.637 -0.1289  0.4902 -0.1276
 6257TIP3    H140406   5.046   2.315   7.649  0.0147  0.7255  0.4188
 6257TIP3    H240407   5.140   2.256   7.546 -0.3119  2.0731 -0.6818
 6258TIP3   OH240408   4.195   1.534   1.585 -0.2748 -0.1519 -0.0415
 6258TIP3    H140409   4.184   1.619   1.544  0.6576 -0.2723 -0.5655
 6258TIP3    H240410   4.184   1.550   1.679  1.2239  0.8043  0.0019
 6259TIP3   OH240411   1.642   4.925   2.274 -0.2008 -0.0378  0.0985
 6259TIP3    H140412   1.638   4.855   2.339 -0.2543  0.0308  0.1696
 6259TIP3    H240413   1.704   4.989   2.311 -0.5291  0.1865  0.2650
 6260TIP3   OH240414   5.284   3.600   6.705 -0.2993 -0.5135 -0.3396
 6260TIP3    H140415   5.287   3.695   6.716 -0.1420 -0.7085  1.7188
 6260TIP3    H240416   5.290   3.587   6.610 -1.0105  1.5359 -0.7230
 6261TIP3   OH240417   4.272   0.838   0.166 -0.3020 -0.5556  0.3943
 6261TIP3    H140418   4.234   0.828   0.254 -0.1040  0.8015  0.6512
 6261TIP3    H240419   4.367   0.838   0.181 -0.2307 -1.5034  0.0283
 6262TIP3   OH240420   4.603   5.579   0.526  0.0798 -0.5871 -1.0244
 6262TIP3    H140421   4.574   5.580   0.435  1.0460 -1.4359 -1.3518
 6262TIP3    H240422   4.668   5.648   0.532 -1.4911  0.9187 -0.4293
 6263TIP3   OH240423   4.849   6.272   0.436  0.5233 -0.1215  0.9509
 6263TIP3    H140424   4.804   6.322   0.504  1.4307 -0.9363  2.1883
 6263TIP3    H240425   4.938   6.261   0.469  1.6953  1.3864 -1.4019
 6264TIP3   OH240426   5.475   6.166   7.458 -0.2663  0.7729  0.3251
 6264TIP3    H140427   5.487   6.253   7.497 -1.3949  0.6487  0.9780
 6264TIP3    H240428   5.387   6.167   7.422  0.6535  0.7888 -2.0615
 6265TIP3   OH240429   2.550   1.414   7.391  0.2227  0.7004 -0.4281
 6265TIP3    H140430   2.457   1.414   7.370  0.1015  1.8420  0.0018
 6265TIP3    H240431   2.566   1.331   7.436 -0.7434  0.8084  0.1377
 6266TIP3   OH240432   1.626   6.725   1.670 -0.1609 -0.0096 -0.3053
 6266TIP3    H140433   1.717   6.753   1.658 -0.5421  1.6827  0.4642
 6266TIP3    H240434   1.589   6.729   1.582  0.4528 -0.5483 -0.6002
 6267TIP3   OH240435   3.959   0.697   0.605  0.0678  0.2351 -0.0712
 6267TIP3    H140436   3.974   0.774   0.659  0.2043 -1.0406  1.8349
 6267TIP3    H240437   3.872   0.709   0.567 -0.4550  0.7482  1.2527
 6268TIP3   OH240438   4.971   1.226   6.749  0.5465  0.3515  0.7220
 6268TIP3    H140439   4.955   1.135   6.775  0.5091  0.5051  1.2589
 6268TIP3    H240440   5.062   1.227   6.720 -0.0294 -0.2924 -1.2806
 6269TIP3   OH240441   0.317   2.110   1.783 -0.9423  0.3436 -0.4376
 6269TIP3    H140442   0.366   2.189   1.804  0.1245 -0.3723 -0.1555
 6269TIP3    H240443   0.237   2.117   1.834 -0.9768  1.3525 -0.6083
 6270TIP3   OH240444   3.409   5.636   1.243 -0.0660  0.0285  0.0108
 6270TIP3    H140445   3.390   5.726   1.270 -0.4282  0.2116 -0.8158
 6270TIP3    H240446   3.493   5.615   1.283  0.6466  1.1882 -0.8250
 6271TIP3   OH240447   0.541   6.631   7.283  0.8729 -0.3001 -0.2204
 6271TIP3    H140448   0.537   6.689   7.207  0.0353 -0.5830 -0.4131
 6271TIP3    H240449   0.632   6.634   7.312  0.5940  2.2531  0.6786
 6272TIP3   OH240450   4.103   5.376   0.104  0.4243  1.2682 -0.2547
 6272TIP3    H140451   4.138   5.293   0.135 -1.5128  0.0096 -1.2386
 6272TIP3    H240452   4.075   5.422   0.184  1.3914  0.9620  0.2788
 6273TIP3   OH240453   5.354   2.064   1.941 -0.4247 -0.8055 -0.0069
 6273TIP3    H140454   5.331   2.058   1.848  1.7208 -0.3814 -0.6239
 6273TIP3    H240455   5.412   1.990   1.957  0.0367 -0.3077  0.7113
 6274TIP3   OH240456   1.286   0.861   2.428 -0.0295  0.6736 -0.2172
 6274TIP3    H140457   1.333   0.815   2.498 -0.3975 -0.5434 -0.7495
 6274TIP3    H240458   1.221   0.798   2.397 -0.8210  1.7065 -0.6991
 6275TIP3   OH240459   6.512   5.664   7.296  0.0334  0.3062  0.0357
 6275TIP3    H140460   6.451   5.600   7.259 -0.8964  2.0703 -1.6869
 6275TIP3    H240461   6.598   5.626   7.282 -0.4611 -0.3321 -1.4689
 6276TIP3   OH240462   3.880   6.528   1.581  0.8392 -0.0837 -0.3259
 6276TIP3    H140463   3.917   6.559   1.664  1.4212 -1.0174 -0.2216
 6276TIP3    H240464   3.821   6.457   1.606  0.7282 -0.1251 -0.6937
 6277TIP3   OH240465   6.143   4.044   8.566 -0.6990 -0.2554 -0.4482
 6277TIP3    H140466   6.203   4.119   8.567  0.1891 -0.9404  1.3206
 6277TIP3    H240467   6.182   3.984   8.501 -0.3265 -0.0262 -0.4427
 6278TIP3   OH240468   4.034   0.500   0.802 -0.2495  0.6161  0.3484
 6278TIP3    H140469   3.997   0.568   0.746 -2.4595  2.0711  3.2698
 6278TIP3    H240470   3.967   0.432   0.805  1.3586 -1.1514 -1.4378
 6279TIP3   OH240471   6.496   3.410   1.517 -0.4567 -0.2049  0.0816
 6279TIP3    H140472   6.521   3.502   1.525  1.2521 -0.3242 -2.6343
 6279TIP3    H240473   6.414   3.412   1.468  0.2651 -0.1006 -1.1775
 6280TIP3   OH240474   4.889   6.332   1.148 -0.3722  0.3121 -0.3970
 6280TIP3    H140475   4.864   6.382   1.225  0.8966  1.3193 -0.5939
 6280TIP3    H240476   4.852   6.245   1.162 -1.3654  0.8842  0.6616
 6281TIP3   OH240477   5.523   1.868   0.396  0.2345 -0.0384  0.2089
 6281TIP3    H140478   5.476   1.919   0.330 -0.2678 -0.5215  0.1878
 6281TIP3    H240479   5.456   1.844   0.460  0.5232 -0.4072  0.3775
 6282TIP3   OH240480   2.667   3.088   0.515 -0.0902 -0.6812 -0.0035
 6282TIP3    H140481   2.686   3.182   0.521 -0.2698 -0.6942  0.7992
 6282TIP3    H240482   2.635   3.077   0.425 -2.1203  0.4221  0.5093
 6283TIP3   OH240483   0.097   0.364   2.097 -0.2026 -0.4852  0.2750
 6283TIP3    H140484   0.095   0.337   2.005 -0.2087 -1.3023  0.5045
 6283TIP3    H240485   0.117   0.457   2.095  1.4916 -0.8294 -0.4995
 6284TIP3   OH240486   1.871   5.708   7.891 -0.5551  0.0174  0.3381
 6284TIP3    H140487   1.920   5.683   7.969 -0.0693 -0.7969 -0.2097
 6284TIP3    H240488   1.786   5.665   7.901  0.1936 -1.7865 -0.4920
 6285TIP3   OH240489   5.281   3.587   0.154 -0.3471 -0.3256  0.2412
 6285TIP3    H140490   5.277   3.494   0.176 -0.5028  0.0152  1.7514
 6285TIP3    H240491   5.371   3.602   0.125 -0.3324 -0.9441 -0.0335
 6286TIP3   OH240492   0.055   4.333   1.401 -0.6480 -0.7502 -0.1411
 6286TIP3    H140493   0.024   4.339   1.492 -0.7863 -1.2767 -0.1484
 6286TIP3    H240494   0.061   4.239   1.385 -0.3152 -0.6543 -0.5756
 6287TIP3   OH240495   6.397   5.330   1.738  0.3033 -0.6517  0.2616
 6287TIP3    H140496   6.432   5.285   1.815  0.6249 -1.1235 -0.1538
 6287TIP3    H240497   6.413   5.270   1.665  0.3148 -0.0654 -0.2319
 6288TIP3   OH240498   6.317   3.677   7.623  0.4235 -0.3109 -0.0550
 6288TIP3    H140499   6.404   3.717   7.620  0.8705 -1.3368 -1.8798
 6288TIP3    H240500   6.330   3.595   7.671  0.5690 -0.6557 -0.6697
 6289TIP3   OH240501   6.700   3.536   7.565  0.0080 -0.1964  0.0877
 6289TIP3    H140502   6.714   3.490   7.483 -0.0613 -0.0224 -0.0208
 6289TIP3    H240503   6.709   3.629   7.543 -1.1867 -0.0775  0.0335
 6290TIP3   OH240504   2.905   2.609   0.153  0.1800  0.1032 -0.4148
 6290TIP3    H140505   2.918   2.609   0.058  1.7699  1.9643 -0.2457
 6290TIP3    H240506   2.987   2.641   0.189 -1.2339  1.9187  1.4426
 6291TIP3   OH240507   3.469   2.856   7.100 -0.4968  0.1042 -0.1475
 6291TIP3    H140508   3.377   2.858   7.072 -0.3078 -2.2097 -1.2147
 6291TIP3    H240509   3.518   2.891   7.027 -0.4226 -0.4372 -0.3654
 6292TIP3   OH240510   4.262   4.375   8.291  0.3907  0.3734 -0.7992
 6292TIP3    H140511   4.184   4.424   8.318  1.2914  0.6512  1.5046
 6292TIP3    H240512   4.249   4.287   8.324  1.5194  0.7219  0.7282
 6293TIP3   OH240513   6.298   4.574   8.919 -0.2378  0.0130  0.0983
 6293TIP3    H140514   6.375   4.632   8.916 -0.5444  0.5617  1.7948
 6293TIP3    H240515   6.241   4.607   8.849 -0.5549  2.0158  1.2295
 6294TIP3   OH240516   1.072   5.183   2.203  0.1045  0.1070 -0.0108
 6294TIP3    H140517   1.135   5.240   2.248 -0.2389  0.9551 -0.5802
 6294TIP3    H240518   1.124   5.109   2.173  0.9678  1.0496 -0.9494
 6295TIP3   OH240519   0.723   3.830   0.432 -0.0231  0.9945 -0.0534
 6295TIP3    H140520   0.742   3.737   0.441  1.0191  1.1227 -0.8047
 6295TIP3    H240521   0.693   3.839   0.341 -2.4595  1.0287  0.6716
 6296TIP3   OH240522   5.946   6.768   8.364  0.1288  0.4540 -0.1749
 6296TIP3    H140523   6.040   6.752   8.349 -0.0080  0.8977 -1.6260
 6296TIP3    H240524   5.928   6.725   8.447  2.0948  2.2045  1.2645
 6297TIP3   OH240525   3.744   3.584   7.070 -0.6319  0.3861 -0.1757
 6297TIP3    H140526   3.777   3.567   6.982  0.7629 -1.6768  0.6733
 6297TIP3    H240527   3.651   3.564   7.065 -0.6322  0.5839 -1.2369
 6298TIP3   OH240528   2.399   3.589   8.772 -0.3636 -0.0101 -0.2283
 6298TIP3    H140529   2.386   3.496   8.790  0.0449  0.4172  2.8056
 6298TIP3    H240530   2.458   3.591   8.697  1.3760 -2.2466  0.9664
 6299TIP3   OH240531   2.802   3.675   2.985  0.4330  0.0626 -0.0492
 6299TIP3    H140532   2.777   3.619   3.059 -0.7113 -0.7907 -1.0513
 6299TIP3    H240533   2.833   3.755   3.026 -0.0231 -0.4494  1.3725
 6300TIP3   OH240534   3.610   5.488   1.031  0.6382  0.5310 -0.0549
 6300TIP3    H140535   3.566   5.413   1.071  1.4741  0.0882  0.0696
 6300TIP3    H240536   3.545   5.558   1.033  0.8298  0.7346  2.6628
 6301TIP3   OH240537   4.825   2.363   8.682 -0.1237  0.1241  0.2556
 6301TIP3    H140538   4.841   2.405   8.766  0.0305 -0.3307  0.4579
 6301TIP3    H240539   4.791   2.277   8.704 -2.4695  0.8749 -0.1489
 6302TIP3   OH240540   1.713   1.191   6.670 -0.4919 -0.0326 -0.6071
 6302TIP3    H140541   1.672   1.258   6.725  0.0955  0.3777 -0.6664
 6302TIP3    H240542   1.714   1.113   6.724 -1.1489  0.0123 -0.5225
 6303TIP3   OH240543   4.503   6.095   0.345 -0.2171  0.2976  0.0430
 6303TIP3    H140544   4.477   6.105   0.437 -0.7765  1.5662 -0.2210
 6303TIP3    H240545   4.493   6.183   0.309 -1.0598 -0.3949 -1.4923
 6304TIP3   OH240546   3.655   1.738   0.999 -0.1581 -0.0933  0.6173
 6304TIP3    H140547   3.713   1.809   1.024  0.9981 -1.6538  2.6475
 6304TIP3    H240548   3.669   1.727   0.905  2.4830 -0.0835  0.9521
 6305TIP3   OH240549   0.150   4.484   2.048  0.5248  0.2510 -0.3357
 6305TIP3    H140550   0.071   4.453   2.094  0.7272 -0.2612 -0.3266
 6305TIP3    H240551   0.194   4.540   2.111  0.3896  0.1891 -0.1849
 6306TIP3   OH240552   3.031   4.874   3.064 -0.2532  0.1899 -0.5915
 6306TIP3    H140553   2.959   4.890   3.124 -0.8738 -0.8585 -1.0409
 6306TIP3    H240554   3.042   4.957   3.017 -0.2262  0.7942  0.4371
 6307TIP3   OH240555   5.294   2.570   6.482 -0.1981  0.2078 -0.4017
 6307TIP3    H140556   5.284   2.520   6.563 -0.5005  2.5580  1.0878
 6307TIP3    H240557   5.387   2.588   6.476 -0.2464  0.5144 -0.2588
 6308TIP3   OH240558   3.904   5.924   1.610  0.7020 -0.0462  0.1221
 6308TIP3    H140559   3.866   5.934   1.697 -0.3599 -0.2809 -0.3093
 6308TIP3    H240560   3.929   6.012   1.584 -1.4050  0.4280 -0.4193
 6309TIP3   OH240561   4.345   5.812   1.670  0.0620  0.3442  0.4309
 6309TIP3    H140562   4.351   5.897   1.626 -0.1878  0.0861 -0.1140
 6309TIP3    H240563   4.361   5.831   1.762  3.0346  0.5846 -0.0463
 6310TIP3   OH240564   5.295   5.760   7.493  0.8949  0.5100  1.1250
 6310TIP3    H140565   5.208   5.730   7.465  1.6434 -1.0432  0.3301
 6310TIP3    H240566   5.314   5.835   7.436  0.9203 -0.4411 -0.1651
 6311TIP3   OH240567   4.947   2.007   1.138  0.3134 -0.0928 -0.2327
 6311TIP3    H140568   4.896   2.076   1.095 -1.4241 -1.4161 -0.4363
 6311TIP3    H240569   4.893   1.929   1.128  0.6557 -0.8458  2.7960
 6312TIP3   OH240570   0.627   4.387   0.213  0.1914 -0.0688 -0.3547
 6312TIP3    H140571   0.545   4.349   0.245 -1.5152  1.4555 -2.6754
 6312TIP3    H240572   0.652   4.331   0.139  1.7920 -1.0339  0.8443
 6313TIP3   OH240573   3.392   2.676   2.128  0.2626 -0.6120  0.0769
 6313TIP3    H140574   3.327   2.723   2.077 -0.0476  1.0467  1.8905
 6313TIP3    H240575   3.453   2.641   2.063 -1.2834 -0.4507 -1.5260
 6314TIP3   OH240576   5.409   3.530   8.051  0.0903  0.1774  0.2626
 6314TIP3    H140577   5.430   3.477   7.974  0.6706  1.0657 -0.1955
 6314TIP3    H240578   5.351   3.599   8.018 -1.3258 -0.6004  1.0004
 6315TIP3   OH240579   1.188   3.868   0.060 -0.1138  0.7680 -0.6493
 6315TIP3    H140580   1.253   3.908   0.118  0.9606 -0.3224 -1.0575
 6315TIP3    H240581   1.234   3.795   0.019 -1.5094  0.1679 -1.2163
 6316TIP3   OH240582   1.143   0.710   8.638  0.2576 -0.0048  0.2788
 6316TIP3    H140583   1.110   0.781   8.582 -0.1681 -1.3949 -1.3121
 6316TIP3    H240584   1.227   0.742   8.671 -0.1535  1.4182 -0.0005
 6317TIP3   OH240585   1.090   6.709   7.857  0.0413  0.5529  0.5578
 6317TIP3    H140586   1.039   6.630   7.839 -0.5840  0.2994  3.0463
 6317TIP3    H240587   1.024   6.776   7.875  0.5684  1.6660 -1.4096
 6318TIP3   OH240588   2.750   1.149   0.542 -0.3284 -0.5073  0.1377
 6318TIP3    H140589   2.693   1.077   0.568 -1.1542  0.1964  0.3071
 6318TIP3    H240590   2.697   1.202   0.482  1.2863 -1.7129 -2.5464
 6319TIP3   OH240591   0.553   6.666   1.282  0.0150 -0.4483 -0.3091
 6319TIP3    H140592   0.581   6.633   1.197  0.2847 -0.7045 -0.1256
 6319TIP3    H240593   0.459   6.678   1.274  0.1178  0.0650 -0.8211
 6320TIP3   OH240594   0.147   1.256   2.407  1.0072  0.2479 -0.0948
 6320TIP3    H140595   0.198   1.235   2.329  1.7433  1.4180  0.0454
 6320TIP3    H240596   0.074   1.194   2.406  0.7509  0.5291 -1.9433
 6321TIP3   OH240597   1.783   1.314   2.874  0.0850  0.6744 -0.0530
 6321TIP3    H140598   1.721   1.344   2.807 -0.2880  0.4088  0.1726
 6321TIP3    H240599   1.786   1.219   2.862  0.8219  0.7326 -0.3845
 6322TIP3   OH240600   3.803   5.018   6.801 -0.7818 -0.6427  0.4880
 6322TIP3    H140601   3.842   4.968   6.729  0.9793  1.0443  0.1874
 6322TIP3    H240602   3.726   5.060   6.762 -0.2917 -0.3770 -0.2131
 6323TIP3   OH240603   2.822   5.821   0.166 -0.0568  1.0421 -0.3484
 6323TIP3    H140604   2.842   5.887   0.232 -2.5739  1.2563  0.2691
 6323TIP3    H240605   2.803   5.742   0.215  2.4234 -0.1237 -1.0705
 6324TIP3   OH240606   0.784   3.387   8.495 -0.1972  0.1090 -0.0951
 6324TIP3    H140607   0.813   3.478   8.492 -0.0527  0.0381 -0.9147
 6324TIP3    H240608   0.768   3.363   8.404  2.8657 -1.6776 -0.3113
 6325TIP3   OH240609   0.319   0.393   1.254  0.6658  0.3485 -0.2476
 6325TIP3    H140610   0.344   0.312   1.299  0.0893 -0.4798 -1.3605
 6325TIP3    H240611   0.306   0.456   1.325  0.4448 -0.7159  0.7023
 6326TIP3   OH240612   4.839   3.041   0.875  0.2257  0.4275 -0.7353
 6326TIP3    H140613   4.923   3.082   0.892  0.3512 -0.4157  0.8178
 6326TIP3    H240614   4.789   3.109   0.829  1.2001  1.4994 -0.2717
 6327TIP3   OH240615   6.604   4.624   7.171 -0.3397  0.0931 -0.3580
 6327TIP3    H140616   6.690   4.667   7.167 -0.9012  1.1545 -2.8655
 6327TIP3    H240617   6.625   4.533   7.192  1.2634  0.5876  0.4071
 6328TIP3   OH240618   6.065   3.742   0.508 -0.3788 -0.0769 -0.1122
 6328TIP3    H140619   6.151   3.702   0.519 -0.5660 -0.3028  0.5735
 6328TIP3    H240620   6.083   3.831   0.478  0.1012 -0.0661  0.2003
 6329TIP3   OH240621   1.834   2.385   8.034  0.8345 -0.0840  0.0247
 6329TIP3    H140622   1.907   2.443   8.052  0.1468  0.6404  0.5412
 6329TIP3    H240623   1.838   2.369   7.939  0.3262  1.7967 -0.3581
 6330TIP3   OH240624   0.236   2.972   0.867  0.5318  0.4529  0.2394
 6330TIP3    H140625   0.193   2.995   0.950 -2.5434  1.0681 -1.3660
 6330TIP3    H240626   0.260   3.057   0.829  1.1442  0.2265  0.1176
 6331TIP3   OH240627   1.301   6.583   7.990 -0.7657 -0.2350  0.2743
 6331TIP3    H140628   1.284   6.498   7.950  0.6485 -0.7305  0.6502
 6331TIP3    H240629   1.240   6.643   7.946  0.5205 -0.7766 -2.5083
 6332TIP3   OH240630   3.595   5.278   2.620 -0.4428 -0.1866 -0.2547
 6332TIP3    H140631   3.619   5.291   2.712  0.8525  0.4757 -0.6630
 6332TIP3    H240632   3.546   5.196   2.619 -1.4986  0.3841  1.1895
 6333TIP3   OH240633   2.967   2.943   2.660 -0.4372  0.2603 -0.3703
 6333TIP3    H140634   2.953   2.889   2.582  0.7155 -2.8423  1.3953
 6333TIP3    H240635   2.883   2.939   2.707 -1.0692  1.9677 -1.2829
 6334TIP3   OH240636   5.189   1.301   1.673  0.1451  0.1701 -0.2182
 6334TIP3    H140637   5.125   1.243   1.715 -0.1939  0.9158  0.3130
 6334TIP3    H240638   5.239   1.243   1.616  1.3305 -1.1142  1.9809
 6335TIP3   OH240639   5.854   5.622   0.219  0.4249 -0.6452 -0.7604
 6335TIP3    H140640   5.828   5.713   0.213  0.6811 -0.5158 -0.0207
 6335TIP3    H240641   5.865   5.594   0.128  2.5891  0.7214 -0.9907
 6336TIP3   OH240642   0.360   0.433   7.861 -0.6464  0.0761 -0.0068
 6336TIP3    H140643   0.364   0.350   7.814 -1.3871  0.0426 -0.0231
 6336TIP3    H240644   0.381   0.411   7.951  2.4128  0.3795 -0.5296
 6337TIP3   OH240645   6.326   2.516   7.927 -0.6099  0.0756 -0.8154
 6337TIP3    H140646   6.398   2.458   7.903  0.4622  2.0001 -2.5312
 6337TIP3    H240647   6.248   2.473   7.891 -0.6251 -2.5145  1.8856
 6338TIP3   OH240648   5.871   5.642   1.012  0.5881  0.0248 -0.1089
 6338TIP3    H140649   5.939   5.622   1.076  1.6468  1.9663 -0.5742
 6338TIP3    H240650   5.813   5.704   1.056 -1.9241 -2.7032  0.8490
 6339TIP3   OH240651   6.349   2.112   0.186  0.2129  0.1721  0.1195
 6339TIP3    H140652   6.314   2.074   0.105  0.5859 -0.2007  0.1300
 6339TIP3    H240653   6.385   2.197   0.159  2.5635 -0.9689 -0.6291
 6340TIP3   OH240654   0.500   0.207   1.352  0.0697  0.0704  0.2210
 6340TIP3    H140655   0.537   0.291   1.324  1.2111 -0.1218  1.0958
 6340TIP3    H240656   0.542   0.143   1.295 -2.3437  0.1993 -1.9035
 6341TIP3   OH240657   0.339   0.311   7.000  0.0950 -0.0924 -0.0058
 6341TIP3    H140658   0.373   0.228   7.034 -0.6846 -0.6257 -0.5021
 6341TIP3    H240659   0.259   0.287   6.953 -2.2562  1.3133  2.9113
 6342TIP3   OH240660   4.995   1.619   1.619 -0.5374 -0.0425 -0.5806
 6342TIP3    H140661   4.980   1.536   1.575 -0.5604 -0.2876 -0.1201
 6342TIP3    H240662   5.069   1.659   1.573 -1.5840  0.4597 -1.8789
 6343TIP3   OH240663   1.954   0.543   0.080 -0.3258  0.1342 -0.1457
 6343TIP3    H140664   2.032   0.565   0.029  0.8241  1.2989  1.9919
 6343TIP3    H240665   1.944   0.449   0.069  0.6262  0.1493 -1.4285
 6344TIP3   OH240666   0.834   5.821   1.707 -0.2143 -0.0626  0.2776
 6344TIP3    H140667   0.895   5.809   1.779  1.1031  1.5137 -0.5189
 6344TIP3    H240668   0.852   5.909   1.674 -0.6021 -0.8111 -2.1320
 6345TIP3   OH240669   6.120   2.939   7.918 -0.3089  0.4948  0.5129
 6345TIP3    H140670   6.055   2.965   7.853 -0.0966  0.3765  0.2531
 6345TIP3    H240671   6.197   2.915   7.867  0.3588  1.7878  0.8656
 6346TIP3   OH240672   0.893   4.891   1.689  0.2525  0.1141  0.3765
 6346TIP3    H140673   0.953   4.908   1.761 -1.0318  2.4760  0.9755
 6346TIP3    H240674   0.809   4.874   1.731 -0.2048  0.0327 -0.5374
 6347TIP3   OH240675   1.009   4.365   2.049 -0.3994 -0.1292 -0.1715
 6347TIP3    H140676   1.080   4.391   2.108 -0.4257  3.1388 -1.3721
 6347TIP3    H240677   1.040   4.391   1.962 -1.5102 -2.2425 -1.2584
 6348TIP3   OH240678   3.196   5.697   2.547  0.1032  0.0110  0.1658
 6348TIP3    H140679   3.161   5.755   2.480 -0.2175  0.7692  0.9690
 6348TIP3    H240680   3.140   5.620   2.544  0.2508 -0.0725 -0.6068
 6349TIP3   OH240681   5.834   0.872   1.839 -0.2240 -0.1469 -0.6161
 6349TIP3    H140682   5.860   0.956   1.801  1.3303  0.1959  1.0879
 6349TIP3    H240683   5.916   0.833   1.869 -1.0712 -1.7094 -0.2520
 6350TIP3   OH240684   2.942   1.148   6.739 -0.4021  0.2160 -0.5738
 6350TIP3    H140685   3.030   1.123   6.768 -0.0236  0.8015 -1.1987
 6350TIP3    H240686   2.946   1.243   6.730 -1.7197  0.5245  1.4109
 6351TIP3   OH240687   5.108   3.040   2.490  0.8066 -0.8704 -0.3119
 6351TIP3    H140688   5.139   3.065   2.577 -0.7652  1.5636 -0.3563
 6351TIP3    H240689   5.178   3.067   2.431  0.8251 -0.2590 -0.0097
 6352TIP3   OH240690   4.427   5.189   8.633 -0.4714 -0.2886 -0.0067
 6352TIP3    H140691   4.518   5.169   8.612 -1.1384 -3.7545 -0.1502
 6352TIP3    H240692   4.390   5.222   8.552  0.9251  2.6924  0.4499
 6353TIP3   OH240693   1.536   3.554   0.239  0.0581 -0.3460 -0.2448
 6353TIP3    H140694   1.487   3.475   0.260  1.2294 -1.5033 -1.5725
 6353TIP3    H240695   1.624   3.522   0.218  0.5122  1.2985 -1.0182
 6354TIP3   OH240696   2.184   0.948   7.723 -0.2989 -0.1605 -0.3463
 6354TIP3    H140697   2.255   0.927   7.662 -0.4441 -2.0609  0.0815
 6354TIP3    H240698   2.111   0.973   7.666 -0.5534 -2.2553 -1.0352
 6355TIP3   OH240699   0.199   5.470   7.212 -0.0365  0.1131  0.6213
 6355TIP3    H140700   0.244   5.426   7.285  0.9523  0.4136  0.2099
 6355TIP3    H240701   0.270   5.503   7.157 -0.7758  0.4601 -0.1386
 6356TIP3   OH240702   6.280   6.757   0.802  0.9071 -0.2631 -0.4648
 6356TIP3    H140703   6.361   6.706   0.790  1.2326 -0.0065  0.5937
 6356TIP3    H240704   6.305   6.847   0.783  0.7591 -0.2408 -0.5592
 6357TIP3   OH240705   1.847   5.918   8.698  0.0398  0.4836 -0.0007
 6357TIP3    H140706   1.932   5.893   8.662 -0.4850 -0.5329 -0.5737
 6357TIP3    H240707   1.862   5.922   8.793  1.1024  1.8851 -0.1859
 6358TIP3   OH240708   5.231   0.381   8.915 -0.2073 -0.1573 -0.2619
 6358TIP3    H140709   5.253   0.297   8.876 -0.2449  0.1345 -0.9294
 6358TIP3    H240710   5.145   0.403   8.878 -0.2984  0.0673  0.0810
 6359TIP3   OH240711   0.171   4.987   0.564 -0.3421  0.1897  0.2702
 6359TIP3    H140712   0.162   4.987   0.660  1.0978 -0.3520  0.4366
 6359TIP3    H240713   0.115   4.916   0.535 -2.9051  1.9972  0.4143
 6360TIP3   OH240714   4.175   4.340   8.959 -0.8307  0.1396 -0.3609
 6360TIP3    H140715   4.080   4.354   8.953 -0.9753 -0.6528 -0.1200
 6360TIP3    H240716   4.198   4.299   8.875 -0.5481  1.0999 -0.7610
 6361TIP3   OH240717   5.721   5.134   2.189  0.7350  0.0356 -0.6973
 6361TIP3    H140718   5.731   5.063   2.253 -0.8647 -1.0302 -1.5307
 6361TIP3    H240719   5.796   5.124   2.130 -0.2043 -1.9841 -1.6675
 6362TIP3   OH240720   5.584   1.047   0.153  0.1548 -0.1745 -0.6365
 6362TIP3    H140721   5.669   1.091   0.148  0.1017  0.0402  0.2342
 6362TIP3    H240722   5.564   1.024   0.062 -0.0705  2.0615 -1.2038
 6363TIP3   OH240723   4.985   1.651   2.459 -0.2782  0.5067 -0.2130
 6363TIP3    H140724   4.901   1.647   2.507 -0.3749 -1.2794 -0.4723
 6363TIP3    H240725   5.040   1.708   2.513 -1.1683  0.4855  0.7540
 6364TIP3   OH240726   5.916   4.310   7.401 -1.2838  0.1683 -0.3732
 6364TIP3    H140727   5.949   4.399   7.410 -0.1255 -0.3560  1.0342
 6364TIP3    H240728   5.891   4.303   7.308  0.9851  1.1787 -1.1461
 6365TIP3   OH240729   5.948   2.625   2.202 -0.0886  0.1335 -0.3255
 6365TIP3    H140730   5.900   2.552   2.240 -0.4552  0.1681 -0.7187
 6365TIP3    H240731   5.957   2.688   2.274  1.6459 -0.9652  0.4727
 6366TIP3   OH240732   3.511   0.508   1.588  0.1589  0.1154  0.1252
 6366TIP3    H140733   3.482   0.510   1.679  0.8127 -1.0952  0.3919
 6366TIP3    H240734   3.605   0.526   1.593  0.2939 -0.4571 -0.2528
 6367TIP3   OH240735   6.112   0.587   1.092 -0.5485  0.3472 -0.2443
 6367TIP3    H140736   6.118   0.582   1.188  1.5035  0.7942 -0.3145
 6367TIP3    H240737   6.079   0.502   1.066  0.2022 -0.2832  0.7896
 6368TIP3   OH240738   4.434   5.945   1.993 -0.0758 -0.3619 -0.3607
 6368TIP3    H140739   4.466   5.857   1.975  0.4317 -0.5200  1.2057
 6368TIP3    H240740   4.504   5.987   2.043 -0.8593  0.4686  0.0695
 6369TIP3   OH240741   0.554   1.933   7.648 -0.0919  0.3452  0.1759
 6369TIP3    H140742   0.480   1.897   7.598  0.0736 -2.2344  1.5793
 6369TIP3    H240743   0.631   1.915   7.594 -0.1215 -0.5981  0.4276
 6370TIP3   OH240744   0.283   2.415   8.840  0.1615 -0.6022  0.4889
 6370TIP3    H140745   0.234   2.365   8.905 -1.2558 -1.3608 -1.1043
 6370TIP3    H240746   0.224   2.423   8.765  1.6479  0.4494 -0.6450
 6371TIP3   OH240747   4.595   3.553   8.276  0.1905 -0.1395 -0.3757
 6371TIP3    H140748   4.595   3.623   8.211 -0.3243 -0.2932 -0.5452
 6371TIP3    H240749   4.503   3.525   8.281  0.3130 -0.4758  0.0395
 6372TIP3   OH240750   5.840   3.942   7.379  0.0805 -0.1516 -0.7123
 6372TIP3    H140751   5.802   4.005   7.318  0.6671  2.0079  1.0201
 6372TIP3    H240752   5.934   3.942   7.358 -0.2151 -2.7237 -2.5709
 6373TIP3   OH240753   1.370   0.955   1.251 -0.0243  0.1089 -0.2197
 6373TIP3    H140754   1.446   0.950   1.310 -0.6949 -2.0873  0.5422
 6373TIP3    H240755   1.307   1.009   1.299  0.1188 -0.1517  0.2706
 6374TIP3   OH240756   0.246   6.387   0.194  0.6637  0.1827  0.1318
 6374TIP3    H140757   0.190   6.385   0.116  0.0373  1.2298  0.5339
 6374TIP3    H240758   0.253   6.480   0.216  1.0577 -0.0788  1.1680
 6375TIP3   OH240759   1.326   2.193   0.546  0.2262 -0.5380  0.0369
 6375TIP3    H140760   1.392   2.210   0.479  0.1450  0.0698  0.1050
 6375TIP3    H240761   1.291   2.279   0.568 -0.0213 -0.7711  0.5843
 6376TIP3   OH240762   2.786   2.387   0.606 -0.2515  0.3327  0.5697
 6376TIP3    H140763   2.735   2.353   0.680  1.0405 -1.6149  0.6358
 6376TIP3    H240764   2.840   2.313   0.578  0.9999  1.7113 -0.8438
 6377TIP3   OH240765   2.594   4.094   2.038  0.4816  0.0885 -0.5947
 6377TIP3    H140766   2.522   4.035   2.017  2.7645 -2.2258 -2.6432
 6377TIP3    H240767   2.579   4.120   2.128 -1.4643 -2.4729 -0.0863
 6378TIP3   OH240768   3.598   1.942   1.639 -0.4157 -0.7681 -0.0928
 6378TIP3    H140769   3.670   1.887   1.668 -0.8791 -1.1106  0.4380
 6378TIP3    H240770   3.543   1.951   1.717 -1.4043 -1.2484 -0.7213
 6379TIP3   OH240771   3.448   4.539   1.123  0.3294  0.0748  0.7204
 6379TIP3    H140772   3.504   4.615   1.138 -0.1220  0.9134 -1.5199
 6379TIP3    H240773   3.508   4.470   1.095  0.7784 -0.5682  3.0437
 6380TIP3   OH240774   1.463   5.277   8.730  0.8615 -0.3485 -0.0948
 6380TIP3    H140775   1.478   5.321   8.814  2.1925 -2.5030  0.8830
 6380TIP3    H240776   1.379   5.233   8.741 -0.0882  1.2100 -0.7892
 6381TIP3   OH240777   6.620   0.803   1.795  0.1958  0.4866 -0.1684
 6381TIP3    H140778   6.655   0.850   1.719 -0.3622 -1.9363 -2.0633
 6381TIP3    H240779   6.537   0.767   1.765 -0.0656 -0.5066  1.6177
 6382TIP3   OH240780   3.238   6.600   0.180 -0.1624  0.1778 -0.5780
 6382TIP3    H140781   3.302   6.653   0.228  0.1039 -1.9721  1.6020
 6382TIP3    H240782   3.154   6.621   0.220 -0.0587 -0.9776  0.2758
 6383TIP3   OH240783   6.245   4.547   0.174 -0.4031  0.6865  0.0182
 6383TIP3    H140784   6.236   4.574   0.083 -1.1944  3.2231  0.7717
 6383TIP3    H240785   6.155   4.538   0.206 -0.1682 -1.5589  0.2648
 6384TIP3   OH240786   0.296   0.748   2.361 -0.2757  0.5724 -0.1056
 6384TIP3    H140787   0.324   0.833   2.394 -0.1477 -0.1366  1.7080
 6384TIP3    H240788   0.210   0.734   2.401  0.5000 -0.9265  1.1345
 6385TIP3   OH240789   5.222   5.147   7.949  0.2276  0.2229  0.4866
 6385TIP3    H140790   5.318   5.148   7.950  0.4177 -3.3614 -0.4846
 6385TIP3    H240791   5.199   5.057   7.929 -3.4091  0.9912  0.4735
 6386TIP3   OH240792   2.623   3.489   1.744  0.2409 -0.4390  0.5558
 6386TIP3    H140793   2.583   3.575   1.755  0.2367  0.2102 -3.1559
 6386TIP3    H240794   2.552   3.432   1.714  0.6836 -1.1556  0.8408
 6387TIP3   OH240795   5.794   3.649   1.341 -0.7385  0.1351  0.1830
 6387TIP3    H140796   5.771   3.604   1.260 -0.7604 -0.1549  0.3483
 6387TIP3    H240797   5.726   3.715   1.352 -1.4515 -0.6559  0.6198
 6388TIP3   OH240798   0.462   4.997   6.939 -0.3833  0.1651 -0.1975
 6388TIP3    H140799   0.541   4.981   6.887  0.1284  3.4376 -0.6002
 6388TIP3    H240800   0.405   5.048   6.881 -2.1308 -0.7302  0.6581
 6389TIP3   OH240801   6.540   5.519   8.115  0.7083  0.3477  0.3330
 6389TIP3    H140802   6.496   5.439   8.144 -0.5225  1.0663  0.5335
 6389TIP3    H240803   6.576   5.497   8.029  0.4162 -0.4285  0.4032
 6390TIP3   OH240804   1.991   0.118   8.108  0.1320  0.5912  0.1845
 6390TIP3    H140805   1.983   0.023   8.095  0.2452  0.5235  0.5828
 6390TIP3    H240806   2.012   0.153   8.022  2.1865  0.0103  0.3997
 6391TIP3   OH240807   3.624   3.009   7.337 -0.3509  0.8776 -0.0741
 6391TIP3    H140808   3.691   3.043   7.278 -0.7212  2.8220  0.5674
 6391TIP3    H240809   3.566   2.958   7.281  1.2371 -0.2566 -0.7589
 6392TIP3   OH240810   4.527   2.620   8.439  0.6409  0.3513 -0.4591
 6392TIP3    H140811   4.471   2.674   8.495 -0.9570 -1.3055 -0.3541
 6392TIP3    H240812   4.466   2.560   8.395  2.1844 -0.4343 -1.6330
 6393TIP3   OH240813   0.356   2.596   0.075 -0.7015 -0.1043  0.0475
 6393TIP3    H140814   0.434   2.549   0.105 -0.2837  0.8364  0.4650
 6393TIP3    H240815   0.348   2.571  -0.017  1.3067  1.3584 -0.5939
 6394TIP3   OH240816   2.845   2.996   2.018  0.5609  0.5185  0.0157
 6394TIP3    H140817   2.909   2.948   1.965  2.0982  2.8639 -0.4284
 6394TIP3    H240818   2.838   2.945   2.098  1.1648 -1.0604 -0.8851
 6395TIP3   OH240819   1.381   3.575   0.972 -0.3709 -1.0221 -0.1748
 6395TIP3    H140820   1.439   3.582   1.048 -0.2443  1.3879 -0.4131
 6395TIP3    H240821   1.439   3.590   0.897 -1.0527  0.0384 -0.5039
 6396TIP3   OH240822   1.174   0.526   7.432 -0.1257 -0.0381  0.3408
 6396TIP3    H140823   1.201   0.590   7.366 -1.6480 -1.2649 -1.5741
 6396TIP3    H240824   1.255   0.501   7.476  0.5755  2.9228  0.9631
 6397TIP3   OH240825   6.327   0.032   7.239  0.9971  0.0145  0.4773
 6397TIP3    H140826   6.403   0.060   7.188  0.1802 -0.3101 -0.9810
 6397TIP3    H240827   6.254   0.082   7.203  0.2059 -1.0231  0.5985
 6398TIP3   OH240828   5.276   2.739   1.423  0.2553 -0.0539 -0.3941
 6398TIP3    H140829   5.189   2.708   1.399 -0.5127  1.2274  0.5722
 6398TIP3    H240830   5.300   2.801   1.354  1.4643 -2.0972 -1.9186
 6399TIP3   OH240831   2.313   2.060   7.685  0.2486  0.2115 -0.0260
 6399TIP3    H140832   2.369   2.001   7.635 -0.5937 -0.2825 -0.4099
 6399TIP3    H240833   2.328   2.146   7.646 -0.1177 -0.1089 -0.8842
 6400TIP3   OH240834   6.765   3.198   1.752  0.0662  0.4709 -0.6673
 6400TIP3    H140835   6.758   3.108   1.783 -2.0034  1.6659  2.9006
 6400TIP3    H240836   6.675   3.229   1.749  0.7547  2.5708 -1.3598
 6401TIP3   OH240837   2.880   2.993   7.474 -0.1357  0.0682  0.0769
 6401TIP3    H140838   2.829   2.999   7.393 -0.3040  1.3058  0.2554
 6401TIP3    H240839   2.900   3.084   7.496  2.1367 -0.3794  0.0496
 6402TIP3   OH240840   2.667   2.590   7.709  0.1956 -0.5259 -0.3681
 6402TIP3    H140841   2.594   2.653   7.703  0.3190 -0.3083  0.4161
 6402TIP3    H240842   2.744   2.641   7.684  0.3765 -0.2142  0.8017
 6403TIP3   OH240843   5.569   4.176   8.635 -0.2129 -0.3373 -0.3122
 6403TIP3    H140844   5.568   4.133   8.720  0.4943 -2.6147 -1.3742
 6403TIP3    H240845   5.661   4.172   8.608 -0.6440 -1.0064 -1.7876
 6404TIP3   OH240846   2.666   4.306   1.615 -0.5223  0.2965  0.5378
 6404TIP3    H140847   2.682   4.233   1.676  0.5238  1.1902  1.3758
 6404TIP3    H240848   2.648   4.264   1.531  0.8982 -0.9213  0.8059
 6405TIP3   OH240849   4.201   6.316   1.609 -0.0631  0.2707  1.1443
 6405TIP3    H140850   4.272   6.259   1.579 -0.7089  0.0512  0.0036
 6405TIP3    H240851   4.201   6.389   1.547 -1.6930 -0.4042  0.3049
 6406TIP3   OH240852   1.563   3.175   1.079  0.0134 -0.1385 -0.0796
 6406TIP3    H140853   1.583   3.267   1.066 -0.2001  0.0428  0.8243
 6406TIP3    H240854   1.583   3.134   0.995  1.2807  0.5191 -0.1142
 6407TIP3   OH240855   3.031   1.279   1.732 -0.5573  0.2371 -0.3129
 6407TIP3    H140856   3.079   1.360   1.718  0.2138 -0.0217  0.7098
 6407TIP3    H240857   3.099   1.212   1.742 -1.1813 -0.5338 -1.0778
 6408TIP3   OH240858   3.459   4.173   1.044 -0.2430 -0.3729 -0.1123
 6408TIP3    H140859   3.487   4.154   0.954 -0.7844  1.5292 -0.7318
 6408TIP3    H240860   3.380   4.226   1.034 -0.4070 -0.2686  1.4961
 6409TIP3   OH240861   3.434   5.750   7.352  0.0943  0.2969 -0.1716
 6409TIP3    H140862   3.383   5.794   7.420 -1.7567  1.0620 -1.9672
 6409TIP3    H240863   3.377   5.751   7.275  1.8181 -1.2129 -1.5372
 6410TIP3   OH240864   4.339   6.311   8.044  0.0549  0.1169 -0.3516
 6410TIP3    H140865   4.274   6.328   8.112 -0.7418 -2.6462 -0.3054
 6410TIP3    H240866   4.423   6.320   8.088 -0.2818  2.2218 -0.0342
 6411TIP3   OH240867   5.550   3.262   0.758  0.0902  0.0160  0.2320
 6411TIP3    H140868   5.511   3.296   0.677  0.3469 -0.8099 -0.2554
 6411TIP3    H240869   5.477   3.225   0.807 -0.2790  1.6656  1.0089
 6412TIP3   OH240870   6.647   2.673   0.374 -0.2104  0.7528 -0.2377
 6412TIP3    H140871   6.653   2.768   0.373  0.2528  0.7257 -1.0779
 6412TIP3    H240872   6.719   2.644   0.319 -0.6747 -0.0601 -0.4335
 6413TIP3   OH240873   1.413   0.337   8.555  0.2363 -0.1142  0.3766
 6413TIP3    H140874   1.370   0.262   8.514  1.3302 -0.4514 -0.1854
 6413TIP3    H240875   1.357   0.359   8.629 -0.2577 -1.3058  0.3809
 6414TIP3   OH240876   4.671   6.647   0.754  0.0864  0.1359 -0.1695
 6414TIP3    H140877   4.665   6.634   0.849 -0.0707 -0.2511 -0.2292
 6414TIP3    H240878   4.764   6.641   0.735  0.2833  1.7800  0.1722
 6415TIP3   OH240879   3.977   1.697   0.767  0.5940  0.2871 -0.0771
 6415TIP3    H140880   3.916   1.630   0.799  0.3505  0.1204 -0.8817
 6415TIP3    H240881   4.037   1.649   0.709  1.4000  0.4800  0.5692
 6416TIP3   OH240882   1.998   5.555   7.625 -0.0208  0.2344  0.2081
 6416TIP3    H140883   1.951   5.541   7.708  0.5367  1.4318  0.7479
 6416TIP3    H240884   1.929   5.575   7.562 -0.3524  0.5035  0.6519
 6417TIP3   OH240885   2.776   0.024   8.652  0.6198  0.4674  0.0718
 6417TIP3    H140886   2.771   0.048   8.559 -0.6140 -1.0979 -0.3106
 6417TIP3    H240887   2.826  -0.057   8.653  1.1299  0.7877  0.8508
 6418TIP3   OH240888   0.006   6.586   7.176  0.5995 -0.2441  0.5703
 6418TIP3    H140889  -0.019   6.570   7.085 -1.0114 -0.3074  1.0022
 6418TIP3    H240890   0.000   6.681   7.186  0.0356 -0.2998  0.8029
 6419TIP3   OH240891   2.806   4.071   1.581 -0.0710  0.3508 -0.2964
 6419TIP3    H140892   2.893   4.088   1.546  0.4989 -1.6433 -0.0061
 6419TIP3    H240893   2.804   4.116   1.665 -0.1907  2.3021 -1.2976
 6420TIP3   OH240894   1.837   0.066   1.835 -0.1133  1.0773  0.0474
 6420TIP3    H140895   1.928   0.066   1.865 -0.4680  0.7520  1.1579
 6420TIP3    H240896   1.785   0.069   1.915 -1.0878  2.2208 -0.5919
 6421TIP3   OH240897   0.617   4.068   0.533  0.3512 -0.2141 -0.2708
 6421TIP3    H140898   0.590   4.062   0.624  0.1456  1.0799 -0.2148
 6421TIP3    H240899   0.648   3.981   0.510 -0.8542 -0.9143  0.6344
 6422TIP3   OH240900   2.042   0.274   0.412  0.1971  0.2310 -0.1407
 6422TIP3    H140901   1.950   0.292   0.432 -0.1338 -1.4166 -0.0882
 6422TIP3    H240902   2.042   0.249   0.320 -0.0737 -3.5489  0.7290
 6423TIP3   OH240903   1.768   0.650   8.080 -0.3870 -0.4191 -0.0834
 6423TIP3    H140904   1.779   0.620   7.990  0.2158  0.6235 -0.3720
 6423TIP3    H240905   1.837   0.606   8.129 -0.1242 -0.2505 -0.3058
 6424TIP3   OH240906   4.572   1.107   8.476  0.0055  0.4000  0.0338
 6424TIP3    H140907   4.632   1.181   8.470  0.7147 -0.2504 -1.5618
 6424TIP3    H240908   4.624   1.032   8.449 -1.5762 -0.1513 -1.7113
 6425TIP3   OH240909   0.032   5.958   0.010 -0.5915  0.4642 -0.5008
 6425TIP3    H140910   0.018   5.961   0.105 -1.7549 -2.4975 -0.4704
 6425TIP3    H240911   0.053   5.867  -0.008 -2.2368  0.5275 -3.2816
 6426TIP3   OH240912   3.146   5.653   1.942 -0.2122 -0.1235  0.3254
 6426TIP3    H140913   3.116   5.675   2.030 -1.1999 -0.8327  0.1760
 6426TIP3    H240914   3.089   5.703   1.884 -0.3295 -0.5622  0.0627
 6427TIP3   OH240915   2.701   2.513   0.362  0.1492 -0.5252 -0.4347
 6427TIP3    H140916   2.747   2.469   0.433  0.2980  1.1156  0.5354
 6427TIP3    H240917   2.769   2.537   0.300  0.2714 -0.3901 -0.2513
 6428TIP3   OH240918   5.285   5.829   7.930  0.2164 -0.2239 -0.1379
 6428TIP3    H140919   5.253   5.745   7.964  0.3982 -0.2436 -0.0111
 6428TIP3    H240920   5.355   5.805   7.869 -0.3873 -0.2066 -0.8468
 6429TIP3   OH240921   1.393   6.591   8.257  0.1767 -0.4802 -0.5717
 6429TIP3    H140922   1.307   6.616   8.291  0.7818 -1.7472  2.1741
 6429TIP3    H240923   1.379   6.581   8.162 -1.9822  1.9883 -0.6492
 6430TIP3   OH240924   5.096   3.455   1.176 -0.5081 -0.1326  0.7231
 6430TIP3    H140925   5.052   3.379   1.137 -1.3100  1.5399 -1.8014
 6430TIP3    H240926   5.103   3.518   1.105  1.9216  1.4488  2.2473
 6431TIP3   OH240927   1.210   4.973   2.146 -0.0140 -0.5339 -0.6229
 6431TIP3    H140928   1.254   4.898   2.186 -0.2810  0.4604  1.6691
 6431TIP3    H240929   1.212   4.954   2.052  2.9125 -1.8051 -0.4239
 6432TIP3   OH240930   0.571   5.814   7.239  0.0401  0.1466 -0.1764
 6432TIP3    H140931   0.639   5.842   7.178 -0.1001  0.4731 -0.1869
 6432TIP3    H240932   0.511   5.762   7.185 -0.2341  0.6711 -0.3810
 6433TIP3   OH240933   1.030   2.920   1.857 -0.1316  0.3267  0.3759
 6433TIP3    H140934   1.081   2.843   1.881 -2.0329 -0.8625  0.8019
 6433TIP3    H240935   0.998   2.955   1.941 -0.2666  0.8824  0.1014
 6434TIP3   OH240936   2.664   4.996   0.451 -0.0238  0.4065 -0.2159
 6434TIP3    H140937   2.688   4.957   0.367 -0.8441 -1.9454  0.5499
 6434TIP3    H240938   2.743   5.042   0.480  1.2891 -1.2646 -0.9274
 6435TIP3   OH240939   0.729   5.423   8.737  0.4042 -0.0769 -0.5919
 6435TIP3    H140940   0.685   5.508   8.727 -1.2711 -0.7098  0.7809
 6435TIP3    H240941   0.807   5.442   8.789 -0.7846  0.4402  1.0841
 6436TIP3   OH240942   4.450   4.443   6.785  0.3787 -0.2896  0.0971
 6436TIP3    H140943   4.522   4.388   6.818  1.1525  1.1650  0.9492
 6436TIP3    H240944   4.447   4.517   6.847 -1.7601 -0.2401 -0.0224
 6437TIP3   OH240945   1.625   0.192   2.538 -0.3828  0.3280  0.4908
 6437TIP3    H140946   1.627   0.288   2.531 -1.4170  0.3860  0.8295
 6437TIP3    H240947   1.552   0.174   2.596 -1.1925 -0.7250 -0.7977
 6438TIP3   OH240948   3.676   6.137   1.016  0.1269 -0.3044 -0.7274
 6438TIP3    H140949   3.625   6.124   0.937 -1.3718  0.2324  0.1220
 6438TIP3    H240950   3.614   6.127   1.088  1.1638  0.5405  0.3477
 6439TIP3   OH240951   4.895   1.478   8.556  0.0407 -0.0175  0.4857
 6439TIP3    H140952   4.894   1.559   8.606 -0.5806  0.1334  0.2353
 6439TIP3    H240953   4.839   1.418   8.604  1.9300 -0.9312  1.6666
 6440TIP3   OH240954   2.812   4.601   0.775  0.3818  0.2847  0.7582
 6440TIP3    H140955   2.871   4.535   0.740 -2.4053 -1.7709 -0.4418
 6440TIP3    H240956   2.819   4.674   0.714  0.6557 -0.4721 -0.1332
 6441TIP3   OH240957   1.736   5.001   6.821  0.3275  0.1739 -0.1302
 6441TIP3    H140958   1.746   5.071   6.757  0.3860  0.2164 -0.0757
 6441TIP3    H240959   1.824   4.963   6.829  0.6695  1.1474  1.0326
 6442TIP3   OH240960   1.160   1.088   2.471  0.0323 -0.4910  0.2594
 6442TIP3    H140961   1.090   1.051   2.525 -1.4582 -1.3442 -2.0743
 6442TIP3    H240962   1.210   1.012   2.441  0.3112 -0.1229 -0.2251
 6443TIP3   OH240963   3.416   3.053   0.440 -0.1512 -0.4671 -0.1377
 6443TIP3    H140964   3.363   3.032   0.363  0.1715  0.9622 -0.7986
 6443TIP3    H240965   3.372   3.128   0.479  0.4563 -0.3121  0.2686
 6444TIP3   OH240966   5.230   1.187   8.349  0.2859 -0.2501  0.0797
 6444TIP3    H140967   5.185   1.107   8.320 -0.1955 -0.3921  1.1867
 6444TIP3    H240968   5.159   1.251   8.358  0.4870 -0.0975  0.5577
 6445TIP3   OH240969   4.717   3.083   7.522 -0.0250  0.2777  0.0971
 6445TIP3    H140970   4.715   3.178   7.514 -1.2002  0.2905  0.3036
 6445TIP3    H240971   4.653   3.064   7.592  0.0024 -0.6680 -0.1270
 6446TIP3   OH240972   3.298   1.235   8.303  0.5439 -0.3989  0.3904
 6446TIP3    H140973   3.240   1.217   8.229 -0.6191  1.5230  0.7626
 6446TIP3    H240974   3.273   1.323   8.332  1.3705 -0.8562  2.7057
 6447TIP3   OH240975   1.245   2.117   6.959 -0.3950  0.2387 -0.5144
 6447TIP3    H140976   1.160   2.084   6.932 -0.2632 -1.6405  1.1366
 6447TIP3    H240977   1.304   2.092   6.888 -0.8673 -0.2842 -0.7336
 6448TIP3   OH240978   0.876   1.609   7.621  0.7457 -0.5047  0.7005
 6448TIP3    H140979   0.852   1.576   7.707  0.1608 -1.0418  0.3391
 6448TIP3    H240980   0.796   1.650   7.587 -0.2783 -3.6575 -1.1508
 6449TIP3   OH240981   5.561   0.338   0.250  0.4190 -0.2510  0.0952
 6449TIP3    H140982   5.481   0.288   0.265  0.9005 -0.9159  0.5244
 6449TIP3    H240983   5.601   0.347   0.337  1.3288 -0.8377 -0.2446
 6450TIP3   OH240984   0.950   6.516   8.082 -0.3037 -0.0237  0.4090
 6450TIP3    H140985   0.935   6.422   8.075 -0.2803  0.0465 -0.7296
 6450TIP3    H240986   0.983   6.542   7.996 -0.7677  1.1028  0.5491
 6451TIP3   OH240987   2.871   0.948   8.733  0.1061 -0.6336 -0.1256
 6451TIP3    H140988   2.827   0.879   8.781  1.6619 -0.4288  1.6889
 6451TIP3    H240989   2.942   0.904   8.687 -0.3231 -0.5579 -0.8884
 6452TIP3   OH240990   0.923   1.321   7.852  0.3046 -0.0421 -0.2428
 6452TIP3    H140991   0.837   1.364   7.848  0.7155  0.6803 -1.5716
 6452TIP3    H240992   0.986   1.392   7.852  0.9382 -0.5928 -0.1919
 6453TIP3   OH240993   2.410   5.789   1.378 -0.0372  0.0598 -0.6539
 6453TIP3    H140994   2.446   5.833   1.455 -1.4194 -1.3217  0.8675
 6453TIP3    H240995   2.469   5.814   1.306  0.9068  1.9485  0.6849
 6454TIP3   OH240996   3.580   3.913   7.277  0.0617  0.1641 -1.1080
 6454TIP3    H140997   3.574   3.829   7.323 -1.3463 -0.2940 -2.0470
 6454TIP3    H240998   3.653   3.902   7.216  0.1973 -0.2016 -0.8811
 6455TIP3   OH240999   1.607   5.578   1.942 -0.6384 -0.7023 -0.6874
 6455TIP3    H141000   1.594   5.559   1.849 -0.9469 -2.9639 -0.2412
 6455TIP3    H241001   1.671   5.649   1.943 -0.8776 -0.4120 -2.6306
 6456TIP3   OH241002   6.740   4.083   1.909  0.0493  0.3247 -0.2049
 6456TIP3    H141003   6.716   4.003   1.957  1.4908 -1.2245 -1.8874
 6456TIP3    H241004   6.732   4.153   1.973  0.2286 -1.3821  1.8053
 6457TIP3   OH241005   4.534   0.716   7.376  0.0975  0.1804  0.9289
 6457TIP3    H141006   4.576   0.737   7.459 -1.7040 -0.2824  2.0145
 6457TIP3    H241007   4.449   0.760   7.381  0.2858  0.8642 -1.0639
 6458TIP3   OH241008   4.257   3.732   2.488  0.0514  0.7590  0.2488
 6458TIP3    H141009   4.200   3.748   2.564  0.3375  1.0092  0.4121
 6458TIP3    H241010   4.346   3.735   2.523  0.2480  2.0483 -0.2790
 6459TIP3   OH241011   3.201   4.329   0.070  0.0160 -0.0322  0.1845
 6459TIP3    H141012   3.286   4.345   0.109  0.1649  0.7658 -0.4416
 6459TIP3    H241013   3.158   4.415   0.068 -0.0381 -0.0686 -1.2526
 6460TIP3   OH241014   5.054   2.821   8.193 -0.1740 -0.5291  0.0814
 6460TIP3    H141015   5.138   2.867   8.196  0.4984 -1.7409  0.6602
 6460TIP3    H241016   5.052   2.782   8.106 -1.1995  1.3308 -0.7971
 6461TIP3   OH241017   3.845   3.190   8.553 -0.1035  0.2176 -0.4263
 6461TIP3    H141018   3.843   3.285   8.562 -0.3920  0.2365 -0.6613
 6461TIP3    H241019   3.844   3.175   8.458  0.1074 -0.0169 -0.3924
 6462TIP3   OH241020   2.706   6.082   1.069  0.5145  0.1897  0.6074
 6462TIP3    H141021   2.746   6.162   1.036 -1.7744  0.9682 -0.4144
 6462TIP3    H241022   2.737   6.014   1.009 -0.3281  0.9130 -0.6740
 6463TIP3   OH241023   2.454   0.288   7.510 -0.2559  0.0398  0.3851
 6463TIP3    H141024   2.448   0.383   7.506  1.0112  0.0770 -1.3768
 6463TIP3    H241025   2.505   0.270   7.589  0.8230  0.8933 -0.1060
 6464TIP3   OH241026   0.832   4.917   7.909  0.2159  0.8953 -0.1285
 6464TIP3    H141027   0.764   4.884   7.967  0.9138  0.8290  0.6671
 6464TIP3    H241028   0.869   4.992   7.955  1.5375  0.1594  0.0487
 6465TIP3   OH241029   2.171   1.122   8.924 -0.3354 -0.6923 -0.0550
 6465TIP3    H141030   2.128   1.149   9.005 -1.0668 -0.9273 -0.3661
 6465TIP3    H241031   2.247   1.181   8.917 -0.6803 -0.1855  0.4158
 6466TIP3   OH241032   5.554   0.320   7.676  0.0744 -0.3087 -0.1997
 6466TIP3    H141033   5.460   0.299   7.681  0.4207 -1.8338  0.2960
 6466TIP3    H241034   5.559   0.411   7.706 -1.2380 -0.1997 -0.2139
 6467TIP3   OH241035   0.231   4.106   1.310  0.2009  0.7934 -0.2464
 6467TIP3    H141036   0.300   4.081   1.249 -0.1545  1.2799 -0.8519
 6467TIP3    H241037   0.149   4.085   1.264 -0.0689  0.4992  0.3454
 6468TIP3   OH241038   3.289   2.084   8.696 -0.2241  0.0224 -0.7501
 6468TIP3    H141039   3.369   2.038   8.671 -0.5362 -0.8728 -0.1461
 6468TIP3    H241040   3.307   2.176   8.675  0.6076 -0.2908 -1.4841
 6469TIP3   OH241041   4.478   5.671   8.197  1.4088 -0.1685  0.0336
 6469TIP3    H141042   4.518   5.714   8.122 -1.5448  1.5578 -0.7026
 6469TIP3    H241043   4.476   5.738   8.265 -0.0189 -0.2603  0.0960
 6470TIP3   OH241044   1.632   5.163   8.523  0.6165  0.2369  0.3100
 6470TIP3    H141045   1.546   5.126   8.542  1.0231 -1.4017 -0.8510
 6470TIP3    H241046   1.648   5.223   8.595 -0.8921 -0.4716  1.2920
 6471TIP3   OH241047   5.235   2.612   8.284  0.6377 -0.1001 -0.5587
 6471TIP3    H141048   5.250   2.535   8.229 -1.5402 -1.4133  0.5058
 6471TIP3    H241049   5.147   2.642   8.260 -0.7514 -1.1866  2.5244
 6472TIP3   OH241050   3.717   3.068   1.465 -0.1718 -0.4590  0.8444
 6472TIP3    H141051   3.727   2.980   1.430  1.4479 -0.3305  0.8750
 6472TIP3    H241052   3.794   3.080   1.522 -0.7260  0.7148  1.3808
 6473TIP3   OH241053   4.141   0.287   1.303 -0.2138  0.8196 -0.6519
 6473TIP3    H141054   4.212   0.228   1.277 -1.1082 -0.3840 -0.4609
 6473TIP3    H241055   4.178   0.375   1.295  0.9136  0.2734 -1.7024
 6474TIP3   OH241056   2.139   5.970   8.078 -0.1741  0.2722  0.0296
 6474TIP3    H141057   2.220   6.015   8.050 -0.2424  0.0171 -0.6092
 6474TIP3    H241058   2.070   6.013   8.027 -0.5126  0.8234  0.9434
 6475TIP3   OH241059   4.207   3.846   1.452 -0.4572  0.0355  0.0124
 6475TIP3    H141060   4.185   3.937   1.431 -0.8048 -0.5155 -2.3738
 6475TIP3    H241061   4.190   3.799   1.370  0.5055 -2.0405  0.9503
 6476TIP3   OH241062   1.648   4.411   0.713 -0.2070 -0.2542  0.1504
 6476TIP3    H141063   1.740   4.434   0.699 -0.6753  1.9409  0.3611
 6476TIP3    H241064   1.600   4.461   0.648 -1.3494 -0.3433  0.8880
 6477TIP3   OH241065   4.517   0.571   1.678  0.1029  0.2138 -0.6938
 6477TIP3    H141066   4.446   0.515   1.648  0.1857 -0.5032  0.3914
 6477TIP3    H241067   4.506   0.576   1.773  0.1396  1.9926 -0.7483
 6478TIP3   OH241068   5.968   3.768   2.137 -0.7600 -0.3307 -0.1192
 6478TIP3    H141069   6.026   3.840   2.114 -0.9287  0.0820  0.7049
 6478TIP3    H241070   6.023   3.690   2.132  0.2892  0.1993  2.0520
 6479TIP3   OH241071   5.726   2.591   7.494  0.0455 -1.1971  0.0695
 6479TIP3    H141072   5.736   2.663   7.556 -1.8417 -0.0305 -0.8613
 6479TIP3    H241073   5.799   2.602   7.433 -0.5896  0.4213 -0.4663
 6480TIP3   OH241074   1.433   3.854   0.345  0.3829  0.2631 -0.4875
 6480TIP3    H141075   1.378   3.782   0.315  0.1905  0.0762  0.2824
 6480TIP3    H241076   1.384   3.893   0.418  1.6332 -0.4594  0.7974
 6481TIP3   OH241077   4.741   1.644   1.534 -0.2122  0.4672 -0.1817
 6481TIP3    H141078   4.830   1.660   1.565  0.4769 -0.4732 -1.5603
 6481TIP3    H241079   4.700   1.593   1.603  0.3205  0.8627  0.4410
 6482TIP3   OH241080   2.859   2.914   0.261 -0.2709 -0.4509 -0.0644
 6482TIP3    H141081   2.851   2.888   0.169  0.2704  2.3006 -0.9985
 6482TIP3    H241082   2.892   3.004   0.257 -2.1554  0.5033  2.7831
 6483TIP3   OH241083   0.912   5.920   0.705 -0.4985  0.1179  0.5063
 6483TIP3    H141084   0.855   5.898   0.779 -0.6709  0.3923  0.4570
 6483TIP3    H241085   0.882   6.006   0.677 -0.1589  0.1955  0.3802
 6484TIP3   OH241086   3.900   4.552   1.840  0.1934  0.2972 -0.1212
 6484TIP3    H141087   3.827   4.579   1.785 -0.9960 -0.9022  0.7905
 6484TIP3    H241088   3.975   4.546   1.781 -0.7621  0.2375 -1.3564
 6485TIP3   OH241089   5.767   4.697   7.421 -0.3037  0.5377 -0.6749
 6485TIP3    H141090   5.697   4.633   7.432 -0.1677  0.7823  2.5247
 6485TIP3    H241091   5.777   4.706   7.326 -1.7777 -2.5438 -1.2438
 6486TIP3   OH241092   1.820   1.065   1.738 -0.6356 -0.5099 -0.5315
 6486TIP3    H141093   1.892   1.003   1.731  1.2671  1.4085  0.7740
 6486TIP3    H241094   1.814   1.106   1.652 -1.3131 -1.8014 -1.1283
 6487TIP3   OH241095   3.001   1.137   1.109  0.0636  0.3795 -0.8387
 6487TIP3    H141096   3.036   1.200   1.173 -0.9977  1.6860 -1.4770
 6487TIP3    H241097   2.906   1.148   1.116 -0.1003 -0.4908 -1.6423
 6488TIP3   OH241098   1.517   3.653   2.097  0.0947  0.3097  0.1159
 6488TIP3    H141099   1.515   3.565   2.134 -1.7150 -0.2211 -1.0831
 6488TIP3    H241100   1.443   3.698   2.138  0.3580  0.9214 -0.0679
 6489TIP3   OH241101   1.499   2.592   1.023  0.1953  0.0708 -0.2196
 6489TIP3    H141102   1.586   2.633   1.021 -0.2683  1.0412 -1.9805
 6489TIP3    H241103   1.440   2.663   1.046 -0.2139 -0.4798  0.4821
 6490TIP3   OH241104   2.748   0.511   1.309 -0.5672  0.2562  0.3830
 6490TIP3    H141105   2.682   0.445   1.286 -0.8978  0.9977 -0.9317
 6490TIP3    H241106   2.757   0.564   1.229  0.9316  0.7558  0.8511
 6491TIP3   OH241107   1.617   4.206   6.817 -0.0457  0.7224  0.0097
 6491TIP3    H141108   1.621   4.164   6.903  0.2850  2.1007  0.6872
 6491TIP3    H241109   1.699   4.180   6.775  0.0762  0.5467  0.3466
 6492TIP3   OH241110   1.155   6.643   8.939  0.3428  0.2819  0.1901
 6492TIP3    H141111   1.075   6.694   8.930 -0.3276 -0.5260  1.3202
 6492TIP3    H241112   1.125   6.554   8.959  1.5174  0.1650  1.6291
 6493TIP3   OH241113   5.809   0.010   1.516  0.0933 -0.2103 -0.0931
 6493TIP3    H141114   5.861   0.006   1.435 -0.3639  2.0678 -0.5625
 6493TIP3    H241115   5.754  -0.069   1.512  0.6355 -0.5565 -1.6096
 6494TIP3   OH241116   0.333   3.160   6.893  0.2420 -0.1386 -0.0093
 6494TIP3    H141117   0.417   3.180   6.852 -1.0000  2.2085 -1.6141
 6494TIP3    H241118   0.306   3.243   6.934 -1.8208 -0.4897 -0.5574
 6495TIP3   OH241119   2.646   6.651   1.620  0.7927  0.1820  0.5310
 6495TIP3    H141120   2.647   6.555   1.622 -0.0648  0.1794  1.5391
 6495TIP3    H241121   2.556   6.673   1.598  0.9186  0.7644  0.5976
 6496TIP3   OH241122   1.290   2.303   1.177  0.0819  0.4640  0.0568
 6496TIP3    H141123   1.239   2.230   1.142 -0.4061  0.5452  0.5880
 6496TIP3    H241124   1.225   2.362   1.215  0.0862  2.7644 -3.0454
 6497TIP3   OH241125   3.318   1.308   0.856  0.1861 -0.3481 -0.4332
 6497TIP3    H141126   3.304   1.239   0.921  0.5931 -0.1047 -0.0793
 6497TIP3    H241127   3.390   1.360   0.892 -0.4681  0.5856 -0.4307
 6498TIP3   OH241128   4.515   1.297   1.745  0.2496  0.1828  0.5024
 6498TIP3    H141129   4.456   1.365   1.777  0.4191  0.2499  0.6753
 6498TIP3    H241130   4.578   1.343   1.690 -0.5036 -0.0412 -0.5668
 6499TIP3   OH241131   6.499   0.184   7.038  0.3960  0.2125 -0.1506
 6499TIP3    H141132   6.467   0.151   6.954 -1.7397  0.0628  0.6464
 6499TIP3    H241133   6.566   0.121   7.065  0.0293 -0.5774 -1.0357
 6500TIP3   OH241134   0.885   2.329   7.848 -0.9862 -0.2233 -0.6430
 6500TIP3    H141135   0.858   2.326   7.756 -0.1175  0.3988 -0.9264
 6500TIP3    H241136   0.947   2.402   7.853 -2.1517  0.7571  0.7338
 6501TIP3   OH241137   5.159   5.283   0.526 -0.5244 -0.0511 -0.1264
 6501TIP3    H141138   5.186   5.372   0.549 -0.4096 -0.5146  1.6298
 6501TIP3    H241139   5.097   5.295   0.454 -1.7848  1.5897  1.1467
 6502TIP3   OH241140   0.689   0.187   7.364 -0.4243 -0.3033 -0.0897
 6502TIP3    H141141   0.767   0.142   7.397 -0.2749  0.4358  0.6025
 6502TIP3    H241142   0.638   0.119   7.320 -0.5248 -1.2938  1.4952
 6503TIP3   OH241143   3.342   3.879   0.139 -0.2538  0.3104 -0.0215
 6503TIP3    H141144   3.322   3.826   0.215  0.6368  0.7866  0.5747
 6503TIP3    H241145   3.435   3.902   0.150 -0.0982  0.3646 -1.2625
 6504TIP3   OH241146   2.219   0.584   8.558 -0.3108  0.6426 -0.3306
 6504TIP3    H141147   2.295   0.637   8.584 -0.1629  0.5446 -0.5593
 6504TIP3    H241148   2.174   0.638   8.492  0.1439  0.2582 -0.9718
 6505TIP3   OH241149   5.913   4.269   7.790 -0.5515 -0.0318  0.4625
 6505TIP3    H141150   5.960   4.198   7.833  1.7498  0.1734 -1.4975
 6505TIP3    H241151   5.888   4.234   7.705 -1.6232  0.7508  0.4280
 6506TIP3   OH241152   0.947   0.992   2.287 -0.2651  0.0093 -0.4564
 6506TIP3    H141153   0.990   0.949   2.361  1.1523 -0.8028 -1.7107
 6506TIP3    H241154   0.892   0.924   2.248  2.0951 -0.8470 -2.5376
 6507TIP3   OH241155   4.547   4.011   1.141  0.7965  0.0941  0.2224
 6507TIP3    H141156   4.606   3.997   1.067  1.6316 -0.7125  1.0130
 6507TIP3    H241157   4.460   4.011   1.102  1.2200 -0.3234 -0.7697
 6508TIP3   OH241158   2.396   6.739   1.655  0.3859 -0.6293  0.1045
 6508TIP3    H141159   2.417   6.830   1.637  1.2855 -0.8397  0.0297
 6508TIP3    H241160   2.445   6.718   1.735  0.3642 -1.1085 -0.0002
 6509TIP3   OH241161   1.890   6.005   1.826 -0.0637  0.4764  0.2134
 6509TIP3    H141162   1.958   5.939   1.812 -1.0547 -0.1511 -1.9969
 6509TIP3    H241163   1.933   6.088   1.805  0.6501  0.3678  1.1480
 6510TIP3   OH241164   4.199   3.972   0.913 -0.5228  0.2122 -0.6650
 6510TIP3    H141165   4.234   3.947   0.827  1.3809  1.3425 -0.2813
 6510TIP3    H241166   4.221   4.065   0.922 -1.8819  0.4612  0.5086
 6511TIP3   OH241167   3.491   5.173   2.308 -0.0793  0.7727  0.1083
 6511TIP3    H141168   3.512   5.147   2.219 -0.9912  1.1122 -0.2187
 6511TIP3    H241169   3.552   5.245   2.327 -0.4751  1.3023 -0.5731
 6512TIP3   OH241170   0.118   2.122   6.708  0.4711  0.1150  0.1012
 6512TIP3    H141171   0.110   2.215   6.731  1.3761  0.4442 -0.8092
 6512TIP3    H241172   0.028   2.095   6.689  0.0916  0.5903  1.0907
 6513TIP3   OH241173   2.731   4.409   2.539 -0.1299 -0.1380  0.4351
 6513TIP3    H141174   2.742   4.316   2.559  1.8070  0.0832  0.5921
 6513TIP3    H241175   2.760   4.418   2.449 -2.5049 -0.0034 -0.4072
 6514TIP3   OH241176   4.257   4.410   7.030 -0.2059 -0.5105  0.2886
 6514TIP3    H141177   4.260   4.338   7.093 -1.0344  0.0569  0.9980
 6514TIP3    H241178   4.181   4.462   7.056 -0.3387 -0.0461 -0.9503
 6515TIP3   OH241179   4.841   2.117   0.007 -0.1302  0.2383  0.4750
 6515TIP3    H141180   4.787   2.065   0.067  0.7365 -1.6039 -0.2687
 6515TIP3    H241181   4.799   2.106  -0.078  0.6501 -0.1055  0.1287
 6516TIP3   OH241182   1.186   1.407   0.838 -0.0687 -0.4992 -0.2141
 6516TIP3    H141183   1.121   1.471   0.807  1.3546  1.3285  0.3919
 6516TIP3    H241184   1.141   1.322   0.831 -2.0567  0.5434 -1.0058
 6517TIP3   OH241185   3.718   6.321   1.632  0.6722 -0.0540  0.0162
 6517TIP3    H141186   3.712   6.306   1.726 -1.2485  1.1185  0.1374
 6517TIP3    H241187   3.657   6.257   1.594  1.3600 -0.4514 -0.4312
 6518TIP3   OH241188   0.882   4.932   7.254 -0.2274  0.3051  0.2614
 6518TIP3    H141189   0.825   4.912   7.179 -0.5569  0.5307  0.4525
 6518TIP3    H241190   0.964   4.888   7.232  0.4676  2.2556 -1.3478
 6519TIP3   OH241191   1.436   4.511   1.340  0.7431 -0.4832  0.0977
 6519TIP3    H141192   1.501   4.552   1.397  0.3271 -0.5548  0.6274
 6519TIP3    H241193   1.420   4.426   1.379  0.2282 -0.4105  0.0501
 6520TIP3   OH241194   4.814   0.204   7.732  0.4719 -0.1267 -0.1991
 6520TIP3    H141195   4.747   0.187   7.798  1.4836  2.3585  1.6473
 6520TIP3    H241196   4.770   0.186   7.649 -2.3016  0.7487  0.9384
 6521TIP3   OH241197   4.644   1.593   1.822  0.1385  0.2107  0.2203
 6521TIP3    H141198   4.717   1.564   1.877  0.7056  0.5014 -0.3583
 6521TIP3    H241199   4.567   1.553   1.861  0.9496 -2.8551 -1.0068
 6522TIP3   OH241200   6.304   2.225   1.413  0.7720  0.5668 -0.3396
 6522TIP3    H141201   6.369   2.263   1.473  1.6510 -0.5600 -0.5216
 6522TIP3    H241202   6.336   2.247   1.326  1.4768 -0.7700 -0.4601
 6523TIP3   OH241203   0.617   4.870   8.078 -0.1454  0.1667 -0.0259
 6523TIP3    H141204   0.664   4.835   8.154 -2.8002 -0.0357  1.7046
 6523TIP3    H241205   0.584   4.955   8.108 -2.0787 -0.3514 -0.5170
 6524TIP3   OH241206   5.868   1.291   7.945 -0.1994  0.3327 -0.6761
 6524TIP3    H141207   5.893   1.335   8.026  0.6565 -0.9190 -0.2164
 6524TIP3    H241208   5.776   1.265   7.958  0.3092 -1.0354  0.4897
 6525TIP3   OH241209   3.908   5.602   7.367 -0.7659 -0.2034 -0.0367
 6525TIP3    H141210   3.995   5.638   7.348 -0.3113  0.2975  2.5583
 6525TIP3    H241211   3.848   5.655   7.315  0.1191  2.6119  1.5856
 6526TIP3   OH241212   6.675   1.897   0.919  0.5718  0.1435 -0.0061
 6526TIP3    H141213   6.671   1.977   0.866 -1.3519  0.8850  1.1514
 6526TIP3    H241214   6.583   1.872   0.930  1.1256 -2.1273 -0.1449
 6527TIP3   OH241215   5.039   5.636   8.652  0.3079  0.7199 -0.1620
 6527TIP3    H141216   5.056   5.625   8.745 -0.4916  2.1368  0.1855
 6527TIP3    H241217   5.121   5.610   8.609  0.1086 -1.6381  0.7884
 6528TIP3   OH241218   1.026   4.112   1.825  0.2950 -0.1440  0.7186
 6528TIP3    H141219   1.009   4.019   1.840 -0.8905 -0.2975 -1.1867
 6528TIP3    H241220   0.962   4.158   1.879  0.5778 -0.4390  1.3079
 6529TIP3   OH241221   4.908   4.090   7.972 -0.8463  0.2115  0.4938
 6529TIP3    H141222   4.877   4.134   8.052 -1.5437  2.3427 -0.8849
 6529TIP3    H241223   4.994   4.128   7.955 -0.6476 -0.3211  0.2622
 6530TIP3   OH241224   0.274   4.420   6.799  0.0783 -0.1761 -0.1018
 6530TIP3    H141225   0.211   4.349   6.784  2.4998 -2.2115 -1.4508
 6530TIP3    H241226   0.282   4.463   6.714 -0.4556  0.9505  0.4037
 6531TIP3   OH241227   3.858   6.356   7.742 -0.5438  0.4882 -0.7205
 6531TIP3    H141228   3.866   6.260   7.738 -1.4454  0.3678 -0.0896
 6531TIP3    H241229   3.829   6.381   7.654  0.0058  0.2165 -0.9801
 6532TIP3   OH241230   5.271   3.826   8.726 -0.4251  0.2125 -0.5374
 6532TIP3    H141231   5.361   3.828   8.693 -0.1219  0.3320  0.2682
 6532TIP3    H241232   5.258   3.734   8.751 -0.7542  0.0611 -1.2340
 6533TIP3   OH241233   6.002   0.043   2.164  0.0477  0.7005  0.1524
 6533TIP3    H141234   6.035  -0.042   2.135 -0.4339 -0.4041  2.6017
 6533TIP3    H241235   6.062   0.106   2.124  0.4223 -0.7468 -1.7381
 6534TIP3   OH241236   4.683   5.064   8.636 -0.0903 -0.1280  0.4105
 6534TIP3    H141237   4.653   5.014   8.559  0.8954  0.2744 -0.2488
 6534TIP3    H241238   4.712   4.997   8.697  2.5803 -0.4248 -1.0240
 6535TIP3   OH241239   3.410   6.723   6.595 -0.7322 -0.4007  0.1868
 6535TIP3    H141240   3.493   6.678   6.582 -0.6471 -0.2752  0.2921
 6535TIP3    H241241   3.344   6.664   6.557 -0.9005 -1.7013  2.2808
 6536TIP3   OH241242   2.187   4.176   1.984  0.0977  0.3977 -0.3852
 6536TIP3    H141243   2.166   4.203   2.074  0.7414 -0.0251 -0.1011
 6536TIP3    H241244   2.280   4.196   1.975  0.7298 -2.1238 -0.0026
 6537TIP3   OH241245   6.096   1.118   8.105  0.0440 -0.9204  0.1958
 6537TIP3    H141246   6.087   1.193   8.047  0.0578  0.4351  1.8441
 6537TIP3    H241247   6.145   1.053   8.055  1.4068  0.7808 -0.7735
 6538TIP3   OH241248   1.037   3.072   1.260 -0.2153  0.2406 -0.2124
 6538TIP3    H141249   1.044   3.164   1.286  1.8105 -0.3009  1.3789
 6538TIP3    H241250   1.113   3.030   1.299 -1.2143 -2.1836 -0.6949
 6539TIP3   OH241251   4.968   3.122   0.027  0.6845  0.3203 -0.6964
 6539TIP3    H141252   5.015   3.083   0.100  1.0409  1.0326 -0.5343
 6539TIP3    H241253   4.907   3.184   0.067 -0.9710 -1.1304 -0.8493
 6540TIP3   OH241254   0.488   5.161   8.148 -1.0569 -0.4730 -0.0284
 6540TIP3    H141255   0.411   5.207   8.114 -1.5803 -1.4285 -0.1883
 6540TIP3    H241256   0.456   5.117   8.226 -0.5016 -0.3648  0.2601
 6541TIP3   OH241257   2.022   3.838   7.677  0.3467  0.1145  0.2933
 6541TIP3    H141258   2.068   3.921   7.692 -0.3702  0.3205  1.4467
 6541TIP3    H241259   2.040   3.786   7.755 -0.4300 -0.2464  0.2351
 6542TIP3   OH241260   2.043   6.740   2.089  0.0812 -0.3238 -0.2105
 6542TIP3    H141261   2.080   6.748   2.001  0.9310  0.3859  0.2055
 6542TIP3    H241262   2.116   6.757   2.148 -0.6143 -0.2027  0.6358
 6543TIP3   OH241263   3.298   0.180   6.994 -0.4533  0.3257 -0.1569
 6543TIP3    H141264   3.388   0.207   7.008 -0.5167  0.1095  0.7345
 6543TIP3    H241265   3.303   0.108   6.932  0.0619 -0.2321  0.5228
 6544TIP3   OH241266   0.179   6.618   0.837  0.1485 -0.2042  0.0728
 6544TIP3    H141267   0.107   6.558   0.856  0.0333 -0.5197 -1.2975
 6544TIP3    H241268   0.242   6.603   0.908 -1.3185  0.4334  1.5632
 6545TIP3   OH241269   0.550   2.774   6.953  0.1447 -0.3974  0.2372
 6545TIP3    H141270   0.624   2.725   6.917 -0.0859 -1.2542  0.8910
 6545TIP3    H241271   0.581   2.864   6.959  0.7426 -0.5366 -0.5517
 6546TIP3   OH241272   5.859   1.202   0.726  0.3534  0.7319 -0.7308
 6546TIP3    H141273   5.906   1.119   0.719 -0.5750  0.0246  0.9180
 6546TIP3    H241274   5.832   1.207   0.818 -1.3620  1.8903 -1.2417
 6547TIP3   OH241275   6.447   4.548   1.674  0.2207 -0.5652  0.1875
 6547TIP3    H141276   6.443   4.593   1.590 -0.2083 -2.3169 -0.7787
 6547TIP3    H241277   6.427   4.456   1.653 -0.4988 -0.9428  2.2800
 6548TIP3   OH241278   2.849   4.050   8.730  0.0043  0.4833 -0.1939
 6548TIP3    H141279   2.889   4.047   8.643 -1.4896  0.0967 -0.8962
 6548TIP3    H241280   2.837   4.143   8.748  0.3440  0.5654 -0.3816
 6549TIP3   OH241281   5.678   2.752   0.879  0.0082 -0.6090 -0.0043
 6549TIP3    H141282   5.670   2.787   0.968  0.7230 -2.8822  1.0291
 6549TIP3    H241283   5.643   2.822   0.823 -1.5179  0.4696  2.1139
 6550TIP3   OH241284   4.694   5.896   8.297  0.3925 -0.0068 -0.0943
 6550TIP3    H141285   4.757   5.909   8.368  0.1134  1.3922 -0.0577
 6550TIP3    H241286   4.742   5.918   8.217  0.5573 -1.0669 -0.2975
 6551TIP3   OH241287   4.048   3.748   8.891  0.3458  0.1707 -0.1426
 6551TIP3    H141288   4.070   3.829   8.937  0.9337  0.8532 -1.5671
 6551TIP3    H241289   4.128   3.696   8.894  0.0863 -0.2092  0.4300
 6552TIP3   OH241290   3.728   1.711   8.851 -0.7449  0.4273 -0.5849
 6552TIP3    H141291   3.774   1.669   8.778  0.9440 -2.2272  1.7966
 6552TIP3    H241292   3.729   1.646   8.921 -1.4906  3.1130  2.1429
 6553TIP3   OH241293   4.461   6.046   8.350 -0.2018  0.2437  0.5936
 6553TIP3    H141294   4.521   5.976   8.322  0.6468  0.6237  1.3944
 6553TIP3    H241295   4.379   6.027   8.305  0.4589 -0.4159 -0.3773
 6554TIP3   OH241296   1.913   5.973   2.096 -0.4661 -0.3325  0.4103
 6554TIP3    H141297   1.879   5.968   2.006 -2.1618 -2.2337  1.0684
 6554TIP3    H241298   1.979   5.904   2.100 -1.2067 -1.0393  0.8887
 6555TIP3   OH241299   0.852   0.228   2.101  0.4310  0.0898 -0.5934
 6555TIP3    H141300   0.923   0.288   2.077  0.3677  0.6697  0.5593
 6555TIP3    H241301   0.851   0.231   2.197 -0.1327 -1.1201 -0.5443
 6556TIP3   OH241302   1.826   4.127   7.766  0.0774 -0.2079 -0.0350
 6556TIP3    H141303   1.768   4.092   7.699  0.9243 -0.6234 -0.5802
 6556TIP3    H241304   1.905   4.153   7.718  0.2628  0.5373  0.6524
 6557TIP3   OH241305   0.797   5.521   1.851 -0.6701 -0.1235 -0.4702
 6557TIP3    H141306   0.825   5.611   1.835 -1.0739  0.4213  1.5885
 6557TIP3    H241307   0.868   5.467   1.815  1.5900  1.1450  1.7594
 6558TIP3   OH241308   0.957   4.632   7.168  0.3751 -0.8889 -0.0003
 6558TIP3    H141309   0.920   4.697   7.107 -0.1917  0.1417  1.3977
 6558TIP3    H241310   1.040   4.607   7.128  1.3110  1.7862  0.0874
 6559TIP3   OH241311   3.737   4.292   8.422 -0.4414 -0.1662  0.3101
 6559TIP3    H141312   3.770   4.206   8.397 -0.3211  0.8383 -3.7515
 6559TIP3    H241313   3.645   4.291   8.399 -0.2972  0.9226 -0.4432
 6560TIP3   OH241314   1.297   5.695   0.085 -0.1670 -0.1527 -0.3898
 6560TIP3    H141315   1.313   5.657  -0.002 -0.1874  0.0006 -0.4598
 6560TIP3    H241316   1.204   5.715   0.086 -0.2550 -0.5567 -0.1724
 6561TIP3   OH241317   2.310   2.989   8.800 -0.4490 -0.4405 -0.1845
 6561TIP3    H141318   2.351   3.029   8.723 -0.9614 -1.8401 -1.2327
 6561TIP3    H241319   2.220   2.971   8.772 -0.6091 -1.0956  0.6973
 6562TIP3   OH241320   4.468   0.953   2.361  0.0235  0.1397  0.1184
 6562TIP3    H141321   4.455   1.007   2.284  1.7064  0.9354  0.3494
 6562TIP3    H241322   4.390   0.968   2.415 -0.1153  1.3333 -0.3978
 6563TIP3   OH241323   2.492   3.021   8.120 -0.2777  0.2757  0.6133
 6563TIP3    H141324   2.583   3.037   8.094 -0.5228 -0.3626 -0.6783
 6563TIP3    H241325   2.472   2.935   8.085 -1.8123  0.9714 -0.3256
 6564TIP3   OH241326   4.058   0.839   2.361  0.0107 -0.4294 -0.7594
 6564TIP3    H141327   4.020   0.755   2.383  1.9741 -0.7098  2.1795
 6564TIP3    H241328   3.988   0.903   2.377 -0.1153 -1.1317  1.9014
 6565TIP3   OH241329   5.815   2.827   2.561  0.3933  0.1185  0.4677
 6565TIP3    H141330   5.863   2.851   2.481 -0.7870  0.2279 -0.2234
 6565TIP3    H241331   5.772   2.744   2.539 -0.4964  0.4952  0.7459
 6566TIP3   OH241332   1.828   6.003   0.729  0.5738  1.0783  0.3172
 6566TIP3    H141333   1.828   5.917   0.686  0.8024  1.0384  0.3979
 6566TIP3    H241334   1.750   6.001   0.784 -0.3997  1.5780 -0.9821
 6567TIP3   OH241335   3.310   4.924   8.278 -0.4512  0.1102 -0.4367
 6567TIP3    H141336   3.351   4.983   8.214  0.6983 -0.0941  0.0805
 6567TIP3    H241337   3.372   4.920   8.350  0.2336 -2.8334 -1.0488
 6568TIP3   OH241338   0.317   6.283   0.577 -0.1976  0.3519  0.0817
 6568TIP3    H141339   0.408   6.302   0.555 -0.2261  0.8463  0.3703
 6568TIP3    H241340   0.320   6.199   0.623  0.0498  0.1175 -0.3604
 6569TIP3   OH241341   3.703   3.194   7.049 -0.6300  0.1652 -0.1545
 6569TIP3    H141342   3.640   3.152   6.990  0.2786 -0.0182 -1.0304
 6569TIP3    H241343   3.786   3.190   7.002 -0.3916  2.5012 -0.0438
 6570TIP3   OH241344   1.107   0.073   7.577  0.0505 -0.7301 -0.1201
 6570TIP3    H141345   1.174   0.022   7.531 -0.4662 -1.8468  0.3074
 6570TIP3    H241346   1.079   0.016   7.649 -2.8370 -1.2764 -1.5130
 6571TIP3   OH241347   4.575   2.798   8.166  0.4047  0.3043  0.5071
 6571TIP3    H141348   4.575   2.854   8.088 -0.2453 -0.2926  0.0632
 6571TIP3    H241349   4.580   2.860   8.239 -1.6102  1.0704  0.0744
 6572TIP3   OH241350   4.830   1.972   6.811  0.1340 -0.3079 -0.1710
 6572TIP3    H141351   4.833   2.055   6.762  1.3397  0.4462  1.1186
 6572TIP3    H241352   4.874   1.909   6.754  0.6013  0.3088 -0.5006
 6573TIP3   OH241353   0.821   6.137   0.986 -0.4124  0.1122 -0.2074
 6573TIP3    H141354   0.756   6.187   0.936 -0.2273 -0.3620 -0.9347
 6573TIP3    H241355   0.905   6.180   0.966 -0.3689  0.0700 -0.1164
 6574TIP3   OH241356   3.713   2.304   1.878 -0.1436 -0.2643 -0.6312
 6574TIP3    H141357   3.787   2.363   1.889 -0.4377  0.2049 -1.1459
 6574TIP3    H241358   3.657   2.321   1.953  0.5809 -1.0929  0.1157
 6575TIP3   OH241359   0.979   0.922   1.144  0.1432 -0.1046  0.2505
 6575TIP3    H141360   0.984   1.005   1.191 -1.5026 -1.1882  2.5459
 6575TIP3    H241361   0.885   0.908   1.130  0.5180  0.0469 -3.3368
 6576TIP3   OH241362   3.216   5.190   2.629 -0.5611  0.5171 -0.0846
 6576TIP3    H141363   3.218   5.220   2.538  0.3020  1.1080  0.1122
 6576TIP3    H241364   3.305   5.159   2.645 -0.4840  1.1375  0.7771
 6577TIP3   OH241365   3.736   3.568   2.350 -0.0796  0.2836  0.4364
 6577TIP3    H141366   3.823   3.536   2.373 -0.0085  2.2937  3.5193
 6577TIP3    H241367   3.676   3.508   2.395 -0.1814  0.4479  0.5211
 6578TIP3   OH241368   6.412   0.144   0.089  0.5197 -1.0049 -0.3901
 6578TIP3    H141369   6.496   0.190   0.095  0.7124 -1.5186  1.9683
 6578TIP3    H241370   6.386   0.130   0.180 -1.6985 -1.6668 -1.0644
 6579TIP3   OH241371   1.456   1.328   0.923  0.5294 -0.1284 -0.7301
 6579TIP3    H141372   1.452   1.240   0.960 -1.2309 -1.1248 -3.0725
 6579TIP3    H241373   1.364   1.353   0.909  1.0337  1.4802 -1.4704
 6580TIP3   OH241374   3.248   4.317   0.968 -0.2341 -0.5637  0.0397
 6580TIP3    H141375   3.231   4.409   0.952 -0.5710 -0.5289  0.5659
 6580TIP3    H241376   3.199   4.271   0.900  1.9479 -0.3033 -1.8358
 6581TIP3   OH241377   2.491   5.762   7.780  0.2584 -0.1267 -0.2793
 6581TIP3    H141378   2.411   5.769   7.832 -0.3242 -0.3543 -1.1207
 6581TIP3    H241379   2.562   5.764   7.845 -0.3844  0.7795  0.4305
 6582TIP3   OH241380   0.737   3.620   8.043  0.3984 -0.4074  0.5356
 6582TIP3    H141381   0.673   3.551   8.030  0.4089 -0.7833  2.2428
 6582TIP3    H241382   0.726   3.647   8.134  2.0888  0.1003  0.6340
 6583TIP3   OH241383   5.545   3.696   0.170 -0.1564  0.5152  0.6640
 6583TIP3    H141384   5.610   3.629   0.146  0.5753  0.7511  1.8830
 6583TIP3    H241385   5.592   3.778   0.166 -0.5512  0.7604  0.9695
 6584TIP3   OH241386   4.523   0.976   0.144 -0.3487  0.0011  0.4416
 6584TIP3    H141387   4.524   0.944   0.234 -1.4915  1.3499  0.9738
 6584TIP3    H241388   4.555   1.066   0.150 -1.1499  0.3664 -0.3712
 6585TIP3   OH241389   2.630   5.788   1.193  0.5840  0.6668  0.0554
 6585TIP3    H141390   2.612   5.782   1.099 -3.5657  2.1908  0.5639
 6585TIP3    H241391   2.647   5.698   1.221 -1.4321 -0.3260 -1.6683
 6586TIP3   OH241392   6.336   4.117   2.755  0.0645  0.2910 -0.1147
 6586TIP3    H141393   6.392   4.064   2.699 -0.9683 -2.1491  1.0377
 6586TIP3    H241394   6.380   4.119   2.840  0.2107  1.5496 -0.1946
 6587TIP3   OH241395   5.694   4.238   7.540 -0.3613  0.0482  0.7170
 6587TIP3    H141396   5.765   4.263   7.482 -1.7825 -0.2989 -1.2577
 6587TIP3    H241397   5.688   4.143   7.532 -0.9848  0.0615  0.9482
 6588TIP3   OH241398   5.340   2.221   1.080 -0.5810 -0.2185 -0.0584
 6588TIP3    H141399   5.344   2.311   1.048  0.7308  0.2950  1.4132
 6588TIP3    H241400   5.290   2.226   1.161  0.3129 -0.6283  0.5371
 6589TIP3   OH241401   5.915   2.889   2.308  0.3105 -0.0052  0.2149
 6589TIP3    H141402   5.820   2.886   2.296  0.3485 -2.1730 -0.0472
 6589TIP3    H241403   5.945   2.959   2.250 -1.1908  1.3294  0.9925
 6590TIP3   OH241404   0.997   4.878   0.765  0.1810 -0.2151 -0.6504
 6590TIP3    H141405   1.018   4.803   0.709  0.5497  0.2527 -1.1457
 6590TIP3    H241406   1.081   4.916   0.787 -0.0609  1.4794 -2.3921
 6591TIP3   OH241407   3.276   1.045   8.654 -0.0159 -0.4090  0.4611
 6591TIP3    H141408   3.239   1.112   8.596  1.4672 -0.2517 -0.3464
 6591TIP3    H241409   3.305   1.093   8.731  1.8633  0.0902 -0.4870
 6592TIP3   OH241410   2.904   3.221   8.107  0.1890  0.0695  0.0909
 6592TIP3    H141411   2.857   3.138   8.107 -0.1338  0.2487  0.5295
 6592TIP3    H241412   2.984   3.204   8.057  0.8858 -0.9329  1.4932
 6593TIP3   OH241413   5.852   5.549   6.662 -0.0303  0.0451 -0.9405
 6593TIP3    H141414   5.903   5.476   6.699  0.7139  0.3393 -1.3687
 6593TIP3    H241415   5.901   5.627   6.687 -0.1381  0.3185 -1.5689
 6594TIP3   OH241416   2.758   5.327   1.606  0.5776 -0.4212  0.1720
 6594TIP3    H141417   2.752   5.421   1.619 -0.9296 -0.7605  2.5022
 6594TIP3    H241418   2.774   5.317   1.512 -3.0153  2.0738 -0.9399
 6595TIP3   OH241419   5.751   3.672   1.981 -0.7024  0.5395  0.4838
 6595TIP3    H141420   5.692   3.748   1.982 -0.3092  0.8445  1.7143
 6595TIP3    H241421   5.823   3.697   2.039  0.5970  0.1259 -0.8860
 6596TIP3   OH241422   4.695   3.025   6.404  0.3829 -0.0187  0.0067
 6596TIP3    H141423   4.781   2.997   6.435 -0.5325 -0.7773  1.9816
 6596TIP3    H241424   4.662   3.084   6.472 -1.4091 -1.1874  0.2161
 6597TIP3   OH241425   0.527   3.919   8.964  0.1131  0.2589  0.3337
 6597TIP3    H141426   0.450   3.943   8.911  0.0310 -0.5674  0.0573
 6597TIP3    H241427   0.575   3.857   8.908  1.4856  1.4754  0.1190
 6598TIP3   OH241428   4.779   2.842   1.810 -0.1310  0.8498  0.2781
 6598TIP3    H141429   4.749   2.856   1.900  2.2569 -0.0575  1.2651
 6598TIP3    H241430   4.856   2.786   1.818  0.6351  1.4195 -2.2715
 6599TIP3   OH241431   1.898   5.501   7.144  0.0280 -0.4674  0.1142
 6599TIP3    H141432   1.865   5.500   7.055  0.4583 -0.4832 -0.0475
 6599TIP3    H241433   1.829   5.460   7.196 -0.6234  0.3702 -0.0725
 6600TIP3   OH241434   0.375   0.423   7.388  0.6430 -0.5510  0.0815
 6600TIP3    H141435   0.461   0.437   7.351  1.0554 -0.8599  0.8846
 6600TIP3    H241436   0.359   0.329   7.377  0.0989 -0.3681 -0.7079
 6601TIP3   OH241437   1.950   0.281   0.950  0.4902 -0.3731  0.0449
 6601TIP3    H141438   1.906   0.287   0.865  1.4890  0.1786 -0.4526
 6601TIP3    H241439   1.889   0.233   1.005 -0.4357 -0.2147 -0.8134
 6602TIP3   OH241440   6.049   5.716   1.966  0.4175 -0.4145 -0.1421
 6602TIP3    H141441   6.103   5.780   2.012 -1.3480  1.0028  0.0575
 6602TIP3    H241442   5.980   5.694   2.029 -1.0635  0.2727 -1.4704
 6603TIP3   OH241443   0.489   6.126   7.678 -0.0095  0.1277 -0.5112
 6603TIP3    H141444   0.468   6.206   7.727  2.9440  0.3259  0.6240
 6603TIP3    H241445   0.523   6.158   7.594  0.5407  0.0469 -0.3207
 6604TIP3   OH241446   6.134   0.804   8.298  0.5957  0.8929 -0.5535
 6604TIP3    H141447   6.057   0.858   8.282 -0.2365  0.1002  0.5849
 6604TIP3    H241448   6.180   0.802   8.214 -0.8303  1.0491 -1.3741
 6605TIP3   OH241449   5.428   4.263   7.199  0.1355  0.2835 -0.3335
 6605TIP3    H141450   5.450   4.275   7.106 -2.2514  3.0037 -0.6885
 6605TIP3    H241451   5.398   4.173   7.205  0.0480  0.1342 -2.2783
 6606TIP3   OH241452   2.372   4.654   1.365 -0.3998  0.7626 -0.3638
 6606TIP3    H141453   2.422   4.716   1.418 -0.6370  1.3090 -0.7716
 6606TIP3    H241454   2.430   4.579   1.355  0.1554  1.1961 -0.4317
 6607TIP3   OH241455   1.981   2.394   8.677  0.5549  0.2626  0.7458
 6607TIP3    H141456   2.047   2.365   8.614 -0.1536  0.4325 -0.0934
 6607TIP3    H241457   1.926   2.455   8.628 -2.0782 -2.1252  0.4642
 6608TIP3   OH241458   3.984   2.655   1.568 -0.1954 -0.3892  0.2323
 6608TIP3    H141459   4.050   2.598   1.606  0.9145  1.5125  1.3362
 6608TIP3    H241460   3.903   2.634   1.614 -0.4875 -2.8268 -1.2162
 6609TIP3   OH241461   4.874   4.810   1.250 -0.1060  1.0900  0.2723
 6609TIP3    H141462   4.902   4.900   1.267 -0.1443  1.2497 -0.4953
 6609TIP3    H241463   4.778   4.814   1.252 -0.1271  0.7224  1.9549
 6610TIP3   OH241464   4.767   0.165   1.378  0.0073  0.4498  0.0896
 6610TIP3    H141465   4.827   0.237   1.394  0.8887  0.1014 -1.4961
 6610TIP3    H241466   4.689   0.188   1.429  0.7084  1.9045  0.5783
 6611TIP3   OH241467   3.664   0.653   0.595 -0.5900  0.2313  0.3250
 6611TIP3    H141468   3.607   0.680   0.667 -0.6871  0.2039  0.2592
 6611TIP3    H241469   3.643   0.714   0.524 -1.2671 -0.4008 -0.0351
 6612TIP3   OH241470   2.822   1.297   1.349 -0.4749 -0.0680 -0.1722
 6612TIP3    H141471   2.797   1.356   1.420 -0.4513  0.3402 -0.5008
 6612TIP3    H241472   2.830   1.212   1.391 -1.9272 -0.1236  0.0429
 6613TIP3   OH241473   3.251   2.994   8.972 -0.4798  0.1015  0.3831
 6613TIP3    H141474   3.196   2.931   9.018 -1.5986  0.8404  0.1050
 6613TIP3    H241475   3.269   2.953   8.887  0.0807 -0.4780  0.7684
 6614TIP3   OH241476   4.572   2.435   1.502 -0.3260 -0.3096  0.0289
 6614TIP3    H141477   4.646   2.375   1.514  0.2213  0.2994 -0.2675
 6614TIP3    H241478   4.506   2.403   1.564 -0.3977 -1.7610 -0.7585
 6615TIP3   OH241479   1.848   3.762   1.630 -0.6538 -0.5888  0.1523
 6615TIP3    H141480   1.933   3.799   1.607 -0.1130  0.6162  3.4113
 6615TIP3    H241481   1.865   3.669   1.645 -0.4522 -0.8152 -1.3431
 6616TIP3   OH241482   3.134   2.369   0.092 -0.1067 -0.4183  0.2071
 6616TIP3    H141483   3.190   2.336   0.022 -0.5439 -1.7257  0.4480
 6616TIP3    H241484   3.047   2.335   0.072 -0.1060 -1.4147  1.7373
 6617TIP3   OH241485   5.425   1.131   7.411  0.0376  0.1994 -0.2994
 6617TIP3    H141486   5.483   1.207   7.413 -0.7955  0.8502 -0.3930
 6617TIP3    H241487   5.373   1.142   7.332  1.1209 -1.4177 -1.3212
 6618TIP3   OH241488   4.034   2.954   8.398 -0.2264  0.5667  0.6894
 6618TIP3    H141489   4.054   3.045   8.378 -0.4476  0.6682  0.9298
 6618TIP3    H241490   4.090   2.904   8.339 -0.2277  0.8584  0.4419
 6619TIP3   OH241491   1.632   3.868   1.753 -0.0173 -0.7088 -0.5593
 6619TIP3    H141492   1.709   3.824   1.716 -0.2424 -0.8637 -0.8452
 6619TIP3    H241493   1.616   3.941   1.694  0.3500 -0.2447 -0.0903
 6620TIP3   OH241494   1.371   3.917   1.211 -0.2821  0.3225  0.5156
 6620TIP3    H141495   1.381   3.944   1.120 -0.3577 -1.1378  0.0556
 6620TIP3    H241496   1.382   3.998   1.261 -0.5273  1.2014 -0.7951
 6621TIP3   OH241497   4.706   0.297   1.101  0.1047  0.2840  0.3514
 6621TIP3    H141498   4.642   0.364   1.080 -0.0661 -0.1405 -0.5202
 6621TIP3    H241499   4.688   0.275   1.193 -0.2701  0.9438  0.4397
 6622TIP3   OH241500   6.446   6.056   0.065  1.0622 -0.4499  0.1485
 6622TIP3    H141501   6.502   6.052  -0.012 -1.2438  0.8286 -1.7595
 6622TIP3    H241502   6.359   6.033   0.032 -0.2426  1.3170  2.1133
 6623TIP3   OH241503   1.958   0.370   1.977 -0.1679  0.1764  0.0978
 6623TIP3    H141504   1.867   0.368   2.005 -0.8232 -0.1959 -1.8905
 6623TIP3    H241505   2.004   0.313   2.038 -1.6417 -1.2011 -0.0266
 6624TIP3   OH241506   0.666   3.444   2.060  0.1047 -0.6561  0.3989
 6624TIP3    H141507   0.735   3.415   2.000 -0.8442  1.6056 -1.9540
 6624TIP3    H241508   0.708   3.514   2.111  0.3738 -1.3020  1.0742
 6625TIP3   OH241509   6.655   6.163   8.897 -0.2186 -0.0167 -0.9277
 6625TIP3    H141510   6.706   6.233   8.937 -1.0987 -0.6893  1.5871
 6625TIP3    H241511   6.697   6.082   8.928 -1.9028 -0.5723 -0.0014
 6626TIP3   OH241512   4.176   2.118   0.662 -0.8572 -0.0857  0.0842
 6626TIP3    H141513   4.244   2.185   0.662  0.3343 -1.2424 -1.3591
 6626TIP3    H241514   4.107   2.155   0.717  1.2127  0.7990  2.2474
 6627TIP3   OH241515   1.585   1.370   2.699 -0.1266 -0.4894 -0.3300
 6627TIP3    H141516   1.527   1.317   2.754  0.7593  0.7366  1.9109
 6627TIP3    H241517   1.526   1.412   2.637 -1.2041 -1.7959 -0.2549
 6628TIP3   OH241518   4.774   3.813   0.554  0.1529  0.1849  0.3750
 6628TIP3    H141519   4.856   3.854   0.582  0.1283  0.2755  0.3139
 6628TIP3    H241520   4.707   3.876   0.578 -0.0577 -0.5631  1.8979
 6629TIP3   OH241521   3.250   4.995   2.366  0.2782  0.1249  0.5197
 6629TIP3    H141522   3.208   5.081   2.360 -0.1466 -0.0620  0.7347
 6629TIP3    H241523   3.343   5.015   2.374  0.0992  0.6228  1.7292
 6630TIP3   OH241524   4.752   6.032   8.672  0.4261 -0.1256 -0.1613
 6630TIP3    H141525   4.687   6.004   8.608 -0.2184  0.1074  0.3767
 6630TIP3    H241526   4.701   6.054   8.750  1.1577  0.0001  0.2928
 6631TIP3   OH241527   5.054   1.130   0.420  0.2606 -0.0963  0.0150
 6631TIP3    H141528   5.095   1.197   0.364 -0.0845 -0.8721 -1.2186
 6631TIP3    H241529   4.992   1.179   0.473  1.1888  0.7864  0.3244
 6632TIP3   OH241530   0.370   3.434   8.952  0.3354 -0.7263 -0.0533
 6632TIP3    H141531   0.398   3.484   9.028 -1.3780  2.2947 -1.2274
 6632TIP3    H241532   0.338   3.351   8.989  0.0680  0.3960  2.4819
 6633TIP3   OH241533   2.924   4.470   6.823  0.1332 -0.0804  0.4436
 6633TIP3    H141534   2.928   4.389   6.873 -1.9040  0.5932  1.7901
 6633TIP3    H241535   3.014   4.503   6.824  0.6588 -1.4748  1.2878
 6634TIP3   OH241536   3.266   4.722   2.311 -0.0854  0.5326 -0.4551
 6634TIP3    H141537   3.223   4.751   2.230  3.1888  0.8999 -2.2107
 6634TIP3    H241538   3.286   4.803   2.358  1.2314  0.5856 -1.0782
 6635TIP3   OH241539   6.054   1.835   8.546  0.2601 -0.0126 -0.2020
 6635TIP3    H141540   5.970   1.868   8.516  1.0054  1.3086 -0.8991
 6635TIP3    H241541   6.062   1.867   8.636  0.8193  1.4441 -0.7546
 6636TIP3   OH241542   3.774   2.684   8.546 -0.6599  0.2318 -0.3188
 6636TIP3    H141543   3.837   2.612   8.546 -1.3387 -0.3797  0.2591
 6636TIP3    H241544   3.705   2.656   8.486 -0.6616  0.6496 -0.5177
 6637TIP3   OH241545   5.237   0.655   6.901  0.4997 -0.0363 -0.2449
 6637TIP3    H141546   5.230   0.569   6.860  0.3816  0.5875 -1.6194
 6637TIP3    H241547   5.169   0.707   6.858 -1.0434  0.1577  2.2366
 6638TIP3   OH241548   4.125   1.720   7.275  0.3985  0.4234  0.4374
 6638TIP3    H141549   4.044   1.673   7.254  1.5236 -0.9827 -1.0106
 6638TIP3    H241550   4.178   1.657   7.323  0.9234  1.0863  0.7452
 6639TIP3   OH241551   4.289   0.751   8.402 -0.1010 -0.7803  0.5658
 6639TIP3    H141552   4.327   0.804   8.332 -3.6196  3.8082  1.6683
 6639TIP3    H241553   4.341   0.773   8.480 -0.2726 -0.6271  0.6370
 6640TIP3   OH241554   6.489   2.315   7.840  0.7421  0.2575  0.8857
 6640TIP3    H141555   6.474   2.242   7.781 -0.7519  1.8775 -0.8742
 6640TIP3    H241556   6.571   2.354   7.809  2.0500 -1.1334  2.4181
 6641TIP3   OH241557   5.336   1.239   1.081  0.2775 -0.2668 -0.3359
 6641TIP3    H141558   5.275   1.255   1.009  0.7974 -2.1055 -1.2507
 6641TIP3    H241559   5.375   1.153   1.061  0.0216 -1.1162  2.4420
 6642TIP3   OH241560   2.700   5.192   8.137 -0.1217 -0.0355 -0.4574
 6642TIP3    H141561   2.716   5.253   8.064 -2.7420  1.5502  0.1667
 6642TIP3    H241562   2.613   5.157   8.120 -0.9269  0.5892  2.0162
 6643TIP3   OH241563   1.267   4.581   1.113 -0.1137  0.0557 -0.0465
 6643TIP3    H141564   1.315   4.662   1.125  0.8363 -0.2702 -1.4044
 6643TIP3    H241565   1.310   4.518   1.172  0.8745 -0.1251 -0.9422
 6644TIP3   OH241566   4.699   0.984   7.919  0.3288  0.3208 -0.1500
 6644TIP3    H141567   4.660   1.071   7.905  1.1755  0.9558  1.1931
 6644TIP3    H241568   4.791   0.996   7.897  0.5157 -0.1358  0.3670
 6645TIP3   OH241569   5.928   2.740   8.039 -0.1013 -0.1327 -0.2511
 6645TIP3    H141570   5.994   2.785   7.986 -0.7840  0.6542 -0.4558
 6645TIP3    H241571   5.853   2.730   7.980 -1.5660  2.4246  1.0218
 6646TIP3   OH241572   1.032   6.237   1.696  0.4061 -0.2265 -0.2147
 6646TIP3    H141573   0.964   6.253   1.631 -2.6161  0.0363  2.7270
 6646TIP3    H241574   1.031   6.315   1.752  1.3129 -1.3011  1.3922
 6647TIP3   OH241575   5.505   3.001   1.512 -0.6653 -0.0445 -0.2353
 6647TIP3    H141576   5.530   2.911   1.534  2.0044  0.9849  1.3185
 6647TIP3    H241577   5.460   3.033   1.590  0.2192  0.5928  0.0232
 6648TIP3   OH241578   5.306   6.262   6.632  0.6072  0.4179  0.9620
 6648TIP3    H141579   5.268   6.193   6.578  1.4699  0.8018 -0.1750
 6648TIP3    H241580   5.398   6.267   6.604  1.4976 -0.3424  3.4658
 6649TIP3   OH241581   1.099   0.193   8.264 -0.1623  0.2059  0.3570
 6649TIP3    H141582   1.162   0.238   8.208 -0.0453  1.7659  1.6823
 6649TIP3    H241583   1.014   0.230   8.240 -0.4706 -1.0764 -0.6323
 6650TIP3   OH241584   5.248   6.267   1.051 -0.2940 -0.0170  0.0692
 6650TIP3    H141585   5.212   6.193   1.002 -1.2752  0.3591  0.2062
 6650TIP3    H241586   5.341   6.245   1.061 -0.3162 -0.6629 -0.9242
 6651TIP3   OH241587   4.244   3.124   6.396 -0.3021  0.3513  0.3415
 6651TIP3    H141588   4.297   3.178   6.337  1.8579 -1.0492  0.8912
 6651TIP3    H241589   4.284   3.135   6.482 -2.5902  1.3079  1.3759
 6652TIP3   OH241590   1.603   6.573   0.769 -0.0049  0.0262 -0.0626
 6652TIP3    H141591   1.613   6.497   0.712  0.6097 -1.0093  1.3670
 6652TIP3    H241592   1.620   6.648   0.711 -2.1750 -0.7715 -1.8792
 6653TIP3   OH241593   2.252   2.037   6.864 -0.3045  0.2305  0.2529
 6653TIP3    H141594   2.224   1.975   6.797  0.5642 -0.5048  0.5514
 6653TIP3    H241595   2.204   2.011   6.943 -0.9641  0.7974  0.0493
 6654TIP3   OH241596   1.465   3.339   7.203  0.1233 -0.1002 -0.2387
 6654TIP3    H141597   1.428   3.389   7.275  0.1496 -2.5068  1.5896
 6654TIP3    H241598   1.393   3.282   7.174  0.4013  0.1443 -1.4808
 6655TIP3   OH241599   3.771   2.070   0.310 -0.0552  0.8755 -0.3247
 6655TIP3    H141600   3.696   2.070   0.369  0.6252  0.6335  0.5448
 6655TIP3    H241601   3.822   2.147   0.336 -0.4918  1.6337 -1.5732
 6656TIP3   OH241602   3.089   4.112   0.832  0.1530  0.0376 -0.1728
 6656TIP3    H141603   3.010   4.094   0.781  0.5539 -1.0683 -0.4314
 6656TIP3    H241604   3.058   4.123   0.921 -0.2342 -1.0092 -0.1703
 6657TIP3   OH241605   3.403   4.731   7.400 -0.0501  0.2755 -0.2947
 6657TIP3    H141606   3.441   4.648   7.368 -1.1051 -0.1469 -0.4902
 6657TIP3    H241607   3.479   4.786   7.418  0.7352 -1.1887  1.1032
 6658TIP3   OH241608   2.636   3.253   1.014  0.1812 -0.1997 -0.0330
 6658TIP3    H141609   2.559   3.309   1.017 -0.8712 -1.4360 -1.9583
 6658TIP3    H241610   2.682   3.270   1.097 -1.9356  0.8592  0.9863
 6659TIP3   OH241611   5.756   4.318   7.168  0.0862  0.2389  0.7833
 6659TIP3    H141612   5.737   4.226   7.147 -3.5758  0.8790  0.7606
 6659TIP3    H241613   5.756   4.362   7.083 -3.8648  1.0525  1.0393
 6660TIP3   OH241614   3.604   4.564   1.751 -0.0801  0.4259  0.5095
 6660TIP3    H141615   3.575   4.627   1.817 -3.2217 -0.0127 -0.3026
 6660TIP3    H241616   3.574   4.479   1.784 -1.6311  0.1877 -1.3552
 6661TIP3   OH241617   6.106   1.108   0.386  0.2786 -0.1925 -0.3862
 6661TIP3    H141618   6.036   1.163   0.349  1.1343 -0.0929 -1.9220
 6661TIP3    H241619   6.130   1.151   0.468 -1.2735 -0.0922  0.0498
 6662TIP3   OH241620   1.487   1.187   8.235  0.3617  0.6309 -0.2742
 6662TIP3    H141621   1.415   1.250   8.232 -1.6472 -1.3982  1.6563
 6662TIP3    H241622   1.521   1.194   8.324  1.2891  0.2050 -0.5845
 6663TIP3   OH241623   3.815   0.640   7.578 -0.2205  0.1072  0.0184
 6663TIP3    H141624   3.768   0.722   7.587  0.3332  0.3705  0.5863
 6663TIP3    H241625   3.813   0.621   7.484 -1.5062  0.0730  0.0449
 6664TIP3   OH241626   1.701   4.983   7.317  0.5384 -0.0716 -0.0766
 6664TIP3    H141627   1.666   4.962   7.230  0.2396 -0.0439  0.0350
 6664TIP3    H241628   1.625   5.014   7.366  0.5955 -0.6245  0.3682
 6665TIP3   OH241629   4.504   4.952   1.304  0.5276 -0.1244 -0.1396
 6665TIP3    H141630   4.506   5.012   1.379 -0.4998  0.1350 -0.3064
 6665TIP3    H241631   4.536   4.869   1.339  0.2913  0.0601  0.5335
 6666TIP3   OH241632   2.728   2.238   8.717  0.2616 -0.4438 -0.1197
 6666TIP3    H141633   2.752   2.299   8.647 -1.9807 -0.5845 -1.0889
 6666TIP3    H241634   2.791   2.167   8.710  0.8249  0.1410 -1.2116
 6667TIP3   OH241635   6.577   5.659   0.424 -0.3495  0.4205 -0.0843
 6667TIP3    H141636   6.634   5.582   0.424 -2.7495 -1.5128  1.7648
 6667TIP3    H241637   6.630   5.728   0.462  1.3416 -0.7706 -0.1654
 6668TIP3   OH241638   5.015   3.388   1.906 -1.1776 -0.5362 -0.2834
 6668TIP3    H141639   5.016   3.344   1.820 -1.3650 -1.4524  0.1658
 6668TIP3    H241640   4.974   3.324   1.964 -3.4843  1.0654 -0.0175
 6669TIP3   OH241641   6.678   2.951   1.783 -0.0984 -0.1271 -0.3558
 6669TIP3    H141642   6.712   2.869   1.819 -1.2926 -0.1481  0.7847
 6669TIP3    H241643   6.595   2.928   1.742 -1.0106  0.6540  0.9576
 6670TIP3   OH241644   1.706   3.235   0.385  0.0522 -0.3621  0.5054
 6670TIP3    H141645   1.789   3.282   0.398 -0.0128 -0.4749  1.3771
 6670TIP3    H241646   1.732   3.146   0.362  0.1830  0.1636 -1.5823
 6671TIP3   OH241647   6.242   3.979   8.090  0.2663  0.3769 -0.4584
 6671TIP3    H141648   6.257   4.068   8.058 -0.0856  1.0782  1.2561
 6671TIP3    H241649   6.179   3.988   8.161 -1.2723 -1.4849 -1.4891
 6672TIP3   OH241650   0.022   0.118   6.812  0.5442  0.2449  0.2412
 6672TIP3    H141651  -0.064   0.129   6.771  0.9931  1.1928 -0.4893
 6672TIP3    H241652   0.049   0.207   6.835  1.9449  0.1266 -0.8340
 6673TIP3   OH241653   6.661   3.676   7.911  0.0495  0.4352  0.7372
 6673TIP3    H141654   6.673   3.712   7.823  0.5006 -2.1055 -0.3414
 6673TIP3    H241655   6.604   3.739   7.955 -0.0767  1.8630 -1.3191
 6674TIP3   OH241656   3.014   3.335   2.157 -0.1462 -0.1815 -0.0295
 6674TIP3    H141657   2.940   3.340   2.097 -1.5788 -2.3921  1.4524
 6674TIP3    H241658   2.997   3.403   2.222 -0.4270 -0.1373 -0.1486
 6675TIP3   OH241659   5.958   6.259   8.884  0.1717  0.1356  0.3608
 6675TIP3    H141660   5.998   6.252   8.971  0.7242  3.3986  0.4898
 6675TIP3    H241661   6.027   6.231   8.824  0.6015  0.0813  0.8687
 6676TIP3   OH241662   6.434   5.113   6.598 -0.5763  0.0159  0.6041
 6676TIP3    H141663   6.435   5.036   6.656 -1.1045  0.0088  0.6118
 6676TIP3    H241664   6.361   5.096   6.538  0.6823 -0.5278 -0.8424
 6677TIP3   OH241665   4.007   3.481   7.227 -0.3068  0.2471  0.8476
 6677TIP3    H141666   4.018   3.481   7.132 -1.0840  0.3041  0.7562
 6677TIP3    H241667   4.041   3.396   7.255  1.4937  0.8820  0.7211
 6678TIP3   OH241668   1.890   2.467   0.180  0.7040  0.4237 -0.8848
 6678TIP3    H141669   1.868   2.386   0.227 -0.7050 -0.1564 -2.4371
 6678TIP3    H241670   1.957   2.440   0.117 -0.1477  0.3221 -1.7643
 6679TIP3   OH241671   6.248   0.448   8.841 -0.3935  0.4860 -0.1372
 6679TIP3    H141672   6.222   0.357   8.857  1.4347 -0.1889 -0.8089
 6679TIP3    H241673   6.204   0.472   8.760 -1.8241  0.6306  0.6485
 6680TIP3   OH241674   5.213   0.334   1.579  0.2467 -0.3248  0.3357
 6680TIP3    H141675   5.148   0.403   1.592 -0.2305 -0.6894 -0.0455
 6680TIP3    H241676   5.217   0.289   1.663 -0.9271 -1.0755  0.0108
 6681TIP3   OH241677   1.704   5.273   8.118  0.1655 -0.2649  0.1925
 6681TIP3    H141678   1.762   5.324   8.175  0.3961 -0.1333 -0.1542
 6681TIP3    H241679   1.616   5.287   8.153 -0.0121  1.8469 -0.9733
 6682TIP3   OH241680   2.893   1.691   0.129 -0.3714  0.0643  0.1652
 6682TIP3    H141681   2.895   1.686   0.225 -3.6589 -0.8508  0.3392
 6682TIP3    H241682   2.867   1.603   0.101  1.2992  0.0885 -1.6825
 6683TIP3   OH241683   5.910   1.773   1.222 -0.7113 -0.1293  0.3200
 6683TIP3    H141684   5.915   1.695   1.167 -0.9946  0.4509 -0.5609
 6683TIP3    H241685   5.953   1.748   1.304 -0.0730 -0.9437 -0.2489
 6684TIP3   OH241686   6.069   2.979   7.252  0.1537 -0.3230  0.5068
 6684TIP3    H141687   5.991   2.991   7.306 -1.3770  0.3397 -1.7245
 6684TIP3    H241688   6.094   2.888   7.267 -1.8636 -0.9650  0.2596
 6685TIP3   OH241689   0.449   0.025   8.689  0.2574 -0.4150  0.5861
 6685TIP3    H141690   0.387  -0.003   8.621  0.0178 -2.0548  1.4301
 6685TIP3    H241691   0.437   0.119   8.695  0.9128 -0.0390 -2.2588
 6686TIP3   OH241692   3.003   2.325   7.362 -0.1868  0.4381 -0.0012
 6686TIP3    H141693   2.956   2.251   7.400 -1.3310  0.9283 -0.4236
 6686TIP3    H241694   2.960   2.403   7.398  0.8366  0.9152  0.2498
 6687TIP3   OH241695   5.589   0.742   2.146  0.4793  0.3952 -0.3971
 6687TIP3    H141696   5.521   0.675   2.148 -0.5893  1.4617  0.7085
 6687TIP3    H241697   5.625   0.737   2.057  0.5610 -1.7200 -0.2907
 6688TIP3   OH241698   4.670   0.249   1.636  0.1354 -0.8693 -0.0350
 6688TIP3    H141699   4.626   0.325   1.676 -0.0930 -1.1836  0.3241
 6688TIP3    H241700   4.610   0.177   1.652 -0.8429 -0.7079 -2.5312
 6689TIP3   OH241701   3.505   3.303   2.085 -0.2276  0.0561  0.2568
 6689TIP3    H141702   3.536   3.291   2.175  0.6325 -1.2384 -0.1848
 6689TIP3    H241703   3.518   3.218   2.044 -0.0810  0.7852 -1.2590
 6690TIP3   OH241704   2.549   6.638   8.195  0.2151  0.6432  0.1302
 6690TIP3    H141705   2.577   6.575   8.129  1.0730  0.2966  0.8032
 6690TIP3    H241706   2.465   6.604   8.227 -0.5500  1.1749 -1.2336
 6691TIP3   OH241707   2.783   0.457   1.570 -0.0273 -0.2313  0.6799
 6691TIP3    H141708   2.796   0.362   1.575  1.1436 -0.2384 -1.3130
 6691TIP3    H241709   2.752   0.473   1.481  1.8770  1.4045  0.2232
 6692TIP3   OH241710   0.450   4.019   1.870 -0.4841 -0.3426  0.0846
 6692TIP3    H141711   0.430   3.955   1.801 -0.5017 -0.7976  0.5105
 6692TIP3    H241712   0.405   4.099   1.842  1.6407  0.3045 -1.8004
 6693TIP3   OH241713   2.509   1.823   8.048  0.0462  0.1916  0.3278
 6693TIP3    H141714   2.429   1.804   7.999 -0.4031 -0.1347  1.1609
 6693TIP3    H241715   2.490   1.792   8.136  0.7820  0.8963  0.7434
 6694TIP3   OH241716   2.731   0.808   8.902  0.6126 -0.0267  0.2355
 6694TIP3    H141717   2.804   0.785   8.959 -0.5885 -2.9148  0.7650
 6694TIP3    H241718   2.654   0.803   8.959 -0.2855  0.2700 -0.9259
 6695TIP3   OH241719   2.782   4.823   1.799  0.3210  0.6605  0.4977
 6695TIP3    H141720   2.853   4.859   1.852 -0.6180  0.5440  1.8813
 6695TIP3    H241721   2.766   4.736   1.835 -0.3284  0.5705  0.0174
 6696TIP3   OH241722   1.796   2.158   8.746  0.1611 -0.5395 -0.6195
 6696TIP3    H141723   1.865   2.221   8.723 -0.0740 -0.1951 -0.3874
 6696TIP3    H241724   1.730   2.169   8.678  0.2195 -0.6961 -0.7033
 6697TIP3   OH241725   3.571   5.715   0.512  0.3916 -0.4913  0.4542
 6697TIP3    H141726   3.659   5.750   0.499  0.5512 -0.8369  0.5801
 6697TIP3    H241727   3.547   5.743   0.601  0.7653 -1.2063  0.7927
 6698TIP3   OH241728   6.417   4.787   0.260  0.0981  0.0176  0.1613
 6698TIP3    H141729   6.452   4.704   0.227 -2.5335 -0.8542 -0.6216
 6698TIP3    H241730   6.394   4.769   0.351  2.9337  1.0729  1.2325
 6699TIP3   OH241731   3.098   6.551   7.330 -0.0725  0.2562  0.4389
 6699TIP3    H141732   3.156   6.482   7.298 -0.9665 -0.3146 -0.0170
 6699TIP3    H241733   3.065   6.594   7.251 -0.9089  0.0141  0.6398
 6700TIP3   OH241734   5.053   3.971   8.693 -0.3008 -0.5182  0.3189
 6700TIP3    H141735   5.122   3.905   8.699  0.1007 -0.1528 -0.2096
 6700TIP3    H241736   5.072   4.018   8.612 -1.3104 -0.5600  0.0471
 6701TIP3   OH241737   5.329   3.852   2.135  0.0725 -0.3878 -0.1961
 6701TIP3    H141738   5.235   3.839   2.153 -0.0681 -1.0609 -1.3722
 6701TIP3    H241739   5.349   3.937   2.176 -0.9579 -0.4057  0.3844
 6702TIP3   OH241740   4.853   2.330   7.169 -0.0149 -0.0747 -0.0846
 6702TIP3    H141741   4.903   2.405   7.138  0.2472  0.3900  1.3957
 6702TIP3    H241742   4.794   2.308   7.096  0.6781  0.8577 -0.9450
 6703TIP3   OH241743   6.545   4.543   8.756  0.2572  0.5867  0.2567
 6703TIP3    H141744   6.616   4.540   8.692 -0.8914  0.2505 -1.0562
 6703TIP3    H241745   6.517   4.635   8.757 -0.3910  0.4111 -0.5201
 6704TIP3   OH241746   4.590   6.175   2.242 -0.7600 -0.6681 -0.1312
 6704TIP3    H141747   4.651   6.124   2.188  2.5297  3.1874 -0.4782
 6704TIP3    H241748   4.627   6.171   2.330 -0.2763  1.1743 -0.2100
 6705TIP3   OH241749   4.575   2.230   7.759  0.0956 -0.1457 -0.0027
 6705TIP3    H141750   4.637   2.178   7.708  0.4181  0.0050  0.2315
 6705TIP3    H241751   4.630   2.286   7.814 -0.2464  0.4639 -0.2680
 6706TIP3   OH241752   2.663   5.695   1.883  0.0874 -0.0220 -0.3330
 6706TIP3    H141753   2.654   5.634   1.957  0.6455  0.3419  0.0455
 6706TIP3    H241754   2.744   5.742   1.901 -0.9210  1.6727  0.0043
 6707TIP3   OH241755   4.736   2.103   1.833 -0.8893 -0.1485 -0.4023
 6707TIP3    H141756   4.757   2.018   1.870  0.4169  0.1336 -0.4604
 6707TIP3    H241757   4.657   2.088   1.781  0.5844 -1.8624 -2.2992
 6708TIP3   OH241758   1.309   3.261   0.603  0.2294 -0.5698 -0.5302
 6708TIP3    H141759   1.272   3.200   0.539 -0.7816 -0.5148 -0.0175
 6708TIP3    H241760   1.252   3.254   0.679  1.1144 -0.2475  0.1833
 6709TIP3   OH241761   6.725   0.019   8.793  0.9273 -0.0661  0.3342
 6709TIP3    H141762   6.690  -0.039   8.861 -0.8631 -0.5728 -0.9492
 6709TIP3    H241763   6.697   0.107   8.819 -1.8302 -0.4872 -0.8464
 6710TIP3   OH241764   5.638   0.132   8.313  0.3080 -0.0423  0.3105
 6710TIP3    H141765   5.596   0.046   8.318  0.0196  0.1671  2.8632
 6710TIP3    H241766   5.732   0.113   8.319  0.3556 -0.2371 -0.7993
 6711TIP3   OH241767   3.813   0.584   7.993 -0.1767  0.1679  0.4102
 6711TIP3    H141768   3.778   0.667   7.960  0.7426  0.7254  0.8118
 6711TIP3    H241769   3.888   0.609   8.046 -0.3112 -0.8795  1.1173
 6712TIP3   OH241770   1.743   0.870   8.462  0.2278  0.0853  0.3052
 6712TIP3    H141771   1.774   0.955   8.491 -0.8675 -0.0868  2.1124
 6712TIP3    H241772   1.653   0.865   8.494 -0.0267 -1.3906 -0.5495
 6713TIP3   OH241773   3.372   1.129   7.553 -0.0554  0.2873  0.5044
 6713TIP3    H141774   3.318   1.202   7.523 -0.5191 -0.8471 -1.5803
 6713TIP3    H241775   3.459   1.146   7.516 -0.6606 -1.1805 -1.7874
 6714TIP3   OH241776   0.566   1.759   6.828 -0.0580  0.1582 -0.0206
 6714TIP3    H141777   0.601   1.848   6.823  0.8751 -0.2381 -1.0078
 6714TIP3    H241778   0.635   1.704   6.789 -0.0183 -1.1664  1.7703
 6715TIP3   OH241779   1.036   5.084   7.449 -0.3235  0.0746  0.3157
 6715TIP3    H141780   1.118   5.092   7.401  0.1655 -4.3594  0.0810
 6715TIP3    H241781   0.969   5.076   7.382 -0.8720  2.2198  0.5234
 6716TIP3   OH241782   1.063   2.558   7.963  0.5612  0.4064  0.4243
 6716TIP3    H141783   0.981   2.578   8.008 -0.3914  0.1677 -1.1411
 6716TIP3    H241784   1.109   2.642   7.960  0.1798  0.6388  0.9282
 6717TIP3   OH241785   4.255   0.672   7.825  0.0407  0.1238  0.2972
 6717TIP3    H141786   4.169   0.634   7.846  0.4042 -0.5302  0.6352
 6717TIP3    H241787   4.318   0.612   7.865  0.6704  0.4025 -0.2672
 6718TIP3   OH241788   2.951   3.528   0.411 -0.0450 -0.3470  0.2330
 6718TIP3    H141789   2.963   3.484   0.495  0.3629 -1.2516 -0.2776
 6718TIP3    H241790   3.030   3.579   0.398  0.0205 -0.4399  0.2675
 6719TIP3   OH241791   2.925   4.834   8.559 -0.2277  0.5363  0.1811
 6719TIP3    H141792   2.937   4.905   8.495  0.3071 -1.4678 -2.0847
 6719TIP3    H241793   3.012   4.823   8.597  0.1085  0.0247 -0.7006
 6720TIP3   OH241794   6.688   1.296   7.862 -0.1820 -0.7355 -0.0813
 6720TIP3    H141795   6.656   1.300   7.952  1.2982  0.9892  0.4322
 6720TIP3    H241796   6.628   1.237   7.817 -2.4729  0.3459  1.4002
 6721TIP3   OH241797   1.099   5.873   2.260  0.3861  0.2019  0.7624
 6721TIP3    H141798   1.122   5.828   2.341  1.5715 -0.9809 -0.1854
 6721TIP3    H241799   1.031   5.819   2.220  1.0175 -0.1666  0.1622
 6722TIP3   OH241800   1.245   3.205   8.127  0.0365 -0.0818 -0.0711
 6722TIP3    H141801   1.247   3.222   8.033  2.1484 -0.3434 -0.1224
 6722TIP3    H241802   1.323   3.249   8.161 -0.3126 -0.5759  1.4425
 6723TIP3   OH241803   1.383   1.015   2.220  0.5558  0.1856 -0.0951
 6723TIP3    H141804   1.365   0.970   2.303  0.4348 -0.4906 -0.4748
 6723TIP3    H241805   1.423   1.098   2.245  2.8924 -1.0651  0.6124
 6724TIP3   OH241806   6.101   4.975   7.670 -0.4711 -0.0078  0.2211
 6724TIP3    H141807   6.142   4.889   7.675  1.4699  0.9096  0.8765
 6724TIP3    H241808   6.132   5.012   7.587 -0.0165  0.6537  0.6748
 6725TIP3   OH241809   0.456   5.778   1.015 -0.3677  0.8568 -0.2427
 6725TIP3    H141810   0.521   5.794   0.947 -1.0190  0.6327 -0.9257
 6725TIP3    H241811   0.407   5.701   0.984  0.6640 -0.5803  1.4452
 6726TIP3   OH241812   5.159   5.211   2.067  0.1981  0.0873  0.3759
 6726TIP3    H141813   5.120   5.173   2.146 -2.5988  1.0559 -0.4049
 6726TIP3    H241814   5.141   5.305   2.073  1.1012  0.3722 -0.8007
 6727TIP3   OH241815   2.661   1.932   2.849  0.2718  0.1213  0.2140
 6727TIP3    H141816   2.649   1.838   2.865 -0.4162  0.2770  0.6661
 6727TIP3    H241817   2.662   1.971   2.937 -1.1145  0.7158 -0.0039
 6728TIP3   OH241818   3.991   6.170   1.522 -0.5890  0.6726 -0.1717
 6728TIP3    H141819   3.976   6.240   1.586  0.3034  0.7990 -0.0864
 6728TIP3    H241820   4.083   6.180   1.497 -0.3422 -0.6669  0.0958
 6729TIP3   OH241821   0.022   2.160   8.403 -0.2498 -0.1686  0.0980
 6729TIP3    H141822   0.112   2.180   8.378 -0.6898 -0.6665 -2.0829
 6729TIP3    H241823   0.025   2.069   8.432  0.2054  0.3039  1.6131
 6730TIP3   OH241824   5.170   3.944   0.144  0.3063  0.3450 -0.1233
 6730TIP3    H141825   5.193   3.851   0.137  0.0991  0.2625  0.2676
 6730TIP3    H241826   5.197   3.982   0.060  0.8047  0.0250 -0.1127
 6731TIP3   OH241827   2.054   4.095   8.042 -0.0244 -0.0828 -0.4436
 6731TIP3    H141828   2.069   4.167   7.981 -0.3891  0.4798  0.1211
 6731TIP3    H241829   2.141   4.075   8.077 -0.0033  0.4707 -0.1729
 6732TIP3   OH241830   2.009   5.427   0.469  0.3165  0.1911 -0.3976
 6732TIP3    H141831   2.026   5.386   0.384 -0.6064  0.8456 -0.9105
 6732TIP3    H241832   1.932   5.481   0.455  0.5453  0.8309  0.6918
 6733TIP3   OH241833   1.116   1.501   7.898  0.2241  0.2732 -0.3921
 6733TIP3    H141834   1.193   1.445   7.910  0.1976  0.6742  2.6649
 6733TIP3    H241835   1.150   1.581   7.859  1.1434 -0.0757 -0.3302
 6734TIP3   OH241836   4.231   4.684   1.923 -0.0918 -0.1193  0.9300
 6734TIP3    H141837   4.270   4.689   2.011  1.7033 -1.2859  0.2579
 6734TIP3    H241838   4.178   4.604   1.925  0.5716 -0.5724  0.7408
 6735TIP3   OH241839   6.227   1.455   6.637  0.5759 -0.7297 -0.1805
 6735TIP3    H141840   6.180   1.405   6.570  0.0158  0.1627 -0.4855
 6735TIP3    H241841   6.160   1.477   6.701  0.3941  1.0435 -0.9023
 6736TIP3   OH241842   5.156   3.752   1.114 -0.3092  0.2581  0.3937
 6736TIP3    H141843   5.162   3.707   1.030 -1.2865 -0.3621  0.6477
 6736TIP3    H241844   5.062   3.760   1.131 -0.1669  1.9464  0.6043
 6737TIP3   OH241845   6.113   4.416   0.923 -0.0329  0.1419  0.4426
 6737TIP3    H141846   6.019   4.411   0.904  0.0862  2.2697 -1.0385
 6737TIP3    H241847   6.153   4.354   0.862 -0.3791  0.3318  0.0133
 6738TIP3   OH241848   4.298   4.261   7.734  0.1660 -0.1732  0.4079
 6738TIP3    H141849   4.225   4.319   7.757 -0.9954 -1.0920 -0.8434
 6738TIP3    H241850   4.361   4.319   7.692  0.1575  0.6242  1.4518
 6739TIP3   OH241851   3.407   1.850   2.079 -0.3788 -0.3220 -0.2530
 6739TIP3    H141852   3.398   1.898   2.162 -1.4526 -2.2452  0.8257
 6739TIP3    H241853   3.492   1.806   2.086 -0.4794 -0.5024 -0.1415
 6740TIP3   OH241854   6.638   5.182   8.367 -0.3364  0.5302  0.1523
 6740TIP3    H141855   6.713   5.152   8.316  0.4900  1.0984  1.0004
 6740TIP3    H241856   6.562   5.147   8.321  0.3629  1.1637 -1.5646
 6741TIP3   OH241857   5.397   1.470   1.748 -0.6629 -0.0045  0.0732
 6741TIP3    H141858   5.339   1.395   1.734  0.4639 -1.0878  1.0002
 6741TIP3    H241859   5.344   1.532   1.798 -0.6857 -1.4662  1.9496
 6742TIP3   OH241860   3.759   4.138   0.361  0.3268 -0.1041 -0.4286
 6742TIP3    H141861   3.685   4.144   0.422  0.4461  1.9590 -0.4390
 6742TIP3    H241862   3.725   4.170   0.278  0.2438 -2.6462 -1.4868
 6743TIP3   OH241863   5.293   2.867   1.152 -0.4564 -0.1628 -0.4762
 6743TIP3    H141864   5.200   2.886   1.142 -0.5257 -0.5159 -0.5082
 6743TIP3    H241865   5.333   2.952   1.170 -0.7444  0.0346 -0.7515
 6744TIP3   OH241866   2.714   4.909   0.715  0.1718 -0.5721 -0.5072
 6744TIP3    H141867   2.675   4.932   0.630 -1.7529 -2.2757 -0.1649
 6744TIP3    H241868   2.656   4.950   0.779  0.0525 -1.5184  0.0019
 6745TIP3   OH241869   2.742   1.051   1.076  0.2268 -0.0360  0.6308
 6745TIP3    H141870   2.671   1.061   1.140  0.1399  1.2390  0.3536
 6745TIP3    H241871   2.697   1.045   0.992  0.4369  0.7278  0.4581
 6746TIP3   OH241872   6.738   5.098   1.188  0.2559  0.4637 -0.1442
 6746TIP3    H141873   6.767   5.171   1.133  0.2687  0.2554 -0.4142
 6746TIP3    H241874   6.767   5.121   1.276  2.0487 -0.1542 -0.5412
 6747TIP3   OH241875   6.337   6.443   1.298 -0.9020 -0.4283 -0.4853
 6747TIP3    H141876   6.272   6.378   1.323  0.1888 -1.2961  0.1956
 6747TIP3    H241877   6.327   6.514   1.362 -0.2867 -1.1779  0.4703
 6748TIP3   OH241878   4.572   3.572   7.600  0.2038 -0.0658  0.5629
 6748TIP3    H141879   4.616   3.509   7.657 -0.7829 -1.9277 -0.6383
 6748TIP3    H241880   4.509   3.520   7.551 -1.1214  1.9855 -0.0401
 6749TIP3   OH241881   1.376   6.527   7.538  0.2185 -0.5424 -0.1195
 6749TIP3    H141882   1.461   6.491   7.513 -0.0353 -0.8370 -0.5760
 6749TIP3    H241883   1.320   6.450   7.551 -0.3165 -0.3327 -1.0645
 6750TIP3   OH241884   3.913   3.007   8.891 -0.1418 -0.0421  0.4053
 6750TIP3    H141885   3.942   2.963   8.810  1.3418  1.4817  0.0460
 6750TIP3    H241886   3.824   3.035   8.872 -0.0574 -0.3074 -0.4428
 6751TIP3   OH241887   4.156   5.256   6.973 -0.2482  0.2110  0.0589
 6751TIP3    H141888   4.074   5.206   6.972  0.1057 -0.3766  0.1701
 6751TIP3    H241889   4.224   5.190   6.983  0.1966  0.7546  0.7193
 6752TIP3   OH241890   6.745   6.399   0.623 -0.1167  0.4201 -0.1855
 6752TIP3    H141891   6.716   6.490   0.633  0.5629  0.5199  1.1836
 6752TIP3    H241892   6.717   6.374   0.535 -1.0605  1.6791 -0.2757
 6753TIP3   OH241893   2.971   2.074   8.755 -0.4165  0.4674  0.5156
 6753TIP3    H141894   2.999   2.161   8.726 -0.5701  0.5772  0.6949
 6753TIP3    H241895   3.027   2.056   8.831  0.4367 -0.0923 -0.2178
 6754TIP3   OH241896   3.618   2.449   7.138 -1.0710 -0.0633 -0.2027
 6754TIP3    H141897   3.559   2.507   7.185 -1.1777 -0.7978  0.6038
 6754TIP3    H241898   3.569   2.367   7.128 -0.4786 -0.4256 -0.2169
 6755TIP3   OH241899   1.282   1.641   0.946  0.1140 -0.3085  0.0796
 6755TIP3    H141900   1.375   1.627   0.960 -0.2610 -2.5459  0.7366
 6755TIP3    H241901   1.250   1.558   0.910 -1.9219 -0.2642  1.6134
 6756TIP3   OH241902   0.675   6.385   1.742 -0.0240 -0.2014  0.7235
 6756TIP3    H141903   0.734   6.425   1.677 -0.2385 -0.8980  0.0865
 6756TIP3    H241904   0.599   6.357   1.691 -0.1668 -0.8210  1.2674
 6757TIP3   OH241905   0.672   3.551   1.223 -0.4751 -0.0415  0.4197
 6757TIP3    H141906   0.697   3.578   1.312 -2.0552  1.5681  0.4325
 6757TIP3    H241907   0.608   3.481   1.236 -0.2987 -0.1837  0.5278
 6758TIP3   OH241908   5.165   2.293   0.018  0.9155 -0.1161  0.1174
 6758TIP3    H141909   5.249   2.248   0.006 -0.2560 -2.3486 -0.3161
 6758TIP3    H241910   5.118   2.278  -0.065 -0.5277 -0.3626  0.9482
 6759TIP3   OH241911   1.945   2.875   0.616 -0.1919 -0.3678 -0.3057
 6759TIP3    H141912   1.944   2.828   0.533 -3.0116  2.2015 -1.9542
 6759TIP3    H241913   1.857   2.863   0.652 -1.8832  4.7691 -1.8258
 6760TIP3   OH241914   0.033   1.320   2.100 -0.0021  0.3234  0.6248
 6760TIP3    H141915   0.033   1.410   2.133 -0.5742  0.7417 -0.4775
 6760TIP3    H241916  -0.041   1.278   2.144 -0.7809  0.8849 -0.1306
 6761TIP3   OH241917   4.000   3.459   8.308 -0.3457  0.0279 -0.5434
 6761TIP3    H141918   3.990   3.551   8.331 -2.8930 -0.7958  2.3617
 6761TIP3    H241919   3.915   3.434   8.272  0.5669 -1.0445 -2.0581
 6762TIP3   OH241920   4.409   6.332   8.864 -0.4558  0.0043 -0.3656
 6762TIP3    H141921   4.500   6.362   8.859  0.0693 -0.6863  2.7854
 6762TIP3    H241922   4.398   6.275   8.788  1.8637 -0.2054 -0.6123
 6763TIP3   OH241923   3.138   2.791   7.382  0.7214  0.3566  0.3580
 6763TIP3    H141924   3.142   2.696   7.373  1.6834  0.5248 -1.3476
 6763TIP3    H241925   3.052   2.815   7.348  2.0761  0.4158 -3.4987
 6764TIP3   OH241926   1.537   4.240   7.695  0.2532  0.1268  0.2956
 6764TIP3    H141927   1.541   4.292   7.615 -1.2611 -0.6114 -0.3074
 6764TIP3    H241928   1.600   4.281   7.754  2.1962  0.0533 -1.6260
 6765TIP3   OH241929   6.059   4.467   8.456  0.1877 -0.4130 -0.1630
 6765TIP3    H141930   6.150   4.469   8.484  0.3316  1.7459 -0.6262
 6765TIP3    H241931   6.033   4.559   8.451 -2.2561 -0.9591  0.6858
 6766TIP3   OH241932   2.213   0.997   2.168  0.3308 -0.0859 -0.3066
 6766TIP3    H141933   2.196   1.080   2.212  0.5003  0.7858 -1.8083
 6766TIP3    H241934   2.289   0.961   2.213  0.0330  0.3981  0.5915
 6767TIP3   OH241935   2.905   2.176   3.055  0.2484  0.2591 -0.2269
 6767TIP3    H141936   2.915   2.259   3.102 -0.3024 -0.1833  0.6914
 6767TIP3    H241937   2.986   2.168   3.004  1.2528  0.3784  1.2744
 6768TIP3   OH241938   1.467   5.278   1.672  0.3001  0.5227  0.1191
 6768TIP3    H141939   1.438   5.197   1.716  1.3506  0.2186  0.2781
 6768TIP3    H241940   1.461   5.257   1.579 -1.2947  0.9433  0.0890
 6769TIP3   OH241941   1.518   5.439   8.951 -0.3429  0.2282  0.8973
 6769TIP3    H141942   1.609   5.454   8.977 -0.5537  1.4325  0.9708
 6769TIP3    H241943   1.466   5.467   9.026 -0.9513  3.5522 -0.6053
 6770TIP3   OH241944   1.533   6.371   8.604 -0.0263 -0.0378  0.0577
 6770TIP3    H141945   1.551   6.458   8.569 -0.7264 -0.9770 -2.9924
 6770TIP3    H241946   1.611   6.347   8.653 -0.0686  2.4931  1.4839
 6771TIP3   OH241947   4.976   3.414   8.168  0.6071 -0.1885 -0.1099
 6771TIP3    H141948   4.958   3.479   8.100 -0.5687 -0.2071  0.1691
 6771TIP3    H241949   4.894   3.405   8.216  1.3397 -0.3561  1.1737
 6772TIP3   OH241950   4.515   0.268   0.755 -0.6088  0.4592 -0.3101
 6772TIP3    H141951   4.519   0.219   0.673 -1.6586 -0.9242  0.4233
 6772TIP3    H241952   4.421   0.279   0.772 -0.3975  1.7839  0.1067
 6773TIP3   OH241953   0.332   1.389   1.835 -0.0480  0.1608  0.7046
 6773TIP3    H141954   0.245   1.355   1.817  0.2508  0.7536 -2.2807
 6773TIP3    H241955   0.335   1.397   1.931 -2.8201 -0.9328  0.9692
 6774TIP3   OH241956   2.349   2.853   1.771  0.5529 -0.3196 -0.2729
 6774TIP3    H141957   2.287   2.909   1.817  1.2991  0.5676 -0.3296
 6774TIP3    H241958   2.399   2.810   1.840 -0.6993 -1.7484 -0.1990
 6775TIP3   OH241959   4.426   2.281   1.955 -0.4586  0.6479 -0.1505
 6775TIP3    H141960   4.506   2.246   1.994 -0.1339 -0.3011 -1.5885
 6775TIP3    H241961   4.448   2.291   1.862 -1.7819  1.0985 -0.4324
 6776TIP3   OH241962   2.642   4.027   7.751 -0.3641 -0.1047 -0.0741
 6776TIP3    H141963   2.563   3.987   7.787 -1.9655  1.7381 -1.3199
 6776TIP3    H241964   2.660   4.101   7.810 -0.8277  0.7084 -0.9210
 6777TIP3   OH241965   3.549   2.265   8.683 -0.5955  0.3491 -0.3011
 6777TIP3    H141966   3.513   2.325   8.617 -2.2084 -0.5611 -0.2799
 6777TIP3    H241967   3.602   2.203   8.632 -0.1546  0.8729 -0.4910
 6778TIP3   OH241968   6.557   0.014   1.666 -0.5837  0.5561 -0.8563
 6778TIP3    H141969   6.466   0.022   1.696 -0.4287 -1.1699  0.2377
 6778TIP3    H241970   6.592   0.103   1.670 -1.6773  0.9627  0.5780
 6779TIP3   OH241971   0.052   0.504   0.902 -0.3250 -0.2339  0.1957
 6779TIP3    H141972   0.051   0.457   0.985  0.9725  1.5615  1.2915
 6779TIP3    H241973  -0.031   0.553   0.901 -0.8510 -1.1062 -0.1157
 6780TIP3   OH241974   4.747   4.160   0.677 -0.0353 -0.1402 -0.5115
 6780TIP3    H141975   4.720   4.225   0.742  0.1789  0.8283 -1.3524
 6780TIP3    H241976   4.837   4.186   0.654 -0.0202 -0.6047 -1.0049
 6781TIP3   OH241977   5.362   1.887   2.190 -0.2208 -0.0125 -0.2900
 6781TIP3    H141978   5.346   1.804   2.235  0.3055 -0.3082 -0.6385
 6781TIP3    H241979   5.421   1.864   2.118 -0.1335  0.6523 -0.4342
 6782TIP3   OH241980   3.055   2.314   8.587 -0.1439 -0.8745  0.5310
 6782TIP3    H141981   3.102   2.364   8.654  0.2323 -1.2213  0.5293
 6782TIP3    H241982   3.009   2.381   8.536  1.8004 -0.3216 -0.6136
 6783TIP3   OH241983   6.403   4.852   1.025  0.5092  0.0239 -0.1406
 6783TIP3    H141984   6.323   4.802   1.014  0.3485  0.3431 -0.4314
 6783TIP3    H241985   6.472   4.795   0.991  0.3244  0.0174 -0.5015
 6784TIP3   OH241986   5.939   1.410   7.710  0.0168  0.4765 -0.1909
 6784TIP3    H141987   5.877   1.481   7.690 -1.2466 -0.9127 -1.3985
 6784TIP3    H241988   5.911   1.378   7.796  1.5120  2.3202  1.0775
 6785TIP3   OH241989   5.556   5.267   0.615 -0.3041 -0.0586  0.2679
 6785TIP3    H141990   5.522   5.223   0.693  1.2427 -0.4099  0.7923
 6785TIP3    H241991   5.648   5.241   0.611 -0.2145  0.3878 -1.3908
 6786TIP3   OH241992   1.498   6.266   0.668  0.0317  0.1002 -0.1875
 6786TIP3    H141993   1.566   6.317   0.624  0.1297  0.0656 -0.0774
 6786TIP3    H241994   1.546   6.206   0.725 -0.0539 -0.5580 -0.7858
 6787TIP3   OH241995   2.646   4.348   7.577 -0.7346  0.0406 -0.0456
 6787TIP3    H141996   2.661   4.354   7.483 -1.0972  0.4667 -0.0797
 6787TIP3    H241997   2.732   4.363   7.616 -0.7179  0.6167 -0.2898
 6788TIP3   OH241998   2.068   3.649   2.517  0.5552 -0.1091 -0.3004
 6788TIP3    H141999   2.025   3.648   2.603  1.2226 -0.8028  0.0363
 6788TIP3    H242000   2.070   3.558   2.490  0.0617  0.1422 -1.2159
 6789TIP3   OH242001   2.414   2.261   7.547  0.2998 -0.0836 -0.1173
 6789TIP3    H142002   2.359   2.226   7.477  1.3236 -0.2050 -0.8792
 6789TIP3    H242003   2.460   2.335   7.507 -0.5817  1.1234  1.0046
 6790TIP3   OH242004   2.095   3.578   1.056 -0.3366 -0.6132 -0.4650
 6790TIP3    H142005   2.127   3.665   1.033 -0.2827 -0.9845 -1.9500
 6790TIP3    H242006   2.144   3.553   1.134 -0.8068  0.9263  0.3553
 6791TIP3   OH242007   3.733   1.433   1.377 -0.5403 -0.1814 -0.0156
 6791TIP3    H142008   3.768   1.374   1.444  0.2005 -0.8080 -0.9332
 6791TIP3    H242009   3.770   1.401   1.295 -4.4727 -1.9211 -1.3347
 6792TIP3   OH242010   4.622   1.053   1.111 -0.0783 -0.2184 -0.0248
 6792TIP3    H142011   4.632   1.147   1.123 -0.6936 -0.0668 -0.6994
 6792TIP3    H242012   4.571   1.024   1.187 -0.2253  0.0458 -0.0248
 6793TIP3   OH242013   1.903   2.336   7.762 -0.0754 -0.2526 -0.0527
 6793TIP3    H142014   1.915   2.386   7.681 -1.4887 -0.0603 -0.1537
 6793TIP3    H242015   1.990   2.298   7.779  0.9287  1.8024 -0.2494
 6794TIP3   OH242016   2.008   4.244   1.582 -0.5770  0.6347 -0.4070
 6794TIP3    H142017   2.094   4.241   1.540 -0.9308 -2.3829 -1.1375
 6794TIP3    H242018   1.948   4.213   1.515 -1.6470 -1.0490  1.2591
 6795TIP3   OH242019   2.082   5.607   8.980 -0.0720  0.2197 -0.2224
 6795TIP3    H142020   2.115   5.689   8.942 -1.0311  0.7419  0.0443
 6795TIP3    H242021   2.024   5.572   8.912 -1.8034  1.1631  0.7015
 6796TIP3   OH242022   2.890   3.870   6.982  0.7253  0.4379  0.1778
 6796TIP3    H142023   2.971   3.904   6.945  0.2703 -1.9955 -3.5537
 6796TIP3    H242024   2.820   3.906   6.927 -0.6723  1.2182  2.3146
 6797TIP3   OH242025   5.894   0.458   0.317 -0.0357  0.4603 -0.4652
 6797TIP3    H142026   5.836   0.480   0.389  4.4135  3.1650  2.8658
 6797TIP3    H242027   5.883   0.530   0.255  0.4933  1.6783  0.7817
 6798TIP3   OH242028   3.919   3.662   1.432  0.5047 -0.0185 -0.2485
 6798TIP3    H142029   3.927   3.756   1.448 -0.9800  0.1236 -0.2359
 6798TIP3    H242030   3.956   3.621   1.510  1.4763  0.5414 -0.4009
 6799TIP3   OH242031   0.474   5.023   0.800  0.6715  0.0057 -0.0536
 6799TIP3    H142032   0.445   5.092   0.859  1.1097  0.4669 -0.3720
 6799TIP3    H242033   0.565   5.044   0.780 -0.0464  1.1354 -2.6416
 6800TIP3   OH242034   4.961   6.178   1.670 -0.2079 -0.2439 -0.2158
 6800TIP3    H142035   5.000   6.105   1.621  1.2063  0.3448  0.0009
 6800TIP3    H242036   4.914   6.229   1.603  2.3020  0.9669 -1.1989
 6801TIP3   OH242037   1.103   4.704   0.586  1.0188 -0.3825  0.4290
 6801TIP3    H142038   1.093   4.701   0.491  1.3287  0.9683  0.3273
 6801TIP3    H242039   1.162   4.632   0.607  0.5789 -0.9803 -0.3385
 6802TIP3   OH242040   4.105   0.481   1.599 -0.3855 -0.8523  0.9021
 6802TIP3    H142041   4.076   0.510   1.513  0.2871 -0.1968  0.8863
 6802TIP3    H242042   4.077   0.389   1.604 -0.8231 -0.7682  0.1739
 6803TIP3   OH242043   1.603   0.024   0.587 -0.1499 -0.6752 -0.1196
 6803TIP3    H142044   1.547   0.102   0.587 -1.3110 -1.4239  1.7905
 6803TIP3    H242045   1.691   0.057   0.602 -0.3465  0.3934 -1.1792
 6804TIP3   OH242046   4.012   1.891   1.639  0.0463  0.1599  0.1937
 6804TIP3    H142047   4.078   1.893   1.708 -0.5613 -1.4022  0.8688
 6804TIP3    H242048   3.944   1.832   1.672 -1.0360  0.6372 -1.0626
 6805TIP3   OH242049   3.513   0.029   2.547  0.1350 -0.1159  0.7272
 6805TIP3    H142050   3.539  -0.060   2.523 -0.1605  0.2758 -1.2278
 6805TIP3    H242051   3.428   0.019   2.590  0.2609 -0.7921  0.8239
 6806TIP3   OH242052   5.931   0.377   8.369 -0.1110  0.1761  0.1378
 6806TIP3    H142053   6.003   0.427   8.329  0.8767 -1.1771  0.1530
 6806TIP3    H242054   5.937   0.290   8.329 -1.4446 -0.1099  0.5114
 6807TIP3   OH242055   0.017   4.028   0.945  0.3697 -0.6439  0.7520
 6807TIP3    H142056   0.051   3.942   0.969  2.4996 -0.4168 -1.0911
 6807TIP3    H242057   0.093   4.086   0.950 -0.5046  0.6530 -0.3045
 6808TIP3   OH242058   1.458   0.894   8.511  0.0040  0.2754  0.1109
 6808TIP3    H142059   1.471   0.977   8.556 -0.4777  0.7589 -0.6145
 6808TIP3    H242060   1.409   0.917   8.432 -2.6298 -1.0156  1.2337
 6809TIP3   OH242061   3.657   4.661   2.411  0.6808  0.1462 -0.8913
 6809TIP3    H142062   3.746   4.698   2.412  1.3944 -1.4687  0.4865
 6809TIP3    H242063   3.601   4.731   2.443  2.0079  0.0855  1.7991
 6810TIP3   OH242064   4.016   1.231   1.670  0.6477  0.5106 -0.1771
 6810TIP3    H142065   3.950   1.162   1.677  2.6394 -1.7812 -1.9984
 6810TIP3    H242066   4.077   1.214   1.742  0.1262  1.6199  0.5415
 6811TIP3   OH242067   0.592   3.755   1.040  0.7050  0.3764  0.0973
 6811TIP3    H142068   0.614   3.678   1.093  0.4087 -0.2454 -0.6592
 6811TIP3    H242069   0.597   3.724   0.949 -0.0112  1.0868 -0.2026
 6812TIP3   OH242070   4.387   3.174   1.466  0.3126 -0.0218 -0.0880
 6812TIP3    H142071   4.468   3.225   1.472  0.3943 -0.0195 -0.9767
 6812TIP3    H242072   4.319   3.240   1.453  0.4141 -0.1161 -1.2068
 6813TIP3   OH242073   4.060   3.216   8.973 -0.2691  0.2577 -0.2918
 6813TIP3    H142074   3.995   3.149   8.950 -1.6674  2.1949 -2.3337
 6813TIP3    H242075   4.022   3.261   9.049  0.7818 -1.3004  1.2343
 6814TIP3   OH242076   2.212   6.311   0.413  0.1364 -0.0547 -0.4659
 6814TIP3    H142077   2.163   6.230   0.400  0.0523 -0.0957  0.0734
 6814TIP3    H242078   2.186   6.367   0.339  0.6255 -0.7189 -1.1521
 6815TIP3   OH242079   4.935   1.537   0.970 -0.1378  0.2492  0.0013
 6815TIP3    H142080   4.968   1.541   1.060 -0.7534 -0.5353  0.2836
 6815TIP3    H242081   4.906   1.626   0.951  1.8897  0.9143 -0.1863
 6816TIP3   OH242082   5.482   0.862   1.374  0.4349 -0.2537  0.1137
 6816TIP3    H142083   5.486   0.767   1.378 -0.8215 -0.2960  1.1105
 6816TIP3    H242084   5.409   0.881   1.315  0.0788  0.0607  0.6392
 6817TIP3   OH242085   5.210   5.230   0.802 -0.3882  0.1537  0.3042
 6817TIP3    H142086   5.168   5.237   0.716 -0.3226  0.1954  0.2753
 6817TIP3    H242087   5.287   5.287   0.796 -1.4836  1.7772  1.0655
 6818TIP3   OH242088   2.145   5.753   1.537  0.5317  0.0894 -0.4336
 6818TIP3    H142089   2.108   5.809   1.469  1.0081  0.9996  0.0368
 6818TIP3    H242090   2.239   5.767   1.531  0.7109 -1.0974 -0.6679
 6819TIP3   OH242091   6.693   0.303   1.739 -0.5877  0.7770  0.3192
 6819TIP3    H142092   6.707   0.397   1.737 -0.3479  0.7316 -0.1026
 6819TIP3    H242093   6.776   0.266   1.771 -0.7604  0.7251  0.7139
 6820TIP3   OH242094   0.870   0.617   1.392  0.3635  0.2628 -0.0924
 6820TIP3    H142095   0.882   0.700   1.437 -1.6021  0.7982 -0.4667
 6820TIP3    H242096   0.865   0.552   1.462  0.1660  0.6924  0.2913
 6821TIP3   OH242097   0.640   3.457   0.850  0.3662 -0.2160  0.0031
 6821TIP3    H142098   0.677   3.386   0.798 -0.7851  0.5553 -1.9924
 6821TIP3    H242099   0.698   3.531   0.835  0.5128 -0.2121  0.5581
 6822TIP3   OH242100   1.928   1.793   8.975 -0.2649  0.1544  0.2494
 6822TIP3    H142101   1.870   1.773   8.901  0.0795 -1.5371  0.4033
 6822TIP3    H242102   1.939   1.710   9.020  3.0536  0.1468 -0.3354
 6823TIP3   OH242103   1.452   3.428   8.631 -0.1729 -0.1625 -0.3410
 6823TIP3    H142104   1.407   3.438   8.715 -2.8998  0.7265 -1.8060
 6823TIP3    H242105   1.398   3.367   8.582  0.8830  0.0131 -1.7915
 6824TIP3   OH242106   3.390   4.601   1.955 -0.0833  0.0300 -0.2072
 6824TIP3    H142107   3.443   4.535   1.999  1.2288  2.1988  1.6291
 6824TIP3    H242108   3.300   4.572   1.969  0.4513 -1.2865  0.6947
 6825TIP3   OH242109   6.594   2.234   8.592  0.8386  0.1734  0.2643
 6825TIP3    H142110   6.520   2.279   8.550 -0.0312 -1.0599  0.4000
 6825TIP3    H242111   6.653   2.213   8.520  0.1267 -0.5104 -0.1419
 6826TIP3   OH242112   1.214   0.349   0.634  0.1648  0.7719  0.1662
 6826TIP3    H142113   1.235   0.426   0.581 -1.9258  1.3933  0.1823
 6826TIP3    H242114   1.121   0.333   0.618  0.3937 -1.3559  0.6905
 6827TIP3   OH242115   2.767   6.103   7.095 -0.1198  0.0224 -0.1421
 6827TIP3    H142116   2.778   6.188   7.136  0.2390 -0.1430  0.1094
 6827TIP3    H242117   2.760   6.122   7.001  0.4059  0.2900 -0.1281
 6828TIP3   OH242118   4.496   3.321   8.600  0.4753 -0.2414  0.2193
 6828TIP3    H142119   4.491   3.253   8.533 -0.9467  0.7131 -0.6868
 6828TIP3    H242120   4.466   3.278   8.680  0.6814 -0.9681 -0.0886
 6829TIP3   OH242121   3.698   6.689   8.683 -0.6532 -0.1431 -0.2946
 6829TIP3    H142122   3.720   6.649   8.599  0.8598  0.0929 -0.0334
 6829TIP3    H242123   3.737   6.776   8.680 -4.2041  1.6035 -1.0079
 6830TIP3   OH242124   1.965   5.872   7.677 -0.7649 -0.1524  0.1595
 6830TIP3    H142125   2.044   5.837   7.636  0.3842  0.7827  1.4720
 6830TIP3    H242126   1.947   5.812   7.749 -1.8025 -0.8531 -0.6471
 6831TIP3   OH242127   4.105   1.096   7.636  0.0820 -0.1429 -0.4795
 6831TIP3    H142128   4.026   1.116   7.687 -0.5012 -2.2710 -0.4461
 6831TIP3    H242129   4.173   1.081   7.701  0.1918  0.3668 -0.4686
 6832TIP3   OH242130   3.379   0.249   8.027 -0.3698  0.1511 -0.4152
 6832TIP3    H142131   3.444   0.213   7.967 -0.5674  0.3528 -0.7487
 6832TIP3    H242132   3.376   0.342   8.006  0.9314  0.5987  1.1617
 6833TIP3   OH242133   6.432   5.446   2.533 -0.3360  0.1436  0.1563
 6833TIP3    H142134   6.339   5.455   2.552 -0.3522 -0.1922  0.2384
 6833TIP3    H242135   6.460   5.371   2.584 -0.2230 -0.3370 -0.5884
 6834TIP3   OH242136   3.487   6.043   0.841 -0.3065 -0.3013 -0.0422
 6834TIP3    H142137   3.431   6.039   0.763 -2.0172  0.2077  1.1026
 6834TIP3    H242138   3.465   5.963   0.890  0.3060 -0.3185  0.2162
 6835TIP3   OH242139   4.031   4.745   0.950 -0.1677  0.2904  0.0971
 6835TIP3    H142140   4.053   4.758   0.858 -1.5473 -1.8847 -0.6246
 6835TIP3    H242141   4.110   4.705   0.988  0.6633  1.8461  0.0793
 6836TIP3   OH242142   1.970   4.948   8.069  0.2824  0.0427  0.1219
 6836TIP3    H142143   1.881   4.978   8.050  0.7775  1.3210 -0.2950
 6836TIP3    H242144   1.963   4.903   8.153 -0.7569  0.1047  0.0792
 6837TIP3   OH242145   3.748   2.956   2.840  0.1077  0.3668 -0.1038
 6837TIP3    H142146   3.836   2.992   2.832  0.9059 -1.6455 -1.0023
 6837TIP3    H242147   3.690   3.030   2.825  1.6271  1.7642  0.6648
 6838TIP3   OH242148   2.083   5.930   1.348 -0.1017  0.2337 -0.3698
 6838TIP3    H142149   2.015   5.993   1.370 -2.5644 -2.3749  0.0479
 6838TIP3    H242150   2.113   5.956   1.261 -0.8676  2.0487 -0.1383
 6839TIP3   OH242151   3.111   5.533   0.758 -0.7835  0.2143  0.2732
 6839TIP3    H142152   3.170   5.458   0.765 -0.0168  0.7329 -0.5148
 6839TIP3    H242153   3.043   5.503   0.697  0.7742  0.9010 -1.9343
 6840TIP3   OH242154   0.537   2.794   8.806  0.7283  0.5509 -0.6013
 6840TIP3    H142155   0.592   2.825   8.879  0.9360  0.7534 -0.8424
 6840TIP3    H242156   0.452   2.834   8.822  1.2108  1.9166 -1.3484
 6841TIP3   OH242157   3.473   0.450   0.435 -0.1670 -0.0259 -0.7497
 6841TIP3    H142158   3.541   0.412   0.380 -1.5583  0.4646 -2.9327
 6841TIP3    H242159   3.491   0.417   0.522  2.7053 -0.0976 -1.2823
 6842TIP3   OH242160   0.333   0.232   7.655 -0.3043  0.3366 -0.4279
 6842TIP3    H142161   0.333   0.139   7.632 -0.0273 -0.2171  1.5550
 6842TIP3    H242162   0.241   0.257   7.660 -0.6206 -0.9483  2.7491
 6843TIP3   OH242163   3.238   4.449   2.259  0.5017  0.2042  0.1492
 6843TIP3    H142164   3.263   4.539   2.280  1.2096  0.2457 -0.8214
 6843TIP3    H242165   3.287   4.396   2.323 -0.3692  0.5147  1.1067
 6844TIP3   OH242166   2.931   3.640   7.759  0.5586 -0.0012 -0.0468
 6844TIP3    H142167   2.915   3.581   7.833 -0.1401 -0.0118 -0.1990
 6844TIP3    H242168   3.015   3.613   7.724  0.3795 -0.7176  0.0682
 6845TIP3   OH242169   0.639   0.735   8.552 -0.5333 -0.3613 -0.0184
 6845TIP3    H142170   0.658   0.815   8.503 -0.9205 -0.0906  0.2657
 6845TIP3    H242171   0.723   0.689   8.557 -0.3256 -0.0083 -0.2496
 6846TIP3   OH242172   0.435   4.367   8.154 -0.5608 -0.3892  0.4527
 6846TIP3    H142173   0.517   4.316   8.155 -0.2386  0.1223  0.6885
 6846TIP3    H242174   0.463   4.457   8.135 -0.7526  0.3075  3.0918
 6847TIP3   OH242175   1.232   6.481   8.665 -0.1019  0.9633  0.0163
 6847TIP3    H142176   1.233   6.418   8.593 -0.9123 -0.3135  1.0588
 6847TIP3    H242177   1.232   6.427   8.744  2.4307  2.3199  1.0675
 6848TIP3   OH242178   4.233   6.483   9.001 -0.1203 -0.0200  0.4592
 6848TIP3    H142179   4.313   6.437   8.976 -0.1369 -1.1319  2.2421
 6848TIP3    H242180   4.196   6.515   8.919  1.9988  0.2781 -0.4144
 6849TIP3   OH242181   1.715   1.444   7.254 -0.5636  0.1958 -0.0705
 6849TIP3    H142182   1.784   1.508   7.272  2.1394 -2.1885 -1.2355
 6849TIP3    H242183   1.687   1.464   7.165 -2.5667  2.0600  0.8786
 6850TIP3   OH242184   0.277   1.691   0.295 -0.3980  0.1629 -0.1159
 6850TIP3    H142185   0.279   1.785   0.313  0.8903  0.0368  0.4661
 6850TIP3    H242186   0.196   1.661   0.337  0.8312  0.4666  2.6472
 6851TIP3   OH242187   6.741   5.215   0.662  0.0856 -0.1239  0.1739
 6851TIP3    H142188   6.648   5.200   0.678  0.3410  0.5654  2.7297
 6851TIP3    H242189   6.782   5.129   0.671  0.0065 -0.0074  2.0322
 6852TIP3   OH242190   6.046   0.037   1.653  0.1090 -0.0945 -0.3665
 6852TIP3    H142191   5.965   0.033   1.601 -0.6651  1.5490  0.6279
 6852TIP3    H242192   6.032   0.111   1.713  2.2480  0.0425  0.0297
 6853TIP3   OH242193   2.867   1.322   7.858 -0.7104  0.3350 -0.4902
 6853TIP3    H142194   2.921   1.361   7.926 -0.3564  0.7056 -0.9769
 6853TIP3    H242195   2.885   1.228   7.865  0.5039  0.4999 -1.0504
 6854TIP3   OH242196   1.964   3.574   8.117 -0.1902  0.3674 -0.0657
 6854TIP3    H142197   2.049   3.539   8.144 -1.0666 -1.0853  0.8903
 6854TIP3    H242198   1.956   3.549   8.025 -0.4569 -1.3319  0.3900
 6855TIP3   OH242199   5.789   3.069   2.736 -0.4611  0.2553  0.3629
 6855TIP3    H142200   5.823   2.991   2.692  0.9523  1.6932 -1.2393
 6855TIP3    H242201   5.704   3.086   2.694 -0.4252  0.0142  0.1947
 6856TIP3   OH242202   6.486   4.438   0.179 -0.2198  0.1563 -0.3852
 6856TIP3    H142203   6.513   4.442   0.087 -1.2690 -0.9550 -0.7623
 6856TIP3    H242204   6.396   4.469   0.178 -0.3316 -0.1420  0.2216
 6857TIP3   OH242205   1.388   0.247   7.870 -0.3525 -0.1863  0.2246
 6857TIP3    H142206   1.360   0.291   7.950  1.1148 -0.5418  0.9622
 6857TIP3    H242207   1.310   0.248   7.814 -1.3127  0.3623  1.5154
 6858TIP3   OH242208   0.323   2.279   7.327 -0.9356  0.1206  0.1142
 6858TIP3    H142209   0.372   2.354   7.361 -0.1974 -0.6878  0.8663
 6858TIP3    H242210   0.307   2.301   7.235  0.3021  0.6913  0.0171
 6859TIP3   OH242211   3.723   1.991   1.130  0.4281 -0.4509 -0.2440
 6859TIP3    H142212   3.807   2.015   1.169 -0.4034  0.8892  0.7942
 6859TIP3    H242213   3.661   1.995   1.203 -1.1519  1.9573 -1.6027
 6860TIP3   OH242214   5.928   6.402   2.463  0.7418 -0.1251 -0.6363
 6860TIP3    H142215   5.961   6.315   2.441 -1.0749 -1.2816  0.9252
 6860TIP3    H242216   5.982   6.430   2.537  0.8346 -0.2330 -0.6621
 6861TIP3   OH242217   3.251   1.847   7.572 -0.1074  0.5188 -0.4831
 6861TIP3    H142218   3.246   1.761   7.531 -0.5250  0.7364 -0.8996
 6861TIP3    H242219   3.337   1.849   7.614  0.6561  0.5791 -1.9791
 6862TIP3   OH242220   6.218   6.072   1.126 -0.1981  0.6402  0.2703
 6862TIP3    H142221   6.291   6.103   1.072  1.3496  0.6886  2.2666
 6862TIP3    H242222   6.211   6.136   1.196 -2.1752  0.5917  0.1575
 6863TIP3   OH242223   5.433   6.054   8.739 -0.2274 -0.1117  0.2375
 6863TIP3    H142224   5.493   6.065   8.813 -0.9372 -2.5221  1.2940
 6863TIP3    H242225   5.391   5.969   8.756 -1.0275 -0.3454 -2.5319
 6864TIP3   OH242226   2.117   0.291   7.761  0.1622 -0.9940  0.3639
 6864TIP3    H142227   2.026   0.262   7.766 -0.1489  0.0865  1.3290
 6864TIP3    H242228   2.111   0.386   7.751  1.1858 -1.0274 -0.8833
 6865TIP3   OH242229   3.134   6.233   0.615 -0.2885 -0.9036 -0.1077
 6865TIP3    H142230   3.141   6.280   0.699 -0.2402  1.3285 -1.2863
 6865TIP3    H242231   3.222   6.200   0.600  0.0831 -0.0191  0.0331
 6866TIP3   OH242232   2.435   0.124   0.781  0.1148 -0.5095 -0.3302
 6866TIP3    H142233   2.487   0.053   0.819  1.5257  1.4945  1.7538
 6866TIP3    H242234   2.500   0.188   0.751 -1.0732  1.4313  1.0274
 6867TIP3   OH242235   0.044   5.535   1.795 -0.2635 -0.0657  0.1265
 6867TIP3    H142236   0.096   5.546   1.715  0.4474 -2.7349  0.1213
 6867TIP3    H242237   0.107   5.549   1.866  0.1727 -1.8547  0.1322
 6868TIP3   OH242238   6.608   0.138   1.975 -0.4999 -0.4593 -0.1744
 6868TIP3    H142239   6.545   0.191   2.023 -0.2487  0.9558 -1.2970
 6868TIP3    H242240   6.654   0.202   1.919  1.0215 -1.6305 -0.3209
 6869TIP3   OH242241   0.072   5.079   8.244 -0.0206 -0.1994 -0.4271
 6869TIP3    H142242   0.128   5.155   8.263 -0.0697  0.0008 -1.0540
 6869TIP3    H242243   0.126   5.003   8.266  0.0122  0.0101  0.2551
 6870TIP3   OH242244   2.628   0.339   0.828  0.1016 -0.0585  0.3353
 6870TIP3    H142245   2.699   0.365   0.888  0.2766  0.2222  0.0102
 6870TIP3    H242246   2.563   0.409   0.838  0.4056  0.3146 -0.2616
 6871TIP3   OH242247   4.980   3.543   0.642  0.0752  0.4101  0.0434
 6871TIP3    H142248   4.896   3.572   0.606 -1.1945 -0.6683  1.9729
 6871TIP3    H242249   4.994   3.457   0.601  0.1825  0.5296 -0.1743
 6872TIP3   OH242250   0.772   2.965   7.568 -0.4158  0.2781  0.0987
 6872TIP3    H142251   0.858   2.922   7.561 -0.7428 -0.2538 -0.6879
 6872TIP3    H242252   0.709   2.897   7.547 -1.0579  0.6062  0.8976
 6873TIP3   OH242253   5.333   1.174   2.253 -0.1854  0.1725  0.1620
 6873TIP3    H142254   5.376   1.223   2.183 -2.0032 -0.2986 -1.3696
 6873TIP3    H242255   5.346   1.082   2.230 -1.7324  0.0176 -0.2214
 6874TIP3   OH242256   0.418   1.584   1.632  0.3516  0.0948  0.5361
 6874TIP3    H142257   0.340   1.638   1.643  1.2452  1.3482  0.9171
 6874TIP3    H242258   0.413   1.520   1.703 -1.2899 -1.1289 -0.5772
 6875TIP3   OH242259   2.676   5.810   0.420 -0.4156  0.5237 -0.2307
 6875TIP3    H142260   2.725   5.862   0.484  0.1010  0.9406 -0.9464
 6875TIP3    H242261   2.632   5.875   0.365 -0.2541  0.1988 -0.7555
 6876TIP3   OH242262   4.128   4.462   7.832  0.3432 -0.5901 -0.0034
 6876TIP3    H142263   4.199   4.525   7.829 -0.1465 -0.0711 -1.4131
 6876TIP3    H242264   4.069   4.495   7.900  0.3684  0.1817 -0.3475
 6877TIP3   OH242265   1.263   5.465   1.278 -0.2497  0.0515  0.1056
 6877TIP3    H142266   1.182   5.481   1.327  0.2192 -0.6847  1.1719
 6877TIP3    H242267   1.278   5.546   1.229 -1.6042  0.2122 -0.0815
 6878TIP3   OH242268   2.919   1.254   0.877 -0.6362 -1.1375 -0.6890
 6878TIP3    H142269   2.863   1.297   0.941  0.1995 -0.6199 -0.2858
 6878TIP3    H242270   2.996   1.226   0.927  1.8414  2.5834 -1.9901
 6879TIP3   OH242271   1.754   6.135   8.894 -0.1676 -0.3642  0.1333
 6879TIP3    H142272   1.763   6.186   8.813  2.0681 -1.3857 -0.3580
 6879TIP3    H242273   1.713   6.195   8.956 -1.3157  0.6720 -1.5467
 6880TIP3   OH242274   2.061   3.866   1.496 -0.5407 -0.0567  0.1678
 6880TIP3    H142275   2.055   3.961   1.502 -0.1043 -0.1022  1.7738
 6880TIP3    H242276   2.041   3.846   1.404  0.6967  1.6748 -0.5260
 6881TIP3   OH242277   2.260   0.930   0.370 -0.1121 -0.1032 -0.4104
 6881TIP3    H142278   2.326   0.977   0.319 -1.5965 -1.3352 -3.7500
 6881TIP3    H242279   2.193   0.995   0.388 -0.6865 -0.1375 -2.2464
 6882TIP3   OH242280   6.204   5.126   7.153 -0.7097  0.6424 -0.8439
 6882TIP3    H142281   6.260   5.203   7.149  0.5684 -0.1824  0.1016
 6882TIP3    H242282   6.230   5.073   7.077  1.1325 -0.5401  0.5039
 6883TIP3   OH242283   5.132   4.638   8.829  0.2189 -0.3333  0.1554
 6883TIP3    H142284   5.200   4.705   8.823  0.8271 -1.0088 -0.9882
 6883TIP3    H242285   5.085   4.643   8.745 -0.2637 -0.7765  0.3887
 6884TIP3   OH242286   0.057   1.278   0.187 -0.4318 -0.6402 -0.3813
 6884TIP3    H142287   0.042   1.209   0.252 -1.0910  0.2610  0.4557
 6884TIP3    H242288   0.131   1.328   0.222  1.6815 -2.3254 -2.2057
 6885TIP3   OH242289   6.325   1.061   8.586 -0.1606 -0.7790  0.9622
 6885TIP3    H142290   6.378   1.064   8.665  1.4127 -2.1297  0.0258
 6885TIP3    H242291   6.330   1.149   8.550  0.9196 -0.7211  1.2411
 6886TIP3   OH242292   5.288   0.248   7.629  0.4110  0.0893 -0.0440
 6886TIP3    H142293   5.251   0.164   7.603  0.9257  0.5062 -2.4360
 6886TIP3    H242294   5.213   0.299   7.660 -0.1494 -0.7649  0.0287
 6887TIP3   OH242295   0.810   5.385   8.423  0.7246  0.1271  0.7890
 6887TIP3    H142296   0.848   5.471   8.406  0.2728  0.4578  1.4175
 6887TIP3    H242297   0.812   5.376   8.518 -0.2195 -0.0966  0.7945
 6888TIP3   OH242298   3.392   3.552   7.262 -0.0578  0.2123 -0.2276
 6888TIP3    H142299   3.369   3.459   7.261 -0.1056  0.1245  2.2348
 6888TIP3    H242300   3.406   3.575   7.170 -2.4537 -1.6205 -1.1591
 6889TIP3   OH242301   1.686   0.961   0.836  0.2157 -0.8466 -0.2432
 6889TIP3    H142302   1.618   0.894   0.839 -0.4800 -0.2412 -1.7473
 6889TIP3    H242303   1.638   1.044   0.844  0.9443 -0.4645  0.3291
 6890TIP3   OH242304   6.647   1.912   2.623 -0.6345  0.1609  0.4342
 6890TIP3    H142305   6.664   1.975   2.553 -1.7607 -1.2924 -1.2484
 6890TIP3    H242306   6.565   1.871   2.599  0.5954 -2.7759  0.7883
 6891TIP3   OH242307   1.744   6.318   1.960  0.7160 -0.4087  0.7473
 6891TIP3    H142308   1.673   6.311   1.896  0.6023 -1.5368  0.9775
 6891TIP3    H242309   1.803   6.384   1.923 -0.3475  0.3931  0.4567
 6892TIP3   OH242310   2.688   0.258   2.773  0.2249 -0.1716 -0.2707
 6892TIP3    H142311   2.705   0.167   2.798 -2.5632 -0.8247 -0.3321
 6892TIP3    H242312   2.688   0.305   2.856  0.9357 -0.3567 -0.1582
 6893TIP3   OH242313   1.834   0.731   1.228  0.1355 -0.3706  0.1679
 6893TIP3    H142314   1.842   0.820   1.260  1.8814  0.0435 -1.2651
 6893TIP3    H242315   1.846   0.676   1.305  0.2124  0.6113  0.8690
 6894TIP3   OH242316   6.699   6.596   1.182 -0.3946  0.2849  0.6347
 6894TIP3    H142317   6.780   6.644   1.163 -1.2447  1.0118 -1.4426
 6894TIP3    H242318   6.659   6.645   1.254  1.1461 -0.3278  1.9934
 6895TIP3   OH242319   1.166   3.743   1.265 -0.8893  0.1004 -1.0441
 6895TIP3    H142320   1.245   3.797   1.258 -0.2354 -0.9829 -2.2966
 6895TIP3    H242321   1.139   3.728   1.175 -0.8327 -1.9542 -0.7681
 6896TIP3   OH242322   0.379   1.201   0.433 -0.0726 -0.0469  0.7999
 6896TIP3    H142323   0.355   1.248   0.513 -0.5653 -0.2862  0.7940
 6896TIP3    H242324   0.350   1.260   0.363 -1.4400 -0.7014  0.7811
 6897TIP3   OH242325   6.515   1.269   0.748  0.6383  0.4659 -0.9233
 6897TIP3    H142326   6.425   1.246   0.772  1.2489 -2.0536 -0.8254
 6897TIP3    H242327   6.557   1.294   0.830  0.7816 -1.1828 -0.4660
 6898TIP3   OH242328   4.119   1.054   8.299  0.2920  0.1498  0.0591
 6898TIP3    H142329   4.169   1.110   8.239  2.2200 -1.6067 -0.0836
 6898TIP3    H242330   4.164   0.970   8.296 -2.3533 -1.3867  0.4225
 6899TIP3   OH242331   3.355   5.385   0.097  0.0234 -0.3129 -1.0422
 6899TIP3    H142332   3.344   5.292   0.118 -1.4568 -0.2868 -1.5601
 6899TIP3    H242333   3.446   5.403   0.118  0.0812 -1.6261  0.0614
 6900TIP3   OH242334   4.264   5.531   8.088  0.1546 -0.2226  0.0719
 6900TIP3    H142335   4.189   5.584   8.062  0.9503  1.2810  0.6930
 6900TIP3    H242336   4.321   5.592   8.135  1.1744 -1.6207  0.7211
 6901TIP3   OH242337   5.378   2.825   7.608  0.1320  0.6446  0.4476
 6901TIP3    H142338   5.385   2.770   7.529  0.5269  1.4062 -0.0584
 6901TIP3    H242339   5.359   2.763   7.679  1.3168 -0.2375  0.0139
 6902TIP3   OH242340   4.894   3.568   2.214  0.1451  0.1161  0.3713
 6902TIP3    H142341   4.953   3.643   2.207 -0.2296  0.2900 -1.9498
 6902TIP3    H242342   4.951   3.492   2.206  0.3341  0.2089  0.8396
 6903TIP3   OH242343   3.362   1.927   7.242 -0.6215 -0.5297  0.6494
 6903TIP3    H142344   3.436   1.920   7.182  0.0366  0.1919  1.3547
 6903TIP3    H242345   3.287   1.945   7.186 -0.3146 -1.4783 -0.0995
 6904TIP3   OH242346   3.426   4.766   1.608  0.5712  0.2150 -0.1320
 6904TIP3    H142347   3.345   4.714   1.612  1.6547 -1.4887  0.6019
 6904TIP3    H242348   3.490   4.715   1.657  1.8124  2.1024  0.2986
 6905TIP3   OH242349   2.305   1.642   7.494  0.3384  0.1609 -0.1773
 6905TIP3    H142350   2.301   1.565   7.438  1.3735  0.3583 -0.5368
 6905TIP3    H242351   2.248   1.621   7.568 -1.9258  0.3005 -1.7706
 6906TIP3   OH242352   6.042   1.310   1.584 -0.4608  0.3372 -0.4368
 6906TIP3    H142353   5.988   1.372   1.536  0.1162  1.9536  0.8906
 6906TIP3    H242354   6.022   1.327   1.676  0.8812 -0.3469  0.0079
 6907TIP3   OH242355   4.212   0.067   2.591 -0.1672 -0.8404  0.2694
 6907TIP3    H142356   4.190   0.001   2.657 -0.4144 -1.3767 -0.3398
 6907TIP3    H242357   4.293   0.107   2.623  0.7092 -2.3480 -0.0100
 6908TIP3   OH242358   3.773   2.582   0.347  0.3663  0.2289  0.2249
 6908TIP3    H142359   3.725   2.597   0.265  1.4561  0.3682 -0.4111
 6908TIP3    H242360   3.838   2.516   0.325 -0.2311 -0.7748  1.3656
 6909TIP3   OH242361   1.153   2.895   2.473 -0.4106 -0.0045  0.1722
 6909TIP3    H142362   1.127   2.871   2.562 -1.7263 -0.6549 -0.3690
 6909TIP3    H242363   1.124   2.986   2.463 -1.6572 -0.4183 -0.0980
 6910TIP3   OH242364   3.356   5.483   7.463  0.1998  0.4626  0.1990
 6910TIP3    H142365   3.263   5.497   7.474  0.0753  2.3244 -2.3744
 6910TIP3    H242366   3.394   5.570   7.455  2.2239 -0.2326  1.3563
 6911TIP3   OH242367   6.726   5.697   0.881 -0.1358  0.0690 -0.3508
 6911TIP3    H142368   6.784   5.769   0.857 -2.1733  1.1122 -2.5062
 6911TIP3    H242369   6.780   5.618   0.872  1.0113  1.0022 -2.2281
 6912TIP3   OH242370   0.838   2.807   0.734 -0.0173  0.7853  0.1534
 6912TIP3    H142371   0.860   2.715   0.748  1.5885  1.1990  0.5283
 6912TIP3    H242372   0.867   2.825   0.645  0.6675  1.1845  0.4471
 6913TIP3   OH242373   3.701   5.145   0.189 -0.5674 -0.3144  0.2646
 6913TIP3    H142374   3.687   5.126   0.096  1.1454 -2.4790  0.3586
 6913TIP3    H242375   3.635   5.094   0.234 -0.2066 -0.7839  0.2743
 6914TIP3   OH242376   1.213   0.515   1.818  0.4260  0.1132 -0.5034
 6914TIP3    H142377   1.292   0.469   1.844  0.5898 -1.2294 -3.0370
 6914TIP3    H242378   1.232   0.607   1.834  2.7980 -0.1043 -1.5913
 6915TIP3   OH242379   5.570   1.867   0.753 -0.0747 -0.7514  0.3251
 6915TIP3    H142380   5.499   1.821   0.709  0.0751 -1.6033  0.9651
 6915TIP3    H242381   5.526   1.922   0.818 -0.2188 -0.3027 -0.1361
 6916TIP3   OH242382   5.459   4.948   1.669 -0.1328  0.3235  0.0890
 6916TIP3    H142383   5.447   5.018   1.604 -0.8490  1.3873  1.3155
 6916TIP3    H242384   5.417   4.982   1.748  0.0187 -1.2757  0.8842
 6917TIP3   OH242385   2.012   4.804   7.531 -0.0148  0.8419 -0.2383
 6917TIP3    H142386   1.926   4.785   7.493 -0.2441  0.8406  0.2741
 6917TIP3    H242387   2.010   4.761   7.617  1.0775 -0.5113 -0.8495
 6918TIP3   OH242388   3.158   1.139   1.397  0.2053  0.6784 -0.9656
 6918TIP3    H142389   3.143   1.231   1.377  0.0999  0.5867 -1.3077
 6918TIP3    H242390   3.239   1.138   1.447  1.9838  0.6609 -3.6607
 6919TIP3   OH242391   1.126   6.460   7.223 -0.3136 -0.0410 -0.2455
 6919TIP3    H142392   1.095   6.551   7.221  0.3779  0.3180 -4.7358
 6919TIP3    H242393   1.051   6.408   7.195  0.0102 -0.5223 -0.2253
 6920TIP3   OH242394   0.011   1.158   8.820  0.3015 -0.1067  0.6132
 6920TIP3    H142395   0.078   1.090   8.816 -1.4434 -2.0280 -4.8350
 6920TIP3    H242396  -0.047   1.130   8.891  2.7203 -0.8904  2.3963
 6921TIP3   OH242397   1.181   3.119   6.823 -0.2013  0.5214  0.1973
 6921TIP3    H142398   1.115   3.061   6.785 -1.6926  2.2832 -0.0324
 6921TIP3    H242399   1.203   3.077   6.907 -0.6680 -0.7468 -0.2780
 6922TIP3   OH242400   6.091   5.846   8.467 -0.3839 -0.2059  0.3795
 6922TIP3    H142401   6.020   5.794   8.428 -1.9090  0.5709  2.0166
 6922TIP3    H242402   6.086   5.931   8.423 -0.1086 -0.3188  0.1243
 6923TIP3   OH242403   5.423   0.346   0.531  0.3135  0.4888 -0.3311
 6923TIP3    H142404   5.411   0.313   0.620 -2.2258  0.8015 -0.4907
 6923TIP3    H242405   5.372   0.287   0.476 -0.1312  1.6883 -1.2603
 6924TIP3   OH242406   2.550   2.268   0.411 -0.4238  0.2672  0.6092
 6924TIP3    H142407   2.595   2.350   0.392  1.1727 -0.4352  1.1350
 6924TIP3    H242408   2.504   2.283   0.493 -2.9276  1.6243 -0.9040
 6925TIP3   OH242409   4.135   4.834   8.659  0.1838  0.0953 -0.1002
 6925TIP3    H142410   4.203   4.772   8.685  0.3697  0.5222  0.4344
 6925TIP3    H242411   4.063   4.778   8.628  1.2121 -0.3526 -1.8706
 6926TIP3   OH242412   2.145   1.223   2.336 -0.0816 -0.0368  0.3690
 6926TIP3    H142413   2.178   1.294   2.392  0.1950  0.5314 -0.5048
 6926TIP3    H242414   2.056   1.249   2.315 -0.1018 -0.1313  0.3368
 6927TIP3   OH242415   0.802   4.190   7.874  0.1837 -0.4108  0.2648
 6927TIP3    H142416   0.887   4.231   7.887  0.7919 -1.3817 -0.5637
 6927TIP3    H242417   0.821   4.104   7.836 -0.9689 -1.9758  2.9137
 6928TIP3   OH242418   4.373   5.473   1.557 -0.1014  0.0589 -0.1354
 6928TIP3    H142419   4.374   5.524   1.638 -1.3935 -0.2964  0.1301
 6928TIP3    H242420   4.442   5.512   1.503  1.5427 -0.3894  1.5406
 6929TIP3   OH242421   2.726   6.176   2.383 -0.5015  0.7523  0.4984
 6929TIP3    H142422   2.721   6.178   2.478  1.3341  0.2383  0.6433
 6929TIP3    H242423   2.817   6.198   2.363 -0.7977  0.6329 -1.1272
 6930TIP3   OH242424   6.558   6.658   1.917  0.3376  0.7803 -0.2770
 6930TIP3    H142425   6.630   6.714   1.890  0.5575  0.2903 -0.7418
 6930TIP3    H242426   6.493   6.717   1.955  1.1422  1.1791  0.4946
 6931TIP3   OH242427   2.066   6.053   0.407  1.1105 -0.2908 -0.1834
 6931TIP3    H142428   2.071   5.962   0.435 -0.9415 -0.6388 -0.8178
 6931TIP3    H242429   2.096   6.052   0.316  0.7094 -0.3953 -0.3136
 6932TIP3   OH242430   4.070   1.874   2.291  0.2262  0.4555 -0.2300
 6932TIP3    H142431   3.998   1.882   2.353 -2.0914 -1.5300 -2.4212
 6932TIP3    H242432   4.120   1.799   2.322 -1.4702 -1.1359 -1.1175
 6933TIP3   OH242433   5.850   2.118   7.991 -0.8539 -0.3009 -0.1664
 6933TIP3    H142434   5.868   2.211   7.979 -1.0240 -0.0393  1.4605
 6933TIP3    H242435   5.931   2.082   8.026 -1.6983 -0.1419  2.1141
 6934TIP3   OH242436   1.151   3.419   0.926  0.3169 -0.2300  0.4974
 6934TIP3    H142437   1.225   3.465   0.965  2.0314 -2.0542 -0.4348
 6934TIP3    H242438   1.078   3.438   0.984  1.5983  1.2568  1.7146
 6935TIP3   OH242439   2.402   5.521   1.457 -0.0941 -0.2308  0.3308
 6935TIP3    H142440   2.459   5.519   1.535  0.3835 -2.6634  0.0112
 6935TIP3    H242441   2.407   5.611   1.426  1.1773  0.3567  2.0631
 6936TIP3   OH242442   4.026   6.739   0.529  0.0560 -0.4676  0.4571
 6936TIP3    H142443   4.053   6.778   0.612  0.1493  0.8485 -0.1699
 6936TIP3    H242444   3.931   6.751   0.527  0.1792  0.5191 -0.1079
 6937TIP3   OH242445   0.555   1.090   7.687  0.1028  0.3621  0.0928
 6937TIP3    H142446   0.515   1.113   7.771  0.2972  1.7943 -0.1890
 6937TIP3    H242447   0.563   0.994   7.690 -2.8986  0.0305  0.3534
 6938TIP3   OH242448   5.985   3.203   8.682 -0.1544  0.0026  0.4911
 6938TIP3    H142449   5.936   3.199   8.764  1.5557  0.3237  1.5819
 6938TIP3    H242450   5.969   3.119   8.640 -1.5218  0.0558  0.8382
 6939TIP3   OH242451   0.355   3.935   0.256  0.0171 -0.8147 -0.6011
 6939TIP3    H142452   0.317   4.015   0.291  0.0093 -0.7630 -0.7259
 6939TIP3    H242453   0.369   3.954   0.163  1.9726 -0.2273 -0.2232
 6940TIP3   OH242454   5.696   3.157   1.384 -0.2076  0.5380  0.6934
 6940TIP3    H142455   5.642   3.094   1.433  0.3298 -0.1604  0.4130
 6940TIP3    H242456   5.659   3.156   1.296  1.4059 -1.4099 -0.0302
 6941TIP3   OH242457   5.722   0.085   2.160 -0.3512 -0.0577 -0.3958
 6941TIP3    H142458   5.814   0.099   2.140 -0.5380 -1.3745 -2.4355
 6941TIP3    H242459   5.712   0.116   2.250  1.4173  2.8501 -1.0763
 6942TIP3   OH242460   4.063   2.019   8.593  0.4479  0.3717 -0.2084
 6942TIP3    H142461   3.997   1.950   8.592  0.9753 -0.1948 -2.8114
 6942TIP3    H242462   4.012   2.100   8.605 -0.5161 -0.1871 -0.4054
 6943TIP3   OH242463   3.622   1.148   0.120  0.7012  0.1029 -0.4296
 6943TIP3    H142464   3.541   1.198   0.122  0.9734  0.5724 -0.8095
 6943TIP3    H242465   3.596   1.059   0.099  0.0757 -0.2113  1.4503
 6944TIP3   OH242466   1.437   2.679   8.754  0.2271 -0.3870  0.0141
 6944TIP3    H142467   1.512   2.627   8.785  1.1354  1.3077  0.7824
 6944TIP3    H242468   1.371   2.668   8.822 -0.1547 -1.6568 -0.5268
 6945TIP3   OH242469   1.795   4.051   6.634 -0.0014  0.2451  0.3155
 6945TIP3    H142470   1.864   4.002   6.678 -0.2933 -2.4292 -1.8759
 6945TIP3    H242471   1.841   4.118   6.583  1.0469 -1.3201 -0.8945
 6946TIP3   OH242472   3.660   3.938   8.889 -0.0228 -0.0316 -0.3089
 6946TIP3    H142473   3.586   3.879   8.905 -0.7101  1.1623  1.2286
 6946TIP3    H242474   3.641   3.977   8.803 -0.2615 -1.0247 -0.7180
 6947TIP3   OH242475   6.660   1.514   0.400 -0.0169  0.2013  0.1225
 6947TIP3    H142476   6.661   1.442   0.337 -0.8987 -0.3764  0.7557
 6947TIP3    H242477   6.608   1.582   0.357 -2.6899 -1.0831  1.1377
 6948TIP3   OH242478   1.275   6.095   1.654  0.0499  0.2597  0.3567
 6948TIP3    H142479   1.196   6.148   1.659 -0.0867  0.3388 -1.5651
 6948TIP3    H242480   1.250   6.009   1.687 -1.2564 -0.0929 -1.3859
 6949TIP3   OH242481   6.746   4.868   7.353 -0.1956 -0.5019  0.2359
 6949TIP3    H142482   6.786   4.875   7.266 -0.6881  1.1155  0.0956
 6949TIP3    H242483   6.809   4.911   7.412 -0.5201 -0.2971  0.4359
 6950TIP3   OH242484   2.261   3.246   0.557  0.5060 -0.5626 -0.3443
 6950TIP3    H142485   2.327   3.176   0.557 -0.0562 -1.1801  2.1387
 6950TIP3    H242486   2.287   3.303   0.485  2.9774 -1.5008 -0.2958
 6951TIP3   OH242487   6.523   1.788   7.981  0.4973  0.1249  0.3772
 6951TIP3    H142488   6.476   1.779   8.063 -0.4589  0.3317 -0.1284
 6951TIP3    H242489   6.455   1.781   7.913  1.1247  0.8764 -0.3577
 6952TIP3   OH242490   3.026   5.181   2.318 -0.6916  0.3596  0.2748
 6952TIP3    H142491   2.970   5.248   2.280 -0.7212  0.6731  0.8562
 6952TIP3    H242492   3.096   5.229   2.362 -0.2913 -0.0134  0.0480
 6953TIP3   OH242493   2.847   4.998   1.077  0.1638  0.4678  0.0308
 6953TIP3    H142494   2.807   5.076   1.039 -0.3618 -0.1001 -0.6172
 6953TIP3    H242495   2.880   4.949   1.002  1.6220  0.6636  0.5150
 6954TIP3   OH242496   5.362   1.382   7.999 -0.2803 -0.4308 -0.4223
 6954TIP3    H142497   5.394   1.464   7.961  0.3319 -1.0669 -1.3074
 6954TIP3    H242498   5.270   1.398   8.017 -0.0581  0.6156 -0.1202
 6955TIP3   OH242499   6.143   3.220   1.460  0.2344  0.4828  0.4637
 6955TIP3    H142500   6.199   3.162   1.409  2.1177  1.8379  0.9004
 6955TIP3    H242501   6.164   3.308   1.428 -2.6168  1.0048 -0.2704
 6956TIP3   OH242502   5.617   5.529   0.565  0.8185 -0.5334  0.4631
 6956TIP3    H142503   5.586   5.439   0.570 -1.5635 -0.2523 -3.9827
 6956TIP3    H242504   5.570   5.575   0.635 -1.4812 -2.0046 -0.0193
 6957TIP3   OH242505   4.105   3.219   7.250  0.1917  0.6504 -0.2601
 6957TIP3    H142506   4.163   3.195   7.177 -1.7078 -0.1232 -1.5885
 6957TIP3    H242507   4.104   3.141   7.306  1.8330  1.3262  0.7912
 6958TIP3   OH242508   0.048   6.170   1.467  0.7032  0.1208  0.1547
 6958TIP3    H142509  -0.016   6.239   1.455  1.9568  1.5199  1.1465
 6958TIP3    H242510   0.074   6.146   1.378  0.8001  1.4747 -0.2081
 6959TIP3   OH242511   1.956   6.228   1.704  0.2055  0.3735 -0.2112
 6959TIP3    H142512   1.902   6.234   1.625  2.2825  0.4321 -1.6963
 6959TIP3    H242513   1.970   6.319   1.731  0.8023  0.4394 -0.7268
 6960TIP3   OH242514   1.101   4.007   7.989  0.4580  0.1871  0.3595
 6960TIP3    H142515   1.156   4.075   7.950  0.8150  0.7931  1.8397
 6960TIP3    H242516   1.030   3.994   7.927  0.5907  1.6519 -0.1162
 6961TIP3   OH242517   2.794   4.588   7.370 -0.4940 -0.4630  0.8124
 6961TIP3    H142518   2.848   4.602   7.292  1.3290 -1.6732  1.7943
 6961TIP3    H242519   2.748   4.506   7.353 -0.3879 -0.5289  0.8406
 6962TIP3   OH242520   3.989   2.889   0.673 -1.2452  0.7835 -0.6240
 6962TIP3    H142521   3.986   2.826   0.746 -1.2897  2.2105  0.6553
 6962TIP3    H242522   3.980   2.835   0.595 -0.3320 -0.8981  0.3682
 6963TIP3   OH242523   4.798   2.485   1.010  0.0815  0.2893  0.4048
 6963TIP3    H142524   4.768   2.394   1.017  0.5559  0.0973  0.0146
 6963TIP3    H242525   4.788   2.520   1.099 -1.8974  0.4471  0.1655
 6964TIP3   OH242526   4.844   6.391   1.414  0.2879  0.4916 -0.5494
 6964TIP3    H142527   4.876   6.447   1.484  0.0745 -0.3626  0.2433
 6964TIP3    H242528   4.749   6.389   1.426  0.2780  0.1031 -0.6803
 6965TIP3   OH242529   4.987   2.035   7.031 -0.6068  0.0337  0.2044
 6965TIP3    H142530   4.940   2.008   6.952  0.1227  0.0565 -0.2489
 6965TIP3    H242531   4.948   1.983   7.101 -0.3517 -0.9886 -0.3837
 6966TIP3   OH242532   0.385   4.389   8.706  0.1615  0.0868 -0.0369
 6966TIP3    H142533   0.328   4.453   8.748  1.4230  1.0812  0.2144
 6966TIP3    H242534   0.370   4.401   8.613  0.7832  1.1684 -0.0199
 6967TIP3   OH242535   3.849   6.083   2.509 -0.0996 -0.0959  0.0743
 6967TIP3    H142536   3.909   6.016   2.476  0.6904  0.7383 -0.2223
 6967TIP3    H242537   3.762   6.050   2.486  0.3281 -0.5410 -0.9870
 6968TIP3   OH242538   1.016   4.662   1.229  0.2636 -0.3160  0.0366
 6968TIP3    H142539   1.106   4.631   1.224  0.1006 -1.0486  1.4350
 6968TIP3    H242540   1.004   4.690   1.319 -1.2280 -1.2398  0.1621
 6969TIP3   OH242541   5.902   3.440   1.557  0.1767 -0.2712  0.3856
 6969TIP3    H142542   5.812   3.469   1.573 -0.8553 -3.0820  0.3602
 6969TIP3    H242543   5.931   3.491   1.482 -1.1510  1.1158  0.7581
 6970TIP3   OH242544   4.169   1.644   8.497  0.2486 -0.2651 -0.1013
 6970TIP3    H142545   4.156   1.573   8.560 -1.2241 -1.6472 -1.8318
 6970TIP3    H242546   4.247   1.619   8.448 -0.5529 -1.0581 -1.0502
 6971TIP3   OH242547   6.590   5.601   1.647  0.3235  0.5127 -0.7423
 6971TIP3    H142548   6.665   5.584   1.704  1.5792  0.0518 -2.4611
 6971TIP3    H242549   6.613   5.681   1.601 -0.2320  0.3591 -1.2934
 6972TIP3   OH242550   5.769   1.651   7.719  0.2984  0.5273  0.1392
 6972TIP3    H142551   5.739   1.718   7.657  0.7170  2.0213  1.4794
 6972TIP3    H242552   5.843   1.692   7.764  1.5250 -1.4108 -0.0032
 6973TIP3   OH242553   6.409   0.919   7.192  0.2252  0.6754 -0.3959
 6973TIP3    H142554   6.323   0.884   7.167  1.0563 -1.6371 -0.2185
 6973TIP3    H242555   6.469   0.885   7.126  1.7422 -1.8104  2.0451
 6974TIP3   OH242556   1.512   2.972   2.805 -0.2194  0.0984  0.2486
 6974TIP3    H142557   1.453   2.989   2.878  0.2529  0.5384  0.5364
 6974TIP3    H242558   1.490   3.039   2.740 -1.8869 -1.3849 -0.8139
 6975TIP3   OH242559   5.642   0.598   7.630  0.6723 -0.2320 -0.1789
 6975TIP3    H142560   5.686   0.683   7.624 -0.2360  0.4740  2.3061
 6975TIP3    H242561   5.549   0.618   7.622  0.4377 -0.9556  0.6372
 6976TIP3   OH242562   5.607   0.924   8.714  0.1314 -0.5827 -0.2075
 6976TIP3    H142563   5.529   0.942   8.663 -0.8676 -0.6541  1.2227
 6976TIP3    H242564   5.582   0.944   8.804  1.9255 -0.1176  0.2308
 6977TIP3   OH242565   4.381   4.551   0.174  0.1206 -0.2807  0.5187
 6977TIP3    H142566   4.471   4.538   0.145 -0.6072 -0.6841 -1.7317
 6977TIP3    H242567   4.349   4.464   0.195 -0.1137 -0.2975  0.1055
 6978TIP3   OH242568   5.283   2.754   0.754 -0.2276 -0.4868  0.1128
 6978TIP3    H142569   5.325   2.727   0.835 -0.6787 -1.2260  0.1125
 6978TIP3    H242570   5.190   2.755   0.774 -0.2413  0.8552  0.0354
 6979TIP3   OH242571   0.607   0.321   7.589 -0.5015  0.3335 -0.5750
 6979TIP3    H142572   0.614   0.300   7.496 -1.7376  0.8618 -0.8081
 6979TIP3    H242573   0.513   0.321   7.606 -0.2664 -0.4460  0.8461
 6980TIP3   OH242574   2.979   0.851   7.717  0.7818  0.1963 -0.2064
 6980TIP3    H142575   2.958   0.764   7.681  2.4795 -1.1041  1.6975
 6980TIP3    H242576   2.973   0.839   7.811  2.6117  1.7003  0.1579
 6981TIP3   OH242577   2.539   1.528   1.961 -0.9253  0.4687 -0.2093
 6981TIP3    H142578   2.465   1.475   1.990  0.0633 -0.1563  1.2967
 6981TIP3    H242579   2.553   1.590   2.033 -0.3624  0.9789 -0.7515
 6982TIP3   OH242580   0.784   2.217   7.593 -0.0340 -0.2507 -0.2709
 6982TIP3    H142581   0.848   2.279   7.558  0.5814  0.1908  1.4936
 6982TIP3    H242582   0.768   2.155   7.522  0.7090  0.8966 -1.4681
 6983TIP3   OH242583   2.155   5.467   0.705  0.2926 -0.3846 -0.0367
 6983TIP3    H142584   2.161   5.381   0.747 -0.1190 -0.2665  0.2764
 6983TIP3    H242585   2.136   5.448   0.613  0.8317 -0.6402 -0.0980
 6984TIP3   OH242586   1.220   5.918   0.955  0.3524  0.1055  0.1596
 6984TIP3    H142587   1.239   5.912   1.048  0.3854 -3.4624  0.0562
 6984TIP3    H242588   1.135   5.875   0.945 -0.2799  1.5722 -1.3462
 6985TIP3   OH242589   1.609   5.045   8.936 -0.3740  0.1876 -0.2934
 6985TIP3    H142590   1.543   5.063   9.003  0.9132 -0.8578  1.3522
 6985TIP3    H242591   1.677   5.111   8.951  1.1637 -1.6193  1.2829
 6986TIP3   OH242592   1.497   5.477   8.460 -0.1550  0.4936  0.0465
 6986TIP3    H142593   1.469   5.422   8.533  1.7722  0.0085  0.4698
 6986TIP3    H242594   1.549   5.546   8.501  2.3167 -0.6786 -0.9237
 6987TIP3   OH242595   0.536   3.773   2.405 -0.0536 -0.2879 -0.7037
 6987TIP3    H142596   0.624   3.762   2.442 -0.8653  0.5295  1.6430
 6987TIP3    H242597   0.524   3.696   2.349  1.9965 -0.6094 -0.7735
 6988TIP3   OH242598   0.924   4.501   0.996 -0.1196  0.5589 -0.2029
 6988TIP3    H142599   0.989   4.510   0.927  1.3727 -0.6848  0.9602
 6988TIP3    H242600   0.975   4.495   1.077 -1.7676  1.2979  0.9511
 6989TIP3   OH242601   2.788   2.334   7.638 -0.4458  0.4765 -0.9356
 6989TIP3    H142602   2.752   2.250   7.667  2.0769  0.0280  1.2925
 6989TIP3    H242603   2.729   2.399   7.677 -1.5743 -0.1943 -1.4515
 6990TIP3   OH242604   1.168   4.368   8.977 -0.0155  0.2538 -0.7144
 6990TIP3    H142605   1.184   4.313   9.053 -2.5422  0.5114  0.0870
 6990TIP3    H242606   1.125   4.310   8.914 -0.1037  0.6259 -1.0053
 6991TIP3   OH242607   4.045   0.604   0.353  0.0753 -0.6719  0.2750
 6991TIP3    H142608   4.123   0.552   0.334 -0.8249 -1.9647  0.0453
 6991TIP3    H242609   4.031   0.593   0.447  0.2730 -0.2707  0.3560
 6992TIP3   OH242610   2.215   2.615   8.877  0.0150  0.2567  0.2981
 6992TIP3    H142611   2.172   2.659   8.804  1.1739 -0.1486 -0.6771
 6992TIP3    H242612   2.292   2.574   8.837 -0.1210 -1.2269  1.4846
 6993TIP3   OH242613   0.280   1.621   2.164  0.1416 -0.7277 -0.2783
 6993TIP3    H142614   0.315   1.533   2.149  0.8012 -0.5374  0.0940
 6993TIP3    H242615   0.201   1.625   2.110 -0.3332 -1.8267  0.2962
 6994TIP3   OH242616   4.181   1.457   0.376  0.4603  0.1468 -0.2072
 6994TIP3    H142617   4.251   1.442   0.312  0.4433  1.8663 -0.6841
 6994TIP3    H242618   4.100   1.439   0.328  0.5268 -0.8520  0.0429
 6995TIP3   OH242619   5.009   4.092   1.577  0.2292 -0.0031 -0.0653
 6995TIP3    H142620   5.017   4.157   1.646  0.6236  0.8258 -0.8743
 6995TIP3    H242621   4.914   4.081   1.565  0.1101  1.6974 -1.0652
 6996TIP3   OH242622   2.392   5.625   0.660 -0.5047 -0.3542  1.2972
 6996TIP3    H142623   2.370   5.536   0.688  2.2204 -1.0718  1.4368
 6996TIP3    H242624   2.347   5.682   0.723 -2.3661 -1.5677  1.1544
 6997TIP3   OH242625   5.453   2.537   7.523 -0.1527  0.1840 -0.1826
 6997TIP3    H142626   5.546   2.539   7.499 -0.5195  2.0127 -1.6999
 6997TIP3    H242627   5.410   2.589   7.455 -2.1996  0.0083  0.9059
 6998TIP3   OH242628   2.954   5.729   1.758  0.1440  0.2575 -1.1115
 6998TIP3    H142629   2.968   5.659   1.694 -2.0423 -1.8266  0.4965
 6998TIP3    H242630   2.920   5.802   1.707  0.6958 -0.4929 -2.6171
 6999TIP3   OH242631   3.721   2.116   8.467  0.4177  0.3462  0.1637
 6999TIP3    H142632   3.658   2.056   8.508  0.2520  0.5286  0.1768
 6999TIP3    H242633   3.797   2.061   8.447  0.0190  0.0015 -0.3996
 7000TIP3   OH242634   1.546   6.030   2.531  0.1861  0.1712  0.6251
 7000TIP3    H142635   1.566   6.101   2.592  3.3280  1.8293 -1.9946
 7000TIP3    H242636   1.578   5.951   2.575 -0.4807  0.8018  2.3181
 7001TIP3   OH242637   2.849   6.586   8.841  0.3452 -0.0369  0.4235
 7001TIP3    H142638   2.933   6.615   8.804  0.7840 -2.0980 -0.3530
 7001TIP3    H242639   2.857   6.602   8.935  1.5501 -0.0346  0.3392
 7002TIP3   OH242640   3.747   2.600   0.689 -0.3988 -0.3504  0.5480
 7002TIP3    H142641   3.733   2.680   0.639  2.2080  0.2406  0.6281
 7002TIP3    H242642   3.659   2.571   0.714 -1.6323  0.6306 -2.3068
 7003TIP3   OH242643   6.435   1.760   1.030 -0.2839 -0.1961  0.0042
 7003TIP3    H142644   6.366   1.703   1.063 -1.6644  2.0933  1.3215
 7003TIP3    H242645   6.400   1.797   0.949 -0.4507  0.6138  0.4319
 7004TIP3   OH242646   5.384   6.385   8.307  0.1810 -0.1985  0.0990
 7004TIP3    H142647   5.428   6.300   8.300  0.6903 -0.0871  1.6034
 7004TIP3    H242648   5.293   6.362   8.330  0.2398 -0.3394  0.1940
 7005TIP3   OH242649   5.653   1.273   1.652  0.7224  0.2550  0.9563
 7005TIP3    H142650   5.620   1.195   1.697  1.2496  0.1309  1.1305
 7005TIP3    H242651   5.622   1.263   1.562  0.9191 -0.2381  0.9390
 7006TIP3   OH242652   5.605   4.998   0.405  0.5412 -0.0793  0.0005
 7006TIP3    H142653   5.627   5.059   0.475  1.4847 -1.1251  0.6440
 7006TIP3    H242654   5.551   4.932   0.448 -0.0192 -0.0015 -0.5719
 7007TIP3   OH242655   2.471   6.628   0.820  0.3858 -0.2159  0.2342
 7007TIP3    H142656   2.422   6.625   0.737  1.9294  0.7280 -0.7529
 7007TIP3    H242657   2.530   6.552   0.816 -0.3476 -0.8511  1.0321
 7008TIP3   OH242658   4.630   4.913   0.216 -0.2147  0.4357 -0.1086
 7008TIP3    H142659   4.596   4.963   0.142  0.4333  1.6503  0.3804
 7008TIP3    H242660   4.591   4.954   0.293 -0.3394 -0.3667  0.2641
 7009TIP3   OH242661   6.488   5.866   0.741 -0.4088  0.3204 -0.5649
 7009TIP3    H142662   6.561   5.840   0.798 -1.9228  1.4050  2.0328
 7009TIP3    H242663   6.512   5.831   0.655  1.5269 -2.3824  0.9062
 7010TIP3   OH242664   4.176   1.424   8.643 -0.3954  0.1279  0.1732
 7010TIP3    H142665   4.215   1.370   8.575  0.1545 -0.0634  0.6438
 7010TIP3    H242666   4.209   1.389   8.725 -1.1004  0.3238  0.5538
 7011TIP3   OH242667   4.844   4.696   1.593 -0.6874  0.1980  0.3304
 7011TIP3    H142668   4.832   4.721   1.685  0.1025  0.1338  0.4579
 7011TIP3    H242669   4.931   4.656   1.590 -0.6209  0.3907 -0.4884
 7012TIP3   OH242670   4.065   1.934   0.476 -0.0178 -0.1445 -0.1670
 7012TIP3    H142671   4.138   1.873   0.468  0.5877  0.7101 -1.3844
 7012TIP3    H242672   4.105   2.014   0.510 -0.7454 -0.2832  1.0754
 7013TIP3   OH242673   2.644   0.260   1.361 -0.7388  0.5624  0.4105
 7013TIP3    H142674   2.588   0.215   1.298 -0.6033  0.3212  0.4624
 7013TIP3    H242675   2.725   0.209   1.363 -0.3687  1.1235  0.0592
 7014TIP3   OH242676   5.401   5.356   7.709 -0.2132 -0.0724 -0.4916
 7014TIP3    H142677   5.474   5.348   7.771 -0.2498 -0.7893 -0.5323
 7014TIP3    H242678   5.323   5.356   7.764 -0.1878  0.7765 -0.4425
 7015TIP3   OH242679   3.745   6.197   1.354  0.2546 -0.4196  0.0340
 7015TIP3    H142680   3.826   6.198   1.404  0.3494 -1.6351 -0.0761
 7015TIP3    H242681   3.722   6.290   1.344  2.5928  0.0949 -1.5048
 7016TIP3   OH242682   5.909   2.792   0.642 -0.4863 -0.1631 -0.0990
 7016TIP3    H142683   5.885   2.729   0.574  0.7659  0.3279 -1.0358
 7016TIP3    H242684   5.862   2.872   0.618  0.8340  0.3547 -1.0869
 7017TIP3   OH242685   6.389   2.602   0.258  0.4366  0.2806  0.6227
 7017TIP3    H142686   6.482   2.600   0.280  0.7878  1.0772 -0.6921
 7017TIP3    H242687   6.383   2.661   0.183 -1.3252  1.4336  1.5823
 7018TIP3   OH242688   3.298   3.916   7.422  0.3754 -0.4164  0.0426
 7018TIP3    H142689   3.227   3.852   7.421 -0.2063  0.2128 -1.2780
 7018TIP3    H242690   3.298   3.953   7.334  2.2753 -0.3102  0.0580
 7019TIP3   OH242691   5.591   5.941   7.667  0.1263 -0.7186 -0.8130
 7019TIP3    H142692   5.608   5.850   7.692 -1.8289 -0.6733  0.9841
 7019TIP3    H242693   5.577   5.939   7.572  2.3989 -1.8669 -1.1671
 7020TIP3   OH242694   4.316   1.240   2.928 -0.4303 -0.5335  0.0955
 7020TIP3    H142695   4.290   1.306   2.992 -1.7178 -1.6093  0.7351
 7020TIP3    H242696   4.368   1.177   2.977  0.8152 -0.0370 -0.5192
 7021TIP3   OH242697   6.746   3.094   8.091  0.0469 -0.2798  0.0903
 7021TIP3    H142698   6.724   3.186   8.103 -0.0678 -0.2423 -0.3601
 7021TIP3    H242699   6.661   3.049   8.089  0.0670 -0.3071 -0.3356
 7022TIP3   OH242700   2.113   6.530   7.123  0.2498  0.0308 -0.2233
 7022TIP3    H142701   2.119   6.625   7.137 -1.8802  0.3119 -0.8236
 7022TIP3    H242702   2.137   6.518   7.031 -3.0486  0.5573 -1.2807
 7023TIP3   OH242703   2.684   3.568   0.328  1.0783 -0.6202 -0.0819
 7023TIP3    H142704   2.779   3.572   0.340  1.0160  1.2857  0.0755
 7023TIP3    H242705   2.669   3.610   0.244  0.4219 -1.7392 -0.5428
 7024TIP3   OH242706   6.660   5.758   1.231  0.0105 -0.2484 -0.0602
 7024TIP3    H142707   6.624   5.730   1.147  0.8458  0.1152 -0.5531
 7024TIP3    H242708   6.644   5.853   1.233  0.5942 -0.1489 -0.1118
 7025TIP3   OH242709   1.709   5.872   7.655  0.2606 -0.1474  0.1328
 7025TIP3    H142710   1.804   5.881   7.663  0.4040 -2.0040  1.2896
 7025TIP3    H242711   1.697   5.786   7.616 -0.9239 -1.1274  2.4535
 7026TIP3   OH242712   0.589   6.420   0.284 -0.5098  0.5291  0.0243
 7026TIP3    H142713   0.515   6.434   0.225 -1.7032 -0.3591  1.2646
 7026TIP3    H242714   0.599   6.503   0.331 -0.9028  0.5542  0.0633
 7027TIP3   OH242715   4.459   2.182   8.117  0.5902 -0.0503 -0.5208
 7027TIP3    H142716   4.538   2.147   8.158  1.4400  0.5744 -1.6057
 7027TIP3    H242717   4.488   2.260   8.071 -0.6307  0.0745 -1.1095
 7028TIP3   OH242718   3.196   1.996   1.301  0.2637 -0.1114  0.1290
 7028TIP3    H142719   3.224   1.957   1.218  0.2966  0.8326 -0.3274
 7028TIP3    H242720   3.170   2.085   1.277 -0.9435 -0.2248  0.9276
 7029TIP3   OH242721   4.066   4.907   0.184  0.0233  0.3888 -0.1124
 7029TIP3    H142722   4.016   4.857   0.249  0.6981 -0.1819 -0.0188
 7029TIP3    H242723   4.132   4.845   0.151 -0.4864  0.5750 -1.5583
 7030TIP3   OH242724   0.316   2.362   0.939  0.7622 -0.5877 -0.2606
 7030TIP3    H142725   0.304   2.457   0.949  1.1845 -0.6029  0.4626
 7030TIP3    H242726   0.402   2.354   0.898 -0.0147 -0.6097 -1.9590
 7031TIP3   OH242727   6.148   2.024   8.350  0.1832 -0.1559 -0.7354
 7031TIP3    H142728   6.161   1.953   8.413  1.6321  1.3245  0.7430
 7031TIP3    H242729   6.216   2.087   8.372 -0.0366  0.9725 -3.0543
 7032TIP3   OH242730   0.334   4.651   8.344 -0.1611 -0.1472  0.1504
 7032TIP3    H142731   0.276   4.578   8.364 -2.7055  0.9960 -2.2786
 7032TIP3    H242732   0.387   4.621   8.270  0.1794 -0.1717  0.4020
 7033TIP3   OH242733   4.415   2.886   2.033  0.3323  0.2760  0.6060
 7033TIP3    H142734   4.403   2.927   2.120  0.9321  0.1255  0.7602
 7033TIP3    H242735   4.507   2.862   2.030  0.2960  0.2055 -0.0500
 7034TIP3   OH242736   3.791   3.293   1.040 -0.1325 -0.2379  0.3662
 7034TIP3    H142737   3.710   3.254   1.007 -0.8186  1.4818 -0.0745
 7034TIP3    H242738   3.849   3.218   1.056 -0.7932 -1.3475 -1.9865
 7035TIP3   OH242739   0.812   5.027   0.133  0.1056 -0.2084 -0.0441
 7035TIP3    H142740   0.735   4.989   0.092 -0.3355 -0.1596  0.7155
 7035TIP3    H242741   0.778   5.101   0.184  0.8931  0.9843 -1.2004
 7036TIP3   OH242742   5.898   0.109   6.856  0.2594 -0.0683  0.0340
 7036TIP3    H142743   5.837   0.181   6.840 -0.3639  0.1009  2.6906
 7036TIP3    H242744   5.979   0.136   6.813 -0.3714  1.5766 -0.2008
 7037TIP3   OH242745   4.591   0.229   7.298  0.1365 -0.3635  0.2351
 7037TIP3    H142746   4.559   0.190   7.216  0.9631 -2.7773  0.9641
 7037TIP3    H242747   4.554   0.317   7.299 -1.5062 -0.9469 -1.7819
 7038TIP3   OH242748   3.675   1.087   7.189 -0.1760 -0.1608  0.0858
 7038TIP3    H142749   3.679   0.999   7.227 -0.2082 -1.2630 -2.2691
 7038TIP3    H242750   3.767   1.111   7.177 -0.1702 -0.1428  0.1665
 7039TIP3   OH242751   2.953   0.819   7.968  0.5116  0.1224  0.2082
 7039TIP3    H142752   2.921   0.751   8.027 -0.2638 -0.3531 -0.7279
 7039TIP3    H242753   2.920   0.901   8.005  0.0921 -0.1650  0.4748
 7040TIP3   OH242754   3.738   4.078   8.194  0.1761  0.4464 -0.3204
 7040TIP3    H142755   3.767   4.002   8.245 -0.1966  0.5594  0.0736
 7040TIP3    H242756   3.644   4.066   8.186  0.3014  0.1527 -1.4639
 7041TIP3   OH242757   3.734   3.298   8.307 -0.1909  0.3780 -0.1958
 7041TIP3    H142758   3.671   3.344   8.251 -0.9532  0.4300  0.6799
 7041TIP3    H242759   3.704   3.316   8.396 -0.2061 -1.3882  0.1833
 7042TIP3   OH242760   0.512   0.687   7.230  0.2071  0.9924 -0.2096
 7042TIP3    H142761   0.569   0.613   7.253 -1.0310  0.2388  0.5445
 7042TIP3    H242762   0.471   0.662   7.148 -1.1432  0.2626  0.6603
 7043TIP3   OH242763   3.647   0.588   8.782  0.4925  0.0965 -0.4793
 7043TIP3    H142764   3.607   0.548   8.860  0.2776  3.7016  1.5110
 7043TIP3    H242765   3.741   0.591   8.802  0.3586  1.7029  0.1049
 7044TIP3   OH242766   4.976   4.565   8.596 -0.4969 -0.2267  0.2084
 7044TIP3    H142767   5.018   4.603   8.518  0.1414  0.5833  0.9221
 7044TIP3    H242768   5.004   4.474   8.596 -1.0188 -0.4024 -0.8481
 7045TIP3   OH242769   0.145   3.178   0.217 -0.2360 -0.4020  0.5623
 7045TIP3    H142770   0.111   3.120   0.284 -1.6425 -0.9160 -0.5485
 7045TIP3    H242771   0.080   3.175   0.146 -0.5484  2.7510  0.5590
 7046TIP3   OH242772   4.551   0.119   2.001  0.4644  0.1797  0.2205
 7046TIP3    H142773   4.552   0.051   2.069 -0.1258 -0.3263 -0.2695
 7046TIP3    H242774   4.524   0.198   2.048 -1.5122 -0.4985  0.3079
 7047TIP3   OH242775   0.489   2.499   7.383 -0.1187 -0.3071  0.1775
 7047TIP3    H142776   0.473   2.544   7.300 -2.1555 -0.6879  0.3281
 7047TIP3    H242777   0.579   2.525   7.407  1.0359 -1.2374 -2.7508
 7048TIP3   OH242778   3.381   2.647   0.115  0.4393 -0.2855  0.6282
 7048TIP3    H142779   3.338   2.612   0.193 -1.1783 -0.4370 -0.3007
 7048TIP3    H242780   3.432   2.721   0.147  0.2520 -0.6898  1.9093
 7049TIP3   OH242781   6.055   2.274   7.421 -0.0392  0.2223 -0.1431
 7049TIP3    H142782   6.104   2.340   7.372  0.8855 -0.6071 -0.3714
 7049TIP3    H242783   5.976   2.319   7.450  1.6325  2.1003  1.7155
 7050TIP3   OH242784   3.486   5.309   1.570  0.4567 -0.2107 -0.1780
 7050TIP3    H142785   3.425   5.382   1.558 -0.8104 -0.7481  2.1710
 7050TIP3    H242786   3.573   5.348   1.563 -0.1835  1.2487 -0.3227
 7051TIP3   OH242787   6.382   0.639   8.120  0.0152  0.0878 -0.0651
 7051TIP3    H142788   6.456   0.652   8.060  0.2693 -0.2960  0.1643
 7051TIP3    H242789   6.338   0.560   8.088  0.4345 -0.3958  0.5363
 7052TIP3   OH242790   1.705   4.370   1.549  0.0005  0.0708 -0.6621
 7052TIP3    H142791   1.696   4.355   1.455 -1.0639 -0.3238 -0.5115
 7052TIP3    H242792   1.676   4.461   1.561 -0.3575 -0.0435 -0.6520
 7053TIP3   OH242793   4.192   4.078   0.251 -0.0348  0.5887  0.5238
 7053TIP3    H142794   4.101   4.050   0.267  0.7745 -0.3545  4.6712
 7053TIP3    H242795   4.242   3.997   0.254  1.0172  1.0304 -2.3053
 7054TIP3   OH242796   6.206   3.447   0.726 -0.5577  0.1044  0.0536
 7054TIP3    H142797   6.236   3.386   0.658 -1.1754 -0.5402  0.3386
 7054TIP3    H242798   6.260   3.525   0.714  0.8640 -0.8105  0.2107
 7055TIP3   OH242799   6.762   1.033   8.485 -0.6973 -0.0456  0.2631
 7055TIP3    H142800   6.741   1.078   8.566  0.8036  2.9226 -0.8400
 7055TIP3    H242801   6.841   0.982   8.505 -0.5256  0.4073  0.7655
 7056TIP3   OH242802   0.407   3.362   1.191 -0.4851 -0.1833 -0.6312
 7056TIP3    H142803   0.424   3.270   1.209 -0.1162 -0.0730 -0.4139
 7056TIP3    H242804   0.379   3.398   1.275 -0.4791 -0.0631 -0.6812
 7057TIP3   OH242805   5.225   3.288   8.945 -0.5580 -0.0599  0.3465
 7057TIP3    H142806   5.148   3.231   8.954  0.1420 -0.9670  0.7215
 7057TIP3    H242807   5.272   3.277   9.027  0.5571 -0.3821 -0.3213
 7058TIP3   OH242808   0.429   0.872   1.013  0.8488  0.2365 -0.1339
 7058TIP3    H142809   0.382   0.955   0.998  0.8313 -0.1416 -2.4213
 7058TIP3    H242810   0.413   0.820   0.935  1.2661 -1.7836  1.0429
 7059TIP3   OH242811   1.058   0.138   1.674 -0.3523  0.3348  0.1958
 7059TIP3    H142812   1.127   0.190   1.633  0.3037  0.5760  1.5560
 7059TIP3    H242813   1.027   0.080   1.604  2.3407 -0.9353 -0.0953
 7060TIP3   OH242814   0.890   6.711   8.858  0.8104 -0.0311  0.0879
 7060TIP3    H142815   0.947   6.697   8.782 -0.1909  0.1449 -0.7162
 7060TIP3    H242816   0.821   6.768   8.826  0.1364 -0.2930  1.0249
 7061TIP3   OH242817   3.074   2.321   8.062  0.5587  0.1364  0.3688
 7061TIP3    H142818   3.036   2.275   7.987 -1.7016  3.1094 -0.4853
 7061TIP3    H242819   3.157   2.355   8.029  0.9868 -1.0264  0.1953
 7062TIP3   OH242820   6.718   5.911   2.074 -0.0795 -0.1591  0.0615
 7062TIP3    H142821   6.725   5.930   1.980 -1.1858 -0.2869 -0.0513
 7062TIP3    H242822   6.654   5.841   2.080 -0.3392  0.1390  0.9485
 7063TIP3   OH242823   3.466   2.639   0.802  0.0811  0.6576  0.1167
 7063TIP3    H142824   3.419   2.687   0.735  0.5693  0.4125 -0.4155
 7063TIP3    H242825   3.433   2.673   0.885 -2.2688 -0.6918 -0.1926
 7064TIP3   OH242826   5.117   4.559   2.104 -0.5987  0.2304  0.6217
 7064TIP3    H142827   5.100   4.654   2.107  1.4801  0.7991 -1.7000
 7064TIP3    H242828   5.082   4.532   2.019  0.4679 -0.6874  0.4649
 7065TIP3   OH242829   4.362   3.320   0.773 -0.0012  0.2170 -0.2243
 7065TIP3    H142830   4.383   3.237   0.816  1.9579 -0.1008 -1.6139
 7065TIP3    H242831   4.355   3.298   0.680  1.5384  1.7104 -0.7604
 7066TIP3   OH242832   0.858   4.235   7.583 -0.3087 -0.1037 -0.4636
 7066TIP3    H142833   0.777   4.184   7.594  0.3946 -1.3730 -0.9977
 7066TIP3    H242834   0.839   4.318   7.626 -1.2968 -1.0226  0.9735
 7067TIP3   OH242835   3.241   3.691   6.840 -0.1800 -0.4160 -0.3020
 7067TIP3    H142836   3.297   3.709   6.765  0.6104 -2.7758 -0.3654
 7067TIP3    H242837   3.157   3.666   6.801 -0.7423  1.2810 -0.2591
 7068TIP3   OH242838   5.237   4.041   8.137 -0.4020  0.2885  0.3331
 7068TIP3    H142839   5.203   4.032   8.226  0.9141  2.0547  1.0936
 7068TIP3    H242840   5.332   4.035   8.148  0.0272  3.7335 -0.3667
 7069TIP3   OH242841   5.506   3.389   0.083 -0.2598 -0.1335 -0.0466
 7069TIP3    H142842   5.444   3.354   0.148  0.0805 -0.1044  0.2981
 7069TIP3    H242843   5.528   3.314   0.028 -2.5139  0.3596 -1.7645
 7070TIP3   OH242844   6.575   3.133   1.458  0.0907 -0.5165 -0.1059
 7070TIP3    H142845   6.545   3.218   1.490 -1.3042 -0.2316 -1.9725
 7070TIP3    H242846   6.643   3.154   1.394  0.6548 -0.8923  0.3615
 7071TIP3   OH242847   4.927   5.683   7.814  0.0646 -0.3604 -0.3846
 7071TIP3    H142848   4.959   5.771   7.796 -3.2528  1.1619  0.4567
 7071TIP3    H242849   4.970   5.659   7.897  1.1981  0.3039 -0.7492
 7072TIP3   OH242850   4.698   6.176   8.387  0.1069 -0.3091  0.0164
 7072TIP3    H142851   4.615   6.144   8.353 -0.9246  1.1695  0.9858
 7072TIP3    H242852   4.741   6.216   8.312 -0.3332 -0.5529 -0.3727
 7073TIP3   OH242853   6.351   3.528   7.857  0.3017  0.0184 -0.2982
 7073TIP3    H142854   6.316   3.618   7.860  1.5426  0.5763 -1.6452
 7073TIP3    H242855   6.348   3.499   7.949 -0.3124  1.3496  0.1358
 7074TIP3   OH242856   2.505   4.727   1.625  0.0589 -0.0427 -0.5211
 7074TIP3    H142857   2.431   4.786   1.644  0.7159  0.9383 -0.9084
 7074TIP3    H242858   2.473   4.641   1.650 -0.2927  0.6892  1.8098
 7075TIP3   OH242859   1.331   1.320   7.972  0.1180  0.1252 -0.1462
 7075TIP3    H142860   1.322   1.347   8.063 -0.2121  0.2579 -0.2187
 7075TIP3    H242861   1.403   1.374   7.937 -0.0986  0.4348 -0.1082
 7076TIP3   OH242862   3.676   0.800   7.879 -0.4586  0.4474  0.0450
 7076TIP3    H142863   3.598   0.806   7.935 -2.4380 -1.7113 -2.2582
 7076TIP3    H242864   3.653   0.848   7.800  1.6099  1.9373  0.2753
 7077TIP3   OH242865   4.450   0.607   8.889  0.0753 -0.1724  0.1064
 7077TIP3    H142866   4.383   0.573   8.949 -2.4659  1.8186 -1.3374
 7077TIP3    H242867   4.460   0.539   8.823  0.5005 -1.0527  1.0578
 7078TIP3   OH242868   1.743   0.812   2.556 -0.1279 -0.3896 -0.5894
 7078TIP3    H142869   1.808   0.807   2.626 -0.4386  1.6233 -0.0881
 7078TIP3    H242870   1.789   0.784   2.477  0.7831 -0.8522  0.0983
 7079TIP3   OH242871   6.501   5.172   0.938  0.4250 -0.0939 -0.4492
 7079TIP3    H142872   6.566   5.234   0.971  2.5278 -0.0909 -4.0706
 7079TIP3    H242873   6.547   5.088   0.936 -0.1782 -0.4177 -1.5853
 7080TIP3   OH242874   4.235   5.448   2.376 -0.2738  0.1005 -0.2911
 7080TIP3    H142875   4.276   5.458   2.290 -0.8231 -0.2699 -0.5965
 7080TIP3    H242876   4.177   5.524   2.384  2.9407  2.6279  1.5921
 7081TIP3   OH242877   3.309   3.226   8.450 -0.3256  0.2802  0.3424
 7081TIP3    H142878   3.361   3.148   8.471  0.1768  0.1180 -1.3069
 7081TIP3    H242879   3.364   3.275   8.389 -1.4459  0.9236 -0.1872
 7082TIP3   OH242880   5.884   1.409   8.781  0.4915  0.7400 -0.4043
 7082TIP3    H142881   5.854   1.323   8.752  2.8033  0.1997 -1.4270
 7082TIP3    H242882   5.832   1.471   8.731 -1.5879 -0.0078  0.7398
 7083TIP3   OH242883   3.670   5.598   2.829 -0.0859  0.4490 -0.3287
 7083TIP3    H142884   3.755   5.578   2.868 -0.1411 -0.7118 -0.7557
 7083TIP3    H242885   3.688   5.670   2.769  1.0311 -1.0108 -1.8504
 7084TIP3   OH242886   3.685   4.522   7.450  0.1755  0.3819  0.5511
 7084TIP3    H142887   3.709   4.551   7.538 -1.3990  1.7947  0.5717
 7084TIP3    H242888   3.670   4.604   7.401 -3.5139 -0.2689  0.3193
 7085TIP3   OH242889   1.349   2.387   8.799  0.5849  0.1085 -0.3865
 7085TIP3    H142890   1.389   2.379   8.712  1.1208 -1.9035  0.0003
 7085TIP3    H242891   1.340   2.297   8.830 -3.1721  0.4590  0.0621
 7086TIP3   OH242892   1.199   3.595   8.261 -0.2811 -1.1062 -0.2724
 7086TIP3    H142893   1.142   3.601   8.185 -0.0458  0.8281 -0.3383
 7086TIP3    H242894   1.286   3.620   8.229 -0.3125  0.4349  0.7254
 7087TIP3   OH242895   5.459   4.146   7.902  0.5159  0.2566 -0.8710
 7087TIP3    H142896   5.451   4.070   7.843  1.6681 -1.1773  0.7347
 7087TIP3    H242897   5.468   4.108   7.989  1.8882  2.2357 -0.0905
 7088TIP3   OH242898   2.050   4.775   0.559  0.0417 -0.2108 -0.3554
 7088TIP3    H142899   2.080   4.715   0.491 -0.6006  0.6778 -1.4658
 7088TIP3    H242900   1.955   4.778   0.548  0.1275  1.7502 -1.0186
 7089TIP3   OH242901   5.613   5.517   1.148 -0.2438  0.0483  0.4346
 7089TIP3    H142902   5.643   5.570   1.075 -0.5634  0.5806  0.6848
 7089TIP3    H242903   5.518   5.529   1.149 -0.3533 -0.7220  0.3481
 7090TIP3   OH242904   5.789   5.785   0.796  0.5249  0.1052 -0.0712
 7090TIP3    H142905   5.873   5.781   0.750  0.8607 -0.4912  0.5859
 7090TIP3    H242906   5.799   5.726   0.870 -0.9940 -1.2010 -0.8347
 7091TIP3   OH242907   3.658   6.680   7.316 -0.1833 -0.2203 -0.3351
 7091TIP3    H142908   3.568   6.693   7.289 -0.1038  1.5614  0.1397
 7091TIP3    H242909   3.707   6.750   7.272  0.9042 -0.9275 -0.2957
 7092TIP3   OH242910   4.777   3.453   1.167  0.4643 -0.2298  0.2347
 7092TIP3    H142911   4.731   3.533   1.193 -1.5968 -1.2184 -0.0886
 7092TIP3    H242912   4.762   3.447   1.073 -1.2253 -1.9736  0.5331
 7093TIP3   OH242913   3.886   0.511   1.141 -0.2805 -0.1456  0.8375
 7093TIP3    H142914   3.913   0.420   1.129 -1.1586 -0.4078  0.7794
 7093TIP3    H242915   3.793   0.506   1.163 -0.7359  0.8256 -0.7064
 7094TIP3   OH242916   1.596   1.454   1.837 -0.1025  1.0303 -0.0417
 7094TIP3    H142917   1.547   1.464   1.918 -1.2926 -1.2899 -0.3835
 7094TIP3    H242918   1.672   1.402   1.861 -0.6672 -0.0118 -0.4335
 7095TIP3   OH242919   1.870   4.763   0.973  0.4755 -0.4361  0.6860
 7095TIP3    H142920   1.818   4.736   1.049  1.4898 -1.4119  1.0690
 7095TIP3    H242921   1.854   4.857   0.964  0.3599 -0.3106  2.1102
 7096TIP3   OH242922   3.212   2.485   0.322  0.0351 -0.0901  0.3080
 7096TIP3    H142923   3.207   2.445   0.236 -1.1742 -0.8525  0.7053
 7096TIP3    H242924   3.262   2.422   0.375  0.6529  0.3098  0.2132
 7097TIP3   OH242925   0.457   1.139   0.939  0.3642  0.5244  0.8178
 7097TIP3    H142926   0.530   1.186   0.979  0.9768 -0.7219  1.2239
 7097TIP3    H242927   0.499   1.079   0.878 -0.4204  0.7210  0.0757
 7098TIP3   OH242928   3.088   3.975   1.841  0.4716 -0.0825  0.0506
 7098TIP3    H142929   3.100   4.033   1.765  1.6720 -1.0884 -0.5645
 7098TIP3    H242930   3.020   3.914   1.813  0.1347  0.2203  0.2042
 7099TIP3   OH242931   0.029   3.745   7.215 -0.3746  0.1047 -0.7261
 7099TIP3    H142932   0.040   3.655   7.246 -2.2832 -0.3186 -1.1361
 7099TIP3    H242933   0.104   3.792   7.252  0.4214 -1.5429 -0.1275
 7100TIP3   OH242934   3.261   1.933   6.802 -0.3007  0.0059  0.1892
 7100TIP3    H142935   3.342   1.901   6.761 -0.3550  0.9413 -0.7154
 7100TIP3    H242936   3.230   1.861   6.855  0.7391 -0.6347 -0.0520
 7101TIP3   OH242937   2.142   0.063   1.869 -0.0390  0.4328  0.4103
 7101TIP3    H142938   2.226   0.093   1.902  0.9478 -1.4325 -0.2167
 7101TIP3    H242939   2.121   0.123   1.797  3.3576 -1.8138 -2.8715
 7102TIP3   OH242940   3.327   5.046   1.616  0.3318  0.5679 -0.3899
 7102TIP3    H142941   3.327   5.085   1.704 -2.1055  0.1094 -0.1163
 7102TIP3    H242942   3.356   4.956   1.630 -3.1334 -0.5677  0.6338
 7103TIP3   OH242943   3.145   2.586   6.835  0.1499 -0.0623 -0.4795
 7103TIP3    H142944   3.175   2.495   6.842  0.3386 -0.1539 -2.0680
 7103TIP3    H242945   3.056   2.580   6.800  0.7996  0.3676 -2.3331
 7104TIP3   OH242946   3.968   3.301   1.272  0.2522  0.5700 -0.1376
 7104TIP3    H142947   3.879   3.333   1.289  0.1533 -0.1737  0.8367
 7104TIP3    H242948   3.960   3.206   1.274  0.8488  0.4797 -1.3073
 7105TIP3   OH242949   1.408   4.403   7.510  1.0558 -0.2231 -0.8262
 7105TIP3    H142950   1.389   4.450   7.429  1.4353  0.0984 -0.7261
 7105TIP3    H242951   1.388   4.466   7.579 -0.5801 -0.9258 -0.6044
 7106TIP3   OH242952   6.398   3.010   0.522  0.0032 -0.1749  0.5983
 7106TIP3    H142953   6.332   2.941   0.513 -0.1138 -0.1429  1.1720
 7106TIP3    H242954   6.466   2.986   0.460  0.9005 -1.9004  2.1626
 7107TIP3   OH242955   5.021   1.972   2.491 -0.4471 -0.0566 -0.5425
 7107TIP3    H142956   4.978   1.931   2.566  1.0859  0.1522  0.4910
 7107TIP3    H242957   4.987   2.061   2.490 -0.2533  0.0303  0.1018
 7108TIP3   OH242958   6.197   1.269   8.934 -0.6537  0.2266  0.1797
 7108TIP3    H142959   6.196   1.351   8.886 -1.8951  1.5587  2.2941
 7108TIP3    H242960   6.109   1.232   8.922 -0.4656 -0.2233  0.1462
 7109TIP3   OH242961   6.579   4.401   2.560 -0.7572 -0.2208 -0.2382
 7109TIP3    H142962   6.503   4.452   2.532  0.1398 -0.0374 -2.5291
 7109TIP3    H242963   6.652   4.463   2.559 -0.4154 -0.5421  1.3379
 7110TIP3   OH242964   0.954   2.897   6.742 -0.3610 -0.2766 -0.4243
 7110TIP3    H142965   0.926   2.887   6.651 -0.1224 -0.3194 -0.4934
 7110TIP3    H242966   0.908   2.975   6.773  0.7940  0.6801 -1.0620
 7111TIP3   OH242967   2.369   3.268   7.768  0.9831  0.4844  0.3875
 7111TIP3    H142968   2.353   3.276   7.674  1.3696 -0.8046  0.1948
 7111TIP3    H242969   2.461   3.242   7.774  1.3492  1.8237  1.2031
 7112TIP3   OH242970   6.638   4.961   0.104  0.0831 -0.4872 -0.4917
 7112TIP3    H142971   6.630   5.013   0.024  0.2395 -0.5071 -0.5213
 7112TIP3    H242972   6.578   5.002   0.166  1.3343  0.6776 -0.0057
 7113TIP3   OH242973   5.463   6.431   7.276 -0.4285 -0.1450 -0.0714
 7113TIP3    H142974   5.395   6.466   7.219 -0.5175  0.3869  0.3484
 7113TIP3    H242975   5.435   6.456   7.364  1.6561  2.5386 -0.0408
 7114TIP3   OH242976   6.489   3.637   8.321 -0.7333  0.2394  0.0253
 7114TIP3    H142977   6.527   3.553   8.297 -0.9179  0.4224 -0.9330
 7114TIP3    H242978   6.481   3.633   8.417 -1.0408 -0.9560 -0.0343
 7115TIP3   OH242979   1.861   0.278   0.068 -0.1101 -0.2125 -0.4610
 7115TIP3    H142980   1.827   0.210   0.126  1.8407 -1.1061 -0.2808
 7115TIP3    H242981   1.831   0.251  -0.019 -1.6157  0.2051 -0.1019
 7116TIP3   OH242982   6.713   6.018   8.210 -0.3283 -0.0095  0.1973
 7116TIP3    H142983   6.720   6.021   8.115  0.3825 -0.1984  0.2410
 7116TIP3    H242984   6.781   5.957   8.238 -0.0101  0.6370  0.8810
 7117TIP3   OH242985   0.725   4.197   6.353  0.6691  0.5717 -0.5822
 7117TIP3    H142986   0.784   4.186   6.428 -1.4778 -0.3490  1.1220
 7117TIP3    H242987   0.710   4.291   6.348  0.1852  0.6062  0.7988
 7118TIP3   OH242988   3.196   1.744   6.983  0.1196 -0.0559 -0.0376
 7118TIP3    H142989   3.113   1.703   6.957 -0.2895  0.7823 -0.1060
 7118TIP3    H242990   3.251   1.671   7.012 -1.4733 -0.4215  2.3598
 7119TIP3   OH242991   1.716   3.422   1.490 -0.1272  1.0038 -0.5366
 7119TIP3    H142992   1.668   3.498   1.524  0.5032  0.9923  0.4193
 7119TIP3    H242993   1.795   3.418   1.544 -0.3939 -0.6384 -0.2382
 7120TIP3   OH242994   1.791   2.804   8.967  0.3457 -0.7278  0.1795
 7120TIP3    H142995   1.869   2.859   8.979 -0.1223 -0.3546  1.7640
 7120TIP3    H242996   1.817   2.738   8.903  1.0788  1.0415 -1.4634
 7121TIP3   OH242997   5.306   5.072   0.435 -0.2852 -0.7185 -0.0658
 7121TIP3    H142998   5.350   5.026   0.507  0.0866 -1.4774 -0.7685
 7121TIP3    H242999   5.258   5.142   0.479 -0.5242 -1.5083  1.0000
 7122TIP3   OH243000   0.935   2.407   1.819 -0.2536 -0.3554 -0.7754
 7122TIP3    H143001   0.889   2.474   1.870  0.5214 -0.9734  0.8033
 7122TIP3    H243002   0.946   2.334   1.880  0.9204 -1.0451 -1.7696
 7123TIP3   OH243003   3.043   1.685   2.206 -0.2879  0.2337  0.5728
 7123TIP3    H143004   3.047   1.737   2.287 -0.7552  0.7253  0.2885
 7123TIP3    H243005   3.041   1.751   2.136 -0.9288 -0.1739  0.2061
 7124TIP3   OH243006   6.369   0.959   7.485 -0.3555  0.4021 -0.1346
 7124TIP3    H143007   6.393   0.876   7.525  0.0959  1.3458  1.6380
 7124TIP3    H243008   6.409   0.957   7.398  0.2425 -0.9276  0.1590
 7125TIP3   OH243009   0.727   3.655   1.471  0.2576  0.3202  0.3388
 7125TIP3    H143010   0.689   3.590   1.530 -1.2067 -1.2342 -2.1573
 7125TIP3    H243011   0.815   3.670   1.506 -0.3473 -0.8920  2.5814
 7126TIP3   OH243012   5.675   0.068   8.640  0.1359  0.3869 -0.2472
 7126TIP3    H143013   5.710  -0.018   8.617  0.3449  0.8606 -1.8632
 7126TIP3    H243014   5.752   0.122   8.656  0.0756  0.7019 -0.9722
 7127TIP3   OH243015   3.196   0.088   1.247 -0.3647 -0.0355  0.6961
 7127TIP3    H143016   3.102   0.106   1.241 -0.2511  0.7129  1.0278
 7127TIP3    H243017   3.202   0.011   1.304 -0.8134 -0.5449  0.0690
 7128TIP3   OH243018   2.687   2.006   3.111  0.2104  0.5139 -0.4550
 7128TIP3    H143019   2.708   1.921   3.150 -0.6396  1.0478  1.2868
 7128TIP3    H243020   2.770   2.054   3.113  0.1186  0.6628  1.1430
 7129TIP3   OH243021   2.634   2.537   0.017 -0.7987 -0.1233 -0.0154
 7129TIP3    H143022   2.688   2.567  -0.056 -2.4011  0.0231 -1.2163
 7129TIP3    H243023   2.696   2.506   0.082  0.6964 -0.4506 -1.5196
 7130TIP3   OH243024   3.225   0.006   2.578  0.1746  0.0805  0.3774
 7130TIP3    H143025   3.217  -0.078   2.532  0.7794 -0.5369  1.3527
 7130TIP3    H243026   3.181  -0.009   2.662  0.3873  0.7000  0.6018
 7131TIP3   OH243027   0.931   2.538   0.714  0.0469  0.3137 -0.0936
 7131TIP3    H143028   0.923   2.467   0.777 -0.6208  0.7011  0.2622
 7131TIP3    H243029   1.017   2.576   0.731 -0.1965  0.5210  0.6946
 7132TIP3   OH243030   5.968   0.284   1.116 -0.1932 -0.1033 -0.1829
 7132TIP3    H143031   5.875   0.300   1.104 -0.4439 -1.4459 -0.2249
 7132TIP3    H243032   5.980   0.192   1.092  0.8519 -0.3969  1.2961
 7133TIP3   OH243033   5.316   1.683   2.465 -0.3324  0.5532  0.5438
 7133TIP3    H143034   5.320   1.600   2.514  1.1961  1.0383  1.3050
 7133TIP3    H243035   5.356   1.662   2.381  1.1310  0.7611  1.1569
 7134TIP3   OH243036   2.352   3.939   0.477 -0.2221  0.1953  0.2325
 7134TIP3    H143037   2.403   3.858   0.476 -1.0663 -0.3408 -0.2468
 7134TIP3    H243038   2.386   3.991   0.404 -0.0311  0.0629  0.2277
 7135TIP3   OH243039   0.276   4.945   7.981 -0.4734 -0.1167  0.4582
 7135TIP3    H143040   0.208   4.890   7.944 -0.6884  0.9330 -0.7674
 7135TIP3    H243041   0.251   4.956   8.073 -2.1064  0.4422 -0.0191
 7136TIP3   OH243042   5.964   4.559   1.218  0.4144  0.3657 -0.1904
 7136TIP3    H143043   5.906   4.610   1.161 -1.1220 -2.0648 -0.9741
 7136TIP3    H243044   5.912   4.546   1.298  0.0147 -1.3545 -0.6804
 7137TIP3   OH243045   6.531   0.776   2.047 -0.0197 -0.4497  0.6193
 7137TIP3    H143046   6.568   0.785   1.959 -1.7605  0.1271 -0.1058
 7137TIP3    H243047   6.587   0.711   2.090  1.7459  0.3299 -0.3973
 7138TIP3   OH243048   6.463   0.044   7.773 -1.0022 -0.4937 -0.0585
 7138TIP3    H143049   6.387   0.024   7.827 -0.9089 -0.1615  0.2047
 7138TIP3    H243050   6.430   0.102   7.705 -0.7415  0.8321  0.8845
 7139TIP3   OH243051   3.019   6.038   7.361  0.5345  0.1944 -0.0476
 7139TIP3    H143052   3.019   6.078   7.274  0.3004  1.5706  0.5516
 7139TIP3    H243053   2.952   5.970   7.356 -0.8130  1.4866 -0.4344
 7140TIP3   OH243054   1.063   2.317   0.267 -0.2990  0.5218  0.3000
 7140TIP3    H143055   0.980   2.299   0.222  0.7539  1.5525 -2.2601
 7140TIP3    H243056   1.123   2.250   0.235  0.9300  2.2872 -1.3401
 7141TIP3   OH243057   4.562   5.967   0.829  0.5397 -0.3203 -0.1195
 7141TIP3    H143058   4.593   6.016   0.752  0.8033  0.2926  0.3686
 7141TIP3    H243059   4.637   5.965   0.888 -0.2459  1.0131  1.0014
 7142TIP3   OH243060   2.033   2.742   8.471 -0.6323 -0.2754  0.5471
 7142TIP3    H143061   2.019   2.821   8.418  1.6780 -0.9003 -1.1263
 7142TIP3    H243062   2.087   2.685   8.416 -0.2832 -2.0735  2.6152
 7143TIP3   OH243063   0.632   0.154   1.989  0.1563  0.5613  0.5131
 7143TIP3    H143064   0.710   0.167   2.043  0.0194 -1.6305  1.3416
 7143TIP3    H243065   0.619   0.059   1.988 -3.3034  0.8679  1.6110
 7144TIP3   OH243066   5.835   6.133   0.179 -0.0755  0.4414 -0.2971
 7144TIP3    H143067   5.769   6.201   0.171  0.7554  1.3478  0.2782
 7144TIP3    H243068   5.912   6.178   0.214  0.5927 -0.7354 -0.1838
 7145TIP3   OH243069   3.082   3.201   1.877  0.2005 -0.2702  0.2386
 7145TIP3    H143070   3.009   3.170   1.931 -0.4835  1.1550  0.1928
 7145TIP3    H243071   3.103   3.287   1.913 -0.4206  0.8350 -1.8602
 7146TIP3   OH243072   4.899   1.781   0.849  0.0568 -0.2814  0.6750
 7146TIP3    H143073   4.993   1.800   0.848 -0.0116  0.2138 -1.3667
 7146TIP3    H243074   4.857   1.867   0.852 -0.2591 -0.2272 -2.1178
 7147TIP3   OH243075   0.022   2.693   7.960  0.1313  0.0642  0.3070
 7147TIP3    H143076   0.117   2.699   7.964  0.1241  0.9553 -0.4264
 7147TIP3    H243077  -0.005   2.771   7.911 -0.9584 -0.2899  0.3084
 7148TIP3   OH243078   1.829   0.055   0.309 -0.5818 -0.7495 -0.3267
 7148TIP3    H143079   1.893   0.004   0.358 -0.0147 -0.3205 -0.6126
 7148TIP3    H243080   1.787   0.110   0.376 -1.1403 -1.5148 -0.0330
 7149TIP3   OH243081   5.197   5.132   7.067  0.5230 -0.3439  0.1427
 7149TIP3    H143082   5.287   5.102   7.055  1.4459  2.1014  0.4042
 7149TIP3    H243083   5.194   5.163   7.157 -0.7047 -0.6865  0.2361
 7150TIP3   OH243084   3.987   6.498   8.027 -0.0511  0.3650 -0.0756
 7150TIP3    H143085   3.981   6.593   8.035 -1.5524  0.2262  0.7517
 7150TIP3    H243086   3.911   6.474   7.974  1.4012 -0.2210 -2.0066
 7151TIP3   OH243087   3.722   3.948   1.572  0.4071 -0.0231  0.1160
 7151TIP3    H143088   3.795   3.949   1.633  0.6960 -2.2024 -0.1300
 7151TIP3    H243089   3.763   3.956   1.486  0.1429  1.1210  0.0792
 7152TIP3   OH243090   1.754   2.278   2.930 -0.2857  0.2942 -0.3962
 7152TIP3    H143091   1.780   2.221   2.858 -1.9720  0.1139 -0.9020
 7152TIP3    H243092   1.662   2.299   2.912 -0.1447  1.9205  0.6029
 7153TIP3   OH243093   3.673   6.595   6.615  0.4166 -0.0591  0.7421
 7153TIP3    H143094   3.713   6.545   6.687  0.3059  0.3089  1.0638
 7153TIP3    H243095   3.718   6.564   6.537  0.1042 -0.9243  0.8923
 7154TIP3   OH243096   2.118   0.454   8.309 -0.1892 -0.2594  0.1783
 7154TIP3    H143097   2.031   0.415   8.318  0.1852 -0.7408  2.1223
 7154TIP3    H243098   2.103   0.548   8.318 -0.5843 -0.2778 -0.2416
 7155TIP3   OH243099   3.844   3.161   1.715 -0.2537 -0.0385 -0.2868
 7155TIP3    H143100   3.887   3.077   1.728 -1.6090 -0.3439  3.5462
 7155TIP3    H243101   3.872   3.215   1.789 -0.2382  2.5895 -2.0625
 7156TIP3   OH243102   3.010   6.725   7.138  0.2461  0.3642 -0.1846
 7156TIP3    H143103   2.919   6.754   7.151  0.0407 -0.2510 -0.2188
 7156TIP3    H243104   3.014   6.701   7.045  0.4994  0.5890 -0.2298
 7157TIP3   OH243105   3.614   3.761   8.521  0.0709  0.3490  0.0728
 7157TIP3    H143106   3.628   3.822   8.594 -2.4525 -0.8678  1.6826
 7157TIP3    H243107   3.703   3.740   8.491  1.1590  1.5982  2.1635
 7158TIP3   OH243108   0.280   6.080   2.044  0.3541  0.4849 -0.0524
 7158TIP3    H143109   0.253   5.989   2.054  1.6811  0.1961  1.1770
 7158TIP3    H243110   0.202   6.130   2.069 -0.8370 -0.2565 -2.0636
 7159TIP3   OH243111   5.336   4.705   8.500 -0.0207 -0.0466 -0.1737
 7159TIP3    H143112   5.348   4.613   8.524 -2.2513  0.1022  1.9643
 7159TIP3    H243113   5.257   4.705   8.445 -0.1770  0.5981  0.0373
 7160TIP3   OH243114   5.304   3.568   2.224  0.1758 -0.1430 -0.2335
 7160TIP3    H143115   5.266   3.596   2.140 -1.2551 -2.4940 -0.4729
 7160TIP3    H243116   5.398   3.566   2.208  0.2106  2.3269 -0.7940
 7161TIP3   OH243117   4.460   6.733   1.436 -0.3560  0.2203 -0.2618
 7161TIP3    H143118   4.503   6.669   1.379  2.6919  2.8368 -1.1952
 7161TIP3    H243119   4.511   6.730   1.517 -0.5387  1.0613 -0.1119
 7162TIP3   OH243120   0.311   6.674   2.712 -0.4109  0.1605  0.3383
 7162TIP3    H143121   0.283   6.664   2.621 -0.0593 -0.9129  0.3299
 7162TIP3    H243122   0.260   6.609   2.760 -0.9837  1.0800  1.0113
 7163TIP3   OH243123   5.307   3.910   1.265  0.2856 -0.1156  0.2629
 7163TIP3    H143124   5.238   3.976   1.270 -0.3951 -0.8049  0.1403
 7163TIP3    H243125   5.278   3.849   1.197  0.5510 -0.9336  0.8552
 7164TIP3   OH243126   6.027   3.223   7.028  0.3831 -0.1372 -0.2415
 7164TIP3    H143127   5.934   3.247   7.032  0.5303  0.2156  1.5987
 7164TIP3    H243128   6.074   3.305   7.036  0.8623 -0.5091  0.9023
 7165TIP3   OH243129   1.472   0.919   2.644  0.0331 -0.3615 -0.1413
 7165TIP3    H143130   1.566   0.912   2.629 -0.3588 -1.8794 -2.4077
 7165TIP3    H243131   1.438   0.831   2.629 -1.8323  0.3011 -0.1180
 7166TIP3   OH243132   6.622   3.662   6.940  0.5679 -0.4647 -0.6071
 7166TIP3    H143133   6.597   3.571   6.956  0.1143 -0.2928 -0.2955
 7166TIP3    H243134   6.711   3.669   6.973 -0.4500 -0.0234  2.4425
 7167TIP3   OH243135   4.583   3.598   0.221 -0.2234 -0.1281  0.1563
 7167TIP3    H143136   4.660   3.578   0.274 -0.4666 -0.2305  0.4734
 7167TIP3    H243137   4.530   3.655   0.277 -0.2126  0.2260 -0.1937
 7168TIP3   OH243138   5.132   2.417   0.256 -0.2861 -0.3311 -0.3664
 7168TIP3    H143139   5.162   2.362   0.184 -0.3797 -0.6101 -0.1971
 7168TIP3    H243140   5.036   2.414   0.250 -0.2903  0.2237 -0.6593
 7169TIP3   OH243141   2.893   0.410   6.760  0.2919  0.6317  0.0230
 7169TIP3    H143142   2.832   0.359   6.707 -1.2790  2.0725  0.3384
 7169TIP3    H243143   2.974   0.360   6.759 -1.1859 -1.9728  0.5105
 7170TIP3   OH243144   1.357   0.408   7.586  0.3333  0.2549 -0.1942
 7170TIP3    H143145   1.384   0.317   7.570 -0.7441 -0.0839 -0.1480
 7170TIP3    H243146   1.284   0.401   7.647 -0.3454  1.0986 -0.8845
 7171TIP3   OH243147   1.788   4.899   7.712  0.2719  0.3411 -0.5704
 7171TIP3    H143148   1.809   4.808   7.736 -0.5670  0.7723  2.1068
 7171TIP3    H243149   1.701   4.893   7.673  0.0897  0.0199 -0.1294
 7172TIP3   OH243150   4.417   1.826   1.278  0.7940 -0.8586 -0.0158
 7172TIP3    H143151   4.372   1.824   1.194  0.0414  2.6316  0.1531
 7172TIP3    H243152   4.347   1.827   1.343  1.0732  1.7120  0.3555
 7173TIP3   OH243153   6.376   1.879   0.799 -0.2763  0.4583  0.4571
 7173TIP3    H143154   6.307   1.862   0.735  1.9873 -1.5345 -1.6578
 7173TIP3    H243155   6.396   1.972   0.788 -0.4483  0.3285 -1.2530
 7174TIP3   OH243156   3.207   6.290   0.215  0.3637 -0.5643  0.4512
 7174TIP3    H143157   3.126   6.292   0.265 -0.2396 -2.5780 -0.3387
 7174TIP3    H243158   3.245   6.377   0.226 -2.5630  0.9196 -0.2737
 7175TIP3   OH243159   6.105   1.040   7.359  0.5846  0.2237 -0.7480
 7175TIP3    H143160   6.080   1.129   7.384  2.2389  0.9185 -1.4226
 7175TIP3    H243161   6.174   1.017   7.420  1.4580  0.1431 -1.7448
 7176TIP3   OH243162   1.032   4.476   1.543  0.1458 -0.2354 -0.1467
 7176TIP3    H143163   0.948   4.467   1.588  0.6070  1.0426  1.0383
 7176TIP3    H243164   1.039   4.569   1.523  0.2606 -0.6493 -2.3666
 7177LIG     O143165   3.665   4.931   7.878 -0.4309  0.1879  0.1887
 7177LIG     O243166   4.108   5.019   7.977 -0.1014 -0.6148  0.1698
 7177LIG     N143167   4.055   4.975   7.759 -0.9313  0.5819  0.8270
 7177LIG     N243168   3.748   4.947   7.583  0.1424 -0.3622 -0.0845
 7177LIG     N343169   3.885   4.988   7.925  0.2213 -0.5229  0.4228
 7177LIG     N443170   3.962   4.940   7.537  0.0659 -0.0500 -0.2989
 7177LIG     C143171   3.818   4.945   7.705 -0.4757 -0.8436  0.1184
 7177LIG     C243172   3.952   4.953   7.673  0.2941  0.5731  0.0247
 7177LIG     C343173   3.782   4.952   7.837  0.1015  0.9664 -0.6455
 7177LIG     C443174   4.021   5.001   7.891 -0.1546  0.7902 -0.6157
 7177LIG     C543175   3.839   4.949   7.485  0.1669  0.2374 -0.2873
 7177LIG     C643176   4.200   4.973   7.724  0.7736  0.8326 -1.0760
 7177LIG     C743177   3.604   4.962   7.568  0.2609 -0.7432 -0.4190
 7177LIG     C843178   3.846   5.025   8.063 -0.1909  0.5485  0.0722
 7177LIG     H143179   3.794   4.946   7.386 -0.2310 -0.3566 -0.0963
 7177LIG     H243180   4.259   4.911   7.795  0.1100  1.4196  0.0254
 7177LIG     H343181   4.254   5.070   7.723  4.1432 -0.8821 -0.3252
 7177LIG     H443182   4.211   4.919   7.627  0.5146  0.1606 -0.7440
 7177LIG     H543183   3.568   5.063   7.599  1.1788 -0.6505  0.4025
 7177LIG     H643184   3.530   4.891   7.610 -0.5264 -1.1929 -2.4526
 7177LIG     H743185   3.575   4.963   7.461 -1.8826  1.8804  0.0740
 7177LIG     H843186   3.928   5.079   8.115 -0.0399  0.2623  0.1323
 7177LIG     H943187   3.834   4.926   8.113 -0.4519  1.1423  1.2154
 7177LIG    H1043188   3.747   5.074   8.068 -0.2380  0.3966  0.7561
   6.77798   6.77798   9.00665
